G5.5-PAMAM in water
130569
    1aaa     C1    1   8.292   9.601   1.561  0.6140 -0.0335  0.1173
    1aaa     H1    2   8.385   9.608   1.618  0.4558 -1.6141  0.5961
    1aaa     H2    3   8.250   9.702   1.574  2.2173  0.6656  0.1599
    1aaa     C2    4   8.205   9.482   1.616 -0.1647 -0.4095  0.4873
    1aaa     H3    5   8.110   9.485   1.561  1.3304 -0.6535 -2.3026
    1aaa     H4    6   8.251   9.385   1.598 -1.7010 -0.8943 -1.1463
    1aaa     N1    7   8.158   9.485   1.759  0.3271 -0.3590  0.6415
    1aaa     N2    8   8.337   9.570   1.420 -0.1745  0.7898  0.1838
    1aaa     C3    9   8.431   9.460   1.411  0.1473  0.2789  0.3183
    1aaa     H5   10   8.454   9.455   1.303 -1.1353  1.2181 -0.0218
    1aaa     H6   11   8.389   9.365   1.444 -1.1683  0.9149  0.5201
    1aaa     C4   12   8.236   9.563   1.313  0.3010 -0.3323 -0.1241
    1aaa     H7   13   8.291   9.559   1.218 -0.5829 -1.0776 -0.6264
    1aaa     H8   14   8.175   9.473   1.329 -1.4546  1.0556  1.5518
    1aaa     C5   15   8.097   9.616   1.794  0.4324 -0.0992 -0.1840
    1aaa     H9   16   8.151   9.697   1.745  2.1159 -0.3400  1.1843
    1aaa    H10   17   7.996   9.631   1.754  0.4602 -1.6560 -0.9245
    1aaa     C6   18   8.064   9.377   1.799  0.0084  0.3169 -0.8680
    1aaa    H11   19   7.973   9.397   1.741 -1.5197 -1.2224  0.8498
    1aaa    H12   20   8.039   9.386   1.906  1.0852  0.6588 -0.6409
    1aaa     C7   21   8.099   9.634   1.948  0.3082 -0.2320 -0.2020
    1aaa    H13   22   8.039   9.565   2.008  0.2945  0.4355  0.5711
    1aaa    H14   23   8.202   9.602   1.972 -0.2483 -0.8921  1.4173
    1aaa     C8   24   8.108   9.232   1.764 -0.1525 -0.0339 -0.5091
    1aaa    H15   25   8.066   9.210   1.665  0.2714  1.5444 -1.0633
    1aaa    H16   26   8.216   9.237   1.748 -0.1968  1.0779 -0.5281
    1aaa     C9   27   8.138   9.684   1.305  0.2664  0.3660 -0.1293
    1aaa    H17   28   8.084   9.694   1.400  0.0537  0.5068 -0.2647
    1aaa    H18   29   8.190   9.778   1.287  1.2281 -0.1716 -0.2441
    1aaa    C10   30   8.567   9.489   1.475 -0.0804  0.4695 -0.3347
    1aaa    H19   31   8.604   9.585   1.438 -0.6647  1.1575  0.8052
    1aaa    H20   32   8.569   9.481   1.584 -0.4135 -0.1577 -0.3679
    1aaa    C11   33   8.039   9.671   1.199  0.1262  1.1501  0.0174
    1aaa    C12   34   8.655   9.385   1.417 -0.3032 -0.2875 -0.6200
    1aaa    C13   35   8.054   9.775   1.968  0.2178  0.7978  0.5762
    1aaa    C14   36   8.062   9.113   1.854  0.8067  0.4661  0.1613
    1aaa     O1   37   8.068   9.687   1.082 -0.2934  0.1618 -0.0356
    1aaa     O2   38   7.937   9.797   1.983 -1.0661 -0.2992 -0.0117
    1aaa     O3   39   8.125   9.013   1.879  0.1487 -0.1351 -0.3401
    1aaa     O4   40   8.654   9.271   1.466 -0.0579 -0.0561 -0.4977
    2bbb     C1   41   7.662   9.680   1.218  0.1469 -0.3397 -0.0859
    2bbb     H1   42   7.650   9.652   1.323 -0.1775  1.9605  0.5513
    2bbb     H2   43   7.581   9.626   1.168 -2.2643  0.5396  2.6013
    2bbb     C2   44   7.793   9.622   1.164  0.0521 -0.0344 -0.2604
    2bbb     H3   45   7.790   9.514   1.145 -0.2961 -0.3772  1.5541
    2bbb     H4   46   7.809   9.671   1.067 -2.9623 -0.9472 -1.3093
    2bbb     N1   47   7.647   9.830   1.210 -0.1035  0.0492  0.2151
    2bbb     C3   48   7.758   9.907   1.260 -0.0705  0.0657  0.2697
    2bbb     H5   49   7.808   9.860   1.346  1.6508  2.2685  0.5487
    2bbb     H6   50   7.722  10.002   1.302 -0.5076 -1.3555  3.4675
    2bbb     C4   51   7.516   9.874   1.251  0.1448 -0.1256 -0.5180
    2bbb     H7   52   7.437   9.809   1.211 -0.0445 -1.1518  1.3904
    2bbb     H8   53   7.520   9.871   1.360  0.1406 -2.0823 -0.5346
    2bbb     C5   54   7.477  10.017   1.218 -0.5465 -0.3512 -0.8420
    2bbb     H9   55   7.545  10.083   1.272  1.2268 -1.4931 -1.5943
    2bbb    H10   56   7.488  10.042   1.111 -0.5156  0.8534 -0.5701
    2bbb     C6   57   7.850   9.947   1.150 -0.4080  0.0709 -0.3795
    2bbb    H11   58   7.890   9.865   1.089 -2.5141 -0.7605 -0.7490
    2bbb    H12   59   7.792  10.004   1.077 -1.2229  0.0588  0.2325
    2bbb     C7   60   7.345  10.059   1.266 -0.0068 -0.0209  0.9536
    2bbb     C8   61   7.969  10.032   1.203  0.4172  0.3216  0.0912
    2bbb     O1   62   7.329  10.103   1.375  0.0630  0.3345 -0.0674
    2bbb     O2   63   8.013  10.005   1.310 -0.2016 -0.0589  0.0735
    2bbb     N4   64   7.912   9.638   1.250 -0.5258  0.0202 -0.4969
    2bbb    H21   65   7.907   9.630   1.351  1.8315  2.3917 -0.1140
    3bbb     C1   66   8.904   9.413   1.123 -0.2157  0.2642 -0.4970
    3bbb     H1   67   8.940   9.513   1.148 -1.3149  0.7050 -0.6187
    3bbb     H2   68   8.817   9.431   1.058 -0.6385 -1.7341 -0.5608
    3bbb     C2   69   8.846   9.340   1.248  0.7215 -0.0117 -0.4923
    3bbb     H3   70   8.803   9.244   1.217  2.8819 -1.3171  0.4137
    3bbb     H4   71   8.923   9.316   1.321 -0.4329 -3.4241 -0.2092
    3bbb     N1   72   9.004   9.330   1.058 -0.3250  0.4394 -0.0468
    3bbb     C3   73   9.135   9.318   1.124  0.4729 -0.6786 -0.3398
    3bbb     H5   74   9.118   9.325   1.233 -1.4953  1.2045 -0.7019
    3bbb     H6   75   9.210   9.391   1.091 -1.8503  1.6243 -0.8460
    3bbb     C4   76   9.028   9.369   0.921 -0.0411 -0.1527  0.2673
    3bbb     H7   77   9.042   9.477   0.931  0.9662 -0.1504 -0.9714
    3bbb     H8   78   9.118   9.322   0.882  0.6509  2.1858 -1.1853
    3bbb     C5   79   8.912   9.348   0.825 -0.0646  0.2381  0.2488
    3bbb     H9   80   8.871   9.247   0.833  0.3323  0.0961  0.5004
    3bbb    H10   81   8.835   9.425   0.839  0.7255  0.9482  0.8510
    3bbb     C6   82   9.190   9.174   1.123  0.1408  0.1924  0.2430
    3bbb    H11   83   9.114   9.109   1.169  0.4513  0.6440  1.4408
    3bbb    H12   84   9.215   9.137   1.023 -0.3017 -0.9693  0.5434
    3bbb     C7   85   8.963   9.355   0.682 -0.6495  0.0848  0.0354
    3bbb     C8   86   9.308   9.166   1.213  0.3587  0.1733 -0.1758
    3bbb     O1   87   9.069   9.408   0.650 -0.5642 -0.7134 -0.4403
    3bbb     O2   88   9.291   9.126   1.330 -0.2360 -0.7755  0.4276
    3bbb     N4   89   8.745   9.427   1.323 -0.5082 -0.5129  0.0302
    3bbb    H21   90   8.750   9.524   1.294  1.8313 -0.7433 -0.5053
    4bbb     C1   91   8.261  10.093   1.919  0.0255  0.0837  0.2751
    4bbb     H1   92   8.256  10.087   1.810  0.2044  0.8774  0.2222
    4bbb     H2   93   8.358  10.057   1.958  0.9668  0.9950 -1.1548
    4bbb     C2   94   8.149  10.008   1.988  0.7427  0.0017 -0.7305
    4bbb     H3   95   8.148  10.034   2.094  2.3720 -0.8074 -0.4839
    4bbb     H4   96   8.053  10.045   1.950 -0.5317 -1.7795  0.5835
    4bbb     N1   97   8.235  10.228   1.958 -0.4171 -0.0202 -0.4090
    4bbb     C3   98   8.146  10.295   1.862  0.3420  0.0832 -0.1608
    4bbb     H5   99   8.074  10.224   1.818  1.1307 -0.7526 -0.1376
    4bbb     H6  100   8.198  10.331   1.773  2.3219 -0.8881  0.5486
    4bbb     C4  101   8.355  10.313   1.963 -0.3660 -0.1136  0.3848
    4bbb     H7  102   8.402  10.331   1.865 -1.4894  0.0790 -0.1345
    4bbb     H8  103   8.332  10.415   1.996  1.1318  1.5287 -3.0963
    4bbb     C5  104   8.441  10.261   2.077  0.7038 -0.0441 -0.1617
    4bbb     H9  105   8.381  10.227   2.162 -0.0340  2.6487  0.5080
    4bbb    H10  106   8.502  10.175   2.048 -0.2679 -0.7309 -0.2115
    4bbb     C6  107   8.072  10.402   1.940 -0.1994  0.1712 -0.3861
    4bbb    H11  108   8.027  10.360   2.031  1.9912 -1.1698  0.1717
    4bbb    H12  109   8.140  10.479   1.980 -3.5157  2.7129  0.7720
    4bbb     C7  110   8.524  10.370   2.135 -0.0716  0.0043  0.3208
    4bbb     C8  111   7.983  10.484   1.855  0.8676 -0.0680  0.0986
    4bbb     O1  112   8.500  10.426   2.239 -0.8182  0.2456 -0.0345
    4bbb     O2  113   8.005  10.510   1.740 -0.7601  0.5977  0.1226
    4bbb     N4  114   8.153   9.860   1.967 -0.6689  0.2287 -1.0722
    4bbb    H21  115   8.239   9.811   1.945 -1.3295 -1.7844  0.5922
    5bbb     C1  116   7.956   9.053   2.154  0.0844  0.6669  0.4239
    5bbb     H1  117   7.940   9.148   2.208  0.9799  0.1643  1.6353
    5bbb     H2  118   8.064   9.042   2.138  0.0980 -1.3663  1.6121
    5bbb     C2  119   7.883   9.051   2.018  0.0142  0.2617 -0.7139
    5bbb     H3  120   7.878   8.947   1.983 -1.0363  0.2545 -0.5627
    5bbb     H4  121   7.786   9.090   2.048  0.1574 -0.5222  0.9190
    5bbb     N1  122   7.910   8.943   2.238 -0.1408 -0.3153 -0.3419
    5bbb     C3  123   7.765   8.927   2.249  0.0604 -0.4696  0.2123
    5bbb     H5  124   7.741   8.835   2.304  0.8672 -1.3220 -0.8206
    5bbb     H6  125   7.722   8.917   2.149  2.5816  2.8107 -1.3777
    5bbb     C4  126   7.959   8.811   2.195 -0.3585  0.1152 -0.2695
    5bbb     H7  127   7.901   8.730   2.241 -0.6321 -0.7155 -1.9959
    5bbb     H8  128   7.945   8.799   2.087  0.3160 -0.6491 -0.2803
    5bbb     C5  129   8.108   8.779   2.212 -1.2938  0.0490  0.5485
    5bbb     H9  130   8.143   8.702   2.141 -2.3834 -0.3030  0.3679
    5bbb    H10  131   8.162   8.871   2.188  0.9828 -1.1830  0.6431
    5bbb     C6  132   7.696   9.041   2.315  0.7576 -0.9677  0.2388
    5bbb    H11  133   7.727   9.048   2.420 -1.1728  0.9355  0.7384
    5bbb    H12  134   7.716   9.135   2.262 -1.0942 -1.1347 -0.8521
    5bbb     C7  135   8.128   8.733   2.350 -0.3757 -0.1510 -0.4553
    5bbb     C8  136   7.548   9.014   2.313  0.8055  0.2178 -1.3920
    5bbb     O1  137   8.059   8.654   2.414  0.2359  0.0504 -0.6155
    5bbb     O2  138   7.484   8.963   2.223  0.0424 -0.5179 -0.1199
    5bbb     N4  139   7.944   9.141   1.914 -0.1514  0.5819 -0.0291
    5bbb    H21  140   7.896   9.223   1.880 -1.8589 -0.2772  0.1702
    6bbb     C1  141   7.030   9.952   1.081  0.0450  0.8344 -0.1901
    6bbb     H1  142   7.080   9.856   1.101 -1.9670 -0.5802 -1.5194
    6bbb     H2  143   7.040   9.981   0.976 -1.8479  3.3268  0.2222
    6bbb     C2  144   7.102  10.052   1.171  0.7866  0.3055  0.4984
    6bbb     H3  145   7.083  10.154   1.137  0.3607 -0.2856 -1.1648
    6bbb     H4  146   7.065  10.035   1.273 -0.6702 -0.3598 -0.1072
    6bbb     N1  147   6.885   9.943   1.120  0.5065 -0.4333 -0.1795
    6bbb     C3  148   6.825   9.815   1.087  0.2111  0.8110  0.6644
    6bbb     H5  149   6.844   9.789   0.982  1.0682 -1.0218  1.2292
    6bbb     H6  150   6.716   9.820   1.091 -0.0200 -1.1563 -1.1611
    6bbb     C4  151   6.802  10.043   1.062 -0.4594 -0.3271  0.4441
    6bbb     H7  152   6.855  10.138   1.054  1.6448 -1.4515  0.1663
    6bbb     H8  153   6.759  10.020   0.964 -0.0776 -0.5954  0.3355
    6bbb     C5  154   6.692  10.075   1.155 -0.0930 -0.2056 -1.0295
    6bbb     H9  155   6.615   9.997   1.150 -0.0959 -0.2768 -0.0903
    6bbb    H10  156   6.732  10.088   1.256  1.5756 -0.4018 -1.6401
    6bbb     C6  157   6.875   9.702   1.181  0.4098 -0.0597  0.2580
    6bbb    H11  158   6.981   9.686   1.160  0.2302 -0.2065 -0.5764
    6bbb    H12  159   6.860   9.733   1.285 -1.6795 -0.8981  0.2769
    6bbb     C7  160   6.629  10.195   1.118  0.3637 -0.4081 -0.4425
    6bbb     C8  161   6.800   9.574   1.153  0.3749  0.5740 -0.0744
    6bbb     O1  162   6.523  10.191   1.058  0.0965 -0.0622 -0.2136
    6bbb     O2  163   6.852   9.480   1.091 -0.2198 -0.5928 -0.8168
    6bbb     N4  164   7.251  10.038   1.166  1.0240 -0.1145  0.4047
    6bbb    H21  165   7.293  10.001   1.082  1.8598 -1.0624  1.2145
    7bbb     C1  166   8.165  10.329   1.058  0.1029 -0.2234 -0.4331
    7bbb     H1  167   8.068  10.345   1.009  0.0982 -1.1209 -0.7269
    7bbb     H2  168   8.232  10.279   0.988  1.1084  0.7346 -0.1950
    7bbb     C2  169   8.121  10.230   1.166 -0.2942  0.2610  0.2445
    7bbb     H3  170   8.205  10.170   1.205  0.8662  2.2777  0.9890
    7bbb     H4  171   8.090  10.296   1.248  1.7413  2.1172 -0.3820
    7bbb     N1  172   8.240  10.448   1.112 -0.0829 -0.1122 -0.0418
    7bbb     C3  173   8.227  10.565   1.020 -0.1305  0.0607  0.5130
    7bbb     H5  174   8.249  10.544   0.914 -0.7441  1.4746  0.0727
    7bbb     H6  175   8.293  10.649   1.049  0.8892  0.0905 -1.6684
    7bbb     C4  176   8.381  10.409   1.133  0.7824  0.4235 -0.8482
    7bbb     H7  177   8.388  10.305   1.170 -2.6598 -0.0078 -1.1239
    7bbb     H8  178   8.429  10.402   1.035  3.2376  0.2822  0.2864
    7bbb     C5  179   8.447  10.498   1.229 -0.0580  0.7366 -0.0386
    7bbb     H9  180   8.441  10.601   1.191  0.9268  0.6507 -0.4534
    7bbb    H10  181   8.395  10.484   1.325 -1.7583 -0.9812 -1.1183
    7bbb     C6  182   8.084  10.620   1.028  0.1143  0.2200  0.2253
    7bbb    H11  183   8.011  10.544   0.995  2.1262 -1.9955  0.5734
    7bbb    H12  184   8.056  10.647   1.130 -2.6273 -1.5960  0.0836
    7bbb     C7  185   8.590  10.470   1.245  0.0626  0.6416 -1.4764
    7bbb     C8  186   8.079  10.741   0.937  0.4016 -0.3202 -0.4583
    7bbb     O1  187   8.650  10.370   1.209 -0.1417 -0.0594 -0.3889
    7bbb     O2  188   8.121  10.742   0.822  0.2832 -0.4475  0.0556
    7bbb     N4  189   8.018  10.131   1.123 -0.5942 -0.3127  0.3104
    7bbb    H21  190   7.982  10.149   1.030  1.9807  1.2813 -0.4679
    8bbb     C1  191   8.874   9.110   0.408  0.3293  0.1584  0.2464
    8bbb     H1  192   8.914   9.083   0.310 -1.9766  0.7645 -0.9224
    8bbb     H2  193   8.766   9.123   0.398  0.3418  2.1635  1.9887
    8bbb     C2  194   8.930   9.243   0.455 -0.3757  0.6553  0.5699
    8bbb     H3  195   9.040   9.237   0.452 -0.3687 -0.6555  2.2814
    8bbb     H4  196   8.910   9.329   0.390  0.0018  0.3956  0.0965
    8bbb     N1  197   8.908   9.001   0.493 -0.4520  0.1652 -0.5277
    8bbb     C3  198   8.818   8.885   0.489  0.1860 -0.1470 -0.1113
    8bbb     H5  199   8.727   8.903   0.547 -0.7087 -0.4859 -1.3600
    8bbb     H6  200   8.864   8.812   0.557 -2.0064  0.6540  2.3387
    8bbb     C4  201   9.048   8.967   0.503  0.1570 -0.8969 -0.2592
    8bbb     H7  202   9.061   8.871   0.450  1.0328 -0.5860 -0.6189
    8bbb     H8  203   9.106   9.042   0.449  1.3156 -0.4655  1.5081
    8bbb     C5  204   9.095   8.959   0.644 -0.0046  0.8663 -0.4739
    8bbb     H9  205   9.068   9.044   0.708 -0.9935  0.9892 -1.0472
    8bbb    H10  206   9.061   8.874   0.704 -1.2080  1.5565 -0.1566
    8bbb     C6  207   8.796   8.835   0.347  0.1206  0.6752  0.7760
    8bbb    H11  208   8.761   8.922   0.291 -2.0119  0.6109  1.9286
    8bbb    H12  209   8.893   8.800   0.310  0.9650  2.0841  1.5739
    8bbb     C7  210   9.244   8.955   0.638  0.6095 -0.5293 -0.0413
    8bbb     C8  211   8.683   8.735   0.347 -0.1089  0.4821  0.2369
    8bbb     O1  212   9.308   9.058   0.638  0.1907  0.0205  0.3612
    8bbb     O2  213   8.709   8.615   0.358 -0.2579 -0.1182  0.1527
    8bbb     N4  214   8.898   9.270   0.596 -0.1866  0.5993 -0.2311
    8bbb    H21  215   8.812   9.224   0.625 -1.2124 -0.2802 -4.0402
    9bbb     C1  216   9.682   9.239   1.167 -0.3884  0.2843  0.4132
    9bbb     H1  217   9.709   9.152   1.106  0.7075 -0.9026  2.4783
    9bbb     H2  218   9.766   9.243   1.237 -0.7566  0.8424  0.8364
    9bbb     C2  219   9.549   9.193   1.235 -0.2539  0.0926  0.0754
    9bbb     H3  220   9.575   9.097   1.282 -0.4749  1.0087  2.2082
    9bbb     H4  221   9.545   9.253   1.327  1.8246  1.2548 -0.5260
    9bbb     N1  222   9.668   9.366   1.088 -0.4603  0.2374  0.1714
    9bbb     C3  223   9.786   9.401   1.016 -0.3486  0.1005 -0.3593
    9bbb     H5  224   9.869   9.424   1.083  0.7049 -0.1935 -1.5231
    9bbb     H6  225   9.763   9.480   0.943  2.0593 -0.0520 -1.3708
    9bbb     C4  226   9.623   9.470   1.179 -0.0969 -0.1409 -0.2456
    9bbb     H7  227   9.552   9.425   1.250  1.9529 -0.6120  1.6238
    9bbb     H8  228   9.711   9.512   1.229  0.2941 -1.1390 -0.0789
    9bbb     C5  229   9.548   9.576   1.110  0.0312 -0.4497  0.4538
    9bbb     H9  230   9.610   9.640   1.045 -1.6286  1.8930  1.0342
    9bbb    H10  231   9.469   9.539   1.044  1.4058  0.5387 -1.8963
    9bbb     C6  232   9.836   9.285   0.930 -0.3716  0.1948 -1.0484
    9bbb    H11  233   9.853   9.187   0.975  1.6012  0.3006 -1.4347
    9bbb    H12  234   9.772   9.263   0.844 -1.5264 -1.5287  0.2006
    9bbb     C7  235   9.494   9.671   1.207  0.6168 -0.4562  0.1163
    9bbb     C8  236   9.969   9.326   0.863 -0.0877 -0.6906 -0.5711
    9bbb     O1  237   9.556   9.709   1.302  0.4409  0.0210 -0.3154
    9bbb     O2  238  10.076   9.270   0.895  0.1739 -0.3347  0.5943
    9bbb     N4  239   9.429   9.182   1.154  0.0244  0.7311 -0.4958
    9bbb    H21  240   9.434   9.178   1.053  0.1294 -3.2476 -0.5039
   10bbb     C1  241   8.854  10.428   2.188  0.2623 -1.0973 -0.1809
   10bbb     H1  242   8.887  10.344   2.125  0.4349 -1.5164  0.4684
   10bbb     H2  243   8.815  10.386   2.281  0.6356  0.5663  0.7565
   10bbb     C2  244   8.739  10.500   2.105 -0.3775 -0.1925 -0.3001
   10bbb     H3  245   8.687  10.580   2.160 -4.1175 -3.7951  2.0235
   10bbb     H4  246   8.784  10.547   2.017  1.3414 -0.1369  0.5599
   10bbb     N1  247   8.967  10.519   2.195  0.7279  0.6771  0.5017
   10bbb     C3  248   9.079  10.456   2.247  0.2090  0.3302 -0.0837
   10bbb     H5  249   9.045  10.393   2.331 -1.5494 -0.4705 -1.3356
   10bbb     H6  250   9.161  10.524   2.275 -0.0603  0.4948  0.3242
   10bbb     C4  251   8.924  10.633   2.276  0.2370 -0.4934  0.3113
   10bbb     H7  252   8.817  10.656   2.267  0.8211  2.4939 -0.2146
   10bbb     H8  253   8.949  10.629   2.382  1.3451  1.8292  0.1886
   10bbb     C5  254   8.986  10.760   2.218  0.6354  0.7919  0.5239
   10bbb     H9  255   9.084  10.742   2.171 -0.0452 -0.4895 -0.4896
   10bbb    H10  256   8.920  10.799   2.140  0.9162  1.2019  0.4874
   10bbb     C6  257   9.153  10.362   2.154 -0.0204 -0.1237  0.1409
   10bbb    H11  258   9.091  10.280   2.116 -2.2827  0.5222  2.1739
   10bbb    H12  259   9.188  10.417   2.066  0.5785 -0.3913  0.2066
   10bbb     C7  260   9.010  10.870   2.308 -0.0244 -0.4754  0.4234
   10bbb     C8  261   9.264  10.296   2.229  0.3639 -1.0361  0.0825
   10bbb     O1  262   9.087  10.859   2.405  0.0869 -0.0896  0.8938
   10bbb     O2  263   9.243  10.228   2.328  0.1740  0.5042  0.3550
   10bbb     N4  264   8.639  10.401   2.063 -0.1028  0.3115  0.7564
   10bbb    H21  265   8.657  10.350   1.977 -0.5368  1.7066 -0.2045
   11bbb     C1  266   7.630  10.597   1.956  0.0093 -0.3996 -0.2911
   11bbb     H1  267   7.584  10.503   1.923  1.6281 -1.3290 -0.0026
   11bbb     H2  268   7.571  10.686   1.934  0.3736 -0.0525  0.1367
   11bbb     C2  269   7.761  10.608   1.882 -0.1843 -0.1489  0.0604
   11bbb     H3  270   7.747  10.590   1.775 -0.4545  2.5328 -0.4086
   11bbb     H4  271   7.798  10.710   1.894 -2.4427  0.4057  3.7023
   11bbb     N1  272   7.650  10.574   2.104 -0.1031  0.2815 -0.2120
   11bbb     C3  273   7.631  10.697   2.179  0.2187  0.5883  0.8957
   11bbb     H5  274   7.646  10.670   2.284 -0.8988 -0.5689  0.7881
   11bbb     H6  275   7.528  10.732   2.163  0.7907  1.6406 -0.6707
   11bbb     C4  276   7.553  10.480   2.167  0.0842 -0.0625  0.3531
   11bbb     H7  277   7.548  10.491   2.276  2.5149 -0.2932  0.5364
   11bbb     H8  278   7.451  10.506   2.137  0.2685  0.8966  0.5266
   11bbb     C5  279   7.599  10.341   2.137  0.1902  0.5684 -0.0373
   11bbb     H9  280   7.648  10.318   2.041 -0.1674  0.9119 -0.3058
   11bbb    H10  281   7.667  10.305   2.215  0.4825 -4.1354 -2.0872
   11bbb     C6  282   7.729  10.801   2.140  0.3309 -0.3057 -0.1710
   11bbb    H11  283   7.829  10.759   2.126  0.1146 -0.3623 -1.6805
   11bbb    H12  284   7.717  10.854   2.045  0.0104  0.6569  0.3953
   11bbb     C7  285   7.484  10.251   2.142  0.1519  0.3211 -0.0003
   11bbb     C8  286   7.753  10.893   2.255  0.1155  0.3029  0.2491
   11bbb     O1  287   7.464  10.180   2.240  0.0063  0.1805 -0.1000
   11bbb     O2  288   7.814  10.849   2.356  0.0944 -0.7253  0.7872
   11bbb     N4  289   7.866  10.512   1.923 -0.1868 -0.8866  0.9039
   11bbb    H21  290   7.875  10.487   2.021  3.2155 -1.2104  0.5950
   12bbb     C1  291   8.417   8.779   2.589  1.2747  0.1029  0.3057
   12bbb     H1  292   8.447   8.881   2.559  1.8980 -0.6659 -1.7976
   12bbb     H2  293   8.482   8.712   2.532  0.2919 -3.1679  2.7340
   12bbb     C2  294   8.271   8.750   2.554  0.5120 -0.4869 -0.3677
   12bbb     H3  295   8.246   8.645   2.575 -1.4266 -0.8082 -3.6774
   12bbb     H4  296   8.218   8.819   2.621  0.2434 -3.6496  3.0308
   12bbb     N1  297   8.437   8.764   2.736  0.6614  0.5077 -0.1041
   12bbb     C3  298   8.360   8.857   2.813  0.9613  0.4751  0.5227
   12bbb     H5  299   8.257   8.818   2.815 -0.0310  2.8342 -1.0118
   12bbb     H6  300   8.367   8.953   2.760 -0.6874  0.3062 -0.0695
   12bbb     C4  301   8.434   8.635   2.792  0.4490  0.4324  0.2348
   12bbb     H7  302   8.476   8.628   2.893 -1.7407 -3.0519  1.1035
   12bbb     H8  303   8.332   8.594   2.800  0.9527 -0.8066  0.5330
   12bbb     C5  304   8.519   8.540   2.711 -0.2984  0.5758  0.5661
   12bbb     H9  305   8.480   8.526   2.610  1.3801 -0.1596 -0.0162
   12bbb    H10  306   8.620   8.581   2.697 -0.7890  1.4002 -0.7361
   12bbb     C6  307   8.404   8.872   2.957  0.2468  0.2229  0.1607
   12bbb    H11  308   8.378   8.794   3.029  2.8131 -1.1977 -0.3492
   12bbb    H12  309   8.513   8.872   2.954  0.2567 -1.3908 -0.9529
   12bbb     C7  310   8.529   8.401   2.773 -0.1739 -1.1023 -0.0196
   12bbb     C8  311   8.360   9.008   3.013  0.6238  0.0850  0.4052
   12bbb     O1  312   8.549   8.393   2.892 -0.1472  0.3090  0.5550
   12bbb     O2  313   8.253   9.057   2.980  0.0691  0.2766  0.2868
   12bbb     N4  314   8.242   8.781   2.410  0.8501 -0.0656  0.3584
   12bbb    H21  315   8.309   8.825   2.347 -0.5221 -2.0011 -2.6633
   13bbb     C1  316   7.291   9.040   2.605 -0.1261  0.3261  0.6323
   13bbb     H1  317   7.367   9.112   2.636  0.5321  0.3533 -0.9410
   13bbb     H2  318   7.293   8.959   2.679  1.1670 -1.0126 -0.7833
   13bbb     C2  319   7.349   8.977   2.476  0.3604  0.5531  0.6036
   13bbb     H3  320   7.358   8.870   2.494 -0.3942 -0.0671 -2.2361
   13bbb     H4  321   7.273   8.989   2.398  1.7151  0.2730 -0.8324
   13bbb     N1  322   7.155   9.096   2.598 -0.5627 -0.2548  0.1480
   13bbb     C3  323   7.082   9.086   2.720  0.5668  0.8187  1.0495
   13bbb     H5  324   7.094   8.982   2.753 -1.1985  0.8658  1.9572
   13bbb     H6  325   6.975   9.098   2.701  0.2544 -3.6877 -1.6260
   13bbb     C4  326   7.131   9.213   2.512 -0.2683 -0.3474 -0.3240
   13bbb     H7  327   7.117   9.298   2.580  1.2992 -1.3467  1.3600
   13bbb     H8  328   7.219   9.233   2.450 -2.0879  2.3366 -2.2460
   13bbb     C5  329   7.013   9.180   2.426  0.3034  0.2834 -0.4402
   13bbb     H9  330   7.031   9.085   2.374 -0.8281 -0.5165  0.5528
   13bbb    H10  331   6.918   9.171   2.480 -0.1577 -1.8192 -1.4927
   13bbb     C6  332   7.143   9.172   2.830  0.4553 -0.6564 -0.7467
   13bbb    H11  333   7.231   9.127   2.876  1.3670 -0.6327 -2.3756
   13bbb    H12  334   7.171   9.272   2.794 -0.0626  0.6272  2.1267
   13bbb     C7  335   6.989   9.290   2.324  0.2129  0.6598  0.3081
   13bbb     C8  336   7.036   9.202   2.936  0.7616  0.7247 -0.7210
   13bbb     O1  337   7.036   9.403   2.329  0.6500 -0.1116  0.3762
   13bbb     O2  338   6.920   9.241   2.908 -0.5159  0.3021 -0.3111
   13bbb     N4  339   7.486   9.040   2.436 -0.5132  0.5993  0.3176
   13bbb    H21  340   7.540   9.094   2.502  0.2495 -0.5050  0.6167
   14bbb     C1  341   6.548  10.465   1.281  0.1666 -0.7543  0.0342
   14bbb     H1  342   6.613  10.454   1.368  0.9787  1.7195 -0.1953
   14bbb     H2  343   6.479  10.380   1.288  0.6253 -1.1988 -0.6981
   14bbb     C2  344   6.626  10.446   1.149 -0.3429  0.9647  0.4884
   14bbb     H3  345   6.559  10.473   1.066  2.2702  0.7175 -1.8363
   14bbb     H4  346   6.704  10.521   1.129  2.9812 -2.3601 -0.1174
   14bbb     N1  347   6.472  10.592   1.290 -0.2495  0.5190 -0.6869
   14bbb     C3  348   6.553  10.709   1.277  1.0400 -0.0630 -0.2204
   14bbb     H5  349   6.654  10.700   1.236  0.0853 -1.9029 -2.3796
   14bbb     H6  350   6.563  10.757   1.376  1.0653  3.8628 -1.9394
   14bbb     C4  351   6.382  10.592   1.411  0.0268 -0.2044  0.1765
   14bbb     H7  352   6.425  10.553   1.504 -0.4391  1.5886  1.1832
   14bbb     H8  353   6.349  10.695   1.431 -2.0736 -1.1278  1.8123
   14bbb     C5  354   6.252  10.524   1.373  0.1213 -0.1018  0.0294
   14bbb     H9  355   6.267  10.429   1.320  0.6597 -0.3818  0.6588
   14bbb    H10  356   6.194  10.502   1.464 -2.9215  1.5578 -1.3643
   14bbb     C6  357   6.471  10.812   1.197  0.5030 -0.0758  0.1561
   14bbb    H11  358   6.438  10.762   1.105 -0.9186 -0.3737  0.8064
   14bbb    H12  359   6.383  10.856   1.246 -0.2055 -2.4548  1.1547
   14bbb     C7  360   6.167  10.614   1.294 -0.7010  0.0991 -0.8110
   14bbb     C8  361   6.561  10.929   1.175 -0.3213 -0.0767  0.3024
   14bbb     O1  362   6.062  10.657   1.342 -0.0618  0.2204 -0.0528
   14bbb     O2  363   6.619  10.987   1.269 -0.1695 -0.4999 -0.4244
   14bbb     N4  364   6.697  10.312   1.139  0.6867  0.3482  0.2773
   14bbb    H21  365   6.788  10.304   1.182  1.2829  0.3979 -0.9440
   15bbb     C1  366   6.516   9.468   1.369  0.6127 -0.2455 -0.0419
   15bbb     H1  367   6.443   9.546   1.344 -3.8557 -2.9553  3.0966
   15bbb     H2  368   6.574   9.510   1.452  1.0733  1.2171 -1.0684
   15bbb     C2  369   6.601   9.442   1.241 -0.5477 -0.7845  0.0427
   15bbb     H3  370   6.674   9.365   1.268  2.6753  2.0291 -0.1131
   15bbb     H4  371   6.537   9.407   1.159 -1.0231 -2.2200  0.9806
   15bbb     N1  372   6.420   9.366   1.408 -0.0005  0.6045 -0.3761
   15bbb     C3  373   6.337   9.313   1.293 -0.4299  0.4696 -0.7307
   15bbb     H5  374   6.257   9.261   1.348 -0.5848  0.2950 -1.1151
   15bbb     H6  375   6.394   9.251   1.224  0.1725  1.3513 -1.0361
   15bbb     C4  376   6.491   9.257   1.476 -0.3876 -0.1285  1.1074
   15bbb     H7  377   6.558   9.207   1.405 -1.6588 -0.3204  0.0074
   15bbb     H8  378   6.563   9.293   1.551  3.0994 -3.5302 -0.3087
   15bbb     C5  379   6.397   9.170   1.558 -0.0054  0.5057  0.5825
   15bbb     H9  380   6.340   9.219   1.638 -2.5063 -0.4690 -0.4839
   15bbb    H10  381   6.330   9.118   1.488  0.4023 -0.5383  0.9517
   15bbb     C6  382   6.262   9.421   1.222 -0.8492 -0.0994 -0.0059
   15bbb    H11  383   6.219   9.482   1.301  2.3517 -0.4342  2.1876
   15bbb    H12  384   6.323   9.485   1.157 -1.2388  1.0863  0.7660
   15bbb     C7  385   6.481   9.061   1.614  0.0213 -0.3386 -0.4803
   15bbb     C8  386   6.153   9.369   1.136  0.1697  0.8791 -0.1175
   15bbb     O1  387   6.513   8.962   1.544  0.3610 -0.1047 -0.0490
   15bbb     O2  388   6.164   9.255   1.099  0.2354  0.2023 -0.1601
   15bbb     N4  389   6.672   9.562   1.212 -0.7365 -0.7312 -0.3984
   15bbb    H21  390   6.645   9.646   1.262 -1.1412 -0.4755 -1.0326
   16bbb     C1  391   8.871  10.687   1.400 -0.2528  0.3118  0.4590
   16bbb     H1  392   8.816  10.746   1.475 -0.1692 -0.0238  0.7927
   16bbb     H2  393   8.886  10.749   1.311 -1.1231  0.2909  0.2890
   16bbb     C2  394   8.795  10.558   1.365 -0.1821 -0.3465 -0.3333
   16bbb     H3  395   8.854  10.508   1.288  0.9600  0.3801  0.0407
   16bbb     H4  396   8.776  10.494   1.452  0.0750  0.8857  0.6687
   16bbb     N1  397   9.011  10.660   1.452  0.2147  0.1130 -0.6098
   16bbb     C3  398   9.017  10.587   1.578  0.2356  0.1058 -0.3767
   16bbb     H5  399   8.915  10.559   1.610 -0.1210 -0.1256 -1.6590
   16bbb     H6  400   9.057  10.651   1.658 -2.0692  2.1414 -0.7221
   16bbb     C4  401   9.101  10.769   1.431  0.3279 -0.4885  0.8232
   16bbb     H7  402   9.094  10.800   1.326  2.0666 -0.6024  0.6498
   16bbb     H8  403   9.084  10.857   1.495 -0.2753  1.0325 -1.3154
   16bbb     C5  404   9.246  10.736   1.451 -0.5327 -0.2294 -0.6859
   16bbb     H9  405   9.253  10.718   1.559 -1.3673 -0.7646 -0.7074
   16bbb    H10  406   9.286  10.655   1.389 -0.8443 -0.9051 -0.0198
   16bbb     C6  407   9.094  10.461   1.544 -0.1377  0.2948  0.4066
   16bbb    H11  408   9.048  10.402   1.464  1.7544  1.0026 -1.2872
   16bbb    H12  409   9.197  10.472   1.506 -0.3423 -0.0768 -0.2674
   16bbb     C7  410   9.328  10.861   1.416  0.6884 -0.2589  0.5796
   16bbb     C8  411   9.108  10.377   1.664  0.0259  1.1911 -0.0363
   16bbb     O1  412   9.365  10.936   1.507 -0.2046  0.0700  0.3431
   16bbb     O2  413   9.184  10.407   1.752 -0.5428 -0.6320 -0.2568
   16bbb     N4  414   8.657  10.577   1.306  0.2332 -0.0319 -0.3464
   16bbb    H21  415   8.602  10.661   1.319  0.5453 -0.0013  0.8707
   17bbb     C1  416   7.891  11.078   0.994 -0.0146  1.0462 -0.1646
   17bbb     H1  417   7.938  11.145   1.067 -0.2575  1.2656 -0.2070
   17bbb     H2  418   7.839  11.005   1.058 -1.0108  2.2510  0.4320
   17bbb     C2  419   8.000  10.984   0.933 -0.7239 -0.2402 -0.2115
   17bbb     H3  420   7.969  10.968   0.829 -0.1004  0.3034 -0.4924
   17bbb     H4  421   8.097  11.036   0.928  0.0720 -1.7791 -3.6861
   17bbb     N1  422   7.801  11.136   0.891  0.1262  0.2561  0.4090
   17bbb     C3  423   7.869  11.233   0.807  0.5300  0.0283 -0.0397
   17bbb     H5  424   7.967  11.192   0.781 -0.3959 -1.4186 -1.4593
   17bbb     H6  425   7.877  11.326   0.864  1.9063 -0.1847  0.1348
   17bbb     C4  426   7.688  11.205   0.955 -0.3467  0.5483 -0.5029
   17bbb     H7  427   7.721  11.258   1.045 -1.2232  1.4216 -0.6656
   17bbb     H8  428   7.657  11.278   0.879 -1.8602  2.6778  1.9791
   17bbb     C5  429   7.577  11.108   0.973 -0.3580 -0.1494 -0.3647
   17bbb     H9  430   7.529  11.084   0.877 -2.0678 -1.4040  0.7497
   17bbb    H10  431   7.618  11.019   1.022 -1.0083  1.1155  2.7368
   17bbb     C6  432   7.792  11.256   0.676 -0.3872 -0.4081  0.2907
   17bbb    H11  433   7.757  11.167   0.623  1.5155 -0.2956 -1.2675
   17bbb    H12  434   7.710  11.326   0.697 -0.3064 -0.1447 -0.2653
   17bbb     C7  435   7.475  11.165   1.067 -0.1042 -0.7698 -0.3369
   17bbb     C8  436   7.883  11.310   0.579  0.2324  0.0798  0.3833
   17bbb     O1  437   7.492  11.245   1.159  0.2724 -0.4451 -0.5121
   17bbb     O2  438   7.968  11.240   0.536 -0.0663  0.0498  0.0919
   17bbb     N4  439   8.023  10.854   1.000  0.1245 -0.3162  0.5121
   17bbb    H21  440   7.998  10.846   1.098 -2.0999  2.0955  0.2564
   18bbb     C1  441   9.376   8.783   0.400 -0.0433  0.0632  0.5905
   18bbb     H1  442   9.304   8.861   0.373 -0.3146 -0.8018 -1.3412
   18bbb     H2  443   9.319   8.690   0.394 -0.8557  0.6465 -1.9711
   18bbb     C2  444   9.416   8.798   0.549 -0.2439 -0.4515 -0.3404
   18bbb     H3  445   9.475   8.709   0.576 -1.4431 -1.3871 -0.6628
   18bbb     H4  446   9.487   8.880   0.563 -1.2266  0.4431 -0.5135
   18bbb     N1  447   9.495   8.783   0.313  0.4082  0.8461  0.2715
   18bbb     C3  448   9.559   8.914   0.309  0.2679  0.2460  0.0700
   18bbb     H5  449   9.556   8.971   0.403 -0.6496  1.2377 -0.5349
   18bbb     H6  450   9.536   8.978   0.223  0.5596 -0.9146 -0.8864
   18bbb     C4  451   9.474   8.727   0.180  0.0773  0.1625  1.2153
   18bbb     H7  452   9.385   8.775   0.137  2.1202  0.9384 -2.5856
   18bbb     H8  453   9.552   8.760   0.110 -0.2001 -0.7400  0.4604
   18bbb     C5  454   9.469   8.573   0.180  0.3147 -0.4516  0.4884
   18bbb     H9  455   9.565   8.524   0.200  0.1183  0.2999  3.9501
   18bbb    H10  456   9.391   8.537   0.248 -0.8132  3.1044  1.2970
   18bbb     C6  457   9.709   8.893   0.298 -0.0263  0.5940 -0.0032
   18bbb    H11  458   9.744   8.826   0.377  3.6170  2.4622  0.1696
   18bbb    H12  459   9.736   8.850   0.200  0.4452  0.6156  0.1154
   18bbb     C7  460   9.441   8.522   0.043  0.5591  0.3234  0.7522
   18bbb     C8  461   9.774   9.024   0.299  0.0890  0.7226  0.0463
   18bbb     O1  462   9.515   8.552  -0.047  0.0064 -0.8174 -0.1686
   18bbb     O2  463   9.754   9.103   0.208 -0.2500 -0.4038 -0.3472
   18bbb     N4  464   9.293   8.822   0.626 -0.2742 -0.0117  0.6431
   18bbb    H21  465   9.223   8.750   0.622  0.5035 -0.8520  1.4884
   19bbb     C1  466   8.364   8.638   0.377  0.0243 -0.2757 -0.1536
   19bbb     H1  467   8.357   8.725   0.442  2.7162  0.1717 -0.3703
   19bbb     H2  468   8.424   8.567   0.435  0.8122 -0.8706 -1.6295
   19bbb     C2  469   8.449   8.690   0.254 -0.3726 -0.5453 -0.2292
   19bbb     H3  470   8.489   8.607   0.194  0.0794  0.1898 -0.9660
   19bbb     H4  471   8.391   8.757   0.189 -0.2147 -1.3448 -1.2046
   19bbb     N1  472   8.232   8.587   0.343  0.0527  0.0323  0.0506
   19bbb     C3  473   8.239   8.469   0.249 -0.5015 -0.4538  0.1841
   19bbb     H5  474   8.275   8.504   0.151 -1.9040  0.9586  0.1411
   19bbb     H6  475   8.142   8.425   0.224 -0.7391 -0.5713  1.2991
   19bbb     C4  476   8.127   8.685   0.313 -0.5877  0.3031  0.0641
   19bbb     H7  477   8.151   8.784   0.353 -3.5946  0.6362  1.3457
   19bbb     H8  478   8.112   8.692   0.205 -1.7427 -1.8417  0.0373
   19bbb     C5  479   8.007   8.630   0.391 -0.6716  0.5194  0.8225
   19bbb     H9  480   7.973   8.536   0.346  2.7043 -0.1272 -0.6637
   19bbb    H10  481   8.039   8.615   0.494  2.3785 -0.2885 -0.1388
   19bbb     C6  482   8.320   8.356   0.306  0.1934  0.0256  0.3990
   19bbb    H11  483   8.422   8.388   0.331  1.0115  0.0945 -2.6972
   19bbb    H12  484   8.271   8.315   0.396  0.7675 -1.7330 -0.0502
   19bbb     C7  485   7.897   8.725   0.395 -0.2015  0.1526 -0.6596
   19bbb     C8  486   8.327   8.236   0.203  0.5721  0.5574 -0.3641
   19bbb     O1  487   7.909   8.837   0.357  0.4679  0.3790 -0.0517
   19bbb     O2  488   8.232   8.163   0.191  0.0491 -0.2523  0.0328
   19bbb     N4  489   8.555   8.780   0.307 -0.1848 -0.0101  0.2191
   19bbb    H21  490   8.545   8.881   0.315 -2.2323 -0.2700  1.6685
   20bbb     C1  491   9.241   9.780   1.394 -0.0503 -0.4242  0.6033
   20bbb     H1  492   9.187   9.864   1.441  1.1656  1.1200 -0.6445
   20bbb     H2  493   9.328   9.761   1.459 -0.2039 -0.8692  0.6832
   20bbb     C2  494   9.292   9.826   1.251 -0.2186  0.3875 -0.1263
   20bbb     H3  495   9.208   9.853   1.185 -1.1167 -0.5087  0.6009
   20bbb     H4  496   9.349   9.918   1.270  3.9993 -1.8157 -1.0100
   20bbb     N1  497   9.155   9.667   1.380  0.3629  0.1168 -0.2127
   20bbb     C3  498   9.170   9.572   1.485  0.0994  0.2657 -0.5748
   20bbb     H5  499   9.082   9.507   1.494  0.2674  0.1548  0.3906
   20bbb     H6  500   9.167   9.624   1.581  0.9089  1.7192 -1.3060
   20bbb     C4  501   9.012   9.693   1.376  1.0120 -0.7139  0.2461
   20bbb     H7  502   8.958   9.600   1.359 -2.4780  1.2092 -0.1373
   20bbb     H8  503   8.981   9.730   1.474  1.4700  2.5087 -0.6954
   20bbb     C5  504   8.961   9.793   1.270 -0.7990  0.9399  0.5387
   20bbb     H9  505   8.989   9.897   1.287 -2.8264  1.3673  1.6353
   20bbb    H10  506   9.013   9.750   1.184  0.3737 -1.0831  2.1700
   20bbb     C6  507   9.296   9.487   1.462 -0.4992 -0.0299 -0.1336
   20bbb    H11  508   9.286   9.430   1.369 -0.9345  1.7802 -1.2332
   20bbb    H12  509   9.382   9.555   1.463  0.8943 -1.6310  2.7140
   20bbb     C7  510   8.811   9.795   1.268 -0.0882  1.0125 -0.0905
   20bbb     C8  511   9.322   9.404   1.579 -0.5230 -0.4029 -0.3235
   20bbb     O1  512   8.746   9.714   1.200 -1.1302  0.4292 -0.5609
   20bbb     O2  513   9.260   9.305   1.600 -0.0555  0.4089 -0.9919
   20bbb     N4  514   9.368   9.720   1.176  0.3076  0.0442  0.0757
   20bbb    H21  515   9.322   9.677   1.097 -0.5316  0.4152  0.3505
   21bbb     C1  516  10.081   9.530   0.564  0.8306  0.0523 -0.1063
   21bbb     H1  517  10.039   9.631   0.567 -0.0405 -0.2918 -0.5072
   21bbb     H2  518  10.012   9.458   0.519  0.3541 -0.9190  2.0331
   21bbb     C2  519  10.094   9.477   0.702 -0.2097  0.9044 -0.3340
   21bbb     H3  520  10.174   9.402   0.702  1.5263  2.6452 -0.2943
   21bbb     H4  521  10.129   9.559   0.766 -1.3659  0.9720  0.2303
   21bbb     N1  522  10.207   9.521   0.503  0.4182 -0.2003 -0.0727
   21bbb     C3  523  10.297   9.638   0.519 -0.3315  0.5753 -0.5561
   21bbb     H5  524  10.237   9.723   0.553 -0.5706  1.1447 -2.2803
   21bbb     H6  525  10.325   9.670   0.418  0.5374 -1.8248 -1.1321
   21bbb     C4  526  10.187   9.484   0.360 -0.0709  0.6872  0.2087
   21bbb     H7  527  10.097   9.424   0.341 -0.4900  1.7687 -1.5667
   21bbb     H8  528  10.166   9.582   0.313 -0.4445 -0.7027 -2.7716
   21bbb     C5  529  10.302   9.413   0.298  0.3257 -0.6474  1.2037
   21bbb     H9  530  10.388   9.481   0.304  0.8002 -1.0242 -0.6830
   21bbb    H10  531  10.324   9.318   0.348  1.5208 -0.1480  1.6721
   21bbb     C6  532  10.416   9.598   0.607 -0.4297  0.0444  0.5790
   21bbb    H11  533  10.378   9.589   0.709 -1.6409 -0.4314  0.1088
   21bbb    H12  534  10.462   9.501   0.583 -1.6564 -0.9697  2.1054
   21bbb     C7  535  10.280   9.392   0.150  0.0735 -0.8174  0.7194
   21bbb     C8  536  10.522   9.708   0.616 -0.1399  0.1024  0.3071
   21bbb     O1  537  10.232   9.477   0.074 -0.3781  0.1076 -0.2069
   21bbb     O2  538  10.508   9.811   0.552  0.4974 -0.1818  0.3305
   21bbb     N4  539   9.967   9.428   0.774  0.1241 -0.1201 -0.1703
   21bbb    H21  540   9.879   9.476   0.759 -1.5560 -2.3551  1.7389
   22bbb     C1  541   8.953  11.240   2.294 -0.4293  0.0230 -0.8061
   22bbb     H1  542   8.849  11.237   2.258 -1.5554  0.1828  2.0976
   22bbb     H2  543   9.029  11.252   2.217 -0.0575  0.5695 -0.3605
   22bbb     C2  544   8.965  11.106   2.371  0.2534 -0.1915 -0.0754
   22bbb     H3  545   9.069  11.101   2.405 -0.4985 -1.8560  2.2130
   22bbb     H4  546   8.901  11.102   2.460  1.9136 -0.3830  1.1589
   22bbb     N1  547   8.959  11.351   2.390 -0.1179 -0.4219 -0.1340
   22bbb     C3  548   8.908  11.476   2.334 -0.7280  0.2124 -0.3894
   22bbb     H5  549   8.817  11.445   2.282 -0.4783 -0.9585 -0.1566
   22bbb     H6  550   8.981  11.524   2.266  0.0143  1.8679  1.4609
   22bbb     C4  551   9.094  11.369   2.439 -0.0747  0.6227  1.3759
   22bbb     H7  552   9.174  11.301   2.411  0.2572  0.5748  2.4176
   22bbb     H8  553   9.125  11.471   2.413  0.8716  0.0300  0.0807
   22bbb     C5  554   9.094  11.346   2.586  0.8314  0.1901 -0.3682
   22bbb     H9  555   9.028  11.417   2.636 -1.5287 -1.3421 -1.1414
   22bbb    H10  556   9.058  11.243   2.604  1.8523  0.0955  1.4363
   22bbb     C6  557   8.868  11.574   2.442  0.3802 -0.6095 -0.0252
   22bbb    H11  558   8.795  11.533   2.512  0.0672  2.4408  1.6269
   22bbb    H12  559   8.958  11.603   2.499 -0.3734  0.6352  0.5731
   22bbb     C7  560   9.230  11.370   2.652  0.3662 -0.0259  0.2715
   22bbb     C8  561   8.812  11.698   2.377 -0.1332  0.2803 -0.3057
   22bbb     O1  562   9.313  11.451   2.608  0.2340 -0.1525 -0.0991
   22bbb     O2  563   8.881  11.798   2.370  0.0447 -0.1580 -0.0755
   22bbb     N4  564   8.948  10.988   2.276 -0.4198 -0.3921 -0.5001
   22bbb    H21  565   8.867  10.986   2.214 -1.3832 -0.3807  0.7085
   23bbb     C1  566   9.596  10.185   2.145 -0.2932  0.1089 -0.1949
   23bbb     H1  567   9.650  10.254   2.080 -0.3404 -0.4497 -0.8277
   23bbb     H2  568   9.519  10.130   2.089 -1.0661 -1.3269  2.1110
   23bbb     C2  569   9.509  10.269   2.241 -0.1752  0.2002 -0.6051
   23bbb     H3  570   9.496  10.211   2.333  2.4433  2.7065  1.5501
   23bbb     H4  571   9.568  10.353   2.278 -0.9550  0.5314 -0.0782
   23bbb     N1  572   9.677  10.083   2.221 -0.2591 -0.7295  0.1348
   23bbb     C3  573   9.787  10.150   2.297  0.0074 -0.2251  0.3818
   23bbb     H5  574   9.757  10.247   2.338 -0.7144  0.0788 -0.8153
   23bbb     H6  575   9.875  10.165   2.233  0.5913  0.1340  1.2493
   23bbb     C4  576   9.724   9.984   2.124  0.1254 -0.0501 -0.2367
   23bbb     H7  577   9.678  10.002   2.026  2.9845  0.1048 -1.6496
   23bbb     H8  578   9.832   9.992   2.107  0.0717  0.6996 -0.2600
   23bbb     C5  579   9.696   9.841   2.178 -0.4625 -0.3080  0.5111
   23bbb     H9  580   9.711   9.827   2.286  1.1428 -1.4874  0.1771
   23bbb    H10  581   9.592   9.818   2.153 -0.0383 -0.9905 -0.7172
   23bbb     C6  582   9.837  10.058   2.408 -0.4021 -0.0560 -0.6088
   23bbb    H11  583   9.754  10.025   2.472 -0.6442  3.5808  1.2358
   23bbb    H12  584   9.880   9.968   2.363 -1.4080 -0.0106 -1.7164
   23bbb     C7  585   9.783   9.748   2.103 -0.2601  0.6334 -0.1326
   23bbb     C8  586   9.955  10.113   2.492  0.3012  0.2287  0.6756
   23bbb     O1  587   9.755   9.732   1.981  0.2709  0.4862  0.2659
   23bbb     O2  588  10.052  10.154   2.440  0.1608  0.5011  0.0919
   23bbb     N4  589   9.387  10.324   2.184 -0.5630  0.0576  0.0095
   23bbb    H21  590   9.388  10.387   2.105 -1.3354  2.0038  1.4563
   24bbb     C1  591   7.205  10.178   1.897 -0.8143  0.4030 -0.1798
   24bbb     H1  592   7.288  10.139   1.838 -0.8069 -0.9355  0.6881
   24bbb     H2  593   7.179  10.282   1.872  0.8514  1.1478  1.0125
   24bbb     C2  594   7.274  10.164   2.033 -0.0297  0.2775 -0.5618
   24bbb     H3  595   7.210  10.187   2.119  3.0471  0.9187  1.7160
   24bbb     H4  596   7.301  10.059   2.049  0.8320  0.3997 -1.1285
   24bbb     N1  597   7.088  10.089   1.886 -0.1302 -0.2778 -0.2904
   24bbb     C3  598   7.045  10.062   1.748  0.0478  0.1380 -0.0753
   24bbb     H5  599   7.020  10.156   1.697  0.4021  0.6873  0.7421
   24bbb     H6  600   6.956   9.997   1.750 -0.2372  0.4587 -1.3887
   24bbb     C4  601   6.970  10.152   1.964  0.1061  0.0210  0.4892
   24bbb     H7  602   7.007  10.202   2.054  0.9464 -0.4511  0.4261
   24bbb     H8  603   6.913  10.222   1.902 -0.8474 -1.1092  0.0404
   24bbb     C5  604   6.865  10.051   2.006 -0.0191 -0.2379  0.5411
   24bbb     H9  605   6.826   9.999   1.917 -1.8835  1.2730  0.4222
   24bbb    H10  606   6.896   9.967   2.069 -0.4851 -2.0345 -1.4803
   24bbb     C6  607   7.157   9.997   1.665  0.9960 -0.8003  0.5209
   24bbb    H11  608   7.222  10.073   1.621 -0.2540  0.9731  1.6153
   24bbb    H12  609   7.227   9.941   1.728  2.5538  0.9001  0.3573
   24bbb     C7  610   6.752  10.116   2.077  0.0534 -0.4542  0.0438
   24bbb     C8  611   7.097   9.914   1.551 -0.2323 -0.1124 -0.3034
   24bbb     O1  612   6.651  10.150   2.014  0.1388 -0.6226 -0.2880
   24bbb     O2  613   6.991   9.937   1.496  0.2679 -0.1845 -0.3890
   24bbb     N4  614   7.397  10.247   2.038 -0.3480 -0.6176 -0.1533
   24bbb    H21  615   7.430  10.309   1.965 -0.0883  0.9639  1.2312
   25bbb     C1  616   7.668  11.263   2.305 -0.8322 -0.0068 -0.0927
   25bbb     H1  617   7.564  11.265   2.341 -1.0698  0.8616 -0.7849
   25bbb     H2  618   7.665  11.295   2.200  1.2497 -0.5633 -0.3623
   25bbb     C2  619   7.753  11.131   2.324  0.1764  0.1592  0.1242
   25bbb     H3  620   7.861  11.146   2.311  0.4204 -1.4696  0.1296
   25bbb     H4  621   7.732  11.102   2.428  0.7011  2.4210  0.9201
   25bbb     N1  622   7.749  11.366   2.382  0.2615 -0.2884 -0.1140
   25bbb     C3  623   7.682  11.427   2.493  0.6089 -0.0575 -0.3494
   25bbb     H5  624   7.595  11.477   2.449 -0.3754 -0.0249  1.5376
   25bbb     H6  625   7.749  11.496   2.544  0.0218 -0.5782  1.1952
   25bbb     C4  626   7.839  11.454   2.302 -0.2472 -0.4124  0.1958
   25bbb     H7  627   7.858  11.419   2.200 -0.7058  2.4379 -0.9710
   25bbb     H8  628   7.794  11.551   2.277  0.4382 -0.3555 -0.9218
   25bbb     C5  629   7.968  11.468   2.375  0.1094  0.0713  0.2361
   25bbb     H9  630   7.954  11.501   2.479 -1.1436 -2.4129  0.9317
   25bbb    H10  631   8.005  11.364   2.376 -0.5964 -0.2902 -2.7672
   25bbb     C6  632   7.647  11.326   2.601 -0.3622 -0.7457 -1.2683
   25bbb    H11  633   7.561  11.264   2.575 -0.5538 -1.3377  0.6241
   25bbb    H12  634   7.722  11.249   2.619 -1.2503 -1.2402  0.5678
   25bbb     C7  635   8.062  11.556   2.298 -0.0002  0.0870  0.4065
   25bbb     C8  636   7.616  11.403   2.727  0.1945  0.1120  0.1159
   25bbb     O1  637   8.030  11.668   2.263  0.0702  0.5586 -0.0717
   25bbb     O2  638   7.702  11.473   2.786 -0.8575  0.3182 -0.0087
   25bbb     N4  639   7.709  11.021   2.233 -0.3055 -0.8305  0.1598
   25bbb    H21  640   7.653  11.028   2.150 -0.3322 -2.3485  0.0208
   26bbb     C1  641   8.413   8.047   2.771 -0.2535 -0.3127  0.4113
   26bbb     H1  642   8.450   7.947   2.797  0.9684  0.4907  1.9540
   26bbb     H2  643   8.360   8.038   2.676  0.4453 -2.4620  0.1670
   26bbb     C2  644   8.539   8.145   2.744 -0.2925 -0.0734  0.5600
   26bbb     H3  645   8.605   8.148   2.832 -1.6159  1.0321  1.5566
   26bbb     H4  646   8.588   8.087   2.664 -1.5030  1.0655 -1.0600
   26bbb     N1  647   8.337   8.092   2.883  0.3902 -0.0163 -0.6360
   26bbb     C3  648   8.198   8.063   2.880  0.7177  0.4623  0.0096
   26bbb     H5  649   8.155   8.090   2.977  0.2514  0.7354 -0.2710
   26bbb     H6  650   8.173   7.956   2.869 -0.0064  0.7487 -1.3703
   26bbb     C4  651   8.392   8.084   3.015  0.3063 -0.0758  0.0898
   26bbb     H7  652   8.495   8.122   3.023  0.3125  0.6513 -2.5776
   26bbb     H8  653   8.334   8.149   3.082  1.0543  1.7506 -0.9503
   26bbb     C5  654   8.384   7.937   3.072 -0.7178  0.6235 -0.0901
   26bbb     H9  655   8.299   7.926   3.141 -1.0692  1.0109 -0.4547
   26bbb    H10  656   8.373   7.866   2.990 -3.0304 -0.1719  0.8142
   26bbb     C6  657   8.135   8.151   2.773  0.2938  0.4620 -0.3762
   26bbb    H11  658   8.167   8.255   2.788 -1.2758  0.8695  0.3263
   26bbb    H12  659   8.162   8.107   2.676  0.0244 -1.1791  0.2672
   26bbb     C7  660   8.504   7.903   3.155 -0.8816 -0.3067 -0.3171
   26bbb     C8  661   7.983   8.151   2.789 -0.7278  0.8093  1.0388
   26bbb     O1  662   8.599   7.843   3.104  0.4458  0.2939 -0.2819
   26bbb     O2  663   7.929   8.174   2.891 -0.0981  0.6516 -0.7031
   26bbb     N4  664   8.513   8.284   2.697 -0.6312  0.0335  0.0447
   26bbb    H21  665   8.486   8.294   2.599  2.0630 -1.3742 -0.9437
   27bbb     C1  666   8.518   9.200   3.293 -0.5547 -0.0743  0.0112
   27bbb     H1  667   8.494   9.133   3.376  0.0685  1.9913  1.9678
   27bbb     H2  668   8.518   9.302   3.334 -1.1294  0.0985 -0.4123
   27bbb     C2  669   8.415   9.185   3.181 -0.4616 -0.0814  0.2900
   27bbb     H3  670   8.322   9.183   3.238 -0.5870  0.3019  0.1030
   27bbb     H4  671   8.428   9.273   3.117  0.7689 -0.8792 -0.6034
   27bbb     N1  672   8.661   9.175   3.252  0.2910  0.1945 -0.0356
   27bbb     C3  673   8.745   9.160   3.368 -0.8766 -0.5121  0.3845
   27bbb     H5  674   8.732   9.239   3.443 -2.9243 -1.7037  1.3710
   27bbb     H6  675   8.848   9.173   3.331 -1.9119  0.7820 -2.3123
   27bbb     C4  676   8.709   9.283   3.158 -0.0952  0.0669 -0.1590
   27bbb     H7  677   8.628   9.329   3.101  1.0475  3.0261  0.4185
   27bbb     H8  678   8.756   9.360   3.220 -0.3427  1.7086 -1.9264
   27bbb     C5  679   8.810   9.227   3.060  0.4431 -0.3589 -0.3670
   27bbb     H9  680   8.854   9.311   3.004 -1.4803  0.2359 -1.0397
   27bbb    H10  681   8.896   9.185   3.115 -0.2006  3.9721  4.7373
   27bbb     C6  682   8.732   9.028   3.434 -0.1900  0.3407 -0.3720
   27bbb    H11  683   8.637   9.015   3.488 -1.0551  1.3058 -1.5978
   27bbb    H12  684   8.720   8.956   3.352  1.7341  0.3298 -0.6797
   27bbb     C7  685   8.739   9.131   2.965 -0.3997 -0.4771  0.2313
   27bbb     C8  686   8.861   9.010   3.509  0.5214  0.7162  0.0531
   27bbb     O1  687   8.733   9.016   2.984  0.3512 -0.1942 -0.3536
   27bbb     O2  688   8.913   9.091   3.583  0.1078  0.4850  0.3829
   27bbb     N4  689   8.441   9.063   3.106  0.2760  0.5519 -0.1010
   27bbb    H21  690   8.524   9.013   3.135  0.7509  0.6040 -1.3123
   28bbb     C1  691   7.101   9.148   2.038  0.2352 -0.0548 -0.4579
   28bbb     H1  692   7.044   9.055   2.025 -0.5449  0.4640 -0.8605
   28bbb     H2  693   7.186   9.144   2.108  1.4898  0.6143 -1.8947
   28bbb     C2  694   7.000   9.256   2.081  0.3648  0.3245  0.1908
   28bbb     H3  695   7.052   9.352   2.091 -0.7884  0.9384  0.4769
   28bbb     H4  696   6.927   9.273   2.002 -0.5578  0.9668  1.1489
   28bbb     N1  697   7.160   9.180   1.914 -0.0861 -0.7267 -0.0806
   28bbb     C3  698   7.232   9.064   1.848  0.4176 -0.2696 -0.2353
   28bbb     H5  699   7.252   8.988   1.924 -0.4792  1.0320  1.3560
   28bbb     H6  700   7.321   9.094   1.792 -0.6662 -1.5229 -2.7833
   28bbb     C4  701   7.231   9.310   1.911 -0.2647  0.3130  0.1222
   28bbb     H7  702   7.293   9.300   1.821 -0.5384  1.1303 -0.1651
   28bbb     H8  703   7.158   9.391   1.901 -0.4190  0.0215 -1.3987
   28bbb     C5  704   7.337   9.333   2.020 -0.6275  0.1536 -0.3580
   28bbb     H9  705   7.300   9.356   2.121  0.2157  0.2931 -0.0789
   28bbb    H10  706   7.389   9.237   2.028 -0.3395  0.0957 -2.4271
   28bbb     C6  707   7.128   9.014   1.748  0.4490  0.1414 -0.8524
   28bbb    H11  708   7.033   9.011   1.804  1.5571 -0.0848  1.1042
   28bbb    H12  709   7.113   9.085   1.666  0.0696  2.2651  0.9552
   28bbb     C7  710   7.442   9.437   1.979 -0.2257  0.6295 -0.1623
   28bbb     C8  711   7.167   8.886   1.689  0.2561  0.2001 -0.7549
   28bbb     O1  712   7.547   9.396   1.938  0.3312  0.0932 -0.4215
   28bbb     O2  713   7.257   8.814   1.729  0.4743 -0.0279 -0.2804
   28bbb     N4  714   6.938   9.241   2.211  0.8315  0.2162 -0.0058
   28bbb    H21  715   6.892   9.153   2.230 -2.6108  1.9315  0.4404
   29bbb     C1  716   7.060   9.162   3.312  0.4271 -0.2871 -0.1839
   29bbb     H1  717   7.004   9.222   3.386 -0.6280  1.9673 -2.6276
   29bbb     H2  718   7.164   9.174   3.346  0.7972 -1.1409 -0.9760
   29bbb     C2  719   7.028   9.246   3.184 -0.3146  0.6484 -0.1301
   29bbb     H3  720   6.920   9.268   3.174 -0.9993 -3.0551 -2.9799
   29bbb     H4  721   7.071   9.346   3.195 -1.4849  1.3523 -1.5481
   29bbb     N1  722   7.015   9.022   3.301  0.0671  0.1446 -0.0032
   29bbb     C3  723   6.876   9.002   3.243 -0.0530 -0.0506  0.1658
   29bbb     H5  724   6.862   8.897   3.216  0.7296 -0.3897  1.0183
   29bbb     H6  725   6.864   9.061   3.151 -0.5344  0.0886  0.3140
   29bbb     C4  726   7.055   8.933   3.406 -0.3772 -0.3369 -0.5172
   29bbb     H7  727   7.137   8.982   3.460  0.9377 -0.1188 -2.6004
   29bbb     H8  728   6.974   8.889   3.466  1.0813 -2.8239 -0.2688
   29bbb     C5  729   7.132   8.825   3.337  0.1267  0.0254 -0.2190
   29bbb     H9  730   7.065   8.760   3.278 -1.3371  1.9466 -0.7989
   29bbb    H10  731   7.214   8.855   3.271  0.8652 -1.0263  0.2014
   29bbb     C6  732   6.772   9.030   3.347 -0.0275 -0.7125  0.1281
   29bbb    H11  733   6.761   8.939   3.408  0.2908 -0.9600 -0.1818
   29bbb    H12  734   6.797   9.111   3.418  2.1718 -2.7455  1.8395
   29bbb     C7  735   7.188   8.734   3.433 -0.1504  0.0409  0.6268
   29bbb     C8  736   6.646   9.050   3.263  0.8029 -0.5339 -0.5339
   29bbb     O1  737   7.306   8.748   3.466  0.4153  0.4114  0.4158
   29bbb     O2  738   6.623   9.161   3.221 -0.9282 -0.0994  0.5157
   29bbb     N4  739   7.077   9.170   3.070  0.2621  0.1206  0.3318
   29bbb    H21  740   7.167   9.122   3.072 -0.2105 -0.9848 -1.8078
   30bbb     C1  741   6.194  10.765   0.939 -0.4914 -0.3395  0.1636
   30bbb     H1  742   6.302  10.749   0.937 -0.2980  0.8093  0.7116
   30bbb     H2  743   6.182  10.869   0.909 -1.6962  0.1676  2.2447
   30bbb     C2  744   6.148  10.753   1.084 -0.2281  0.2018 -0.0396
   30bbb     H3  745   6.203  10.832   1.137  1.2049 -0.2597 -0.7837
   30bbb     H4  746   6.043  10.780   1.097 -0.3865 -0.4830  0.1205
   30bbb     N1  747   6.137  10.672   0.837 -0.2372  0.0727 -0.0571
   30bbb     C3  748   5.992  10.663   0.833  0.6374  0.3830 -0.9163
   30bbb     H5  749   5.956  10.717   0.745 -0.0003 -0.1345 -0.9751
   30bbb     H6  750   5.948  10.704   0.925 -0.7835 -1.9279 -0.4743
   30bbb     C4  751   6.199  10.686   0.703  0.1053  0.5091 -0.4556
   30bbb     H7  752   6.148  10.608   0.645  1.4908 -0.2548 -0.6950
   30bbb     H8  753   6.168  10.778   0.652  0.4707  0.4502 -0.7830
   30bbb     C5  754   6.350  10.667   0.700  0.5583  0.7050  0.7601
   30bbb     H9  755   6.387  10.608   0.785  2.7153  0.9864  0.0762
   30bbb    H10  756   6.381  10.615   0.609 -1.8481  0.9347 -0.2753
   30bbb     C6  757   5.954  10.512   0.822 -0.1679 -0.3910 -0.2521
   30bbb    H11  758   6.008  10.462   0.741  0.6194  0.5737 -0.3428
   30bbb    H12  759   5.979  10.456   0.912 -0.9443 -2.7504 -1.4256
   30bbb     C7  760   6.434  10.793   0.687 -0.0016  0.1115  0.3206
   30bbb     C8  761   5.808  10.507   0.768 -0.5464  0.0466  0.9941
   30bbb     O1  762   6.493  10.836   0.786 -0.3434 -0.9004 -0.4943
   30bbb     O2  763   5.782  10.535   0.650 -0.3263 -0.1311  0.0051
   30bbb     N4  764   6.196  10.630   1.157 -0.2283 -0.3811 -0.2725
   30bbb    H21  765   6.288  10.599   1.129 -0.0692  0.8693 -1.2437
   31bbb     C1  766   6.659  11.124   0.856  0.3334 -0.2836 -0.9952
   31bbb     H1  767   6.552  11.145   0.845 -0.2748 -2.2283  0.4789
   31bbb     H2  768   6.683  11.044   0.785 -0.1560 -0.0092 -1.4795
   31bbb     C2  769   6.671  11.060   0.991 -0.0987 -0.1245 -1.0018
   31bbb     H3  770   6.774  11.027   1.012  0.2348  1.0712 -0.6975
   31bbb     H4  771   6.664  11.142   1.064 -0.0653 -1.4250  0.5293
   31bbb     N1  772   6.739  11.246   0.847 -0.0338  0.3038 -0.6964
   31bbb     C3  773   6.696  11.321   0.732  0.0052 -0.2848 -0.6180
   31bbb     H5  774   6.671  11.255   0.648 -0.4424 -0.1359 -0.6024
   31bbb     H6  775   6.773  11.390   0.695 -0.2289 -0.6004 -1.7635
   31bbb     C4  776   6.886  11.213   0.823  1.0113 -0.6584  0.7178
   31bbb     H7  777   6.915  11.144   0.902  0.9872 -1.0222  0.4109
   31bbb     H8  778   6.906  11.173   0.723 -0.1711 -2.6097  1.2073
   31bbb     C5  779   6.961  11.345   0.863 -0.2445 -0.1185 -0.1849
   31bbb     H9  780   6.932  11.435   0.807 -3.3577  0.0240  1.4154
   31bbb    H10  781   6.924  11.363   0.965  0.6579  1.2685 -0.0816
   31bbb     C6  782   6.580  11.408   0.770  0.4265 -0.4472 -0.5147
   31bbb    H11  783   6.488  11.348   0.764 -0.8064  1.2250  0.8006
   31bbb    H12  784   6.590  11.453   0.870 -1.1799  1.8466 -1.3278
   31bbb     C7  785   7.103  11.315   0.836 -0.2220  0.7752 -0.2185
   31bbb     C8  786   6.569  11.521   0.670  0.0037 -0.2544  0.5926
   31bbb     O1  787   7.139  11.217   0.766 -0.7624  0.2209 -0.6153
   31bbb     O2  788   6.573  11.494   0.549  0.5818 -0.5590  0.4852
   31bbb     N4  789   6.573  10.964   1.041  0.0255 -0.1117  0.1272
   31bbb    H21  790   6.518  10.908   0.977  1.1220 -1.1398  0.0407
   32bbb     C1  791   6.745   8.979   1.823  0.2686  0.0360 -0.1651
   32bbb     H1  792   6.771   9.081   1.854  1.0824  0.3943 -1.9123
   32bbb     H2  793   6.784   8.956   1.722 -0.1959 -0.0818 -0.3187
   32bbb     C2  794   6.590   8.970   1.816  0.2375 -0.7093 -0.0770
   32bbb     H3  795   6.569   8.877   1.761  2.8484 -0.1775 -2.1827
   32bbb     H4  796   6.540   8.961   1.913  1.1700  2.7639  0.8728
   32bbb     N1  797   6.804   8.878   1.916  0.0839 -0.3747 -0.3019
   32bbb     C3  798   6.773   8.923   2.059  0.1814  0.0748 -0.4874
   32bbb     H5  799   6.666   8.918   2.079 -0.1227  2.5705 -1.1710
   32bbb     H6  800   6.791   9.031   2.067 -1.7511  0.3213  1.3397
   32bbb     C4  801   6.771   8.736   1.898  0.0715 -0.1227 -0.8203
   32bbb     H7  802   6.817   8.679   1.980 -0.0530  0.5117 -0.3082
   32bbb     H8  803   6.664   8.712   1.902  0.2468 -1.2915 -2.1138
   32bbb     C5  804   6.831   8.682   1.763  0.3923  0.1753 -0.1156
   32bbb     H9  805   6.780   8.726   1.676 -0.3003  0.0586  0.2180
   32bbb    H10  806   6.940   8.684   1.756  0.6956 -0.5818  2.9618
   32bbb     C6  807   6.857   8.839   2.159 -0.7113  0.0389  0.2720
   32bbb    H11  808   6.828   8.733   2.167  1.1156 -0.4987  0.1442
   32bbb    H12  809   6.964   8.846   2.139 -0.2714  0.9252  2.6038
   32bbb     C7  810   6.801   8.540   1.759  0.2774 -0.6872  0.1239
   32bbb     C8  811   6.823   8.892   2.298 -0.0380  0.3476 -0.0907
   32bbb     O1  812   6.874   8.460   1.810  0.0513 -0.7325  0.0909
   32bbb     O2  813   6.766   9.001   2.314  0.5711  0.3256  0.4510
   32bbb     N4  814   6.519   9.078   1.748 -0.6714  0.3881 -0.2592
   32bbb    H21  815   6.469   9.148   1.801 -1.0168  0.0946 -0.1901
   33bbb     C1  816   5.840   9.559   1.013  0.0650 -0.5549 -0.4060
   33bbb     H1  817   5.789   9.558   1.110 -0.2812  0.5000 -0.5638
   33bbb     H2  818   5.764   9.548   0.934 -2.1079  0.2938  1.4600
   33bbb     C2  819   5.940   9.446   0.998 -0.1322 -0.2779  0.3353
   33bbb     H3  820   5.891   9.348   1.005 -1.7266  0.5633  1.3124
   33bbb     H4  821   5.989   9.441   0.899 -0.3090  0.3809  0.2155
   33bbb     N1  822   5.899   9.692   1.009 -0.7107  0.3545  0.3283
   33bbb     C3  823   5.803   9.795   1.055 -0.8053  1.0747  0.7025
   33bbb     H5  824   5.699   9.778   1.024 -1.5834  4.0021  1.4531
   33bbb     H6  825   5.833   9.894   1.020  0.6127  0.5572  0.3858
   33bbb     C4  826   5.955   9.715   0.878  0.2746 -0.2633 -0.3776
   33bbb     H7  827   5.964   9.634   0.805  1.1436 -0.3854 -0.1402
   33bbb     H8  828   5.889   9.783   0.822  0.4067  0.8045  0.7310
   33bbb     C5  829   6.089   9.778   0.892 -0.9311 -0.4918  0.1682
   33bbb     H9  830   6.091   9.855   0.971  3.6048 -0.0950 -0.0638
   33bbb    H10  831   6.157   9.697   0.922 -1.1914 -0.5511  0.6017
   33bbb     C6  832   5.812   9.803   1.206 -0.0368  0.6691 -0.0310
   33bbb    H11  833   5.773   9.710   1.249  0.9575  0.7789  1.1760
   33bbb    H12  834   5.913   9.804   1.249 -0.7311  0.4634  1.6731
   33bbb     C7  835   6.135   9.844   0.763  0.4713 -0.2007  0.8378
   33bbb     C8  836   5.733   9.922   1.246  0.0520 -0.9198 -0.2818
   33bbb     O1  837   6.150   9.774   0.665 -0.0670 -0.2996 -0.3171
   33bbb     O2  838   5.764  10.038   1.230 -0.4711  0.7348 -0.1823
   33bbb     N4  839   6.054   9.462   1.099  0.4236 -0.2416 -0.1733
   33bbb    H21  840   6.069   9.555   1.135 -1.7383 -0.9939  3.1190
   34bbb     C1  841   9.438  11.011   1.069 -0.4865 -0.0488 -0.2064
   34bbb     H1  842   9.364  10.951   1.015 -0.7656 -0.6270  0.8019
   34bbb     H2  843   9.527  10.947   1.074  1.1102  2.1631  1.8227
   34bbb     C2  844   9.395  11.012   1.219  0.4814 -0.0779 -0.2052
   34bbb     H3  845   9.479  11.051   1.278  0.4559 -1.3403  0.6931
   34bbb     H4  846   9.311  11.083   1.232 -0.1278 -0.8099 -0.0937
   34bbb     N1  847   9.470  11.142   1.009 -0.7734 -0.9587 -0.5919
   34bbb     C3  848   9.449  11.144   0.859 -0.0190 -0.1566 -0.0424
   34bbb     H5  849   9.510  11.066   0.810  0.2953 -0.8782  1.4133
   34bbb     H6  850   9.494  11.241   0.834  1.2682 -0.5103  0.7729
   34bbb     C4  851   9.607  11.180   1.052  0.1804 -0.2184 -0.1688
   34bbb     H7  852   9.624  11.142   1.153  0.5098 -0.7704 -0.4279
   34bbb     H8  853   9.683  11.134   0.988 -0.1084  0.3342 -0.9251
   34bbb     C5  854   9.624  11.335   1.053 -0.7784  0.5471 -0.8101
   34bbb     H9  855   9.629  11.367   0.948  0.5816 -0.8308 -1.1982
   34bbb    H10  856   9.539  11.384   1.103 -1.3721 -1.2100 -0.0140
   34bbb     C6  857   9.302  11.135   0.824 -0.1985 -0.5715 -0.2382
   34bbb    H11  858   9.277  11.029   0.837  1.1583 -1.0349 -1.0463
   34bbb    H12  859   9.244  11.199   0.891  0.3700  0.1420 -0.4153
   34bbb     C7  860   9.763  11.360   1.112 -0.1676 -0.5135 -0.0552
   34bbb     C8  861   9.280  11.169   0.677 -0.1789  0.3909  0.0453
   34bbb     O1  862   9.862  11.306   1.065 -0.7730 -0.1973 -0.4490
   34bbb     O2  863   9.340  11.103   0.591  0.6588 -0.4644  0.6646
   34bbb     N4  864   9.346  10.885   1.280  0.1412  0.0462  0.3077
   34bbb    H21  865   9.319  10.811   1.218  3.7764  0.0800 -1.5682
   35bbb     C1  866   8.930  10.046   1.780  0.5868 -0.0822  0.3387
   35bbb     H1  867   8.989   9.998   1.701 -0.1293 -2.1029  0.9693
   35bbb     H2  868   8.826  10.059   1.747  1.0332  0.6453 -0.8258
   35bbb     C2  869   8.996  10.185   1.793 -0.1820 -0.1337  0.7453
   35bbb     H3  870   8.926  10.250   1.847  0.7823  0.9279  0.7507
   35bbb     H4  871   9.082  10.167   1.858  0.4344  0.2296  0.0459
   35bbb     N1  872   8.938   9.968   1.906 -0.4711  0.3521 -0.0997
   35bbb     C3  873   8.915   9.817   1.894 -0.3459  0.2559  0.6268
   35bbb     H5  874   8.806   9.806   1.900 -0.4388  0.7682 -0.0257
   35bbb     H6  875   8.967   9.766   1.976  1.4099 -0.8926 -1.1308
   35bbb     C4  876   8.860  10.032   2.009 -0.4399  0.0492 -0.1751
   35bbb     H7  877   8.872  10.141   2.013  2.6208 -0.1920 -0.1522
   35bbb     H8  878   8.754  10.015   1.987 -0.2362 -1.3497 -0.1620
   35bbb     C5  879   8.890   9.987   2.149 -0.3015  0.1273  0.1483
   35bbb     H9  880   8.848   9.886   2.157  0.5127 -0.3609 -1.4459
   35bbb    H10  881   8.999   9.987   2.162 -0.3256  1.3628  0.5446
   35bbb     C6  882   8.973   9.763   1.763 -0.2395  0.6389  0.6549
   35bbb    H11  883   8.917   9.802   1.677 -0.7017  1.7474  1.4379
   35bbb    H12  884   9.080   9.784   1.755  0.6044 -3.2918 -0.8530
   35bbb     C7  885   8.819  10.078   2.249  0.5424  1.0231  0.0247
   35bbb     C8  886   8.973   9.615   1.768  0.6219 -0.6608  0.1982
   35bbb     O1  887   8.710  10.124   2.230  0.5473 -0.4300 -0.2159
   35bbb     O2  888   8.883   9.547   1.726  0.3240  0.3353 -0.1414
   35bbb     N4  889   9.023  10.267   1.672 -0.1450 -0.4540 -0.8423
   35bbb    H21  890   8.981  10.243   1.583 -2.4405  0.7073 -0.1445
   36bbb     C1  891   7.131  11.034   1.126  0.0795 -0.1155 -0.4322
   36bbb     H1  892   7.168  10.931   1.127  1.0649  0.2264  0.3779
   36bbb     H2  893   7.084  11.064   1.032 -2.1137  0.9122  0.9066
   36bbb     C2  894   7.253  11.123   1.165 -0.1185  0.2417  0.0065
   36bbb     H3  895   7.222  11.228   1.172 -0.6250  0.0284  1.1143
   36bbb     H4  896   7.296  11.101   1.264 -0.8756  2.1588  0.7869
   36bbb     N1  897   7.031  11.049   1.231 -0.0295  0.5350 -0.3612
   36bbb     C3  898   6.949  10.925   1.257 -0.2971 -0.0911  0.3239
   36bbb     H5  899   6.938  10.875   1.160 -0.6654 -1.1367  0.8931
   36bbb     H6  900   6.856  10.954   1.307  1.3976  0.9984  3.0723
   36bbb     C4  901   6.953  11.166   1.213  0.1478 -0.1668 -0.7511
   36bbb     H7  902   7.016  11.239   1.161  1.7064 -2.2356 -1.9201
   36bbb     H8  903   6.868  11.153   1.145 -0.7831  2.2261 -0.1484
   36bbb     C5  904   6.915  11.204   1.349 -0.4349  0.1645  0.0771
   36bbb     H9  905   6.893  11.116   1.412  1.1430 -0.6892 -0.4942
   36bbb    H10  906   7.000  11.256   1.394  0.0742  1.0205 -1.7769
   36bbb     C6  907   7.030  10.839   1.343 -0.1309  0.0974 -0.1419
   36bbb    H11  908   7.107  10.796   1.279 -2.6426 -1.6934 -2.1712
   36bbb    H12  909   7.055  10.888   1.438  0.4025  0.9047 -0.6833
   36bbb     C7  910   6.805  11.308   1.347  0.4433 -0.5095 -0.2739
   36bbb     C8  911   6.944  10.723   1.383 -0.4999  0.0319  0.5177
   36bbb     O1  912   6.827  11.431   1.349  0.1980  0.2408 -0.5779
   36bbb     O2  913   6.922  10.629   1.306  0.4097 -0.1889 -0.1543
   36bbb     N4  914   7.355  11.104   1.062 -0.5180 -0.3444  0.0226
   36bbb    H21  915   7.348  11.043   0.981 -1.1849  0.6842 -0.7196
   37bbb     C1  916   7.893  11.652   0.404 -0.6294  0.4886 -0.1461
   37bbb     H1  917   7.977  11.704   0.355 -1.0555 -0.5665 -2.1171
   37bbb     H2  918   7.883  11.719   0.491  1.9561  1.9224 -0.8281
   37bbb     C2  919   7.963  11.521   0.450  0.0603  0.2888  0.3127
   37bbb     H3  920   7.985  11.460   0.362 -1.2299 -2.1408  1.5776
   37bbb     H4  921   8.059  11.542   0.498 -1.2761  1.4316  2.6810
   37bbb     N1  922   7.779  11.626   0.315 -0.3710 -0.0509 -1.2594
   37bbb     C3  923   7.682  11.735   0.334  0.8706 -0.3101  0.6257
   37bbb     H5  924   7.733  11.818   0.283 -0.9288 -0.0464 -0.8601
   37bbb     H6  925   7.677  11.756   0.442 -2.6946  0.9641  0.3537
   37bbb     C4  926   7.802  11.581   0.178 -0.3515 -0.2857 -0.3158
   37bbb     H7  927   7.740  11.636   0.106 -1.4634  0.1829  0.9541
   37bbb     H8  928   7.910  11.596   0.166 -0.3425  2.2344  1.9856
   37bbb     C5  929   7.766  11.439   0.163  1.3370 -0.0898 -0.0213
   37bbb     H9  930   7.806  11.380   0.247  1.2295 -1.5398 -0.9467
   37bbb    H10  931   7.656  11.439   0.171  1.2466  1.7399 -0.8164
   37bbb     C6  932   7.546  11.697   0.283  0.2257 -0.1898  0.1850
   37bbb    H11  933   7.554  11.663   0.179  1.8957  0.0876  0.1948
   37bbb    H12  934   7.498  11.613   0.334 -0.3331 -0.1377 -0.2541
   37bbb     C7  935   7.811  11.382   0.035  0.0534 -0.2925 -0.0173
   37bbb     C8  936   7.450  11.812   0.301  0.6093 -0.7057 -0.8841
   37bbb     O1  937   7.751  11.380  -0.065 -0.6493 -0.1157 -0.0075
   37bbb     O2  938   7.485  11.920   0.265 -0.2941 -0.0404 -0.5259
   37bbb     N4  939   7.873  11.445   0.539  0.0683  0.4694  0.4548
   37bbb    H21  940   7.796  11.497   0.580 -0.6319  0.1504 -0.4124
   38bbb     C1  941   9.214   8.248  -0.079  0.8226  0.0561 -0.3474
   38bbb     H1  942   9.135   8.288  -0.014 -0.5951 -1.9562 -0.7396
   38bbb     H2  943   9.262   8.171  -0.017  1.5011 -0.5565 -1.6016
   38bbb     C2  944   9.313   8.359  -0.102  0.2508 -0.0293  0.0262
   38bbb     H3  945   9.403   8.314  -0.145 -0.5022 -0.8743 -0.7092
   38bbb     H4  946   9.288   8.432  -0.180  0.7166  1.1411  0.9338
   38bbb     N1  947   9.175   8.214  -0.214  0.7950 -0.1605  0.1469
   38bbb     C3  948   9.034   8.242  -0.233 -0.1817  0.4613  0.0695
   38bbb     H5  949   8.971   8.200  -0.153 -0.3395 -0.3495 -0.4654
   38bbb     H6  950   9.006   8.212  -0.335 -0.8391  0.9762  0.0951
   38bbb     C4  951   9.200   8.073  -0.251  0.1099 -0.0994  1.0647
   38bbb     H7  952   9.144   8.005  -0.186 -2.3206 -1.0890 -1.8135
   38bbb     H8  953   9.157   8.061  -0.351 -2.9690 -1.4674  2.4255
   38bbb     C5  954   9.349   8.054  -0.263 -0.2347  0.3227 -0.1397
   38bbb     H9  955   9.399   8.135  -0.318  0.0854  0.7449  0.7640
   38bbb    H10  956   9.396   8.062  -0.165  0.1591  1.1916 -0.3863
   38bbb     C6  957   9.011   8.394  -0.249 -0.4453  0.5289  0.3106
   38bbb    H11  958   9.066   8.452  -0.174  1.1727  0.2723 -0.6492
   38bbb    H12  959   9.040   8.438  -0.345 -0.2019  1.1206  0.6479
   38bbb     C7  960   9.383   7.917  -0.320  0.6236  0.0177 -0.2586
   38bbb     C8  961   8.868   8.434  -0.238 -0.5264  0.3515 -0.3409
   38bbb     O1  962   9.299   7.832  -0.338 -0.6500 -0.0318 -0.1220
   38bbb     O2  963   8.807   8.481  -0.144  0.5322 -0.1866 -0.1478
   38bbb     N4  964   9.341   8.433   0.022  0.0859 -0.2886  0.1700
   38bbb    H21  965   9.295   8.414   0.111  0.8103 -1.5606  0.2953
   39bbb     C1  966  10.022   9.143   0.565 -0.2652 -0.3118  0.1687
   39bbb     H1  967   9.951   9.129   0.647 -0.7017  0.6517 -0.0260
   39bbb     H2  968  10.064   9.243   0.586  0.1936 -0.4796  0.0656
   39bbb     C2  969   9.937   9.163   0.432 -0.2039 -0.3708  0.1479
   39bbb     H3  970   9.852   9.231   0.441  0.8314  1.3182 -2.0212
   39bbb     H4  971   9.986   9.224   0.356  1.1838 -1.3463  0.1978
   39bbb     N1  972  10.133   9.050   0.558 -0.3008  0.4636  0.2895
   39bbb     C3  973  10.220   9.083   0.442  0.1846  0.7299  0.1019
   39bbb     H5  974  10.292   9.162   0.467  1.1564 -0.3153  0.7153
   39bbb     H6  975  10.166   9.117   0.353  1.6824  2.1660 -0.3069
   39bbb     C4  976  10.212   9.049   0.676  0.1567  0.4218 -0.0388
   39bbb     H7  977  10.318   9.026   0.661  0.1216  0.1540  0.0979
   39bbb     H8  978  10.194   9.142   0.732 -3.2750  0.5018 -1.0404
   39bbb     C5  979  10.141   8.945   0.762  0.3180  0.5963 -0.2532
   39bbb     H9  980  10.034   8.969   0.771 -0.1870 -1.6738  0.5563
   39bbb    H10  981  10.136   8.846   0.715 -4.9723 -0.9233  2.6605
   39bbb     C6  982  10.299   8.955   0.409 -0.1183  0.3257 -0.1316
   39bbb    H11  983  10.387   8.942   0.474  0.7526 -1.9808 -1.6319
   39bbb    H12  984  10.229   8.871   0.401 -1.0002  1.1926 -2.1782
   39bbb     C7  985  10.211   8.943   0.894 -0.1278  0.0537 -0.0609
   39bbb     C8  986  10.352   8.957   0.269 -0.1137  0.1934 -0.8354
   39bbb     O1  987  10.313   8.887   0.904 -0.5822 -0.3684  0.3153
   39bbb     O2  988  10.292   8.924   0.169 -0.4712  0.3795 -0.0554
   39bbb     N4  989   9.870   9.034   0.393 -0.9662  0.2251 -0.3278
   39bbb    H21  990   9.866   8.961   0.463  1.9877  2.2327  2.2276
   40bbb     C1  991   7.526   8.632   0.448 -0.4667 -0.1999  0.0921
   40bbb     H1  992   7.546   8.535   0.400  0.7126 -0.6341  1.3840
   40bbb     H2  993   7.438   8.672   0.397  0.1506  0.7589 -0.2646
   40bbb     C2  994   7.647   8.727   0.419  0.2611  0.2704  0.3004
   40bbb     H3  995   7.642   8.769   0.318  3.5405  2.0946  0.7673
   40bbb     H4  996   7.650   8.815   0.484 -1.2210 -0.8131  1.9547
   40bbb     N1  997   7.503   8.621   0.591  0.0538  0.3007  0.1657
   40bbb     C3  998   7.420   8.501   0.620  0.6269  0.6602 -0.3006
   40bbb     H5  999   7.333   8.503   0.554 -0.5445  0.5314  1.2014
   40bbb     H6 1000   7.377   8.515   0.720  2.5600  4.2797  0.2197
   40bbb     C4 1001   7.440   8.745   0.642 -0.4152  0.0094  0.5103
   40bbb     H7 1002   7.473   8.838   0.594  0.7697  0.4091  1.9921
   40bbb     H8 1003   7.331   8.748   0.635 -0.4718 -0.8005  0.9131
   40bbb     C5 1004   7.490   8.768   0.780 -0.3473  0.1578 -1.1166
   40bbb     H9 1005   7.475   8.680   0.844  2.5621 -0.2905 -0.9253
   40bbb    H10 1006   7.600   8.767   0.775 -0.3533 -2.6487 -2.6301
   40bbb     C6 1007   7.505   8.373   0.611  0.4044  0.3135  0.2851
   40bbb    H11 1008   7.609   8.385   0.644  0.6938 -1.2010  0.0214
   40bbb    H12 1009   7.463   8.295   0.676  1.2783 -0.7289 -0.3656
   40bbb     C7 1010   7.440   8.901   0.834  0.2069  0.2475  0.0122
   40bbb     C8 1011   7.485   8.309   0.475 -0.0105  0.5783  0.5988
   40bbb     O1 1012   7.493   9.009   0.805 -0.4513 -0.2322 -0.0826
   40bbb     O2 1013   7.373   8.307   0.419 -0.5687 -0.0390  0.2560
   40bbb     N4 1014   7.781   8.663   0.435  0.2656  0.1808 -0.0806
   40bbb    H21 1015   7.786   8.564   0.454  0.7822  0.0579 -0.8474
   41bbb     C1 1016   8.468   8.111  -0.068 -0.0054  0.5098  0.1142
   41bbb     H1 1017   8.534   8.186  -0.112  1.6064 -1.3191 -0.7484
   41bbb     H2 1018   8.368   8.155  -0.082  0.0801  0.4831 -0.6218
   41bbb     C2 1019   8.503   8.103   0.085 -0.1787  0.7670  0.4649
   41bbb     H3 1020   8.453   8.013   0.124 -0.8059  0.7443 -0.3560
   41bbb     H4 1021   8.609   8.088   0.108 -0.3235  0.7341  1.1415
   41bbb     N1 1022   8.475   7.981  -0.135  0.6456 -0.3128 -0.1904
   41bbb     C3 1023   8.379   7.879  -0.094 -0.6016  0.1845 -0.4437
   41bbb     H5 1024   8.403   7.829   0.001  0.1151 -1.7379 -1.5723
   41bbb     H6 1025   8.376   7.804  -0.175  1.6895 -0.3018 -0.1484
   41bbb     C4 1026   8.601   7.916  -0.155 -0.5601  0.2850  0.2233
   41bbb     H7 1027   8.636   7.859  -0.068 -0.0231 -1.1787 -0.9108
   41bbb     H8 1028   8.578   7.830  -0.219 -1.6562 -0.8665  2.0708
   41bbb     C5 1029   8.702   8.008  -0.221  0.1345 -0.5243  0.7547
   41bbb     H9 1030   8.652   8.054  -0.307  1.4934  1.0974  0.7869
   41bbb    H10 1031   8.743   8.083  -0.152  0.5801  2.4549 -2.4706
   41bbb     C6 1032   8.231   7.937  -0.076 -0.1487 -0.4036  0.0454
   41bbb    H11 1033   8.222   7.994   0.018 -1.0427  0.1852 -0.3921
   41bbb    H12 1034   8.197   8.009  -0.151  0.6977 -1.1075 -1.0457
   41bbb     C7 1035   8.814   7.929  -0.274 -0.9634 -0.9368  0.2761
   41bbb     C8 1036   8.127   7.832  -0.076 -1.3165  0.9966  0.2219
   41bbb     O1 1037   8.827   7.920  -0.393 -0.1240  0.5024  0.2652
   41bbb     O2 1038   8.151   7.723  -0.025 -0.3151 -0.4037 -0.8203
   41bbb     N4 1039   8.454   8.225   0.150 -0.3533  0.3935  0.3437
   41bbb    H21 1040   8.518   8.300   0.173  1.3585 -1.2060  1.0622
   42bbb     C1 1041   8.530  10.000   1.437  0.5545 -0.0065  0.0834
   42bbb     H1 1042   8.420   9.999   1.433  0.5602  0.4247 -3.1728
   42bbb     H2 1043   8.573  10.091   1.394 -1.4894  1.3489  0.7843
   42bbb     C2 1044   8.588   9.886   1.356 -0.0163 -0.3037  1.1836
   42bbb     H3 1045   8.535   9.792   1.376  0.6580 -1.6161 -2.4066
   42bbb     H4 1046   8.576   9.910   1.250  1.3785 -2.3631  0.4906
   42bbb     N1 1047   8.567   9.992   1.575  0.1445 -0.4114 -0.2216
   42bbb     C3 1048   8.498   9.879   1.646  0.1882  0.4187 -0.3557
   42bbb     H5 1049   8.491   9.795   1.575 -1.2829 -1.0159  1.3769
   42bbb     H6 1050   8.399   9.911   1.680  0.9387  4.1647 -1.2173
   42bbb     C4 1051   8.535  10.122   1.644 -0.0636 -0.1786 -0.0075
   42bbb     H7 1052   8.431  10.154   1.636 -0.4296 -1.0985  0.8809
   42bbb     H8 1053   8.548  10.106   1.752 -0.6951 -1.6877 -0.1297
   42bbb     C5 1054   8.626  10.234   1.601 -0.5866  0.1730 -0.0909
   42bbb     H9 1055   8.730  10.202   1.611  0.6264  3.9836  0.9328
   42bbb    H10 1056   8.605  10.266   1.498 -1.6086  0.0922  0.0827
   42bbb     C6 1057   8.581   9.836   1.760 -0.1456 -0.4367  0.1350
   42bbb    H11 1058   8.676   9.801   1.717 -1.7458 -3.0693 -1.5467
   42bbb    H12 1059   8.608   9.918   1.829  1.8153 -2.2023  1.5966
   42bbb     C7 1060   8.619  10.347   1.691  0.2388  0.6079 -0.1545
   42bbb     C8 1061   8.514   9.728   1.842 -0.4859 -1.0491 -0.3577
   42bbb     O1 1062   8.682  10.349   1.797 -0.2098 -0.3890  0.3222
   42bbb     O2 1063   8.418   9.753   1.907 -0.5314  0.3592 -0.2927
   42bbb     N4 1064   8.738   9.869   1.362  0.0754  0.9164 -0.3849
   42bbb    H21 1065   8.784   9.944   1.411  1.2619 -0.4504  0.7071
   43bbb     C1 1066   9.480   9.455   1.903  0.0920 -0.2788 -0.0426
   43bbb     H1 1067   9.376   9.484   1.922  0.1030  1.2221 -1.9764
   43bbb     H2 1068   9.544   9.541   1.879  0.9683 -1.1798 -1.0384
   43bbb     C2 1069   9.481   9.369   1.777 -0.6175 -0.6261 -0.1358
   43bbb     H3 1070   9.581   9.329   1.754  0.2845 -0.3166  2.8295
   43bbb     H4 1071   9.421   9.278   1.791  0.5086 -1.5176 -0.8997
   43bbb     N1 1072   9.533   9.380   2.017  0.5330 -0.1809  0.7529
   43bbb     C3 1073   9.535   9.460   2.136  0.6032 -0.1597  0.5631
   43bbb     H5 1074   9.491   9.559   2.117  1.3932 -0.1408 -1.4020
   43bbb     H6 1075   9.638   9.464   2.174  1.4860 -2.7441 -1.3051
   43bbb     C4 1076   9.666   9.321   1.999 -0.5670 -0.2112 -0.8560
   43bbb     H7 1077   9.686   9.283   1.898 -0.7321  1.4110 -1.5148
   43bbb     H8 1078   9.747   9.393   2.016 -0.3425 -0.7022  0.2536
   43bbb     C5 1079   9.688   9.198   2.096  0.2080 -0.0148 -0.4451
   43bbb     H9 1080   9.679   9.225   2.202 -0.2395 -1.1106 -0.1975
   43bbb    H10 1081   9.607   9.125   2.085 -1.6833  2.0298 -0.9411
   43bbb     C6 1082   9.454   9.387   2.230  1.2599  0.2065 -0.0172
   43bbb    H11 1083   9.346   9.391   2.208  1.3236  0.3464 -0.2973
   43bbb    H12 1084   9.470   9.278   2.226 -0.6419 -0.0917 -1.0191
   43bbb     C7 1085   9.819   9.129   2.069  0.6402  0.1222  0.0851
   43bbb     C8 1086   9.471   9.435   2.373  0.2961  0.1755  0.3040
   43bbb     O1 1087   9.826   9.027   1.998 -0.1525 -0.1826 -0.5484
   43bbb     O2 1088   9.540   9.527   2.410 -0.5828 -0.1889  0.0448
   43bbb     N4 1089   9.430   9.442   1.653 -0.0863 -0.1601 -0.2241
   43bbb    H21 1090   9.484   9.519   1.615 -1.2263  0.2803 -1.0078
   44bbb     C1 1091  10.111   9.185  -0.009  0.1587 -0.4691  0.6006
   44bbb     H1 1092  10.063   9.267   0.046  1.2602 -0.2452  1.2815
   44bbb     H2 1093  10.094   9.094   0.049 -2.9932  0.0203  0.6049
   44bbb     C2 1094  10.255   9.223  -0.014  0.3797  0.4156 -0.7262
   44bbb     H3 1095  10.315   9.136  -0.043 -0.3915 -0.2110 -0.4441
   44bbb     H4 1096  10.270   9.301  -0.090  0.6783  1.6778  0.5775
   44bbb     N1 1097  10.056   9.171  -0.145 -1.0967 -0.1777 -0.4686
   44bbb     C3 1098   9.909   9.162  -0.134 -0.1108 -0.1857  0.0285
   44bbb     H5 1099   9.864   9.078  -0.080 -1.9788 -0.4056 -1.7327
   44bbb     H6 1100   9.867   9.157  -0.235  0.1468  2.3268 -0.2686
   44bbb     C4 1101  10.105   9.057  -0.222  0.7244 -0.3571 -0.3220
   44bbb     H7 1102  10.214   9.043  -0.221  0.9489  1.1314  0.8527
   44bbb     H8 1103  10.050   8.974  -0.177 -0.6065 -0.2674 -1.6978
   44bbb     C5 1104  10.082   9.092  -0.369 -0.4529 -0.8444 -0.7701
   44bbb     H9 1105   9.981   9.125  -0.396 -0.3297 -1.3701 -1.9421
   44bbb    H10 1106  10.169   9.147  -0.407  0.8813 -1.2717  1.4582
   44bbb     C6 1107   9.841   9.291  -0.079 -0.4013 -0.1416  0.9864
   44bbb    H11 1108   9.850   9.295   0.031  2.3304  1.5939  0.7903
   44bbb    H12 1109   9.898   9.377  -0.115  1.2597 -0.3952  2.8337
   44bbb     C7 1110  10.080   8.963  -0.440  0.2838  0.1341  0.3789
   44bbb     C8 1111   9.696   9.304  -0.105  0.7598  0.0927  0.1023
   44bbb     O1 1112  10.177   8.911  -0.493  0.3014  0.3206  0.3351
   44bbb     O2 1113   9.641   9.393  -0.162 -0.3240 -0.2460  0.9029
   44bbb     N4 1114  10.306   9.267   0.114  0.3856 -0.6925 -0.1193
   44bbb    H21 1115  10.378   9.221   0.169  1.6320  1.3352  0.0531
   45bbb     C1 1116  10.887   9.687   0.728 -0.4929 -0.3035  0.2580
   45bbb     H1 1117  10.874   9.584   0.765  0.5479  0.8601  4.2931
   45bbb     H2 1118  10.943   9.736   0.808  0.2615 -2.6822  1.2868
   45bbb     C2 1119  10.753   9.766   0.714 -0.1753 -0.5232  0.5330
   45bbb     H3 1120  10.744   9.827   0.804  1.3186  0.4314  0.0639
   45bbb     H4 1121  10.759   9.830   0.625 -1.9650  0.5988  1.1568
   45bbb     N1 1122  10.966   9.682   0.605 -0.1000  0.2285 -0.0690
   45bbb     C3 1123  10.917   9.586   0.506  0.1520  0.3805  0.4990
   45bbb     H5 1124  10.810   9.568   0.519 -0.0273  0.6556 -0.5360
   45bbb     H6 1125  10.969   9.491   0.519 -0.4549  0.1226  1.0848
   45bbb     C4 1126  11.112   9.689   0.618  0.1953 -0.2952  0.8679
   45bbb     H7 1127  11.149   9.628   0.702  0.8347 -0.2359  0.6297
   45bbb     H8 1128  11.168   9.646   0.534  1.9303 -1.2687  2.4403
   45bbb     C5 1129  11.154   9.834   0.634  0.3495 -0.2226 -0.2749
   45bbb     H9 1130  11.136   9.902   0.550  0.9689  1.1282  0.6465
   45bbb    H10 1131  11.093   9.866   0.719  0.2423  0.2691 -0.5351
   45bbb     C6 1132  10.944   9.638   0.368  0.3334  0.1784  0.5061
   45bbb    H11 1133  10.910   9.742   0.361  1.1036  0.5284  1.6029
   45bbb    H12 1134  11.053   9.632   0.352  0.3258 -0.0784  0.5380
   45bbb     C7 1135  11.305   9.823   0.653  0.5951  0.2277 -0.2241
   45bbb     C8 1136  10.865   9.562   0.266  0.2465  0.4182 -0.4310
   45bbb     O1 1137  11.381   9.819   0.560  0.0475  0.2553  0.5862
   45bbb     O2 1138  10.807   9.458   0.283 -0.3037  0.4562  0.2739
   45bbb     N4 1139  10.634   9.678   0.697 -0.6245  0.2808  0.3676
   45bbb    H21 1140  10.620   9.600   0.760 -0.6988 -1.3371 -1.5742
   46bbb     C1 1141   9.483  11.247   2.848  0.1441  0.5239  0.2201
   46bbb     H1 1142   9.420  11.192   2.918  0.6413 -3.1011 -1.9028
   46bbb     H2 1143   9.482  11.355   2.867 -2.7314  0.1291  3.0175
   46bbb     C2 1144   9.415  11.219   2.714 -0.5910  0.4087  0.7554
   46bbb     H3 1145   9.477  11.268   2.638  0.3476 -0.1069  1.1611
   46bbb     H4 1146   9.418  11.115   2.678  1.4020 -0.4269  3.0085
   46bbb     N1 1147   9.627  11.193   2.860  1.1860 -0.4581  1.0783
   46bbb     C3 1148   9.712  11.283   2.773 -0.8583 -0.4334 -0.1865
   46bbb     H5 1149   9.730  11.383   2.813  0.0680 -0.4768 -0.4789
   46bbb     H6 1150   9.657  11.299   2.679 -0.8983  2.5590  0.2575
   46bbb     C4 1151   9.677  11.178   2.990 -0.2335 -0.4154 -0.2876
   46bbb     H7 1152   9.781  11.150   2.974 -0.6712 -1.3738 -1.6896
   46bbb     H8 1153   9.671  11.274   3.042 -1.1084 -0.9854  0.7048
   46bbb     C5 1154   9.598  11.078   3.067 -0.4561 -0.2049 -0.2404
   46bbb     H9 1155   9.501  11.123   3.090 -0.4859  0.1239 -0.9497
   46bbb    H10 1156   9.584  10.984   3.013 -1.5541 -0.4935  0.5225
   46bbb     C6 1157   9.840  11.218   2.728  0.0984 -0.1250  0.7815
   46bbb    H11 1158   9.830  11.110   2.707 -4.2215  0.1138  0.6937
   46bbb    H12 1159   9.857  11.262   2.629 -0.2731 -0.1884  0.6864
   46bbb     C7 1160   9.674  11.064   3.195 -0.3557  1.0055 -0.0437
   46bbb     C8 1161   9.950  11.243   2.815 -0.4766  0.1984  0.2578
   46bbb     O1 1162   9.761  10.977   3.216  0.4052  0.0778  0.4511
   46bbb     O2 1163   9.979  11.357   2.843 -0.2711 -0.1657  0.0567
   46bbb     N4 1164   9.276  11.262   2.718  0.6088  0.1407 -0.0881
   46bbb    H21 1165   9.209  11.211   2.774 -0.5653  0.2337 -1.3405
   47bbb     C1 1166   8.532  11.881   2.390 -0.3848 -0.8380 -0.5825
   47bbb     H1 1167   8.603  11.932   2.456 -1.4406 -1.4841  1.1097
   47bbb     H2 1168   8.481  11.809   2.455  2.6093 -1.9543  0.7038
   47bbb     C2 1169   8.610  11.811   2.281 -0.5228 -0.6869 -0.0191
   47bbb     H3 1170   8.531  11.785   2.210 -1.9538  0.2718  1.1515
   47bbb     H4 1171   8.676  11.882   2.231 -3.3979  1.4509 -1.1059
   47bbb     N1 1172   8.435  11.969   2.326  0.0666 -0.3297 -0.3977
   47bbb     C3 1173   8.492  12.088   2.262 -0.4342 -0.6549  0.0787
   47bbb     H5 1174   8.589  12.067   2.216  0.4670  1.5492  0.8185
   47bbb     H6 1175   8.522  12.160   2.340 -0.5368 -0.6373  0.1023
   47bbb     C4 1176   8.332  12.012   2.427 -0.1261  0.5134 -0.3389
   47bbb     H7 1177   8.367  12.019   2.530 -2.3266  1.2755  0.3998
   47bbb     H8 1178   8.297  12.114   2.407 -1.1006 -0.1730 -2.4796
   47bbb     C5 1179   8.214  11.913   2.421 -0.2729  0.0934  0.2562
   47bbb     H9 1180   8.179  11.921   2.317 -0.4013  1.3944  0.3823
   47bbb    H10 1181   8.244  11.810   2.444  0.0497  0.5888  2.2180
   47bbb     C6 1182   8.391  12.160   2.168 -0.1608 -0.3754  0.1466
   47bbb    H11 1183   8.348  12.087   2.099 -1.5906  1.9970 -1.6365
   47bbb    H12 1184   8.306  12.198   2.227 -1.0629 -0.7230 -0.9002
   47bbb     C7 1185   8.093  11.941   2.508 -0.5906 -0.7105  0.0699
   47bbb     C8 1186   8.452  12.275   2.087  0.4425 -0.5004 -1.1072
   47bbb     O1 1187   8.092  12.030   2.592 -0.1437  0.2805  0.7076
   47bbb     O2 1188   8.569  12.286   2.068 -0.0219 -0.0639 -0.5410
   47bbb     N4 1189   8.685  11.692   2.331 -0.0859  0.0299  0.4612
   47bbb    H21 1190   8.646  11.600   2.348  0.6714 -0.7389 -1.5830
   48bbb     C1 1191  10.114   9.694   2.053  0.4776 -0.2664  0.3751
   48bbb     H1 1192  10.194   9.643   1.997  0.2819  0.3188 -0.4541
   48bbb     H2 1193  10.168   9.725   2.143  1.5133  0.1189 -0.3558
   48bbb     C2 1194   9.989   9.612   2.097 -0.2609  0.3122  0.2147
   48bbb     H3 1195   9.941   9.561   2.013  2.2507  0.5237 -1.4614
   48bbb     H4 1196  10.024   9.529   2.161 -0.0134  0.0206 -0.2913
   48bbb     N1 1197  10.089   9.818   1.969 -0.1477  0.3206  0.5242
   48bbb     C3 1198  10.072   9.782   1.825 -0.2506 -0.1398 -0.3298
   48bbb     H5 1199  10.011   9.691   1.838  1.4636 -1.1021  1.4891
   48bbb     H6 1200  10.166   9.754   1.776  1.1770  1.2164  1.5077
   48bbb     C4 1201  10.195   9.916   1.980  0.2062 -0.1309  0.2312
   48bbb     H7 1202  10.290   9.873   2.015  0.2056 -0.1259  0.2385
   48bbb     H8 1203  10.218   9.967   1.886 -0.2977 -1.2423 -0.5263
   48bbb     C5 1204  10.150  10.006   2.095 -0.1912  0.2288 -0.4211
   48bbb     H9 1205  10.048  10.042   2.076  0.0544  1.3473  0.3295
   48bbb    H10 1206  10.153   9.954   2.191 -2.4932  2.2642  0.8521
   48bbb     C6 1207   9.976   9.883   1.756 -0.1950 -0.6803  0.2242
   48bbb    H11 1208   9.878   9.878   1.805  0.4103 -0.0535  1.5511
   48bbb    H12 1209  10.000   9.989   1.763  0.4593 -0.8890  1.7033
   48bbb     C7 1210  10.235  10.126   2.114 -0.3504  0.7896  0.1833
   48bbb     C8 1211   9.977   9.834   1.616  0.2203 -0.0580 -0.3374
   48bbb     O1 1212  10.187  10.237   2.097  0.5482 -0.0166 -0.2704
   48bbb     O2 1213   9.882   9.766   1.574  0.2068 -0.1846 -0.6199
   48bbb     N4 1214   9.886   9.692   2.175 -0.0850 -0.1825 -0.0431
   48bbb    H21 1215   9.897   9.717   2.273  0.9473 -0.2227 -0.1354
   49bbb     C1 1216  10.134  10.039   2.775  0.4321  0.3906 -0.4024
   49bbb     H1 1217  10.189  10.001   2.688  0.1067 -1.5880  0.2191
   49bbb     H2 1218  10.068   9.957   2.805  0.3312  0.1176 -1.3337
   49bbb     C2 1219  10.038  10.148   2.726  0.9135  0.3254  0.8727
   49bbb     H3 1220   9.985  10.177   2.817  1.4656 -1.3967  1.8050
   49bbb     H4 1221  10.089  10.235   2.683  1.6041 -0.7466 -0.5747
   49bbb     N1 1222  10.225  10.075   2.887  0.2347  0.4603  0.8990
   49bbb     C3 1223  10.331  10.172   2.846  0.3155 -0.5846 -0.2550
   49bbb     H5 1224  10.300  10.234   2.761 -1.4885 -0.7773  0.2122
   49bbb     H6 1225  10.418  10.116   2.810  0.3319  0.2392 -1.5442
   49bbb     C4 1226  10.278   9.947   2.943  0.2883 -0.0036  0.0259
   49bbb     H7 1227  10.250   9.869   2.872 -1.3191  0.1604  0.4483
   49bbb     H8 1228  10.386   9.957   2.961  0.7658 -0.3721 -2.3295
   49bbb     C5 1229  10.211   9.919   3.077 -0.1152  0.0846 -0.1605
   49bbb     H9 1230  10.224  10.006   3.142  0.1658  0.1593 -0.3142
   49bbb    H10 1231  10.103   9.899   3.074  0.1064 -1.3683  1.0890
   49bbb     C6 1232  10.367  10.271   2.949  0.2847  0.2670 -0.3110
   49bbb    H11 1233  10.439  10.335   2.897 -0.9627  1.6270 -0.4148
   49bbb    H12 1234  10.289  10.340   2.983  0.0490  0.0917 -0.4904
   49bbb     C7 1235  10.276   9.798   3.132 -0.3864 -0.5653  0.4216
   49bbb     C8 1236  10.426  10.206   3.070 -0.4483 -0.3981 -0.0602
   49bbb     O1 1237  10.347   9.723   3.066  0.2970 -0.0439 -0.1140
   49bbb     O2 1238  10.363  10.199   3.174  0.7016 -0.3294  0.0201
   49bbb     N4 1239   9.944  10.090   2.627  0.4876  0.9150  0.3230
   49bbb    H21 1240   9.859  10.044   2.658  0.9545 -1.2842 -1.3906
   50bbb     C1 1241   6.727  10.163   2.453 -0.5251  0.3813  0.1549
   50bbb     H1 1242   6.832  10.198   2.455 -0.3622 -0.1284  0.8025
   50bbb     H2 1243   6.725  10.055   2.470 -0.3029  0.4876  0.9055
   50bbb     C2 1244   6.676  10.200   2.307  0.1730  0.6418  0.7053
   50bbb     H3 1245   6.570  10.189   2.283  0.2758  1.1947 -0.0395
   50bbb     H4 1246   6.692  10.306   2.283  0.2259  0.2955 -0.9105
   50bbb     N1 1247   6.643  10.226   2.554 -0.6138 -0.0680 -0.0369
   50bbb     C3 1248   6.687  10.210   2.690  0.5182 -0.0303  0.2993
   50bbb     H5 1249   6.673  10.105   2.721 -1.2056  0.0793  0.0008
   50bbb     H6 1250   6.621  10.274   2.749 -1.9181 -0.0831 -2.1584
   50bbb     C4 1251   6.502  10.180   2.546 -1.1643 -0.0782  0.1040
   50bbb     H7 1252   6.493  10.089   2.486 -0.8105  0.5956 -1.0127
   50bbb     H8 1253   6.455  10.157   2.642 -3.2054 -0.4835 -0.9283
   50bbb     C5 1254   6.426  10.302   2.480 -0.4152  0.3084  0.3160
   50bbb     H9 1255   6.473  10.400   2.497 -2.2279  1.8578 -2.7260
   50bbb    H10 1256   6.426  10.298   2.370 -1.6162  0.5249  0.2973
   50bbb     C6 1257   6.831  10.256   2.712  0.1606  1.1375 -0.2011
   50bbb    H11 1258   6.914  10.197   2.672 -0.1068  1.0761 -0.6710
   50bbb    H12 1259   6.837  10.357   2.669  0.7336  0.0787 -2.7380
   50bbb     C7 1260   6.283  10.291   2.522 -0.6928 -1.2373 -0.1030
   50bbb     C8 1261   6.852  10.248   2.857  0.2364 -0.4364  0.2889
   50bbb     O1 1262   6.194  10.239   2.457 -0.3310  0.6700 -0.2618
   50bbb     O2 1263   6.820  10.140   2.912  0.4898 -0.1321  0.2063
   50bbb     N4 1264   6.768  10.125   2.214  0.4560 -0.5022 -0.5228
   50bbb    H21 1265   6.856  10.084   2.239  0.8374  0.5412 -0.0903
   51bbb     C1 1266   7.290   9.621   1.395 -0.2536 -0.2487 -0.1435
   51bbb     H1 1267   7.282   9.599   1.502  0.5593  2.8987  0.6863
   51bbb     H2 1268   7.386   9.675   1.400  0.3315 -1.3481  1.4725
   51bbb     C2 1269   7.181   9.726   1.385  0.2848  0.4332  0.7423
   51bbb     H3 1270   7.178   9.780   1.289 -1.8038  0.4867  0.7980
   51bbb     H4 1271   7.096   9.659   1.399 -0.3943  0.8171 -1.1996
   51bbb     N1 1272   7.279   9.505   1.313  0.5804 -0.7778  0.2105
   51bbb     C3 1273   7.377   9.406   1.354  0.1868  0.0385  0.4648
   51bbb     H5 1274   7.472   9.458   1.365  1.0061 -1.1663 -0.5560
   51bbb     H6 1275   7.384   9.339   1.266 -0.9913  1.4450 -0.7605
   51bbb     C4 1276   7.299   9.534   1.166  0.1635 -0.1687  0.2957
   51bbb     H7 1277   7.274   9.636   1.133 -0.8567 -0.5690 -0.2446
   51bbb     H8 1278   7.399   9.510   1.130  1.4831  1.5834  2.5545
   51bbb     C5 1279   7.194   9.442   1.102  0.1579 -0.8906 -0.3516
   51bbb     H9 1280   7.207   9.335   1.120 -1.9433 -0.9957  0.8737
   51bbb    H10 1281   7.096   9.472   1.140  0.2968 -1.3834  0.4258
   51bbb     C6 1282   7.328   9.325   1.469  0.1766 -0.0983 -0.4490
   51bbb    H11 1283   7.308   9.391   1.555 -3.9209  0.1122 -1.3775
   51bbb    H12 1284   7.231   9.278   1.450  0.2703 -1.2301  1.5624
   51bbb     C7 1285   7.189   9.443   0.951 -0.6191  0.3101  0.1798
   51bbb     C8 1286   7.444   9.225   1.503  0.5780  0.9112 -0.1934
   51bbb     O1 1287   7.279   9.398   0.879 -0.6948  0.0609  0.2388
   51bbb     O2 1288   7.544   9.257   1.562 -0.2834  0.1901  0.0276
   51bbb     N4 1289   7.189   9.814   1.508 -0.3803 -0.7196  0.3618
   51bbb    H21 1290   7.277   9.815   1.558 -0.6550 -0.2599  0.8466
   52bbb     C1 1291   8.290  11.563   2.050 -0.4938 -0.1695  0.4645
   52bbb     H1 1292   8.194  11.602   2.013  0.2215 -1.2760 -2.8517
   52bbb     H2 1293   8.276  11.455   2.037  2.8000 -0.7637  0.9632
   52bbb     C2 1294   8.288  11.596   2.203  0.5635 -0.4165  1.0679
   52bbb     H3 1295   8.387  11.585   2.249 -0.1292 -2.4880  2.2300
   52bbb     H4 1296   8.266  11.703   2.210  1.3735 -0.1363 -0.3116
   52bbb     N1 1297   8.403  11.626   1.978 -0.6779  0.1518  0.1390
   52bbb     C3 1298   8.519  11.551   1.931  0.2712  0.1619  0.0946
   52bbb     H5 1299   8.604  11.615   1.904  1.0872 -0.8223  0.2621
   52bbb     H6 1300   8.488  11.485   1.848  1.6510  0.3176 -0.5661
   52bbb     C4 1301   8.363  11.724   1.880  0.0317  0.0665 -0.2874
   52bbb     H7 1302   8.445  11.760   1.817  0.7379 -1.0284 -0.0084
   52bbb     H8 1303   8.287  11.684   1.812 -2.3042  1.9222  1.0390
   52bbb     C5 1304   8.296  11.832   1.962  0.4905  0.3733 -0.0120
   52bbb     H9 1305   8.195  11.809   1.997  0.7202 -2.6336 -1.0316
   52bbb    H10 1306   8.367  11.867   2.038 -0.0420  2.1517 -0.2854
   52bbb     C6 1307   8.573  11.461   2.047  0.2721  0.7796  1.0403
   52bbb    H11 1308   8.604  11.520   2.134  1.5046 -0.1829  1.2850
   52bbb    H12 1309   8.502  11.381   2.070 -0.2456  0.7623 -0.4550
   52bbb     C7 1310   8.280  11.945   1.861  0.3067 -0.4129 -0.2702
   52bbb     C8 1311   8.709  11.404   2.002  0.6025  0.3912 -0.4553
   52bbb     O1 1312   8.181  11.951   1.789  0.0501  0.0670 -0.1240
   52bbb     O2 1313   8.805  11.474   2.010  0.6421  0.3688  0.1521
   52bbb     N4 1314   8.193  11.514   2.283  0.1721 -0.2621 -0.0670
   52bbb    H21 1315   8.216  11.422   2.318 -0.0781  0.1788  1.3301
   53bbb     C1 1316   7.369  11.616   2.727 -0.2666 -0.1145  0.5888
   53bbb     H1 1317   7.335  11.560   2.639  1.4704 -1.9120  1.0030
   53bbb     H2 1318   7.454  11.668   2.681 -0.4556 -0.1152  0.2387
   53bbb     C2 1319   7.414  11.511   2.828 -0.2498 -0.5282 -0.6689
   53bbb     H3 1320   7.480  11.554   2.904 -2.1551 -0.8182  1.2386
   53bbb     H4 1321   7.324  11.474   2.879  0.2691 -0.3309  0.4271
   53bbb     N1 1322   7.256  11.699   2.777  0.3325 -0.4397  0.3959
   53bbb     C3 1323   7.200  11.798   2.676  0.0043 -0.1992 -0.4975
   53bbb     H5 1324   7.282  11.864   2.644  0.7600 -1.3187 -0.9275
   53bbb     H6 1325   7.123  11.863   2.719  0.5184  0.5263 -0.6445
   53bbb     C4 1326   7.300  11.769   2.899  1.0177  0.7064  0.4013
   53bbb     H7 1327   7.360  11.707   2.966  0.5229 -0.3488 -0.1023
   53bbb     H8 1328   7.365  11.853   2.871 -0.3091  1.1922 -1.4231
   53bbb     C5 1329   7.180  11.813   2.987 -0.1312  0.2934 -0.4662
   53bbb     H9 1330   7.126  11.895   2.936 -1.1697 -2.1449 -3.6177
   53bbb    H10 1331   7.101  11.737   2.989  1.1691 -1.1012 -0.7820
   53bbb     C6 1332   7.143  11.723   2.552  0.4550  0.7490 -0.2283
   53bbb    H11 1333   7.216  11.692   2.477 -1.5081 -0.7302 -1.6213
   53bbb    H12 1334   7.099  11.626   2.579  2.0048 -0.5801 -2.2246
   53bbb     C7 1335   7.220  11.852   3.130 -0.0342  0.3379 -0.0960
   53bbb     C8 1336   7.040  11.805   2.489  1.0094  0.0620  0.4938
   53bbb     O1 1337   7.229  11.970   3.161 -0.1648  0.2175  0.4877
   53bbb     O2 1338   6.920  11.808   2.515  0.6375 -0.6108  0.1401
   53bbb     N4 1339   7.481  11.406   2.752 -0.2441 -0.0946  0.2139
   53bbb    H21 1340   7.428  11.324   2.723 -0.5328 -1.0450  3.1101
   54bbb     C1 1341   8.579   7.851   3.520 -0.8130  0.1701  0.0738
   54bbb     H1 1342   8.531   7.755   3.497 -1.2869  0.7638 -1.5567
   54bbb     H2 1343   8.504   7.923   3.554 -0.8654  0.4429 -0.6118
   54bbb     C2 1344   8.624   7.904   3.386  0.2593  0.0592  0.1943
   54bbb     H3 1345   8.681   7.997   3.392 -0.5396  0.5609  0.0931
   54bbb     H4 1346   8.691   7.831   3.339  1.8852  0.4147  1.8298
   54bbb     N1 1347   8.696   7.830   3.616  0.7917 -0.5548  0.7015
   54bbb     C3 1348   8.806   7.742   3.582 -0.9480  0.3378  0.3670
   54bbb     H5 1349   8.768   7.658   3.524 -0.8413 -0.0954  0.9163
   54bbb     H6 1350   8.839   7.702   3.679 -1.1561 -2.1969 -0.5308
   54bbb     C4 1351   8.631   7.793   3.743 -0.1826 -0.3457 -0.1507
   54bbb     H7 1352   8.536   7.846   3.751 -0.8145 -1.6955  3.1109
   54bbb     H8 1353   8.617   7.685   3.743  0.1188 -0.4352  2.0048
   54bbb     C5 1354   8.716   7.843   3.860  0.6592  0.1801 -0.2805
   54bbb     H9 1355   8.811   7.787   3.861  1.3926  1.3910 -0.3000
   54bbb    H10 1356   8.754   7.945   3.852  1.9220 -0.2687 -0.2393
   54bbb     C6 1357   8.914   7.834   3.519  0.1552  0.1074 -0.4615
   54bbb    H11 1358   9.004   7.774   3.501 -0.2692 -0.4232 -0.8289
   54bbb    H12 1359   8.886   7.874   3.421 -0.6493 -0.1285 -0.3313
   54bbb     C7 1360   8.633   7.822   3.987 -0.3500  0.1423  0.7429
   54bbb     C8 1361   8.961   7.939   3.615  0.5961 -0.5298 -0.0857
   54bbb     O1 1362   8.570   7.718   4.009 -1.2270  0.5954  0.2646
   54bbb     O2 1363   9.046   7.920   3.702  0.2801  0.1344  0.2229
   54bbb     N4 1364   8.506   7.939   3.294  0.4605 -0.1456 -0.1954
   54bbb    H21 1365   8.431   8.004   3.316 -0.1312 -0.7873 -0.2904
   55bbb     C1 1366   7.693   8.003   2.703  0.3254 -0.3314  0.8780
   55bbb     H1 1367   7.588   8.033   2.690  1.0202  2.4088  1.0099
   55bbb     H2 1368   7.731   7.995   2.806 -0.6849 -1.1279  1.2116
   55bbb     C2 1369   7.768   8.129   2.653  0.0860  0.4043  0.0754
   55bbb     H3 1370   7.739   8.161   2.552  0.1763  0.3831  0.0432
   55bbb     H4 1371   7.734   8.213   2.716  0.3139  0.0424  0.6930
   55bbb     N1 1372   7.716   7.878   2.624 -0.0047  0.1781  0.2024
   55bbb     C3 1373   7.631   7.769   2.681  0.4854  0.5532 -0.8414
   55bbb     H5 1374   7.610   7.692   2.605 -2.2794  0.6067 -0.2223
   55bbb     H6 1375   7.532   7.814   2.693  0.3000  0.6946 -2.6193
   55bbb     C4 1376   7.691   7.890   2.481 -0.1198  0.7054 -0.7154
   55bbb     H7 1377   7.587   7.864   2.458 -0.8224  1.9987  0.8433
   55bbb     H8 1378   7.700   7.992   2.441  2.4118  0.2604 -1.4406
   55bbb     C5 1379   7.792   7.796   2.409  0.2653 -0.0789 -0.2154
   55bbb     H9 1380   7.884   7.855   2.394 -0.7718  1.7922  0.4137
   55bbb    H10 1381   7.820   7.703   2.458  1.4222 -0.0972 -0.8774
   55bbb     C6 1382   7.694   7.713   2.819 -0.2636  0.4260 -0.4497
   55bbb    H11 1383   7.790   7.669   2.789 -1.3799 -0.7177 -2.6159
   55bbb    H12 1384   7.723   7.800   2.879 -0.5746  0.4021 -0.2667
   55bbb     C7 1385   7.729   7.774   2.271  0.2288  0.0658  0.0165
   55bbb     C8 1386   7.608   7.618   2.891 -0.5550 -0.1729  0.5761
   55bbb     O1 1387   7.706   7.872   2.198 -0.4876 -0.3427 -0.2596
   55bbb     O2 1388   7.510   7.568   2.837 -0.8404  0.5397 -0.1550
   55bbb     N4 1389   7.916   8.120   2.671 -0.5739  0.3359  0.0567
   55bbb    H21 1390   7.966   8.112   2.583  0.9277 -1.7201  1.0296
   56bbb     C1 1391   8.708   9.140   2.612  0.2692 -0.0889  0.4340
   56bbb     H1 1392   8.677   9.067   2.537  0.3460  2.4237 -2.2146
   56bbb     H2 1393   8.814   9.120   2.633  0.4854 -0.8196 -1.1661
   56bbb     C2 1394   8.624   9.117   2.738  0.1552 -0.5828  0.0019
   56bbb     H3 1395   8.521   9.145   2.714  0.7005  1.9324  0.3273
   56bbb     H4 1396   8.617   9.014   2.776 -2.0752 -0.5497 -0.2165
   56bbb     N1 1397   8.687   9.280   2.564 -0.6316 -0.0780  0.0196
   56bbb     C3 1398   8.567   9.292   2.483  0.2660 -0.0025 -0.1593
   56bbb     H5 1399   8.494   9.212   2.503  0.9325 -0.7281 -0.5524
   56bbb     H6 1400   8.583   9.297   2.374 -1.9540  0.8999 -0.4986
   56bbb     C4 1401   8.800   9.338   2.492  0.5450 -0.2919 -0.1018
   56bbb     H7 1402   8.838   9.265   2.419 -1.6786 -0.3863 -1.2598
   56bbb     H8 1403   8.769   9.427   2.437 -0.4278  0.2223  1.2277
   56bbb     C5 1404   8.904   9.391   2.588 -0.8545 -0.0743  0.4960
   56bbb     H9 1405   8.871   9.474   2.651 -4.4636 -1.1620  0.2779
   56bbb    H10 1406   8.934   9.305   2.649  0.3911 -0.0990 -0.1046
   56bbb     C6 1407   8.506   9.427   2.511  0.0805 -0.8185  0.0205
   56bbb    H11 1408   8.568   9.509   2.474 -0.8597  0.0782  0.3860
   56bbb    H12 1409   8.409   9.418   2.460  0.0975  0.1536 -0.2075
   56bbb     C7 1410   9.028   9.442   2.510  0.0574  0.1170  0.1858
   56bbb     C8 1411   8.487   9.453   2.655  0.4827  0.0279 -0.2753
   56bbb     O1 1412   9.092   9.362   2.443  0.7604  0.7470 -0.2700
   56bbb     O2 1413   8.378   9.426   2.710  0.4194  0.2013  0.1713
   56bbb     N4 1414   8.668   9.190   2.861 -0.2274 -0.8221 -0.5497
   56bbb    H21 1415   8.660   9.290   2.876  0.0539 -0.7287 -0.9877
   57bbb     C1 1416   8.982   8.698   3.655 -0.3774  0.2449 -0.0445
   57bbb     H1 1417   8.954   8.625   3.578 -0.6633  1.8125 -1.4974
   57bbb     H2 1418   8.896   8.726   3.718  1.1409  2.6577  1.1230
   57bbb     C2 1419   9.017   8.822   3.582 -0.0720 -0.2716 -0.1880
   57bbb     H3 1420   9.063   8.893   3.651 -0.0970 -0.1984 -0.2467
   57bbb     H4 1421   9.102   8.806   3.514  0.3430  2.3355 -0.3845
   57bbb     N1 1422   9.086   8.641   3.745 -0.4147 -0.4393 -0.2739
   57bbb     C3 1423   9.209   8.618   3.662  0.7387 -0.2353  0.6677
   57bbb     H5 1424   9.275   8.705   3.656  1.5400 -0.8303  0.5064
   57bbb     H6 1425   9.179   8.588   3.561  3.3897 -0.2228 -0.2212
   57bbb     C4 1426   9.111   8.721   3.863  0.7717 -0.3898  0.1759
   57bbb     H7 1427   9.210   8.702   3.906  1.2645 -1.6604 -1.4139
   57bbb     H8 1428   9.098   8.829   3.843 -1.6374 -0.9752 -1.9141
   57bbb     C5 1429   9.000   8.669   3.963 -0.5626  0.4860  0.0014
   57bbb     H9 1430   8.903   8.718   3.968  0.4032  2.3640  1.5537
   57bbb    H10 1431   8.968   8.566   3.940  2.9512 -0.2202 -2.5019
   57bbb     C6 1432   9.286   8.513   3.733 -0.2457  0.0991 -0.1192
   57bbb    H11 1433   9.310   8.541   3.836 -0.8873  0.8089 -0.1537
   57bbb    H12 1434   9.222   8.424   3.744 -1.6463  1.2039  1.0872
   57bbb     C7 1435   9.046   8.668   4.105  0.2078 -0.0828 -0.8691
   57bbb     C8 1436   9.403   8.486   3.651  0.0413 -0.4511  0.1681
   57bbb     O1 1437   9.056   8.766   4.175 -1.4358 -0.5517  0.6264
   57bbb     O2 1438   9.386   8.449   3.538 -0.1517 -0.1297  0.4109
   57bbb     N4 1439   8.912   8.884   3.498  0.0219 -0.2207 -0.6002
   57bbb    H21 1440   8.863   8.828   3.430  1.1814 -0.0691 -1.5808
   58bbb     C1 1441   7.438   9.698   1.785  0.8920  0.1760 -0.1833
   58bbb     H1 1442   7.338   9.743   1.796  1.2106  0.2572  3.1747
   58bbb     H2 1443   7.429   9.602   1.732  0.6353  0.0724  0.0452
   58bbb     C2 1444   7.479   9.679   1.935  0.4133  0.4117  0.5789
   58bbb     H3 1445   7.588   9.664   1.940  0.8251  3.2058  1.7578
   58bbb     H4 1446   7.451   9.773   1.984  2.2433  0.4728  1.5828
   58bbb     N1 1447   7.514   9.787   1.694 -0.1886 -0.0477  0.3129
   58bbb     C3 1448   7.645   9.733   1.651  0.0737 -0.2804  0.3666
   58bbb     H5 1449   7.713   9.758   1.733  1.0946  1.1607 -0.8602
   58bbb     H6 1450   7.669   9.782   1.556  3.3599 -0.9923  0.7201
   58bbb     C4 1451   7.523   9.925   1.747 -0.2498  0.7030  0.1244
   58bbb     H7 1452   7.423   9.950   1.784 -0.2174  0.4420  0.3939
   58bbb     H8 1453   7.592   9.931   1.831  1.7854 -4.8468 -0.7257
   58bbb     C5 1454   7.560  10.021   1.637  0.7647 -0.0711 -1.1946
   58bbb     H9 1455   7.668  10.016   1.618  0.6866 -2.2303 -1.4166
   58bbb    H10 1456   7.501  10.002   1.546  0.3020  1.9252 -1.3541
   58bbb     C6 1457   7.646   9.586   1.619 -0.3680 -0.8222 -0.2134
   58bbb    H11 1458   7.647   9.526   1.711 -0.3061 -1.8641 -0.8708
   58bbb    H12 1459   7.564   9.560   1.551 -1.6672 -0.8113  1.2941
   58bbb     C7 1460   7.524  10.162   1.677 -0.0534 -0.6224 -0.3303
   58bbb     C8 1461   7.772   9.543   1.545 -0.0474  0.2755 -0.6408
   58bbb     O1 1462   7.561  10.203   1.787  0.3430  0.7474 -0.6988
   58bbb     O2 1463   7.878   9.611   1.539  0.0539  0.1387 -0.5338
   58bbb     N4 1464   7.412   9.563   1.999  0.0311  0.0172  0.6403
   58bbb    H21 1465   7.316   9.577   2.029 -1.1674 -2.7712 -1.3589
   59bbb     C1 1466   6.964   8.720   1.414 -0.7785  0.4980  0.3693
   59bbb     H1 1467   6.960   8.804   1.344  3.2416  0.9439  0.4485
   59bbb     H2 1468   6.875   8.721   1.478  0.3806  2.0628  2.0559
   59bbb     C2 1469   7.096   8.739   1.494 -0.9905 -0.4748 -0.0081
   59bbb     H3 1470   7.127   8.655   1.557  2.7653  1.4392  1.0189
   59bbb     H4 1471   7.181   8.748   1.426 -1.9659  3.1872 -0.9861
   59bbb     N1 1472   6.974   8.595   1.338  0.0891 -0.2438  0.3989
   59bbb     C3 1473   6.863   8.598   1.238  0.3787 -0.4008  0.1399
   59bbb     H5 1474   6.777   8.649   1.282 -1.7216 -1.1288 -2.8060
   59bbb     H6 1475   6.831   8.497   1.213 -0.3513  0.1566 -1.3149
   59bbb     C4 1476   6.955   8.478   1.425  0.6722  0.4340 -0.1860
   59bbb     H7 1477   7.009   8.502   1.517  0.9147 -0.3773 -0.1121
   59bbb     H8 1478   6.848   8.469   1.446  0.8097 -0.2760  0.2334
   59bbb     C5 1479   7.016   8.349   1.361  0.2400  0.3343  0.9159
   59bbb     H9 1480   6.969   8.332   1.263 -0.4758  3.7679  0.5248
   59bbb    H10 1481   7.124   8.358   1.344  0.3942  0.8950  2.0996
   59bbb     C6 1482   6.912   8.654   1.105 -0.3690 -0.2547 -0.1804
   59bbb    H11 1483   6.906   8.764   1.106 -0.7641 -0.2577 -1.1174
   59bbb    H12 1484   7.018   8.627   1.095 -0.8234 -2.1596 -0.2118
   59bbb     C7 1485   6.983   8.239   1.452  0.1035  0.6748 -0.3472
   59bbb     C8 1486   6.850   8.583   0.985  0.3486 -0.8163 -1.0984
   59bbb     O1 1487   6.889   8.167   1.429 -0.1582  0.5779 -0.6469
   59bbb     O2 1488   6.895   8.488   0.932  0.5945 -0.0456  0.1828
   59bbb     N4 1489   7.096   8.862   1.571 -0.3008  0.2259 -0.3704
   59bbb    H21 1490   7.023   8.929   1.551 -1.8053 -0.6550  1.8346
   60bbb     C1 1491   7.031   8.447   3.630  0.0929 -0.1376 -0.2492
   60bbb     H1 1492   7.053   8.340   3.632 -2.0181 -0.6105 -0.7236
   60bbb     H2 1493   6.945   8.450   3.561 -0.0514  1.1979 -0.0450
   60bbb     C2 1494   7.149   8.538   3.573 -0.2740  0.1492  1.0089
   60bbb     H3 1495   7.185   8.598   3.657  2.0515 -0.5949  0.6220
   60bbb     H4 1496   7.234   8.480   3.534 -0.5211  0.2664  0.2705
   60bbb     N1 1497   7.003   8.484   3.767  0.3807 -0.0420 -0.9421
   60bbb     C3 1498   7.112   8.467   3.870  0.1215  0.1361  1.1460
   60bbb     H5 1499   7.210   8.482   3.822  0.0723 -0.4406  0.8606
   60bbb     H6 1500   7.107   8.368   3.916 -1.9357  0.3635  1.4998
   60bbb     C4 1501   6.876   8.431   3.806 -0.4316 -0.0491  0.1257
   60bbb     H7 1502   6.856   8.335   3.757 -1.5393  0.6599 -0.8711
   60bbb     H8 1503   6.868   8.411   3.913 -1.2780 -0.8847 -0.0795
   60bbb     C5 1504   6.764   8.526   3.760  0.0386  0.1363  0.5098
   60bbb     H9 1505   6.762   8.523   3.651  0.4604  0.3485  0.4949
   60bbb    H10 1506   6.670   8.485   3.800 -0.8041  0.0033 -1.4758
   60bbb     C6 1507   7.090   8.563   3.986  0.2514 -0.7150 -0.0968
   60bbb    H11 1508   7.070   8.666   3.953 -0.6241 -0.2659  1.7457
   60bbb    H12 1509   7.001   8.545   4.047 -0.3146  2.1228  0.0422
   60bbb     C7 1510   6.796   8.669   3.803  0.4494  0.8423 -0.5673
   60bbb     C8 1511   7.206   8.572   4.075 -0.2540 -0.4286 -0.1449
   60bbb     O1 1512   6.812   8.691   3.920  0.0045  0.7996 -0.8119
   60bbb     O2 1513   7.289   8.485   4.085  0.3146  0.5195  0.1309
   60bbb     N4 1514   7.107   8.635   3.477 -0.1399 -0.0888 -0.3980
   60bbb    H21 1515   7.010   8.640   3.448 -0.2550  0.9259  0.1217
   61bbb     C1 1516   6.350   8.816   3.188  0.5357  0.1351  0.4156
   61bbb     H1 1517   6.324   8.775   3.286 -0.5306 -0.3259 -0.0308
   61bbb     H2 1518   6.414   8.749   3.130 -0.4253 -0.4198 -0.0376
   61bbb     C2 1519   6.424   8.952   3.200 -0.2938  0.2464 -0.2369
   61bbb     H3 1520   6.420   9.012   3.108 -1.4846  0.7649  0.1402
   61bbb     H4 1521   6.367   9.011   3.273 -0.0891 -0.1763  0.2752
   61bbb     N1 1522   6.225   8.842   3.112 -0.0926 -0.2507  0.0235
   61bbb     C3 1523   6.114   8.893   3.195 -0.1809  0.2368 -0.0187
   61bbb     H5 1524   6.154   8.960   3.273 -1.4218  1.6757 -0.5560
   61bbb     H6 1525   6.060   8.809   3.240 -1.3500  0.7546 -0.4206
   61bbb     C4 1526   6.178   8.730   3.025 -0.6786 -0.0198 -0.3125
   61bbb     H7 1527   6.187   8.637   3.082  2.2061  0.0589 -0.4972
   61bbb     H8 1528   6.074   8.758   3.005 -0.1669  0.9091 -1.8791
   61bbb     C5 1529   6.246   8.735   2.892 -0.4115 -0.0508  0.5981
   61bbb     H9 1530   6.236   8.833   2.845 -1.9905 -0.3863  0.1893
   61bbb    H10 1531   6.352   8.707   2.881 -1.2822 -2.6027 -3.0380
   61bbb     C6 1532   6.022   8.986   3.113  0.0388  0.1687  0.0883
   61bbb    H11 1533   6.073   9.077   3.079 -1.7818  0.2051 -2.8733
   61bbb    H12 1534   5.979   8.940   3.023 -0.8594  0.5908  0.2790
   61bbb     C7 1535   6.171   8.631   2.807 -0.5293  0.5733 -0.3501
   61bbb     C8 1536   5.905   9.021   3.196  0.3255  0.1419 -0.6976
   61bbb     O1 1537   6.163   8.512   2.839 -0.7990  0.0748 -0.1185
   61bbb     O2 1538   5.913   9.128   3.259  0.0406  1.0844 -0.3992
   61bbb     N4 1539   6.569   8.942   3.241  0.4990 -0.8261  0.2802
   61bbb    H21 1540   6.603   8.861   3.291  1.5597 -0.5382  0.0400
   62bbb     C1 1541   6.413  11.106   0.572 -0.2295  0.4093  0.3418
   62bbb     H1 1542   6.462  11.202   0.553 -0.7531  1.2657  2.9415
   62bbb     H2 1543   6.401  11.096   0.680 -0.4862  0.2952  0.3035
   62bbb     C2 1544   6.509  10.978   0.541  0.3111 -0.8015  0.1698
   62bbb     H3 1545   6.536  10.983   0.435  1.3462 -2.2501  0.3486
   62bbb     H4 1546   6.599  10.980   0.603  0.3307 -0.8634  0.1435
   62bbb     N1 1547   6.289  11.107   0.496 -0.8387  0.1832  0.8241
   62bbb     C3 1548   6.311  11.117   0.349  0.7036  1.1746  0.0875
   62bbb     H5 1549   6.405  11.071   0.320  0.3326  1.0392 -0.9275
   62bbb     H6 1550   6.308  11.223   0.319  2.5232  1.2272  0.0082
   62bbb     C4 1551   6.200  11.210   0.543  0.0197  0.3338  0.1382
   62bbb     H7 1552   6.251  11.300   0.580  0.6824  0.3867 -0.8533
   62bbb     H8 1553   6.141  11.247   0.458 -1.0412  1.0762  1.1688
   62bbb     C5 1554   6.114  11.141   0.652 -0.3701 -0.2987 -0.8237
   62bbb     H9 1555   6.075  11.046   0.612 -0.5741  1.0926 -4.2983
   62bbb    H10 1556   6.179  11.112   0.735  1.9084 -0.5759 -2.5761
   62bbb     C6 1557   6.192  11.044   0.281  0.1364 -0.3490  0.1485
   62bbb    H11 1558   6.097  11.093   0.306 -0.1136  0.3815 -1.9854
   62bbb    H12 1559   6.212  11.042   0.173  1.4260  1.5552  0.3038
   62bbb     C7 1560   6.000  11.229   0.693 -0.1743 -0.2829 -0.1752
   62bbb     C8 1561   6.186  10.901   0.315 -0.7494 -0.5634 -0.1863
   62bbb     O1 1562   6.012  11.299   0.785 -0.3223 -0.0662 -0.0017
   62bbb     O2 1563   6.284  10.825   0.315  0.1978 -0.0092 -0.1539
   62bbb     N4 1564   6.441  10.850   0.563 -0.2375 -0.1356  0.0413
   62bbb    H21 1565   6.399  10.807   0.482  2.6784  0.0459 -1.7000
   63bbb     C1 1566   5.473  10.452   0.937  0.0458 -0.1602  0.2682
   63bbb     H1 1567   5.371  10.452   0.896  0.9254  0.3861 -2.0724
   63bbb     H2 1568   5.480  10.531   1.013 -1.6076  1.1220 -0.8617
   63bbb     C2 1569   5.568  10.484   0.818 -0.2115  0.8994  0.8325
   63bbb     H3 1570   5.548  10.423   0.728 -1.7744  0.4392  1.4546
   63bbb     H4 1571   5.545  10.586   0.785 -1.7031 -0.0685 -1.3853
   63bbb     N1 1572   5.509  10.324   1.007 -0.2361  0.4604  0.5199
   63bbb     C3 1573   5.479  10.207   0.917 -0.0365  0.0622  0.3832
   63bbb     H5 1574   5.511  10.224   0.813 -2.4226 -1.5873 -0.7041
   63bbb     H6 1575   5.370  10.207   0.925  0.0218  0.2752  1.2312
   63bbb     C4 1576   5.451  10.313   1.147 -0.4163 -0.2997 -0.3768
   63bbb     H7 1577   5.362  10.378   1.153  0.1526  0.3279  2.4622
   63bbb     H8 1578   5.417  10.210   1.165 -0.3160 -0.1386  0.8141
   63bbb     C5 1579   5.550  10.361   1.249  0.2278 -1.3622  1.0269
   63bbb     H9 1580   5.634  10.291   1.234  0.8565 -0.0627 -2.4019
   63bbb    H10 1581   5.579  10.463   1.224 -1.9178 -1.1828 -1.0588
   63bbb     C6 1582   5.549  10.078   0.966 -0.0121 -0.4611  0.5445
   63bbb    H11 1583   5.650  10.111   0.992 -0.0049  1.2304 -1.4171
   63bbb    H12 1584   5.503  10.030   1.054  0.2518 -0.8352  0.4801
   63bbb     C7 1585   5.490  10.349   1.387 -0.9574 -0.6875 -0.7435
   63bbb     C8 1586   5.550   9.976   0.853 -0.1449 -0.6266  0.1028
   63bbb     O1 1587   5.407  10.266   1.423 -0.4940  0.4825 -0.0686
   63bbb     O2 1588   5.634   9.978   0.755  0.2535 -0.4798  0.2045
   63bbb     N4 1589   5.715  10.472   0.856 -0.6788 -0.6293 -0.1536
   63bbb    H21 1590   5.748  10.425   0.939  2.6316 -0.6842 -1.3534
   64bbb     C1 1591   7.353  11.515   0.732  0.2772 -0.6899  0.1910
   64bbb     H1 1592   7.366  11.610   0.785  2.3598  1.2218 -3.3878
   64bbb     H2 1593   7.266  11.517   0.666 -0.7111  0.0539  1.4572
   64bbb     C2 1594   7.334  11.413   0.848  1.0127 -0.0561  0.0349
   64bbb     H3 1595   7.369  11.313   0.820 -1.9998 -0.9745 -0.7864
   64bbb     H4 1596   7.399  11.445   0.931 -0.0430  0.0000  0.8644
   64bbb     N1 1597   7.476  11.483   0.662  0.5250 -0.0464  0.0877
   64bbb     C3 1598   7.555  11.610   0.643 -0.2261  0.7946 -0.0186
   64bbb     H5 1599   7.488  11.685   0.599 -1.9724 -1.2216 -0.9856
   64bbb     H6 1600   7.640  11.597   0.575  1.2872  0.0274  1.9191
   64bbb     C4 1601   7.451  11.426   0.527 -0.2198  0.0886  0.3026
   64bbb     H7 1602   7.380  11.490   0.473 -0.1101 -0.2164 -0.2119
   64bbb     H8 1603   7.543  11.424   0.468 -0.9457 -1.9317 -0.8532
   64bbb     C5 1604   7.398  11.285   0.527 -0.3896  0.2721 -0.0746
   64bbb     H9 1605   7.452  11.222   0.599  1.2739  0.4290 -1.1404
   64bbb    H10 1606   7.294  11.293   0.562  0.0159  1.2672  0.9567
   64bbb     C6 1607   7.623  11.651   0.776  0.2485  0.3809 -0.0853
   64bbb    H11 1608   7.549  11.691   0.847 -0.5270 -0.4755 -0.3905
   64bbb    H12 1609   7.670  11.568   0.831  1.3900  1.3238  0.4059
   64bbb     C7 1610   7.384  11.225   0.385  0.1604 -0.7807 -0.0226
   64bbb     C8 1611   7.733  11.752   0.758 -0.1866 -0.4100 -0.1668
   64bbb     O1 1612   7.349  11.290   0.287 -0.5937 -0.3941  0.2163
   64bbb     O2 1613   7.710  11.845   0.679  0.3454 -0.5666 -0.2879
   64bbb     N4 1614   7.194  11.402   0.896  0.5147 -0.6596 -0.1229
   64bbb    H21 1615   7.143  11.478   0.940  0.3141 -0.0189 -1.4423
   65bbb     C1 1616   6.371  11.803   0.656 -0.5530 -0.3099  0.4615
   65bbb     H1 1617   6.345  11.892   0.598  0.5965 -0.3556 -0.1641
   65bbb     H2 1618   6.360  11.838   0.759  0.4528  1.3530  0.0363
   65bbb     C2 1619   6.521  11.769   0.635  0.2985 -0.2206  0.6498
   65bbb     H3 1620   6.530  11.757   0.526 -0.9393 -4.1366  0.8138
   65bbb     H4 1621   6.576  11.860   0.663  0.4402 -0.2183  0.3663
   65bbb     N1 1622   6.275  11.699   0.613  0.0300  0.1744  0.4828
   65bbb     C3 1623   6.263  11.694   0.468  0.2697  0.1775  0.3099
   65bbb     H5 1624   6.361  11.698   0.421 -0.3907 -0.8820 -1.2381
   65bbb     H6 1625   6.198  11.776   0.434  0.0119  0.5730  1.6922
   65bbb     C4 1626   6.145  11.718   0.682 -0.2916 -0.0304  1.0069
   65bbb     H7 1627   6.155  11.823   0.713  1.7319  1.2178 -3.1077
   65bbb     H8 1628   6.064  11.700   0.611  1.8007  0.0232 -1.5648
   65bbb     C5 1629   6.138  11.628   0.806  0.6061  0.0916 -0.3560
   65bbb     H9 1630   6.145  11.524   0.771 -1.5910 -0.1471 -0.2106
   65bbb    H10 1631   6.222  11.650   0.873  0.4365 -0.0742 -0.0868
   65bbb     C6 1632   6.202  11.563   0.424 -0.4672 -0.0390  0.2387
   65bbb    H11 1633   6.248  11.472   0.463 -0.3932 -0.1374 -0.0737
   65bbb    H12 1634   6.096  11.557   0.452 -0.2807 -0.7346  0.8290
   65bbb     C7 1635   6.009  11.657   0.874 -0.3767 -0.2041  0.6412
   65bbb     C8 1636   6.190  11.573   0.274  0.3410  0.3482 -0.6918
   65bbb     O1 1637   5.974  11.769   0.896 -0.1558  0.1866  0.1847
   65bbb     O2 1638   6.112  11.649   0.228  0.6103  0.0890  0.5558
   65bbb     N4 1639   6.551  11.644   0.715  0.1045 -0.3297 -0.2411
   65bbb    H21 1640   6.544  11.655   0.816 -0.4468  0.1743 -0.3296
   66bbb     C1 1641   6.625   8.311   1.576 -0.3524 -0.0320 -0.2159
   66bbb     H1 1642   6.593   8.207   1.562 -0.5053  0.3960 -4.0784
   66bbb     H2 1643   6.723   8.338   1.536 -0.2886  0.7910  0.4713
   66bbb     C2 1644   6.624   8.357   1.724 -0.0375 -0.2318 -0.2986
   66bbb     H3 1645   6.529   8.356   1.778 -0.0270  2.0755 -0.1403
   66bbb     H4 1646   6.690   8.293   1.783  1.3863  2.4369  1.2154
   66bbb     N1 1647   6.523   8.386   1.493  1.0509 -0.4494  1.0203
   66bbb     C3 1648   6.378   8.357   1.520 -0.2455  0.2115 -0.5722
   66bbb     H5 1649   6.371   8.371   1.629  2.8424 -0.0093 -0.2364
   66bbb     H6 1650   6.359   8.250   1.510 -2.8743  0.6477 -0.7258
   66bbb     C4 1651   6.557   8.384   1.346 -0.2433 -0.1650 -0.1766
   66bbb     H7 1652   6.501   8.465   1.298  0.3955  1.7420  2.0897
   66bbb     H8 1653   6.665   8.394   1.329  0.6352 -4.3062  1.7956
   66bbb     C5 1654   6.528   8.247   1.290  0.1642 -0.7761  0.4613
   66bbb     H9 1655   6.604   8.178   1.329  1.7766 -1.0151 -2.8147
   66bbb    H10 1656   6.423   8.217   1.303 -0.7159  1.8399 -0.0302
   66bbb     C6 1657   6.280   8.432   1.440 -0.1299 -0.3986  0.3649
   66bbb    H11 1658   6.301   8.540   1.441 -0.2132 -0.3845  0.6183
   66bbb    H12 1659   6.270   8.397   1.336 -0.4429 -0.2889  0.3573
   66bbb     C7 1660   6.547   8.253   1.142 -0.3546 -0.2213  0.1328
   66bbb     C8 1661   6.147   8.409   1.505 -0.0194 -0.3177  0.0319
   66bbb     O1 1662   6.654   8.271   1.086  0.0356 -0.2788 -0.0343
   66bbb     O2 1663   6.109   8.480   1.590  0.4011 -0.4252  0.1776
   66bbb     N4 1664   6.680   8.496   1.714  0.1208 -0.6500 -1.1440
   66bbb    H21 1665   6.624   8.570   1.672  2.4641  1.3244 -0.9735
   67bbb     C1 1666   6.739   8.805   2.604 -0.2902 -0.5319  0.3521
   67bbb     H1 1667   6.724   8.699   2.580 -0.0663 -0.6412  0.6979
   67bbb     H2 1668   6.655   8.860   2.559  0.5406  1.1608  0.7846
   67bbb     C2 1669   6.867   8.858   2.540 -0.0843  0.6535 -0.6283
   67bbb     H3 1670   6.878   8.967   2.544  2.5846  0.4253  0.0600
   67bbb     H4 1671   6.956   8.817   2.589  1.1115  2.4094 -1.2820
   67bbb     N1 1672   6.750   8.823   2.754  0.0880  0.5168 -0.4838
   67bbb     C3 1673   6.838   8.717   2.809 -0.1587 -0.6494  0.6801
   67bbb     H5 1674   6.916   8.713   2.732  0.0494  2.0150  0.6503
   67bbb     H6 1675   6.791   8.619   2.826  0.7441 -1.0451  0.9738
   67bbb     C4 1676   6.621   8.827   2.825  0.4501 -0.4668  0.0045
   67bbb     H7 1677   6.530   8.802   2.769 -0.7426  1.3748  1.0084
   67bbb     H8 1678   6.628   8.773   2.920  0.4025  2.1746  1.6051
   67bbb     C5 1679   6.605   8.974   2.872 -0.3680 -0.6135 -0.3236
   67bbb     H9 1680   6.524   8.970   2.946 -0.4461 -2.2970 -0.4536
   67bbb    H10 1681   6.702   8.994   2.920 -1.4721 -2.3921  3.0591
   67bbb     C6 1682   6.898   8.765   2.936 -0.3509  0.0762  0.6606
   67bbb    H11 1683   6.953   8.856   2.911 -0.9265  0.7823  1.9049
   67bbb    H12 1684   6.824   8.785   3.015  1.4845  0.0527  2.4568
   67bbb     C7 1685   6.569   9.059   2.757 -0.1694  0.5893  0.3725
   67bbb     C8 1686   7.003   8.664   2.978  0.7622 -0.3334 -0.9130
   67bbb     O1 1687   6.465   9.042   2.694  0.0202  0.5309  0.2280
   67bbb     O2 1688   7.123   8.680   2.955 -0.0173 -0.2998  0.1201
   67bbb     N4 1689   6.868   8.812   2.402 -0.7236  0.4479 -0.2626
   67bbb    H21 1690   6.920   8.727   2.383  0.7476  0.9023  1.3889
   68bbb     C1 1691   6.013  10.172   0.628 -0.2788 -0.3441 -0.3006
   68bbb     H1 1692   6.006  10.225   0.723 -0.8162 -0.0356 -0.5139
   68bbb     H2 1693   5.923  10.109   0.627 -0.0817 -0.6506 -1.7752
   68bbb     C2 1694   6.124  10.059   0.621 -0.0666  0.1453 -0.4773
   68bbb     H3 1695   6.101   9.993   0.536 -0.6046  1.0956 -1.0888
   68bbb     H4 1696   6.222  10.101   0.596  0.1819 -1.3983 -2.3080
   68bbb     N1 1697   6.029  10.254   0.499  0.1402 -0.0216 -0.2656
   68bbb     C3 1698   6.129  10.357   0.506 -0.7316 -0.3184  0.5923
   68bbb     H5 1699   6.217  10.339   0.568 -1.3227  0.0392  1.5554
   68bbb     H6 1700   6.078  10.452   0.525 -2.2929 -0.7833 -1.0214
   68bbb     C4 1701   5.904  10.311   0.468 -0.6458  0.0316 -0.1781
   68bbb     H7 1702   5.843  10.321   0.558 -2.9031  1.7024 -1.7561
   68bbb     H8 1703   5.916  10.412   0.428  1.6919 -0.3649 -0.5900
   68bbb     C5 1704   5.831  10.233   0.362 -0.3910 -0.0066 -0.5172
   68bbb     H9 1705   5.880  10.244   0.265 -2.0560 -0.2621 -1.4212
   68bbb    H10 1706   5.834  10.126   0.386  0.2610  0.0926 -0.1219
   68bbb     C6 1707   6.191  10.381   0.362  0.5965 -0.2945  0.2064
   68bbb    H11 1708   6.105  10.390   0.295  1.5892  2.4900 -0.8389
   68bbb    H12 1709   6.249  10.475   0.366  0.5059 -0.1894 -0.7766
   68bbb     C7 1710   5.689  10.278   0.361 -0.2499 -0.1908 -0.6951
   68bbb     C8 1711   6.283  10.278   0.307  0.2411  0.1380 -0.4813
   68bbb     O1 1712   5.654  10.374   0.298  0.8538 -0.3448  0.3190
   68bbb     O2 1713   6.387  10.305   0.258 -0.3973 -0.1627  0.0906
   68bbb     N4 1714   6.134   9.983   0.753 -0.1819  0.6098 -0.6431
   68bbb    H21 1715   6.124  10.031   0.842  1.5519  0.8456 -0.5460
   69bbb     C1 1716   5.398   9.920   1.447 -0.4889 -0.1989 -0.6061
   69bbb     H1 1717   5.327   9.930   1.364  0.1888  1.6008 -1.0134
   69bbb     H2 1718   5.363   9.985   1.529 -0.3995  0.8817 -1.3966
   69bbb     C2 1719   5.518   9.980   1.377 -0.9117  0.6613  0.1878
   69bbb     H3 1720   5.490  10.060   1.308 -1.0416 -1.4125 -2.3069
   69bbb     H4 1721   5.584  10.036   1.444 -1.0685  3.0576 -1.5643
   69bbb     N1 1722   5.418   9.783   1.497  0.0344 -0.0284  0.3803
   69bbb     C3 1723   5.290   9.717   1.534 -0.1164  0.2459 -0.1688
   69bbb     H5 1724   5.212   9.791   1.558 -0.9229  0.2719 -2.5734
   69bbb     H6 1725   5.290   9.643   1.615  0.8203 -0.4409 -0.7780
   69bbb     C4 1726   5.516   9.773   1.605  0.1104  0.5972 -0.0103
   69bbb     H7 1727   5.606   9.831   1.580  1.4708 -0.7259  1.5753
   69bbb     H8 1728   5.477   9.808   1.702 -0.8847 -0.7249  0.0940
   69bbb     C5 1729   5.568   9.632   1.613  0.3260  0.1042  0.2430
   69bbb     H9 1730   5.494   9.561   1.651  1.1816 -0.7781  0.2735
   69bbb    H10 1731   5.609   9.598   1.517  0.2011 -0.6832  0.4633
   69bbb     C6 1732   5.240   9.642   1.412  0.3430 -0.2277 -0.2461
   69bbb    H11 1733   5.242   9.712   1.328  0.5801 -2.1233 -1.8627
   69bbb    H12 1734   5.306   9.557   1.394 -0.1360 -1.6272  3.5451
   69bbb     C7 1735   5.685   9.623   1.702  0.1633 -0.3005 -0.6169
   69bbb     C8 1736   5.103   9.591   1.432 -0.1476 -0.9285 -0.3858
   69bbb     O1 1737   5.798   9.632   1.659 -0.0247 -0.4645 -0.0950
   69bbb     O2 1738   5.019   9.649   1.502  0.4883  0.5126  0.3108
   69bbb     N4 1739   5.616   9.890   1.306  0.1352 -0.1164 -0.2894
   69bbb    H21 1740   5.606   9.790   1.316  0.3907 -0.0782  0.4158
   70bbb     C1 1741   9.876  11.682   1.187 -0.2779 -0.0506 -1.1721
   70bbb     H1 1742   9.820  11.743   1.259 -1.9854 -2.4070 -0.3866
   70bbb     H2 1743   9.824  11.683   1.091  0.1973  0.6323 -1.4340
   70bbb     C2 1744   9.884  11.535   1.243  0.0587  0.6829 -0.4655
   70bbb     H3 1745   9.974  11.483   1.208 -0.0631  0.3331 -0.2565
   70bbb     H4 1746   9.887  11.537   1.353  0.1487 -2.7032 -0.2991
   70bbb     N1 1747  10.002  11.749   1.171  0.0324 -0.1883  0.0403
   70bbb     C3 1748  10.074  11.771   1.295  0.2966 -0.2946 -0.0443
   70bbb     H5 1749  10.020  11.710   1.367  1.7584 -1.1696  0.3571
   70bbb     H6 1750  10.068  11.876   1.325  1.0446 -0.8507  2.2416
   70bbb     C4 1751   9.976  11.878   1.100  0.1251 -0.6506 -1.1488
   70bbb     H7 1752   9.883  11.919   1.141  1.5070  1.4255  0.0748
   70bbb     H8 1753  10.058  11.949   1.116  0.0534 -0.9449  0.7991
   70bbb     C5 1754   9.978  11.859   0.951  0.4387  0.2818 -0.0058
   70bbb     H9 1755  10.084  11.843   0.928  0.9280  1.2073  1.4608
   70bbb    H10 1756   9.924  11.769   0.918 -1.2944  0.7427  1.4198
   70bbb     C6 1757  10.214  11.732   1.275  0.0040  0.0765 -0.2043
   70bbb    H11 1758  10.218  11.624   1.259 -0.7758 -0.4398  2.5457
   70bbb    H12 1759  10.272  11.785   1.199  0.1739  0.1717 -0.0097
   70bbb     C7 1760   9.926  11.973   0.883 -0.3680 -0.8414 -0.0354
   70bbb     C8 1761  10.287  11.737   1.414 -0.1924  0.2034  0.2106
   70bbb     O1 1762   9.972  12.087   0.905 -0.1469 -0.6054  0.7556
   70bbb     O2 1763  10.292  11.838   1.479 -0.3165  0.5621 -0.0719
   70bbb     N4 1764   9.766  11.454   1.207 -0.1446 -0.3225 -0.8046
   70bbb    H21 1765   9.675  11.471   1.246  0.1725  0.1895 -0.2640
   71bbb     C1 1766   9.321  11.462   0.539  0.1430  0.2051 -0.1733
   71bbb     H1 1767   9.359  11.496   0.441  2.4252 -1.5524  0.0100
   71bbb     H2 1768   9.408  11.405   0.574  0.8719  1.6798  0.4782
   71bbb     C2 1769   9.202  11.363   0.533  0.3844  0.2580  0.7602
   71bbb     H3 1770   9.111  11.422   0.518 -0.2249 -0.1395  2.5770
   71bbb     H4 1771   9.224  11.297   0.448 -1.0218  0.3606  0.2924
   71bbb     N1 1772   9.295  11.572   0.632 -0.0441  0.0469 -0.0931
   71bbb     C3 1773   9.214  11.677   0.557 -0.7463  0.4403  0.2876
   71bbb     H5 1774   9.135  11.634   0.494 -1.0696 -1.1913  1.7448
   71bbb     H6 1775   9.290  11.735   0.504  0.5119  1.3530  2.9556
   71bbb     C4 1776   9.419  11.636   0.674  0.1914  0.0391  0.3296
   71bbb     H7 1777   9.484  11.641   0.586  0.1576 -4.8868 -0.2243
   71bbb     H8 1778   9.408  11.733   0.725  0.9806 -0.5523  1.6951
   71bbb     C5 1779   9.492  11.555   0.775 -0.1645 -0.4159 -0.5608
   71bbb     H9 1780   9.422  11.494   0.834 -0.7084  0.8629  0.1548
   71bbb    H10 1781   9.571  11.496   0.726  1.3978  1.0202  0.1049
   71bbb     C6 1782   9.143  11.762   0.647  0.1212 -0.3365  0.3632
   71bbb    H11 1783   9.079  11.703   0.714 -0.7760  0.7883  0.5367
   71bbb    H12 1784   9.203  11.825   0.713 -0.9840  0.5260  0.5762
   71bbb     C7 1785   9.562  11.656   0.867 -0.1242 -0.6599  0.0016
   71bbb     C8 1786   9.057  11.862   0.571  0.2138 -1.1794 -0.2547
   71bbb     O1 1787   9.675  11.702   0.845  0.4095  0.2861 -0.4489
   71bbb     O2 1788   9.022  11.845   0.457  0.0027 -0.4649 -0.1208
   71bbb     N4 1789   9.193  11.272   0.644  0.1467 -0.5521 -0.0619
   71bbb    H21 1790   9.143  11.308   0.724 -0.2083 -1.5241  0.1590
   72bbb     C1 1791   8.863  10.106   2.618 -0.1903 -0.1650 -0.0096
   72bbb     H1 1792   8.969  10.081   2.610 -0.2901 -0.3305 -0.9652
   72bbb     H2 1793   8.807  10.013   2.635 -0.9868  0.8075  3.5126
   72bbb     C2 1794   8.829  10.165   2.481 -0.5031 -0.0012 -0.3744
   72bbb     H3 1795   8.721  10.180   2.468 -0.9039 -1.0888  1.3996
   72bbb     H4 1796   8.883  10.259   2.467  2.2529 -1.5674 -1.2553
   72bbb     N1 1797   8.842  10.207   2.725  0.0025 -0.6338 -0.2470
   72bbb     C3 1798   8.703  10.214   2.770  0.3459  0.1641  0.0490
   72bbb     H5 1799   8.681  10.139   2.847  1.4537  0.8805  1.0995
   72bbb     H6 1800   8.636  10.194   2.686 -1.9130  2.9109  1.0455
   72bbb     C4 1801   8.937  10.193   2.837  1.1924 -0.2222 -0.2268
   72bbb     H7 1802   8.923  10.274   2.910  0.7832  0.5904 -1.1789
   72bbb     H8 1803   8.922  10.092   2.877 -1.2976  0.7786  1.6460
   72bbb     C5 1804   9.079  10.204   2.787 -0.3346 -0.0527  0.0321
   72bbb     H9 1805   9.131  10.112   2.759  0.3763 -0.2692  1.9236
   72bbb    H10 1806   9.093  10.276   2.705  0.9166 -1.5114 -1.0784
   72bbb     C6 1807   8.666  10.352   2.830 -0.0143 -0.0479  0.0451
   72bbb    H11 1808   8.740  10.390   2.901  1.5517 -0.9011 -1.0545
   72bbb    H12 1809   8.677  10.430   2.754  1.6260  0.1488  0.4547
   72bbb     C7 1810   9.164  10.261   2.907  0.1508  0.4155 -0.4893
   72bbb     C8 1811   8.530  10.365   2.889  0.5573  0.7093  0.4552
   72bbb     O1 1812   9.238  10.196   2.976  0.0975  0.4099 -0.4508
   72bbb     O2 1813   8.468  10.260   2.910  0.4582  0.0521 -0.4936
   72bbb     N4 1814   8.888  10.093   2.367  0.3476  0.0246  0.0478
   72bbb    H21 1815   8.977  10.044   2.375  1.1161  1.0263 -1.6754
   73bbb     C1 1816   9.085   9.387   2.015 -0.4504 -0.0626 -0.0197
   73bbb     H1 1817   9.141   9.464   2.070  1.7606  1.5534 -4.0267
   73bbb     H2 1818   9.134   9.290   2.033  1.2408  1.1525  2.4889
   73bbb     C2 1819   9.105   9.418   1.863 -0.1069 -0.5353 -0.0118
   73bbb     H3 1820   9.208   9.402   1.829  0.7342  2.0134  1.0687
   73bbb     H4 1821   9.037   9.361   1.799 -1.4913  0.8528  0.1528
   73bbb     N1 1822   8.945   9.380   2.050 -0.2556  0.0323 -1.0914
   73bbb     C3 1823   8.910   9.494   2.139 -0.7382  0.6163 -0.0188
   73bbb     H5 1824   8.976   9.574   2.106  0.4349  0.1862  1.1904
   73bbb     H6 1825   8.934   9.460   2.241 -0.2110 -1.4257 -0.7653
   73bbb     C4 1826   8.909   9.254   2.110  0.2321  0.0459 -0.2488
   73bbb     H7 1827   8.972   9.230   2.196  1.5358 -0.5603 -1.3434
   73bbb     H8 1828   8.805   9.246   2.143 -0.1730 -1.0665 -1.6775
   73bbb     C5 1829   8.920   9.143   2.010  0.5488 -0.0023 -0.1268
   73bbb     H9 1830   8.856   9.163   1.923 -0.6774 -0.1581  0.7097
   73bbb    H10 1831   9.022   9.137   1.969  0.3861  0.5374 -0.6332
   73bbb     C6 1832   8.760   9.516   2.129 -0.0768  0.6457  0.1107
   73bbb    H11 1833   8.742   9.519   2.021  1.4805 -2.0447 -0.3109
   73bbb    H12 1834   8.709   9.429   2.172 -0.7474  1.2906  0.6584
   73bbb     C7 1835   8.886   9.014   2.076  0.4727  0.4971 -0.5095
   73bbb     C8 1836   8.718   9.643   2.199 -0.4892  0.3896 -0.9665
   73bbb     O1 1837   8.908   8.985   2.195 -0.6295  0.0141  0.4060
   73bbb     O2 1838   8.758   9.666   2.314  0.2904  0.0485  0.0345
   73bbb     N4 1839   9.086   9.564   1.827 -0.0924  1.0468  0.1284
   73bbb    H21 1840   9.157   9.629   1.857 -0.1538  2.1199 -1.9222
   74bbb     C1 1841   6.501  11.381   1.194 -0.0830  0.3012 -0.1696
   74bbb     H1 1842   6.538  11.308   1.120  0.7949  0.1821  0.3704
   74bbb     H2 1843   6.548  11.475   1.163  0.8570  0.8448  2.6266
   74bbb     C2 1844   6.550  11.344   1.331  0.1633 -0.0033 -0.6773
   74bbb     H3 1845   6.569  11.437   1.386 -1.8895 -0.3727  0.7310
   74bbb     H4 1846   6.470  11.285   1.377  1.1126 -1.3251 -0.6708
   74bbb     N1 1847   6.355  11.404   1.184 -0.0008  0.4517  0.2436
   74bbb     C3 1848   6.327  11.534   1.250  0.0878  0.4243 -0.4188
   74bbb     H5 1849   6.329  11.624   1.189 -0.9944 -0.9029 -2.5202
   74bbb     H6 1850   6.397  11.550   1.333 -1.9363 -0.0665  1.4865
   74bbb     C4 1851   6.288  11.382   1.056 -0.4184 -0.2723 -0.0256
   74bbb     H7 1852   6.182  11.400   1.076 -0.6047 -1.0140 -0.3303
   74bbb     H8 1853   6.322  11.447   0.975 -1.8666 -1.2501 -1.4613
   74bbb     C5 1854   6.297  11.240   1.012 -0.1579 -0.1261  0.2559
   74bbb     H9 1855   6.287  11.245   0.903  0.3074 -1.1068  0.1547
   74bbb    H10 1856   6.398  11.198   1.025 -0.0304 -0.0041 -0.3153
   74bbb     C6 1857   6.184  11.525   1.303  0.2377 -0.3595 -0.6150
   74bbb    H11 1858   6.111  11.567   1.233 -0.5036  1.5524  1.2011
   74bbb    H12 1859   6.147  11.423   1.318 -3.0776  0.6956 -0.8325
   74bbb     C7 1860   6.197  11.147   1.064 -0.6709  0.0819 -0.4572
   74bbb     C8 1861   6.166  11.609   1.427 -0.2627  0.0875 -0.6467
   74bbb     O1 1862   6.225  11.059   1.146  0.0739  0.0029  0.2846
   74bbb     O2 1863   6.111  11.715   1.439 -0.1573  0.2178  0.1614
   74bbb     N4 1864   6.678  11.258   1.338  0.3655 -0.3405  0.3613
   74bbb    H21 1865   6.675  11.158   1.324  0.2430 -0.3144  0.2032
   75bbb     C1 1866   6.790  10.637   1.719 -0.0062  0.0453  0.6933
   75bbb     H1 1867   6.733  10.725   1.751 -0.1373 -0.1613  1.0219
   75bbb     H2 1868   6.895  10.648   1.751  0.9501 -2.0574 -1.4220
   75bbb     C2 1869   6.793  10.622   1.567 -0.1998  0.0398  0.4879
   75bbb     H3 1870   6.828  10.520   1.547  2.9776  1.0536  0.3153
   75bbb     H4 1871   6.689  10.637   1.536  0.8066  1.9712 -2.3447
   75bbb     N1 1872   6.738  10.517   1.789 -0.1827 -0.2615  0.3742
   75bbb     C3 1873   6.599  10.478   1.749 -0.1218  0.1640 -0.6397
   75bbb     H5 1874   6.572  10.392   1.812  1.5231 -0.2117 -0.3980
   75bbb     H6 1875   6.597  10.462   1.640 -1.3903  0.2184 -0.6365
   75bbb     C4 1876   6.752  10.512   1.930 -0.7294 -0.0585 -0.2342
   75bbb     H7 1877   6.707  10.605   1.967 -0.1682  0.8469 -1.7482
   75bbb     H8 1878   6.706  10.422   1.973 -0.3596  0.1412  0.5992
   75bbb     C5 1879   6.895  10.523   1.983  0.1506 -0.0405  0.1749
   75bbb     H9 1880   6.959  10.445   1.940  0.1627 -0.5805  1.1466
   75bbb    H10 1881   6.929  10.622   1.952 -0.7153 -0.1179 -1.0707
   75bbb     C6 1882   6.492  10.580   1.778 -0.0166  0.1312  0.4583
   75bbb    H11 1883   6.495  10.595   1.886 -1.3919  1.7528  0.3131
   75bbb    H12 1884   6.506  10.675   1.725 -3.3177  0.6247  0.2823
   75bbb     C7 1885   6.904  10.511   2.137  0.1265  0.2581 -0.0736
   75bbb     C8 1886   6.352  10.532   1.750 -0.1521  0.9510  0.6087
   75bbb     O1 1887   6.812  10.516   2.220 -0.1797  0.0850 -0.1027
   75bbb     O2 1888   6.326  10.413   1.731  0.7100  0.4028 -0.2896
   75bbb     N4 1889   6.876  10.724   1.500  0.7487 -1.0011 -0.1505
   75bbb    H21 1890   6.903  10.803   1.559  1.9438 -0.9791 -0.6845
   76bbb     C1 1891   8.100  11.357  -0.163  0.2031  0.7705 -0.1737
   76bbb     H1 1892   8.046  11.440  -0.210  2.5212  1.5587 -1.5690
   76bbb     H2 1893   8.126  11.286  -0.243 -1.3094 -0.4194  0.3327
   76bbb     C2 1894   8.012  11.269  -0.075 -0.0188  0.0610 -0.0722
   76bbb     H3 1895   7.936  11.224  -0.140  0.2507 -0.0415 -0.3168
   76bbb     H4 1896   8.072  11.190  -0.029 -0.7852  0.7581  2.2823
   76bbb     N1 1897   8.225  11.402  -0.105  0.8238  0.2057 -0.3318
   76bbb     C3 1898   8.197  11.537  -0.049  0.4047 -0.3971 -0.1894
   76bbb     H5 1899   8.088  11.544  -0.042  0.3621  2.2223 -1.9821
   76bbb     H6 1900   8.209  11.611  -0.129  0.3736  0.2309  0.3760
   76bbb     C4 1901   8.321  11.421  -0.204 -0.5549  0.4594 -0.1043
   76bbb     H7 1902   8.279  11.450  -0.301  0.4105  0.3249 -0.5761
   76bbb     H8 1903   8.392  11.498  -0.171  0.3422  0.3210 -1.5945
   76bbb     C5 1904   8.388  11.289  -0.230 -0.6381  0.1846  0.5951
   76bbb     H9 1905   8.434  11.249  -0.138  0.7454  0.2221 -0.0573
   76bbb    H10 1906   8.318  11.215  -0.270  0.1837 -1.0170  1.3145
   76bbb     C6 1907   8.265  11.577   0.077  0.1944 -0.0021  0.1203
   76bbb    H11 1908   8.235  11.522   0.168 -1.8140  0.9789  0.1139
   76bbb    H12 1909   8.370  11.555   0.057 -0.1275 -1.9574  0.2870
   76bbb     C7 1910   8.497  11.308  -0.320  0.2106 -0.3413  0.0272
   76bbb     C8 1911   8.236  11.723   0.109 -0.1948  0.4765  0.5677
   76bbb     O1 1912   8.482  11.299  -0.442  0.4696 -0.2233 -0.1713
   76bbb     O2 1913   8.121  11.763   0.099 -0.1576  0.1976  0.5663
   76bbb     N4 1914   7.941  11.329   0.042 -0.2776 -0.2567  0.5153
   76bbb    H21 1915   7.980  11.335   0.135  0.0477  1.9696  0.2915
   77bbb     C1 1916   7.084  11.769   0.310  0.3502  0.4762 -0.1553
   77bbb     H1 1917   7.111  11.724   0.213  0.1982  2.0078 -0.9449
   77bbb     H2 1918   6.992  11.828   0.297 -0.9241 -0.8162  2.3711
   77bbb     C2 1919   7.207  11.853   0.346 -1.1484 -0.1111 -0.6468
   77bbb     H3 1920   7.207  11.938   0.277 -0.0718 -0.5410 -1.1880
   77bbb     H4 1921   7.188  11.902   0.443 -3.2026  0.0426 -1.0765
   77bbb     N1 1922   7.054  11.659   0.400 -0.1482  0.0406 -1.0376
   77bbb     C3 1923   6.961  11.562   0.343 -0.1770  0.7977  0.0470
   77bbb     H5 1924   6.987  11.547   0.237  0.7819 -1.2138  0.4963
   77bbb     H6 1925   6.856  11.593   0.350 -0.0584  1.1711  0.1997
   77bbb     C4 1926   7.037  11.693   0.544 -0.2309 -0.5530  0.1697
   77bbb     H7 1927   7.055  11.610   0.613  0.4747  0.0891  0.7796
   77bbb     H8 1928   7.119  11.760   0.570 -0.2252 -1.4053  2.5456
   77bbb     C5 1929   6.906  11.765   0.568 -0.0776  0.2857 -0.1668
   77bbb     H9 1930   6.879  11.843   0.496 -2.2032  0.2879  0.5538
   77bbb    H10 1931   6.815  11.704   0.571 -0.3420  0.5251 -2.0169
   77bbb     C6 1932   6.991  11.433   0.418 -0.1663  0.3398 -0.2736
   77bbb    H11 1933   7.098  11.424   0.440 -0.5149 -1.1725  1.0069
   77bbb    H12 1934   6.936  11.435   0.513 -1.1636 -1.0880 -0.7895
   77bbb     C7 1935   6.900  11.828   0.707 -0.2885  0.2363 -0.1071
   77bbb     C8 1936   6.948  11.315   0.341  0.4015  0.2925 -0.2110
   77bbb     O1 1937   6.854  11.767   0.801  0.7609  0.4374  0.5356
   77bbb     O2 1938   6.837  11.262   0.355 -0.4707  0.0642 -0.2513
   77bbb     N4 1939   7.327  11.776   0.351 -0.0855  0.2755  0.2215
   77bbb    H21 1940   7.321  11.678   0.376  2.0670  0.2131  0.7132
   78bbb     C1 1941   9.629   7.701  -0.201  0.0602 -0.0527 -0.2115
   78bbb     H1 1942   9.712   7.764  -0.166  1.4560 -1.6953 -0.4700
   78bbb     H2 1943   9.677   7.606  -0.226 -1.2062 -0.8838  0.3918
   78bbb     C2 1944   9.569   7.748  -0.332 -0.1108 -0.2286  0.1185
   78bbb     H3 1945   9.641   7.739  -0.415  2.3373  1.7161  1.8830
   78bbb     H4 1946   9.481   7.690  -0.361 -1.3449  1.5662  0.1031
   78bbb     N1 1947   9.534   7.669  -0.084 -0.7251  0.6292 -0.0258
   78bbb     C3 1948   9.477   7.789  -0.025  0.0032  0.8664 -0.1677
   78bbb     H5 1949   9.378   7.813  -0.064  0.3671  0.4952 -1.3732
   78bbb     H6 1950   9.539   7.878  -0.040  1.0621  0.7097  2.6568
   78bbb     C4 1951   9.427   7.578  -0.117  0.3797 -0.0720  0.1649
   78bbb     H7 1952   9.347   7.586  -0.042 -0.7720  1.4261 -1.1527
   78bbb     H8 1953   9.369   7.605  -0.206 -1.0385 -2.6381  0.2198
   78bbb     C5 1954   9.480   7.439  -0.129  0.5154  0.0351  0.5097
   78bbb     H9 1955   9.576   7.431  -0.181 -0.5564 -0.3071 -1.5487
   78bbb    H10 1956   9.473   7.389  -0.032 -1.0379 -1.1213 -0.1510
   78bbb     C6 1957   9.468   7.766   0.121 -0.3728 -0.3980 -0.4284
   78bbb    H11 1958   9.428   7.666   0.143 -1.7587  0.9161  4.2074
   78bbb    H12 1959   9.572   7.758   0.155  0.3293 -0.9943 -2.5497
   78bbb     C7 1960   9.374   7.368  -0.210 -0.3397  0.8003 -0.4495
   78bbb     C8 1961   9.396   7.873   0.202 -0.7103 -0.3151 -0.3681
   78bbb     O1 1962   9.383   7.355  -0.332 -0.3159  0.0140 -0.0092
   78bbb     O2 1963   9.364   7.983   0.165 -0.0691 -0.1811 -0.5127
   78bbb     N4 1964   9.515   7.883  -0.327 -0.3628 -0.0851 -0.0394
   78bbb    H21 1965   9.573   7.962  -0.302 -0.2125 -0.1471 -0.1925
   79bbb     C1 1966   8.597   8.329  -0.495 -0.2584 -0.5175 -0.4449
   79bbb     H1 1967   8.687   8.286  -0.541  0.5858  1.5764 -0.8771
   79bbb     H2 1968   8.567   8.413  -0.558 -2.2802 -0.6589  0.2759
   79bbb     C2 1969   8.638   8.377  -0.355 -0.3809  1.0001  0.2973
   79bbb     H3 1970   8.584   8.470  -0.340  1.6490  2.0779  1.3615
   79bbb     H4 1971   8.618   8.302  -0.278  0.4177  0.9082  0.4321
   79bbb     N1 1972   8.486   8.230  -0.478 -0.5912 -0.5164 -0.8034
   79bbb     C3 1973   8.465   8.157  -0.595  0.8178 -0.0585 -0.0996
   79bbb     H5 1974   8.462   8.223  -0.682  0.4074 -0.5546 -0.4658
   79bbb     H6 1975   8.367   8.109  -0.601  0.6300  0.4780 -1.8095
   79bbb     C4 1976   8.363   8.304  -0.436 -0.6458  0.5354  0.5573
   79bbb     H7 1977   8.394   8.381  -0.363  1.0481 -2.0730  2.7943
   79bbb     H8 1978   8.319   8.352  -0.524 -0.3699 -0.4548 -0.1380
   79bbb     C5 1979   8.272   8.205  -0.359 -0.7060 -0.4152 -0.2200
   79bbb     H9 1980   8.226   8.138  -0.434  0.7526  0.3616 -1.8807
   79bbb    H10 1981   8.326   8.136  -0.294  0.0044  1.3489  1.1317
   79bbb     C6 1982   8.561   8.041  -0.602  0.3798  0.9778  0.2781
   79bbb    H11 1983   8.666   8.074  -0.607  0.9778 -0.9902 -2.0921
   79bbb    H12 1984   8.553   7.983  -0.510  3.5088  2.2388  1.4910
   79bbb     C7 1985   8.162   8.275  -0.294 -0.2988  0.3714 -0.2011
   79bbb     C8 1986   8.548   7.954  -0.733  0.2054  0.4745 -0.4978
   79bbb     O1 1987   8.140   8.270  -0.176 -0.0200  0.0672 -0.1608
   79bbb     O2 1988   8.450   7.951  -0.801  0.3857  0.1199 -0.1031
   79bbb     N4 1989   8.790   8.404  -0.353 -0.2426  0.5786 -0.0356
   79bbb    H21 1990   8.843   8.396  -0.439 -0.8975 -0.2799 -0.3692
   80bbb     C1 1991  10.121   9.078   1.238 -0.6659  0.1838  0.6311
   80bbb     H1 1992  10.017   9.079   1.202 -1.3605  0.2698  2.5455
   80bbb     H2 1993  10.163   9.178   1.231  1.0394 -0.4027  1.8849
   80bbb     C2 1994  10.196   8.985   1.141 -0.3240  0.7413 -0.3714
   80bbb     H3 1995  10.305   8.995   1.153  0.1662 -4.1960  1.9915
   80bbb     H4 1996  10.172   8.880   1.162  0.8252  0.2512 -1.3547
   80bbb     N1 1997  10.138   9.042   1.380  0.6288  0.1759 -0.5531
   80bbb     C3 1998  10.004   9.010   1.441 -0.9046 -0.2693 -0.1568
   80bbb     H5 1999   9.946   9.101   1.422  2.6273  2.0579 -0.8204
   80bbb     H6 2000  10.015   9.001   1.550 -0.1340  1.9789  0.0072
   80bbb     C4 2001  10.215   9.138   1.453  0.0451  0.2211  0.3084
   80bbb     H7 2002  10.186   9.242   1.433 -1.0801 -0.3165 -1.0697
   80bbb     H8 2003  10.203   9.129   1.561 -1.0436 -0.8829  0.1190
   80bbb     C5 2004  10.359   9.116   1.404 -0.0032  0.3103 -0.5113
   80bbb     H9 2005  10.378   9.009   1.422  2.0688  0.9260  1.2824
   80bbb    H10 2006  10.375   9.147   1.300 -1.6621 -0.7806 -1.1507
   80bbb     C6 2007   9.940   8.878   1.384 -0.9411 -0.9151  0.5603
   80bbb    H11 2008   9.931   8.892   1.275 -0.6371 -0.5256  0.5833
   80bbb    H12 2009   9.994   8.784   1.400  1.0265 -0.2311 -1.4155
   80bbb     C7 2010  10.448   9.185   1.502  0.5879 -0.4088 -0.1626
   80bbb     C8 2011   9.795   8.876   1.426 -0.1149 -0.3222  0.4064
   80bbb     O1 2012  10.480   9.306   1.491  0.4926  0.0560  0.6997
   80bbb     O2 2013   9.702   8.936   1.377 -0.2597 -0.2100 -0.4943
   80bbb     N4 2014  10.155   9.000   1.005  0.0619  0.3957  0.4563
   80bbb    H21 2015  10.071   9.053   0.983 -0.7191 -1.1442 -0.4255
   81bbb     C1 2016  10.634   8.834   0.121  0.4752  0.3518 -0.5721
   81bbb     H1 2017  10.665   8.825   0.017 -0.8201  1.0187 -1.0327
   81bbb     H2 2018  10.552   8.762   0.133  0.7632  0.0608 -0.2889
   81bbb     C2 2019  10.579   8.971   0.152  0.2098 -0.2999  0.0496
   81bbb     H3 2020  10.667   9.034   0.171  1.5446 -2.0458 -0.1431
   81bbb     H4 2021  10.525   9.005   0.063  0.5864 -1.1717 -0.5173
   81bbb     N1 2022  10.735   8.798   0.226 -0.1366 -0.4812 -0.5070
   81bbb     C3 2023  10.867   8.844   0.178  0.3480 -0.5052 -0.2318
   81bbb     H5 2024  10.865   8.952   0.154  1.6152 -0.9270 -2.5323
   81bbb     H6 2025  10.887   8.791   0.084 -0.9295 -0.0748 -0.7753
   81bbb     C4 2026  10.723   8.660   0.268  0.1319  0.3264  0.0791
   81bbb     H7 2027  10.707   8.600   0.177  0.4355 -0.7119  0.6838
   81bbb     H8 2028  10.811   8.626   0.324  1.3687  1.3760 -1.1432
   81bbb     C5 2029  10.603   8.636   0.363  0.5101  0.6326 -0.0767
   81bbb     H9 2030  10.617   8.708   0.445  0.7979  0.2115  0.2454
   81bbb    H10 2031  10.503   8.651   0.320 -0.2951  0.6557  1.7304
   81bbb     C6 2032  10.978   8.833   0.278 -0.8012 -0.2544 -0.0727
   81bbb    H11 2033  11.004   8.733   0.316  1.9577 -0.2459 -1.6691
   81bbb    H12 2034  11.072   8.860   0.229 -0.8610  0.1567  0.0307
   81bbb     C7 2035  10.601   8.502   0.426 -0.3021  0.0151 -0.2632
   81bbb     C8 2036  10.965   8.934   0.387 -0.5001  0.7734  0.3455
   81bbb     O1 2037  10.679   8.413   0.394  0.0039 -0.3041  0.3366
   81bbb     O2 2038  10.912   9.042   0.364  0.8996  0.3167  0.7633
   81bbb     N4 2039  10.488   8.962   0.272  0.1162 -0.6891 -0.9139
   81bbb    H21 2040  10.523   8.977   0.366 -1.4178  0.1026 -0.4314
   82bbb     C1 2041   7.176   8.972   1.092 -0.2288 -0.9856  0.9599
   82bbb     H1 2042   7.242   8.938   1.172  2.5477 -0.5798 -1.0294
   82bbb     H2 2043   7.118   8.879   1.080 -0.5259 -0.5956 -0.8535
   82bbb     C2 2044   7.258   9.000   0.969  0.0899  0.0912  1.1272
   82bbb     H3 2045   7.191   9.023   0.885  0.6949  1.2329  0.9379
   82bbb     H4 2046   7.326   9.085   0.978 -0.1102  0.5727 -1.2106
   82bbb     N1 2047   7.097   9.092   1.123 -0.5015  0.1177 -0.1846
   82bbb     C3 2048   7.036   9.068   1.250 -0.3482 -0.3315 -0.5072
   82bbb     H5 2049   7.111   9.029   1.320  0.8526  2.8026  0.0925
   82bbb     H6 2050   6.954   8.995   1.243 -1.1847  0.4979  0.3709
   82bbb     C4 2051   7.007   9.145   1.018 -0.1221  0.1141  0.5469
   82bbb     H7 2052   6.945   9.230   1.046 -3.0372 -1.2662 -1.3109
   82bbb     H8 2053   7.060   9.179   0.928 -0.3841  1.1187  0.7651
   82bbb     C5 2054   6.904   9.041   0.974  0.3832  0.1337 -0.7002
   82bbb     H9 2055   6.950   8.948   0.939 -0.7559 -0.0689 -1.7058
   82bbb    H10 2056   6.838   9.012   1.056 -0.1017  1.6138 -0.5372
   82bbb     C6 2057   6.983   9.203   1.308 -0.5116 -0.2374 -0.0255
   82bbb    H11 2058   7.058   9.283   1.301 -0.1852 -0.3604  1.7376
   82bbb    H12 2059   6.895   9.232   1.250  0.7345  0.4708 -1.6617
   82bbb     C7 2060   6.829   9.108   0.854  0.6601 -0.1193  0.2443
   82bbb     C8 2061   6.954   9.187   1.451  0.2932  0.0681 -0.1248
   82bbb     O1 2062   6.855   9.082   0.739  0.2304 -0.2994 -0.2393
   82bbb     O2 2063   6.901   9.083   1.492  0.2771 -0.2424 -0.0508
   82bbb     N4 2064   7.329   8.883   0.914  0.0130 -0.3797 -0.0087
   82bbb    H21 2065   7.301   8.789   0.940 -0.9136 -0.6942 -1.9491
   83bbb     C1 2066   7.698   8.247   0.181 -0.4781  0.1088  0.0647
   83bbb     H1 2067   7.691   8.190   0.088  1.9796 -0.4617  0.1517
   83bbb     H2 2068   7.802   8.254   0.216  0.4033 -1.6499 -1.9475
   83bbb     C2 2069   7.617   8.180   0.296 -0.4271 -0.1223 -0.2831
   83bbb     H3 2070   7.518   8.146   0.263 -0.5777 -0.3273  0.3707
   83bbb     H4 2071   7.662   8.083   0.318  0.3325  0.4079  0.5361
   83bbb     N1 2072   7.654   8.386   0.162 -0.3794 -0.2215  0.5178
   83bbb     C3 2073   7.519   8.391   0.097  0.4281 -0.0745 -0.1307
   83bbb     H5 2074   7.469   8.297   0.119  2.8930 -1.4529 -0.0110
   83bbb     H6 2075   7.534   8.404  -0.011  0.7028 -1.3696 -0.2609
   83bbb     C4 2076   7.752   8.450   0.068 -0.2594  0.3974  0.1875
   83bbb     H7 2077   7.850   8.441   0.116 -0.6907 -0.3502  0.9444
   83bbb     H8 2078   7.754   8.404  -0.032 -3.4664  1.3296 -0.4326
   83bbb     C5 2079   7.729   8.597   0.051 -0.2101 -0.2349 -0.6882
   83bbb     H9 2080   7.639   8.623  -0.007 -0.3393  1.8030  0.3320
   83bbb    H10 2081   7.716   8.646   0.148  0.9741 -0.5468 -0.3673
   83bbb     C6 2082   7.429   8.513   0.148 -0.0153  0.6024  0.9284
   83bbb    H11 2083   7.388   8.482   0.245  0.7621  1.2396  1.4813
   83bbb    H12 2084   7.491   8.603   0.151 -1.3724  1.5437  1.9806
   83bbb     C7 2085   7.843   8.660  -0.022 -0.7479 -0.1923  0.4588
   83bbb     C8 2086   7.307   8.529   0.067 -0.6083 -0.0008  0.1376
   83bbb     O1 2087   7.950   8.608  -0.030  0.1831  0.5566 -0.2903
   83bbb     O2 2088   7.249   8.426   0.033  0.2825  0.1506  0.0089
   83bbb     N4 2089   7.598   8.255   0.423 -0.2603 -0.0210  0.1954
   83bbb    H21 2090   7.681   8.293   0.466  1.4409 -1.3733 -1.7014
   84bbb     C1 2091   9.073   7.716  -0.101 -0.7887 -0.5856 -0.7377
   84bbb     H1 2092   9.148   7.791  -0.071  0.8147 -2.4155  0.1184
   84bbb     H2 2093   9.145   7.636  -0.124 -2.5721 -2.7687  0.7802
   84bbb     C2 2094   8.985   7.753  -0.217 -0.5093 -0.3568 -0.2994
   84bbb     H3 2095   9.039   7.787  -0.306 -0.0478  0.9322  0.4456
   84bbb     H4 2096   8.926   7.665  -0.247 -1.8044  0.5299 -0.4406
   84bbb     N1 2097   8.995   7.667   0.013 -0.6772  0.0026 -0.4435
   84bbb     C3 2098   9.051   7.709   0.137  0.8122 -0.0601  0.4869
   84bbb     H5 2099   9.161   7.701   0.136  0.8912  0.6002 -1.9275
   84bbb     H6 2100   9.011   7.653   0.223  1.5823 -0.3501  0.6738
   84bbb     C4 2101   8.957   7.526   0.005 -0.3210  0.1431 -0.4016
   84bbb     H7 2102   8.947   7.494  -0.100 -1.9440 -0.4910 -0.0949
   84bbb     H8 2103   9.036   7.465   0.050 -0.7308  0.0221  0.1675
   84bbb     C5 2104   8.819   7.507   0.067 -0.9257 -0.2667 -0.2727
   84bbb     H9 2105   8.838   7.501   0.175  1.6246 -3.0494 -0.7383
   84bbb    H10 2106   8.746   7.586   0.044 -0.1141  0.3729 -0.7128
   84bbb     C6 2107   9.015   7.850   0.167  0.3166 -0.3358  0.0786
   84bbb    H11 2108   9.044   7.880   0.269  0.2987  1.2424 -0.3478
   84bbb    H12 2109   9.060   7.919   0.095  0.3044 -0.4838 -0.0698
   84bbb     C7 2110   8.767   7.374   0.033  0.3945  0.6265 -0.5994
   84bbb     C8 2111   8.865   7.866   0.154 -0.6088 -0.3928  0.1539
   84bbb     O1 2112   8.745   7.337  -0.080 -0.2119 -0.1526 -0.2142
   84bbb     O2 2113   8.822   7.947   0.073  0.3783 -0.6299 -0.3545
   84bbb     N4 2114   8.895   7.866  -0.183  0.0043 -0.1114 -0.0769
   84bbb    H21 2115   8.869   7.883  -0.087 -3.0097  1.7373 -1.0631
   85bbb     C1 2116   7.842   7.755  -0.305  0.1426 -0.0417  0.3614
   85bbb     H1 2117   7.756   7.823  -0.299 -0.7753 -0.9641 -1.6406
   85bbb     H2 2118   7.800   7.657  -0.330 -0.2703  0.1536  0.2867
   85bbb     C2 2119   7.900   7.764  -0.166 -0.4585  0.1878 -0.2671
   85bbb     H3 2120   7.832   7.808  -0.092  1.1744 -0.9189  2.0392
   85bbb     H4 2121   7.934   7.667  -0.127  3.3628  0.6899 -1.8984
   85bbb     N1 2122   7.941   7.809  -0.398 -0.5055 -0.2393 -0.1076
   85bbb     C3 2123   7.886   7.874  -0.518  0.5608  1.1498 -0.3390
   85bbb     H5 2124   7.788   7.829  -0.539  0.4862 -0.9008  3.5179
   85bbb     H6 2125   7.958   7.855  -0.599  0.9173  0.3187  0.1525
   85bbb     C4 2126   8.033   7.707  -0.436 -0.1471  0.6175 -0.3693
   85bbb     H7 2127   8.064   7.656  -0.344 -0.8935 -0.5708 -0.7574
   85bbb     H8 2128   8.005   7.624  -0.502  1.9982 -1.0501  0.6592
   85bbb     C5 2129   8.163   7.771  -0.472 -0.6626 -0.5523 -0.2723
   85bbb     H9 2130   8.158   7.809  -0.575  1.6080 -4.2942 -1.9910
   85bbb    H10 2131   8.200   7.847  -0.403 -2.6127 -0.7724  1.0896
   85bbb     C6 2132   7.873   8.020  -0.500  0.5216 -0.1447 -0.0507
   85bbb    H11 2133   7.797   8.043  -0.424  0.0925 -1.9748  0.1307
   85bbb    H12 2134   7.972   8.054  -0.466  0.5267 -0.6627  0.4633
   85bbb     C7 2135   8.283   7.679  -0.474  0.2656  0.0512 -0.0381
   85bbb     C8 2136   7.833   8.095  -0.628 -0.0335  0.5250 -0.3982
   85bbb     O1 2137   8.307   7.612  -0.373  0.6031 -0.1859  0.2132
   85bbb     O2 2138   7.915   8.131  -0.715 -0.0030  0.7326  0.2985
   85bbb     N4 2139   8.014   7.861  -0.144  0.1176  0.0724  0.0590
   85bbb    H21 2140   8.008   7.947  -0.197 -1.6241 -0.0491 -0.0072
   86bbb     C1 2141   8.368  10.630   1.702 -0.0937 -0.3104 -0.4350
   86bbb     H1 2142   8.342  10.721   1.757 -0.5466 -0.4245 -0.4569
   86bbb     H2 2143   8.292  10.555   1.724 -1.5795  1.2278 -0.0973
   86bbb     C2 2144   8.499  10.565   1.742  0.2938 -0.3682 -0.3610
   86bbb     H3 2145   8.582  10.636   1.727  1.1174 -0.8467  1.6811
   86bbb     H4 2146   8.490  10.542   1.848 -1.4179  1.0850 -0.1503
   86bbb     N1 2147   8.360  10.671   1.563  0.6081 -0.3685  0.4673
   86bbb     C3 2148   8.224  10.716   1.529  0.1183  0.0887 -0.5022
   86bbb     H5 2149   8.205  10.816   1.569  0.6565 -0.7490  2.0174
   86bbb     H6 2150   8.160  10.641   1.577 -0.4654  0.8008 -0.1491
   86bbb     C4 2151   8.466  10.749   1.510  0.5951 -0.3034  0.0190
   86bbb     H7 2152   8.562  10.699   1.526  0.7338 -1.0922 -2.7675
   86bbb     H8 2153   8.461  10.769   1.402  1.3285 -1.5962 -0.2763
   86bbb     C5 2154   8.475  10.889   1.582 -0.4318  0.6348  0.0941
   86bbb     H9 2155   8.380  10.942   1.590 -0.6073  0.0637  2.4510
   86bbb    H10 2156   8.517  10.870   1.682 -2.0199  0.2859  0.7205
   86bbb     C6 2157   8.193  10.715   1.384 -0.1419  0.0870 -0.0081
   86bbb    H11 2158   8.258  10.782   1.326  2.8758 -1.5523  1.2650
   86bbb    H12 2159   8.221  10.614   1.350  0.5437 -0.2254  1.4296
   86bbb     C7 2160   8.571  10.978   1.515 -0.2392  0.5306  0.0503
   86bbb     C8 2161   8.045  10.738   1.364 -1.0992 -0.3279 -0.3827
   86bbb     O1 2162   8.675  10.944   1.455 -0.8706  0.1042 -0.0138
   86bbb     O2 2163   8.005  10.845   1.319 -0.7519  0.0038  0.3922
   86bbb     N4 2164   8.534  10.448   1.650 -0.5177 -0.3648  0.0731
   86bbb    H21 2165   8.495  10.442   1.557  1.6769 -1.1387 -0.8553
   87bbb     C1 2166   8.569   9.352   1.867 -0.4584  0.7235  0.6428
   87bbb     H1 2167   8.668   9.360   1.912 -1.2048 -0.2560  2.5631
   87bbb     H2 2168   8.589   9.344   1.759  1.1759 -0.3151  0.9856
   87bbb     C2 2169   8.495   9.484   1.881  0.3602  0.7861 -0.0023
   87bbb     H3 2170   8.397   9.475   1.835  0.6624  0.8996 -0.6776
   87bbb     H4 2171   8.477   9.507   1.987  1.0374  1.5581 -0.0384
   87bbb     N1 2172   8.501   9.224   1.910  0.4824  0.1167  0.3514
   87bbb     C3 2173   8.509   9.213   2.052 -1.0727  0.0597 -0.2956
   87bbb     H5 2174   8.516   9.314   2.094 -1.5661  1.0830 -2.5179
   87bbb     H6 2175   8.589   9.141   2.071 -0.3640  0.9696  0.2962
   87bbb     C4 2176   8.558   9.105   1.840  0.6843 -0.6460 -0.0088
   87bbb     H7 2177   8.657   9.119   1.795  0.3964  1.3796 -0.1074
   87bbb     H8 2178   8.560   9.022   1.911 -2.1823  0.2860  1.3092
   87bbb     C5 2179   8.459   9.086   1.721  0.0039 -0.5280  0.6563
   87bbb     H9 2180   8.361   9.073   1.769 -0.0594 -2.1940  0.1605
   87bbb    H10 2181   8.461   9.177   1.661  0.5547  0.7726  2.5564
   87bbb     C6 2182   8.377   9.151   2.092  0.5523  0.4456  0.5274
   87bbb    H11 2183   8.291   9.218   2.079  0.8216  1.0001  1.5145
   87bbb    H12 2184   8.357   9.058   2.038  1.3032 -0.0917  1.1538
   87bbb     C7 2185   8.486   8.962   1.639 -0.2128  0.0368  0.3602
   87bbb     C8 2186   8.375   9.118   2.237 -0.1007  0.7845 -0.0846
   87bbb     O1 2187   8.437   8.857   1.664 -0.3493  0.1346  0.2473
   87bbb     O2 2188   8.450   9.036   2.283  0.0014  0.2811  0.7091
   87bbb     N4 2189   8.564   9.599   1.828 -0.2802  0.3623 -0.2533
   87bbb    H21 2190   8.638   9.581   1.762 -0.0462 -0.5440  0.2313
   88bbb     C1 2191  10.162   9.228   2.024 -0.5600 -0.0071 -0.1189
   88bbb     H1 2192  10.159   9.327   2.072 -1.8199 -0.8031  1.5404
   88bbb     H2 2193  10.132   9.246   1.920  0.5634  2.6621 -0.0795
   88bbb     C2 2194  10.068   9.143   2.109  0.6414  0.0905 -0.1432
   88bbb     H3 2195  10.063   9.044   2.062 -0.6112  0.1700 -0.1924
   88bbb     H4 2196  10.116   9.128   2.206  1.9109 -0.5386 -0.8387
   88bbb     N1 2197  10.304   9.173   2.027  0.7191 -0.2948  0.0416
   88bbb     C3 2198  10.397   9.266   1.962  0.3266  0.3864 -0.1863
   88bbb     H5 2199  10.375   9.266   1.855  2.1531  0.1884 -0.5956
   88bbb     H6 2200  10.496   9.221   1.977  0.3031  0.1601 -0.7266
   88bbb     C4 2201  10.311   9.041   1.971 -0.3792  0.6275 -0.6325
   88bbb     H7 2202  10.418   9.014   1.965 -0.6051 -0.3986 -0.2247
   88bbb     H8 2203  10.266   8.969   2.040  0.1777  1.1019  0.2360
   88bbb     C5 2204  10.257   9.019   1.837  0.2248  0.0800 -0.1345
   88bbb     H9 2205  10.147   9.026   1.842  0.2558 -0.3772  1.8988
   88bbb    H10 2206  10.299   9.090   1.765  1.1871  0.3556  0.6812
   88bbb     C6 2207  10.402   9.409   2.021 -0.1199 -0.3771 -0.0974
   88bbb    H11 2208  10.302   9.455   2.019 -0.2977 -0.6684  1.2578
   88bbb    H12 2209  10.435   9.401   2.125  1.2339  1.6772 -0.3070
   88bbb     C7 2210  10.300   8.887   1.797 -0.8346  1.4052  0.0620
   88bbb     C8 2211  10.499   9.486   1.941  0.0440  0.0236  0.5883
   88bbb     O1 2212  10.401   8.872   1.722 -0.2584  0.1992 -1.1719
   88bbb     O2 2213  10.615   9.464   1.948  0.7380 -0.7022 -0.8036
   88bbb     N4 2214   9.930   9.187   2.125  0.2340  0.0532 -0.0587
   88bbb    H21 2215   9.897   9.269   2.174 -1.9357  0.3453 -1.8166
   89bbb     C1 2216   9.436   9.186   2.663  0.4862  0.1643 -0.1553
   89bbb     H1 2217   9.386   9.117   2.595 -2.1481  1.0311  0.7801
   89bbb     H2 2218   9.393   9.179   2.763 -0.8774 -1.4426 -0.8115
   89bbb     C2 2219   9.424   9.328   2.601 -0.0486 -0.4697 -0.7070
   89bbb     H3 2220   9.326   9.355   2.642  0.6317  0.4743  0.3594
   89bbb     H4 2221   9.494   9.397   2.650 -2.5156  2.2932 -0.7969
   89bbb     N1 2222   9.584   9.168   2.679 -0.0829  0.4968 -0.1484
   89bbb     C3 2223   9.627   9.050   2.616 -0.6231 -0.0948  0.5131
   89bbb     H5 2224   9.571   8.966   2.660 -0.2049 -0.2719  0.7153
   89bbb     H6 2225   9.732   9.031   2.643 -0.5860 -0.2799  0.2453
   89bbb     C4 2226   9.625   9.152   2.818 -0.3548 -0.1285 -0.8065
   89bbb     H7 2227   9.590   9.058   2.861  1.1533 -0.8689 -1.1323
   89bbb     H8 2228   9.734   9.146   2.827 -0.5112 -0.9123  0.8667
   89bbb     C5 2229   9.596   9.284   2.895  0.0221  0.0853 -0.3042
   89bbb     H9 2230   9.640   9.373   2.848  1.2143 -1.2138 -1.7409
   89bbb    H10 2231   9.487   9.300   2.900  0.2848  1.8162  1.5032
   89bbb     C6 2232   9.628   9.071   2.464  0.1941  0.3956  0.0700
   89bbb    H11 2233   9.527   9.078   2.422 -0.3712  1.9286  1.5301
   89bbb    H12 2234   9.689   9.160   2.443 -0.3266  1.0722  1.2972
   89bbb     C7 2235   9.654   9.275   3.031  0.0415 -0.2352 -0.4869
   89bbb     C8 2236   9.688   8.956   2.391 -0.5894  0.0991 -0.9608
   89bbb     O1 2237   9.765   9.328   3.054 -0.0806 -0.8192  0.2975
   89bbb     O2 2238   9.620   8.884   2.319 -0.1234  0.2015 -0.0165
   89bbb     N4 2239   9.412   9.344   2.457 -0.0470  0.0093 -0.2281
   89bbb    H21 2240   9.350   9.280   2.410 -2.5460  0.0401  2.7022
   90bbb     C1 2241   9.908   8.681  -0.322  0.2505  0.2744 -0.1042
   90bbb     H1 2242  10.007   8.658  -0.283  0.1825  1.3832  0.7532
   90bbb     H2 2243   9.858   8.585  -0.338  0.2449  0.2609 -0.0044
   90bbb     C2 2244   9.929   8.758  -0.457  0.6205  0.2327  0.0691
   90bbb     H3 2245  10.005   8.706  -0.515  1.4306  0.7367  0.6485
   90bbb     H4 2246   9.838   8.763  -0.517  0.6967 -1.3250 -0.1955
   90bbb     N1 2247   9.825   8.758  -0.223  0.0586  0.1458  0.2673
   90bbb     C3 2248   9.822   8.694  -0.092  0.4699 -0.6965  0.2373
   90bbb     H5 2249   9.796   8.589  -0.110  2.3242 -0.6950 -3.5784
   90bbb     H6 2250   9.754   8.756  -0.033  0.1510  0.5414 -1.3671
   90bbb     C4 2251   9.682   8.767  -0.270 -0.1676 -0.4232 -0.3570
   90bbb     H7 2252   9.678   8.783  -0.379  0.8691 -2.6922 -0.7833
   90bbb     H8 2253   9.628   8.675  -0.249 -2.5664  0.7033 -1.2403
   90bbb     C5 2254   9.614   8.883  -0.201  0.3534 -0.5369  0.2428
   90bbb     H9 2255   9.601   8.864  -0.094  0.9443  1.7667  0.7769
   90bbb    H10 2256   9.674   8.974  -0.211 -1.1482  0.3955 -0.6139
   90bbb     C6 2257   9.954   8.704  -0.022 -0.3412  0.0922 -0.0388
   90bbb    H11 2258  10.035   8.647  -0.071  0.5005  0.0676  1.3500
   90bbb    H12 2259   9.988   8.808  -0.017 -1.4977  0.6328 -2.2373
   90bbb     C7 2260   9.480   8.914  -0.271  1.0005 -0.3282 -1.1378
   90bbb     C8 2261   9.935   8.653   0.117 -0.3318  0.5389 -0.1732
   90bbb     O1 2262   9.459   9.022  -0.334  0.6186 -0.5297  0.1241
   90bbb     O2 2263   9.928   8.724   0.211  0.4147 -0.3732 -0.5081
   90bbb     N4 2264   9.962   8.898  -0.439  0.8736  0.3071 -0.0044
   90bbb    H21 2265   9.880   8.949  -0.406 -0.6605  1.3266 -4.6298
   91bbb     C1 2266   9.435   9.246   0.100  0.3340 -0.6874 -0.8787
   91bbb     H1 2267   9.456   9.353   0.089  3.0912 -1.1711 -1.0884
   91bbb     H2 2268   9.491   9.199   0.182 -0.5699  0.5563  0.4928
   91bbb     C2 2269   9.484   9.185  -0.033  0.8889 -0.8060  0.0605
   91bbb     H3 2270   9.460   9.079  -0.048 -2.9394  0.0841 -1.5076
   91bbb     H4 2271   9.428   9.228  -0.117  1.1457  1.2020  0.8642
   91bbb     N1 2272   9.295   9.232   0.126  0.7447 -0.5714  0.6691
   91bbb     C3 2273   9.244   9.315   0.234  0.4450 -0.0755  0.1758
   91bbb     H5 2274   9.305   9.304   0.324  1.1698 -1.6307 -0.4833
   91bbb     H6 2275   9.146   9.278   0.267  0.7781 -1.9318 -0.8395
   91bbb     C4 2276   9.256   9.095   0.144 -0.0900 -0.0856  0.0614
   91bbb     H7 2277   9.330   9.022   0.108 -0.4692 -0.2657 -0.3656
   91bbb     H8 2278   9.248   9.074   0.251  0.6827 -1.2677 -0.1012
   91bbb     C5 2279   9.120   9.072   0.080 -0.3629 -0.0979  0.3238
   91bbb     H9 2280   9.044   9.136   0.126 -2.3078 -0.9659 -1.5150
   91bbb    H10 2281   9.128   9.097  -0.027 -1.8218 -1.8023 -0.2353
   91bbb     C6 2282   9.244   9.461   0.208 -0.0403  0.2862  0.1091
   91bbb    H11 2283   9.347   9.496   0.213  0.3599 -0.9038  0.7773
   91bbb    H12 2284   9.197   9.468   0.109 -2.7984 -2.1524  1.0872
   91bbb     C7 2285   9.079   8.930   0.078 -0.1935  0.2520  0.3485
   91bbb     C8 2286   9.161   9.543   0.301 -0.5792  0.2789 -0.3136
   91bbb     O1 2287   9.094   8.863   0.176  0.1292 -0.0217  0.0539
   91bbb     O2 2288   9.199   9.609   0.394 -0.3811  0.6884  0.0800
   91bbb     N4 2289   9.630   9.202  -0.043  0.0953  0.4134  0.1125
   91bbb    H21 2290   9.679   9.166   0.038 -0.5944  0.2088  0.4495
   92bbb     C1 2291  11.407  10.070   0.842  0.0589  0.4660  0.3381
   92bbb     H1 2292  11.297  10.071   0.841  0.0584  0.4149  0.0343
   92bbb     H2 2293  11.429  10.119   0.746  0.9718  1.3008  0.9509
   92bbb     C2 2294  11.457   9.923   0.830  0.0663 -0.2732 -0.0888
   92bbb     H3 2295  11.545   9.919   0.765  0.1427 -0.1002  0.0043
   92bbb     H4 2296  11.490   9.882   0.926  1.8354  0.4100 -0.3685
   92bbb     N1 2297  11.483  10.129   0.957  0.4176  0.2161  0.1245
   92bbb     C3 2298  11.399  10.223   1.028 -0.0548  0.6319 -0.5353
   92bbb     H5 2299  11.327  10.276   0.964 -0.7630  1.2878  0.7617
   92bbb     H6 2300  11.449  10.301   1.087  0.0628  0.0365  0.1617
   92bbb     C4 2301  11.620  10.176   0.934 -0.0422  0.0072  0.1944
   92bbb     H7 2302  11.669  10.110   0.862 -1.4374 -0.7896 -0.0617
   92bbb     H8 2303  11.618  10.277   0.890  0.8687 -0.4647 -0.9752
   92bbb     C5 2304  11.699  10.185   1.064 -0.1666 -0.5114  0.3649
   92bbb     H9 2305  11.794  10.235   1.043 -0.5136  1.0504  2.2727
   92bbb    H10 2306  11.656  10.261   1.131  0.0738  1.0621 -1.1754
   92bbb     C6 2307  11.308  10.143   1.126  0.2621  0.3086 -0.2346
   92bbb    H11 2308  11.240  10.090   1.059  0.0050  1.6928 -1.1204
   92bbb    H12 2309  11.377  10.072   1.173 -1.2492 -1.6910 -0.9038
   92bbb     C7 2310  11.707  10.055   1.139  0.5145 -0.3527 -0.0644
   92bbb     C8 2311  11.244  10.229   1.228  0.5201  0.0064 -0.1024
   92bbb     O1 2312  11.747   9.950   1.090  0.7649  0.7641  0.0571
   92bbb     O2 2313  11.297  10.280   1.328 -0.6661  0.0311 -0.5677
   92bbb     N4 2314  11.346   9.836   0.784  0.1146  0.3703 -0.3065
   92bbb    H21 2315  11.269   9.816   0.847  2.2800  0.5491  2.5978
   93bbb     C1 2316  10.633   9.687   0.053  0.1530  0.6411 -0.6751
   93bbb     H1 2317  10.561   9.643   0.124 -1.3430  1.1208 -1.8472
   93bbb     H2 2318  10.579   9.689  -0.042 -0.4160 -0.0402 -0.3815
   93bbb     C2 2319  10.764   9.610   0.046 -0.1071  0.6449 -0.0992
   93bbb     H3 2320  10.746   9.502   0.054 -1.2518  0.7197 -1.3627
   93bbb     H4 2321  10.818   9.624  -0.048 -2.0228 -0.8289 -1.4928
   93bbb     N1 2322  10.655   9.829   0.078  0.1430  0.4922  0.0001
   93bbb     C3 2323  10.524   9.892   0.094  0.2758  0.4646  0.1735
   93bbb     H5 2324  10.448   9.845   0.030 -0.1663 -1.9354  2.3021
   93bbb     H6 2325  10.537   9.999   0.075  0.9494  0.4237  0.3777
   93bbb     C4 2326  10.737   9.898  -0.019 -0.0098 -0.2924 -0.6446
   93bbb     H7 2327  10.818   9.837  -0.062  0.5995 -0.8044  1.1475
   93bbb     H8 2328  10.669   9.930  -0.099 -2.0123 -0.1325  1.0149
   93bbb     C5 2329  10.795  10.029   0.040  0.1697  0.5171 -0.5023
   93bbb     H9 2330  10.855  10.087  -0.032  1.1363  0.2401  0.0680
   93bbb    H10 2331  10.720  10.090   0.092  0.1296 -0.0167  0.0730
   93bbb     C6 2332  10.489   9.883   0.237  0.1910  0.3888 -0.5559
   93bbb    H11 2333  10.471   9.777   0.258  2.7077 -0.6981 -3.1200
   93bbb    H12 2334  10.574   9.913   0.300  0.7980 -1.2420 -0.5444
   93bbb     C7 2335  10.900   9.999   0.146  0.3577 -0.2109 -0.1966
   93bbb     C8 2336  10.360   9.953   0.267 -0.0048 -0.2051  0.5715
   93bbb     O1 2337  10.980   9.912   0.137 -0.2321 -0.5796 -0.4573
   93bbb     O2 2338  10.300  10.003   0.172 -0.0139 -0.7376  0.1946
   93bbb     N4 2339  10.861   9.637   0.149  0.3149 -0.0769  0.1521
   93bbb    H21 2340  10.909   9.726   0.152 -1.2106  0.7641  1.2754
   94bbb     C1 2341   9.803  11.330   3.356  0.0300  0.0051 -0.6696
   94bbb     H1 2342   9.875  11.308   3.276  1.9370  0.9872  0.6798
   94bbb     H2 2343   9.868  11.374   3.433  0.0108 -2.4971  0.9057
   94bbb     C2 2344   9.727  11.204   3.406 -0.5375  0.3462 -0.2567
   94bbb     H3 2345   9.801  11.127   3.432 -0.1845  0.4643 -0.8863
   94bbb     H4 2346   9.672  11.229   3.497 -1.9194 -2.0962 -0.3423
   94bbb     N1 2347   9.708  11.437   3.307 -0.3039 -0.8193 -0.3566
   94bbb     C3 2348   9.599  11.471   3.399 -0.8185 -0.2506  0.1275
   94bbb     H5 2349   9.638  11.537   3.478  1.1750 -0.7301 -0.4048
   94bbb     H6 2350   9.561  11.382   3.451 -0.4364  0.3626  1.5215
   94bbb     C4 2351   9.789  11.554   3.270 -0.2350 -0.1365 -0.0197
   94bbb     H7 2352   9.725  11.643   3.277 -0.0255  0.2301 -2.0795
   94bbb     H8 2353   9.877  11.568   3.334 -0.1218 -0.1028 -0.1835
   94bbb     C5 2354   9.824  11.536   3.122  0.0349 -0.0836  0.0816
   94bbb     H9 2355   9.878  11.444   3.097  1.5841  1.2082 -1.5277
   94bbb    H10 2356   9.734  11.530   3.059 -0.5727  0.0231  0.9281
   94bbb     C6 2357   9.476  11.537   3.337 -0.0980 -0.4315 -0.0616
   94bbb    H11 2358   9.399  11.550   3.413 -0.2427 -0.0276 -0.2764
   94bbb    H12 2359   9.510  11.634   3.300  2.0593 -0.5664  1.4020
   94bbb     C7 2360   9.909  11.646   3.067  0.2885 -0.1241  0.3825
   94bbb     C8 2361   9.407  11.453   3.229 -0.0059 -0.9816 -1.0712
   94bbb     O1 2362   9.924  11.759   3.113 -0.0639 -0.1512 -0.2704
   94bbb     O2 2363   9.425  11.332   3.220  0.6329  0.5245  0.1346
   94bbb     N4 2364   9.637  11.157   3.293 -0.0658  0.3157  0.0065
   94bbb    H21 2365   9.562  11.221   3.271 -0.8650 -0.3929  0.5891
   95bbb     C1 2366  10.222  11.004   2.961  0.5037 -0.2601 -0.6600
   95bbb     H1 2367  10.221  10.938   2.873  1.2369 -0.4968 -0.4979
   95bbb     H2 2368  10.160  10.968   3.044  0.4674 -0.4828 -0.7812
   95bbb     C2 2369  10.163  11.139   2.918 -0.3427  0.2000  0.3479
   95bbb     H3 2370  10.163  11.212   2.999 -1.9557 -1.5296  2.0019
   95bbb     H4 2371  10.232  11.178   2.842 -1.3002 -1.2033 -1.3111
   95bbb     N1 2372  10.358  11.014   3.010  0.6306 -0.2767  0.4969
   95bbb     C3 2373  10.360  11.087   3.135 -0.2075 -0.3891  0.8581
   95bbb     H5 2374  10.283  11.054   3.206  0.6110  0.3658  2.1385
   95bbb     H6 2375  10.337  11.194   3.132 -0.4404 -0.4408  0.7313
   95bbb     C4 2376  10.451  11.069   2.914 -0.4414  0.3850  0.8356
   95bbb     H7 2377  10.439  11.174   2.885  1.6525  0.0492 -1.6461
   95bbb     H8 2378  10.554  11.053   2.950  0.3858 -0.0415 -1.5726
   95bbb     C5 2379  10.456  10.992   2.784  0.8472 -0.5029  0.1035
   95bbb     H9 2380  10.517  10.902   2.795  1.5152 -0.1257 -0.4018
   95bbb    H10 2381  10.361  10.982   2.731  1.2689  0.5508 -0.9035
   95bbb     C6 2382  10.490  11.072   3.211  0.4210 -0.2710  0.3814
   95bbb    H11 2383  10.520  10.967   3.204  1.2347 -0.0213  0.0174
   95bbb    H12 2384  10.570  11.129   3.162 -1.2940  3.5994  1.6609
   95bbb     C7 2385  10.530  11.078   2.686 -0.1497 -0.3680 -0.0304
   95bbb     C8 2386  10.483  11.112   3.347 -0.0749 -0.3426  0.2422
   95bbb     O1 2387  10.464  11.165   2.627 -0.2410 -0.4176  0.5416
   95bbb     O2 2388  10.423  11.208   3.379  0.5654 -0.7466  0.1092
   95bbb     N4 2389  10.021  11.128   2.862 -0.2861 -1.4327  0.2168
   95bbb    H21 2390   9.966  11.043   2.851 -2.3870  0.0436 -1.6348
   96bbb     C1 2391   7.734  11.805   2.503 -0.4726  0.2269 -0.0979
   96bbb     H1 2392   7.735  11.749   2.598 -0.1112 -0.1802 -0.3364
   96bbb     H2 2393   7.759  11.733   2.424  4.0789 -0.0430  1.2631
   96bbb     C2 2394   7.846  11.916   2.511  0.5241 -0.0151  0.3559
   96bbb     H3 2395   7.832  11.997   2.438 -2.6053 -0.4581  0.3112
   96bbb     H4 2396   7.841  11.956   2.613  1.2128 -0.9385  0.7696
   96bbb     N1 2397   7.616  11.870   2.477 -0.4186  0.1471  0.2974
   96bbb     C3 2398   7.523  11.773   2.412  0.2743  0.1855 -0.5112
   96bbb     H5 2399   7.419  11.807   2.425  0.8255  0.9440  2.4830
   96bbb     H6 2400   7.527  11.677   2.464  1.0013  2.0503  3.2291
   96bbb     C4 2401   7.561  11.927   2.599  0.2859  0.5964  0.3080
   96bbb     H7 2402   7.505  11.844   2.645  0.8687 -0.1794 -0.3357
   96bbb     H8 2403   7.634  11.969   2.670 -0.9024  0.4995  1.6241
   96bbb     C5 2404   7.482  12.052   2.543 -0.1595 -0.1628 -0.3796
   96bbb     H9 2405   7.545  12.099   2.467  3.3536 -2.2074  0.9974
   96bbb    H10 2406   7.385  12.028   2.500 -0.9094  0.6862  0.7698
   96bbb     C6 2407   7.541  11.756   2.265  0.3258  0.6071 -0.2254
   96bbb    H11 2408   7.540  11.852   2.212  1.4681  0.2002 -1.0240
   96bbb    H12 2409   7.639  11.709   2.249 -0.4389 -0.6913 -1.2794
   96bbb     C7 2410   7.444  12.135   2.664 -0.0407  0.2792 -0.5264
   96bbb     C8 2411   7.437  11.654   2.219 -0.5478 -0.3165 -0.6991
   96bbb     O1 2412   7.448  12.102   2.778 -0.6733 -0.0088  0.5743
   96bbb     O2 2413   7.394  11.566   2.288 -0.1605  0.1019  0.3952
   96bbb     N4 2414   7.981  11.870   2.482  0.2492  0.7062  0.2862
   96bbb    H21 2415   7.992  11.803   2.406  0.1987  0.6953  0.2880
   97bbb     C1 2416   8.412  12.589   1.971  1.1448 -0.4127 -0.7278
   97bbb     H1 2417   8.469  12.592   2.065 -2.2651 -0.3067  1.4840
   97bbb     H2 2418   8.322  12.648   1.991  1.8177  0.4931 -0.2771
   97bbb     C2 2419   8.387  12.449   1.923  0.1128  0.4534  0.3963
   97bbb     H3 2420   8.318  12.448   1.838  2.1152  0.1859 -1.2979
   97bbb     H4 2421   8.474  12.417   1.865 -0.9376  2.8431 -2.8320
   97bbb     N1 2422   8.476  12.659   1.865 -0.0465  0.3174 -0.2392
   97bbb     C3 2423   8.560  12.764   1.925 -0.0987  0.4956  0.2660
   97bbb     H5 2424   8.507  12.806   2.012  0.8156  1.6205  0.3152
   97bbb     H6 2425   8.579  12.843   1.851 -1.8953  1.1201  0.4232
   97bbb     C4 2426   8.373  12.714   1.766 -0.5117 -0.4662 -0.1772
   97bbb     H7 2427   8.326  12.623   1.726  1.1479 -2.0180  1.2031
   97bbb     H8 2428   8.298  12.780   1.811 -0.5783 -1.4790  1.2600
   97bbb     C5 2429   8.447  12.787   1.646 -0.0896 -0.0532 -0.3119
   97bbb     H9 2430   8.456  12.895   1.664  2.6191 -0.2298 -0.1547
   97bbb    H10 2431   8.548  12.744   1.644  0.4130  1.0885 -0.1190
   97bbb     C6 2432   8.699  12.712   1.965 -0.7466 -0.6066 -0.4187
   97bbb    H11 2433   8.689  12.604   1.978  2.1134 -1.0853 -1.6164
   97bbb    H12 2434   8.781  12.726   1.894  2.2925 -3.9985  2.0678
   97bbb     C7 2435   8.368  12.771   1.525 -0.8931  0.0398  0.6091
   97bbb     C8 2436   8.739  12.776   2.094  0.0238  0.2166 -0.0875
   97bbb     O1 2437   8.247  12.773   1.523 -0.5307 -0.1356 -0.1443
   97bbb     O2 2438   8.817  12.872   2.099 -0.1331  0.4715  0.5804
   97bbb     N4 2439   8.354  12.347   2.028  0.7125 -0.0836 -0.0664
   97bbb    H21 2440   8.260  12.333   2.064  0.2665 -0.1533 -1.2098
   98bbb     C1 2441  10.618  10.175   2.167  0.5925 -0.1817 -0.4923
   98bbb     H1 2442  10.680  10.259   2.132 -0.5430  0.7853 -0.2914
   98bbb     H2 2443  10.648  10.095   2.099 -0.9969  0.4949 -2.0915
   98bbb     C2 2444  10.470  10.208   2.126  0.5534  0.1471 -0.1361
   98bbb     H3 2445  10.438  10.290   2.192  2.0496 -0.1857  1.0774
   98bbb     H4 2446  10.478  10.243   2.022  0.8544  2.4199  0.5754
   98bbb     N1 2447  10.639  10.147   2.305  0.2628  0.1321 -0.3898
   98bbb     C3 2448  10.628  10.269   2.394  0.0797  0.7840 -0.4021
   98bbb     H5 2449  10.545  10.326   2.351 -2.0845 -1.7780  0.0999
   98bbb     H6 2450  10.724  10.323   2.401 -0.2892  1.3095  0.9267
   98bbb     C4 2451  10.767  10.082   2.322  0.7756  0.0933  0.1557
   98bbb     H7 2452  10.837  10.096   2.240 -1.0328 -0.5512 -1.5798
   98bbb     H8 2453  10.808  10.111   2.420  1.2624 -0.8257  0.2440
   98bbb     C5 2454  10.739   9.937   2.337 -0.1791  0.5996  0.0298
   98bbb     H9 2455  10.653   9.927   2.403 -0.4460  1.0619 -0.2410
   98bbb    H10 2456  10.733   9.899   2.234  0.0465 -1.5410  0.7594
   98bbb     C6 2457  10.584  10.219   2.527  0.8260  0.2951  0.3293
   98bbb    H11 2458  10.493  10.160   2.516 -0.9249  2.6736  1.0746
   98bbb    H12 2459  10.669  10.159   2.561 -0.2627 -0.7050  1.3338
   98bbb     C7 2460  10.858   9.869   2.398  0.0792 -0.8807  0.3074
   98bbb     C8 2461  10.549  10.333   2.624 -0.6282  0.1910  0.1105
   98bbb     O1 2462  10.975   9.907   2.384 -0.1605  0.0444 -0.3267
   98bbb     O2 2463  10.617  10.352   2.725 -0.4686  0.6965  0.5994
   98bbb     N4 2464  10.372  10.104   2.142  1.1123 -0.0480 -0.2869
   98bbb    H21 2465  10.393  10.005   2.147 -2.8807 -1.1838 -1.8029
   99bbb     C1 2466  10.083   9.849   1.285  0.1925  1.2509 -0.9058
   99bbb     H1 2467  10.105   9.956   1.272 -1.0870  1.3307 -2.7725
   99bbb     H2 2468   9.975   9.842   1.296  0.4000 -1.8909 -0.0022
   99bbb     C2 2469  10.132   9.785   1.416  0.1085  0.4989 -0.4037
   99bbb     H3 2470  10.092   9.683   1.410  0.0375  0.5142 -0.2206
   99bbb     H4 2471  10.241   9.778   1.418  0.1575  1.1253 -0.7423
   99bbb     N1 2472  10.129   9.774   1.163 -0.0792 -0.2980  0.3784
   99bbb     C3 2473  10.263   9.809   1.132 -0.2198  0.1381  0.7351
   99bbb     H5 2474  10.329   9.809   1.220  1.3054 -0.1757 -0.3582
   99bbb     H6 2475  10.274   9.911   1.095  2.6608 -0.3656 -0.0701
   99bbb     C4 2476  10.043   9.810   1.056 -0.2858  0.5623 -0.4724
   99bbb     H7 2477   9.997   9.905   1.083 -0.6526  0.4760 -0.7785
   99bbb     H8 2478  10.104   9.816   0.965  0.8537 -0.3814  0.1957
   99bbb     C5 2479   9.931   9.708   1.048  0.5939 -0.0294  0.6178
   99bbb     H9 2480   9.980   9.611   1.034  1.7116  0.7037 -0.8627
   99bbb    H10 2481   9.882   9.709   1.146  1.2199  1.7443  0.9401
   99bbb     C6 2482  10.329   9.717   1.026 -0.8125 -0.0206  0.2445
   99bbb    H11 2483  10.287   9.616   1.027  0.1339 -0.4299 -0.3458
   99bbb    H12 2484  10.332   9.763   0.926 -1.1184  0.7806  0.5909
   99bbb     C7 2485   9.833   9.754   0.943 -0.5757  0.1868 -0.0032
   99bbb     C8 2486  10.471   9.699   1.058 -0.4659 -0.8619 -0.5403
   99bbb     O1 2487   9.845   9.710   0.829 -0.2937 -0.1362  0.0256
   99bbb     O2 2488  10.544   9.797   1.069  0.0074 -0.5367  0.2682
   99bbb     N4 2489  10.086   9.862   1.534  0.1345  0.2151  0.3888
   99bbb    H21 2490  10.141   9.938   1.571 -0.9758  0.5256  1.4628
  100bbb     C1 2491  10.409   9.740   3.470  0.2261  0.1356 -0.3660
  100bbb     H1 2492  10.479   9.809   3.421 -1.2040  1.4733 -0.5858
  100bbb     H2 2493  10.464   9.659   3.520  0.2506 -0.7196 -1.7358
  100bbb     C2 2494  10.319   9.680   3.358  0.1533  0.2935  0.3181
  100bbb     H3 2495  10.392   9.632   3.292  0.6232  0.3757  0.7731
  100bbb     H4 2496  10.258   9.594   3.386  0.3704  0.0600  0.0779
  100bbb     N1 2497  10.315   9.818   3.552 -0.4365  0.6599 -0.3628
  100bbb     C3 2498  10.364   9.946   3.601  0.7328 -0.2701 -0.7985
  100bbb     H5 2499  10.461   9.939   3.652  0.9798  3.0537 -0.5874
  100bbb     H6 2500  10.289   9.990   3.668 -0.3863 -0.4023 -1.9165
  100bbb     C4 2501  10.267   9.735   3.664 -0.3125 -0.1089 -0.0020
  100bbb     H7 2502  10.302   9.631   3.665 -3.3409 -1.2450 -0.8725
  100bbb     H8 2503  10.295   9.776   3.762  0.2597  1.9040 -0.9748
  100bbb     C5 2504  10.115   9.712   3.647  0.2642  0.2283 -0.4536
  100bbb     H9 2505  10.092   9.650   3.560  1.2767  0.3948 -0.8541
  100bbb    H10 2506  10.082   9.665   3.741 -0.0909  1.8292  0.2654
  100bbb     C6 2507  10.388  10.044   3.491  0.4987  0.0621 -0.4733
  100bbb    H11 2508  10.477  10.013   3.435 -0.5740 -1.2829 -1.5118
  100bbb    H12 2509  10.309  10.051   3.414  2.8119 -0.6332 -3.0668
  100bbb     C7 2510  10.043   9.846   3.638 -0.4546  0.3903 -0.0862
  100bbb     C8 2511  10.420  10.182   3.544 -0.5096  0.5855  0.0494
  100bbb     O1 2512   9.967   9.880   3.551 -0.4651  0.1910 -0.1613
  100bbb     O2 2513  10.492  10.199   3.642 -0.2291  0.0023  0.7749
  100bbb     N4 2514  10.240   9.776   3.268 -0.0380 -0.6868  0.1357
  100bbb    H21 2515  10.205   9.858   3.315 -0.5980 -1.8200  1.8006
  101bbb     C1 2516  10.782  10.077   3.135 -0.1865  0.2159  0.1103
  101bbb     H1 2517  10.802   9.982   3.188  0.4613  0.2510 -0.0679
  101bbb     H2 2518  10.856  10.147   3.173  1.8936 -1.8746  0.1339
  101bbb     C2 2519  10.634  10.125   3.170 -0.4664  0.7239  0.8037
  101bbb     H3 2520  10.574  10.049   3.222 -0.6917 -0.8981 -1.7022
  101bbb     H4 2521  10.656  10.202   3.245  0.5281 -0.6821  2.0265
  101bbb     N1 2522  10.795  10.070   2.992  0.8522  0.6902 -0.0058
  101bbb     C3 2523  10.766   9.934   2.954  0.2133 -0.0004  0.0478
  101bbb     H5 2524  10.696   9.880   3.019 -1.8620  1.1318 -1.1143
  101bbb     H6 2525  10.857   9.876   2.939 -0.2706 -1.1101  1.1797
  101bbb     C4 2526  10.925  10.114   2.936 -0.0907  0.0495  0.2585
  101bbb     H7 2527  11.010  10.089   3.000 -0.4245  2.4681  1.7978
  101bbb     H8 2528  10.947  10.065   2.841  0.9309  2.3463 -0.7730
  101bbb     C5 2529  10.908  10.268   2.923 -0.0521 -0.8073 -0.1682
  101bbb     H9 2530  10.810  10.294   2.881  0.0895  1.3651  0.7290
  101bbb    H10 2531  10.915  10.307   3.025  0.1546  1.2321 -0.9252
  101bbb     C6 2532  10.706   9.947   2.812 -0.3579 -0.0180  0.4733
  101bbb    H11 2533  10.621  10.017   2.815  0.4023  1.0576 -1.5549
  101bbb    H12 2534  10.774   9.984   2.735  0.9161  3.2731  2.9349
  101bbb     C7 2535  11.020  10.315   2.839  0.0009  0.3563  0.5699
  101bbb     C8 2536  10.659   9.812   2.764  0.2141 -0.0693 -0.3183
  101bbb     O1 2537  11.135  10.334   2.876  0.7217 -0.0712 -0.2471
  101bbb     O2 2538  10.683   9.705   2.824 -0.4708 -0.6456  0.6261
  101bbb     N4 2539  10.559  10.188   3.064 -0.3212 -0.0053  0.0089
  101bbb    H21 2540  10.611  10.206   2.979 -1.1231 -0.6792 -0.6363
  102bbb     C1 2541   6.106  10.455   2.817  1.0478  0.4750 -1.3878
  102bbb     H1 2542   6.000  10.477   2.834  1.2821  0.4583  0.1786
  102bbb     H2 2543   6.161  10.550   2.826  0.3456  0.9801 -2.2221
  102bbb     C2 2544   6.116  10.403   2.670  0.2686  1.0467 -0.9410
  102bbb     H3 2545   6.040  10.324   2.668  0.9433  0.1440  2.4050
  102bbb     H4 2546   6.085  10.485   2.604 -0.5554  2.5181  1.1482
  102bbb     N1 2547   6.156  10.354   2.919  0.1180 -0.4746 -0.2805
  102bbb     C3 2548   6.061  10.235   2.917 -0.8231  0.1697 -0.3029
  102bbb     H5 2549   6.057  10.202   2.812  3.2647 -1.5052 -0.1257
  102bbb     H6 2550   5.958  10.254   2.949 -1.1021 -0.7790 -0.6280
  102bbb     C4 2551   6.143  10.410   3.056  0.6058 -0.4993 -0.4314
  102bbb     H7 2552   6.089  10.505   3.067  0.1640 -0.9874  2.4502
  102bbb     H8 2553   6.093  10.343   3.127  0.3655  0.0972 -0.0305
  102bbb     C5 2554   6.287  10.437   3.111 -0.2333 -0.9734 -0.3240
  102bbb     H9 2555   6.350  10.354   3.077  0.7993 -0.1019 -0.5729
  102bbb    H10 2556   6.326  10.531   3.071 -3.5370  0.1503 -1.2332
  102bbb     C6 2557   6.109  10.110   2.993  0.3704  0.5107  0.3886
  102bbb    H11 2558   6.211  10.080   2.967  0.6388 -0.1828  2.1150
  102bbb    H12 2559   6.097  10.116   3.102  1.1498 -1.5702  0.6508
  102bbb     C7 2560   6.292  10.439   3.265  0.6310  0.3816 -0.5999
  102bbb     C8 2561   6.014   9.992   2.969 -0.1840 -0.8340  0.0058
  102bbb     O1 2562   6.313  10.540   3.324  0.1013 -0.3672 -0.0106
  102bbb     O2 2563   5.901   9.997   3.016 -0.3231 -0.7162  0.0853
  102bbb     N4 2564   6.256  10.365   2.632  0.0209 -0.2717  0.4628
  102bbb    H21 2565   6.337  10.400   2.681  0.1216 -2.2064  1.8312
  103bbb     C1 2566   7.021  10.495   3.096 -0.1405 -0.7075  0.7824
  103bbb     H1 2567   7.072  10.544   3.012  2.8565  1.2889  3.5119
  103bbb     H2 2568   7.101  10.484   3.170  0.0871 -0.4296  0.5797
  103bbb     C2 2569   6.971  10.359   3.053  0.4524 -0.3569 -0.5098
  103bbb     H3 2570   7.049  10.282   3.049 -0.3445 -1.1765 -0.3750
  103bbb     H4 2571   6.897  10.317   3.122  2.7645  0.9853  3.0634
  103bbb     N1 2572   6.912  10.581   3.152 -0.3668 -0.3157 -0.3220
  103bbb     C3 2573   6.896  10.550   3.294  0.6854  0.2939 -1.0919
  103bbb     H5 2574   6.981  10.580   3.357 -1.2293  0.5111  1.5628
  103bbb     H6 2575   6.898  10.440   3.299 -0.3392  0.2949  2.2095
  103bbb     C4 2576   6.937  10.724   3.138  0.4588 -0.0174 -0.5023
  103bbb     H7 2577   6.857  10.782   3.185 -0.6648 -0.8962 -1.2795
  103bbb     H8 2578   7.034  10.755   3.179  0.8058 -1.6946  0.0414
  103bbb     C5 2579   6.941  10.771   2.993  0.0460 -0.9213 -0.6101
  103bbb     H9 2580   7.017  10.728   2.926 -0.6891 -0.6157 -1.6723
  103bbb    H10 2581   6.851  10.752   2.932  0.9563 -2.7222 -1.4848
  103bbb     C6 2582   6.759  10.599   3.349  0.0504  0.0908  0.0827
  103bbb    H11 2583   6.771  10.703   3.379  1.4466 -0.0221 -0.0111
  103bbb    H12 2584   6.687  10.588   3.267 -0.0105  3.4685 -0.4354
  103bbb     C7 2585   6.962  10.921   2.991  0.5202  0.3611 -0.0720
  103bbb     C8 2586   6.714  10.517   3.464  0.0998 -0.0765 -0.3180
  103bbb     O1 2587   7.071  10.970   2.996  0.3961 -0.0958  0.3596
  103bbb     O2 2588   6.732  10.553   3.581 -0.1293 -0.1970  0.2870
  103bbb     N4 2589   6.910  10.363   2.915  0.2018  0.5733 -0.2795
  103bbb    H21 2590   6.925  10.442   2.854 -1.7581  0.2855 -1.2235
  104bbb     C1 2591   6.938   9.574   0.704  0.8717  0.1677 -0.5857
  104bbb     H1 2592   6.867   9.580   0.787 -0.0799 -1.4747 -1.2354
  104bbb     H2 2593   6.890   9.537   0.612  1.5458  0.4669 -1.0683
  104bbb     C2 2594   7.041   9.469   0.750  0.6396 -0.5935  0.5091
  104bbb     H3 2595   7.002   9.368   0.729  0.9992 -0.5010 -0.7410
  104bbb     H4 2596   7.130   9.474   0.686 -0.5012 -3.6793 -1.5716
  104bbb     N1 2597   6.976   9.713   0.674 -0.0830 -0.1791 -0.1335
  104bbb     C3 2598   7.075   9.772   0.768 -0.0282  0.7381  0.5199
  104bbb     H5 2599   7.054   9.737   0.870  0.2131 -1.0822 -0.0287
  104bbb     H6 2600   7.063   9.880   0.780  2.1689  0.9969  0.6644
  104bbb     C4 2601   6.859   9.804   0.667 -0.6015  0.5128  0.3094
  104bbb     H7 2602   6.801   9.801   0.760  2.3676  2.7993  2.4256
  104bbb     H8 2603   6.901   9.903   0.645 -1.4809  0.5988 -1.1074
  104bbb     C5 2604   6.754   9.757   0.560  0.5878  0.3342 -0.4268
  104bbb     H9 2605   6.704   9.662   0.584  2.5086 -0.1602  2.0602
  104bbb    H10 2606   6.677   9.835   0.563 -0.4202 -0.6506  0.9030
  104bbb     C6 2607   7.215   9.758   0.717  0.4569  0.3571  0.4995
  104bbb    H11 2608   7.251   9.657   0.694  3.8184  0.9565  2.4356
  104bbb    H12 2609   7.230   9.823   0.631  0.6835 -0.8892 -0.4270
  104bbb     C7 2610   6.824   9.747   0.426  0.5801 -1.0797  0.3071
  104bbb     C8 2611   7.314   9.805   0.817  0.2306 -0.5697  0.5355
  104bbb     O1 2612   6.828   9.638   0.366 -0.6777 -0.0862  0.3558
  104bbb     O2 2613   7.286   9.844   0.932  0.1796  0.2404 -0.0527
  104bbb     N4 2614   7.068   9.481   0.898 -0.4596 -0.3576 -0.1365
  104bbb    H21 2615   6.989   9.499   0.959  0.3196  1.1102  0.4773
  105bbb     C1 2616   7.514   8.877   1.369 -0.1267 -0.2677  0.4978
  105bbb     H1 2617   7.414   8.868   1.326  0.1339  1.9253 -0.7051
  105bbb     H2 2618   7.554   8.785   1.413  0.7847  0.2418  0.7758
  105bbb     C2 2619   7.503   8.979   1.486 -0.0904  0.2516  0.0895
  105bbb     H3 2620   7.472   8.932   1.580 -1.7772  0.4424 -0.3491
  105bbb     H4 2621   7.604   9.021   1.497 -1.2517  3.2570  0.2033
  105bbb     N1 2622   7.602   8.913   1.257  0.0171 -0.3136  0.1813
  105bbb     C3 2623   7.549   9.030   1.181 -0.3847 -0.1863  0.2241
  105bbb     H5 2624   7.511   9.109   1.247 -0.9892 -1.3101  1.2434
  105bbb     H6 2625   7.466   8.985   1.124  0.2345 -0.3758 -0.5458
  105bbb     C4 2626   7.621   8.800   1.164  0.0398 -0.4625  0.3429
  105bbb     H7 2627   7.525   8.764   1.125  1.0646  0.0026 -2.9526
  105bbb     H8 2628   7.682   8.825   1.076 -1.9600  0.3897 -0.8705
  105bbb     C5 2629   7.706   8.693   1.231  0.4662 -0.3801  0.3876
  105bbb     H9 2630   7.803   8.742   1.249  1.0186 -1.0922 -0.5719
  105bbb    H10 2631   7.665   8.649   1.323  0.0456 -2.1609 -0.6004
  105bbb     C6 2632   7.650   9.090   1.083 -0.3522  0.3438  0.0572
  105bbb    H11 2633   7.749   9.082   1.128  0.0874 -0.9862 -1.0831
  105bbb    H12 2634   7.652   9.043   0.984 -0.1888  1.3210 -0.4223
  105bbb     C7 2635   7.738   8.588   1.132 -0.1104 -0.3694  0.3862
  105bbb     C8 2636   7.624   9.240   1.069 -0.6656 -0.1531 -0.1276
  105bbb     O1 2637   7.835   8.593   1.059  0.2331  0.4360 -0.0716
  105bbb     O2 2638   7.606   9.315   1.163  1.0063  0.0655 -0.6230
  105bbb     N4 2639   7.412   9.098   1.458  0.0054  0.6719 -0.1320
  105bbb    H21 2640   7.327   9.070   1.411  0.7566 -1.5791 -0.2730
  106bbb     C1 2641   8.536  12.204   1.713 -0.4227 -0.6844  0.2467
  106bbb     H1 2642   8.617  12.143   1.671 -0.0541 -0.3555  0.4747
  106bbb     H2 2643   8.557  12.222   1.819  0.6693  0.5422 -0.1433
  106bbb     C2 2644   8.398  12.120   1.725 -0.4880 -0.3356 -0.0783
  106bbb     H3 2645   8.320  12.196   1.734 -0.4671 -0.3836  0.5776
  106bbb     H4 2646   8.367  12.063   1.637  0.6249 -2.2535  0.6989
  106bbb     N1 2647   8.527  12.328   1.630  0.2934  0.2399 -0.5109
  106bbb     C3 2648   8.446  12.309   1.512 -0.4692 -0.6697 -0.2080
  106bbb     H5 2649   8.347  12.274   1.544 -1.0179  0.9839 -0.0327
  106bbb     H6 2650   8.491  12.238   1.440 -1.4239 -2.4772  0.9134
  106bbb     C4 2651   8.660  12.379   1.606  0.3711 -0.4864 -0.1093
  106bbb     H7 2652   8.713  12.302   1.549  0.7199  0.2750 -0.8350
  106bbb     H8 2653   8.645  12.478   1.560 -0.0739 -0.0182  1.0175
  106bbb     C5 2654   8.734  12.407   1.738 -0.1510  0.0061  0.4685
  106bbb     H9 2655   8.677  12.476   1.801  0.0196 -0.6290  1.3407
  106bbb    H10 2656   8.755  12.314   1.792  3.2048 -1.6377 -3.1166
  106bbb     C6 2657   8.423  12.441   1.439 -0.5738  0.0678  0.2958
  106bbb    H11 2658   8.386  12.520   1.505  0.6890  2.6586 -1.9083
  106bbb    H12 2659   8.514  12.472   1.386  0.0321  0.3948  1.5140
  106bbb     C7 2660   8.868  12.466   1.702 -0.5245  0.1035 -0.6561
  106bbb     C8 2661   8.329  12.418   1.323  0.6066 -0.2644  0.7386
  106bbb     O1 2662   8.879  12.571   1.645  0.2671  0.2082  0.0385
  106bbb     O2 2663   8.361  12.343   1.230  0.4272  0.2468  0.0856
  106bbb     N4 2664   8.386  12.026   1.843 -0.5716  0.0696  0.4124
  106bbb    H21 2665   8.470  11.996   1.890 -1.0329  0.9143  1.8466
  107bbb     C1 2666   8.872  11.065   1.896 -0.1368 -0.4566  0.0976
  107bbb     H1 2667   8.789  11.026   1.836 -0.2742 -2.2841  1.3975
  107bbb     H2 2668   8.845  11.014   1.989  0.1857  0.6643  0.8350
  107bbb     C2 2669   8.866  11.216   1.926  0.7639 -0.0624 -0.1638
  107bbb     H3 2670   8.947  11.245   1.994  1.5850 -1.0799 -0.6567
  107bbb     H4 2671   8.884  11.260   1.827 -1.1472 -0.1292 -0.5775
  107bbb     N1 2672   8.997  11.008   1.839  0.8495  0.2330 -0.2959
  107bbb     C3 2673   9.095  11.002   1.955  0.7800 -0.2532  0.5639
  107bbb     H5 2674   9.047  10.953   2.040  0.2668  1.0142  1.0235
  107bbb     H6 2675   9.114  11.106   1.981  0.8304  0.2213 -1.1910
  107bbb     C4 2676   9.042  11.077   1.714  0.0676 -0.4540  0.3058
  107bbb     H7 2677   9.060  11.181   1.745  0.5554  0.0673 -1.5817
  107bbb     H8 2678   9.143  11.049   1.679  0.7972  3.3618 -1.1165
  107bbb     C5 2679   8.946  11.080   1.594  0.8204  0.0003 -0.0956
  107bbb     H9 2680   8.907  10.978   1.583  0.7020 -0.0277  0.5229
  107bbb    H10 2681   8.859  11.145   1.606  1.6215  0.9005  1.0411
  107bbb     C6 2682   9.228  10.933   1.914  0.2782 -0.1795 -0.1560
  107bbb    H11 2683   9.199  10.840   1.862  0.8567  0.7746 -2.2767
  107bbb    H12 2684   9.294  10.994   1.852  0.9281  1.2356  1.8537
  107bbb     C7 2685   9.011  11.117   1.468  0.4293 -0.1309 -0.6710
  107bbb     C8 2686   9.301  10.911   2.042 -0.7719 -0.3704  0.2810
  107bbb     O1 2687   9.105  11.194   1.458  0.4827  0.0064 -0.0466
  107bbb     O2 2688   9.321  10.800   2.090 -0.1810 -0.1288  0.4297
  107bbb     N4 2689   8.725  11.268   1.965  0.0277 -0.5004  0.2484
  107bbb    H21 2690   8.639  11.217   1.949 -1.3200  1.4013  1.0392
  108bbb     C1 2691   7.500  11.786   3.288  0.0468 -0.1582  0.3834
  108bbb     H1 2692   7.572  11.760   3.366  2.2505 -2.5846 -2.2345
  108bbb     H2 2693   7.490  11.895   3.281  2.6018  0.0387 -2.7598
  108bbb     C2 2694   7.352  11.744   3.321 -0.2542  0.0186 -0.0189
  108bbb     H3 2695   7.369  11.646   3.369  0.4457 -0.0011 -0.2891
  108bbb     H4 2696   7.317  11.804   3.405  2.5213 -1.0435  2.0519
  108bbb     N1 2697   7.550  11.736   3.160  0.5710  0.3551  0.3583
  108bbb     C3 2698   7.553  11.587   3.157 -0.0810 -0.2790  1.1263
  108bbb     H5 2699   7.599  11.548   3.065  3.9012  3.0427  1.4196
  108bbb     H6 2700   7.448  11.554   3.164 -0.1088 -1.6897 -3.0916
  108bbb     C4 2701   7.674  11.797   3.118 -0.3057 -0.9559  0.8477
  108bbb     H7 2702   7.679  11.904   3.142  0.0658 -0.1622 -2.3561
  108bbb     H8 2703   7.752  11.741   3.170  0.3886 -1.9777 -1.2261
  108bbb     C5 2704   7.687  11.799   2.965 -0.6726 -0.0819  0.3005
  108bbb     H9 2705   7.666  11.699   2.924 -0.9210 -1.0189  2.6004
  108bbb    H10 2706   7.605  11.864   2.931 -2.3243 -2.8517 -1.4739
  108bbb     C6 2707   7.631  11.519   3.269  0.1320 -0.3874  0.1432
  108bbb    H11 2708   7.732  11.559   3.282  0.8112 -1.5072 -1.4038
  108bbb    H12 2709   7.581  11.544   3.363  1.2792  2.9195 -0.0046
  108bbb     C7 2710   7.825  11.848   2.931  0.1651 -0.2894 -1.1071
  108bbb     C8 2711   7.628  11.370   3.257 -0.4410  0.3475  0.4848
  108bbb     O1 2712   7.842  11.964   2.908  0.0402  0.1467 -0.1621
  108bbb     O2 2713   7.536  11.304   3.300 -0.0010 -0.4176 -0.2835
  108bbb     N4 2714   7.254  11.744   3.215 -0.3714 -0.1817  1.1180
  108bbb    H21 2715   7.234  11.653   3.175  0.0410 -0.7661  2.2249
  109bbb     C1 2716   7.150  12.130   2.301  0.3712 -0.1606 -0.6192
  109bbb     H1 2717   7.225  12.145   2.379  0.4301 -0.7474 -0.5595
  109bbb     H2 2718   7.099  12.227   2.297  1.0326  0.4510  2.5974
  109bbb     C2 2719   7.042  12.030   2.357 -0.2093 -0.0423 -0.1425
  109bbb     H3 2720   6.997  12.074   2.447 -0.2541 -1.6038  0.6262
  109bbb     H4 2721   6.952  12.019   2.295 -0.4896  0.3448  0.1861
  109bbb     N1 2722   7.216  12.076   2.179 -0.9548  0.4827  0.0922
  109bbb     C3 2723   7.345  12.142   2.168 -0.1935 -0.5493 -0.3462
  109bbb     H5 2724   7.401  12.097   2.085 -0.6591 -0.6762 -0.5916
  109bbb     H6 2725   7.400  12.125   2.261 -0.7518 -1.4082 -0.1649
  109bbb     C4 2726   7.142  12.074   2.061 -0.5374  0.6443  0.4135
  109bbb     H7 2727   7.049  12.017   2.069  0.4609 -1.1145  0.0846
  109bbb     H8 2728   7.110  12.176   2.038 -0.8897  0.3395 -0.4635
  109bbb     C5 2729   7.223  12.004   1.948 -0.3147  0.0678 -0.5487
  109bbb     H9 2730   7.297  12.077   1.912 -1.0956  2.5359  2.3671
  109bbb    H10 2731   7.268  11.912   1.986  1.3059  1.1068  0.1460
  109bbb     C6 2732   7.324  12.293   2.132 -0.0192  0.6031  0.3494
  109bbb    H11 2733   7.281  12.312   2.033 -0.1692  0.9448  0.4810
  109bbb    H12 2734   7.267  12.353   2.203 -1.0032 -2.0915  1.9815
  109bbb     C7 2735   7.134  11.957   1.834  0.1031 -0.2467  0.2762
  109bbb     C8 2736   7.458  12.362   2.127  0.0799  0.2069  0.0498
  109bbb     O1 2737   7.022  12.004   1.813 -0.0806  0.3806  0.0297
  109bbb     O2 2738   7.563  12.305   2.154  0.0938 -0.1887 -0.3817
  109bbb     N4 2739   7.104  11.895   2.405  0.6723  0.2036 -0.5810
  109bbb    H21 2740   7.204  11.880   2.401  0.4951 -0.9421 -3.2744
  110bbb     C1 2741   8.646   7.874   4.321 -0.5653  0.4604 -0.0682
  110bbb     H1 2742   8.666   7.770   4.292  1.3439  0.4738  1.0290
  110bbb     H2 2743   8.580   7.858   4.407 -0.0421  0.0295  0.2592
  110bbb     C2 2744   8.556   7.923   4.204 -0.2941  0.2537  0.6059
  110bbb     H3 2745   8.472   7.852   4.202 -1.2095  1.3295 -1.0512
  110bbb     H4 2746   8.512   8.015   4.246  1.4058  2.2529 -1.7417
  110bbb     N1 2747   8.765   7.962   4.344  0.2429 -0.2975 -0.2123
  110bbb     C3 2748   8.863   7.902   4.431  0.1255 -0.1619  0.0837
  110bbb     H5 2749   8.815   7.854   4.517  2.9415  0.3078  2.0352
  110bbb     H6 2750   8.941   7.968   4.469  0.7602  0.2317 -1.7859
  110bbb     C4 2751   8.730   8.099   4.391  1.0513 -0.0821 -0.3770
  110bbb     H7 2752   8.643   8.139   4.338  1.1996  0.9831  0.1654
  110bbb     H8 2753   8.718   8.100   4.500  2.3737  0.9133 -0.2248
  110bbb     C5 2754   8.845   8.200   4.369  0.7216  0.2345  0.0725
  110bbb     H9 2755   8.938   8.164   4.415  0.2098  0.2496  1.1528
  110bbb    H10 2756   8.857   8.201   4.260  1.9611 -1.8664  0.1156
  110bbb     C6 2757   8.940   7.793   4.359  0.0749  0.1918  0.1611
  110bbb    H11 2758   8.883   7.710   4.315 -0.4508  0.4736  0.3088
  110bbb    H12 2759   8.997   7.836   4.276 -0.0319  0.1697  0.0763
  110bbb     C7 2760   8.813   8.332   4.423  0.0641  0.1717 -0.5272
  110bbb     C8 2761   9.031   7.712   4.443  0.5171  0.0905  0.1743
  110bbb     O1 2762   8.787   8.357   4.539  0.1808  0.4163  0.3573
  110bbb     O2 2763   8.988   7.650   4.541  0.3734  0.1373  0.1390
  110bbb     N4 2764   8.624   7.935   4.068 -0.0852  0.1333 -0.5677
  110bbb    H21 2765   8.675   8.019   4.044 -1.1171  0.6679 -0.9731
  111bbb     C1 2766   8.844   8.302   3.628 -0.0889  0.2016 -0.6311
  111bbb     H1 2767   8.886   8.332   3.531 -0.5446  0.9553 -0.6028
  111bbb     H2 2768   8.867   8.390   3.689 -0.0720  0.1250 -0.5256
  111bbb     C2 2769   8.937   8.183   3.667 -0.2737  0.3426 -0.3095
  111bbb     H3 2770   9.041   8.214   3.652 -0.4194  0.1208 -1.9555
  111bbb     H4 2771   8.931   8.157   3.773 -0.7148  0.4164 -0.3125
  111bbb     N1 2772   8.701   8.266   3.626 -0.2345  0.0730 -0.2402
  111bbb     C3 2773   8.635   8.353   3.531  0.1083  0.2891  0.0569
  111bbb     H5 2774   8.681   8.452   3.546  0.2883  0.4284 -1.2786
  111bbb     H6 2775   8.528   8.344   3.554 -0.0210  0.3230 -0.4984
  111bbb     C4 2776   8.647   8.279   3.765 -0.5843  0.0938  0.9904
  111bbb     H7 2777   8.723   8.245   3.836  1.4313  0.2050 -0.9751
  111bbb     H8 2778   8.624   8.383   3.786 -1.1319  0.3766 -0.7805
  111bbb     C5 2779   8.527   8.189   3.773 -0.0935 -0.6422 -0.0670
  111bbb     H9 2780   8.446   8.235   3.715  1.1054  3.7069  1.2926
  111bbb    H10 2781   8.556   8.089   3.739  0.6552 -0.5731  0.3366
  111bbb     C6 2782   8.648   8.305   3.387 -0.0309  0.4168  0.2756
  111bbb    H11 2783   8.753   8.306   3.354  0.1186  2.1585  0.7290
  111bbb    H12 2784   8.609   8.204   3.369  0.2504  0.6516 -1.9058
  111bbb     C7 2785   8.481   8.177   3.914 -0.6758  0.1747 -0.3196
  111bbb     C8 2786   8.576   8.396   3.289 -0.1858  0.5185  0.8042
  111bbb     O1 2787   8.554   8.204   4.009 -1.1241  0.4009 -0.3477
  111bbb     O2 2788   8.629   8.498   3.238 -1.1221 -0.4866 -0.6964
  111bbb     N4 2789   8.902   8.061   3.600  0.0251 -0.1529  0.6536
  111bbb    H21 2790   8.831   8.063   3.528  0.0890 -0.3699  0.5831
  112bbb     C1 2791   7.637   7.473   2.057  0.4328  0.0913 -0.4974
  112bbb     H1 2792   7.623   7.405   2.142 -0.7436  2.0334  0.9721
  112bbb     H2 2793   7.740   7.455   2.022  0.7759  0.3578  0.3431
  112bbb     C2 2794   7.626   7.619   2.109  1.0998 -0.1649  0.1192
  112bbb     H3 2795   7.638   7.695   2.031 -0.2098  0.9573  0.9788
  112bbb     H4 2796   7.519   7.631   2.127  1.3083 -0.5002  1.6932
  112bbb     N1 2797   7.533   7.449   1.954  0.1175  0.0902 -0.1439
  112bbb     C3 2798   7.592   7.449   1.825  0.2197 -0.1992  0.9324
  112bbb     H5 2799   7.530   7.401   1.749  1.4951 -0.9311  0.3131
  112bbb     H6 2800   7.681   7.385   1.820  0.3921  0.1396 -1.9532
  112bbb     C4 2801   7.460   7.325   1.976 -0.6704  0.2566  0.1633
  112bbb     H7 2802   7.393   7.315   1.889  1.2495 -0.7402 -1.2675
  112bbb     H8 2803   7.521   7.235   1.987 -2.5988 -0.9308  2.0406
  112bbb     C5 2804   7.374   7.348   2.109  1.0154  0.3037  0.2403
  112bbb     H9 2805   7.437   7.314   2.192 -0.1534  3.3368  2.5545
  112bbb    H10 2806   7.373   7.453   2.139 -0.0406  0.0601  1.1068
  112bbb     C6 2807   7.630   7.589   1.788  0.5995 -0.5408  0.2233
  112bbb    H11 2808   7.547   7.659   1.808  0.2146 -0.4328 -1.5612
  112bbb    H12 2809   7.720   7.613   1.846  1.6390  1.5508 -2.0786
  112bbb     C7 2810   7.235   7.289   2.125  0.0380  0.0253 -0.7678
  112bbb     C8 2811   7.661   7.593   1.639 -0.2627 -0.4194  0.2323
  112bbb     O1 2812   7.214   7.187   2.189  0.3716  0.1980 -0.0231
  112bbb     O2 2813   7.770   7.578   1.595  0.2997 -0.9836 -0.3074
  112bbb     N4 2814   7.702   7.641   2.231 -0.5223 -0.0603  0.1050
  112bbb    H21 2815   7.717   7.576   2.307  4.5577  0.4749 -0.0550
  113bbb     C1 2816   7.606   7.344   3.067  0.9731  0.6044 -0.6390
  113bbb     H1 2817   7.641   7.348   2.963 -0.3264 -1.0955 -1.1810
  113bbb     H2 2818   7.513   7.287   3.064  1.6258 -0.4430 -2.0631
  113bbb     C2 2819   7.561   7.488   3.104 -0.1353 -0.3387 -0.7411
  113bbb     H3 2820   7.453   7.494   3.087 -0.2191 -0.9635 -0.4809
  113bbb     H4 2821   7.574   7.494   3.213  0.8488  0.4166 -0.8834
  113bbb     N1 2822   7.701   7.283   3.160 -0.1077 -0.3994  0.3966
  113bbb     C3 2823   7.832   7.347   3.164  0.3358  0.0239 -0.0120
  113bbb     H5 2824   7.880   7.333   3.261  1.7815 -1.4194 -0.8804
  113bbb     H6 2825   7.810   7.454   3.155  0.9892  0.2347  0.8147
  113bbb     C4 2826   7.707   7.138   3.153  0.0821 -0.1160  0.6761
  113bbb     H7 2827   7.706   7.102   3.050  1.2940  2.5668 -0.3547
  113bbb     H8 2828   7.807   7.113   3.193  0.3120  0.5111  0.5062
  113bbb     C5 2829   7.594   7.085   3.231  0.0277  0.2775  0.2709
  113bbb     H9 2830   7.492   7.107   3.197  0.2942  0.9350 -0.1357
  113bbb    H10 2831   7.593   6.978   3.209 -0.8398  0.3747 -0.1731
  113bbb     C6 2832   7.931   7.312   3.049 -1.0599 -0.6386 -0.0776
  113bbb    H11 2833   8.014   7.246   3.077 -0.0792  0.7803  0.5144
  113bbb    H12 2834   7.874   7.275   2.963 -0.1077 -2.1698 -0.0960
  113bbb     C7 2835   7.621   7.111   3.375  1.1084  0.0762  0.5217
  113bbb     C8 2836   8.003   7.446   3.008  0.3744  0.2701  0.5443
  113bbb     O1 2837   7.676   7.030   3.445  0.3219  0.2369 -0.2136
  113bbb     O2 2838   7.976   7.514   2.909  0.2317 -0.2233  0.1168
  113bbb     N4 2839   7.639   7.587   3.020 -0.7082 -0.4629 -0.2293
  113bbb    H21 2840   7.722   7.635   3.055 -1.0593  0.1327 -0.1917
  114bbb     C1 2841   9.095   9.767   2.379  0.7744  0.1342 -0.2667
  114bbb     H1 2842   9.053   9.820   2.466  1.8342 -2.2595  1.8376
  114bbb     H2 2843   9.010   9.758   2.311 -0.6375 -1.5287  1.6008
  114bbb     C2 2844   9.157   9.640   2.432  0.6744 -0.2964 -0.0844
  114bbb     H3 2845   9.186   9.574   2.349 -1.9500 -1.1082 -0.4638
  114bbb     H4 2846   9.243   9.651   2.498  2.5018 -3.9286 -1.5889
  114bbb     N1 2847   9.185   9.866   2.314  0.1831  0.1452  0.0204
  114bbb     C3 2848   9.222   9.820   2.187  0.6369 -0.4926 -0.2256
  114bbb     H5 2849   9.132   9.784   2.136  0.1494 -0.4035  0.5446
  114bbb     H6 2850   9.290   9.736   2.203  2.2869  0.5459 -1.4840
  114bbb     C4 2851   9.300   9.897   2.398  0.3018  0.6078  0.4333
  114bbb     H7 2852   9.358   9.807   2.420 -0.2559 -0.0403 -0.6540
  114bbb     H8 2853   9.376   9.957   2.347  1.9047 -1.6353  0.0248
  114bbb     C5 2854   9.266   9.971   2.524 -0.3856  0.0205 -0.5199
  114bbb     H9 2855   9.193  10.051   2.504  0.4729  1.2141  0.8763
  114bbb    H10 2856   9.219   9.906   2.599  0.9687 -0.8577 -0.3996
  114bbb     C6 2857   9.293   9.917   2.098 -0.7529 -0.8991  0.2860
  114bbb    H11 2858   9.228  10.005   2.088  0.2799 -0.3656 -2.4902
  114bbb    H12 2859   9.387   9.960   2.135 -1.1703  1.6940 -1.4138
  114bbb     C7 2860   9.382  10.028   2.583 -0.0337  0.4575 -0.5011
  114bbb     C8 2861   9.314   9.857   1.966  0.2291  0.0834 -0.3950
  114bbb     O1 2862   9.439   9.966   2.668  0.5290 -0.3014 -0.2255
  114bbb     O2 2863   9.293   9.738   1.947  0.5754 -0.2284  0.6173
  114bbb     N4 2864   9.050   9.576   2.507  0.1345 -0.7952 -0.3379
  114bbb    H21 2865   8.981   9.632   2.554 -0.8766 -0.9639 -1.5676
  115bbb     C1 2866   8.604   9.688   2.899  0.1099 -0.0036 -0.7359
  115bbb     H1 2867   8.507   9.724   2.863 -0.2997 -2.0488 -1.8616
  115bbb     H2 2868   8.683   9.731   2.837 -0.5405 -0.3816 -1.8412
  115bbb     C2 2869   8.601   9.532   2.865  0.5054  0.0201  0.6085
  115bbb     H3 2870   8.695   9.489   2.901  1.4241 -0.3996 -2.0499
  115bbb     H4 2871   8.521   9.480   2.918  0.6139 -0.1382  0.6167
  115bbb     N1 2872   8.627   9.717   3.039  0.1130 -0.7297 -0.3288
  115bbb     C3 2873   8.641   9.865   3.050 -0.0343  1.3795 -0.0613
  115bbb     H5 2874   8.563   9.905   3.115 -0.2161 -0.0083  0.6053
  115bbb     H6 2875   8.649   9.912   2.951  0.4088  0.0203 -0.6965
  115bbb     C4 2876   8.514   9.678   3.125  0.5085 -0.1428  0.5201
  115bbb     H7 2877   8.438   9.757   3.117  0.1430 -0.5633 -0.2319
  115bbb     H8 2878   8.471   9.591   3.074  2.2448 -0.8414  0.1622
  115bbb     C5 2879   8.565   9.650   3.264  0.2875 -0.4867 -0.0480
  115bbb     H9 2880   8.641   9.571   3.258  1.9128  0.9881  0.3520
  115bbb    H10 2881   8.619   9.735   3.309 -2.6580  0.8345  1.2981
  115bbb     C6 2882   8.779   9.892   3.122  0.5585  0.3628 -0.3709
  115bbb    H11 2883   8.799   9.821   3.202  0.8350 -1.0172 -1.6217
  115bbb    H12 2884   8.854   9.861   3.049  1.2134  0.0016  0.4469
  115bbb     C7 2885   8.451   9.626   3.361 -0.0296  0.2965 -0.1173
  115bbb     C8 2886   8.791  10.033   3.164 -0.0751 -0.4331  0.0669
  115bbb     O1 2887   8.341   9.584   3.335  0.4962  0.0047 -0.2088
  115bbb     O2 2888   8.698  10.108   3.180  0.2112  0.1079 -0.0202
  115bbb     N4 2889   8.590   9.505   2.723 -0.4833 -0.1957 -0.1502
  115bbb    H21 2890   8.670   9.509   2.660 -1.1015  0.5754 -0.9267
  116bbb     C1 2891   9.205   8.363   4.279 -0.6203  0.2795  0.6030
  116bbb     H1 2892   9.120   8.327   4.338 -0.7057  1.1547  1.0274
  116bbb     H2 2893   9.294   8.353   4.343  0.7674  0.7078 -1.1961
  116bbb     C2 2894   9.182   8.509   4.245  0.6308 -0.3368 -0.7375
  116bbb     H3 2895   9.148   8.553   4.340  0.3839 -0.9355 -0.5417
  116bbb     H4 2896   9.280   8.555   4.224  1.0477 -0.9001 -0.0659
  116bbb     N1 2897   9.219   8.279   4.153 -0.0502  0.1478 -1.0177
  116bbb     C3 2898   9.220   8.133   4.178 -0.2002  0.1242 -0.5594
  116bbb     H5 2899   9.165   8.103   4.267 -1.1280 -0.9845 -1.4784
  116bbb     H6 2900   9.324   8.098   4.182  0.4443  1.7341 -1.7949
  116bbb     C4 2901   9.325   8.326   4.064  0.7657  0.4726 -0.2916
  116bbb     H7 2902   9.316   8.268   3.972 -2.0305 -0.5722  0.5073
  116bbb     H8 2903   9.305   8.429   4.030 -3.1019  0.4932  1.4509
  116bbb     C5 2904   9.468   8.313   4.122  0.2498  0.4775  0.3204
  116bbb     H9 2905   9.477   8.385   4.203 -0.0971 -0.1707  0.9468
  116bbb    H10 2906   9.496   8.213   4.158  1.8473 -0.1306 -2.2788
  116bbb     C6 2907   9.156   8.055   4.062  0.1617  0.0874  0.4804
  116bbb    H11 2908   9.052   8.086   4.050  0.1819 -0.2814 -0.7566
  116bbb    H12 2909   9.218   8.081   3.975  0.7121  3.0028  1.6138
  116bbb     C7 2910   9.567   8.351   4.016 -0.0531  1.2686  1.0955
  116bbb     C8 2911   9.167   7.906   4.082  0.4100 -0.7435 -0.0402
  116bbb     O1 2912   9.579   8.462   3.979  0.4204  0.3812 -0.4791
  116bbb     O2 2913   9.225   7.863   4.184 -0.0612 -0.8857  0.3720
  116bbb     N4 2914   9.079   8.539   4.144 -0.2394  0.5850  0.6168
  116bbb    H21 2915   9.062   8.460   4.083  0.4515  1.4741 -0.7686
  117bbb     C1 2916   9.718   8.450   3.530 -0.4424  0.0037  0.2825
  117bbb     H1 2917   9.659   8.436   3.438  1.3603  1.0808 -1.0964
  117bbb     H2 2918   9.728   8.352   3.579  0.8717  0.4996  1.0472
  117bbb     C2 2919   9.649   8.549   3.626  0.2132  0.1315 -0.1450
  117bbb     H3 2920   9.724   8.583   3.698 -1.1776 -0.4353  1.6337
  117bbb     H4 2921   9.620   8.636   3.566 -0.9565  1.5493  2.3231
  117bbb     N1 2922   9.849   8.496   3.483  0.1587 -0.0469 -0.5129
  117bbb     C3 2923   9.909   8.372   3.420 -1.0440 -0.7820 -0.2808
  117bbb     H5 2924  10.000   8.385   3.362 -0.9526  1.4704  0.2776
  117bbb     H6 2925   9.841   8.324   3.348 -0.8158 -1.1669 -0.2429
  117bbb     C4 2926   9.837   8.604   3.380  0.5043 -0.8135 -0.0597
  117bbb     H7 2927   9.761   8.576   3.305  1.0854 -1.1866 -0.5167
  117bbb     H8 2928   9.807   8.697   3.429 -1.8291 -0.6395 -1.6477
  117bbb     C5 2929   9.964   8.633   3.302  0.0726  0.2521  0.2575
  117bbb     H9 2930  10.053   8.638   3.364 -0.0997  1.9155  0.4181
  117bbb    H10 2931   9.980   8.553   3.229 -1.0865 -0.3713  0.6598
  117bbb     C6 2932   9.963   8.276   3.526  0.5879 -0.7946  0.5399
  117bbb    H11 2933  10.017   8.337   3.599 -1.1316  0.5314  0.7694
  117bbb    H12 2934   9.889   8.227   3.591  0.6808 -0.5791  0.8050
  117bbb     C7 2935   9.947   8.758   3.222 -0.0450  0.0225 -0.3865
  117bbb     C8 2936  10.037   8.167   3.463 -0.2654 -0.2692 -0.3858
  117bbb     O1 2937   9.987   8.866   3.262  0.0803 -0.4745  0.1665
  117bbb     O2 2938  10.082   8.165   3.352 -0.3208  0.7865 -0.0140
  117bbb     N4 2939   9.531   8.510   3.703  0.1492  0.5230  0.7386
  117bbb    H21 2940   9.527   8.514   3.804 -0.4420 -0.3198  0.7604
  118bbb     C1 2941   7.503  10.490   1.601 -0.1045  0.5229  0.0377
  118bbb     H1 2942   7.508  10.489   1.491 -0.0223  1.0731  0.0346
  118bbb     H2 2943   7.594  10.449   1.645 -1.7246 -2.8209  0.6116
  118bbb     C2 2944   7.396  10.377   1.636  0.3899  0.8492  0.9348
  118bbb     H3 2945   7.358  10.371   1.738 -1.7309 -0.8809  0.1116
  118bbb     H4 2946   7.306  10.402   1.579 -0.9336 -3.3929  0.8195
  118bbb     N1 2947   7.474  10.617   1.663 -0.1097 -0.1762 -0.4904
  118bbb     C3 2948   7.566  10.718   1.602  0.0212  0.2010  0.2645
  118bbb     H5 2949   7.531  10.734   1.499  2.1007 -1.2478 -0.7220
  118bbb     H6 2950   7.663  10.670   1.586 -1.1210 -1.7632 -1.1007
  118bbb     C4 2951   7.336  10.668   1.629  0.1899  0.9263  0.1599
  118bbb     H7 2952   7.331  10.775   1.652  1.5309  0.7849  1.2406
  118bbb     H8 2953   7.320  10.665   1.521 -2.2564  1.2029  0.4686
  118bbb     C5 2954   7.227  10.617   1.722  0.1316  0.3927 -0.2286
  118bbb     H9 2955   7.139  10.682   1.711  0.5806  1.0716  0.1110
  118bbb    H10 2956   7.192  10.518   1.692 -0.5990 -0.8015  3.9290
  118bbb     C6 2957   7.580  10.847   1.684  0.6933 -0.4101  0.1822
  118bbb    H11 2958   7.501  10.916   1.653 -1.8744 -3.7132 -1.2452
  118bbb    H12 2959   7.565  10.817   1.789  2.0850  1.2711  0.9231
  118bbb     C7 2960   7.253  10.612   1.872 -0.0803  0.1039  0.2719
  118bbb     C8 2961   7.713  10.914   1.672  0.8326 -0.3850  0.5644
  118bbb     O1 2962   7.260  10.514   1.940  0.4330  0.1316  0.2448
  118bbb     O2 2963   7.786  10.905   1.579 -0.1981  0.3078  0.1238
  118bbb     N4 2964   7.451  10.242   1.594  0.6561  0.1154  0.0822
  118bbb    H21 2965   7.410  10.199   1.512 -0.0071 -0.8945  0.9142
  119bbb     C1 2966   7.830   9.193   1.425 -0.3888  0.4088  0.2735
  119bbb     H1 2967   7.764   9.184   1.338  1.4773  0.7120 -1.2412
  119bbb     H2 2968   7.773   9.171   1.516 -0.9647 -0.2385 -0.2385
  119bbb     C2 2969   7.870   9.342   1.426 -0.3834 -0.1652  0.5241
  119bbb     H3 2970   7.953   9.347   1.499 -2.2557 -0.9528  2.8358
  119bbb     H4 2971   7.905   9.380   1.329  0.6552 -0.6896  0.6747
  119bbb     N1 2972   7.948   9.105   1.424  0.0531 -0.2938  0.6035
  119bbb     C3 2973   8.022   9.122   1.296  0.9909 -0.5551  0.1247
  119bbb     H5 2974   8.023   9.226   1.261  2.7258  0.1235  1.9936
  119bbb     H6 2975   7.973   9.067   1.215  1.8510 -1.5295  0.2469
  119bbb     C4 2976   7.906   8.970   1.451  0.6118 -0.2827 -0.1322
  119bbb     H7 2977   7.808   8.950   1.405  0.5179 -1.2749  0.4762
  119bbb     H8 2978   7.979   8.903   1.404  0.7040 -1.2490  1.3331
  119bbb     C5 2979   7.918   8.948   1.603  0.0848  0.0985 -0.1250
  119bbb     H9 2980   8.025   8.961   1.624 -0.0978 -0.4583  1.2746
  119bbb    H10 2981   7.858   9.024   1.654 -2.0777  0.4080 -2.8548
  119bbb     C6 2982   8.169   9.084   1.323  0.3636 -0.5562 -0.2309
  119bbb    H11 2983   8.215   9.155   1.393 -0.5226 -0.7893  0.5985
  119bbb    H12 2984   8.186   8.981   1.355 -0.8358 -0.9204 -0.7217
  119bbb     C7 2985   7.887   8.808   1.645  1.2052  0.2489  0.2761
  119bbb     C8 2986   8.239   9.111   1.191 -0.1661  0.1494 -0.2931
  119bbb     O1 2987   7.816   8.729   1.582 -0.1898 -0.6810  0.0136
  119bbb     O2 2988   8.278   9.221   1.167  0.1237  0.3302 -0.0031
  119bbb     N4 2989   7.762   9.417   1.494  0.1418  0.8004 -0.5161
  119bbb    H21 2990   7.671   9.373   1.499 -0.6618  2.4569  0.2907
  120bbb     C1 2991   7.112   8.104   1.785 -0.3662  0.0203  0.2821
  120bbb     H1 2992   7.093   8.208   1.816  0.6983  0.3838 -0.2593
  120bbb     H2 2993   7.219   8.090   1.770 -0.0257 -0.9856  3.0732
  120bbb     C2 2994   7.027   8.099   1.658 -0.3027  0.1672  0.2629
  120bbb     H3 2995   7.049   7.998   1.620  0.2544 -0.8617  3.1110
  120bbb     H4 2996   6.922   8.117   1.684 -0.7800  0.1284 -1.4577
  120bbb     N1 2997   7.056   8.013   1.887  0.3099  0.8097 -1.0917
  120bbb     C3 2998   7.026   8.088   2.010 -0.2440 -0.6027 -0.4395
  120bbb     H5 2999   7.118   8.135   2.047 -1.6892 -0.3162  3.2261
  120bbb     H6 3000   6.993   8.018   2.088 -0.8575  1.6288  1.3939
  120bbb     C4 3001   7.142   7.897   1.916 -0.1070  0.4838 -0.8331
  120bbb     H7 3002   7.241   7.922   1.956 -0.6396 -0.9896  1.6420
  120bbb     H8 3003   7.087   7.839   1.991  1.5645 -0.4707 -0.3098
  120bbb     C5 3004   7.150   7.817   1.785  0.4684 -0.2631  0.1152
  120bbb     H9 3005   7.054   7.798   1.736  0.2327 -0.1124  0.5162
  120bbb    H10 3006   7.214   7.863   1.708  1.5606 -1.0271  0.5469
  120bbb     C6 3007   6.899   8.174   1.991 -0.3800 -0.5841 -0.2966
  120bbb    H11 3008   6.903   8.243   1.905  3.0887  2.5108  2.0354
  120bbb    H12 3009   6.813   8.107   1.986 -0.6125 -0.2725 -0.5186
  120bbb     C7 3010   7.211   7.687   1.794 -0.3342 -0.7085  0.5160
  120bbb     C8 3011   6.873   8.256   2.112  0.2227  0.4865  0.1764
  120bbb     O1 3012   7.220   7.624   1.896  0.3123  0.1852  0.8266
  120bbb     O2 3013   6.890   8.221   2.226 -0.3509  0.9445  0.4552
  120bbb     N4 3014   7.068   8.201   1.559 -0.3851  0.2495  0.3618
  120bbb    H21 3015   7.145   8.265   1.575  0.8458 -0.6569 -1.6610
  121bbb     C1 3016   6.511   8.571   0.838  0.0168  0.0524 -0.1398
  121bbb     H1 3017   6.519   8.481   0.900  1.1587 -0.4514 -0.9905
  121bbb     H2 3018   6.458   8.562   0.743 -2.6038  1.3745  1.0856
  121bbb     C2 3019   6.660   8.599   0.823 -0.8949  0.2690 -0.0751
  121bbb     H3 3020   6.706   8.506   0.788 -1.1404  0.0361  0.2129
  121bbb     H4 3021   6.669   8.678   0.747 -0.8713  0.5989  0.2676
  121bbb     N1 3022   6.446   8.686   0.894 -0.2914 -0.9621 -0.0086
  121bbb     C3 3023   6.329   8.643   0.965  0.1879  0.8803 -0.0863
  121bbb     H5 3024   6.289   8.558   0.908 -0.0935  0.7295  0.3340
  121bbb     H6 3025   6.257   8.725   0.975  0.5157  0.9740  2.2333
  121bbb     C4 3026   6.402   8.776   0.788  0.3598  0.2377 -0.2438
  121bbb     H7 3027   6.476   8.783   0.708  2.0452  1.9726  1.3452
  121bbb     H8 3028   6.310   8.742   0.740  0.8972 -0.6730 -0.6464
  121bbb     C5 3029   6.392   8.917   0.848 -0.7339  0.3071  0.1326
  121bbb     H9 3030   6.332   8.918   0.940 -0.4863 -0.6769  0.3137
  121bbb    H10 3031   6.488   8.967   0.864 -0.2994  0.0083 -1.3515
  121bbb     C6 3032   6.350   8.585   1.110  0.0020 -0.4559 -0.0031
  121bbb    H11 3033   6.276   8.512   1.143  0.3323 -0.1755  1.4531
  121bbb    H12 3034   6.448   8.536   1.106 -0.3990 -1.2737  0.0989
  121bbb     C7 3035   6.317   9.018   0.761  0.0244 -0.4486  0.2551
  121bbb     C8 3036   6.361   8.688   1.215 -0.6697 -0.1815  0.0542
  121bbb     O1 3037   6.321   9.030   0.638  0.3792 -0.2492 -0.6142
  121bbb     O2 3038   6.464   8.719   1.275  0.4094 -0.5689  0.4670
  121bbb     N4 3039   6.735   8.648   0.945  0.5546 -0.4323  0.3079
  121bbb    H21 3040   6.695   8.720   1.003 -1.3331  2.0426 -3.6373
  122bbb     C1 3041   6.688   8.964   3.797  0.3691  0.2417 -0.0273
  122bbb     H1 3042   6.683   9.074   3.787 -2.0828  0.1905  0.1947
  122bbb     H2 3043   6.697   8.946   3.904  1.5872  2.0539  0.2319
  122bbb     C2 3044   6.810   8.906   3.718 -0.5900  0.2373 -0.1422
  122bbb     H3 3045   6.805   8.951   3.618 -0.9768 -0.2461 -0.3482
  122bbb     H4 3046   6.900   8.945   3.765 -0.6994  1.7817 -1.1352
  122bbb     N1 3047   6.565   8.904   3.756 -0.0775  0.0859 -0.1330
  122bbb     C3 3048   6.511   8.952   3.631  0.0079  0.2920  0.9686
  122bbb     H5 3049   6.591   8.969   3.557 -0.2244 -3.5644 -0.3835
  122bbb     H6 3050   6.462   9.050   3.642  0.6794  0.7750 -0.1855
  122bbb     C4 3051   6.460   8.906   3.856  0.0619  0.3212  0.1915
  122bbb     H7 3052   6.490   8.988   3.923 -1.1386  2.1501 -1.4330
  122bbb     H8 3053   6.367   8.931   3.804  2.7064  2.9627 -3.7973
  122bbb     C5 3054   6.464   8.768   3.914 -0.1689  0.2069 -0.1601
  122bbb     H9 3055   6.437   8.699   3.833  1.5941 -1.2991  0.4771
  122bbb    H10 3056   6.565   8.745   3.950  0.1244  1.7671  0.0854
  122bbb     C6 3057   6.428   8.849   3.563 -0.2006 -0.3214  0.1849
  122bbb    H11 3058   6.345   8.815   3.625 -0.3731  0.6337  0.4912
  122bbb    H12 3059   6.393   8.887   3.466  1.7860 -1.3867 -1.0357
  122bbb     C7 3060   6.368   8.746   4.030  0.1368 -0.2772 -0.0877
  122bbb     C8 3061   6.519   8.733   3.521  0.0404 -1.2423 -0.1343
  122bbb     O1 3062   6.328   8.831   4.101 -0.4775 -0.2376 -0.7591
  122bbb     O2 3063   6.615   8.745   3.445 -0.7534 -0.1252  0.6474
  122bbb     N4 3064   6.816   8.755   3.698  0.3340 -0.8011  0.1122
  122bbb    H21 3065   6.791   8.719   3.607 -4.1091 -0.0537  0.8192
  123bbb     C1 3066   7.358   8.884   4.110 -0.1513 -0.1456  0.0049
  123bbb     H1 3067   7.447   8.928   4.156 -0.3724 -0.2686  0.5595
  123bbb     H2 3068   7.275   8.955   4.119  0.5780  0.6157  0.8895
  123bbb     C2 3069   7.315   8.769   4.196 -0.1251  0.6435 -0.4250
  123bbb     H3 3070   7.393   8.696   4.223 -1.8525 -1.2875 -0.3528
  123bbb     H4 3071   7.275   8.814   4.287 -0.9957 -1.2534  0.1867
  123bbb     N1 3072   7.374   8.830   3.972  0.0976 -0.5409  0.3575
  123bbb     C3 3073   7.363   8.941   3.876 -0.4470  0.5406 -0.2240
  123bbb     H5 3074   7.407   8.904   3.782 -1.1548  0.7777 -0.6512
  123bbb     H6 3075   7.428   9.023   3.908  0.7688 -0.5243  0.1304
  123bbb     C4 3076   7.496   8.758   3.952 -0.4674  1.0490 -0.2352
  123bbb     H7 3077   7.572   8.831   3.920 -1.3529  1.8896 -0.4488
  123bbb     H8 3078   7.520   8.703   4.045  1.5554 -0.4725 -1.5617
  123bbb     C5 3079   7.476   8.657   3.841  0.0405  0.5760 -0.4501
  123bbb     H9 3080   7.416   8.575   3.885  1.7255 -0.5846 -0.2033
  123bbb    H10 3081   7.426   8.697   3.752 -1.0049  1.4144  0.4772
  123bbb     C6 3082   7.224   8.985   3.847  0.8814 -0.1632  0.7219
  123bbb    H11 3083   7.179   8.894   3.806  0.5536 -0.0406  0.8038
  123bbb    H12 3084   7.180   9.017   3.943  0.8127 -0.5920  0.8371
  123bbb     C7 3085   7.612   8.601   3.816 -0.0270  0.1262 -0.3310
  123bbb     C8 3086   7.218   9.099   3.754  0.6061 -1.0228  0.2115
  123bbb     O1 3087   7.659   8.501   3.866 -0.0329  0.4543  0.0669
  123bbb     O2 3088   7.300   9.132   3.673  0.0376  0.0057  0.1396
  123bbb     N4 3089   7.204   8.690   4.148  0.1858 -0.5853  0.6752
  123bbb    H21 3090   7.114   8.733   4.130  0.1390 -0.2061  1.7525
  124bbb     C1 3091   5.951   8.681   2.493 -0.6629  0.1636 -0.1882
  124bbb     H1 3092   6.042   8.728   2.454  0.4796  0.8837  3.0818
  124bbb     H2 3093   5.883   8.765   2.510  0.8274  1.7560 -1.7175
  124bbb     C2 3094   5.993   8.610   2.625 -0.4794  0.0852 -0.5768
  124bbb     H3 3095   5.905   8.605   2.690 -1.0914 -0.7962 -1.4628
  124bbb     H4 3096   6.014   8.507   2.596  0.0341 -0.3306  1.1673
  124bbb     N1 3097   5.896   8.583   2.397  0.4888  0.4880  0.1734
  124bbb     C3 3098   5.895   8.627   2.256  0.0536 -0.2812 -0.6136
  124bbb     H5 3099   5.868   8.732   2.244 -2.4985 -0.8637 -0.6618
  124bbb     H6 3100   5.848   8.548   2.196  0.3476 -2.1861  1.4856
  124bbb     C4 3101   5.762   8.531   2.438 -0.9011 -0.8955 -0.0209
  124bbb     H7 3102   5.739   8.545   2.544 -0.4454  0.0763 -0.0302
  124bbb     H8 3103   5.686   8.587   2.382  1.0010  0.8721 -0.9905
  124bbb     C5 3104   5.762   8.381   2.410  0.0148  0.5934  0.1922
  124bbb     H9 3105   5.667   8.364   2.358 -1.4151  1.4262  2.3845
  124bbb    H10 3106   5.848   8.349   2.350 -0.3106 -0.5229  0.3052
  124bbb     C6 3107   6.033   8.625   2.199 -0.1512  0.1983  0.1701
  124bbb    H11 3108   6.076   8.726   2.195  1.4348 -0.3959  1.1376
  124bbb    H12 3109   6.103   8.562   2.255 -0.5312  0.1942  0.6542
  124bbb     C7 3110   5.767   8.291   2.524  0.5067  0.7284 -0.7841
  124bbb     C8 3111   6.033   8.579   2.058 -0.3415  0.2202  0.6728
  124bbb     O1 3112   5.803   8.327   2.633 -0.1198 -0.0015  0.2874
  124bbb     O2 3113   6.019   8.660   1.970 -0.2645  0.4833  0.5253
  124bbb     N4 3114   6.103   8.680   2.695  0.2241 -0.0074  1.0911
  124bbb    H21 3115   6.125   8.774   2.663  1.6524 -1.1285 -1.5560
  125bbb     C1 3116   5.711   8.781   3.374 -0.4566  0.5760  0.5450
  125bbb     H1 3117   5.681   8.698   3.309  1.0121 -0.8040  1.5544
  125bbb     H2 3118   5.636   8.788   3.455  0.4868  0.3965  1.4555
  125bbb     C2 3119   5.703   8.924   3.314  0.0066  0.4078  0.3638
  125bbb     H3 3120   5.598   8.949   3.298 -1.2566 -3.9186  0.6886
  125bbb     H4 3121   5.742   8.992   3.390  2.6185 -0.7348  0.1727
  125bbb     N1 3122   5.845   8.742   3.434 -0.4616 -0.0668  0.1423
  125bbb     C3 3123   5.849   8.599   3.472 -0.4257 -0.4501  0.2365
  125bbb     H5 3124   5.756   8.559   3.513 -1.4437 -0.9674 -2.4185
  125bbb     H6 3125   5.928   8.586   3.547 -1.0794  1.3754  1.3074
  125bbb     C4 3126   5.889   8.823   3.542  0.1186 -0.3989 -0.4835
  125bbb     H7 3127   5.863   8.927   3.519 -0.9610 -0.4230  0.5237
  125bbb     H8 3128   5.832   8.804   3.634  0.0669  3.0986  0.3475
  125bbb     C5 3129   6.045   8.806   3.561  0.7706  1.0483  0.1163
  125bbb     H9 3130   6.073   8.715   3.615  4.1117  2.1612  0.4967
  125bbb    H10 3131   6.091   8.804   3.461  2.7186 -1.7574  0.9643
  125bbb     C6 3132   5.883   8.510   3.348 -0.4261 -0.1228 -0.2692
  125bbb    H11 3133   5.802   8.519   3.275 -0.0072 -1.6304 -0.9432
  125bbb    H12 3134   5.972   8.552   3.299  0.1699  2.4678  2.7036
  125bbb     C7 3135   6.096   8.919   3.639 -0.5700 -0.1350 -0.4595
  125bbb     C8 3136   5.915   8.373   3.396  0.2388  0.0046  0.1335
  125bbb     O1 3137   6.146   9.013   3.589  0.5153  0.1978  0.0422
  125bbb     O2 3138   5.896   8.341   3.514 -0.7424 -0.2601 -0.3453
  125bbb     N4 3139   5.798   8.933   3.203  0.0086  0.2869 -0.0871
  125bbb    H21 3140   5.809   8.866   3.127  1.8385  1.6185 -1.1004
  126ccc     N1 3141   5.898  11.225   0.600  0.1215 -1.0280  0.0255
  126ccc     H4 3142   5.896  11.157   0.524 -0.1611 -1.4076  0.3714
  126ccc     C3 3143   5.776  11.310   0.610  0.6252  0.0099 -0.4067
  126ccc     H5 3144   5.688  11.248   0.632 -0.7003  1.6595 -0.8334
  126ccc     C4 3145   5.752  11.405   0.489  0.3853  0.0356  0.0774
  126ccc     H6 3146   5.778  11.366   0.704  0.6618 -1.2922  0.3826
  126ccc     H7 3147   5.791  11.352   0.402 -0.8909  2.6463 -2.2448
  126ccc     H8 3148   5.827  11.483   0.508  0.8397 -0.5050  0.5687
  126ccc     N2 3149   5.616  11.453   0.468  0.3835 -0.3706 -0.1309
  126ccc     C5 3150   5.504  11.353   0.439 -0.2320 -0.6204  0.0989
  126ccc     C6 3151   5.566  11.539   0.580 -0.1384 -0.1380  0.6007
  126ccc     H9 3152   5.479  11.585   0.533  1.3070  0.7290 -1.3884
  126ccc     C7 3153   5.661  11.654   0.630 -0.4911 -0.8705 -0.1381
  126ccc    H10 3154   5.541  11.482   0.670  0.3919  0.8627  1.4018
  126ccc    H11 3155   5.703  11.709   0.545  0.2834  0.3263  0.9735
  126ccc    H12 3156   5.752  11.623   0.683 -1.0321  2.5065  3.1949
  126ccc     C8 3157   5.593  11.755   0.725 -0.6607 -0.3598 -0.0165
  126ccc     O2 3158   5.476  11.781   0.709  0.0364  0.1452 -0.0561
  126ccc     O3 3159   5.657  11.798   0.821 -0.0124  0.0633 -0.0354
  126ccc    H13 3160   5.410  11.401   0.411 -0.5514 -1.0983  0.3335
  126ccc    H14 3161   5.494  11.285   0.525 -1.3301  0.8819  1.1874
  126ccc     C9 3162   5.521  11.260   0.319 -0.0805  0.1261 -0.3230
  126ccc    H15 3163   5.593  11.183   0.348 -2.0942 -0.8040  2.5758
  126ccc    H16 3164   5.548  11.316   0.228 -0.3738 -0.0824 -0.5402
  126ccc    C10 3165   5.391  11.194   0.278 -0.0993  0.6193 -0.3760
  126ccc     O4 3166   5.337  11.113   0.357 -1.0991  0.1229  0.2493
  126ccc     O5 3167   5.324  11.229   0.184  0.3818 -1.0216 -0.3222
  127ccc     N1 3168   6.063  10.852   0.332  0.1829 -0.3264 -0.4734
  127ccc     H4 3169   5.991  10.919   0.358  1.0428 -0.0569  1.3324
  127ccc     C3 3170   6.032  10.712   0.328  0.6557  0.2055  0.7623
  127ccc     H5 3171   6.070  10.657   0.241  0.4143  0.3540  0.5634
  127ccc     C4 3172   5.879  10.682   0.337 -0.0191  0.2232  0.5448
  127ccc     H6 3173   6.069  10.662   0.419  1.9048  1.1216  0.7887
  127ccc     H7 3174   5.849  10.707   0.440  1.9369  1.2345  0.9108
  127ccc     H8 3175   5.858  10.575   0.326 -0.2245  0.3344 -0.2096
  127ccc     N2 3176   5.797  10.756   0.236 -0.2488 -0.2804 -0.6376
  127ccc     C5 3177   5.649  10.731   0.253  0.5014  0.3169  0.1740
  127ccc     C6 3178   5.843  10.749   0.092  0.4068 -0.5033 -0.4463
  127ccc     H9 3179   5.783  10.819   0.031  0.2993 -0.7015 -0.5676
  127ccc     C7 3180   5.816  10.612   0.022  0.4030  0.1712 -0.9138
  127ccc    H10 3181   5.945  10.788   0.081 -0.3379  1.6942 -0.2124
  127ccc    H11 3182   5.707  10.620   0.018  0.3441 -0.0516  0.1127
  127ccc    H12 3183   5.839  10.529   0.090 -1.4349 -0.7061 -1.2852
  127ccc     C8 3184   5.875  10.606  -0.115  0.0561  0.5607  0.5883
  127ccc     O2 3185   5.995  10.607  -0.132 -0.1444  0.8154  0.5584
  127ccc     O3 3186   5.807  10.569  -0.211  0.4111 -0.1531  0.6943
  127ccc    H13 3187   5.628  10.746   0.359 -3.0860 -0.5105 -0.2884
  127ccc    H14 3188   5.627  10.628   0.222  1.4306 -0.1170  0.9170
  127ccc     C9 3189   5.548  10.835   0.202 -1.0368 -0.4102  0.2027
  127ccc    H15 3190   5.541  10.812   0.095  0.5888 -3.9375  0.7202
  127ccc    H16 3191   5.593  10.933   0.219 -1.1839 -0.3344  0.1491
  127ccc    C10 3192   5.406  10.817   0.260 -0.2054  0.5177  0.7615
  127ccc     O4 3193   5.315  10.790   0.185  0.3129 -0.2293 -0.6325
  127ccc     O5 3194   5.382  10.817   0.380  0.4586 -0.7078 -0.2120
  128ccc     N1 3195   5.535  10.457   1.465 -0.4435  0.4487 -0.6779
  128ccc     H4 3196   5.620  10.499   1.429 -0.0860 -1.7361 -2.5828
  128ccc     C3 3197   5.468  10.511   1.584  0.4390 -0.0971 -0.4432
  128ccc     H5 3198   5.484  10.620   1.579 -0.5657  0.0539 -0.7139
  128ccc     C4 3199   5.522  10.447   1.714 -0.7392  0.7066  0.2506
  128ccc     H6 3200   5.361  10.488   1.574  0.3075  0.6564 -0.9024
  128ccc     H7 3201   5.631  10.444   1.701 -0.9868  0.3147 -2.2174
  128ccc     H8 3202   5.484  10.344   1.713 -2.9201  1.4580 -1.0067
  128ccc     N2 3203   5.474  10.514   1.838 -0.3260 -0.2431  0.8537
  128ccc     C5 3204   5.466  10.659   1.843  0.8271 -0.6808 -0.2994
  128ccc     C6 3205   5.538  10.472   1.959  0.3191  0.9751  0.4793
  128ccc     H9 3206   5.646  10.483   1.946  0.5967 -0.8045  0.9498
  128ccc     C7 3207   5.521  10.319   1.983 -0.2316 -0.4099  0.2903
  128ccc    H10 3208   5.500  10.523   2.049 -1.3527  1.0347 -0.2389
  128ccc    H11 3209   5.597  10.273   1.919  0.8742 -0.2484  1.4637
  128ccc    H12 3210   5.421  10.298   1.942 -0.4319  1.1965 -0.1445
  128ccc     C8 3211   5.538  10.262   2.119  0.2306  0.5654 -0.3618
  128ccc     O2 3212   5.643  10.279   2.183  0.4051  0.6639  0.1402
  128ccc     O3 3213   5.448  10.206   2.175 -0.0456 -0.1096 -0.2992
  128ccc    H13 3214   5.419  10.688   1.938  1.0271  0.4290 -0.5139
  128ccc    H14 3215   5.401  10.702   1.765  1.1639  0.7145  0.1528
  128ccc     C9 3216   5.605  10.727   1.840  0.2368  0.2308  0.6687
  128ccc    H15 3217   5.673  10.659   1.787  0.6249  0.3121  1.0551
  128ccc    H16 3218   5.639  10.733   1.944  0.8030 -0.9186  0.5713
  128ccc    C10 3219   5.615  10.869   1.777  0.0822 -0.1767 -0.8293
  128ccc     O4 3220   5.587  10.969   1.845 -0.5463 -0.1125  0.2422
  128ccc     O5 3221   5.621  10.883   1.658 -0.6300 -0.4680  0.0342
  129ccc     N1 3222   5.447   9.887   0.860 -0.5062  0.4516  0.5066
  129ccc     H4 3223   5.381   9.887   0.937 -0.9362  0.4363  0.1366
  129ccc     C3 3224   5.433   9.762   0.781 -0.5492 -0.1393 -0.5393
  129ccc     H5 3225   5.420   9.787   0.675  0.9430  1.3823 -0.4203
  129ccc     C4 3226   5.300   9.707   0.825 -0.6395  0.2300  0.4396
  129ccc     H6 3227   5.518   9.692   0.791 -1.7368 -1.5140  0.3495
  129ccc     H7 3228   5.272   9.611   0.780 -0.5765 -0.6809  2.2561
  129ccc     H8 3229   5.219   9.774   0.797  0.4433  0.3580 -2.8018
  129ccc     N2 3230   5.293   9.678   0.973 -0.0704  0.0492 -0.0170
  129ccc     C5 3231   5.163   9.731   1.038 -0.5337  0.1845 -0.0932
  129ccc     C6 3232   5.315   9.535   1.006 -0.0447 -0.7581 -0.0868
  129ccc     H9 3233   5.298   9.528   1.114 -1.1235  1.2183 -0.0932
  129ccc     C7 3234   5.456   9.486   0.969  0.6463 -0.3014 -0.3542
  129ccc    H10 3235   5.243   9.465   0.962 -0.6201 -0.3024  0.1212
  129ccc    H11 3236   5.519   9.564   1.013  0.5026 -0.2210 -0.2908
  129ccc    H12 3237   5.474   9.484   0.861 -0.3477 -0.3689 -0.5264
  129ccc     C8 3238   5.499   9.351   1.029 -0.0321  0.1338  0.3109
  129ccc     O2 3239   5.458   9.246   0.979 -0.4755 -0.0783  0.0456
  129ccc     O3 3240   5.549   9.351   1.141 -0.4506 -0.0883  0.0874
  129ccc    H13 3241   5.147   9.679   1.133 -2.9062  2.2976  0.7955
  129ccc    H14 3242   5.083   9.701   0.969 -0.4906  0.2835 -0.1862
  129ccc     C9 3243   5.165   9.881   1.062 -0.3438  0.8567 -0.9662
  129ccc    H15 3244   5.184   9.947   0.977 -1.9233  1.9409 -0.5314
  129ccc    H16 3245   5.243   9.894   1.138 -0.0486 -0.5382 -0.9949
  129ccc    C10 3246   5.036   9.916   1.120  0.0724 -0.3252  0.8807
  129ccc     O4 3247   5.015   9.917   1.237 -0.4219  0.2677 -0.7377
  129ccc     O5 3248   4.938   9.928   1.043 -0.2195 -0.1966 -0.7926
  130ccc     N1 3249   7.409  11.092   0.376  0.1749 -0.8504 -0.0552
  130ccc     H4 3250   7.442  11.052   0.463  0.5951 -0.0659  0.1602
  130ccc     C3 3251   7.468  11.025   0.265 -0.2815 -0.1032 -0.1550
  130ccc     H5 3252   7.454  10.918   0.284  0.3757  0.4229  4.5971
  130ccc     C4 3253   7.618  11.054   0.260  0.7835  0.5430  0.0850
  130ccc     H6 3254   7.429  11.056   0.168  1.2277 -2.6287 -1.6552
  130ccc     H7 3255   7.656  11.049   0.363 -1.6792 -0.3974  1.0358
  130ccc     H8 3256   7.625  11.159   0.231 -1.4244  1.3526  2.1451
  130ccc     N2 3257   7.698  10.967   0.172  0.8430  0.7903  0.2877
  130ccc     C5 3258   7.691  10.819   0.213 -0.3159 -0.2989  0.0352
  130ccc     C6 3259   7.678  11.001   0.026 -0.3328  0.1826 -0.2309
  130ccc     H9 3260   7.571  11.008  -0.000 -0.4958  2.0988  0.7535
  130ccc     C7 3261   7.746  10.907  -0.081  0.6291 -0.5740 -0.0500
  130ccc    H10 3262   7.719  11.102   0.014  1.4953 -0.5702 -0.6085
  130ccc    H11 3263   7.837  10.859  -0.044  0.1458  0.1007  2.1265
  130ccc    H12 3264   7.772  10.967  -0.169 -0.9004  0.5853  0.2565
  130ccc     C8 3265   7.653  10.795  -0.135 -0.0223  0.1955  0.3093
  130ccc     O2 3266   7.572  10.828  -0.220  0.2156  0.0696  0.2891
  130ccc     O3 3267   7.635  10.688  -0.075 -0.4570 -0.8007  0.2580
  130ccc    H13 3268   7.767  10.761   0.161  0.5737  1.9521 -1.3142
  130ccc    H14 3269   7.600  10.773   0.172 -1.5230 -0.7836  2.9999
  130ccc     C9 3270   7.699  10.784   0.360  0.1063 -0.2190 -0.3519
  130ccc    H15 3271   7.621  10.838   0.415  0.4315  0.4055 -0.4945
  130ccc    H16 3272   7.796  10.812   0.404  1.4106 -3.1526 -1.1401
  130ccc    C10 3273   7.677  10.639   0.393  0.0272 -0.5624  0.7687
  130ccc     O4 3274   7.774  10.564   0.388 -0.5834 -0.2400  0.0589
  130ccc     O5 3275   7.570  10.586   0.413  0.3147 -0.5700 -0.0468
  131ccc     N1 3276   7.852  11.727   0.813  0.2533 -0.2586 -0.2911
  131ccc     H4 3277   7.850  11.661   0.890 -0.1909 -2.2839 -1.9334
  131ccc     C3 3278   7.982  11.790   0.796 -0.0766 -0.1178  0.0902
  131ccc     H5 3279   7.996  11.850   0.705 -0.5124 -2.8786 -1.9137
  131ccc     C4 3280   8.098  11.696   0.800  0.1550  0.2309  0.8204
  131ccc     H6 3281   7.992  11.851   0.887  1.5951 -0.0285 -0.1259
  131ccc     H7 3282   8.083  11.618   0.724  2.0801  0.8783 -0.3077
  131ccc     H8 3283   8.118  11.639   0.891  2.6244  0.6510  0.6160
  131ccc     N2 3284   8.220  11.768   0.770  0.6522 -0.4697  0.4894
  131ccc     C5 3285   8.329  11.665   0.750  0.3148 -0.3894 -0.0467
  131ccc     C6 3286   8.261  11.863   0.871  0.0407  0.2690  0.2123
  131ccc     H9 3287   8.172  11.926   0.879 -2.9282 -3.2461 -1.9106
  131ccc     C7 3288   8.378  11.942   0.813  0.2408 -0.0165  0.1184
  131ccc    H10 3289   8.290  11.816   0.966  0.2731 -0.4698 -0.2142
  131ccc    H11 3290   8.362  11.964   0.707 -2.0766 -1.7103  0.0463
  131ccc    H12 3291   8.469  11.882   0.821 -0.2136 -0.5650  1.5069
  131ccc     C8 3292   8.402  12.074   0.882  0.2104  0.7822 -0.9204
  131ccc     O2 3293   8.344  12.113   0.981  0.0183 -0.2904  0.5320
  131ccc     O3 3294   8.498  12.143   0.856 -0.4271  0.7297 -0.5587
  131ccc    H13 3295   8.352  11.607   0.841  3.0439  0.2786 -0.2154
  131ccc    H14 3296   8.427  11.714   0.742  0.0131  0.1314 -0.6371
  131ccc     C9 3297   8.323  11.565   0.629 -0.2536 -0.5414  0.4473
  131ccc    H15 3298   8.281  11.609   0.538 -2.4037  1.6989  2.3622
  131ccc    H16 3299   8.253  11.490   0.669 -0.9161 -0.2062 -0.0591
  131ccc    C10 3300   8.460  11.516   0.603 -0.7547  0.3028 -0.8730
  131ccc     O4 3301   8.532  11.470   0.689  0.5597  0.1035  0.1395
  131ccc     O5 3302   8.512  11.521   0.493  0.5826 -0.2917  0.2118
  132ccc     N1 3303   5.938  11.547   0.914  0.0413  0.7966 -0.1590
  132ccc     H4 3304   5.974  11.456   0.886  0.8947  1.3924 -1.1074
  132ccc     C3 3305   5.822  11.561   1.003  0.1657 -0.1064 -0.4264
  132ccc     H5 3306   5.860  11.624   1.084  0.0844  0.4396 -0.8045
  132ccc     C4 3307   5.778  11.420   1.055 -0.8367 -0.0594 -0.8284
  132ccc     H6 3308   5.734  11.613   0.964 -0.9684 -0.3665  1.6317
  132ccc     H7 3309   5.874  11.369   1.071 -0.6241  0.1648 -1.3549
  132ccc     H8 3310   5.727  11.358   0.980 -0.1812 -1.6547  0.0026
  132ccc     N2 3311   5.698  11.431   1.182 -0.1314  0.0768 -0.7078
  132ccc     C5 3312   5.592  11.535   1.175  0.4688 -0.4472 -0.3829
  132ccc     C6 3313   5.659  11.293   1.239 -0.0924 -0.0465  0.2791
  132ccc     H9 3314   5.590  11.249   1.166  0.5778 -0.2712 -0.2275
  132ccc     C7 3315   5.579  11.293   1.368  0.1408  0.2516  0.1590
  132ccc    H10 3316   5.742  11.221   1.237 -0.1698 -0.1402  0.4516
  132ccc    H11 3317   5.481  11.343   1.360  0.7052  1.2432 -0.7321
  132ccc    H12 3318   5.628  11.349   1.449 -1.6813 -0.4967  1.8889
  132ccc     C8 3319   5.555  11.146   1.408  0.5975  0.4925 -0.6529
  132ccc     O2 3320   5.604  11.100   1.510  0.2588  0.0807  0.6358
  132ccc     O3 3321   5.468  11.087   1.350 -0.5769 -0.4883  0.7071
  132ccc    H13 3322   5.638  11.634   1.170  1.2848 -0.7998 -0.0986
  132ccc    H14 3323   5.543  11.540   1.273  1.1625  1.3434 -0.1022
  132ccc     C9 3324   5.488  11.509   1.065 -0.3852  0.5020 -0.0117
  132ccc    H15 3325   5.458  11.405   1.087  1.3809 -0.2774 -1.0748
  132ccc    H16 3326   5.524  11.507   0.962  0.1383 -2.4095  0.1439
  132ccc    C10 3327   5.371  11.612   1.076 -0.0914 -0.3831  0.9554
  132ccc     O4 3328   5.270  11.588   1.142  0.5538  0.1439  0.5941
  132ccc     O5 3329   5.373  11.719   1.017 -0.3385  0.1186  0.4115
  133ccc     N1 3330   6.267  11.491   0.201  0.3847 -0.6813 -0.2696
  133ccc     H4 3331   6.342  11.447   0.252  0.5460  1.2478  1.2369
  133ccc     C3 3332   6.236  11.468   0.059  0.0641  0.1759 -0.4431
  133ccc     H5 3333   6.133  11.433   0.043  0.2413 -0.7003  0.2390
  133ccc     C4 3334   6.318  11.345   0.017  0.0225  0.2868 -0.2975
  133ccc     H6 3335   6.261  11.559   0.003 -2.0992  1.4416  0.5157
  133ccc     H7 3336   6.274  11.263   0.075  0.5629  1.8284  2.4707
  133ccc     H8 3337   6.422  11.362   0.047 -0.3972  1.5490  0.5187
  133ccc     N2 3338   6.311  11.305  -0.121  0.1549 -0.7752 -0.6363
  133ccc     C5 3339   6.396  11.189  -0.147  0.1142  0.1199  0.0802
  133ccc     C6 3340   6.331  11.418  -0.216 -0.1103  0.1988 -0.2758
  133ccc     H9 3341   6.321  11.385  -0.320  2.7888  0.3827 -0.7219
  133ccc     C7 3342   6.468  11.480  -0.217  0.3106 -0.4699 -0.4147
  133ccc    H10 3343   6.263  11.502  -0.199 -0.6161 -0.3826  0.6136
  133ccc    H11 3344   6.541  11.411  -0.261 -0.0749 -1.6309  0.7286
  133ccc    H12 3345   6.498  11.509  -0.115 -2.5154  0.2457  0.3068
  133ccc     C8 3346   6.469  11.610  -0.303  0.2773 -0.7718 -0.2833
  133ccc     O2 3347   6.473  11.602  -0.422  0.1426 -0.6221  0.0337
  133ccc     O3 3348   6.473  11.721  -0.250  0.5656  0.4422 -0.6960
  133ccc    H13 3349   6.499  11.228  -0.138  0.1969 -0.1237  0.2059
  133ccc    H14 3350   6.378  11.163  -0.252  1.5467  1.1529 -0.4619
  133ccc     C9 3351   6.376  11.070  -0.046  0.3330  0.2310  0.1844
  133ccc    H15 3352   6.269  11.061  -0.025  0.0011  1.6453 -0.7656
  133ccc    H16 3353   6.430  11.092   0.048  0.7647 -0.0186 -0.0037
  133ccc    C10 3354   6.431  10.935  -0.081 -0.4289 -0.0886  0.0229
  133ccc     O4 3355   6.537  10.938  -0.146  0.1526  0.0095 -0.6336
  133ccc     O5 3356   6.408  10.843  -0.001 -0.0333  0.1445 -0.5343
  134ccc     N1 3357   6.431   8.221   1.073  0.0898  0.6198  0.3195
  134ccc     H4 3358   6.355   8.199   1.136 -0.7816  1.8069 -0.2677
  134ccc     C3 3359   6.432   8.159   0.939 -0.0080 -0.3564 -0.4469
  134ccc     H5 3360   6.449   8.235   0.862  0.0773 -0.6511 -0.7179
  134ccc     C4 3361   6.312   8.062   0.904  0.0468  0.1060 -0.0170
  134ccc     H6 3362   6.520   8.094   0.941  0.5410  0.2871  2.9486
  134ccc     H7 3363   6.351   8.005   0.819 -0.2113  1.3725 -1.0184
  134ccc     H8 3364   6.217   8.109   0.872 -0.6401 -0.4077  1.1982
  134ccc     N2 3365   6.285   7.955   1.007  0.2683 -0.2820 -0.8188
  134ccc     C5 3366   6.161   7.873   0.992 -0.3432  0.2090 -0.1554
  134ccc     C6 3367   6.407   7.880   1.056 -0.2058 -0.0401 -0.3241
  134ccc     H9 3368   6.422   7.803   0.980  0.0352 -0.3148  0.0018
  134ccc     C7 3369   6.400   7.813   1.201 -0.2040 -0.3594  0.0068
  134ccc    H10 3370   6.491   7.950   1.063 -0.6848  0.5701 -0.4969
  134ccc    H11 3371   6.321   7.737   1.202 -0.4877 -0.0685  0.1758
  134ccc    H12 3372   6.372   7.884   1.280 -0.2368 -0.6173  0.2250
  134ccc     C8 3373   6.528   7.738   1.235 -0.0264 -0.2349 -0.3595
  134ccc     O2 3374   6.635   7.764   1.173  0.5662 -0.5805 -0.2076
  134ccc     O3 3375   6.528   7.658   1.331 -0.3840 -0.3208  0.1281
  134ccc    H13 3376   6.152   7.834   1.094  0.8258  1.5962  0.5048
  134ccc    H14 3377   6.179   7.789   0.923  0.1684 -0.8872  1.2440
  134ccc     C9 3378   6.034   7.949   0.968  0.0129 -0.1886 -0.0503
  134ccc    H15 3379   6.034   7.991   0.867 -0.7767 -0.2046 -0.0663
  134ccc    H16 3380   6.022   8.034   1.035 -0.9909  0.8507 -1.4768
  134ccc    C10 3381   5.905   7.862   0.982 -0.7030  0.0161 -0.3636
  134ccc     O4 3382   5.911   7.741   1.009 -0.2835 -0.0450  0.2513
  134ccc     O5 3383   5.796   7.917   0.986 -0.4652  0.2932  0.3937
  135ccc     N1 3384   6.079   8.300   1.454  1.0669  0.2038 -0.7327
  135ccc     H4 3385   6.119   8.251   1.376  0.2065 -1.0374 -0.4245
  135ccc     C3 3386   5.968   8.231   1.529  1.0535 -0.3486  0.1173
  135ccc     H5 3387   5.948   8.279   1.626 -1.9004  1.2230 -1.1061
  135ccc     C4 3388   6.009   8.081   1.567  0.3245 -0.4118 -0.3015
  135ccc     H6 3389   5.878   8.233   1.465  0.7289  0.5770  0.5876
  135ccc     H7 3390   5.924   8.034   1.617 -1.2090  1.8807 -0.6519
  135ccc     H8 3391   6.091   8.077   1.641  0.8031 -1.6621 -0.8587
  135ccc     N2 3392   6.051   8.005   1.445 -0.2940 -0.0933 -0.3411
  135ccc     C5 3393   5.933   7.994   1.353 -0.1846 -0.4325 -0.2576
  135ccc     C6 3394   6.109   7.874   1.493  0.2283  0.2183 -0.0534
  135ccc     H9 3395   6.042   7.814   1.555  0.0146  0.6544  0.1458
  135ccc     C7 3396   6.243   7.895   1.566  0.2006  0.7024  0.4363
  135ccc    H10 3397   6.144   7.813   1.409 -0.0973  0.6975 -0.5512
  135ccc    H11 3398   6.217   7.931   1.666 -1.0838  3.2102 -0.7305
  135ccc    H12 3399   6.290   7.972   1.503  0.4939  0.3058  0.1630
  135ccc     C8 3400   6.326   7.767   1.582 -0.7740 -0.2005  1.2376
  135ccc     O2 3401   6.436   7.769   1.640  0.5635 -0.6560  0.1685
  135ccc     O3 3402   6.304   7.658   1.532  0.3471 -0.1247  0.0137
  135ccc    H13 3403   5.965   7.939   1.264  1.4111  0.5065 -0.3048
  135ccc    H14 3404   5.906   8.093   1.313  0.2083 -0.3091 -0.2258
  135ccc     C9 3405   5.812   7.910   1.405 -0.3434  0.8980  0.3559
  135ccc    H15 3406   5.764   7.953   1.494 -0.9086 -1.8011  1.4570
  135ccc    H16 3407   5.854   7.821   1.453  1.4113  0.8093 -1.2026
  135ccc    C10 3408   5.694   7.884   1.308 -0.2923  0.0466 -0.2421
  135ccc     O4 3409   5.606   7.963   1.304 -0.0156  0.5867 -0.4800
  135ccc     O5 3410   5.681   7.774   1.256 -0.8042 -0.9313  0.1432
  136ccc     N1 3411   6.647   9.166   2.742  0.2189  0.3390  0.1389
  136ccc     H4 3412   6.730   9.180   2.799  0.8800  0.1188 -0.7468
  136ccc     C3 3413   6.601   9.285   2.670 -0.3193  0.0021  0.4803
  136ccc     H5 3414   6.576   9.266   2.565 -0.1797  0.2512  0.4015
  136ccc     C4 3415   6.726   9.377   2.661 -0.6061  1.0020  0.1213
  136ccc     H6 3416   6.520   9.338   2.721 -0.0803 -0.5501  1.4510
  136ccc     H7 3417   6.796   9.315   2.604  0.6370  1.8299  0.7117
  136ccc     H8 3418   6.786   9.388   2.752  0.8363  0.3494 -0.7115
  136ccc     N2 3419   6.704   9.515   2.597  0.2470 -0.1519 -0.3929
  136ccc     C5 3420   6.601   9.512   2.482  0.1344 -0.5687 -0.3620
  136ccc     C6 3421   6.827   9.589   2.551 -0.5920  0.2213  0.2561
  136ccc     H9 3422   6.881   9.538   2.470  1.2573  1.1839  0.8289
  136ccc     C7 3423   6.937   9.607   2.650 -0.3983  0.2823 -0.7861
  136ccc    H10 3424   6.790   9.678   2.499  1.2442  0.3273 -0.9570
  136ccc    H11 3425   6.984   9.513   2.682 -0.8869  0.9388  2.0871
  136ccc    H12 3426   6.895   9.660   2.736 -0.2191 -1.3998  0.3799
  136ccc     C8 3427   7.052   9.693   2.599  0.3227 -0.0119 -0.2961
  136ccc     O2 3428   7.137   9.736   2.675 -0.0396  0.3949  0.6836
  136ccc     O3 3429   7.070   9.724   2.481  0.0599 -0.5119  0.2701
  136ccc    H13 3430   6.577   9.618   2.466 -1.2734 -0.5774  1.3499
  136ccc    H14 3431   6.511   9.457   2.513 -0.0903  0.1776  0.3531
  136ccc     C9 3432   6.646   9.445   2.346 -0.0247 -0.0474  0.0667
  136ccc    H15 3433   6.672   9.341   2.368  0.5211  0.4821  2.1966
  136ccc    H16 3434   6.734   9.504   2.316  0.3283 -0.5803  0.0488
  136ccc    C10 3435   6.550   9.455   2.228 -0.4996 -0.3050  1.3275
  136ccc     O4 3436   6.454   9.379   2.224  0.2640  0.6848  0.0209
  136ccc     O5 3437   6.536   9.567   2.173  0.0243  0.1310 -0.2529
  137ccc     N1 3438   6.961   8.573   3.067 -0.0683  0.1018  0.0063
  137ccc     H4 3439   6.869   8.586   3.107 -0.0955 -0.8246  0.2622
  137ccc     C3 3440   7.038   8.445   3.095  0.3824 -0.2751 -0.0248
  137ccc     H5 3441   7.049   8.393   2.999  0.6425  2.4979 -1.6114
  137ccc     C4 3442   6.956   8.352   3.196  0.0172 -0.6227 -0.3368
  137ccc     H6 3443   7.138   8.469   3.133  0.7600  1.1672 -1.8220
  137ccc     H7 3444   6.861   8.336   3.143  0.2538  0.8876 -1.2819
  137ccc     H8 3445   6.949   8.408   3.290  1.1402 -1.9525  0.5692
  137ccc     N2 3446   7.030   8.229   3.231 -0.3179  0.4921  0.3080
  137ccc     C5 3447   6.934   8.122   3.281  0.3301  0.4215 -0.5740
  137ccc     C6 3448   7.149   8.248   3.316 -0.1579  0.2988  0.0869
  137ccc     H9 3449   7.200   8.336   3.275 -1.4355  1.8583  1.6207
  137ccc     C7 3450   7.239   8.131   3.322 -0.1276  0.0447  0.2684
  137ccc    H10 3451   7.122   8.267   3.421  1.3680  2.0712  0.2054
  137ccc    H11 3452   7.232   8.084   3.223  0.3692 -1.9534  1.1381
  137ccc    H12 3453   7.198   8.056   3.391  2.4401 -1.1909  0.5591
  137ccc     C8 3454   7.383   8.172   3.355 -0.1740 -0.0362 -0.8467
  137ccc     O2 3455   7.453   8.246   3.287  0.1809 -0.0497  0.4419
  137ccc     O3 3456   7.443   8.139   3.456 -0.2868  0.3555 -0.6323
  137ccc    H13 3457   6.985   8.026   3.297  0.2259  0.3042 -0.9458
  137ccc    H14 3458   6.854   8.102   3.208 -0.0111  0.4737 -0.2196
  137ccc     C9 3459   6.858   8.160   3.408  0.7332  0.0736 -0.9726
  137ccc    H15 3460   6.784   8.236   3.380 -0.4426 -1.1844 -1.3977
  137ccc    H16 3461   6.922   8.203   3.486 -0.8247  2.1567 -0.7412
  137ccc    C10 3462   6.782   8.041   3.474  0.4616  0.4278 -0.2916
  137ccc     O4 3463   6.708   8.059   3.565 -0.1645  0.4632  0.4799
  137ccc     O5 3464   6.780   7.930   3.424 -0.4218  0.3766 -0.1062
  138ccc     N1 3465   5.601  10.198   0.429 -0.0383 -0.1345 -0.3673
  138ccc     H4 3466   5.620  10.102   0.455 -2.5932 -0.6916 -0.2878
  138ccc     C3 3467   5.457  10.234   0.428 -0.5247 -0.2465  0.0358
  138ccc     H5 3468   5.429  10.331   0.471 -0.2589 -0.1636  0.0293
  138ccc     C4 3469   5.389  10.133   0.523  0.2777  0.7173 -0.7945
  138ccc     H6 3470   5.432  10.229   0.321  0.8278  0.3727 -0.3434
  138ccc     H7 3471   5.419  10.152   0.627 -0.9806 -3.5800  0.5890
  138ccc     H8 3472   5.422  10.030   0.502  1.4663  0.6326  1.2231
  138ccc     N2 3473   5.241  10.137   0.521 -0.4418  0.6271 -0.0773
  138ccc     C5 3474   5.185  10.276   0.549  0.1140 -0.2431  0.5256
  138ccc     C6 3475   5.178  10.032   0.594 -0.2205 -0.1617 -0.5352
  138ccc     H9 3476   5.233   9.941   0.569 -0.7709 -0.3224 -1.1759
  138ccc     C7 3477   5.040   9.985   0.545  0.1110  0.0945 -0.5114
  138ccc    H10 3478   5.196  10.044   0.701  0.2124 -0.5613 -0.5607
  138ccc    H11 3479   5.012   9.983   0.439 -0.3586 -3.3195 -0.4185
  138ccc    H12 3480   4.963  10.052   0.585  1.2713  0.6443  0.8917
  138ccc     C8 3481   5.010   9.841   0.597 -0.0186 -1.1009 -0.5819
  138ccc     O2 3482   4.943   9.820   0.699  0.5381  0.4001  0.1286
  138ccc     O3 3483   5.005   9.751   0.517  0.5702  0.6226  0.1468
  138ccc    H13 3484   5.075  10.272   0.540 -0.1439 -0.8652  3.0984
  138ccc    H14 3485   5.217  10.350   0.474  1.4192 -1.3940 -0.0869
  138ccc     C9 3486   5.205  10.336   0.689  0.6434 -0.4304  0.2385
  138ccc    H15 3487   5.304  10.319   0.733  0.1163  0.2525  1.7689
  138ccc    H16 3488   5.142  10.301   0.772 -0.5848 -1.3993 -1.0661
  138ccc    C10 3489   5.195  10.489   0.691  0.3165 -0.3795  0.3766
  138ccc     O4 3490   5.080  10.539   0.692  0.1802 -0.7977 -0.3324
  138ccc     O5 3491   5.290  10.566   0.662  0.0333 -0.0915 -0.4192
  139ccc     N1 3492   6.233  10.151   0.320 -0.9932 -0.2431  0.7113
  139ccc     H4 3493   6.149  10.141   0.375 -0.7654 -0.5093  1.0092
  139ccc     C3 3494   6.262  10.046   0.218  0.7231 -0.0932 -1.0816
  139ccc     H5 3495   6.368  10.059   0.191  1.4699 -1.8220  0.7943
  139ccc     C4 3496   6.167  10.055   0.097 -0.3641  0.1622 -1.0245
  139ccc     H6 3497   6.261   9.944   0.258 -0.6496  0.1593 -0.4285
  139ccc     H7 3498   6.212   9.978   0.033 -0.9000 -1.4220  0.4437
  139ccc     H8 3499   6.184  10.157   0.060 -2.5537  0.9415 -0.0806
  139ccc     N2 3500   6.017  10.039   0.122 -0.4863  0.4160 -0.3388
  139ccc     C5 3501   5.993   9.911   0.187 -0.5548  0.7982  0.1129
  139ccc     C6 3502   5.929  10.072   0.007  0.2017 -0.0700  0.3365
  139ccc     H9 3503   5.959  10.003  -0.073 -1.3286 -0.3560 -0.0254
  139ccc     C7 3504   5.951  10.216  -0.053  0.1934  0.8432 -0.3778
  139ccc    H10 3505   5.823  10.054   0.029 -0.4077  1.4189 -1.2088
  139ccc    H11 3506   6.046  10.213  -0.107  0.1902  0.9333 -0.3882
  139ccc    H12 3507   5.953  10.294   0.024 -0.2434  2.1678 -1.6621
  139ccc     C8 3508   5.838  10.248  -0.143  0.1336 -0.2159  0.5033
  139ccc     O2 3509   5.867  10.301  -0.251  0.4243  0.0830 -0.2507
  139ccc     O3 3510   5.719  10.267  -0.114 -0.6409 -0.8796 -0.5446
  139ccc    H13 3511   5.893   9.901   0.232 -1.5521 -1.9605 -2.4143
  139ccc    H14 3512   6.062   9.903   0.272  0.6336  3.4717 -0.4890
  139ccc     C9 3513   6.022   9.778   0.099  0.1978 -0.8053  0.4739
  139ccc    H15 3514   6.127   9.783   0.067 -0.2192  1.8880 -0.6662
  139ccc    H16 3515   5.958   9.775   0.010  0.4429  1.2512  0.1864
  139ccc    C10 3516   6.017   9.646   0.173  0.1354  0.1052  0.1947
  139ccc     O4 3517   6.116   9.585   0.217 -0.4044  0.2849  0.4976
  139ccc     O5 3518   5.916   9.585   0.195  0.4979 -0.0683  0.3618
  140ccc     N1 3519   5.655   9.600   1.833 -0.2646 -0.0458 -0.2599
  140ccc     H4 3520   5.557   9.586   1.852 -0.4194 -1.6479 -1.9219
  140ccc     C3 3521   5.760   9.557   1.927  0.4737  0.1406  0.0958
  140ccc     H5 3522   5.824   9.495   1.864  1.9270  1.3327  0.3328
  140ccc     C4 3523   5.713   9.507   2.064 -0.1464 -0.7988 -0.2742
  140ccc     H6 3524   5.816   9.650   1.942  0.0767  0.5308 -0.7927
  140ccc     H7 3525   5.717   9.398   2.060  2.1670 -0.8706  1.6004
  140ccc     H8 3526   5.606   9.529   2.077  0.0725 -0.5861  1.4645
  140ccc     N2 3527   5.800   9.555   2.177 -0.3166  0.1829  0.5735
  140ccc     C5 3528   5.778   9.701   2.208 -0.3338  0.1778 -0.3301
  140ccc     C6 3529   5.943   9.523   2.157 -0.4042  0.3479 -0.2105
  140ccc     H9 3530   5.977   9.576   2.067 -0.2692  1.8277  0.6861
  140ccc     C7 3531   5.972   9.374   2.154 -0.2063  0.2326 -1.2337
  140ccc    H10 3532   5.999   9.555   2.245 -2.2523 -1.6271  1.8311
  140ccc    H11 3533   5.922   9.315   2.076  0.3022 -1.3782 -0.3897
  140ccc    H12 3534   5.943   9.323   2.247  0.4992  0.7467 -0.7217
  140ccc     C8 3535   6.122   9.342   2.134 -0.0464  0.5401 -0.6303
  140ccc     O2 3536   6.193   9.262   2.201  0.3391 -0.0482  0.1861
  140ccc     O3 3537   6.190   9.415   2.072  0.2489 -0.5034  0.6920
  140ccc    H13 3538   5.793   9.763   2.119 -2.0957  3.1561  1.3090
  140ccc    H14 3539   5.841   9.726   2.294  0.5681 -0.7475 -0.7040
  140ccc     C9 3540   5.635   9.744   2.249  0.1064  0.6344 -0.4819
  140ccc    H15 3541   5.610   9.679   2.334 -1.9866 -2.0022 -2.9068
  140ccc    H16 3542   5.563   9.710   2.173  0.1302  1.5435 -0.9143
  140ccc    C10 3543   5.625   9.896   2.282  0.6013  0.4589  0.2870
  140ccc     O4 3544   5.532   9.945   2.348 -0.3683  0.2265 -0.2786
  140ccc     O5 3545   5.697   9.971   2.218 -0.0026 -0.1853 -0.2754
  141ccc     N1 3546   5.085   9.476   1.363  0.2136  0.3940 -0.2576
  141ccc     H4 3547   5.160   9.448   1.300  0.1144  1.5241 -0.9080
  141ccc     C3 3548   4.959   9.405   1.369  0.2153 -0.5190 -0.2762
  141ccc     H5 3549   4.936   9.378   1.472 -1.9565 -0.0319 -0.5849
  141ccc     C4 3550   4.947   9.270   1.281  0.1841 -0.2632  0.1641
  141ccc     H6 3551   4.889   9.483   1.338 -0.4414 -0.1469  2.0027
  141ccc     H7 3552   4.838   9.268   1.268  0.0551  1.6959  0.6729
  141ccc     H8 3553   4.996   9.187   1.332 -2.6805 -2.5806 -0.5857
  141ccc     N2 3554   4.998   9.295   1.144  0.0473  0.0382 -0.4895
  141ccc     C5 3555   4.972   9.423   1.076 -0.0199 -0.2513 -0.3581
  141ccc     C6 3556   4.978   9.184   1.050 -0.2408  0.4772  0.1733
  141ccc     H9 3557   4.871   9.163   1.042 -0.4126  1.2360  0.3572
  141ccc     C7 3558   5.053   9.056   1.098 -0.5164 -0.4251  0.1854
  141ccc    H10 3559   5.014   9.212   0.950  0.9540 -1.0620  0.1456
  141ccc    H11 3560   5.041   8.973   1.028  3.0730 -0.1207 -1.0045
  141ccc    H12 3561   5.018   9.021   1.196  0.2949 -1.1575  0.2227
  141ccc     C8 3562   5.205   9.067   1.086 -0.1226  0.2307  0.0629
  141ccc     O2 3563   5.263   9.030   0.989  0.8709  0.0072 -0.1680
  141ccc     O3 3564   5.275   9.081   1.184 -0.3406 -0.3612 -0.2076
  141ccc    H13 3565   5.027   9.413   0.982  1.6390 -1.2788  0.6628
  141ccc    H14 3566   5.028   9.503   1.127  0.1396 -0.4553 -0.2094
  141ccc     C9 3567   4.822   9.456   1.056  0.6299  0.2240 -0.4558
  141ccc    H15 3568   4.775   9.463   1.155  1.0539  2.5828 -0.3555
  141ccc    H16 3569   4.768   9.378   1.001 -0.1452  0.6148 -0.2676
  141ccc    C10 3570   4.805   9.597   0.991  0.6088  0.7300  0.2907
  141ccc     O4 3571   4.804   9.699   1.050  0.1364  0.4207 -0.0002
  141ccc     O5 3572   4.831   9.605   0.871 -0.2443  0.0975 -0.2451
  142ccc     N1 3573   9.825  11.947   0.792  0.7404 -0.0734 -0.2482
  142ccc     H4 3574   9.787  11.854   0.795  0.3657  0.0344 -1.1973
  142ccc     C3 3575   9.749  12.055   0.726 -0.3544  0.2505  0.1852
  142ccc     H5 3576   9.711  12.129   0.798 -0.0982 -1.0260  1.6809
  142ccc     C4 3577   9.631  12.014   0.635  0.2917  0.4193 -0.9926
  142ccc     H6 3578   9.821  12.108   0.662  0.0558  0.1142  0.5244
  142ccc     H7 3579   9.576  11.931   0.680  3.4913 -1.2010  0.3079
  142ccc     H8 3580   9.691  11.966   0.557  0.5816  1.1705 -1.2378
  142ccc     N2 3581   9.538  12.119   0.585  0.9292  0.2144  0.8476
  142ccc     C5 3582   9.481  12.205   0.695  0.1446 -0.4446  0.0017
  142ccc     C6 3583   9.427  12.068   0.495 -0.5127 -0.8192 -0.7387
  142ccc     H9 3584   9.367  11.995   0.551  0.3759  0.0521  1.4745
  142ccc     C7 3585   9.475  11.998   0.370 -0.5785 -0.2780 -0.2881
  142ccc    H10 3586   9.366  12.150   0.457  2.2718  0.9353 -1.6546
  142ccc    H11 3587   9.498  11.893   0.394  0.0062  0.0696  0.6897
  142ccc    H12 3588   9.562  12.051   0.330 -2.5510  3.2787 -0.2143
  142ccc     C8 3589   9.372  12.001   0.248 -0.3426 -0.4402  0.1364
  142ccc     O2 3590   9.263  11.949   0.250 -0.5416 -0.1511 -0.7014
  142ccc     O3 3591   9.397  12.067   0.148  0.7623  0.0773  0.2941
  142ccc    H13 3592   9.429  12.291   0.651 -0.6481 -0.7539  0.3241
  142ccc    H14 3593   9.562  12.256   0.749 -1.3541  1.5954  0.4307
  142ccc     C9 3594   9.398  12.128   0.804 -0.0589  0.3110  0.6507
  142ccc    H15 3595   9.462  12.073   0.874  0.3443 -0.3475 -0.2170
  142ccc    H16 3596   9.328  12.053   0.766  1.0328 -1.2233  1.5383
  142ccc    C10 3597   9.320  12.217   0.902 -0.9965 -0.0665 -0.1235
  142ccc     O4 3598   9.204  12.200   0.932 -0.1076 -0.1852  0.2496
  142ccc     O5 3599   9.369  12.324   0.927 -0.1930 -0.0529  0.0276
  143ccc     N1 3600  10.357  11.621   1.449 -0.0469 -0.4214  0.3574
  143ccc     H4 3601  10.352  11.539   1.389 -1.1693  1.0149 -1.6044
  143ccc     C3 3602  10.409  11.599   1.581 -0.0886 -0.1917  0.3583
  143ccc     H5 3603  10.488  11.671   1.607  1.1257 -1.6446  0.8449
  143ccc     C4 3604  10.470  11.460   1.597  0.2980 -0.2806  0.3413
  143ccc     H6 3605  10.327  11.618   1.651 -0.1789  1.6226 -0.1834
  143ccc     H7 3606  10.556  11.463   1.530  0.4709  1.1869  0.6064
  143ccc     H8 3607  10.403  11.373   1.593 -1.1844  0.7974  0.8067
  143ccc     N2 3608  10.541  11.457   1.736  0.1844  0.8162  0.6593
  143ccc     C5 3609  10.655  11.361   1.744 -0.8837 -0.1974  0.5301
  143ccc     C6 3610  10.438  11.453   1.843 -0.0946 -0.1375 -0.1801
  143ccc     H9 3611  10.369  11.537   1.832 -0.6323 -0.7417 -1.7142
  143ccc     C7 3612  10.500  11.458   1.982 -0.5700 -0.2779 -0.4833
  143ccc    H10 3613  10.385  11.357   1.833  1.1697 -0.6632 -2.4051
  143ccc    H11 3614  10.550  11.555   1.988 -0.2104 -0.2757 -2.6917
  143ccc    H12 3615  10.574  11.378   1.998  1.3279  1.3294 -0.8617
  143ccc     C8 3616  10.393  11.463   2.085  0.0373  0.1096  0.4560
  143ccc     O2 3617  10.347  11.572   2.128 -0.3425  0.5679 -0.1070
  143ccc     O3 3618  10.347  11.360   2.127 -0.2254 -0.0522  0.2259
  143ccc    H13 3619  10.713  11.376   1.836 -0.3767  0.1879  0.1541
  143ccc    H14 3620  10.725  11.382   1.661  0.4625 -1.8458  1.1948
  143ccc     C9 3621  10.612  11.222   1.711  0.2522  0.5404 -0.0458
  143ccc    H15 3622  10.580  11.222   1.607 -0.7878 -0.1049  0.2624
  143ccc    H16 3623  10.527  11.191   1.774  0.6007  0.9103  0.6166
  143ccc    C10 3624  10.715  11.118   1.754 -0.4908 -0.7628  0.3286
  143ccc     O4 3625  10.820  11.118   1.693  0.0566 -0.4869  0.1294
  143ccc     O5 3626  10.684  11.018   1.813 -0.1072  0.4643 -0.4373
  144ccc     N1 3627   9.496  11.681   0.981  0.3013  0.2788  0.2525
  144ccc     H4 3628   9.408  11.633   0.994  1.6718 -1.6539  3.6203
  144ccc     C3 3629   9.553  11.749   1.095  0.1731  0.2196  0.6572
  144ccc     H5 3630   9.599  11.674   1.160 -0.1113 -0.0627  0.5353
  144ccc     C4 3631   9.452  11.824   1.180 -0.1178 -0.4707 -0.8817
  144ccc     H6 3632   9.627  11.825   1.065 -0.0591 -1.1295 -4.3467
  144ccc     H7 3633   9.427  11.921   1.136 -0.2644  1.5535  3.1538
  144ccc     H8 3634   9.503  11.857   1.272 -1.6647 -0.0820 -0.1301
  144ccc     N2 3635   9.331  11.741   1.221 -0.1151 -0.0290 -0.2350
  144ccc     C5 3636   9.331  11.704   1.362 -0.1519  0.1390  0.2335
  144ccc     C6 3637   9.202  11.798   1.179 -0.4399  0.3070  0.6764
  144ccc     H9 3638   9.113  11.751   1.223  1.0098 -0.8921  2.5020
  144ccc     C7 3639   9.183  11.800   1.029 -0.3118  0.0841 -0.0687
  144ccc    H10 3640   9.200  11.905   1.204 -0.0284  0.4369  0.1848
  144ccc    H11 3641   9.207  11.698   0.996  2.6724 -0.0578  2.1759
  144ccc    H12 3642   9.260  11.861   0.980  1.0858 -2.3754 -1.1308
  144ccc     C8 3643   9.045  11.832   0.976 -0.4343 -0.1445  0.7214
  144ccc     O2 3644   9.002  11.945   0.978 -0.1680 -0.2091 -0.5018
  144ccc     O3 3645   8.975  11.743   0.929 -0.4555  0.2556 -0.0628
  144ccc    H13 3646   9.229  11.668   1.383 -1.4308  2.0038 -2.1703
  144ccc    H14 3647   9.351  11.793   1.423 -0.0293  0.8038 -0.7543
  144ccc     C9 3648   9.434  11.597   1.398  1.0989 -0.0942 -0.0628
  144ccc    H15 3649   9.537  11.633   1.385  1.1235 -0.1393  0.0078
  144ccc    H16 3650   9.422  11.507   1.337  0.6484 -1.7567  2.3696
  144ccc    C10 3651   9.419  11.542   1.544 -0.6230  0.2145  0.8158
  144ccc     O4 3652   9.307  11.511   1.591 -0.2425 -0.1592 -0.1364
  144ccc     O5 3653   9.521  11.535   1.613 -0.1745  0.0968  1.0431
  145ccc     N1 3654   9.031  11.985   0.632 -0.4940 -0.2408 -0.5484
  145ccc     H4 3655   9.034  11.983   0.733 -0.6822  2.4082 -0.4216
  145ccc     C3 3656   8.972  12.099   0.561  0.3870  0.9859  0.2976
  145ccc     H5 3657   8.980  12.086   0.452 -1.1614 -1.3258  0.3808
  145ccc     C4 3658   9.055  12.222   0.585  0.8347 -0.2222  0.1923
  145ccc     H6 3659   8.866  12.116   0.583  1.0519  3.3583  2.0123
  145ccc     H7 3660   9.160  12.201   0.563  0.5686  0.4591 -2.0653
  145ccc     H8 3661   9.050  12.249   0.691 -0.5168 -0.1861  0.1451
  145ccc     N2 3662   9.026  12.350   0.507 -0.1628  0.1016 -0.3338
  145ccc     C5 3663   8.903  12.414   0.549 -0.3069  0.4226 -1.3590
  145ccc     C6 3664   9.017  12.336   0.355 -1.0245  0.8728  0.4531
  145ccc     H9 3665   8.922  12.293   0.322 -0.2263 -0.6162  0.0249
  145ccc     C7 3666   9.137  12.267   0.287  0.7093  0.5440  0.5036
  145ccc    H10 3667   9.026  12.438   0.315 -0.8542  0.2767 -1.0943
  145ccc    H11 3668   9.128  12.161   0.310 -0.6285  0.7536  1.0650
  145ccc    H12 3669   9.229  12.314   0.324 -0.0421  1.6409  1.0639
  145ccc     C8 3670   9.134  12.282   0.133 -0.0334 -0.4758  0.1948
  145ccc     O2 3671   9.185  12.379   0.081 -0.5394  0.3532 -0.3288
  145ccc     O3 3672   9.134  12.184   0.064 -0.2369 -0.2955 -0.5101
  145ccc    H13 3673   8.811  12.371   0.507 -0.8494 -0.7095  0.8369
  145ccc    H14 3674   8.914  12.518   0.514 -0.3275  0.2668 -1.8286
  145ccc     C9 3675   8.879  12.438   0.708 -0.1373 -0.6208  0.5865
  145ccc    H15 3676   8.805  12.518   0.719  1.6090  1.0639  0.7202
  145ccc    H16 3677   8.964  12.481   0.764  0.2504 -0.5164 -0.0708
  145ccc    C10 3678   8.823  12.313   0.774  0.7296 -0.0670 -0.6698
  145ccc     O4 3679   8.888  12.238   0.849  0.1064  0.1995  0.2429
  145ccc     O5 3680   8.709  12.276   0.747  0.2579  0.0715 -0.1478
  146ccc     N1 3681   9.160  10.399   2.913  0.5911  0.0458  0.4512
  146ccc     H4 3682   9.100  10.445   2.846  0.1608 -1.0534  0.0580
  146ccc     C3 3683   9.189  10.475   3.037 -0.0145 -0.3159 -0.0288
  146ccc     H5 3684   9.112  10.454   3.113  1.4538  1.0621  1.9428
  146ccc     C4 3685   9.226  10.623   3.017  0.0142 -0.9108 -0.3306
  146ccc     H6 3686   9.283  10.434   3.078 -0.8601  0.0597  2.4996
  146ccc     H7 3687   9.136  10.670   2.975  0.6370  0.4024 -0.2549
  146ccc     H8 3688   9.308  10.625   2.944  0.0583 -0.6387 -0.2770
  146ccc     N2 3689   9.257  10.694   3.145  0.1935  0.2461  0.0691
  146ccc     C5 3690   9.372  10.626   3.212 -0.4598 -0.3737  0.2249
  146ccc     C6 3691   9.128  10.704   3.223 -0.1930  0.1522  0.0883
  146ccc     H9 3692   9.083  10.608   3.249  3.1129 -1.5928 -0.0651
  146ccc     C7 3693   9.030  10.809   3.171  0.3748 -0.1468  0.2707
  146ccc    H10 3694   9.167  10.739   3.320  2.7997  1.1560 -1.3238
  146ccc    H11 3695   8.995  10.793   3.068  0.5378  1.7165 -0.1022
  146ccc    H12 3696   9.085  10.903   3.168  2.4469 -1.3278 -0.5170
  146ccc     C8 3697   8.906  10.824   3.252  0.6465 -0.8332  0.4198
  146ccc     O2 3698   8.841  10.728   3.287  0.4321 -0.2074  0.3612
  146ccc     O3 3699   8.858  10.924   3.301  0.0922 -0.4136  0.7062
  146ccc    H13 3700   9.448  10.584   3.145  0.1429 -0.2089  0.8022
  146ccc    H14 3701   9.344  10.545   3.280 -1.0312 -1.1753 -0.9247
  146ccc     C9 3702   9.451  10.728   3.304 -0.2853  0.2136  0.4775
  146ccc    H15 3703   9.391  10.771   3.384 -0.1399  0.5145  0.4256
  146ccc    H16 3704   9.483  10.810   3.239  2.0509 -0.8953  0.1158
  146ccc    C10 3705   9.581  10.668   3.370  0.1556  0.7110 -0.0982
  146ccc     O4 3706   9.655  10.599   3.299  0.6312 -0.0830  0.1294
  146ccc     O5 3707   9.602  10.674   3.490  0.2752  0.0331  0.2764
  147ccc     N1 3708   8.489  10.492   2.912  0.4875  0.3678  0.2478
  147ccc     H4 3709   8.551  10.562   2.873  0.3429  0.9154  0.9748
  147ccc     C3 3710   8.350  10.538   2.932  0.5419  0.3845  0.0768
  147ccc     H5 3711   8.309  10.558   2.832 -2.3235  3.7608  1.7085
  147ccc     C4 3712   8.340  10.669   3.009 -0.3985 -0.7948  0.0274
  147ccc     H6 3713   8.289  10.456   2.972 -0.0247  0.9957  0.4719
  147ccc     H7 3714   8.367  10.654   3.115  0.6253 -0.9913 -0.2572
  147ccc     H8 3715   8.234  10.696   3.011 -0.3160 -0.4746  0.3467
  147ccc     N2 3716   8.427  10.777   2.962 -0.3083 -0.2501 -0.7151
  147ccc     C5 3717   8.402  10.812   2.820 -0.2344  0.1616  0.2759
  147ccc     C6 3718   8.445  10.891   3.057 -0.2722  0.0924 -0.5654
  147ccc     H9 3719   8.496  10.975   3.007 -0.8304  0.5574 -0.3581
  147ccc     C7 3720   8.527  10.847   3.180 -0.4646  0.3720  0.1906
  147ccc    H10 3721   8.345  10.911   3.098  0.8866 -1.1033  3.2607
  147ccc    H11 3722   8.618  10.792   3.154  0.7069  3.5024 -3.3259
  147ccc    H12 3723   8.465  10.786   3.247  3.0848 -1.9661  1.6352
  147ccc     C8 3724   8.574  10.965   3.267  0.1212 -0.2299 -0.0679
  147ccc     O2 3725   8.608  11.064   3.204 -0.1978 -0.2685 -0.1175
  147ccc     O3 3726   8.571  10.955   3.389 -0.1962  0.5834  0.1090
  147ccc    H13 3727   8.401  10.720   2.761  1.9511  0.2929 -0.0526
  147ccc    H14 3728   8.481  10.879   2.785  0.2020  0.1871  1.2933
  147ccc     C9 3729   8.263  10.874   2.794 -0.3933 -0.2066  0.4359
  147ccc    H15 3730   8.264  10.969   2.848  1.5655 -0.4731  0.9503
  147ccc    H16 3731   8.185  10.808   2.836 -0.2119 -0.2239  0.7528
  147ccc    C10 3732   8.231  10.893   2.648  0.3722 -0.4869  0.1953
  147ccc     O4 3733   8.242  11.005   2.598 -0.4603  0.5329 -0.5765
  147ccc     O5 3734   8.196  10.798   2.576 -0.4430  0.0070 -0.4028
  148ccc     N1 3735   8.836   8.921   1.988 -0.3986 -0.0096 -0.0554
  148ccc     H4 3736   8.832   8.957   1.894  1.7653  1.1442  0.2089
  148ccc     C3 3737   8.806   8.782   2.018 -0.7048  0.2775 -0.2332
  148ccc     H5 3738   8.801   8.755   2.124 -1.1229  0.4507 -0.2064
  148ccc     C4 3739   8.901   8.692   1.944  0.3490  0.0852 -0.3508
  148ccc     H6 3740   8.712   8.751   1.970  1.2405 -4.6167 -1.5470
  148ccc     H7 3741   9.001   8.682   1.990  0.0985  0.6001  0.3200
  148ccc     H8 3742   8.926   8.743   1.850 -0.4645  1.2741  0.0629
  148ccc     N2 3743   8.853   8.556   1.916 -0.4179 -0.1244 -0.0638
  148ccc     C5 3744   8.734   8.538   1.824 -0.2448 -0.5387  0.1439
  148ccc     C6 3745   8.852   8.479   2.039 -0.1347  0.0609  0.1092
  148ccc     H9 3746   8.955   8.473   2.074  0.0772 -0.3955 -0.5600
  148ccc     C7 3747   8.791   8.335   2.021 -0.1873 -0.1076 -0.2011
  148ccc    H10 3748   8.797   8.533   2.117 -1.8075  0.6345 -1.3974
  148ccc    H11 3749   8.851   8.273   1.953 -0.5884  1.4430 -2.0334
  148ccc    H12 3750   8.684   8.323   1.999 -0.3912 -0.4037  0.8807
  148ccc     C8 3751   8.810   8.263   2.157 -0.1324 -0.3832  0.2283
  148ccc     O2 3752   8.716   8.226   2.227  0.0452  0.2725  0.1876
  148ccc     O3 3753   8.923   8.246   2.193  0.2395 -0.2380  0.1507
  148ccc    H13 3754   8.640   8.551   1.878 -0.7784 -2.7120 -0.1619
  148ccc    H14 3755   8.727   8.434   1.788  1.9548 -0.2200 -1.4139
  148ccc     C9 3756   8.719   8.642   1.707 -0.0286 -0.5966 -0.6627
  148ccc    H15 3757   8.731   8.742   1.752 -0.4163 -0.0554 -1.7329
  148ccc    H16 3758   8.622   8.656   1.658  0.4355  0.7745 -1.2406
  148ccc    C10 3759   8.827   8.626   1.601 -0.6333  0.3337  0.2885
  148ccc     O4 3760   8.820   8.546   1.507  0.1259  0.2125  0.2438
  148ccc     O5 3761   8.925   8.700   1.590  0.1858 -0.5171 -0.2352
  149ccc     N1 3762   8.621   9.720   2.141  0.1360  0.0061 -0.4258
  149ccc     H4 3763   8.572   9.671   2.067  0.7410 -2.1259  0.5341
  149ccc     C3 3764   8.549   9.829   2.208 -0.0054  0.0243  0.2117
  149ccc     H5 3765   8.614   9.883   2.278  1.2882  0.2816 -1.1206
  149ccc     C4 3766   8.423   9.774   2.272  0.1917  0.4730 -0.4880
  149ccc     H6 3767   8.525   9.906   2.133 -0.4049  0.4872  0.8119
  149ccc     H7 3768   8.440   9.683   2.331  1.4003  1.3225  0.4980
  149ccc     H8 3769   8.354   9.758   2.187  0.8943  0.0341 -0.9896
  149ccc     N2 3770   8.369   9.867   2.370  0.3787 -0.0455 -0.5490
  149ccc     C5 3771   8.370  10.017   2.343  0.0827 -0.0922 -0.5309
  149ccc     C6 3772   8.250   9.804   2.427  0.1439 -0.8729 -0.5226
  149ccc     H9 3773   8.265   9.699   2.456 -0.4713 -0.9427 -0.4345
  149ccc     C7 3774   8.128   9.830   2.338  0.6060  0.2507 -0.0856
  149ccc    H10 3775   8.221   9.857   2.519 -1.0418  0.3374 -1.5585
  149ccc    H11 3776   8.130   9.750   2.263  1.0080 -0.0055  0.1921
  149ccc    H12 3777   8.133   9.927   2.287 -0.1221 -0.4091 -1.4838
  149ccc     C8 3778   7.995   9.818   2.420  0.1146 -0.0160  0.3072
  149ccc     O2 3779   7.985   9.881   2.523  0.2694 -0.1043  0.2070
  149ccc     O3 3780   7.903   9.746   2.384  0.2002  0.0037 -0.2434
  149ccc    H13 3781   8.292  10.047   2.272  0.5994  1.2763 -0.5378
  149ccc    H14 3782   8.465  10.049   2.300 -0.7578  1.4303 -1.3414
  149ccc     C9 3783   8.358  10.107   2.468 -0.2738  0.1331  0.1615
  149ccc    H15 3784   8.385  10.211   2.446 -0.5742  0.0887 -0.4305
  149ccc    H16 3785   8.432  10.075   2.542 -2.0185  0.1788  1.9940
  149ccc    C10 3786   8.218  10.119   2.538 -0.0822  0.2145  0.1731
  149ccc     O4 3787   8.199  10.081   2.653 -0.3075  0.6516 -0.1159
  149ccc     O5 3788   8.126  10.174   2.488 -0.3144 -0.4156 -0.5422
  150ccc     N1 3789   6.073  11.154   1.009 -0.0731 -0.1499 -0.2279
  150ccc     H4 3790   6.056  11.217   0.932 -0.2983 -0.9335 -0.8280
  150ccc     C3 3791   5.961  11.088   1.072  0.0594 -0.1579  0.7666
  150ccc     H5 3792   5.990  10.989   1.111  2.0088 -1.5769 -3.6290
  150ccc     C4 3793   5.857  11.063   0.960  0.3616  0.2666  0.2324
  150ccc     H6 3794   5.911  11.145   1.152 -1.3521 -0.2388 -0.0264
  150ccc     H7 3795   5.914  11.029   0.873  1.1385  1.0382  0.4232
  150ccc     H8 3796   5.795  11.152   0.943  2.2746  1.9675  1.6108
  150ccc     N2 3797   5.769  10.946   0.989 -0.0782 -0.3367  0.0488
  150ccc     C5 3798   5.662  10.937   0.876  0.6358 -0.6018  0.0965
  150ccc     C6 3799   5.704  10.937   1.130 -0.3115 -0.0913 -0.5915
  150ccc     H9 3800   5.782  10.951   1.205 -1.0208  0.7278  0.0142
  150ccc     C7 3801   5.641  10.804   1.163  0.1669 -0.4991 -0.1513
  150ccc    H10 3802   5.630  11.017   1.142 -0.6288 -0.5764  0.9390
  150ccc    H11 3803   5.716  10.724   1.152 -0.2778 -1.2932  2.0482
  150ccc    H12 3804   5.563  10.768   1.095  0.1514 -0.0583 -0.3704
  150ccc     C8 3805   5.590  10.787   1.308  0.1077 -0.1784 -0.4907
  150ccc     O2 3806   5.668  10.824   1.397 -0.2435 -0.2586  0.5722
  150ccc     O3 3807   5.474  10.813   1.335  0.2909  0.4556 -0.4307
  150ccc    H13 3808   5.602  11.028   0.874  0.4168 -0.7398  0.3580
  150ccc    H14 3809   5.593  10.854   0.895 -1.0499  0.5098 -0.8997
  150ccc     C9 3810   5.715  10.907   0.731 -0.1095 -0.6429 -0.2581
  150ccc    H15 3811   5.752  10.803   0.726 -2.2963 -1.4137 -2.2729
  150ccc    H16 3812   5.796  10.973   0.698 -0.3217  0.6446  1.6332
  150ccc    C10 3813   5.603  10.918   0.625 -0.1758  1.2162 -0.2549
  150ccc     O4 3814   5.605  10.992   0.532 -0.1034 -0.0359 -0.1794
  150ccc     O5 3815   5.493  10.863   0.638  0.5865 -0.4073  0.9347
  151ccc     N1 3816   6.204  11.547   1.541  0.3225 -0.2578  0.1782
  151ccc     H4 3817   6.221  11.448   1.526 -3.4155 -0.7047 -2.7569
  151ccc     C3 3818   6.122  11.578   1.668 -0.4195 -0.8356 -0.3058
  151ccc     H5 3819   6.130  11.685   1.691 -2.1278 -0.8280  0.3829
  151ccc     C4 3820   6.177  11.514   1.796  0.0200  0.7778  0.0545
  151ccc     H6 3821   6.016  11.553   1.659 -0.5637  0.1179 -1.4976
  151ccc     H7 3822   6.129  11.562   1.883 -2.0058 -0.0288 -0.5382
  151ccc     H8 3823   6.283  11.538   1.800  0.9243 -2.5572 -0.8317
  151ccc     N2 3824   6.163  11.373   1.823  0.7424  0.5109 -0.2400
  151ccc     C5 3825   6.236  11.337   1.947  1.1037  0.3416  0.1643
  151ccc     C6 3826   6.025  11.316   1.817 -0.9555 -0.1190 -0.5713
  151ccc     H9 3827   5.976  11.327   1.915 -0.3219  1.4798 -0.4119
  151ccc     C7 3828   6.027  11.164   1.788  0.1987  0.1474 -0.5420
  151ccc    H10 3829   5.965  11.356   1.734 -2.0282  0.5045  0.4646
  151ccc    H11 3830   6.070  11.112   1.875 -0.2169 -2.1148 -1.6259
  151ccc    H12 3831   6.078  11.138   1.695  1.5544  1.3635 -0.1653
  151ccc     C8 3832   5.884  11.120   1.762  0.3440 -0.7670  0.4626
  151ccc     O2 3833   5.805  11.123   1.853 -0.1902  0.4327 -0.7694
  151ccc     O3 3834   5.843  11.104   1.649 -0.2781 -0.1844  0.0141
  151ccc    H13 3835   6.214  11.232   1.968 -1.3234  0.5675 -0.9423
  151ccc    H14 3836   6.200  11.390   2.036 -1.3154 -1.1192  0.1251
  151ccc     C9 3837   6.389  11.361   1.936 -0.1114 -0.2573 -0.7581
  151ccc    H15 3838   6.414  11.467   1.949  2.4743 -0.8362 -0.5098
  151ccc    H16 3839   6.420  11.345   1.832 -0.6842 -0.3946 -0.9108
  151ccc    C10 3840   6.475  11.284   2.037 -0.5012 -0.3990 -0.0419
  151ccc     O4 3841   6.549  11.199   1.995  0.1865 -0.7401  0.1993
  151ccc     O5 3842   6.470  11.295   2.158  0.2218 -0.2502 -0.6655
  152ccc     N1 3843   7.029  10.480   2.173  0.0082  0.2701  0.4035
  152ccc     H4 3844   7.093  10.472   2.095  1.3288 -0.7553  1.5436
  152ccc     C3 3845   7.053  10.413   2.305 -0.6387  0.7329  1.2739
  152ccc     H5 3846   6.986  10.452   2.383 -1.3809  0.6697  0.6746
  152ccc     C4 3847   7.199  10.424   2.351 -0.4132  0.4670  0.4702
  152ccc     H6 3848   7.017  10.310   2.306 -0.2422  0.5776  2.5708
  152ccc     H7 3849   7.230  10.526   2.324  0.7826 -0.4043 -1.7473
  152ccc     H8 3850   7.269  10.370   2.286  1.7253  2.4353  0.9633
  152ccc     N2 3851   7.216  10.409   2.496  0.2639 -0.3003  0.0124
  152ccc     C5 3852   7.190  10.269   2.538 -0.1402  0.0650 -0.3947
  152ccc     C6 3853   7.357  10.452   2.548  0.1074  0.4688 -0.4056
  152ccc     H9 3854   7.373  10.454   2.656 -2.0288  0.9152 -0.0570
  152ccc     C7 3855   7.402  10.594   2.518  0.2012 -0.1229 -0.1814
  152ccc    H10 3856   7.432  10.383   2.506  0.4273  0.0497  0.8151
  152ccc    H11 3857   7.318  10.660   2.542  0.5629 -0.4632  2.3014
  152ccc    H12 3858   7.430  10.611   2.413  0.7834  2.3340  0.3037
  152ccc     C8 3859   7.528  10.634   2.588  0.5148 -0.3230 -0.3979
  152ccc     O2 3860   7.633  10.612   2.538  0.5391  0.0809 -0.8402
  152ccc     O3 3861   7.526  10.686   2.698 -0.0875  0.2038  0.5972
  152ccc    H13 3862   7.273  10.207   2.504  0.5925  1.4737 -1.2881
  152ccc    H14 3863   7.097  10.234   2.491  0.2402  0.4212 -1.4280
  152ccc     C9 3864   7.187  10.250   2.687  0.0376 -0.1729 -0.1274
  152ccc    H15 3865   7.125  10.323   2.738 -1.7922 -0.9966 -1.0725
  152ccc    H16 3866   7.289  10.269   2.722 -0.6598  0.8861  1.4303
  152ccc    C10 3867   7.158  10.105   2.724  0.6653  0.2774  0.0579
  152ccc     O4 3868   7.132  10.072   2.838 -0.0418 -0.1813 -0.5829
  152ccc     O5 3869   7.141  10.023   2.638 -0.1082  0.5886  0.1137
  153ccc     N1 3870   6.264  10.634   1.737  0.0057 -0.1715 -0.2184
  153ccc     H4 3871   6.306  10.726   1.738 -4.2356  2.0240  0.2059
  153ccc     C3 3872   6.117  10.631   1.705  0.1909  0.0515 -0.0153
  153ccc     H5 3873   6.090  10.653   1.601  0.4470 -1.1005 -0.3432
  153ccc     C4 3874   6.048  10.736   1.801 -0.1465 -0.3623  0.8449
  153ccc     H6 3875   6.067  10.535   1.723  0.1390  0.2215  0.7750
  153ccc     H7 3876   5.941  10.723   1.779 -0.2246  0.0874  0.9497
  153ccc     H8 3877   6.083  10.833   1.763 -0.6755 -0.0602  1.1122
  153ccc     N2 3878   6.082  10.719   1.945 -0.2492  0.2337  0.2569
  153ccc     C5 3879   6.211  10.779   1.988 -0.0448  0.5638  0.0728
  153ccc     C6 3880   6.052  10.583   2.001  0.0326 -0.7832  1.0743
  153ccc     H9 3881   6.117  10.507   1.956  0.5613  0.5325 -0.4790
  153ccc     C7 3882   5.909  10.537   2.003  0.7248 -0.3184 -0.3305
  153ccc    H10 3883   6.079  10.590   2.107 -2.6033 -3.7149  2.1031
  153ccc    H11 3884   5.875  10.507   1.904  0.8685 -2.0866  0.1332
  153ccc    H12 3885   5.840  10.616   2.036  0.4299 -0.4166 -0.7053
  153ccc     C8 3886   5.890  10.423   2.111  0.4466 -0.9314  0.0969
  153ccc     O2 3887   5.906  10.450   2.228  0.2940  0.8269 -0.1260
  153ccc     O3 3888   5.906  10.309   2.079 -0.2209  0.2340 -0.1533
  153ccc    H13 3889   6.242  10.855   1.916 -2.0644 -0.0726 -1.5726
  153ccc    H14 3890   6.286  10.699   1.999 -0.3943  0.2900  0.5345
  153ccc     C9 3891   6.196  10.847   2.129 -0.5231 -0.2258 -0.3911
  153ccc    H15 3892   6.142  10.778   2.196  0.8987 -2.0466 -1.0573
  153ccc    H16 3893   6.129  10.931   2.107 -0.5923  0.0079  0.6601
  153ccc    C10 3894   6.321  10.886   2.209 -0.2683 -0.2068 -0.6519
  153ccc     O4 3895   6.357  11.002   2.208  0.7307 -0.5566  0.4009
  153ccc     O5 3896   6.373  10.812   2.292  0.1471  0.3393  0.2306
  154ccc     N1 3897   8.610  11.355  -0.259 -0.2657 -0.9865  0.2668
  154ccc     H4 3898   8.613  11.358  -0.158  0.8336 -0.2290  0.2288
  154ccc     C3 3899   8.720  11.422  -0.344  0.1460  0.2577  0.3091
  154ccc     H5 3900   8.788  11.349  -0.390  0.2912  0.3789  0.3294
  154ccc     C4 3901   8.810  11.505  -0.244 -0.7304  0.4004  0.3377
  154ccc     H6 3902   8.676  11.492  -0.416  1.0537  0.1421 -0.3671
  154ccc     H7 3903   8.880  11.569  -0.301 -1.6530  1.5153  0.4337
  154ccc     H8 3904   8.873  11.427  -0.199 -0.7905 -0.7463 -1.4377
  154ccc     N2 3905   8.742  11.587  -0.148 -0.3271  0.2067  0.2884
  154ccc     C5 3906   8.665  11.701  -0.213 -0.1202 -0.3608  0.4326
  154ccc     C6 3907   8.842  11.630  -0.042 -0.0320  0.6481  0.1576
  154ccc     H9 3908   8.789  11.703   0.020 -0.6637  1.3414 -1.1554
  154ccc     C7 3909   8.967  11.716  -0.098  0.6242  0.6158  0.6980
  154ccc    H10 3910   8.890  11.546   0.009  2.1915  0.9420 -1.3005
  154ccc    H11 3911   8.926  11.790  -0.168 -0.3013  0.4187  1.0140
  154ccc    H12 3912   9.041  11.661  -0.157 -0.0597  0.0021  0.4006
  154ccc     C8 3913   9.028  11.786   0.025 -0.2503 -0.4441  0.1212
  154ccc     O2 3914   9.057  11.899   0.032 -0.0160 -0.0126  0.3899
  154ccc     O3 3915   9.033  11.730   0.133 -0.1413  0.6016  0.4991
  154ccc    H13 3916   8.604  11.668  -0.298  1.2022  1.0940 -1.1766
  154ccc    H14 3917   8.725  11.773  -0.271 -0.0477 -2.0817 -1.7671
  154ccc     C9 3918   8.574  11.774  -0.106  0.0352 -0.5941 -0.4680
  154ccc    H15 3919   8.640  11.836  -0.043 -0.7704  0.2116 -0.4065
  154ccc    H16 3920   8.521  11.700  -0.045  2.0987 -0.6699  1.4043
  154ccc    C10 3921   8.486  11.877  -0.170  0.0540  0.3982 -0.4034
  154ccc     O4 3922   8.485  11.992  -0.129  0.6182 -0.8989  0.7488
  154ccc     O5 3923   8.435  11.852  -0.283 -0.0429 -0.5253 -0.5852
  155ccc     N1 3924   8.338  11.800   0.149 -0.0775 -0.0340  0.2297
  155ccc     H4 3925   8.419  11.746   0.176  0.0011  1.3133  3.1148
  155ccc     C3 3926   8.334  11.939   0.190 -0.0151 -0.3658 -0.3075
  155ccc     H5 3927   8.397  12.000   0.124 -0.0542 -0.7381 -0.6985
  155ccc     C4 3928   8.385  11.939   0.329 -0.4237 -0.4989 -0.2180
  155ccc     H6 3929   8.231  11.976   0.186 -1.2029 -3.0670  1.8073
  155ccc     H7 3930   8.308  11.892   0.391 -0.3454 -1.2566 -0.6878
  155ccc     H8 3931   8.386  12.047   0.350  3.1502 -0.0279 -2.0386
  155ccc     N2 3932   8.524  11.877   0.358 -0.0933 -0.1199  0.2379
  155ccc     C5 3933   8.550  11.868   0.505  0.0423  0.2778 -0.2627
  155ccc     C6 3934   8.637  11.917   0.260  0.0854  0.2624  0.1966
  155ccc     H9 3935   8.718  11.847   0.282  0.5460  0.5864 -0.4514
  155ccc     C7 3936   8.686  12.054   0.287  0.3362  0.2281 -0.0817
  155ccc    H10 3937   8.599  11.911   0.157  0.3645 -0.1181  0.1174
  155ccc    H11 3938   8.754  12.060   0.373 -0.1223  1.7390  0.2076
  155ccc    H12 3939   8.611  12.133   0.296 -0.3392 -0.4302  0.1833
  155ccc     C8 3940   8.785  12.069   0.175 -0.2207 -0.2381  1.3195
  155ccc     O2 3941   8.901  12.041   0.193 -0.6927  0.0617 -0.1312
  155ccc     O3 3942   8.764  12.122   0.067 -0.4147 -0.1324  0.1767
  155ccc    H13 3943   8.479  11.794   0.544  0.1584  1.0047  1.4292
  155ccc    H14 3944   8.534  11.963   0.557  2.4010  0.4069  0.3199
  155ccc     C9 3945   8.688  11.818   0.544  0.0451 -0.2993  0.5572
  155ccc    H15 3946   8.765  11.883   0.502 -0.8852  0.6952  0.3557
  155ccc    H16 3947   8.698  11.720   0.496 -0.2489  0.1176 -0.3709
  155ccc    C10 3948   8.719  11.819   0.698 -0.0488 -0.4303  0.4868
  155ccc     O4 3949   8.732  11.925   0.757  0.1350 -0.1992 -0.7498
  155ccc     O5 3950   8.737  11.707   0.754  0.2319 -0.6326  0.6105
  156ccc     N1 3951   6.938  11.954   0.716 -0.0329  0.5045  0.5474
  156ccc     H4 3952   6.965  11.998   0.629  1.7756 -1.4635  0.0196
  156ccc     C3 3953   6.894  12.038   0.827 -0.0863 -0.7050  0.5003
  156ccc     H5 3954   6.866  12.136   0.789 -0.5585 -1.1609 -0.3582
  156ccc     C4 3955   6.997  12.052   0.943 -0.3388  0.3355  0.6133
  156ccc     H6 3956   6.800  12.002   0.873  0.3847 -1.0950  1.1810
  156ccc     H7 3957   7.091  12.087   0.897 -0.4593  0.4942  0.4871
  156ccc     H8 3958   7.024  11.955   0.986 -5.0232 -0.8901  1.3608
  156ccc     N2 3959   6.955  12.144   1.041  0.7369 -0.2310 -0.0170
  156ccc     C5 3960   7.057  12.228   1.115  0.9178  0.0679 -0.0839
  156ccc     C6 3961   6.863  12.071   1.130 -0.5923 -1.1025  0.0442
  156ccc     H9 3962   6.805  12.150   1.181 -0.7138 -0.6545 -0.7764
  156ccc     C7 3963   6.927  11.969   1.233  0.2436 -0.1572  0.4887
  156ccc    H10 3964   6.779  12.014   1.088 -1.3401 -1.4562  1.9080
  156ccc    H11 3965   7.009  12.023   1.283  0.3847 -1.3867  1.6473
  156ccc    H12 3966   6.973  11.882   1.185 -0.9706 -0.9905  0.7956
  156ccc     C8 3967   6.838  11.908   1.346  0.1653  0.2313  0.2931
  156ccc     O2 3968   6.856  11.791   1.385 -0.1881  0.0046  0.1083
  156ccc     O3 3969   6.751  11.973   1.402 -0.2124 -0.0572 -0.7908
  156ccc    H13 3970   7.125  12.158   1.166 -0.3169 -1.9936 -1.1235
  156ccc    H14 3971   7.010  12.302   1.181 -1.0693  1.3270 -2.7287
  156ccc     C9 3972   7.141  12.320   1.021  0.1597 -0.3139 -0.5191
  156ccc    H15 3973   7.077  12.355   0.938  0.2497 -0.7532 -0.7755
  156ccc    H16 3974   7.222  12.262   0.975  0.3542 -0.5607  0.1312
  156ccc    C10 3975   7.202  12.435   1.107  0.2532  0.8277  0.5595
  156ccc     O4 3976   7.283  12.409   1.192 -0.5150 -0.1021 -0.1815
  156ccc     O5 3977   7.175  12.550   1.084  0.0576 -0.1942  0.1518
  157ccc     N1 3978   7.041  11.266   0.255  0.1061 -0.6872 -0.0855
  157ccc     H4 3979   7.127  11.320   0.256 -0.2273 -0.1366  1.3445
  157ccc     C3 3980   7.005  11.161   0.154  0.4818 -0.2642  0.0739
  157ccc     H5 3981   6.902  11.129   0.175 -0.2646  2.6935  1.3328
  157ccc     C4 3982   7.100  11.038   0.163 -0.7414  0.1657  0.3692
  157ccc     H6 3983   7.008  11.202   0.053  3.0962 -1.3656 -0.3623
  157ccc     H7 3984   7.114  11.005   0.266 -2.2454  0.6446  0.7543
  157ccc     H8 3985   7.194  11.077   0.122 -0.1661 -0.3480  1.1936
  157ccc     N2 3986   7.063  10.922   0.075  0.2861 -0.0877  0.0917
  157ccc     C5 3987   6.917  10.896   0.063  0.5163  0.5811 -0.8379
  157ccc     C6 3988   7.145  10.800   0.096 -0.1174  0.0266  0.0507
  157ccc     H9 3989   7.147  10.766   0.200  0.4182 -2.0036 -0.5621
  157ccc     C7 3990   7.287  10.801   0.040  0.2199  0.8020 -0.5466
  157ccc    H10 3991   7.097  10.717   0.042 -0.3638  1.4613 -2.0461
  157ccc    H11 3992   7.344  10.882   0.088  0.0989  0.2987  0.4798
  157ccc    H12 3993   7.263  10.826  -0.064 -0.3482 -1.4757 -1.0133
  157ccc     C8 3994   7.347  10.656   0.070  0.2075 -0.6992 -0.4462
  157ccc     O2 3995   7.374  10.584  -0.022 -0.0286  0.0121 -0.4708
  157ccc     O3 3996   7.362  10.613   0.184 -0.3519 -0.9727  0.2684
  157ccc    H13 3997   6.905  10.817  -0.013  1.0381  1.2952 -1.6919
  157ccc    H14 3998   6.862  10.982   0.023 -0.8406  0.1760  0.1044
  157ccc     C9 3999   6.851  10.851   0.199  0.0925 -0.5237 -0.3363
  157ccc    H15 4000   6.869  10.924   0.279 -0.6095 -1.4687  0.7280
  157ccc    H16 4001   6.902  10.764   0.242  1.6693  0.5696  0.0920
  157ccc    C10 4002   6.702  10.834   0.180 -0.1887  0.1032  0.0402
  157ccc     O4 4003   6.651  10.744   0.120 -0.0680 -0.3013 -0.3639
  157ccc     O5 4004   6.622  10.913   0.226  0.3383  0.0003 -0.3317
  158ccc     N1 4005   9.268   7.318  -0.137 -0.2412  0.2408 -0.6858
  158ccc     H4 4006   9.278   7.318  -0.036  1.5131 -0.5203 -0.8144
  158ccc     C3 4007   9.139   7.283  -0.198  0.2930 -0.6467 -0.3051
  158ccc     H5 4008   9.065   7.273  -0.118 -0.9548  0.1912 -1.3346
  158ccc     C4 4009   9.140   7.141  -0.263 -0.1891 -0.1817 -0.5183
  158ccc     H6 4010   9.099   7.356  -0.270  0.0135  0.7824  1.2392
  158ccc     H7 4011   9.141   7.068  -0.181  0.7357  1.0456  0.6036
  158ccc     H8 4012   9.231   7.131  -0.324 -0.8660 -2.2305 -1.2799
  158ccc     N2 4013   9.021   7.123  -0.352 -0.3975  0.0180 -0.1594
  158ccc     C5 4014   9.021   7.213  -0.470  0.5315 -0.1769  0.0502
  158ccc     C6 4015   8.889   7.107  -0.288 -0.3745  0.8558 -0.5779
  158ccc     H9 4016   8.894   7.049  -0.195 -0.5133  2.5303  0.5142
  158ccc     C7 4017   8.783   7.040  -0.368 -0.2390  0.2792 -0.2994
  158ccc    H10 4018   8.863   7.209  -0.260  0.3078  0.1168  3.3400
  158ccc    H11 4019   8.828   6.944  -0.393 -0.3316 -0.0470  0.7376
  158ccc    H12 4020   8.760   7.102  -0.456  1.2875 -0.1632 -1.0428
  158ccc     C8 4021   8.655   7.016  -0.283  0.5059 -0.1844  0.1246
  158ccc     O2 4022   8.614   7.094  -0.199  0.1121  0.2933 -0.4860
  158ccc     O3 4023   8.593   6.909  -0.293 -0.7622 -0.0795 -0.1544
  158ccc    H13 4024   8.994   7.315  -0.437 -0.7328 -0.6112  0.3962
  158ccc    H14 4025   8.944   7.184  -0.542  0.8060 -1.2948  0.1896
  158ccc     C9 4026   9.157   7.214  -0.544 -0.2007 -0.3404  0.2219
  158ccc    H15 4027   9.189   7.109  -0.553 -0.1924 -0.4488  1.3283
  158ccc    H16 4028   9.231   7.257  -0.475  0.8653 -0.9922 -0.4879
  158ccc    C10 4029   9.156   7.295  -0.679  0.5895 -0.3333 -0.2141
  158ccc     O4 4030   9.133   7.236  -0.784  0.1201  0.3096  0.1730
  158ccc     O5 4031   9.195   7.412  -0.692 -0.0111 -0.1434 -0.0986
  159ccc     N1 4032   9.357   7.835   0.331 -0.4648 -0.4734  0.4262
  159ccc     H4 4033   9.397   7.746   0.358  0.6078  0.0684  0.6647
  159ccc     C3 4034   9.304   7.927   0.432  0.5185 -0.0581 -0.2546
  159ccc     H5 4035   9.379   8.008   0.436  2.2917 -1.6052 -0.5341
  159ccc     C4 4036   9.272   7.858   0.564 -0.4495 -0.6751 -0.0817
  159ccc     H6 4037   9.210   7.968   0.395 -0.1993 -1.5150 -0.0974
  159ccc     H7 4038   9.179   7.803   0.545 -0.9574 -0.1576  0.8530
  159ccc     H8 4039   9.260   7.942   0.634 -0.0848 -0.6858 -0.0046
  159ccc     N2 4040   9.375   7.759   0.617  0.7919 -0.4936  0.3227
  159ccc     C5 4041   9.513   7.804   0.630 -0.2680 -0.0691 -0.0724
  159ccc     C6 4042   9.321   7.668   0.729  0.6262  0.1340  0.2156
  159ccc     H9 4043   9.402   7.596   0.746  0.1919 -0.4316 -0.1195
  159ccc     C7 4044   9.193   7.584   0.696 -0.0844 -0.6178 -0.1655
  159ccc    H10 4045   9.302   7.733   0.815 -0.7114 -1.4368  1.1478
  159ccc    H11 4046   9.188   7.564   0.588 -0.6877 -0.6582 -0.1333
  159ccc    H12 4047   9.101   7.637   0.723 -0.7320 -1.4890 -0.6464
  159ccc     C8 4048   9.188   7.454   0.773  0.3215  0.0352  0.4259
  159ccc     O2 4049   9.275   7.371   0.781  0.1329  0.2834 -1.1276
  159ccc     O3 4050   9.081   7.413   0.817 -0.0584 -0.1083 -0.2511
  159ccc    H13 4051   9.541   7.869   0.547  2.0761 -0.2440  0.4880
  159ccc    H14 4052   9.576   7.714   0.622 -0.4916 -0.2189 -0.1577
  159ccc     C9 4053   9.549   7.869   0.761 -0.1545  0.1269 -0.5325
  159ccc    H15 4054   9.556   7.794   0.841 -1.4455 -0.5129 -0.9987
  159ccc    H16 4055   9.470   7.937   0.795  1.1988  0.8782  1.3037
  159ccc    C10 4056   9.680   7.953   0.748  0.3624 -0.4904  0.3045
  159ccc     O4 4057   9.783   7.914   0.692 -0.2909 -0.1063  0.5033
  159ccc     O5 4058   9.693   8.066   0.795  0.2635  0.7378  1.0289
  160ccc     N1 4059   8.076   8.333  -0.384  0.3375 -0.7669  0.0867
  160ccc     H4 4060   8.106   8.338  -0.481 -0.6463  0.2218 -0.1927
  160ccc     C3 4061   7.954   8.408  -0.346 -0.1865 -0.2355 -0.2827
  160ccc     H5 4062   7.896   8.338  -0.285  0.9426  0.8475  2.1986
  160ccc     C4 4063   7.875   8.433  -0.476 -0.4531 -0.3742 -1.1234
  160ccc     H6 4064   7.966   8.497  -0.282 -3.6520  0.3221 -0.2252
  160ccc     H7 4065   7.851   8.330  -0.507  4.5351 -1.7368 -1.3312
  160ccc     H8 4066   7.936   8.468  -0.559  1.6672  0.0077  0.5122
  160ccc     N2 4067   7.751   8.522  -0.450 -0.3744  0.4259  0.2720
  160ccc     C5 4068   7.679   8.481  -0.326  0.8812  0.9678  0.2365
  160ccc     C6 4069   7.768   8.665  -0.459 -0.4641  0.1882  0.2220
  160ccc     H9 4070   7.684   8.722  -0.417  0.0517 -0.9362  3.0051
  160ccc     C7 4071   7.775   8.713  -0.605  0.7930 -0.8521  0.3834
  160ccc    H10 4072   7.857   8.690  -0.399  0.1125 -1.8218  0.2524
  160ccc    H11 4073   7.700   8.673  -0.675 -2.1933 -0.3284  3.0826
  160ccc    H12 4074   7.879   8.717  -0.640  0.5563 -0.4134 -0.2947
  160ccc     C8 4075   7.724   8.856  -0.600  0.5258  0.3147 -0.9090
  160ccc     O2 4076   7.806   8.946  -0.578 -0.2262 -0.4835 -0.0121
  160ccc     O3 4077   7.609   8.886  -0.633  0.1541  0.2275 -0.3302
  160ccc    H13 4078   7.748   8.484  -0.241  0.5138 -2.4637  0.8117
  160ccc    H14 4079   7.642   8.377  -0.332 -0.4065  1.4606 -0.8302
  160ccc     C9 4080   7.550   8.560  -0.288  0.0046 -0.6257  0.3458
  160ccc    H15 4081   7.578   8.662  -0.259  1.7262 -0.7487 -0.7671
  160ccc    H16 4082   7.501   8.511  -0.203 -0.4170 -2.9921 -1.1513
  160ccc    C10 4083   7.436   8.565  -0.397  0.0070  0.3738 -0.4606
  160ccc     O4 4084   7.342   8.485  -0.392 -0.0129 -0.0303 -0.1137
  160ccc     O5 4085   7.434   8.645  -0.486 -0.4776  0.4513 -0.0198
  161ccc     N1 4086   8.667   7.893  -0.756 -0.1443  0.0634 -0.1121
  161ccc     H4 4087   8.727   7.887  -0.675  2.0274  0.2972 -1.6193
  161ccc     C3 4088   8.701   7.813  -0.878  0.2044 -0.0109 -0.3408
  161ccc     H5 4089   8.772   7.735  -0.848 -0.1125  0.3362  1.4286
  161ccc     C4 4090   8.759   7.895  -0.995  0.2305  0.0940  0.2374
  161ccc     H6 4091   8.600   7.778  -0.902 -1.3156  3.0333  1.0865
  161ccc     H7 4092   8.684   7.961  -1.038 -0.8928 -1.4456 -0.2616
  161ccc     H8 4093   8.774   7.817  -1.072  1.1992  0.9030 -0.4309
  161ccc     N2 4094   8.889   7.971  -0.968 -0.3531 -0.0083  0.1042
  161ccc     C5 4095   8.998   7.901  -0.889 -0.1674  0.1679 -0.6325
  161ccc     C6 4096   8.932   8.012  -1.109  0.0536 -0.2895 -0.2812
  161ccc     H9 4097   8.983   7.925  -1.153 -0.3378 -0.0217 -1.2827
  161ccc     C7 4098   9.030   8.135  -1.092  0.6115 -0.1563  0.2928
  161ccc    H10 4099   8.850   8.056  -1.167 -0.8250 -1.4496  0.0464
  161ccc    H11 4100   9.056   8.173  -1.191 -0.2836  1.6880  0.7123
  161ccc    H12 4101   9.122   8.098  -1.047  0.3157 -0.9031  0.3064
  161ccc     C8 4102   8.973   8.260  -1.021 -0.2580  0.5689  0.7867
  161ccc     O2 4103   8.892   8.342  -1.069  0.3449  0.3661 -0.3725
  161ccc     O3 4104   9.015   8.299  -0.913  0.0959 -0.6815  0.0851
  161ccc    H13 4105   8.955   7.863  -0.795  2.2820  0.2190  0.5915
  161ccc    H14 4106   9.078   7.972  -0.864  0.6579  0.2377 -3.2158
  161ccc     C9 4107   9.066   7.782  -0.960 -0.6893  0.0422 -0.0445
  161ccc    H15 4108   9.124   7.828  -1.041 -1.8511  0.6391 -0.5624
  161ccc    H16 4109   8.984   7.720  -0.998  0.4448 -1.4308 -0.1565
  161ccc    C10 4110   9.162   7.692  -0.881 -0.1556  0.1182  0.1825
  161ccc     O4 4111   9.174   7.697  -0.761  0.2369  0.2797  0.2616
  161ccc     O5 4112   9.210   7.587  -0.925  0.1069  0.3321  0.5353
  162ccc     N1 4113  10.503   9.106   1.590 -0.6055  0.2737 -0.3082
  162ccc     H4 4114  10.459   9.016   1.604  1.3150 -0.7831 -0.7394
  162ccc     C3 4115  10.600   9.159   1.685  0.0860  0.0428  0.4767
  162ccc     H5 4116  10.606   9.269   1.681 -1.6117  0.1320 -0.4704
  162ccc     C4 4117  10.743   9.114   1.671 -0.2897  0.3494  0.2865
  162ccc     H6 4118  10.569   9.135   1.788 -2.4397  4.7094  1.0948
  162ccc     H7 4119  10.780   9.138   1.571 -0.0969  0.8725  0.4782
  162ccc     H8 4120  10.751   9.005   1.678  2.0512  0.3771 -1.0425
  162ccc     N2 4121  10.836   9.172   1.767  0.1783 -0.5283 -0.4563
  162ccc     C5 4122  10.788   9.162   1.911 -0.2745 -0.0765  0.7018
  162ccc     C6 4123  10.973   9.131   1.760 -0.1291 -0.0707  0.1307
  162ccc     H9 4124  10.978   9.025   1.786 -0.0794 -0.6652 -2.0834
  162ccc     C7 4125  11.079   9.220   1.834  0.6042 -0.1346  0.3827
  162ccc    H10 4126  11.006   9.141   1.656 -0.0066  2.0098  0.3190
  162ccc    H11 4127  11.181   9.184   1.854  0.8326  1.4066  2.3331
  162ccc    H12 4128  11.048   9.256   1.933  0.1525 -1.0769  0.6014
  162ccc     C8 4129  11.115   9.351   1.763  0.6053  0.0090  0.0146
  162ccc     O2 4130  11.160   9.452   1.826 -0.5990  0.2841 -0.0076
  162ccc     O3 4131  11.077   9.376   1.651 -0.4918  0.1314  0.4052
  162ccc    H13 4132  10.694   9.216   1.925  0.1740  0.5397  1.4185
  162ccc    H14 4133  10.857   9.213   1.980  0.8480  1.2084 -1.2554
  162ccc     C9 4134  10.765   9.017   1.958  0.6093 -0.4896  0.2754
  162ccc    H15 4135  10.854   8.954   1.943  1.7594  1.2012 -0.3281
  162ccc    H16 4136  10.679   8.977   1.903 -0.2790 -0.4183  1.5863
  162ccc    C10 4137  10.726   9.009   2.107 -0.1902  0.4612  0.4295
  162ccc     O4 4138  10.626   9.063   2.146  0.3050  0.3327  0.5920
  162ccc     O5 4139  10.780   8.927   2.185  0.4320  0.3087 -0.1301
  163ccc     N1 4140   9.770   8.794   1.537  0.1747  0.7118  0.2485
  163ccc     H4 4141   9.847   8.739   1.574 -1.3163  0.1526  2.7453
  163ccc     C3 4142   9.635   8.760   1.577 -0.0765 -0.1905  0.2313
  163ccc     H5 4143   9.582   8.847   1.619 -0.8668 -0.6599  0.2176
  163ccc     C4 4144   9.641   8.652   1.686  0.0234 -0.1207 -0.6409
  163ccc     H6 4145   9.580   8.719   1.491 -2.7690  1.4081  1.0726
  163ccc     H7 4146   9.731   8.675   1.744  0.7417  2.3706 -2.5673
  163ccc     H8 4147   9.655   8.555   1.636  1.7436 -0.5074  0.4958
  163ccc     N2 4148   9.519   8.655   1.774 -0.5346  0.2508 -0.3246
  163ccc     C5 4149   9.535   8.572   1.897  0.4179  0.0632  0.8586
  163ccc     C6 4150   9.391   8.643   1.711  0.6305 -0.7454  0.6531
  163ccc     H9 4151   9.307   8.667   1.778  0.2910  1.1979 -0.3842
  163ccc     C7 4152   9.365   8.512   1.645 -0.7950  0.0763 -0.1801
  163ccc    H10 4153   9.387   8.718   1.631 -1.8570  0.0974  1.4568
  163ccc    H11 4154   9.354   8.438   1.725  1.5414  0.1294  0.2761
  163ccc    H12 4155   9.452   8.483   1.584 -0.8102  2.1000 -1.2706
  163ccc     C8 4156   9.237   8.525   1.551 -0.2650  0.2568  0.5070
  163ccc     O2 4157   9.135   8.455   1.573  0.2221 -0.5615  0.2635
  163ccc     O3 4158   9.227   8.599   1.452 -0.1531 -0.2712 -1.0575
  163ccc    H13 4159   9.543   8.467   1.865  0.9415  0.4462 -0.3267
  163ccc    H14 4160   9.443   8.593   1.953 -0.3175  0.1569 -0.3409
  163ccc     C9 4161   9.641   8.615   1.997 -0.1449  0.3930 -0.1846
  163ccc    H15 4162   9.644   8.721   2.024  0.6073  0.0177  1.3779
  163ccc    H16 4163   9.733   8.591   1.942 -0.4641 -3.9746  0.7978
  163ccc    C10 4164   9.621   8.537   2.126 -0.3200  0.2379  0.6205
  163ccc     O4 4165   9.688   8.440   2.154 -0.8032  0.1792 -0.1030
  163ccc     O5 4166   9.540   8.573   2.205 -0.1928  0.6758 -0.4939
  164ccc     N1 4167  10.506   8.488   0.527 -0.1938  0.2140 -0.5529
  164ccc     H4 4168  10.434   8.559   0.530 -0.8960 -0.4945  2.2423
  164ccc     C3 4169  10.495   8.366   0.604 -0.4657 -0.4670 -0.0518
  164ccc     H5 4170  10.505   8.272   0.546  0.8082 -0.4659  0.1423
  164ccc     C4 4171  10.367   8.354   0.689 -0.0962 -0.1637  0.4452
  164ccc     H6 4172  10.581   8.371   0.671 -0.0497 -0.5797 -0.5729
  164ccc     H7 4173  10.364   8.447   0.747  1.5252  1.4171 -1.8067
  164ccc     H8 4174  10.378   8.270   0.759  2.5517  0.0566  0.4065
  164ccc     N2 4175  10.243   8.354   0.610  0.0443 -0.0070  0.0882
  164ccc     C5 4176  10.131   8.350   0.706  0.5831  0.0023 -0.0091
  164ccc     C6 4177  10.238   8.276   0.485  0.7695  0.4882 -0.6265
  164ccc     H9 4178  10.149   8.300   0.425 -1.1776 -1.0759  1.4578
  164ccc     C7 4179  10.243   8.123   0.501  0.6793 -0.0261  0.6600
  164ccc    H10 4180  10.315   8.305   0.412 -0.7285  3.0609 -1.2686
  164ccc    H11 4181  10.314   8.093   0.579  0.0064 -1.6138  0.6878
  164ccc    H12 4182  10.294   8.093   0.408 -0.5135  1.8122 -0.6554
  164ccc     C8 4183  10.109   8.045   0.515  0.1655 -0.2715 -0.2330
  164ccc     O2 4184  10.013   8.075   0.594 -0.3939  0.6463  0.3046
  164ccc     O3 4185  10.089   7.946   0.444 -0.3595 -0.2836 -0.6184
  164ccc    H13 4186  10.154   8.420   0.787  0.7720 -0.5084  0.3804
  164ccc    H14 4187  10.114   8.253   0.753 -0.3553 -0.2958 -0.9160
  164ccc     C9 4188  10.004   8.395   0.628  0.5008  0.3070 -0.1055
  164ccc    H15 4189   9.982   8.324   0.547 -0.5330  2.1678 -1.5444
  164ccc    H16 4190  10.021   8.494   0.584 -0.4063  0.8014  0.6221
  164ccc    C10 4191   9.889   8.419   0.721 -0.2383 -0.0530 -0.3529
  164ccc     O4 4192   9.816   8.324   0.746  0.0216 -0.2049  0.8429
  164ccc     O5 4193   9.906   8.508   0.806 -0.8043 -0.2607  0.2021
  165ccc     N1 4194  11.018   8.894   0.512  0.0739  0.1381  0.1825
  165ccc     H4 4195  11.069   8.807   0.505  0.2427 -0.0508  2.9847
  165ccc     C3 4196  11.030   8.983   0.632  0.2695 -0.7930  0.4365
  165ccc     H5 4197  11.098   9.065   0.609  1.9244 -2.6955 -2.0504
  165ccc     C4 4198  11.067   8.912   0.762  0.1506  0.0868  0.3582
  165ccc     H6 4199  10.932   9.031   0.645 -0.6131 -2.0125 -1.1983
  165ccc     H7 4200  11.113   8.989   0.825 -2.6940  0.8423  1.6758
  165ccc     H8 4201  11.154   8.854   0.730 -0.2995  0.6940 -2.2152
  165ccc     N2 4202  10.968   8.828   0.833  0.3343  0.3659  0.1907
  165ccc     C5 4203  10.873   8.746   0.746  0.3582  0.3381  0.0017
  165ccc     C6 4204  11.024   8.753   0.947  0.3583 -0.3012 -0.0835
  165ccc     H9 4205  10.941   8.707   1.004  0.9962  0.4727  1.5235
  165ccc     C7 4206  11.095   8.845   1.048 -0.1297  0.8763 -0.1613
  165ccc    H10 4207  11.093   8.678   0.908 -0.2006 -1.0431  0.3094
  165ccc    H11 4208  11.039   8.934   1.078  0.4750  0.9951  0.6495
  165ccc    H12 4209  11.185   8.890   1.004  1.8330 -0.9224  1.7859
  165ccc     C8 4210  11.146   8.777   1.177 -0.1419  0.0311  0.5484
  165ccc     O2 4211  11.084   8.797   1.280  0.6865  0.2978 -0.4465
  165ccc     O3 4212  11.235   8.690   1.178 -0.4421 -0.3671 -0.4562
  165ccc    H13 4213  10.931   8.687   0.675 -2.0033 -1.5197 -0.5326
  165ccc    H14 4214  10.817   8.814   0.681  1.3465 -0.9735 -2.3561
  165ccc     C9 4215  10.782   8.643   0.823  0.3982 -0.6290  0.0146
  165ccc    H15 4216  10.845   8.571   0.877  1.4778  1.1355  1.1919
  165ccc    H16 4217  10.717   8.596   0.748  0.7688  1.0456 -1.4195
  165ccc    C10 4218  10.680   8.705   0.917  0.2128  0.8869  0.0239
  165ccc     O4 4219  10.656   8.655   1.025  0.0641  0.3771  0.3830
  165ccc     O5 4220  10.598   8.781   0.871 -0.5035 -0.5913  0.0845
  166ccc     N1 4221   6.738   9.202   0.895 -0.4663 -0.0176  0.7028
  166ccc     H4 4222   6.722   9.204   0.995 -2.4928 -0.8423  0.4457
  166ccc     C3 4223   6.647   9.269   0.796  0.0581  0.0997 -0.2260
  166ccc     H5 4224   6.702   9.316   0.713  1.6801 -1.4020 -0.0532
  166ccc     C4 4225   6.569   9.389   0.868  0.4548 -0.2085  0.6232
  166ccc     H6 4226   6.569   9.202   0.758 -0.0622 -1.6302  2.8169
  166ccc     H7 4227   6.653   9.452   0.899  1.6434 -0.9798 -0.8738
  166ccc     H8 4228   6.514   9.349   0.954  0.4313  0.1028  0.7546
  166ccc     N2 4229   6.480   9.472   0.780 -0.1093  0.4585  0.2283
  166ccc     C5 4230   6.381   9.395   0.688 -0.4957  0.2772 -0.5663
  166ccc     C6 4231   6.421   9.579   0.856 -0.1741  0.1131 -0.7543
  166ccc     H9 4232   6.329   9.617   0.811  0.4958  2.5133 -0.2154
  166ccc     C7 4233   6.505   9.714   0.871 -0.2865  0.3314 -0.3032
  166ccc    H10 4234   6.383   9.548   0.954  0.3645  1.8957  0.0475
  166ccc    H11 4235   6.545   9.746   0.774  1.4221  0.5584  0.4361
  166ccc    H12 4236   6.590   9.695   0.938 -0.0885  3.0151  0.2984
  166ccc     C8 4237   6.431   9.832   0.939  0.1506  0.0865 -0.2184
  166ccc     O2 4238   6.429   9.946   0.891 -0.1069  0.5090 -0.3672
  166ccc     O3 4239   6.388   9.826   1.051  0.5029 -0.2828 -0.3039
  166ccc    H13 4240   6.295   9.364   0.750  0.4957  1.9460  1.8156
  166ccc    H14 4241   6.423   9.302   0.648  0.8099  0.0782  1.1704
  166ccc     C9 4242   6.332   9.481   0.570 -0.3934 -0.2943 -0.7685
  166ccc    H15 4243   6.395   9.569   0.549 -2.1347  1.1332 -0.1932
  166ccc    H16 4244   6.238   9.524   0.605 -0.1050 -0.8044  0.7223
  166ccc    C10 4245   6.303   9.394   0.450 -0.0551 -0.1317  1.3569
  166ccc     O4 4246   6.398   9.340   0.393 -0.3267  0.2676  0.4020
  166ccc     O5 4247   6.184   9.374   0.421  0.0304  0.7130 -0.0884
  167ccc     N1 4248   6.975   9.301   1.535 -0.3010  0.7460  0.0892
  167ccc     H4 4249   7.028   9.379   1.498  0.8386  1.1901  2.4310
  167ccc     C3 4250   6.917   9.330   1.668  0.1455  0.3046  0.4041
  167ccc     H5 4251   6.824   9.276   1.690  0.1612  0.7955  1.8255
  167ccc     C4 4252   6.895   9.475   1.703  0.6317 -0.8326 -0.4185
  167ccc     H6 4253   6.989   9.298   1.745  1.4301 -1.4717 -1.4385
  167ccc     H7 4254   6.835   9.521   1.623 -0.0217  1.1998  1.1650
  167ccc     H8 4255   6.996   9.518   1.698  0.6051 -0.6041  0.7602
  167ccc     N2 4256   6.843   9.491   1.844 -0.7357 -0.3363  0.1323
  167ccc     C5 4257   6.856   9.628   1.892  0.7983 -0.1495 -0.2602
  167ccc     C6 4258   6.711   9.427   1.882  0.2799 -0.0819  0.3179
  167ccc     H9 4259   6.707   9.320   1.862  1.0252 -0.1854  0.6791
  167ccc     C7 4260   6.586   9.503   1.827  0.3707 -0.0378  0.8488
  167ccc    H10 4261   6.712   9.437   1.991  0.2631  1.0170  0.2316
  167ccc    H11 4262   6.584   9.486   1.719  3.1139  0.7482  0.6082
  167ccc    H12 4263   6.605   9.610   1.838  2.0082 -0.0550 -1.2755
  167ccc     C8 4264   6.458   9.460   1.899  0.3078  0.3920  0.3240
  167ccc     O2 4265   6.371   9.543   1.911  0.0959 -0.4455 -0.1070
  167ccc     O3 4266   6.431   9.342   1.929  0.0616  0.2967 -0.2972
  167ccc    H13 4267   6.804   9.643   1.988  0.2955  0.3005 -0.5911
  167ccc    H14 4268   6.804   9.696   1.823 -0.3530  0.4651  1.1720
  167ccc     C9 4269   6.999   9.674   1.917  0.5062 -0.0450  0.1739
  167ccc    H15 4270   6.997   9.783   1.908  1.4403 -0.1441 -1.8750
  167ccc    H16 4271   7.079   9.642   1.850 -0.3922 -2.3181  0.0962
  167ccc    C10 4272   7.044   9.650   2.066  0.0379 -0.4246 -0.7332
  167ccc     O4 4273   7.000   9.720   2.157 -0.3345  0.1544  0.0074
  167ccc     O5 4274   7.143   9.590   2.101 -0.0243  0.2181  0.2503
  168ccc     N1 4275   7.814   8.786  -0.068 -0.5169  0.3780 -0.2705
  168ccc     H4 4276   7.738   8.832  -0.019 -0.8753 -0.1951 -0.2810
  168ccc     C3 4277   7.909   8.881  -0.125 -0.1341 -0.3225 -0.1462
  168ccc     H5 4278   7.988   8.897  -0.051  0.2244  2.3285 -1.0184
  168ccc     C4 4279   7.839   9.012  -0.152  0.4006  0.1282  0.6322
  168ccc     H6 4280   7.937   8.830  -0.218  1.1638  0.1898 -0.0436
  168ccc     H7 4281   7.740   8.984  -0.188  0.1350  1.2705  0.4253
  168ccc     H8 4282   7.891   9.071  -0.229  2.1624 -1.5977  0.4316
  168ccc     N2 4283   7.817   9.092  -0.029  0.0071  0.0532 -0.5515
  168ccc     C5 4284   7.697   9.181  -0.047 -0.6599 -0.0263 -0.7688
  168ccc     C6 4285   7.931   9.163   0.020  0.3657 -0.5789 -0.6021
  168ccc     H9 4286   8.019   9.099   0.003  0.4023 -1.3219  1.9525
  168ccc     C7 4287   7.928   9.211   0.169  0.1620  0.8637 -0.0330
  168ccc    H10 4288   7.936   9.254  -0.040  2.2251  0.2465  0.7006
  168ccc    H11 4289   7.967   9.129   0.230  2.0091  2.7277  1.4409
  168ccc    H12 4290   7.827   9.241   0.198  0.3504 -0.1530  1.7946
  168ccc     C8 4291   8.029   9.322   0.199  0.2820  0.7625 -0.2300
  168ccc     O2 4292   8.145   9.301   0.238  0.3617 -0.5894 -0.1258
  168ccc     O3 4293   7.998   9.436   0.179 -0.4841 -0.6147 -0.0124
  168ccc    H13 4294   7.675   9.224   0.052 -0.7361  0.2827 -0.9187
  168ccc    H14 4295   7.612   9.117  -0.070 -0.0039 -1.1381 -0.2044
  168ccc     C9 4296   7.711   9.288  -0.158 -0.9723  0.7705  0.4942
  168ccc    H15 4297   7.634   9.262  -0.233 -0.1488 -3.1987  0.8192
  168ccc    H16 4298   7.811   9.281  -0.203 -0.2143  0.5743  2.1472
  168ccc    C10 4299   7.704   9.433  -0.115  0.7941  0.5151  0.0194
  168ccc     O4 4300   7.791   9.487  -0.051  0.1466 -0.1964 -0.4344
  168ccc     O5 4301   7.590   9.482  -0.103  0.2352  0.5470 -0.1462
  169ccc     N1 4302   7.258   8.653   0.042 -0.3759 -0.0457  0.5545
  169ccc     H4 4303   7.329   8.725   0.044  0.9838 -1.2585 -1.2151
  169ccc     C3 4304   7.122   8.685  -0.012  1.0834  0.2104  0.3766
  169ccc     H5 4305   7.113   8.622  -0.102  0.9624  1.1258 -0.2610
  169ccc     C4 4306   7.117   8.836  -0.040 -0.4797  0.0390  0.2402
  169ccc     H6 4307   7.036   8.657   0.050 -0.7692 -0.6421 -2.3821
  169ccc     H7 4308   7.123   8.876   0.062  0.1260 -0.4524  0.4000
  169ccc     H8 4309   7.020   8.869  -0.079 -0.8991 -0.2611  0.9979
  169ccc     N2 4310   7.231   8.887  -0.122  0.3484  0.0996 -0.0583
  169ccc     C5 4311   7.253   8.825  -0.254  0.5063  0.1285 -0.0891
  169ccc     C6 4312   7.240   9.034  -0.126 -0.0170 -0.3446  0.7215
  169ccc     H9 4313   7.326   9.070  -0.184 -0.2693  1.5154  1.4067
  169ccc     C7 4314   7.244   9.103   0.011  0.1281 -0.4968  0.0328
  169ccc    H10 4315   7.150   9.070  -0.178 -2.3352 -1.5746  3.5658
  169ccc    H11 4316   7.340   9.075   0.055 -0.5399 -1.6054  0.8385
  169ccc    H12 4317   7.165   9.058   0.074 -0.3966  1.2488  0.6958
  169ccc     C8 4318   7.238   9.256   0.014 -0.4615  0.3385 -0.1928
  169ccc     O2 4319   7.172   9.305   0.102  0.4174 -0.2814 -0.0598
  169ccc     O3 4320   7.328   9.327  -0.027  0.8847 -0.1148 -0.4064
  169ccc    H13 4321   7.275   8.718  -0.256 -0.6143 -0.1001 -1.0011
  169ccc    H14 4322   7.338   8.879  -0.297  0.8029 -1.2766 -1.3460
  169ccc     C9 4323   7.134   8.837  -0.347  0.4873 -0.2933  0.4610
  169ccc    H15 4324   7.101   8.939  -0.367 -0.8758 -1.0523 -1.4237
  169ccc    H16 4325   7.052   8.774  -0.309  0.3695  0.4163  1.4371
  169ccc    C10 4326   7.162   8.786  -0.494 -0.4274  0.3670 -0.3692
  169ccc     O4 4327   7.116   8.677  -0.526 -0.3852 -0.1595  0.3006
  169ccc     O5 4328   7.224   8.850  -0.574  0.3492 -0.4927 -0.1405
  170ccc     N1 4329   8.767   7.288   0.145  1.4453  0.1994  0.4781
  170ccc     H4 4330   8.751   7.337   0.232 -3.5774  0.0715 -0.0529
  170ccc     C3 4331   8.748   7.145   0.128  0.0783  0.4790 -0.1201
  170ccc     H5 4332   8.672   7.119   0.053 -0.8732 -1.5182  1.4525
  170ccc     C4 4333   8.710   7.069   0.261  0.3882 -0.5186  0.2372
  170ccc     H6 4334   8.842   7.104   0.090 -1.7107 -0.5825 -3.8743
  170ccc     H7 4335   8.803   7.053   0.318 -0.0790  0.0703  1.2084
  170ccc     H8 4336   8.669   6.970   0.240 -0.2486  0.3266 -2.8795
  170ccc     N2 4337   8.605   7.140   0.344  0.2091 -0.0154 -0.4911
  170ccc     C5 4338   8.475   7.167   0.285 -0.4740  0.2485 -0.3680
  170ccc     C6 4339   8.640   7.254   0.429 -0.2258  0.0418  0.2423
  170ccc     H9 4340   8.657   7.344   0.369  1.0381  0.2217  0.8400
  170ccc     C7 4341   8.753   7.227   0.532  0.1753 -0.1673 -0.0168
  170ccc    H10 4342   8.556   7.284   0.492  0.6255 -0.5183  1.6896
  170ccc    H11 4343   8.844   7.209   0.474 -0.3706  3.0806 -2.1220
  170ccc    H12 4344   8.729   7.138   0.592 -1.9365 -0.0379 -0.5846
  170ccc     C8 4345   8.765   7.338   0.637  0.8367 -0.2325 -0.8622
  170ccc     O2 4346   8.767   7.457   0.610 -0.6187 -0.4384  0.0746
  170ccc     O3 4347   8.794   7.312   0.754 -0.6498 -0.6026 -0.3490
  170ccc    H13 4348   8.495   7.242   0.206 -0.9980  1.2656  0.4389
  170ccc    H14 4349   8.410   7.210   0.362  1.4029 -0.0257  1.4496
  170ccc     C9 4350   8.401   7.042   0.229  0.3799  0.1864 -0.1219
  170ccc    H15 4351   8.297   7.049   0.262  1.6814 -0.3302  4.9007
  170ccc    H16 4352   8.438   6.943   0.258  2.8598  1.1016  0.0790
  170ccc    C10 4353   8.407   7.035   0.074 -0.2144 -0.6950  0.1696
  170ccc     O4 4354   8.400   7.135   0.001 -0.2879 -0.0223  0.3413
  170ccc     O5 4355   8.424   6.931   0.013 -0.1271  0.2439 -0.1056
  171ccc     N1 4356   8.791   7.814   0.259  0.6616 -0.1861  0.2364
  171ccc     H4 4357   8.845   7.762   0.326  1.6729  0.9861  0.3647
  171ccc     C3 4358   8.642   7.817   0.270  0.5192 -0.3933 -0.0103
  171ccc     H5 4359   8.621   7.922   0.292  1.0663 -0.2979  0.0667
  171ccc     C4 4360   8.584   7.719   0.369  0.0703  0.0188  0.1579
  171ccc     H6 4361   8.599   7.796   0.171 -0.5871  0.4563  0.2652
  171ccc     H7 4362   8.620   7.732   0.471  1.6409 -0.0711 -0.3588
  171ccc     H8 4363   8.622   7.617   0.353 -0.0053  0.1971 -1.2931
  171ccc     N2 4364   8.430   7.716   0.358 -0.3293 -0.0396 -0.2827
  171ccc     C5 4365   8.375   7.850   0.381  0.0794  0.2311  0.2152
  171ccc     C6 4366   8.379   7.646   0.241 -0.5294 -0.2108 -0.6044
  171ccc     H9 4367   8.282   7.608   0.276  0.3128 -0.7885  1.2864
  171ccc     C7 4368   8.461   7.523   0.201  0.6070  0.1454  0.4053
  171ccc    H10 4369   8.353   7.714   0.159 -0.8879 -1.6495 -1.7173
  171ccc    H11 4370   8.493   7.459   0.284  0.9973  0.6446  0.6441
  171ccc    H12 4371   8.551   7.548   0.144  0.1343 -0.1122 -0.4791
  171ccc     C8 4372   8.386   7.441   0.096 -0.1873  0.4842 -0.1369
  171ccc     O2 4373   8.439   7.421  -0.011 -0.1672  0.4751 -0.3446
  171ccc     O3 4374   8.281   7.392   0.122 -0.4192 -0.0031  0.1677
  171ccc    H13 4375   8.266   7.845   0.385 -0.1576 -0.0900 -3.3939
  171ccc    H14 4376   8.393   7.909   0.290  0.4160  1.1402  0.8576
  171ccc     C9 4377   8.432   7.921   0.506 -0.6386 -0.4341  0.4872
  171ccc    H15 4378   8.524   7.978   0.492 -0.0662 -1.3555  0.3963
  171ccc    H16 4379   8.469   7.840   0.571  0.3501 -0.4931 -0.1263
  171ccc    C10 4380   8.320   8.004   0.572 -0.7842 -0.4649  0.3984
  171ccc     O4 4381   8.330   8.126   0.577  0.6770  0.4717  0.3841
  171ccc     O5 4382   8.222   7.950   0.620  0.2346 -0.5115  0.7275
  172ccc     N1 4383   8.363   7.687  -0.580 -0.4506 -0.6534  1.1071
  172ccc     H4 4384   8.321   7.729  -0.662 -1.7191  0.3941  2.2363
  172ccc     C3 4385   8.482   7.605  -0.589 -0.2485 -0.3602  0.3029
  172ccc     H5 4386   8.562   7.665  -0.635  1.8341 -2.9101  0.4025
  172ccc     C4 4387   8.448   7.476  -0.674 -0.0612  0.3800  0.3714
  172ccc     H6 4388   8.505   7.575  -0.486 -0.7809 -2.0181 -0.0423
  172ccc     H7 4389   8.458   7.501  -0.780  0.8487  1.6867  0.7281
  172ccc     H8 4390   8.342   7.456  -0.658 -0.1162  1.2160  1.1632
  172ccc     N2 4391   8.538   7.362  -0.640  0.4392 -0.1152 -0.7957
  172ccc     C5 4392   8.511   7.292  -0.514 -0.7034  0.4409 -0.5263
  172ccc     C6 4393   8.685   7.377  -0.669  0.7397  0.3466  0.2978
  172ccc     H9 4394   8.746   7.436  -0.600  0.7094  2.1139 -1.1052
  172ccc     C7 4395   8.708   7.439  -0.811 -0.6655 -0.6879  0.7650
  172ccc    H10 4396   8.725   7.275  -0.669  1.8274  0.7201 -1.6410
  172ccc    H11 4397   8.665   7.540  -0.809 -2.0030 -1.2366  0.7391
  172ccc    H12 4398   8.650   7.387  -0.889 -2.1924  2.2546 -0.2040
  172ccc     C8 4399   8.858   7.452  -0.840 -0.1971 -1.0655  0.1328
  172ccc     O2 4400   8.929   7.507  -0.760  0.3069 -0.8659 -0.4233
  172ccc     O3 4401   8.907   7.392  -0.934  0.2614 -0.1069  0.3326
  172ccc    H13 4402   8.549   7.348  -0.427  1.1518 -1.3407 -0.1287
  172ccc    H14 4403   8.558   7.193  -0.515 -1.1591  0.0876  2.5908
  172ccc     C9 4404   8.363   7.256  -0.491  0.3537 -0.2650 -0.7559
  172ccc    H15 4405   8.320   7.196  -0.571 -0.6850 -1.4084  0.6020
  172ccc    H16 4406   8.300   7.346  -0.482  0.2874 -0.3813  0.1118
  172ccc    C10 4407   8.336   7.179  -0.359  0.3821 -0.1346  0.1673
  172ccc     O4 4408   8.371   7.235  -0.253  0.2128  0.2494 -0.0563
  172ccc     O5 4409   8.326   7.056  -0.355  0.2478 -0.4193  0.2639
  173ccc     N1 4410   7.701   8.105  -0.634 -0.2884 -0.0973  0.5953
  173ccc     H4 4411   7.657   8.064  -0.553  1.6574 -1.2354  1.1378
  173ccc     C3 4412   7.623   8.178  -0.741 -0.0077  0.2205  0.8699
  173ccc     H5 4413   7.682   8.218  -0.825  2.4521 -0.0915  2.3641
  173ccc     C4 4414   7.545   8.301  -0.684 -0.1620 -0.1656  0.2755
  173ccc     H6 4415   7.554   8.106  -0.786  0.6623 -1.0874  1.8786
  173ccc     H7 4416   7.617   8.375  -0.646 -0.3072  0.5200 -0.7568
  173ccc     H8 4417   7.481   8.268  -0.601  0.3495 -1.2586  0.2518
  173ccc     N2 4418   7.453   8.371  -0.773  0.6223  0.3547  0.1950
  173ccc     C5 4419   7.331   8.294  -0.819  0.2012 -0.3523 -0.8374
  173ccc     C6 4420   7.518   8.445  -0.883 -0.0148 -0.8987  0.0099
  173ccc     H9 4421   7.607   8.498  -0.847 -0.7983  1.7499 -1.6865
  173ccc     C7 4422   7.434   8.569  -0.937 -0.2916 -0.0212 -0.3356
  173ccc    H10 4423   7.543   8.381  -0.969  1.0634  0.1623 -0.4922
  173ccc    H11 4424   7.344   8.530  -0.987  0.9260 -1.6066 -1.4051
  173ccc    H12 4425   7.494   8.628  -1.007 -0.1012  1.6062  1.1328
  173ccc     C8 4426   7.390   8.666  -0.826 -0.0778 -0.4251  0.0270
  173ccc     O2 4427   7.435   8.775  -0.814 -0.7586 -0.3783  0.7339
  173ccc     O3 4428   7.306   8.641  -0.746  0.0233  0.1258 -0.3655
  173ccc    H13 4429   7.354   8.243  -0.913  1.8279 -1.3464  0.0343
  173ccc    H14 4430   7.257   8.371  -0.840 -0.3652 -0.3530  0.9903
  173ccc     C9 4431   7.275   8.183  -0.723 -0.7374 -0.0587  0.0235
  173ccc    H15 4432   7.357   8.110  -0.717  0.5616  1.3724  0.0302
  173ccc    H16 4433   7.189   8.135  -0.771 -2.8481  3.2500  0.1825
  173ccc    C10 4434   7.233   8.233  -0.583 -0.1430 -0.6555 -0.0300
  173ccc     O4 4435   7.171   8.338  -0.566  0.5617  0.3474  0.1853
  173ccc     O5 4436   7.283   8.190  -0.480 -0.4472  0.3825  0.5593
  174ccc     N1 4437   8.541  11.111   1.525  0.5606 -0.0785 -0.0641
  174ccc     H4 4438   8.458  11.136   1.577  0.0921  2.4827 -1.8556
  174ccc     C3 4439   8.612  11.211   1.448  0.1810  0.1357  0.4381
  174ccc     H5 4440   8.718  11.209   1.474 -0.0032 -0.3633  1.1881
  174ccc     C4 4441   8.561  11.353   1.491 -0.1480 -0.0323  0.0277
  174ccc     H6 4442   8.611  11.182   1.342  1.3130  1.5915 -0.0097
  174ccc     H7 4443   8.554  11.362   1.600 -0.6131  0.6077 -0.0459
  174ccc     H8 4444   8.460  11.373   1.454 -0.1471 -0.3053 -0.1249
  174ccc     N2 4445   8.644  11.467   1.435 -0.1217  0.0257  0.0007
  174ccc     C5 4446   8.627  11.478   1.289 -0.4385  0.5076  0.2429
  174ccc     C6 4447   8.784  11.476   1.470 -0.4792 -0.2617  0.2633
  174ccc     H9 4448   8.836  11.393   1.421  0.2021  0.6060 -0.5099
  174ccc     C7 4449   8.811  11.476   1.625  0.6013  0.6612 -0.8575
  174ccc    H10 4450   8.841  11.563   1.435  0.6155 -0.2212  2.0503
  174ccc    H11 4451   8.790  11.373   1.656  0.0407  0.3649 -2.1520
  174ccc    H12 4452   8.737  11.545   1.667 -1.6607 -1.6128 -0.8084
  174ccc     C8 4453   8.957  11.508   1.655 -0.3656  0.4678  0.1054
  174ccc     O2 4454   8.990  11.624   1.676  0.0928 -0.7323  1.1384
  174ccc     O3 4455   9.046  11.428   1.658 -0.1281  0.2356 -0.3013
  174ccc    H13 4456   8.526  11.451   1.255 -1.2231  1.2760  1.8704
  174ccc    H14 4457   8.694  11.411   1.233 -0.8082  0.3488 -0.0156
  174ccc     C9 4458   8.642  11.621   1.241  0.0266  0.2373 -0.2372
  174ccc    H15 4459   8.728  11.672   1.287 -1.5024  1.3536  1.5151
  174ccc    H16 4460   8.560  11.687   1.273 -0.1981  0.4822 -1.2804
  174ccc    C10 4461   8.639  11.618   1.087 -0.4291 -0.2165  0.4844
  174ccc     O4 4462   8.736  11.652   1.019  0.2002 -0.6267  0.7723
  174ccc     O5 4463   8.542  11.580   1.024 -0.4635  0.0954  0.3840
  175ccc     N1 4464   7.953  10.638   1.374  0.0052 -0.3347 -0.3978
  175ccc     H4 4465   7.993  10.546   1.389 -1.2316 -0.8803 -0.3549
  175ccc     C3 4466   7.811  10.655   1.349  0.4725  0.2634  0.2940
  175ccc     H5 4467   7.756  10.583   1.411  0.8189 -1.5756 -1.4488
  175ccc     C4 4468   7.786  10.624   1.198 -0.7208  0.8065 -0.3238
  175ccc     H6 4469   7.788  10.760   1.375  1.3155  0.9305 -1.5242
  175ccc     H7 4470   7.824  10.522   1.186 -2.0929  0.0308  1.5063
  175ccc     H8 4471   7.840  10.693   1.131  0.1839 -1.7028 -2.3459
  175ccc     N2 4472   7.652  10.614   1.154 -0.1126  0.5686 -0.1971
  175ccc     C5 4473   7.639  10.568   1.010  0.4392  0.4020 -0.7912
  175ccc     C6 4474   7.553  10.720   1.190 -0.3333  0.6428  0.4003
  175ccc     H9 4475   7.571  10.759   1.291 -3.0472  0.8362  0.8778
  175ccc     C7 4476   7.404  10.682   1.194  0.4955 -0.1047  0.2902
  175ccc    H10 4477   7.580  10.805   1.127 -1.3943 -0.3398 -1.4756
  175ccc    H11 4478   7.354  10.760   1.253  3.9759  2.7702 -0.2046
  175ccc    H12 4479   7.388  10.581   1.234 -2.0990  0.0020 -0.3304
  175ccc     C8 4480   7.327  10.687   1.061 -0.3310 -0.6009 -0.2041
  175ccc     O2 4481   7.280  10.588   1.012  0.1907 -0.3082 -0.2911
  175ccc     O3 4482   7.338  10.781   0.983 -0.1186  0.0900  0.1696
  175ccc    H13 4483   7.537  10.534   0.990 -0.3453  0.8174  2.0569
  175ccc    H14 4484   7.709  10.488   0.983 -1.6658 -1.2545 -1.5535
  175ccc     C9 4485   7.651  10.682   0.902 -0.3213  0.3058 -0.0478
  175ccc    H15 4486   7.756  10.715   0.906  0.2251 -1.4713  1.1651
  175ccc    H16 4487   7.589  10.770   0.923  1.2859  1.8273 -1.3326
  175ccc    C10 4488   7.617  10.632   0.762 -0.2041 -0.4386 -0.0158
  175ccc     O4 4489   7.697  10.578   0.692  0.6885  0.7769  0.0725
  175ccc     O5 4490   7.498  10.616   0.738  0.0975 -0.0618  0.0508
  176ccc     N1 4491   8.575   8.988   1.535  0.2028 -0.1860 -0.1778
  176ccc     H4 4492   8.604   9.085   1.530 -1.7184  0.4034 -1.2714
  176ccc     C3 4493   8.585   8.902   1.417 -0.7371  0.0764  0.7834
  176ccc     H5 4494   8.667   8.830   1.434  1.2484  2.0121 -0.0309
  176ccc     C4 4495   8.629   8.983   1.294 -0.8191 -0.1910  0.4431
  176ccc     H6 4496   8.485   8.859   1.409 -0.4643 -0.6008  0.9234
  176ccc     H7 4497   8.712   9.045   1.331  1.8543 -3.7200  0.9627
  176ccc     H8 4498   8.539   9.034   1.259 -1.4746 -0.3932  1.7824
  176ccc     N2 4499   8.674   8.890   1.189 -0.2295 -0.3881 -0.2235
  176ccc     C5 4500   8.567   8.794   1.136 -0.4069 -0.3731  0.4540
  176ccc     C6 4501   8.803   8.812   1.199 -0.1729 -0.2147  0.2153
  176ccc     H9 4502   8.812   8.757   1.293  2.6110 -1.0747 -0.4376
  176ccc     C7 4503   8.926   8.914   1.200 -0.0595  0.4449  0.1243
  176ccc    H10 4504   8.816   8.742   1.116 -0.3948 -1.9984  1.6349
  176ccc    H11 4505   8.910   9.011   1.250 -1.3035 -1.6925  4.2660
  176ccc    H12 4506   8.946   8.931   1.093  1.7003 -0.2270  0.3197
  176ccc     C8 4507   9.048   8.850   1.260 -0.5167  0.2732 -0.5995
  176ccc     O2 4508   9.144   8.833   1.186  0.2793 -0.0735 -0.4886
  176ccc     O3 4509   9.052   8.806   1.373  0.1053  0.1552  0.4727
  176ccc    H13 4510   8.585   8.782   1.029  0.5620 -2.6289  0.8156
  176ccc    H14 4511   8.469   8.843   1.144 -1.7326 -2.8290  0.2912
  176ccc     C9 4512   8.561   8.654   1.190 -0.0139 -0.2265 -0.7191
  176ccc    H15 4513   8.456   8.623   1.184 -0.1695 -0.0121  0.5545
  176ccc    H16 4514   8.599   8.650   1.293  1.7869  0.2453 -1.3206
  176ccc    C10 4515   8.648   8.547   1.125  0.0401 -0.8078 -0.5817
  176ccc     O4 4516   8.685   8.545   1.007  0.2079  0.4594  0.2177
  176ccc     O5 4517   8.696   8.463   1.196 -0.1522  0.1514 -0.2324
  177ccc     N1 4518   8.278   9.180   2.313  0.2545  0.4097 -0.6013
  177ccc     H4 4519   8.225   9.247   2.259  0.0033  1.1630  0.5470
  177ccc     C3 4520   8.239   9.143   2.448  0.4552 -0.5931 -0.4230
  177ccc     H5 4521   8.286   9.052   2.488 -2.6863 -1.9465  0.5031
  177ccc     C4 4522   8.091   9.111   2.475  0.3257  1.0387 -0.2390
  177ccc     H6 4523   8.276   9.223   2.514 -0.3847  0.3512 -1.0631
  177ccc     H7 4524   8.063   9.036   2.400 -1.2258  0.9146  0.4303
  177ccc     H8 4525   8.028   9.199   2.457 -2.0317 -0.1695  1.6239
  177ccc     N2 4526   8.079   9.054   2.607 -0.0602 -0.1833 -0.1990
  177ccc     C5 4527   7.956   8.974   2.616  0.4431 -0.3112 -0.5540
  177ccc     C6 4528   8.102   9.152   2.718  0.7690  0.2161  0.6988
  177ccc     H9 4529   8.101   9.097   2.813  0.0839  0.6481  0.9436
  177ccc     C7 4530   7.992   9.263   2.731 -0.5720  0.3312  0.1062
  177ccc    H10 4531   8.200   9.200   2.714  1.2984 -0.8186  0.8496
  177ccc    H11 4532   7.889   9.225   2.735 -1.0193  1.0587 -2.3225
  177ccc    H12 4533   7.991   9.337   2.650  1.9476  1.7028  1.2216
  177ccc     C8 4534   8.017   9.345   2.859  0.0582  0.3190 -0.0752
  177ccc     O2 4535   8.035   9.467   2.851 -0.2836  0.2907  0.2468
  177ccc     O3 4536   8.032   9.295   2.969  0.2514  1.0343 -0.2027
  177ccc    H13 4537   7.937   8.902   2.535 -0.0684 -2.1038  1.0994
  177ccc    H14 4538   7.869   9.041   2.606 -0.7843 -1.6474  0.6592
  177ccc     C9 4539   7.952   8.888   2.748 -0.3587  0.6140 -0.4707
  177ccc    H15 4540   8.049   8.854   2.788 -1.1981 -1.4341 -0.0455
  177ccc    H16 4541   7.902   8.791   2.734 -1.0149  0.6687  1.3308
  177ccc    C10 4542   7.872   8.943   2.860 -0.2087  0.1273  0.0892
  177ccc     O4 4543   7.923   8.953   2.970  0.5188  0.0339 -0.3244
  177ccc     O5 4544   7.758   8.991   2.846 -0.2359 -0.2876  0.3473
  178ccc     N1 4545  10.227   8.781   1.841  0.1206 -0.0661 -0.4194
  178ccc     H4 4546  10.143   8.810   1.890  0.3846 -0.0888  0.0538
  178ccc     C3 4547  10.233   8.648   1.775 -0.0059  0.1219  0.1089
  178ccc     H5 4548  10.333   8.629   1.735  0.1853  0.4998  0.4071
  178ccc     C4 4549  10.127   8.656   1.656  0.2809 -0.3078 -0.3724
  178ccc     H6 4550  10.219   8.561   1.840 -0.7169 -0.5509 -0.9072
  178ccc     H7 4551  10.141   8.754   1.611  1.2156  0.6093  1.7738
  178ccc     H8 4552  10.032   8.652   1.712  0.9871 -0.3360  0.8659
  178ccc     N2 4553  10.141   8.552   1.554  0.2289  0.0679 -0.2139
  178ccc     C5 4554  10.258   8.555   1.466 -0.1799 -0.2671  0.5086
  178ccc     C6 4555  10.119   8.415   1.616  0.3971 -0.1187  0.7938
  178ccc     H9 4556  10.144   8.347   1.534 -1.0721  1.3759 -0.9747
  178ccc     C7 4557   9.983   8.373   1.671  0.2446  0.1728  0.5604
  178ccc    H10 4558  10.187   8.386   1.697  0.0791 -0.8739  0.7955
  178ccc    H11 4559   9.911   8.417   1.601 -0.8021  0.9064  2.0397
  178ccc    H12 4560   9.967   8.412   1.772  1.0038 -1.3779  1.3244
  178ccc     C8 4561   9.976   8.219   1.664 -0.6575  0.0334  0.0453
  178ccc     O2 4562   9.946   8.162   1.560 -0.2183  0.0830  0.2662
  178ccc     O3 4563   9.998   8.162   1.770  0.0701 -0.8340  0.2520
  178ccc    H13 4564  10.256   8.471   1.397  0.7263 -0.7047  0.9866
  178ccc    H14 4565  10.352   8.545   1.523  0.4946  1.1252 -0.3032
  178ccc     C9 4566  10.286   8.682   1.385  0.0075 -0.0432 -0.5642
  178ccc    H15 4567  10.293   8.772   1.448 -0.8694 -0.6386  0.4228
  178ccc    H16 4568  10.206   8.712   1.317  0.5152  1.7461 -0.4186
  178ccc    C10 4569  10.419   8.670   1.311  0.9531 -0.4278  0.2138
  178ccc     O4 4570  10.405   8.677   1.189  0.0620 -0.1115  0.3435
  178ccc     O5 4571  10.523   8.630   1.368  0.3409 -0.4246  0.5088
  179ccc     N1 4572  10.454   9.576   1.851 -0.8014  0.4802  0.2142
  179ccc     H4 4573  10.354   9.584   1.842 -0.9719 -0.8466  0.7433
  179ccc     C3 4574  10.539   9.677   1.784  0.3085  0.3021  0.6052
  179ccc     H5 4575  10.544   9.763   1.853  2.3990 -0.1736  1.1142
  179ccc     C4 4576  10.492   9.726   1.647  0.6848  0.1258  0.6713
  179ccc     H6 4577  10.642   9.641   1.774  0.2497  0.0255  1.0118
  179ccc     H7 4578  10.383   9.741   1.649  0.8837  1.7662  1.6034
  179ccc     H8 4579  10.507   9.645   1.575  0.6451 -1.1095  2.0079
  179ccc     N2 4580  10.564   9.843   1.589 -0.3548 -0.3843 -0.0394
  179ccc     C5 4581  10.489   9.911   1.486  0.2452  0.0491 -0.1892
  179ccc     C6 4582  10.709   9.835   1.577 -0.1460  0.6352  0.4899
  179ccc     H9 4583  10.756   9.931   1.555  0.2350  0.1122 -1.1481
  179ccc     C7 4584  10.754   9.723   1.482  0.1339  0.5037  0.7233
  179ccc    H10 4585  10.750   9.808   1.675  0.8029 -0.3917 -0.1615
  179ccc    H11 4586  10.716   9.747   1.382  0.1932 -1.4715  0.1837
  179ccc    H12 4587  10.714   9.630   1.525 -2.1191  0.9160 -0.3704
  179ccc     C8 4588  10.897   9.699   1.466 -0.3500 -0.3391  0.4837
  179ccc     O2 4589  10.968   9.640   1.545  0.3473  0.3429  0.2001
  179ccc     O3 4590  10.964   9.754   1.378  0.0940 -0.4186 -0.1751
  179ccc    H13 4591  10.398   9.947   1.535  0.2875 -1.6397  1.2161
  179ccc    H14 4592  10.460   9.833   1.415  1.2273 -0.6674  0.1684
  179ccc     C9 4593  10.570  10.031   1.408 -0.6719  0.2029  0.6694
  179ccc    H15 4594  10.654   9.988   1.353 -0.7304  0.8031  0.1085
  179ccc    H16 4595  10.600  10.105   1.483  1.5583  0.3066 -0.2751
  179ccc    C10 4596  10.478  10.105   1.311  0.2210 -0.0507  0.1379
  179ccc     O4 4597  10.402  10.197   1.348  0.5773  0.2724 -0.0429
  179ccc     O5 4598  10.491  10.104   1.186  0.0504  0.5535  0.0080
  180ccc     N1 4599   9.585   9.195   3.112  0.0025 -0.2299  0.0521
  180ccc     H4 4600   9.497   9.155   3.081  0.6964 -2.9455  1.2304
  180ccc     C3 4601   9.637   9.146   3.240 -0.1053 -0.0319 -0.5351
  180ccc     H5 4602   9.741   9.113   3.240 -0.5613 -1.9969  2.6464
  180ccc     C4 4603   9.550   9.023   3.284 -0.6904 -0.6605  0.1347
  180ccc     H6 4604   9.622   9.228   3.312 -0.5332 -0.3053 -0.3047
  180ccc     H7 4605   9.592   8.984   3.378 -1.2774  2.8073  1.9895
  180ccc     H8 4606   9.560   8.942   3.211 -3.1471 -2.0655  1.2294
  180ccc     N2 4607   9.404   9.047   3.306  0.6536 -0.4537  0.1082
  180ccc     C5 4608   9.373   9.167   3.398 -0.0237  0.4478 -0.3125
  180ccc     C6 4609   9.332   8.924   3.342  0.6530  0.2185  0.6928
  180ccc     H9 4610   9.400   8.837   3.339 -0.3215 -0.6281 -3.2197
  180ccc     C7 4611   9.217   8.896   3.240 -0.3222  0.2390 -0.0275
  180ccc    H10 4612   9.280   8.924   3.438 -0.6296 -1.7048  0.0542
  180ccc    H11 4613   9.237   8.925   3.136 -1.3761 -0.6492 -0.4992
  180ccc    H12 4614   9.120   8.937   3.268  0.3242  0.8708  1.3299
  180ccc     C8 4615   9.182   8.746   3.224 -0.6913 -0.7005 -0.1290
  180ccc     O2 4616   9.082   8.718   3.159 -0.0379  0.0391 -0.2810
  180ccc     O3 4617   9.254   8.653   3.250  0.3277 -0.0092 -0.3446
  180ccc    H13 4618   9.427   9.258   3.368  1.1068  1.1894  3.4490
  180ccc    H14 4619   9.411   9.146   3.499  2.2572  0.3344 -1.1256
  180ccc     C9 4620   9.228   9.193   3.399  0.1926 -0.0180 -0.6747
  180ccc    H15 4621   9.169   9.111   3.444  2.2604 -0.1034  2.1488
  180ccc    H16 4622   9.184   9.202   3.299 -2.1199 -1.6043  0.0943
  180ccc    C10 4623   9.200   9.328   3.474 -0.0232  0.0194  0.6164
  180ccc     O4 4624   9.155   9.337   3.587 -0.3245  0.0143 -0.1310
  180ccc     O5 4625   9.219   9.434   3.419  0.5770  0.8032  0.1003
  181ccc     N1 4626   9.818   8.946   2.402  0.1923  0.1069 -0.1034
  181ccc     H4 4627   9.859   9.001   2.476  0.3551  0.1910 -0.2557
  181ccc     C3 4628   9.905   8.880   2.305 -0.4253  0.5334 -0.5538
  181ccc     H5 4629   9.853   8.870   2.209 -1.8470 -0.7526  0.2955
  181ccc     C4 4630   9.953   8.737   2.336  0.0435 -0.0605 -0.3845
  181ccc     H6 4631  10.000   8.933   2.290 -1.3688  3.0562  1.7239
  181ccc     H7 4632   9.861   8.679   2.342  0.1669 -0.4335 -1.8213
  181ccc     H8 4633   9.994   8.739   2.438 -1.6725  0.2240  0.3351
  181ccc     N2 4634  10.036   8.681   2.234  0.1110 -0.0966 -0.0195
  181ccc     C5 4635  10.165   8.749   2.205  0.0341  0.0076 -0.0116
  181ccc     C6 4636  10.040   8.535   2.247  0.0248 -0.0267 -0.5051
  181ccc     H9 4637  10.086   8.494   2.339 -0.3292 -1.2416 -0.8441
  181ccc     C7 4638  10.090   8.461   2.128 -0.0722 -0.0687  0.5130
  181ccc    H10 4639   9.937   8.497   2.248  0.9119 -2.7177 -0.8128
  181ccc    H11 4640  10.193   8.491   2.104  0.9724 -2.6189  1.3884
  181ccc    H12 4641  10.031   8.492   2.041  2.1094  1.7254 -0.4538
  181ccc     C8 4642  10.070   8.306   2.134 -0.0274 -0.6806  0.2815
  181ccc     O2 4643   9.957   8.250   2.143 -0.0645 -0.8739  0.0770
  181ccc     O3 4644  10.155   8.237   2.187  0.0457 -0.3976  0.2039
  181ccc    H13 4645  10.143   8.855   2.187 -1.2632  0.0089  1.4160
  181ccc    H14 4646  10.214   8.713   2.114  2.4431  3.6496 -0.3564
  181ccc     C9 4647  10.271   8.738   2.314  0.6797  0.1879 -0.4186
  181ccc    H15 4648  10.306   8.635   2.324  1.6869  0.5298 -0.3431
  181ccc    H16 4649  10.234   8.775   2.411  0.4413 -2.2063  0.4663
  181ccc    C10 4650  10.384   8.838   2.279 -0.6065  0.6453 -0.4352
  181ccc     O4 4651  10.489   8.791   2.228 -0.9851  0.2307 -0.1328
  181ccc     O5 4652  10.367   8.959   2.286  0.4800 -0.1334  0.4497
  182ccc     N1 4653   9.383   8.825  -0.235  0.3651  0.2023  0.4257
  182ccc     H4 4654   9.409   8.738  -0.189 -1.5661 -0.0199  1.1569
  182ccc     C3 4655   9.236   8.844  -0.234 -0.3816 -0.9046 -0.0374
  182ccc     H5 4656   9.207   8.827  -0.129  1.6013  0.8165  0.8746
  182ccc     C4 4657   9.151   8.753  -0.328  0.2667  0.0628 -0.1335
  182ccc     H6 4658   9.209   8.949  -0.250 -0.0214 -0.7155  0.5275
  182ccc     H7 4659   9.044   8.763  -0.305  0.2120  0.2800 -0.4721
  182ccc     H8 4660   9.185   8.653  -0.297  0.9385  0.1693 -0.5058
  182ccc     N2 4661   9.182   8.766  -0.476  0.5118  0.4090 -0.6547
  182ccc     C5 4662   9.149   8.904  -0.520  0.4261  0.5991 -0.4266
  182ccc     C6 4663   9.127   8.651  -0.542  0.0433  0.3459 -0.3759
  182ccc     H9 4664   9.167   8.642  -0.643  1.3928 -1.0801  0.2474
  182ccc     C7 4665   8.967   8.646  -0.547 -0.0696 -0.1120 -0.4377
  182ccc    H10 4666   9.167   8.557  -0.502 -0.6251  1.2727  2.7124
  182ccc    H11 4667   8.930   8.735  -0.598  1.5858  0.9711  0.1521
  182ccc    H12 4668   8.924   8.627  -0.448  0.8652 -0.3731 -0.0675
  182ccc     C8 4669   8.934   8.524  -0.636  0.0960  0.0121  0.6996
  182ccc     O2 4670   8.886   8.544  -0.748 -0.4140 -0.6504 -0.7252
  182ccc     O3 4671   8.941   8.415  -0.588  0.1632  0.8094 -0.1205
  182ccc    H13 4672   9.196   8.975  -0.450 -0.6568 -1.0657  2.1570
  182ccc    H14 4673   9.041   8.924  -0.524  0.3716  1.5355  2.8323
  182ccc     C9 4674   9.204   8.940  -0.663 -0.0315  0.3622 -0.1814
  182ccc    H15 4675   9.162   8.877  -0.743  0.4713  0.5053 -0.5633
  182ccc    H16 4676   9.313   8.929  -0.668 -0.3005 -3.7037 -1.4078
  182ccc    C10 4677   9.181   9.090  -0.695 -0.1278 -0.3285 -0.6657
  182ccc     O4 4678   9.114   9.118  -0.791  0.4058 -0.4919  0.2841
  182ccc     O5 4679   9.225   9.182  -0.623  0.1257  0.1000 -0.3621
  183ccc     N1 4680   9.920   8.519   0.125  0.2697  0.7462  0.0252
  183ccc     H4 4681   9.928   8.476   0.034 -0.7981  2.8237 -1.1186
  183ccc     C3 4682   9.913   8.443   0.254  0.0204 -0.0072  0.3976
  183ccc     H5 4683   9.986   8.482   0.326  2.4017  0.0362 -1.9030
  183ccc     C4 4684   9.935   8.289   0.249  0.3728  0.0269  0.2468
  183ccc     H6 4685   9.815   8.464   0.299  0.2593  1.8146  0.1435
  183ccc     H7 4686   9.919   8.258   0.353  2.0241  1.8665  1.1143
  183ccc     H8 4687  10.041   8.269   0.234  0.5883 -1.1422  2.8418
  183ccc     N2 4688   9.850   8.214   0.156 -0.3965  0.7971 -0.4761
  183ccc     C5 4689   9.898   8.077   0.173 -0.1178  0.9275 -0.0895
  183ccc     C6 4690   9.703   8.231   0.155  0.2781  0.1316 -0.2719
  183ccc     H9 4691   9.681   8.338   0.158  0.5488  0.1848  1.8068
  183ccc     C7 4692   9.616   8.161   0.269 -0.6146 -0.0647 -0.7412
  183ccc    H10 4693   9.664   8.182   0.065  1.1280 -3.3416  1.0776
  183ccc    H11 4694   9.628   8.052   0.269  0.6422  0.0582 -0.1578
  183ccc    H12 4695   9.510   8.180   0.249 -0.9442 -1.8958 -0.8504
  183ccc     C8 4696   9.652   8.207   0.415 -0.4162 -0.0484 -0.1057
  183ccc     O2 4697   9.727   8.142   0.483  0.0216 -0.0968 -0.0989
  183ccc     O3 4698   9.605   8.313   0.457 -0.1301 -0.4217 -0.1893
  183ccc    H13 4699   9.880   8.034   0.272  0.8055 -0.3128 -0.4386
  183ccc    H14 4700  10.007   8.079   0.160 -0.0907 -0.5256 -0.1543
  183ccc     C9 4701   9.837   7.986   0.059 -0.0803  0.1672 -0.4443
  183ccc    H15 4702   9.855   8.034  -0.038  0.2499  2.7995  0.8349
  183ccc    H16 4703   9.729   7.976   0.076 -0.0453  0.3652 -0.0888
  183ccc    C10 4704   9.893   7.847   0.054 -0.1913 -0.3672 -0.5138
  183ccc     O4 4705   9.983   7.819  -0.020 -0.3433  0.1383  0.1223
  183ccc     O5 4706   9.868   7.767   0.141 -0.1096 -0.0357  0.5212
  184ccc     N1 4707   8.990   8.892  -0.015  0.3010 -0.7146 -1.5876
  184ccc     H4 4708   8.972   8.973  -0.073  3.2809 -0.5367 -2.4418
  184ccc     C3 4709   8.886   8.794   0.019 -0.1582  0.2714  0.2526
  184ccc     H5 4710   8.925   8.692   0.024 -1.2972 -0.4007 -2.6093
  184ccc     C4 4711   8.786   8.792  -0.093  0.2266 -0.1677 -0.0128
  184ccc     H6 4712   8.835   8.827   0.110  1.0752  0.5692  0.8549
  184ccc     H7 4713   8.712   8.712  -0.079 -2.0453  1.6383 -0.8786
  184ccc     H8 4714   8.840   8.761  -0.184 -1.3324 -1.1033 -0.6630
  184ccc     N2 4715   8.729   8.928  -0.107 -0.0359  0.6039 -0.3340
  184ccc     C5 4716   8.693   8.956  -0.248  0.0268  0.1091  0.1357
  184ccc     C6 4717   8.612   8.954  -0.013 -0.0935  0.1575 -0.7352
  184ccc     H9 4718   8.521   8.907  -0.053 -0.9879  1.3692 -0.1637
  184ccc     C7 4719   8.585   9.105   0.002 -0.2649 -0.0490 -0.2477
  184ccc    H10 4720   8.644   8.912   0.083 -1.1585  1.5821  0.2848
  184ccc    H11 4721   8.543   9.134  -0.095  0.5622 -0.2437 -0.6691
  184ccc    H12 4722   8.675   9.164   0.025 -1.7280  2.5086 -0.7588
  184ccc     C8 4723   8.473   9.124   0.108 -0.6582 -0.0252  0.4669
  184ccc     O2 4724   8.471   9.060   0.210 -0.2094 -0.0974  0.1463
  184ccc     O3 4725   8.397   9.216   0.087 -0.3572 -0.2093  0.4829
  184ccc    H13 4726   8.640   9.052  -0.253  0.1709  0.1641 -0.5811
  184ccc    H14 4727   8.633   8.873  -0.289 -0.6992  0.5742  0.2310
  184ccc     C9 4728   8.815   8.974  -0.341 -0.4541 -0.3700 -0.5369
  184ccc    H15 4729   8.872   8.880  -0.346  1.4536  0.7163 -0.1531
  184ccc    H16 4730   8.893   9.044  -0.309  0.6480 -1.2031 -1.2892
  184ccc    C10 4731   8.771   8.996  -0.488  1.0387  0.5167  0.1198
  184ccc     O4 4732   8.690   8.916  -0.538 -0.0374  0.2143 -0.0638
  184ccc     O5 4733   8.807   9.086  -0.559  0.2129 -0.4858 -0.3853
  185ccc     N1 4734   9.031   9.560   0.262 -0.5266 -0.0126 -0.1229
  185ccc     H4 4735   8.985   9.503   0.192 -0.2852  1.0169 -1.1527
  185ccc     C3 4736   8.931   9.625   0.353  0.2066  0.5265  0.7403
  185ccc     H5 4737   8.934   9.573   0.449  0.5092 -0.9115 -0.0192
  185ccc     C4 4738   8.791   9.598   0.294 -0.2292  0.0504  0.2293
  185ccc     H6 4739   8.954   9.730   0.374 -2.4420  1.1049  1.1114
  185ccc     H7 4740   8.784   9.492   0.268 -0.1645  0.8192 -3.3223
  185ccc     H8 4741   8.798   9.647   0.197 -1.1854 -0.4821 -0.1224
  185ccc     N2 4742   8.681   9.651   0.374  0.1771 -0.0283 -0.0993
  185ccc     C5 4743   8.655   9.570   0.499 -0.4242 -0.2641  0.2373
  185ccc     C6 4744   8.555   9.664   0.283  0.6095 -0.1498 -0.5176
  185ccc     H9 4745   8.582   9.737   0.205  0.8767 -0.6746 -0.9236
  185ccc     C7 4746   8.434   9.740   0.346 -0.5831 -0.5839 -0.2368
  185ccc    H10 4747   8.535   9.569   0.233 -0.3501 -1.2606  1.8376
  185ccc    H11 4748   8.434   9.846   0.321  1.2468  0.0884  2.2595
  185ccc    H12 4749   8.435   9.732   0.455 -1.8359  1.2770 -0.0572
  185ccc     C8 4750   8.295   9.683   0.315  0.6164  0.6856  0.5318
  185ccc     O2 4751   8.271   9.589   0.238 -0.3800  0.6297 -0.0939
  185ccc     O3 4752   8.198   9.714   0.383 -0.3999 -0.0791  0.4766
  185ccc    H13 4753   8.591   9.637   0.558 -0.0083  0.1453  0.2259
  185ccc    H14 4754   8.750   9.558   0.553 -0.4314  1.8047  0.7597
  185ccc     C9 4755   8.592   9.433   0.482  0.0664  0.5834  0.2019
  185ccc    H15 4756   8.612   9.368   0.568  0.4168 -2.5442 -2.0452
  185ccc    H16 4757   8.648   9.376   0.406  0.0117  1.5468 -0.5751
  185ccc    C10 4758   8.442   9.420   0.456  0.0611  0.6158 -0.1622
  185ccc     O4 4759   8.360   9.468   0.530 -0.6046 -0.5530  0.2218
  185ccc     O5 4760   8.402   9.354   0.360 -0.3694  0.4312 -0.2215
  186ccc     N1 4761  11.665  10.058   1.267 -0.5331  0.6152  0.3580
  186ccc     H4 4762  11.646  10.148   1.309 -0.2784  0.2111  1.3874
  186ccc     C3 4763  11.637   9.936   1.349  0.0070 -1.1037  1.6057
  186ccc     H5 4764  11.535   9.913   1.315 -1.0469  0.4003  3.5646
  186ccc     C4 4765  11.620   9.971   1.497  0.3024  0.3362 -0.1554
  186ccc     H6 4766  11.702   9.849   1.329 -0.2570 -0.7663 -1.0868
  186ccc     H7 4767  11.537  10.042   1.503 -0.9587 -1.2446  2.6671
  186ccc     H8 4768  11.712  10.021   1.530 -0.4342  0.3201  2.0458
  186ccc     N2 4769  11.600   9.857   1.589  0.2961  0.2172  0.3326
  186ccc     C5 4770  11.486   9.770   1.543  0.7947 -0.5517  0.1661
  186ccc     C6 4771  11.592   9.894   1.730 -0.1077  0.4454  0.5651
  186ccc     H9 4772  11.498   9.949   1.743  1.0603  3.0405 -1.1535
  186ccc     C7 4773  11.711   9.978   1.782 -0.1425  0.5786  0.9591
  186ccc    H10 4774  11.583   9.809   1.799 -2.1652  2.1595  2.6035
  186ccc    H11 4775  11.703  10.082   1.748 -0.5074  1.0009  2.2732
  186ccc    H12 4776  11.803   9.927   1.751 -0.0245  0.3047  1.7382
  186ccc     C8 4777  11.702   9.991   1.934  0.2687 -0.7007  0.0701
  186ccc     O2 4778  11.739  10.098   1.979 -0.3879  0.2970  0.0322
  186ccc     O3 4779  11.642   9.915   2.005  0.1145  0.1034 -0.2243
  186ccc    H13 4780  11.470   9.770   1.434 -1.6988  0.7544  0.4844
  186ccc    H14 4781  11.392   9.812   1.578  1.4927  1.3917 -0.1426
  186ccc     C9 4782  11.508   9.622   1.591  0.2395 -0.0006 -0.0285
  186ccc    H15 4783  11.525   9.619   1.699  0.0549  1.4949  0.0538
  186ccc    H16 4784  11.602   9.578   1.556  1.5906  1.1929  1.9629
  186ccc    C10 4785  11.389   9.538   1.548 -0.1122 -0.1320 -1.4354
  186ccc     O4 4786  11.279   9.590   1.542 -0.1592 -0.0268  0.0634
  186ccc     O5 4787  11.405   9.421   1.523 -0.0247  0.0166  0.1363
  187ccc     N1 4788  11.104  10.250   1.207 -0.1442  0.1291 -0.0582
  187ccc     H4 4789  11.065  10.196   1.130  0.3855 -1.7337  0.9309
  187ccc     C3 4790  11.018  10.323   1.301  0.1587  0.2087 -0.7812
  187ccc     H5 4791  10.927  10.267   1.326  2.8417 -3.4026  2.0266
  187ccc     C4 4792  10.982  10.465   1.244 -0.1139 -0.0875  0.5290
  187ccc     H6 4793  11.064  10.341   1.399 -0.5518  1.6263 -0.6894
  187ccc     H7 4794  10.952  10.442   1.141 -0.4374 -0.5836  0.7323
  187ccc     H8 4795  11.078  10.518   1.244 -0.9141  1.4245 -0.3377
  187ccc     N2 4796  10.870  10.523   1.310  0.1275 -0.2065 -0.3073
  187ccc     C5 4797  10.898  10.538   1.457  0.3007  0.4568 -0.7378
  187ccc     C6 4798  10.742  10.456   1.270  0.1963  0.1138  0.1516
  187ccc     H9 4799  10.748  10.388   1.183 -0.5013 -0.6711  0.6981
  187ccc     C7 4800  10.633  10.556   1.240 -0.5890  0.0358  0.3181
  187ccc    H10 4801  10.710  10.388   1.350 -0.8897 -1.8955 -1.8658
  187ccc    H11 4802  10.673  10.626   1.166  2.8817  0.0830  2.0148
  187ccc    H12 4803  10.602  10.623   1.322 -2.2020 -0.2372 -0.0390
  187ccc     C8 4804  10.508  10.489   1.192 -0.6552  0.0107 -0.6830
  187ccc     O2 4805  10.404  10.486   1.261 -0.0036 -0.6248  0.8439
  187ccc     O3 4806  10.514  10.428   1.089 -0.1203  0.4127  0.1533
  187ccc    H13 4807  11.004  10.561   1.471  0.3835 -0.2603 -0.0744
  187ccc    H14 4808  10.882  10.438   1.500 -0.8863  1.0200  0.1744
  187ccc     C9 4809  10.799  10.636   1.534  0.0843 -0.9851 -0.1287
  187ccc    H15 4810  10.697  10.595   1.532  0.4631 -1.9962 -2.8288
  187ccc    H16 4811  10.796  10.732   1.480 -0.7719 -0.2438  1.1820
  187ccc    C10 4812  10.844  10.663   1.678 -0.2531  0.3017  0.0959
  187ccc     O4 4813  10.914  10.581   1.738  0.3871 -0.6099 -0.3407
  187ccc     O5 4814  10.807  10.759   1.744 -0.3404 -0.2343 -0.0999
  188ccc     N1 4815  10.885  10.070   0.254  0.3798  0.3522  0.8937
  188ccc     H4 4816  10.804  10.132   0.252  0.7053  0.8052  1.5741
  188ccc     C3 4817  10.962  10.040   0.376 -0.5205  0.6510  0.0861
  188ccc     H5 4818  10.986   9.933   0.382 -1.0812  0.4576 -0.9279
  188ccc     C4 4819  10.875  10.086   0.498 -0.1174 -1.0707 -0.9990
  188ccc     H6 4820  11.061  10.086   0.368  1.2914 -2.9758 -0.4101
  188ccc     H7 4821  10.789  10.019   0.511  0.0751 -0.8956  1.9724
  188ccc     H8 4822  10.832  10.186   0.483  0.7518 -0.9374 -2.8100
  188ccc     N2 4823  10.949  10.085   0.629 -0.2547  0.6284  0.2668
  188ccc     C5 4824  11.073  10.170   0.629 -0.6097 -0.1685 -0.1466
  188ccc     C6 4825  10.849  10.110   0.734  0.1720  0.3885 -0.2895
  188ccc     H9 4826  10.800  10.207   0.728  0.8439  1.2129  4.1088
  188ccc     C7 4827  10.919  10.103   0.876  0.1358 -0.5319  0.1113
  188ccc    H10 4828  10.769  10.035   0.732 -0.3077  0.6225  3.4050
  188ccc    H11 4829  10.970  10.199   0.891 -1.1239  0.3123 -0.7624
  188ccc    H12 4830  11.001  10.030   0.878  0.7193  0.0964 -0.4672
  188ccc     C8 4831  10.811  10.091   0.985 -0.3711 -0.3296  0.2229
  188ccc     O2 4832  10.812   9.981   1.040  0.3055  0.3400  0.4138
  188ccc     O3 4833  10.709  10.158   0.997  0.1596  0.3677 -0.5814
  188ccc    H13 4834  11.146  10.121   0.564 -0.9662  0.1714 -0.8210
  188ccc    H14 4835  11.114  10.186   0.730  1.9054 -0.5229 -1.0426
  188ccc     C9 4836  11.053  10.316   0.575 -0.0357  0.4026 -0.2455
  188ccc    H15 4837  10.999  10.371   0.653  2.1394  2.1868  0.1121
  188ccc    H16 4838  11.006  10.310   0.476  0.0012  2.5098 -0.4342
  188ccc    C10 4839  11.186  10.387   0.560 -0.0738  0.7810 -0.0725
  188ccc     O4 4840  11.221  10.453   0.649 -0.4395 -0.5506 -0.6478
  188ccc     O5 4841  11.268  10.352   0.474  0.1347  0.2049  0.2873
  189ccc     N1 4842  10.324   9.957   0.397  0.0615 -0.0052 -0.0641
  189ccc     H4 4843  10.378   9.895   0.456 -1.2604 -1.2633 -0.1088
  189ccc     C3 4844  10.192  10.001   0.446 -0.3067 -0.6791  0.7576
  189ccc     H5 4845  10.143  10.075   0.381  0.6517 -1.6460 -1.1416
  189ccc     C4 4846  10.214  10.062   0.587 -0.4508 -0.5931 -0.1420
  189ccc     H6 4847  10.111   9.927   0.451 -2.5220  1.4936 -0.4652
  189ccc     H7 4848  10.267  10.156   0.570 -1.5030 -0.3663 -2.5444
  189ccc     H8 4849  10.267   9.986   0.645 -0.8328 -0.5171  0.3175
  189ccc     N2 4850  10.084  10.098   0.655 -0.3358  0.1768  0.0941
  189ccc     C5 4851  10.110  10.118   0.801 -0.3076 -0.2510 -0.7789
  189ccc     C6 4852   9.996  10.193   0.583  0.5200 -0.0571 -0.1510
  189ccc     H9 4853  10.038  10.293   0.596  1.8239 -0.4310 -1.2858
  189ccc     C7 4854   9.846  10.195   0.634  0.1473  0.3644 -0.4572
  189ccc    H10 4855   9.996  10.173   0.476 -0.1173  0.0207 -0.1677
  189ccc    H11 4856   9.834  10.235   0.735  3.6470 -0.9980  0.6550
  189ccc    H12 4857   9.804  10.093   0.631 -2.2769  1.2995 -0.8465
  189ccc     C8 4858   9.760  10.285   0.542 -0.3019 -0.3037 -1.0283
  189ccc     O2 4859   9.721  10.392   0.581  0.4583  0.1391 -0.1049
  189ccc     O3 4860   9.710  10.232   0.442 -0.2088 -0.8346 -0.8398
  189ccc    H13 4861  10.182  10.042   0.834 -0.5905  0.6037  2.0374
  189ccc    H14 4862  10.018  10.090   0.852  0.5418 -1.5556  0.1166
  189ccc     C9 4863  10.157  10.267   0.830 -0.2973 -0.4651 -0.1032
  189ccc    H15 4864  10.077  10.340   0.815  0.7748  0.7529 -0.0039
  189ccc    H16 4865  10.237  10.296   0.761  0.4128  1.9130  1.6010
  189ccc    C10 4866  10.217  10.273   0.969 -0.2001 -0.1034 -0.2006
  189ccc     O4 4867  10.180  10.354   1.055 -0.5843  0.1854  0.3410
  189ccc     O5 4868  10.318  10.207   0.997  0.3021 -0.0111 -0.2520
  190ccc     N1 4869   9.967  11.617   2.941 -0.0694 -0.1044 -0.8198
  190ccc     H4 4870   9.961  11.520   2.910 -2.2716 -0.7496  1.3022
  190ccc     C3 4871  10.058  11.708   2.868  0.2580 -0.2346 -0.4911
  190ccc     H5 4872  10.055  11.696   2.759  0.4839  2.4845 -0.8728
  190ccc     C4 4873  10.204  11.692   2.920  0.5292  0.0846  0.8618
  190ccc     H6 4874  10.025  11.809   2.896  1.0899 -0.4434  1.4187
  190ccc     H7 4875  10.235  11.594   2.882  0.2885  0.4871 -0.4467
  190ccc     H8 4876  10.205  11.680   3.029 -1.3655 -1.6566  0.7395
  190ccc     N2 4877  10.289  11.794   2.874 -0.1122 -0.3657  0.1626
  190ccc     C5 4878  10.422  11.780   2.930 -0.6257  0.7275 -0.2100
  190ccc     C6 4879  10.287  11.816   2.723  0.1515  0.4796 -0.2026
  190ccc     H9 4880  10.185  11.847   2.698 -0.9124 -1.9395  0.8454
  190ccc     C7 4881  10.315  11.683   2.644  0.6233  0.3932 -0.3048
  190ccc    H10 4882  10.356  11.897   2.696 -0.3572  1.9892  2.5946
  190ccc    H11 4883  10.225  11.621   2.650  3.1987 -3.5952  1.2486
  190ccc    H12 4884  10.396  11.628   2.693 -0.6717 -1.5988 -0.2887
  190ccc     C8 4885  10.352  11.706   2.497  0.2410  0.5694  0.7434
  190ccc     O2 4886  10.423  11.789   2.452 -0.0379 -0.4586 -0.1718
  190ccc     O3 4887  10.295  11.641   2.408 -0.0111 -0.3020 -0.1331
  190ccc    H13 4888  10.451  11.678   2.900 -0.5886  1.0897 -1.4778
  190ccc    H14 4889  10.422  11.784   3.039 -1.3822  0.0183 -0.1791
  190ccc     C9 4890  10.530  11.887   2.884  0.1748 -0.1301 -0.2917
  190ccc    H15 4891  10.607  11.904   2.959  0.4389  1.0848 -0.8123
  190ccc    H16 4892  10.505  11.992   2.864  1.4291  0.3887  0.8017
  190ccc    C10 4893  10.610  11.839   2.762 -0.2189  0.3633 -0.0346
  190ccc     O4 4894  10.625  11.904   2.658  0.3493 -0.1828 -0.6842
  190ccc     O5 4895  10.658  11.728   2.762  0.2232 -0.1741  0.2508
  191ccc     N1 4896   9.328  11.533   3.153  0.5612  0.0664 -0.1877
  191ccc     H4 4897   9.327  11.633   3.161  0.5971 -0.0183  1.0766
  191ccc     C3 4898   9.223  11.471   3.067  0.0470 -0.0558 -0.1342
  191ccc     H5 4899   9.275  11.405   2.997 -0.6974 -0.1216 -0.6245
  191ccc     C4 4900   9.148  11.585   2.991 -0.0554 -0.3842 -0.3365
  191ccc     H6 4901   9.164  11.405   3.131 -0.7771 -1.8206 -2.5804
  191ccc     H7 4902   9.223  11.658   2.957 -0.3259 -0.6717 -1.6031
  191ccc     H8 4903   9.087  11.642   3.063  1.0766  2.0626 -1.1774
  191ccc     N2 4904   9.045  11.550   2.885 -0.1799  0.1771 -0.0989
  191ccc     C5 4905   8.953  11.441   2.929 -0.3653 -0.3330 -0.7156
  191ccc     C6 4906   8.978  11.666   2.823 -0.2799  0.0013 -0.7670
  191ccc     H9 4907   8.905  11.633   2.748 -0.8172  0.1289 -0.3079
  191ccc     C7 4908   9.074  11.756   2.743 -0.4632 -0.0175 -0.0915
  191ccc    H10 4909   8.920  11.723   2.897  0.0844 -0.3880 -0.1627
  191ccc    H11 4910   9.133  11.689   2.680  0.3098  1.4062 -0.9394
  191ccc    H12 4911   9.151  11.807   2.803 -0.8621 -0.3322  0.7087
  191ccc     C8 4912   8.994  11.861   2.662  0.4208  0.1746  0.4494
  191ccc     O2 4913   8.874  11.868   2.664 -0.0136 -0.2402  0.1600
  191ccc     O3 4914   9.052  11.942   2.590 -0.0009 -0.0232  0.1298
  191ccc    H13 4915   9.005  11.378   3.003 -0.1492  0.9976  0.2953
  191ccc    H14 4916   8.933  11.385   2.837  1.9425  0.7510 -1.9668
  191ccc     C9 4917   8.829  11.496   3.005 -0.7204 -0.1464 -0.6677
  191ccc    H15 4918   8.769  11.566   2.945 -1.4212 -1.4368 -1.5030
  191ccc    H16 4919   8.873  11.548   3.092 -0.5828 -2.8193  0.9727
  191ccc    C10 4920   8.735  11.393   3.073 -0.2723  0.1342 -0.2051
  191ccc     O4 4921   8.615  11.403   3.048 -0.2951 -0.3377  0.3421
  191ccc     O5 4922   8.765  11.331   3.170  0.1102 -0.2332 -0.0095
  192ccc     N1 4923  10.658  11.044   2.672 -0.1578 -0.1619 -0.0341
  192ccc     H4 4924  10.696  10.979   2.738  0.4442 -1.2930 -1.4447
  192ccc     C3 4925  10.742  11.125   2.583 -0.1908 -0.6804 -0.1818
  192ccc     H5 4926  10.731  11.232   2.604 -1.2756 -0.2902 -2.4035
  192ccc     C4 4927  10.714  11.097   2.434 -0.5040  0.6888  0.4347
  192ccc     H6 4928  10.848  11.105   2.603 -0.4048 -1.7584 -0.0183
  192ccc     H7 4929  10.609  11.112   2.405 -0.0383  0.2485 -1.6423
  192ccc     H8 4930  10.729  10.990   2.417 -0.7480  0.4699  1.5647
  192ccc     N2 4931  10.811  11.177   2.353 -0.0360 -0.8289  0.0689
  192ccc     C5 4932  10.811  11.143   2.213  0.5285 -0.5976  0.4538
  192ccc     C6 4933  10.807  11.325   2.366  0.8950 -0.4539  0.1248
  192ccc     H9 4934  10.847  11.348   2.466  1.8537  1.5661 -0.6545
  192ccc     C7 4935  10.672  11.396   2.338  0.3553  0.0617  0.2820
  192ccc    H10 4936  10.885  11.376   2.308  0.0122  0.0239 -0.6699
  192ccc    H11 4937  10.589  11.352   2.395  0.1425 -2.4840 -1.8199
  192ccc    H12 4938  10.644  11.384   2.233 -0.8104 -0.0445  0.5891
  192ccc     C8 4939  10.657  11.548   2.365 -0.8248  0.4006  0.7606
  192ccc     O2 4940  10.610  11.627   2.281 -0.2259  0.0568  0.2891
  192ccc     O3 4941  10.705  11.597   2.464  0.1126 -0.2355 -0.5721
  192ccc    H13 4942  10.865  11.221   2.157 -1.0540 -0.3477 -0.8058
  192ccc    H14 4943  10.714  11.147   2.163  0.9265 -0.5492 -0.3408
  192ccc     C9 4944  10.872  11.007   2.192  0.1898  0.4563 -0.0237
  192ccc    H15 4945  10.805  10.926   2.225  0.6588 -0.0612 -0.3105
  192ccc    H16 4946  10.967  11.004   2.247  1.7860 -1.2317 -2.6331
  192ccc    C10 4947  10.905  10.970   2.045 -0.0163 -0.3388  0.0190
  192ccc     O4 4948  10.850  10.872   1.997  0.3567 -0.4707  0.2185
  192ccc     O5 4949  10.978  11.041   1.975  0.5901  0.4179 -0.4241
  193ccc     N1 4950  10.563  11.036   3.430  0.5294 -0.5363  0.1571
  193ccc     H4 4951  10.610  10.958   3.384 -0.3456 -0.2804 -1.2259
  193ccc     C3 4952  10.576  11.052   3.571  0.1266 -0.5043 -0.2384
  193ccc     H5 4953  10.608  11.157   3.581 -0.0467 -0.4489 -0.2497
  193ccc     C4 4954  10.679  10.953   3.636  0.1550  0.8706 -0.5376
  193ccc     H6 4955  10.477  11.045   3.618  0.2282  0.8846  0.2432
  193ccc     H7 4956  10.775  10.980   3.590 -0.3786  1.4592 -1.3431
  193ccc     H8 4957  10.666  10.848   3.608  1.1331  0.5618  0.1282
  193ccc     N2 4958  10.681  10.959   3.783 -0.0944  0.0174 -0.9479
  193ccc     C5 4959  10.557  10.910   3.849  0.4680  0.2045 -0.3542
  193ccc     C6 4960  10.741  11.089   3.839 -0.0901 -0.1008  0.0292
  193ccc     H9 4961  10.697  11.170   3.780 -0.4672 -0.4136 -0.1242
  193ccc     C7 4962  10.891  11.105   3.843  0.6705  0.5248 -0.1839
  193ccc    H10 4963  10.711  11.113   3.941  0.3714  1.4384 -0.1779
  193ccc    H11 4964  10.949  11.064   3.760  0.8737  0.1928  0.1200
  193ccc    H12 4965  10.937  11.044   3.922  1.6920  0.5466 -0.7388
  193ccc     C8 4966  10.927  11.253   3.858  0.3290  0.4023  0.5947
  193ccc     O2 4967  10.952  11.329   3.763  0.2272 -0.3095  0.8299
  193ccc     O3 4968  10.952  11.293   3.966  0.0324 -0.8449  0.0139
  193ccc    H13 4969  10.508  10.828   3.796 -0.0674  0.1329  0.2368
  193ccc    H14 4970  10.478  10.987   3.853 -0.2010 -0.4519 -0.7217
  193ccc     C9 4971  10.586  10.878   4.000 -0.0896  1.0522  0.2854
  193ccc    H15 4972  10.599  10.970   4.057 -1.0931  1.5753 -0.3050
  193ccc    H16 4973  10.680  10.822   4.009 -1.0047 -0.6708 -0.3568
  193ccc    C10 4974  10.478  10.789   4.078 -0.3962  0.0328  0.2012
  193ccc     O4 4975  10.472  10.783   4.202 -0.0080 -0.2392  0.3642
  193ccc     O5 4976  10.395  10.730   4.018  0.4685  0.7426  0.2423
  194ccc     N1 4977   7.391  12.258   2.629 -0.3803 -0.0657 -0.5988
  194ccc     H4 4978   7.425  12.285   2.537  1.3199 -2.6873 -0.8639
  194ccc     C3 4979   7.345  12.365   2.721  0.2038 -0.3043  0.4869
  194ccc     H5 4980   7.255  12.323   2.766  0.6816 -2.0052 -0.0813
  194ccc     C4 4981   7.323  12.500   2.645  0.4600 -0.5816  0.1704
  194ccc     H6 4982   7.423  12.375   2.798  1.1187 -0.8301 -0.3582
  194ccc     H7 4983   7.347  12.582   2.715 -1.3459  0.2177 -0.0875
  194ccc     H8 4984   7.220  12.512   2.609  0.2903  2.1587  1.3018
  194ccc     N2 4985   7.410  12.513   2.522  0.0861  0.4700  0.6002
  194ccc     C5 4986   7.365  12.613   2.416 -0.0782  0.0553  0.2470
  194ccc     C6 4987   7.548  12.554   2.559 -0.4985  0.1858  0.1337
  194ccc     H9 4988   7.544  12.646   2.618 -0.6016 -0.8238  1.7607
  194ccc     C7 4989   7.645  12.568   2.443  0.3504  0.3234 -0.2677
  194ccc    H10 4990   7.583  12.481   2.633 -1.2630  0.1192  0.4336
  194ccc    H11 4991   7.618  12.647   2.373 -1.7653 -0.8492 -0.8561
  194ccc    H12 4992   7.653  12.474   2.387  0.9022  0.1520  0.0891
  194ccc     C8 4993   7.787  12.619   2.487 -0.4060 -0.5590 -0.5775
  194ccc     O2 4994   7.824  12.732   2.463 -0.6930 -0.1928  0.4917
  194ccc     O3 4995   7.871  12.541   2.516 -0.3947 -0.4586  0.2201
  194ccc    H13 4996   7.429  12.597   2.329  0.9400 -0.3196  1.0436
  194ccc    H14 4997   7.375  12.719   2.445 -0.3912  1.2562 -3.4588
  194ccc     C9 4998   7.219  12.613   2.367  0.5161 -0.0120 -0.6650
  194ccc    H15 4999   7.155  12.646   2.450  1.4150 -0.4843  0.2499
  194ccc    H16 5000   7.194  12.507   2.352 -0.8690  0.1004  0.5620
  194ccc    C10 5001   7.210  12.693   2.238 -0.5298  0.0640 -0.4208
  194ccc     O4 5002   7.221  12.643   2.128  0.1674  0.1433 -0.2432
  194ccc     O5 5003   7.236  12.814   2.247  0.0232  0.1882  0.5421
  195ccc     N1 5004   7.391  11.667   2.092 -0.5014 -0.3563 -0.0380
  195ccc     H4 5005   7.428  11.743   2.036 -1.6779 -0.5286 -1.0864
  195ccc     C3 5006   7.289  11.574   2.024 -0.2668 -0.0302 -0.1388
  195ccc     H5 5007   7.305  11.577   1.916 -1.2174  0.5975 -0.2773
  195ccc     C4 5008   7.148  11.616   2.066  0.5516  0.7406 -0.1751
  195ccc     H6 5009   7.302  11.474   2.068 -0.6548  0.1446  0.3836
  195ccc     H7 5010   7.137  11.725   2.067 -1.1807  0.7724  4.7169
  195ccc     H8 5011   7.125  11.584   2.168 -1.1608 -0.6792 -0.9716
  195ccc     N2 5012   7.043  11.530   2.000 -0.6742 -0.5570  0.0204
  195ccc     C5 5013   6.924  11.510   2.084 -0.6343  0.2704  0.8123
  195ccc     C6 5014   7.015  11.576   1.865  0.0750  0.0448 -0.7394
  195ccc     H9 5015   6.982  11.680   1.871  1.4244  0.4363  0.9490
  195ccc     C7 5016   6.912  11.498   1.791 -0.8405 -0.1742  0.7630
  195ccc    H10 5017   7.111  11.573   1.812  0.5045  1.9312 -0.1431
  195ccc    H11 5018   6.811  11.507   1.833 -0.3841 -1.3076  2.1906
  195ccc    H12 5019   6.945  11.393   1.786 -1.5245 -0.3608 -0.3494
  195ccc     C8 5020   6.911  11.544   1.643 -0.6438 -0.1969 -0.7623
  195ccc     O2 5021   7.003  11.522   1.568 -0.3308 -0.6800 -0.1896
  195ccc     O3 5022   6.816  11.609   1.596  0.0997 -0.4556  0.0164
  195ccc    H13 5023   6.936  11.483   2.189 -1.2660  1.5139  1.2285
  195ccc    H14 5024   6.876  11.425   2.035  1.3291 -0.1112 -0.5582
  195ccc     C9 5025   6.830  11.637   2.107 -0.1948  0.1790 -0.4093
  195ccc    H15 5026   6.804  11.682   2.010  1.0521 -0.3048 -0.9794
  195ccc    H16 5027   6.884  11.718   2.158 -2.2863  1.4183 -0.0527
  195ccc    C10 5028   6.705  11.589   2.176  0.0308  0.1313  0.2434
  195ccc     O4 5029   6.603  11.576   2.110  0.1094 -0.2326  0.0374
  195ccc     O5 5030   6.703  11.531   2.285  0.7295 -0.5144  0.6852
  196ccc     N1 5031   8.448  12.762   1.414  0.2751  0.0239  0.1437
  196ccc     H4 5032   8.548  12.745   1.420  0.1708 -0.1495  1.9395
  196ccc     C3 5033   8.398  12.788   1.279  0.1315 -0.2104 -0.8405
  196ccc     H5 5034   8.368  12.695   1.228 -0.1433  0.3546 -1.7403
  196ccc     C4 5035   8.489  12.870   1.185 -0.1556 -0.6815  0.0430
  196ccc     H6 5036   8.304  12.844   1.283 -0.6721 -1.6093  1.7124
  196ccc     H7 5037   8.596  12.843   1.192 -0.2063 -0.9307 -0.1529
  196ccc     H8 5038   8.493  12.971   1.229  0.9820  0.1297 -1.7779
  196ccc     N2 5039   8.464  12.882   1.041 -0.8021  0.0616  0.3384
  196ccc     C5 5040   8.536  12.988   0.967 -0.4912  0.2996  0.2044
  196ccc     C6 5041   8.427  12.758   0.967  0.6616  0.9012  0.1694
  196ccc     H9 5042   8.338  12.718   1.016 -1.3234  1.4815 -2.6969
  196ccc     C7 5043   8.539  12.656   0.961 -0.0483  0.5434  0.1163
  196ccc    H10 5044   8.395  12.791   0.867 -1.2447  1.3857  0.9076
  196ccc    H11 5045   8.574  12.627   1.061  0.1430 -2.5259 -0.7460
  196ccc    H12 5046   8.625  12.707   0.916  3.3459 -2.9399  2.0521
  196ccc     C8 5047   8.502  12.532   0.879  0.1006 -0.0932 -0.3811
  196ccc     O2 5048   8.516  12.537   0.759  0.0263  0.3648  0.7604
  196ccc     O3 5049   8.481  12.421   0.931 -0.0905 -0.2452  0.2374
  196ccc    H13 5050   8.643  12.966   0.974 -0.2547  0.4248 -2.2843
  196ccc    H14 5051   8.534  13.089   1.011 -0.1981 -0.2572  1.5584
  196ccc     C9 5052   8.515  13.011   0.813  1.0070  0.0141  0.3563
  196ccc    H15 5053   8.515  12.915   0.760 -1.7107 -0.1851  0.5514
  196ccc    H16 5054   8.597  13.071   0.771  1.1594 -2.0568 -2.6023
  196ccc    C10 5055   8.380  13.071   0.772 -0.1230 -0.4400 -0.6466
  196ccc     O4 5056   8.345  13.173   0.821  0.3153  0.2393 -0.2009
  196ccc     O5 5057   8.299  13.027   0.689 -0.4213 -0.0364  0.0648
  197ccc     N1 5058   8.692  12.709   2.206 -0.8834 -0.2383  0.0553
  197ccc     H4 5059   8.637  12.625   2.194 -1.3273  0.2476 -1.7391
  197ccc     C3 5060   8.706  12.757   2.345  1.4577 -0.0422  0.0557
  197ccc     H5 5061   8.805  12.800   2.366  1.1869  0.4418  0.3438
  197ccc     C4 5062   8.710  12.633   2.440 -0.1897  0.4545 -0.6167
  197ccc     H6 5063   8.622  12.821   2.371  1.1096 -0.9968  1.3909
  197ccc     H7 5064   8.720  12.678   2.539  2.5060 -0.8404 -0.2012
  197ccc     H8 5065   8.805  12.585   2.412 -1.1122 -1.2962 -0.8696
  197ccc     N2 5066   8.595  12.536   2.434 -0.1411 -0.0863  0.2745
  197ccc     C5 5067   8.624  12.428   2.521 -0.1541  0.5786 -0.7192
  197ccc     C6 5068   8.462  12.595   2.461 -0.5928  0.0733  0.3562
  197ccc     H9 5069   8.471  12.617   2.568  0.0431 -1.4210  0.6246
  197ccc     C7 5070   8.334  12.510   2.436 -0.0288 -0.5319 -0.7730
  197ccc    H10 5071   8.455  12.691   2.407 -1.4513  0.7006  1.5292
  197ccc    H11 5072   8.339  12.424   2.503 -0.2450 -0.4925 -0.7067
  197ccc    H12 5073   8.324  12.471   2.334 -2.4441 -0.9419 -0.4210
  197ccc     C8 5074   8.229  12.617   2.473  0.3513 -0.1954  0.5672
  197ccc     O2 5075   8.160  12.606   2.572  0.1882  0.6405 -0.6220
  197ccc     O3 5076   8.194  12.710   2.404 -0.8140  0.1820 -0.5458
  197ccc    H13 5077   8.543  12.354   2.514 -0.6503  1.1714 -1.3955
  197ccc    H14 5078   8.626  12.467   2.623 -0.3598 -2.0969  0.3941
  197ccc     C9 5079   8.755  12.350   2.511  0.2417  0.2059  0.1857
  197ccc    H15 5080   8.844  12.410   2.534  0.3424  0.9181 -1.8758
  197ccc    H16 5081   8.766  12.324   2.406 -0.6894 -0.6064  0.2759
  197ccc    C10 5082   8.746  12.226   2.601  0.0443 -0.4393  0.6583
  197ccc     O4 5083   8.725  12.236   2.725 -0.0886  0.1902  0.4194
  197ccc     O5 5084   8.788  12.117   2.559 -0.4395  0.1481  0.0799
  198ccc     N1 5085  10.813   9.759   2.458 -0.6047  1.2002  0.4033
  198ccc     H4 5086  10.724   9.725   2.422 -0.5239  1.5111 -0.0842
  198ccc     C3 5087  10.906   9.664   2.524  0.1664  0.4411  0.1530
  198ccc     H5 5088  10.992   9.647   2.458  0.7500 -0.8652  1.2243
  198ccc     C4 5089  10.840   9.525   2.538  0.3692  0.1277  0.2698
  198ccc     H6 5090  10.935   9.703   2.622  1.7409  0.2027 -0.1845
  198ccc     H7 5091  10.745   9.548   2.588  0.1569  0.8910 -0.4557
  198ccc     H8 5092  10.900   9.468   2.610  0.2609  1.2493  1.2807
  198ccc     N2 5093  10.822   9.457   2.406  0.0139 -0.0019 -0.4665
  198ccc     C5 5094  10.955   9.400   2.358  0.8170 -0.0590 -0.7229
  198ccc     C6 5095  10.713   9.355   2.399 -0.4862  0.1009 -0.3762
  198ccc     H9 5096  10.613   9.399   2.408 -0.7663 -0.6192  0.1831
  198ccc     C7 5097  10.712   9.243   2.507  0.1463 -0.7619 -0.8727
  198ccc    H10 5098  10.715   9.306   2.301 -0.8442  1.1148 -0.9057
  198ccc    H11 5099  10.717   9.284   2.608 -1.0000 -1.6087 -0.4475
  198ccc    H12 5100  10.799   9.177   2.498  0.8272 -0.1088  0.6091
  198ccc     C8 5101  10.576   9.169   2.505 -0.0746  0.1858  0.6789
  198ccc     O2 5102  10.507   9.136   2.600  0.4326 -0.0292 -0.3146
  198ccc     O3 5103  10.556   9.093   2.412  0.2876 -0.2846 -0.0723
  198ccc    H13 5104  11.003   9.345   2.440 -2.3528 -1.8520  0.1468
  198ccc    H14 5105  11.020   9.487   2.351 -0.4444  1.0248  0.4293
  198ccc     C9 5106  10.960   9.319   2.229 -0.0256  0.0539 -0.6433
  198ccc    H15 5107  10.907   9.358   2.141 -3.0399 -2.1163  0.0243
  198ccc    H16 5108  10.901   9.230   2.255 -3.5298  2.4750  0.5390
  198ccc    C10 5109  11.100   9.283   2.194  0.4063 -0.5440 -0.1636
  198ccc     O4 5110  11.131   9.169   2.189 -0.2613  0.5625  0.1141
  198ccc     O5 5111  11.187   9.360   2.157  0.5136 -0.3926 -0.2530
  199ccc     N1 5112  10.455  10.419   2.588 -0.5433 -0.1293 -0.7487
  199ccc     H4 5113  10.397  10.389   2.511  0.3170 -0.9075 -1.1144
  199ccc     C3 5114  10.471  10.561   2.616  0.3698  0.0738  0.1862
  199ccc     H5 5115  10.372  10.601   2.642  1.0690  1.4401  0.8633
  199ccc     C4 5116  10.532  10.638   2.496  0.2412  0.1700  0.2728
  199ccc     H6 5117  10.534  10.571   2.705  1.9949 -1.4344 -0.7465
  199ccc     H7 5118  10.554  10.741   2.525  0.6099  0.0379  0.4672
  199ccc     H8 5119  10.452  10.649   2.421  1.1028  0.8083 -0.5725
  199ccc     N2 5120  10.657  10.588   2.438  0.8224  0.6717 -0.3945
  199ccc     C5 5121  10.689  10.653   2.312  0.5620  0.2915  0.0691
  199ccc     C6 5122  10.776  10.581   2.530  0.0530  0.0975  0.0004
  199ccc     H9 5123  10.755  10.517   2.616 -2.4530  2.3620  1.2359
  199ccc     C7 5124  10.819  10.719   2.594  0.4789 -0.0747 -0.2183
  199ccc    H10 5125  10.860  10.537   2.475  0.2594 -1.3306  1.4165
  199ccc    H11 5126  10.739  10.755   2.659  1.7062  0.1937  1.2213
  199ccc    H12 5127  10.852  10.783   2.511 -1.4909  1.2436 -0.0362
  199ccc     C8 5128  10.941  10.695   2.693 -0.0152 -0.0867  0.2100
  199ccc     O2 5129  10.917  10.676   2.809  0.1617  0.1810 -0.0589
  199ccc     O3 5130  11.057  10.715   2.667 -0.6046 -0.7124  0.5964
  199ccc    H13 5131  10.797  10.658   2.296  0.5450 -0.3922 -0.2901
  199ccc    H14 5132  10.648  10.755   2.308 -0.4537 -0.0781  0.6463
  199ccc     C9 5133  10.619  10.578   2.201  0.1456  0.2090 -0.0856
  199ccc    H15 5134  10.512  10.572   2.223 -0.5132  2.1040 -2.3002
  199ccc    H16 5135  10.658  10.476   2.189  1.7387  0.4015  2.5448
  199ccc    C10 5136  10.637  10.651   2.056  0.0497  0.1199 -1.1676
  199ccc     O4 5137  10.576  10.748   2.028 -0.3692 -0.1469 -0.7774
  199ccc     O5 5138  10.720  10.604   1.982 -0.7405  0.0062  0.0087
  200ccc     N1 5139   9.746   9.853   0.986  0.5468 -0.3348 -0.0433
  200ccc     H4 5140   9.734   9.860   1.086  0.3913  0.7992 -0.1305
  200ccc     C3 5141   9.676   9.944   0.888  0.3142 -0.2986 -0.3089
  200ccc     H5 5142   9.682  10.046   0.929  1.4978 -0.6165  0.3474
  200ccc     C4 5143   9.532   9.900   0.851 -0.2435 -0.4857  0.2036
  200ccc     H6 5144   9.738   9.947   0.798  0.0896  2.2166 -0.4520
  200ccc     H7 5145   9.465   9.905   0.937 -1.8901  1.2178 -1.0597
  200ccc     H8 5146   9.533   9.794   0.824 -0.1452  0.0543 -2.1813
  200ccc     N2 5147   9.464   9.981   0.742  0.0639 -0.3133 -0.1005
  200ccc     C5 5148   9.488   9.957   0.594  0.0466  0.2635 -1.0148
  200ccc     C6 5149   9.453  10.127   0.770 -0.0803  0.6422  0.2018
  200ccc     H9 5150   9.554  10.169   0.754 -0.2883  0.4078 -1.9406
  200ccc     C7 5151   9.411  10.167   0.912  0.3932  0.2734  0.0082
  200ccc    H10 5152   9.385  10.168   0.695  1.1474  0.6207 -0.9753
  200ccc    H11 5153   9.484  10.139   0.990  0.7612  0.3680 -0.2969
  200ccc    H12 5154   9.318  10.113   0.930  0.8270  0.0381  1.7386
  200ccc     C8 5155   9.378  10.318   0.924  0.4081 -0.2649 -0.2339
  200ccc     O2 5156   9.454  10.398   0.875 -0.5873  0.3021  0.4108
  200ccc     O3 5157   9.273  10.359   0.968  0.4086  0.0693 -0.0310
  200ccc    H13 5158   9.588   9.999   0.578  0.2195  0.1300 -0.3347
  200ccc    H14 5159   9.423  10.019   0.530  0.0652 -0.2649 -1.5490
  200ccc     C9 5160   9.495   9.812   0.541  0.0536  0.2163 -0.3857
  200ccc    H15 5161   9.395   9.769   0.559  0.4462 -0.2798  0.6759
  200ccc    H16 5162   9.574   9.756   0.593  0.5136  0.9321 -0.3140
  200ccc    C10 5163   9.520   9.812   0.393  0.2647 -0.2036  0.0158
  200ccc     O4 5164   9.626   9.790   0.345 -0.3306 -0.3480  0.7234
  200ccc     O5 5165   9.442   9.859   0.313 -0.0149 -0.4669  0.2212
  201ccc     N1 5166  10.513   9.574   1.072  0.8371 -0.5325  0.1838
  201ccc     H4 5167  10.438   9.507   1.064 -0.2374  0.7113 -0.8051
  201ccc     C3 5168  10.646   9.526   1.106  0.1401 -0.2411 -0.2653
  201ccc     H5 5169  10.725   9.575   1.049  1.6731 -0.2603  1.7279
  201ccc     C4 5170  10.665   9.376   1.100 -0.5144 -0.2011  0.0178
  201ccc     H6 5171  10.662   9.550   1.212  0.6192  0.6918 -0.5360
  201ccc     H7 5172  10.622   9.331   1.010 -1.0887 -0.6514  0.5149
  201ccc     H8 5173  10.594   9.347   1.178 -0.7570 -1.1222 -0.5356
  201ccc     N2 5174  10.789   9.315   1.149  0.3939 -1.0647 -0.0109
  201ccc     C5 5175  10.902   9.387   1.083  0.0045 -0.0354 -0.0130
  201ccc     C6 5176  10.789   9.169   1.131  0.3642  0.3591 -0.2144
  201ccc     H9 5177  10.781   9.141   1.026 -1.0911  0.8738 -0.2594
  201ccc     C7 5178  10.668   9.102   1.209 -0.2781 -0.2186 -0.0243
  201ccc    H10 5179  10.885   9.130   1.167  0.2800  1.1325  0.9066
  201ccc    H11 5180  10.570   9.140   1.178 -0.0446 -0.8203 -1.5933
  201ccc    H12 5181  10.681   9.137   1.312 -1.9104  1.7766 -0.4388
  201ccc     C8 5182  10.659   8.951   1.197  0.0814  0.3979  0.1854
  201ccc     O2 5183  10.570   8.896   1.135  0.2319  0.1169  0.1095
  201ccc     O3 5184  10.745   8.883   1.250  0.0671  0.6384 -0.4794
  201ccc    H13 5185  10.895   9.494   1.103  2.3665 -0.0871  1.5249
  201ccc    H14 5186  10.892   9.369   0.975 -2.4502  1.2386 -0.0503
  201ccc     C9 5187  11.039   9.347   1.142  0.1633  0.1235 -0.8053
  201ccc    H15 5188  11.118   9.399   1.087  3.5553 -0.2190  3.1681
  201ccc    H16 5189  11.063   9.240   1.131 -0.4600  0.0866 -1.9367
  201ccc    C10 5190  11.058   9.392   1.292  0.0691 -0.1467  0.1367
  201ccc     O4 5191  11.151   9.466   1.314  1.5703 -0.3451  0.3632
  201ccc     O5 5192  11.020   9.327   1.386  0.0529  0.4835  0.3298
  202ccc     N1 5193  10.061   9.910   3.761 -0.0234  0.1881 -0.8630
  202ccc     H4 5194  10.091   9.866   3.847  1.5737  0.7900 -1.0850
  202ccc     C3 5195  10.000  10.040   3.785 -0.3331 -0.2350 -0.3793
  202ccc     H5 5196   9.905  10.057   3.732 -0.6310 -1.3673 -0.2336
  202ccc     C4 5197  10.099  10.156   3.781  0.2611 -0.3828  0.4245
  202ccc     H6 5198   9.965  10.022   3.887 -0.5658  0.9608 -0.2384
  202ccc     H7 5199  10.153  10.151   3.685  0.4352 -2.1478  0.5664
  202ccc     H8 5200  10.181  10.120   3.844 -0.7783 -1.8795  0.9853
  202ccc     N2 5201  10.054  10.287   3.815 -0.0188 -0.4546  0.1134
  202ccc     C5 5202  10.035  10.310   3.963  0.3744 -0.2213 -0.0382
  202ccc     C6 5203   9.946  10.332   3.724  0.5057  0.0237 -0.1635
  202ccc     H9 5204   9.857  10.273   3.748  1.5681 -0.8873  1.7794
  202ccc     C7 5205   9.982  10.314   3.573 -0.4641  0.7582  0.0694
  202ccc    H10 5206   9.928  10.438   3.747 -0.3866 -0.7375  3.1870
  202ccc    H11 5207  10.015  10.216   3.536  1.0898  0.7128  1.4734
  202ccc    H12 5208  10.067  10.379   3.548  1.5122 -1.7425 -0.1057
  202ccc     C8 5209   9.866  10.358   3.477 -0.3607  0.2240 -0.6891
  202ccc     O2 5210   9.782  10.440   3.525 -0.0931 -0.7781  0.2151
  202ccc     O3 5211   9.833  10.300   3.370  0.5414 -0.1953 -0.1233
  202ccc    H13 5212  10.129  10.293   4.017 -0.3049  0.3786  1.3821
  202ccc    H14 5213   9.954  10.242   3.989 -1.2905  1.3976 -0.7863
  202ccc     C9 5214   9.980  10.445   4.011  0.4006 -0.0670 -0.7467
  202ccc    H15 5215   9.955  10.450   4.118  0.0473  1.4327 -0.8795
  202ccc    H16 5216   9.879  10.462   3.973  0.3846  2.7441  0.3402
  202ccc    C10 5217  10.076  10.557   3.984  0.2219  0.4268 -0.1978
  202ccc     O4 5218  10.188  10.561   4.032 -0.5088 -0.2337  0.0248
  202ccc     O5 5219  10.043  10.650   3.909  0.1967 -0.2523 -0.3481
  203ccc     N1 5220  10.404  10.276   3.447 -0.1586  0.2170 -0.4474
  203ccc     H4 5221  10.364  10.249   3.359 -0.2775 -3.0291  0.4587
  203ccc     C3 5222  10.483  10.394   3.437 -0.3796  0.4891 -0.4675
  203ccc     H5 5223  10.492  10.458   3.526 -1.9617  2.2383 -1.4943
  203ccc     C4 5224  10.435  10.496   3.330  0.2638  0.2996  0.3466
  203ccc     H6 5225  10.578  10.352   3.400 -0.9756 -1.6631  0.2901
  203ccc     H7 5226  10.448  10.451   3.231 -0.0404  0.0016  0.4407
  203ccc     H8 5227  10.506  10.579   3.341  1.2972 -0.4677 -0.4044
  203ccc     N2 5228  10.303  10.556   3.344  0.3446  0.1000  0.0123
  203ccc     C5 5229  10.287  10.648   3.228  0.4455 -0.1908 -0.1744
  203ccc     C6 5230  10.263  10.602   3.478 -0.4393  0.0655  0.7858
  203ccc     H9 5231  10.154  10.619   3.479 -0.9214 -2.5384  1.4006
  203ccc     C7 5232  10.349  10.713   3.537 -0.2997 -0.1699  0.0409
  203ccc    H10 5233  10.260  10.506   3.530 -2.4155 -1.7028 -2.2967
  203ccc    H11 5234  10.317  10.802   3.481  0.3226 -0.1006 -0.2111
  203ccc    H12 5235  10.458  10.715   3.531 -0.3431  0.4224 -0.7013
  203ccc     C8 5236  10.305  10.727   3.676  0.2321  0.0574  0.2215
  203ccc     O2 5237  10.252  10.830   3.713  0.0521 -0.4160  0.4437
  203ccc     O3 5238  10.324  10.648   3.766  0.0006 -0.1986 -0.1718
  203ccc    H13 5239  10.307  10.593   3.135  0.1762 -0.9032  0.1806
  203ccc    H14 5240  10.358  10.730   3.241 -1.1956  1.6857 -2.2508
  203ccc     C9 5241  10.152  10.714   3.216 -0.0609  0.0551  0.9421
  203ccc    H15 5242  10.162  10.773   3.124 -0.9494  0.6885  1.2332
  203ccc    H16 5243  10.149  10.789   3.297 -0.3690  0.1847  0.8134
  203ccc    C10 5244  10.039  10.610   3.229  0.0436 -0.0750  0.2602
  203ccc     O4 5245  10.016  10.532   3.140  0.3706  0.3003 -0.2357
  203ccc     O5 5246   9.951  10.615   3.316 -0.5647 -0.4015 -0.1890
  204ccc     N1 5247  10.973  10.328   2.710 -0.6092  0.9413  0.1480
  204ccc     H4 5248  10.878  10.296   2.703 -0.5608  0.3096  1.8640
  204ccc     C3 5249  11.060  10.369   2.595 -0.6027  0.2437  0.2392
  204ccc     H5 5250  11.034  10.467   2.552 -1.0325  0.3335  0.6929
  204ccc     C4 5251  11.055  10.258   2.489  0.1652  0.0789  0.1607
  204ccc     H6 5252  11.164  10.385   2.626 -0.7384 -0.6454  1.2098
  204ccc     H7 5253  10.952  10.251   2.450  0.7530  0.0265 -1.4780
  204ccc     H8 5254  11.080  10.162   2.536 -0.5278 -0.4728 -0.5609
  204ccc     N2 5255  11.148  10.291   2.378 -0.6856 -0.7849  0.0200
  204ccc     C5 5256  11.193  10.168   2.312  0.1952 -0.6668 -0.2929
  204ccc     C6 5257  11.115  10.404   2.293  0.5826 -0.4117 -0.2202
  204ccc     H9 5258  11.057  10.479   2.347 -0.7801 -0.2916 -1.7644
  204ccc     C7 5259  11.019  10.367   2.176  0.1356 -0.4196 -0.1068
  204ccc    H10 5260  11.210  10.450   2.266  1.3832  0.3039  3.3898
  204ccc    H11 5261  10.927  10.325   2.219  1.5424 -2.7293  0.8619
  204ccc    H12 5262  11.056  10.288   2.110  1.2644 -1.2165  1.4062
  204ccc     C8 5263  10.977  10.480   2.086  0.0576  0.1073 -0.1813
  204ccc     O2 5264  10.983  10.597   2.126  0.4396 -0.4040 -0.1130
  204ccc     O3 5265  10.980  10.473   1.967  0.1481  0.0674 -0.0437
  204ccc    H13 5266  11.110  10.123   2.255  1.8444 -1.4891 -2.1866
  204ccc    H14 5267  11.224  10.098   2.391  0.9638  1.5598  1.4681
  204ccc     C9 5268  11.319  10.178   2.217 -0.1655 -0.1399 -0.8997
  204ccc    H15 5269  11.372  10.270   2.244  1.2833 -1.3861  0.7685
  204ccc    H16 5270  11.290  10.178   2.112 -3.3649 -1.1063 -0.1340
  204ccc    C10 5271  11.412  10.056   2.239  0.2375 -0.1244 -0.8960
  204ccc     O4 5272  11.364   9.940   2.234 -0.3514  0.3077  0.2403
  204ccc     O5 5273  11.527  10.064   2.284 -0.3994 -0.5460 -0.1231
  205ccc     N1 5274  10.567   9.828   2.659  0.8700 -0.2079  0.4888
  205ccc     H4 5275  10.556   9.926   2.633 -0.4558 -0.7000 -0.9600
  205ccc     C3 5276  10.485   9.719   2.588  0.1194 -0.2810 -0.4940
  205ccc     H5 5277  10.538   9.695   2.495 -1.2640 -0.9693 -1.1280
  205ccc     C4 5278  10.346   9.768   2.559  0.4699 -0.4588 -0.8659
  205ccc     H6 5279  10.486   9.632   2.656 -1.0113  0.2662  0.2475
  205ccc     H7 5280  10.350   9.870   2.519  0.8782 -0.4949 -0.9233
  205ccc     H8 5281  10.294   9.778   2.655  1.3047 -3.1439 -0.0502
  205ccc     N2 5282  10.267   9.694   2.461 -0.3993  0.8751  0.6194
  205ccc     C5 5283  10.288   9.545   2.482 -0.2014 -0.2058  0.1512
  205ccc     C6 5284  10.123   9.742   2.450  0.3929  0.0174 -0.1973
  205ccc     H9 5285  10.113   9.847   2.421 -0.5760 -0.5406 -2.0822
  205ccc     C7 5286  10.045   9.709   2.575  0.2197 -0.2896  0.3078
  205ccc    H10 5287  10.073   9.690   2.367  0.1767 -0.5981  0.3096
  205ccc    H11 5288  10.073   9.767   2.664 -0.7197  2.5751 -1.1671
  205ccc    H12 5289  10.061   9.607   2.613 -1.3115 -0.6166  0.1485
  205ccc     C8 5290   9.893   9.706   2.560  0.0600  1.0794  0.8563
  205ccc     O2 5291   9.846   9.655   2.458 -0.6972  0.3681 -0.1105
  205ccc     O3 5292   9.810   9.735   2.642 -0.1804  0.1747  0.4094
  205ccc    H13 5293  10.248   9.515   2.579  0.6806 -1.8553  0.0401
  205ccc    H14 5294  10.394   9.517   2.485 -0.7527 -2.7855 -1.2375
  205ccc     C9 5295  10.214   9.453   2.386 -0.2797 -0.2971 -0.8912
  205ccc    H15 5296  10.249   9.483   2.286  0.1443 -0.6925 -0.8608
  205ccc    H16 5297  10.105   9.469   2.392  0.0025  1.1533  2.2809
  205ccc    C10 5298  10.261   9.305   2.411  0.1501 -0.6715  0.9283
  205ccc     O4 5299  10.331   9.255   2.329  0.5156  0.0819 -0.1002
  205ccc     O5 5300  10.246   9.241   2.515  0.0533 -0.3841 -0.2618
  206ccc     N1 5301   6.251  10.322   3.316 -1.3267  0.2789 -0.1055
  206ccc     H4 5302   6.237  10.256   3.241  1.2475  0.3262 -0.7223
  206ccc     C3 5303   6.256  10.276   3.460  0.7091 -0.6231 -0.3284
  206ccc     H5 5304   6.333  10.331   3.514  0.9871 -1.0419 -0.2884
  206ccc     C4 5305   6.274  10.126   3.477  0.0832  0.6376  0.0439
  206ccc     H6 5306   6.166  10.307   3.513  0.6523 -0.6368 -0.4160
  206ccc     H7 5307   6.242  10.104   3.580 -0.5903 -2.9697 -0.7680
  206ccc     H8 5308   6.381  10.104   3.468 -0.1807  0.2658 -3.5947
  206ccc     N2 5309   6.202  10.038   3.382  0.1029  0.2752  0.4945
  206ccc     C5 5310   6.256   9.900   3.381  0.2440 -0.1772 -0.1829
  206ccc     C6 5311   6.057  10.052   3.372  0.2394 -0.0014  0.1596
  206ccc     H9 5312   6.039  10.159   3.353 -0.0316  0.5698  3.0699
  206ccc     C7 5313   5.975  10.023   3.505  0.3799  0.5498  0.5655
  206ccc    H10 5314   6.011   9.991   3.294 -0.6240 -1.2825  1.6091
  206ccc    H11 5315   5.873  10.009   3.469  0.7865  0.5779 -0.6155
  206ccc    H12 5316   5.974  10.109   3.574 -1.0864  1.6366 -0.7422
  206ccc     C8 5317   6.018   9.899   3.580  0.1089 -0.5628  0.1411
  206ccc     O2 5318   5.958   9.798   3.558  0.6412 -0.2909  0.0045
  206ccc     O3 5319   6.085   9.904   3.685 -0.0289  0.0994  0.2828
  206ccc    H13 5320   6.231   9.848   3.474 -0.5470 -0.6649 -0.6598
  206ccc    H14 5321   6.366   9.906   3.386  0.1341  1.0759  1.9589
  206ccc     C9 5322   6.221   9.808   3.258  0.1628 -0.0790  0.1999
  206ccc    H15 5323   6.276   9.834   3.167  1.1131  1.1548  1.0963
  206ccc    H16 5324   6.113   9.812   3.238  0.1057 -1.4140  0.1616
  206ccc    C10 5325   6.250   9.661   3.287  0.8231 -0.4305  0.8760
  206ccc     O4 5326   6.195   9.606   3.381 -0.7003 -0.2938 -0.5823
  206ccc     O5 5327   6.351   9.609   3.240 -0.1658 -0.5352 -0.2906
  207ccc     N1 5328   6.060   9.890   2.895  0.6188 -0.0147 -0.3792
  207ccc     H4 5329   6.144   9.914   2.844  1.3989  0.7963  1.2156
  207ccc     C3 5330   5.972   9.776   2.863  0.3440 -0.0963 -0.4887
  207ccc     H5 5331   6.031   9.683   2.857  0.1551 -0.3162  0.7084
  207ccc     C4 5332   5.898   9.811   2.730  0.5336 -0.0345 -0.1723
  207ccc     H6 5333   5.899   9.757   2.942  0.1946 -2.4255 -1.1232
  207ccc     H7 5334   5.848   9.905   2.756 -0.1290 -0.3756 -0.1739
  207ccc     H8 5335   5.822   9.734   2.708 -0.0387  0.1393  1.0766
  207ccc     N2 5336   5.995   9.819   2.619 -0.0492  0.0253  1.0729
  207ccc     C5 5337   6.037   9.687   2.566  0.1132  0.0498 -0.5048
  207ccc     C6 5338   5.935   9.909   2.509  0.0503  0.5354  0.4766
  207ccc     H9 5339   5.998   9.908   2.419 -0.1132  0.4123  0.3618
  207ccc     C7 5340   5.910  10.058   2.542 -0.3741  0.1013  0.8791
  207ccc    H10 5341   5.839   9.868   2.476 -0.4012  0.4047  1.8747
  207ccc    H11 5342   5.994  10.088   2.606 -0.7915 -0.9975  1.9830
  207ccc    H12 5343   5.820  10.050   2.603 -1.5386  2.2655 -0.4229
  207ccc     C8 5344   5.875  10.154   2.423 -0.2272  0.1890 -0.4534
  207ccc     O2 5345   5.953  10.166   2.332  0.5231 -0.1406 -0.4496
  207ccc     O3 5346   5.765  10.204   2.412  0.5353  0.2365 -0.0450
  207ccc    H13 5347   6.062   9.610   2.640  0.3092 -0.6074 -1.2280
  207ccc    H14 5348   5.957   9.645   2.503  1.1994 -0.8866 -1.3008
  207ccc     C9 5349   6.170   9.697   2.489  0.0524 -0.0336  0.3607
  207ccc    H15 5350   6.235   9.767   2.543  0.4110  0.3087 -0.4932
  207ccc    H16 5351   6.153   9.767   2.406 -1.5183  0.1514  0.8147
  207ccc    C10 5352   6.248   9.571   2.442 -0.7327  0.2193  0.9077
  207ccc     O4 5353   6.248   9.556   2.320  1.0421  0.8110 -0.7253
  207ccc     O5 5354   6.249   9.473   2.512 -0.3999  0.0708  0.3236
  208ccc     N1 5355   6.848  10.995   3.003 -0.4391 -0.2209  0.5729
  208ccc     H4 5356   6.762  10.943   3.018 -0.5950 -0.2168 -0.2452
  208ccc     C3 5357   6.849  11.139   2.977 -0.7625  0.5927  0.4125
  208ccc     H5 5358   6.862  11.197   3.070 -1.2492  0.3801  0.6155
  208ccc     C4 5359   6.718  11.190   2.910  0.3179 -0.1799 -0.3453
  208ccc     H6 5360   6.935  11.166   2.914  1.3442 -0.9448  2.4460
  208ccc     H7 5361   6.715  11.298   2.926 -1.3421 -0.1641 -0.5272
  208ccc     H8 5362   6.624  11.155   2.956 -1.2085  2.7716 -1.0068
  208ccc     N2 5363   6.731  11.159   2.760 -0.0967 -0.5899  0.0502
  208ccc     C5 5364   6.676  11.272   2.679  0.4618 -0.7517 -0.1990
  208ccc     C6 5365   6.677  11.024   2.729  0.3916  0.5895  0.0290
  208ccc     H9 5366   6.721  10.988   2.636  1.0098  0.9447  0.1823
  208ccc     C7 5367   6.526  11.014   2.715  0.0229 -0.3226 -0.4554
  208ccc    H10 5368   6.709  10.957   2.810 -0.9465 -0.5073 -0.3019
  208ccc    H11 5369   6.484  11.092   2.651 -0.3232  1.0950  1.4128
  208ccc    H12 5370   6.477  11.032   2.811  0.0371  0.2657 -0.5530
  208ccc     C8 5371   6.500  10.876   2.659 -0.2791  0.0701  0.6959
  208ccc     O2 5372   6.532  10.839   2.545 -0.2686  0.2520  0.1880
  208ccc     O3 5373   6.439  10.795   2.732  1.0383 -0.0488 -0.5100
  208ccc    H13 5374   6.715  11.369   2.711 -2.3400  0.3015  0.3022
  208ccc    H14 5375   6.570  11.300   2.682  1.4582  3.9160 -1.0676
  208ccc     C9 5376   6.708  11.259   2.526  0.1757  0.0371 -0.3278
  208ccc    H15 5377   6.781  11.180   2.505 -1.2294 -1.3699 -0.1293
  208ccc    H16 5378   6.756  11.351   2.490  3.5257 -2.0288 -1.6734
  208ccc    C10 5379   6.586  11.236   2.435 -0.0331 -0.3102 -0.2236
  208ccc     O4 5380   6.505  11.326   2.425 -0.0364 -0.3596 -0.2752
  208ccc     O5 5381   6.564  11.128   2.382  0.2616 -0.2082 -0.6187
  209ccc     N1 5382   6.656  10.395   3.434  0.4287  0.1131  0.0418
  209ccc     H4 5383   6.622  10.374   3.341  0.2327  1.1375 -0.1227
  209ccc     C3 5384   6.653  10.276   3.525  0.6035 -0.5665 -0.3204
  209ccc     H5 5385   6.643  10.319   3.626 -2.6887  0.5876 -0.9887
  209ccc     C4 5386   6.776  10.185   3.493 -0.0700  0.1197  0.0617
  209ccc     H6 5387   6.556  10.227   3.510  0.6939 -1.4567  1.6791
  209ccc     H7 5388   6.872  10.235   3.509 -0.2242  0.4408 -0.0060
  209ccc     H8 5389   6.783  10.161   3.386 -1.7684 -0.1010 -0.0258
  209ccc     N2 5390   6.778  10.056   3.565 -0.6730 -1.2618 -0.3340
  209ccc     C5 5391   6.908   9.986   3.575  0.0848  0.9813  0.7030
  209ccc     C6 5392   6.670   9.968   3.513 -0.3794  0.7405  0.6255
  209ccc     H9 5393   6.580  10.031   3.510 -0.0486  1.3393  2.2962
  209ccc     C7 5394   6.638   9.847   3.610 -0.4096  1.2926 -0.5940
  209ccc    H10 5395   6.700   9.925   3.416  0.1035 -0.7147  1.3927
  209ccc    H11 5396   6.648   9.872   3.716 -2.6507  0.3536 -0.1113
  209ccc    H12 5397   6.715   9.769   3.602 -1.2075 -0.1203  3.2806
  209ccc     C8 5398   6.492   9.789   3.594  0.1581  0.2446  0.6574
  209ccc     O2 5399   6.470   9.720   3.493  0.7472 -0.3267  0.5802
  209ccc     O3 5400   6.413   9.797   3.681 -0.1960 -0.4336 -0.4634
  209ccc    H13 5401   6.942   9.967   3.472  2.4093  1.6019  1.2916
  209ccc    H14 5402   6.901   9.893   3.632  1.8150  1.1352  1.2348
  209ccc     C9 5403   7.022  10.048   3.649  0.3737 -0.7368 -0.2294
  209ccc    H15 5404   7.001  10.053   3.756 -0.4782  0.7643 -0.4443
  209ccc    H16 5405   7.040  10.147   3.606  0.1836 -1.3147 -1.7398
  209ccc    C10 5406   7.143   9.956   3.637  0.3709 -0.2245 -0.0389
  209ccc     O4 5407   7.171   9.878   3.728  0.2560 -0.2289  0.4418
  209ccc     O5 5408   7.219   9.963   3.542 -0.3864  0.5643  0.2747
  210ccc     N1 5409   6.884   9.860   0.372 -0.1093  0.3703  0.2257
  210ccc     H4 5410   6.871   9.945   0.427 -2.6304 -0.8840  1.7519
  210ccc     C3 5411   6.954   9.865   0.235 -0.8281  0.5358 -0.1935
  210ccc     H5 5412   7.008   9.771   0.218 -0.9473  0.8790 -2.8112
  210ccc     C4 5413   7.046   9.985   0.218  0.2841 -0.4928  0.6132
  210ccc     H6 5414   6.880   9.864   0.155 -0.2377  0.4407 -0.7491
  210ccc     H7 5415   6.987  10.077   0.222  1.2197  0.1140  0.7665
  210ccc     H8 5416   7.083   9.974   0.115  1.5959  0.7301  0.9293
  210ccc     N2 5417   7.163   9.997   0.308 -0.2921  0.0950  0.5457
  210ccc     C5 5418   7.247   9.873   0.311 -0.2419  0.6223  1.0062
  210ccc     C6 5419   7.234  10.126   0.302 -0.8779 -0.3192  0.7190
  210ccc     H9 5420   7.270  10.143   0.200 -1.0127 -0.8063  0.5863
  210ccc     C7 5421   7.351  10.167   0.399 -0.5144 -0.0360 -0.0334
  210ccc    H10 5422   7.158  10.205   0.312  0.6429  1.1676  0.9918
  210ccc    H11 5423   7.444  10.110   0.389  0.5086  1.3533  1.0608
  210ccc    H12 5424   7.326  10.136   0.502 -1.2189 -0.2843 -0.2715
  210ccc     C8 5425   7.387  10.313   0.392 -0.3745  0.9360 -0.4540
  210ccc     O2 5426   7.456  10.353   0.298  0.1600  0.9371  0.0550
  210ccc     O3 5427   7.365  10.387   0.484  0.4173 -0.1931  0.4367
  210ccc    H13 5428   7.195   9.798   0.372  0.9604 -0.4070  0.8165
  210ccc    H14 5429   7.333   9.884   0.378  0.8612 -0.9728 -0.0567
  210ccc     C9 5430   7.307   9.823   0.167  0.5076 -0.4541 -0.3930
  210ccc    H15 5431   7.372   9.908   0.145 -0.4776  0.2371 -0.7549
  210ccc    H16 5432   7.229   9.814   0.089  0.9253 -2.2397 -0.6572
  210ccc    C10 5433   7.388   9.694   0.158 -0.3772 -0.4961  0.9793
  210ccc     O4 5434   7.326   9.590   0.179 -0.2129 -0.0165 -0.1291
  210ccc     O5 5435   7.464   9.690   0.064 -0.1475  0.6517 -0.1026
  211ccc     N1 5436   7.443   9.795   0.764 -0.3230  0.0129 -0.4322
  211ccc     H4 5437   7.452   9.766   0.668 -0.4580 -3.1601  0.3936
  211ccc     C3 5438   7.564   9.835   0.834  0.0531  0.1486 -0.1326
  211ccc     H5 5439   7.553   9.929   0.889 -1.8338 -0.4765  0.6501
  211ccc     C4 5440   7.675   9.821   0.737 -0.6349 -0.3927 -0.4408
  211ccc     H6 5441   7.587   9.764   0.914  4.8953  0.4474 -0.9565
  211ccc     H7 5442   7.705   9.716   0.728 -1.9837 -0.8404  0.0926
  211ccc     H8 5443   7.761   9.864   0.790  1.8122 -2.6834 -2.2630
  211ccc     N2 5444   7.638   9.870   0.603 -0.2573  0.4640  0.6105
  211ccc     C5 5445   7.733   9.810   0.501 -0.3145 -0.5809 -0.0799
  211ccc     C6 5446   7.613  10.013   0.586  0.1466 -0.2659 -0.0098
  211ccc     H9 5447   7.589  10.028   0.480  0.4906 -0.9866 -0.2010
  211ccc     C7 5448   7.724  10.113   0.624  0.0359  0.6969  0.3335
  211ccc    H10 5449   7.523  10.045   0.639  1.6398  1.4576  1.6019
  211ccc    H11 5450   7.805  10.107   0.550  0.7115  2.0950  0.9215
  211ccc    H12 5451   7.773  10.102   0.721  2.1881 -0.3328 -0.7838
  211ccc     C8 5452   7.670  10.260   0.624  0.0328  0.1105  0.0564
  211ccc     O2 5453   7.691  10.335   0.523  0.3117 -0.4590 -1.0905
  211ccc     O3 5454   7.593  10.305   0.704 -0.2884 -0.0003  0.5558
  211ccc    H13 5455   7.742   9.704   0.530 -0.7387 -0.6184 -0.0697
  211ccc    H14 5456   7.835   9.848   0.513  1.2715 -3.8725 -1.6857
  211ccc     C9 5457   7.686   9.824   0.350 -0.4159  0.3433 -0.0300
  211ccc    H15 5458   7.689   9.925   0.307 -1.5447  0.3320 -0.1431
  211ccc    H16 5459   7.583   9.790   0.341 -0.1944 -0.3513  0.0385
  211ccc    C10 5460   7.776   9.744   0.258 -0.8273 -0.2202  0.8022
  211ccc     O4 5461   7.766   9.736   0.133  0.0921 -0.8028 -0.6274
  211ccc     O5 5462   7.861   9.678   0.312  0.7850 -0.4016  0.6302
  212ccc     N1 5463   7.648   8.487   1.118 -0.4101  0.2667 -0.6128
  212ccc     H4 5464   7.564   8.510   1.171 -0.2750  1.3820 -0.8405
  212ccc     C3 5465   7.659   8.381   1.016 -0.0478  0.8360  0.4901
  212ccc     H5 5466   7.647   8.426   0.916 -0.7021 -1.7447 -0.6949
  212ccc     C4 5467   7.550   8.270   1.015  0.7402 -0.1779  0.6081
  212ccc     H6 5468   7.760   8.340   1.016  0.2919  1.6448  1.1593
  212ccc     H7 5469   7.449   8.313   1.025  0.8332 -0.0820  1.2316
  212ccc     H8 5470   7.561   8.209   1.106  2.7775 -4.6440 -2.3333
  212ccc     N2 5471   7.553   8.171   0.907 -0.1847 -0.3077  0.4144
  212ccc     C5 5472   7.426   8.084   0.904 -0.4681  0.6121 -0.1172
  212ccc     C6 5473   7.678   8.105   0.887 -0.4389 -0.1323 -0.7019
  212ccc     H9 5474   7.725   8.117   0.985 -0.2008  2.5084 -1.0861
  212ccc     C7 5475   7.767   8.155   0.768 -0.1377  0.5086  0.1882
  212ccc    H10 5476   7.668   7.996   0.872 -0.8009  0.0549 -1.9128
  212ccc    H11 5477   7.808   8.254   0.791 -0.1022  0.2232  1.3777
  212ccc    H12 5478   7.713   8.172   0.674  0.4548  2.1836  0.1202
  212ccc     C8 5479   7.880   8.058   0.728  0.3909  0.6847 -0.3808
  212ccc     O2 5480   7.977   8.087   0.662 -0.5395  0.6983  0.3105
  212ccc     O3 5481   7.862   7.945   0.762  0.0493  0.3852  0.1809
  212ccc    H13 5482   7.337   8.148   0.896 -0.5854  0.2332 -5.5206
  212ccc    H14 5483   7.423   8.022   0.995  0.8169  1.0620  0.2524
  212ccc     C9 5484   7.411   7.992   0.778  0.1013 -0.0201  0.4394
  212ccc    H15 5485   7.466   7.900   0.799  0.7735 -0.0165 -1.1217
  212ccc    H16 5486   7.459   8.044   0.693 -0.2398 -0.1726  0.1501
  212ccc    C10 5487   7.266   7.957   0.743  0.0264  0.8319  0.2556
  212ccc     O4 5488   7.203   8.016   0.656  0.4551  0.2957  0.3090
  212ccc     O5 5489   7.196   7.880   0.806 -0.2849  0.8673  0.4825
  213ccc     N1 5490   7.610   9.281   0.944 -0.1817  0.5863 -0.6627
  213ccc     H4 5491   7.652   9.217   0.878  0.2828  0.5407 -0.3294
  213ccc     C3 5492   7.606   9.418   0.891 -0.0783  0.1723  0.0495
  213ccc     H5 5493   7.524   9.468   0.944  0.2112  0.6215  0.0785
  213ccc     C4 5494   7.571   9.422   0.744 -0.8338  0.9903  0.2310
  213ccc     H6 5495   7.695   9.474   0.923 -1.0186  0.4099  2.4953
  213ccc     H7 5496   7.556   9.526   0.711 -0.1630  0.5036 -1.7506
  213ccc     H8 5497   7.472   9.375   0.742  0.1215 -1.2927  2.0012
  213ccc     N2 5498   7.676   9.356   0.660 -0.0708  0.2724 -0.3621
  213ccc     C5 5499   7.625   9.322   0.524 -0.1413  0.2860 -0.8005
  213ccc     C6 5500   7.811   9.422   0.672 -0.5419 -0.6737  0.2569
  213ccc     H9 5501   7.802   9.517   0.618 -2.7398 -0.9602  0.0501
  213ccc     C7 5502   7.929   9.348   0.608  0.5076  0.0717 -0.7616
  213ccc    H10 5503   7.840   9.450   0.774  1.9454  0.0832 -0.5783
  213ccc    H11 5504   7.922   9.309   0.506  0.0319  0.0317 -0.7116
  213ccc    H12 5505   7.964   9.270   0.678  0.3683  0.7894  0.1315
  213ccc     C8 5506   8.037   9.459   0.597  0.4784  0.3013  0.4902
  213ccc     O2 5507   8.094   9.506   0.688  0.6239  0.4254 -0.0317
  213ccc     O3 5508   8.067   9.493   0.485 -0.0108  0.2789  0.5312
  213ccc    H13 5509   7.524   9.280   0.535  0.4958 -0.7251  1.7358
  213ccc    H14 5510   7.692   9.240   0.493  1.5688  1.0339  0.7251
  213ccc     C9 5511   7.628   9.444   0.434  0.6324 -0.4921  0.2179
  213ccc    H15 5512   7.733   9.474   0.424  1.3459 -1.5993  3.3191
  213ccc    H16 5513   7.563   9.521   0.476 -0.3438 -1.2098  0.0403
  213ccc    C10 5514   7.573   9.421   0.292 -0.3624 -0.4937 -0.2226
  213ccc     O4 5515   7.466   9.364   0.265 -0.1627  0.2767 -0.1510
  213ccc     O5 5516   7.638   9.467   0.198 -0.2268  1.0360  0.4873
  214ccc     N1 5517   8.973  12.385   1.708 -0.4953  0.3279 -0.7298
  214ccc     H4 5518   8.958  12.295   1.751 -0.1123 -1.0766 -3.3144
  214ccc     C3 5519   9.097  12.410   1.629  0.0902  0.2299 -0.3546
  214ccc     H5 5520   9.066  12.447   1.531  0.0460  0.6697 -0.1732
  214ccc     C4 5521   9.186  12.289   1.630 -0.1604 -0.5050  0.0904
  214ccc     H6 5522   9.154  12.493   1.672 -1.9752  0.7229  1.5954
  214ccc     H7 5523   9.201  12.263   1.736 -1.4329 -1.0123  0.1753
  214ccc     H8 5524   9.285  12.320   1.596 -0.2057  2.5742  2.3875
  214ccc     N2 5525   9.150  12.168   1.551  0.0670  0.5909  0.4216
  214ccc     C5 5526   9.128  12.196   1.405 -0.2320 -0.4824  0.0907
  214ccc     C6 5527   9.252  12.058   1.577 -0.5621  0.3926  0.0861
  214ccc     H9 5528   9.227  11.977   1.507  0.8431  0.0359 -0.0356
  214ccc     C7 5529   9.243  12.002   1.719 -0.0437  0.1222  0.0210
  214ccc    H10 5530   9.353  12.100   1.562 -0.8514  0.7869 -0.8172
  214ccc    H11 5531   9.137  11.981   1.736  0.0620 -0.2541  0.2163
  214ccc    H12 5532   9.282  12.080   1.786  1.5360  0.4378 -1.1990
  214ccc     C8 5533   9.310  11.873   1.739 -0.5431 -0.0723  0.1433
  214ccc     O2 5534   9.430  11.862   1.763  0.5425 -0.0204  0.2612
  214ccc     O3 5535   9.248  11.769   1.720  0.3041  0.7026  0.0617
  214ccc    H13 5536   9.157  12.106   1.348 -0.4591 -0.4932 -0.0075
  214ccc    H14 5537   9.201  12.268   1.366  1.0694 -1.0585  1.3779
  214ccc     C9 5538   8.986  12.245   1.367  0.1404  0.3096 -0.4778
  214ccc    H15 5539   8.969  12.349   1.399 -3.5055 -0.6935  1.3823
  214ccc    H16 5540   8.913  12.180   1.417 -0.2452  1.0964  0.0000
  214ccc    C10 5541   8.950  12.239   1.218 -0.2270 -0.1048  0.4746
  214ccc     O4 5542   8.896  12.137   1.169 -0.5743 -0.6968  0.1454
  214ccc     O5 5543   9.016  12.299   1.137 -0.0701 -0.1707 -0.2300
  215ccc     N1 5544   8.221  12.505   1.315  0.1363  0.6579 -0.1832
  215ccc     H4 5545   8.217  12.589   1.371 -0.5685  0.0579  0.7067
  215ccc     C3 5546   8.119  12.502   1.209  0.0099 -0.0989  0.7230
  215ccc     H5 5547   8.153  12.456   1.115  1.4528  1.9340  0.1913
  215ccc     C4 5548   8.066  12.650   1.182 -0.2861  0.7255  0.5319
  215ccc     H6 5549   8.027  12.455   1.246 -0.4455 -0.3159 -0.6254
  215ccc     H7 5550   8.153  12.712   1.161 -0.0813  0.3113  0.1253
  215ccc     H8 5551   8.038  12.696   1.277  3.4354  1.3059  1.4918
  215ccc     N2 5552   7.967  12.656   1.072 -0.2668 -0.2276 -0.4604
  215ccc     C5 5553   7.844  12.575   1.079  0.0546 -0.0369 -0.4127
  215ccc     C6 5554   7.941  12.788   1.011 -0.0891 -0.6107  0.2109
  215ccc     H9 5555   7.849  12.786   0.951 -0.3623  3.7859  0.1298
  215ccc     C7 5556   8.059  12.824   0.919  0.1290 -0.2262  0.1366
  215ccc    H10 5557   7.914  12.862   1.088 -2.2708  0.5941 -1.5902
  215ccc    H11 5558   8.057  12.759   0.831  0.5846  1.8608 -1.5149
  215ccc    H12 5559   8.158  12.828   0.966  0.2430  1.8403 -0.1645
  215ccc     C8 5560   8.052  12.960   0.853  0.3363  0.4271  0.1620
  215ccc     O2 5561   8.080  13.056   0.923  0.4709  0.0024 -0.3981
  215ccc     O3 5562   8.034  12.973   0.732 -0.3477  0.2806  0.1487
  215ccc    H13 5563   7.865  12.470   1.104 -0.8751  0.0951  1.0731
  215ccc    H14 5564   7.799  12.570   0.979 -2.8136 -2.3894  0.8491
  215ccc     C9 5565   7.743  12.629   1.182  0.5188  0.3676  0.1073
  215ccc    H15 5566   7.722  12.734   1.159  2.0209  0.5797 -0.3720
  215ccc    H16 5567   7.790  12.638   1.281 -1.6488  0.5227  1.1839
  215ccc    C10 5568   7.606  12.560   1.178 -0.4872 -0.4447 -0.6511
  215ccc     O4 5569   7.602  12.449   1.232  0.9435  0.0241  0.3908
  215ccc     O5 5570   7.504  12.599   1.129  0.5281 -0.0596  0.6137
  216ccc     N1 5571   8.944  11.065   1.360  0.1346 -0.2456  0.3766
  216ccc     H4 5572   8.859  11.014   1.381 -1.3409  1.6687 -0.5384
  216ccc     C3 5573   8.999  11.061   1.227  0.5855 -0.8680  0.3749
  216ccc     H5 5574   9.019  11.165   1.199 -0.6327 -0.6013  0.4607
  216ccc     C4 5575   8.889  11.004   1.134  0.5498 -0.2534 -0.4449
  216ccc     H6 5576   9.088  10.997   1.233 -0.1339 -1.7572  2.3836
  216ccc     H7 5577   8.799  11.065   1.148  1.3449  1.2459 -1.5576
  216ccc     H8 5578   8.866  10.903   1.170  0.6870 -0.3234 -0.5535
  216ccc     N2 5579   8.925  10.996   0.990 -0.3860 -0.2707  0.6239
  216ccc     C5 5580   9.053  10.920   0.966  0.2517  0.4474  0.0291
  216ccc     C6 5581   8.927  11.130   0.927 -0.3515 -0.0073  0.3582
  216ccc     H9 5582   8.986  11.203   0.984 -0.8001  1.5642 -1.0886
  216ccc     C7 5583   8.794  11.197   0.910  0.5246  0.0449  0.2636
  216ccc    H10 5584   8.982  11.115   0.833 -0.7596 -0.7647  0.2365
  216ccc    H11 5585   8.760  11.237   1.006  2.6605 -0.9438  1.5236
  216ccc    H12 5586   8.724  11.116   0.884  1.9708 -1.2531  0.2398
  216ccc     C8 5587   8.789  11.307   0.803 -0.1405  0.3288  0.5725
  216ccc     O2 5588   8.811  11.422   0.836  0.2023 -0.0093 -0.3362
  216ccc     O3 5589   8.757  11.281   0.688  0.1242 -0.1680 -0.1272
  216ccc    H13 5590   9.134  10.958   1.029 -0.2085 -0.0767  0.9679
  216ccc    H14 5591   9.089  10.950   0.867  0.0032  0.8747  0.0676
  216ccc     C9 5592   9.044  10.766   0.982 -1.0944  0.2529 -0.3138
  216ccc    H15 5593   8.980  10.724   0.904 -0.3873 -2.6181  0.5131
  216ccc    H16 5594   9.008  10.754   1.085  1.4788 -0.8361  0.5694
  216ccc    C10 5595   9.185  10.703   0.968  0.0152 -0.6500  0.4310
  216ccc     O4 5596   9.249  10.682   1.069 -0.5598  0.5197 -0.0259
  216ccc     O5 5597   9.215  10.637   0.871  0.1978  0.3375  0.2244
  217ccc     N1 5598   9.338  11.026   2.101 -0.8316 -0.4404 -0.1445
  217ccc     H4 5599   9.323  11.108   2.044 -0.9156 -1.2666 -1.3314
  217ccc     C3 5600   9.386  11.046   2.241  0.1802  0.2065 -0.2545
  217ccc     H5 5601   9.313  11.000   2.309 -1.2209 -0.5018 -2.1756
  217ccc     C4 5602   9.403  11.195   2.281 -0.1360 -0.1008 -0.0937
  217ccc     H6 5603   9.488  11.005   2.246  0.3484  0.3702 -1.9480
  217ccc     H7 5604   9.423  11.203   2.388  0.0544 -1.8381  0.0314
  217ccc     H8 5605   9.308  11.248   2.268  1.2739  2.7226  0.3520
  217ccc     N2 5606   9.500  11.263   2.203  0.1041 -0.3566 -0.3441
  217ccc     C5 5607   9.454  11.312   2.065 -0.1967  0.4130  0.6266
  217ccc     C6 5608   9.633  11.200   2.197  0.0702  0.4559 -0.3342
  217ccc     H9 5609   9.641  11.108   2.139 -0.1242  1.5441 -2.1903
  217ccc     C7 5610   9.701  11.165   2.334 -0.7459 -0.2112  0.0159
  217ccc    H10 5611   9.699  11.281   2.161  0.5219 -0.0845 -0.7339
  217ccc    H11 5612   9.654  11.091   2.399 -0.6567 -0.0512  0.2642
  217ccc    H12 5613   9.715  11.257   2.392  1.1796  0.2402 -1.0472
  217ccc     C8 5614   9.838  11.118   2.304 -0.6919 -0.2448  0.6080
  217ccc     O2 5615   9.922  11.198   2.262  0.2570  0.1195  0.2870
  217ccc     O3 5616   9.864  10.999   2.295  0.2124  0.3400  0.0536
  217ccc    H13 5617   9.441  11.237   1.987  0.2563  1.4627 -0.4859
  217ccc    H14 5618   9.530  11.382   2.027  0.5103 -0.5473  0.2240
  217ccc     C9 5619   9.319  11.377   2.059  0.0163  0.4071  0.1248
  217ccc    H15 5620   9.303  11.471   2.114 -1.6196 -0.1447  0.6437
  217ccc    H16 5621   9.242  11.302   2.079 -1.5198  1.0903 -2.7857
  217ccc    C10 5622   9.295  11.413   1.913 -0.3891  0.7938 -0.4267
  217ccc     O4 5623   9.320  11.525   1.872  0.6725  0.2547 -0.3111
  217ccc     O5 5624   9.270  11.326   1.832 -0.1546  0.7042  0.3327
  218ccc     N1 5625   7.929  11.756   2.935  0.4171 -0.0681 -0.5078
  218ccc     H4 5626   7.904  11.659   2.954  0.0262 -0.0126 -0.7129
  218ccc     C3 5627   8.051  11.791   2.859 -0.0447  0.2307  0.5030
  218ccc     H5 5628   8.027  11.786   2.752  0.7686  4.3820 -0.0313
  218ccc     C4 5629   8.170  11.697   2.889  0.2285 -0.0885  0.6505
  218ccc     H6 5630   8.081  11.893   2.883 -0.4191  0.1018  1.5630
  218ccc     H7 5631   8.127  11.600   2.915  2.1493 -1.3973 -0.7773
  218ccc     H8 5632   8.210  11.723   2.988  0.6498  0.7233  0.2785
  218ccc     N2 5633   8.277  11.698   2.789 -0.0441  0.1858 -0.2670
  218ccc     C5 5634   8.336  11.831   2.773  0.0439 -1.5305 -0.8158
  218ccc     C6 5635   8.257  11.616   2.672 -0.8411  0.4465  0.0096
  218ccc     H9 5636   8.178  11.659   2.609 -2.4670  0.1691  1.7480
  218ccc     C7 5637   8.215  11.472   2.709  0.1741 -0.4022 -0.2372
  218ccc    H10 5638   8.349  11.616   2.613 -1.3257  0.0047 -0.7562
  218ccc    H11 5639   8.109  11.464   2.735 -0.7276  1.4949 -2.8731
  218ccc    H12 5640   8.268  11.433   2.797  0.5042 -1.3477 -0.8347
  218ccc     C8 5641   8.254  11.373   2.598 -0.2426  0.4536 -0.4331
  218ccc     O2 5642   8.358  11.369   2.539 -0.6946  0.1797 -0.2581
  218ccc     O3 5643   8.175  11.282   2.572 -0.1580 -0.3982 -0.2022
  218ccc    H13 5644   8.266  11.901   2.726  2.0886  0.8964 -0.4600
  218ccc    H14 5645   8.423  11.819   2.707 -0.7301  0.4368 -2.2963
  218ccc     C9 5646   8.394  11.884   2.906 -0.2695 -0.3230  0.4488
  218ccc    H15 5647   8.466  11.816   2.953  0.0044  1.0430  2.0616
  218ccc    H16 5648   8.327  11.924   2.983 -0.6451  2.4873 -1.2036
  218ccc    C10 5649   8.463  12.017   2.858  0.0459  0.2172 -1.2178
  218ccc     O4 5650   8.569  12.021   2.804  0.0201 -0.5963  0.7643
  218ccc     O5 5651   8.402  12.124   2.870 -0.3343  0.4733  0.1312
  219ccc     N1 5652   7.753  11.318   3.226  0.1287  0.2589  0.1749
  219ccc     H4 5653   7.813  11.375   3.168  1.4171 -1.3787 -0.2080
  219ccc     C3 5654   7.814  11.188   3.266  0.8185  0.0158 -0.6986
  219ccc     H5 5655   7.914  11.204   3.308  0.4370  0.9483 -0.1350
  219ccc     C4 5656   7.837  11.105   3.132 -0.1194 -0.3184 -0.0032
  219ccc     H6 5657   7.752  11.119   3.324  1.3837 -1.5631 -1.8854
  219ccc     H7 5658   7.737  11.087   3.089  0.1866 -0.7946 -0.5264
  219ccc     H8 5659   7.872  11.004   3.157 -1.7962 -1.2342 -1.1165
  219ccc     N2 5660   7.920  11.172   3.036  0.3111 -0.0473 -0.1764
  219ccc     C5 5661   8.060  11.156   3.079 -0.2141  0.1636  0.0713
  219ccc     C6 5662   7.884  11.146   2.896  0.0292  0.3267  0.0902
  219ccc     H9 5663   7.776  11.160   2.884 -0.2456 -1.5387  0.2292
  219ccc     C7 5664   7.907  11.002   2.848 -0.7666 -0.1508 -0.1830
  219ccc    H10 5665   7.931  11.224   2.834 -0.4213  0.0662 -0.5859
  219ccc    H11 5666   7.854  10.932   2.913  0.1225  0.1545  0.9106
  219ccc    H12 5667   8.013  10.975   2.860 -0.7704  0.2467  0.9061
  219ccc     C8 5668   7.860  10.979   2.706  0.4722  0.5424 -0.0541
  219ccc     O2 5669   7.757  10.907   2.688 -0.7969 -0.1745 -0.6250
  219ccc     O3 5670   7.939  10.981   2.614  0.7128 -0.1861  0.0798
  219ccc    H13 5671   8.093  11.051   3.076 -0.2687  0.0961  1.2003
  219ccc    H14 5672   8.070  11.202   3.178 -2.6167  3.0973 -0.8893
  219ccc     C9 5673   8.161  11.240   3.009 -0.7365  0.1752 -0.5106
  219ccc    H15 5674   8.152  11.345   3.038 -0.4973 -0.1945  1.0097
  219ccc    H16 5675   8.153  11.232   2.900 -0.5145 -0.0190 -0.5141
  219ccc    C10 5676   8.299  11.217   3.066  0.5186 -0.3774  0.0816
  219ccc     O4 5677   8.322  11.216   3.187 -0.1656 -0.0670 -0.5341
  219ccc     O5 5678   8.396  11.229   2.993  0.1517 -0.2784 -0.3171
  220ccc     N1 5679   7.197  11.878   1.744  0.3640  0.0210  0.9192
  220ccc     H4 5680   7.290  11.844   1.768  1.4754  0.6307 -2.0906
  220ccc     C3 5681   7.133  11.833   1.620  0.8583 -0.1767  0.6369
  220ccc     H5 5682   7.050  11.771   1.656  1.7358 -1.3238  0.7628
  220ccc     C4 5683   7.221  11.744   1.520  0.1564  0.2363 -0.2604
  220ccc     H6 5684   7.094  11.916   1.561  0.5625 -0.3267  0.6230
  220ccc     H7 5685   7.171  11.719   1.425 -0.1163  2.1317 -0.6504
  220ccc     H8 5686   7.244  11.645   1.561  1.0701  0.0828 -1.0945
  220ccc     N2 5687   7.351  11.804   1.488  0.4499 -0.4340  0.0265
  220ccc     C5 5688   7.457  11.706   1.460  0.6140 -0.4519  0.5758
  220ccc     C6 5689   7.329  11.904   1.375 -0.3967 -0.3000  0.9110
  220ccc     H9 5690   7.296  11.852   1.284  3.1203  0.5406 -1.0373
  220ccc     C7 5691   7.455  11.982   1.343 -0.8529 -0.6771 -0.5276
  220ccc    H10 5692   7.251  11.978   1.397 -1.2321 -1.1577  0.8970
  220ccc    H11 5693   7.519  11.912   1.288 -0.6471 -1.2642  0.4425
  220ccc    H12 5694   7.507  12.014   1.434  1.0375  2.3973 -2.4854
  220ccc     C8 5695   7.430  12.119   1.278  0.1606  0.2751  0.5344
  220ccc     O2 5696   7.424  12.221   1.343  0.2872  0.1487 -0.2850
  220ccc     O3 5697   7.445  12.134   1.156 -0.4320  0.9945  0.0986
  220ccc    H13 5698   7.545  11.759   1.423 -0.1281 -0.3816 -1.1491
  220ccc    H14 5699   7.430  11.642   1.375 -0.4599  1.2712 -0.4376
  220ccc     C9 5700   7.496  11.615   1.580 -0.3942 -0.1231  0.0110
  220ccc    H15 5701   7.441  11.520   1.584  2.8965 -2.2201 -0.6204
  220ccc    H16 5702   7.482  11.668   1.675 -0.0100 -1.2332  0.7077
  220ccc    C10 5703   7.637  11.566   1.578 -0.4161 -0.1375  0.5422
  220ccc     O4 5704   7.672  11.474   1.509 -0.3163 -0.4914 -0.2603
  220ccc     O5 5705   7.724  11.640   1.622  0.2334 -0.1523  0.2129
  221ccc     N1 5706   7.462  12.487   2.072  0.5068 -0.2432 -0.1140
  221ccc     H4 5707   7.375  12.538   2.082  1.3233  1.3947 -0.9277
  221ccc     C3 5708   7.582  12.557   2.044 -0.6060 -0.1118 -0.0451
  221ccc     H5 5709   7.631  12.571   2.141  2.5401 -1.2985 -1.3379
  221ccc     C4 5710   7.554  12.701   1.991 -0.7036 -0.8977  0.4163
  221ccc     H6 5711   7.636  12.495   1.972 -1.0941  0.9731 -1.3932
  221ccc     H7 5712   7.627  12.772   2.032 -1.6311  1.2275 -1.4244
  221ccc     H8 5713   7.450  12.727   2.014 -0.5666 -1.4245  1.7090
  221ccc     N2 5714   7.578  12.719   1.846  0.3868 -0.3474  0.3509
  221ccc     C5 5715   7.500  12.624   1.754  0.0651 -0.1626  0.6832
  221ccc     C6 5716   7.596  12.858   1.803  0.5050  0.2933 -0.5060
  221ccc     H9 5717   7.667  12.900   1.875  1.8132 -1.3877 -0.7519
  221ccc     C7 5718   7.472  12.943   1.797  0.3501 -0.4250  0.0326
  221ccc    H10 5719   7.640  12.864   1.702  0.9634  3.3526 -0.2284
  221ccc    H11 5720   7.389  12.897   1.742  1.1005 -0.5797 -0.9957
  221ccc    H12 5721   7.498  13.031   1.738 -1.3928 -0.0410 -0.1917
  221ccc     C8 5722   7.420  12.981   1.932 -0.0962  0.4654 -0.0739
  221ccc     O2 5723   7.474  13.060   2.006 -0.3200 -0.2096  0.0099
  221ccc     O3 5724   7.328  12.922   1.987 -0.5438  0.3599  0.0546
  221ccc    H13 5725   7.392  12.619   1.773 -0.3600  0.3683 -1.2882
  221ccc    H14 5726   7.535  12.521   1.769  2.8322  0.2387 -1.9050
  221ccc     C9 5727   7.506  12.651   1.595 -0.1097 -0.3266 -0.9398
  221ccc    H15 5728   7.613  12.634   1.575  0.4127 -3.0070  3.0556
  221ccc    H16 5729   7.463  12.745   1.557 -3.4323 -1.2655  0.1592
  221ccc    C10 5730   7.431  12.539   1.518  0.2691  0.3076  0.2648
  221ccc     O4 5731   7.467  12.420   1.519  0.1514 -0.1214 -0.9574
  221ccc     O5 5732   7.329  12.573   1.453 -0.3860  0.2579 -0.1472
  222ccc     N1 5733   8.817   8.434   4.332  0.2488 -0.3967 -0.4877
  222ccc     H4 5734   8.818   8.412   4.233  1.4629  2.0231 -1.0735
  222ccc     C3 5735   8.796   8.574   4.375  1.0225 -0.3975 -0.5922
  222ccc     H5 5736   8.831   8.592   4.477 -2.1719  0.0493  0.5493
  222ccc     C4 5737   8.644   8.602   4.362 -0.8065 -0.0552  0.7651
  222ccc     H6 5738   8.850   8.644   4.309  3.5581 -1.6715  0.0011
  222ccc     H7 5739   8.595   8.531   4.430 -0.4434 -0.4328  0.6378
  222ccc     H8 5740   8.622   8.573   4.259 -0.7574  1.8963  0.1505
  222ccc     N2 5741   8.598   8.741   4.376  0.0567  0.0786 -0.0004
  222ccc     C5 5742   8.668   8.846   4.304  0.0437 -0.9611 -0.0847
  222ccc     C6 5743   8.451   8.739   4.344 -1.0154 -0.1532 -0.0609
  222ccc     H9 5744   8.428   8.721   4.238  1.0225  0.5511 -0.6767
  222ccc     C7 5745   8.370   8.865   4.385 -0.0267  0.0574  0.3414
  222ccc    H10 5746   8.409   8.656   4.402 -1.4579  1.0712  1.4397
  222ccc    H11 5747   8.421   8.957   4.355  2.9632 -2.2296 -2.2621
  222ccc    H12 5748   8.369   8.863   4.495 -2.5721 -0.6797  0.3732
  222ccc     C8 5749   8.231   8.860   4.324  0.4318  0.1612 -0.5729
  222ccc     O2 5750   8.202   8.917   4.222  0.2046  0.0619  0.1381
  222ccc     O3 5751   8.146   8.778   4.367 -0.2579  0.0409 -0.1414
  222ccc    H13 5752   8.767   8.850   4.351 -0.7677 -2.2910  1.8603
  222ccc    H14 5753   8.628   8.945   4.326  0.2070 -1.0128  0.4483
  222ccc     C9 5754   8.675   8.830   4.147  0.3656  0.1917  0.5577
  222ccc    H15 5755   8.729   8.737   4.126  0.9592 -0.1817  3.3235
  222ccc    H16 5756   8.739   8.910   4.110 -0.1231  0.0813 -0.5549
  222ccc    C10 5757   8.538   8.849   4.080 -0.9665  0.1534 -0.5012
  222ccc     O4 5758   8.475   8.956   4.088  0.5751  0.1742 -0.5750
  222ccc     O5 5759   8.494   8.761   4.005 -0.3720  0.4512  0.6976
  223ccc     N1 5760   9.162   7.708   4.412  0.4187 -0.3802  0.1150
  223ccc     H4 5761   9.189   7.776   4.342 -1.3819  2.8848  2.3056
  223ccc     C3 5762   9.270   7.645   4.491 -0.6655 -0.5964  0.7427
  223ccc     H5 5763   9.360   7.694   4.451 -1.1037  1.2256  1.8620
  223ccc     C4 5764   9.290   7.498   4.466 -0.0442  0.1312 -0.5957
  223ccc     H6 5765   9.264   7.657   4.600  0.8691 -0.7620  0.8623
  223ccc     H7 5766   9.297   7.496   4.357  0.0702  0.0833 -0.5873
  223ccc     H8 5767   9.205   7.442   4.507  0.9373 -0.7070  0.3607
  223ccc     N2 5768   9.411   7.446   4.530 -0.2210  0.4411  0.3402
  223ccc     C5 5769   9.544   7.489   4.471 -0.2516  0.1900 -0.1408
  223ccc     C6 5770   9.405   7.442   4.679  0.9399 -0.1564  0.4359
  223ccc     H9 5771   9.408   7.548   4.709  0.0425 -0.4104  1.4792
  223ccc     C7 5772   9.519   7.377   4.765 -0.0765 -0.0810 -0.2325
  223ccc    H10 5773   9.310   7.399   4.714  1.7387 -1.3309  1.2135
  223ccc    H11 5774   9.615   7.432   4.761  0.6935 -1.2452  1.2333
  223ccc    H12 5775   9.543   7.282   4.717 -0.3325 -0.4176  0.2951
  223ccc     C8 5776   9.476   7.347   4.909 -0.7522 -0.0159 -0.3179
  223ccc     O2 5777   9.402   7.255   4.931  0.1112  0.5437  0.8439
  223ccc     O3 5778   9.504   7.424   4.999 -0.2465 -0.2045 -0.5473
  223ccc    H13 5779   9.633   7.461   4.529 -1.1144  0.5463  1.4029
  223ccc    H14 5780   9.548   7.598   4.468  2.5137  0.2656  1.8913
  223ccc     C9 5781   9.567   7.435   4.329  0.2834  0.2329  0.1721
  223ccc    H15 5782   9.482   7.445   4.262 -0.3230  0.0980  0.9050
  223ccc    H16 5783   9.581   7.326   4.336 -0.8072  0.1532  1.5949
  223ccc    C10 5784   9.691   7.500   4.265 -0.1823 -0.0456  0.4374
  223ccc     O4 5785   9.757   7.445   4.180  0.4538  0.5437  0.0333
  223ccc     O5 5786   9.736   7.604   4.301  0.1062 -0.3217 -0.5688
  224ccc     N1 5787   8.349   8.141   3.925  0.3557 -0.0956 -0.4103
  224ccc     H4 5788   8.296   8.141   3.839 -0.6868  0.7655  0.2127
  224ccc     C3 5789   8.276   8.155   4.050 -1.1339 -0.8352 -0.5969
  224ccc     H5 5790   8.308   8.075   4.117  1.2608 -0.0700 -0.7501
  224ccc     C4 5791   8.131   8.125   4.021 -0.6437 -0.4166 -0.1275
  224ccc     H6 5792   8.293   8.250   4.102  0.1534 -0.5867 -1.4305
  224ccc     H7 5793   8.075   8.123   4.115  0.9736 -2.3482  0.8654
  224ccc     H8 5794   8.130   8.026   3.974 -1.5317 -0.4952  0.0424
  224ccc     N2 5795   8.079   8.226   3.919  0.4463  0.6031  0.1282
  224ccc     C5 5796   8.094   8.368   3.955 -0.3747 -0.2435  0.4711
  224ccc     C6 5797   7.944   8.190   3.882 -0.3806 -0.3070  0.3089
  224ccc     H9 5798   7.941   8.082   3.860 -1.6907 -0.3745  0.7188
  224ccc     C7 5799   7.890   8.265   3.757 -0.3623  0.2380 -0.6935
  224ccc    H10 5800   7.866   8.199   3.959 -0.9896 -1.3804 -0.1423
  224ccc    H11 5801   7.969   8.268   3.680  1.7367  1.2314  1.3684
  224ccc    H12 5802   7.877   8.370   3.786  0.1282  0.3059 -0.7132
  224ccc     C8 5803   7.772   8.198   3.686  0.3445  0.2144 -0.6822
  224ccc     O2 5804   7.762   8.075   3.696 -0.4505  0.1957 -0.0925
  224ccc     O3 5805   7.674   8.249   3.628 -0.5559 -0.2310  0.0910
  224ccc    H13 5806   8.044   8.438   3.886  0.1320 -0.6781 -0.3526
  224ccc    H14 5807   8.200   8.395   3.941 -0.0706 -0.5824  1.9698
  224ccc     C9 5808   8.041   8.409   4.089  0.9386 -0.0202  0.8039
  224ccc    H15 5809   8.093   8.349   4.165  0.7947  0.0924  0.9912
  224ccc    H16 5810   7.934   8.388   4.087  0.6501  1.1241  2.3125
  224ccc    C10 5811   8.073   8.554   4.130  0.2871 -0.2918  0.4333
  224ccc     O4 5812   7.993   8.610   4.200  0.7022  0.6281 -0.4268
  224ccc     O5 5813   8.143   8.630   4.074  0.1392  0.2269  0.6715
  225ccc     N1 5814   8.445   8.364   3.261 -0.0579 -0.1374 -0.3717
  225ccc     H4 5815   8.410   8.281   3.307 -0.0872  0.7906  1.3993
  225ccc     C3 5816   8.360   8.442   3.166 -0.3600 -0.2829  0.1791
  225ccc     H5 5817   8.392   8.546   3.152 -0.7933 -0.1774 -0.0585
  225ccc     C4 5818   8.209   8.438   3.212  0.0811 -0.1284  0.0174
  225ccc     H6 5819   8.361   8.404   3.063 -0.1327 -1.7534  0.6938
  225ccc     H7 5820   8.174   8.342   3.172  0.7346 -0.7075  0.8072
  225ccc     H8 5821   8.153   8.522   3.171  0.8338  1.3233  1.8074
  225ccc     N2 5822   8.176   8.419   3.358  0.5636  0.1697 -0.7431
  225ccc     C5 5823   8.031   8.413   3.380 -0.2498 -0.0232  0.3278
  225ccc     C6 5824   8.241   8.530   3.441 -0.1266  0.1091 -0.5303
  225ccc     H9 5825   8.347   8.548   3.418 -0.1212 -0.1798 -0.7402
  225ccc     C7 5826   8.248   8.506   3.596 -0.1956  0.3715  0.0115
  225ccc    H10 5827   8.193   8.627   3.432 -0.1464 -0.0192 -2.0419
  225ccc    H11 5828   8.294   8.407   3.601 -1.8234 -0.4618 -0.7534
  225ccc    H12 5829   8.148   8.514   3.639 -2.2071  0.7886 -4.2544
  225ccc     C8 5830   8.343   8.609   3.664  0.4930  0.8810  0.4333
  225ccc     O2 5831   8.399   8.695   3.601 -0.7991  0.1412  0.0889
  225ccc     O3 5832   8.369   8.598   3.781  0.5141 -0.0806  0.0046
  225ccc    H13 5833   7.987   8.511   3.359  0.8433  0.2937 -0.6119
  225ccc    H14 5834   8.016   8.382   3.484 -0.6806  1.1979  0.6481
  225ccc     C9 5835   7.951   8.301   3.297 -0.1590 -0.5995  0.1537
  225ccc    H15 5836   7.988   8.202   3.326 -2.6359 -1.4496  0.6311
  225ccc    H16 5837   7.962   8.313   3.189  0.0758 -2.5483 -0.0614
  225ccc    C10 5838   7.799   8.299   3.326 -0.1427 -0.0028 -0.0276
  225ccc     O4 5839   7.723   8.388   3.367  0.4150 -0.3723  0.2049
  225ccc     O5 5840   7.742   8.191   3.296  0.1159 -0.3707  0.1194
  226ccc     N1 5841   7.141   7.375   2.069  0.4131  0.4842 -0.2496
  226ccc     H4 5842   7.184   7.453   2.021 -1.8637  2.9495  1.4176
  226ccc     C3 5843   7.021   7.417   2.146  0.6417  0.4475  0.2688
  226ccc     H5 5844   6.964   7.326   2.168 -1.6508  1.2653 -1.7130
  226ccc     C4 5845   6.929   7.509   2.062  0.5217  0.0439  0.5609
  226ccc     H6 5846   7.041   7.474   2.237 -1.1478  0.7784  0.4867
  226ccc     H7 5847   6.869   7.441   2.000  2.5634  0.0058 -1.5271
  226ccc     H8 5848   6.981   7.572   1.990  0.9643 -1.2184 -0.2559
  226ccc     N2 5849   6.845   7.600   2.155  0.1339 -0.0533  0.4863
  226ccc     C5 5850   6.930   7.709   2.209  0.5654  0.1271  0.2428
  226ccc     C6 5851   6.764   7.527   2.251 -0.1872  0.9304  0.2076
  226ccc     H9 5852   6.814   7.448   2.309  3.4815  3.3297  0.6940
  226ccc     C7 5853   6.630   7.473   2.185  0.3898  0.4353  0.1546
  226ccc    H10 5854   6.722   7.598   2.324  1.0959  2.3170 -0.3512
  226ccc    H11 5855   6.578   7.407   2.255  0.1889  0.4290 -0.0010
  226ccc    H12 5856   6.632   7.417   2.091 -4.1846  1.4755 -0.8099
  226ccc     C8 5857   6.537   7.592   2.152 -0.7422  0.1644  0.5638
  226ccc     O2 5858   6.544   7.653   2.043 -0.6019 -0.5031 -0.0249
  226ccc     O3 5859   6.461   7.635   2.232 -0.3492 -0.3943 -0.7466
  226ccc    H13 5860   6.976   7.754   2.120 -2.3268  1.8182 -0.5030
  226ccc    H14 5861   7.014   7.666   2.265  0.8442 -1.1623 -1.0749
  226ccc     C9 5862   6.859   7.821   2.295  0.1405 -0.0779 -0.9710
  226ccc    H15 5863   6.924   7.909   2.296 -0.0300  0.0452 -0.6350
  226ccc    H16 5864   6.845   7.796   2.401 -0.6217  1.2415 -0.7515
  226ccc    C10 5865   6.721   7.866   2.244 -0.1789  0.4257  0.2126
  226ccc     O4 5866   6.698   7.883   2.125 -0.0592 -0.0659 -0.0707
  226ccc     O5 5867   6.625   7.847   2.314 -1.0253  0.0305  0.3017
  227ccc     N1 5868   7.557   7.631   1.560  0.4036 -0.0108 -0.1092
  227ccc     H4 5869   7.476   7.657   1.615  1.5863 -0.6377  2.0455
  227ccc     C3 5870   7.559   7.683   1.422 -0.0087 -0.5438  0.4410
  227ccc     H5 5871   7.620   7.774   1.421 -0.0873 -0.4916  0.5322
  227ccc     C4 5872   7.427   7.728   1.353  0.2912  0.4613  0.7960
  227ccc     H6 5873   7.605   7.605   1.358  2.5688  0.7878  0.5307
  227ccc     H7 5874   7.370   7.636   1.338 -0.3804  0.5668  2.4578
  227ccc     H8 5875   7.458   7.767   1.255  1.5975 -0.2367  0.9135
  227ccc     N2 5876   7.343   7.824   1.421  0.0862  0.7311  0.5412
  227ccc     C5 5877   7.215   7.854   1.344  0.4469  0.0182 -0.1168
  227ccc     C6 5878   7.426   7.949   1.438  0.0721 -0.1316 -0.4187
  227ccc     H9 5879   7.372   8.026   1.494  1.3230  1.6648 -1.5692
  227ccc     C7 5880   7.490   8.019   1.311 -0.0436 -0.1712 -0.0073
  227ccc    H10 5881   7.509   7.926   1.506 -0.0848  1.0016  0.1846
  227ccc    H11 5882   7.407   8.061   1.252  0.1910 -0.8640 -0.8285
  227ccc    H12 5883   7.541   7.951   1.242 -0.0281 -0.3622  0.1918
  227ccc     C8 5884   7.582   8.125   1.363  0.2816  0.6492  0.0171
  227ccc     O2 5885   7.699   8.097   1.387 -0.0545 -0.3522 -0.0492
  227ccc     O3 5886   7.540   8.237   1.389 -0.7002  0.0589 -0.1267
  227ccc    H13 5887   7.222   7.861   1.234 -2.2427 -1.2060 -0.4360
  227ccc    H14 5888   7.166   7.948   1.372  2.6412  1.3334 -0.3838
  227ccc     C9 5889   7.114   7.743   1.350 -0.1174 -0.3601  0.0901
  227ccc    H15 5890   7.085   7.724   1.454  0.1229 -1.8464 -0.0845
  227ccc    H16 5891   7.164   7.653   1.311 -0.2466 -0.6973  0.6826
  227ccc    C10 5892   6.988   7.780   1.267  0.3054  0.6659  0.1352
  227ccc     O4 5893   6.882   7.804   1.320  0.1720 -0.1244 -0.0931
  227ccc     O5 5894   7.000   7.782   1.147 -0.9289 -0.6716 -0.2279
  228ccc     N1 5895   7.562   7.219   3.426  0.1715  0.6243  0.0900
  228ccc     H4 5896   7.510   7.273   3.358 -0.3519 -1.5637 -1.3602
  228ccc     C3 5897   7.577   7.274   3.561  0.3445  0.1908 -0.3483
  228ccc     H5 5898   7.528   7.205   3.631  0.4201 -0.9610 -1.4134
  228ccc     C4 5899   7.523   7.414   3.596 -0.9056 -0.2773 -0.0303
  228ccc     H6 5900   7.684   7.269   3.585  0.4852  2.2035 -0.3523
  228ccc     H7 5901   7.540   7.436   3.702  0.8054  1.0405 -0.5224
  228ccc     H8 5902   7.414   7.413   3.587 -0.7735 -2.6349 -2.7788
  228ccc     N2 5903   7.580   7.526   3.512  0.1069 -0.1941  0.4340
  228ccc     C5 5904   7.727   7.537   3.494 -0.1824  0.8530  0.3660
  228ccc     C6 5905   7.511   7.649   3.524 -0.0860  0.0053 -0.4007
  228ccc     H9 5906   7.406   7.622   3.543 -0.2528 -0.2249 -1.5932
  228ccc     C7 5907   7.518   7.742   3.402 -0.3544 -0.6622  0.1535
  228ccc    H10 5908   7.543   7.696   3.618  0.3533  0.3509 -0.7200
  228ccc    H11 5909   7.435   7.812   3.415  0.7579  0.4425  1.8333
  228ccc    H12 5910   7.495   7.686   3.311  0.5925 -1.1025  0.1661
  228ccc     C8 5911   7.646   7.826   3.381 -0.7069 -0.2253 -0.6256
  228ccc     O2 5912   7.676   7.904   3.469 -0.4185 -0.4742  0.1133
  228ccc     O3 5913   7.692   7.842   3.269 -0.3956  0.3641  0.2863
  228ccc    H13 5914   7.752   7.626   3.434  1.1942 -0.1253 -0.5579
  228ccc    H14 5915   7.769   7.451   3.441 -0.0007  0.1120  1.6728
  228ccc     C9 5916   7.818   7.531   3.625  0.9304  0.6368  0.0653
  228ccc    H15 5917   7.921   7.556   3.598  0.5742  1.7461 -0.3377
  228ccc    H16 5918   7.821   7.430   3.668 -0.3350  0.3867 -0.3959
  228ccc    C10 5919   7.776   7.627   3.739 -0.0259 -0.1886  0.3695
  228ccc     O4 5920   7.760   7.585   3.851 -0.2918 -0.4490 -0.5441
  228ccc     O5 5921   7.758   7.751   3.728  0.3011  0.0023  0.7352
  229ccc     N1 5922   8.107   7.474   3.091  0.3318  0.3091  0.1252
  229ccc     H4 5923   8.121   7.408   3.167  0.2113 -0.5793 -0.6125
  229ccc     C3 5924   8.173   7.601   3.100 -0.2198  0.4418  0.0809
  229ccc     H5 5925   8.228   7.631   3.010  1.2597  0.7101  1.0473
  229ccc     C4 5926   8.280   7.594   3.210 -0.8573 -0.2144 -1.3166
  229ccc     H6 5927   8.097   7.671   3.134 -0.3631  0.2260  0.2114
  229ccc     H7 5928   8.335   7.689   3.210  1.0440 -1.2779 -2.2194
  229ccc     H8 5929   8.357   7.528   3.169  0.0316  1.5228 -2.5688
  229ccc     N2 5930   8.231   7.571   3.346  0.8208  0.6392  0.1197
  229ccc     C5 5931   8.116   7.662   3.389  0.0853 -0.3197 -0.5071
  229ccc     C6 5932   8.324   7.549   3.455  0.1584  0.2824 -0.0571
  229ccc     H9 5933   8.358   7.644   3.500 -1.6322  1.1247 -0.3795
  229ccc     C7 5934   8.452   7.469   3.412 -0.1452  0.7216  0.2110
  229ccc    H10 5935   8.269   7.497   3.534  1.2212  0.0731  0.5666
  229ccc    H11 5936   8.517   7.524   3.342 -0.2850  1.4073  0.6187
  229ccc    H12 5937   8.432   7.368   3.373 -0.5532  0.2184  1.6543
  229ccc     C8 5938   8.543   7.427   3.528  0.9642  0.2475  0.5212
  229ccc     O2 5939   8.502   7.444   3.645 -0.3350  0.6228  0.1758
  229ccc     O3 5940   8.642   7.353   3.509  0.3496 -0.5290 -0.2316
  229ccc    H13 5941   8.094   7.641   3.495 -1.2367  1.2961 -0.4263
  229ccc    H14 5942   8.020   7.660   3.336  0.2776 -1.0169 -0.8396
  229ccc     C9 5943   8.150   7.812   3.398  0.1022 -0.6795  0.0688
  229ccc    H15 5944   8.153   7.864   3.302 -3.0981 -0.1187  0.1680
  229ccc    H16 5945   8.249   7.831   3.443  0.5371 -0.3109 -1.0177
  229ccc    C10 5946   8.046   7.881   3.478 -0.1604  0.1056 -0.0014
  229ccc     O4 5947   7.950   7.928   3.429 -0.0155  0.0856  0.5673
  229ccc     O5 5948   8.033   7.858   3.597 -0.2172  0.2049  0.0635
  230ccc     N1 5949   9.395  10.162   2.557 -0.5137  0.2414 -0.7550
  230ccc     H4 5950   9.338  10.190   2.478 -1.2971 -1.2449 -0.7340
  230ccc     C3 5951   9.458  10.264   2.647  0.0942  0.2839  0.3799
  230ccc     H5 5952   9.405  10.359   2.632  2.1963  1.3553 -0.6024
  230ccc     C4 5953   9.604  10.285   2.619  0.8006  0.4491  0.0065
  230ccc     H6 5954   9.449  10.229   2.751  1.7596  0.3862  0.5881
  230ccc     H7 5955   9.629  10.293   2.512  0.8733 -1.6633 -0.1709
  230ccc     H8 5956   9.645  10.191   2.658 -0.5129  0.2173  0.8995
  230ccc     N2 5957   9.655  10.410   2.684  0.3999  0.0985 -0.0058
  230ccc     C5 5958   9.621  10.422   2.833  0.4299 -0.6673 -0.5139
  230ccc     C6 5959   9.634  10.529   2.602  0.6733  0.2822 -0.4321
  230ccc     H9 5960   9.543  10.517   2.541  1.4384  0.7637 -1.7050
  230ccc     C7 5961   9.753  10.541   2.504  0.4341 -0.0175 -0.2215
  230ccc    H10 5962   9.630  10.622   2.659  0.7207  1.3809 -2.1293
  230ccc    H11 5963   9.751  10.453   2.439 -2.0134 -0.0584 -0.1802
  230ccc    H12 5964   9.850  10.551   2.555  0.5930  0.4599 -0.6188
  230ccc     C8 5965   9.728  10.667   2.423  0.6438 -0.5165  0.7145
  230ccc     O2 5966   9.777  10.773   2.457  0.2935  0.0378  0.5068
  230ccc     O3 5967   9.661  10.671   2.320 -0.2429 -0.5275 -0.3937
  230ccc    H13 5968   9.521  10.448   2.870  0.6865 -1.5456  0.8784
  230ccc    H14 5969   9.679  10.509   2.866  0.1035  0.1916 -2.1337
  230ccc     C9 5970   9.662  10.293   2.910 -0.0693 -0.4563  0.2719
  230ccc    H15 5971   9.753  10.249   2.867  0.6985 -0.6162  1.9400
  230ccc    H16 5972   9.579  10.221   2.905 -0.9240  0.5488 -0.3603
  230ccc    C10 5973   9.685  10.330   3.055  0.4903  0.1611 -0.0001
  230ccc     O4 5974   9.600  10.300   3.135  0.5162 -0.2116 -0.0069
  230ccc     O5 5975   9.785  10.390   3.092  0.1477 -0.1680 -0.3294
  231ccc     N1 5976   9.349   9.945   1.872 -0.6849 -0.2031 -0.0725
  231ccc     H4 5977   9.354  10.042   1.901 -0.6107 -0.4522  0.7684
  231ccc     C3 5978   9.391   9.893   1.735 -0.1177 -0.3585 -0.1249
  231ccc     H5 5979   9.409   9.786   1.751 -0.8792 -0.2459  1.8356
  231ccc     C4 5980   9.515   9.961   1.668 -0.1198  0.5204 -1.0094
  231ccc     H6 5981   9.301   9.911   1.674 -0.5673  1.2686  0.9424
  231ccc     H7 5982   9.541   9.907   1.576  1.2709 -0.2420 -0.1957
  231ccc     H8 5983   9.599   9.956   1.738  1.2422 -0.7079 -2.6521
  231ccc     N2 5984   9.494  10.098   1.633  0.3152 -0.9511  0.1638
  231ccc     C5 5985   9.437  10.100   1.495  0.1735 -0.8666 -0.3646
  231ccc     C6 5986   9.610  10.192   1.644 -0.0085  0.3007  0.7808
  231ccc     H9 5987   9.692  10.142   1.591 -0.0538 -0.5122  1.4604
  231ccc     C7 5988   9.657  10.220   1.788  0.5264  0.3208 -0.6504
  231ccc    H10 5989   9.584  10.278   1.581 -0.4716 -1.9727 -2.3756
  231ccc    H11 5990   9.733  10.146   1.815  0.0288 -0.5317 -1.5256
  231ccc    H12 5991   9.579  10.217   1.864  1.6284  1.7156  0.5913
  231ccc     C8 5992   9.724  10.351   1.807 -0.0738  0.3974 -0.2789
  231ccc     O2 5993   9.683  10.455   1.755 -0.2377 -0.2731  0.6877
  231ccc     O3 5994   9.817  10.358   1.883 -0.2588 -0.0265  0.4029
  231ccc    H13 5995   9.398  10.001   1.467 -1.1364 -0.0960 -1.3915
  231ccc    H14 5996   9.512  10.118   1.417  0.4159  3.2060  0.5919
  231ccc     C9 5997   9.319  10.194   1.487 -0.7585 -0.1249  0.3216
  231ccc    H15 5998   9.346  10.296   1.518 -1.1182  0.1246 -0.1629
  231ccc    H16 5999   9.249  10.145   1.555  0.4001  1.1727  2.5618
  231ccc    C10 6000   9.274  10.202   1.345  0.6039 -0.6145 -0.3236
  231ccc     O4 6001   9.349  10.257   1.260 -0.3087  0.2726  0.1668
  231ccc     O5 6002   9.163  10.166   1.310 -0.1785 -0.5489 -1.2132
  232ccc     N1 6003   8.470   9.661   3.487  0.2345 -0.4262 -0.0246
  232ccc     H4 6004   8.568   9.666   3.513 -0.0701  0.6133  0.9697
  232ccc     C3 6005   8.374   9.655   3.600 -0.0126 -0.1971  0.9107
  232ccc     H5 6006   8.405   9.730   3.674 -3.4692 -0.5397  2.9354
  232ccc     C4 6007   8.382   9.514   3.670  0.4446 -0.5835  0.1200
  232ccc     H6 6008   8.275   9.683   3.561  0.6140  0.4270 -0.2780
  232ccc     H7 6009   8.406   9.432   3.601  0.1871 -1.2215  0.7703
  232ccc     H8 6010   8.280   9.500   3.709 -0.4911  1.7647 -1.2550
  232ccc     N2 6011   8.479   9.509   3.780  0.1585 -0.5217  0.2533
  232ccc     C5 6012   8.470   9.394   3.873  0.3614  0.4458  0.3841
  232ccc     C6 6013   8.618   9.551   3.737  0.2420 -0.3475  0.8481
  232ccc     H9 6014   8.608   9.653   3.699  1.0470 -0.6083 -0.1081
  232ccc     C7 6015   8.684   9.451   3.630  0.5581 -0.1648  0.1224
  232ccc    H10 6016   8.683   9.554   3.826 -0.1399 -0.3788  1.1329
  232ccc    H11 6017   8.634   9.444   3.533 -0.7490 -1.0040  0.8216
  232ccc    H12 6018   8.695   9.346   3.661 -0.1205 -0.0736  0.7108
  232ccc     C8 6019   8.828   9.493   3.604  0.8200 -0.0315 -0.1342
  232ccc     O2 6020   8.861   9.566   3.510 -0.2387  0.3500 -0.0955
  232ccc     O3 6021   8.917   9.439   3.669  0.1909 -0.0435  0.2000
  232ccc    H13 6022   8.550   9.404   3.947  2.2209  0.1970 -1.4860
  232ccc    H14 6023   8.497   9.305   3.815  2.3951  0.4777  1.1856
  232ccc     C9 6024   8.337   9.374   3.944 -0.4513  0.4585  0.1860
  232ccc    H15 6025   8.255   9.409   3.881 -0.0834 -0.2900 -0.7266
  232ccc    H16 6026   8.340   9.434   4.036 -1.2272  1.5587 -0.4961
  232ccc    C10 6027   8.297   9.238   3.995 -0.4512  0.3128 -0.0976
  232ccc     O4 6028   8.280   9.216   4.116 -0.0910 -0.0480  0.5734
  232ccc     O5 6029   8.297   9.142   3.919 -0.6666 -0.1823  0.1116
  233ccc     N1 6030   8.917  10.067   3.188 -0.5121 -0.1909  0.1532
  233ccc     H4 6031   8.989   9.998   3.170 -0.5119  0.0829 -0.9270
  233ccc     C3 6032   8.948  10.181   3.279 -0.3036  0.3471 -1.3060
  233ccc     H5 6033   8.912  10.274   3.232 -1.3421  0.1451 -0.9484
  233ccc     C4 6034   9.098  10.185   3.305  0.0219  0.0544  0.0758
  233ccc     H6 6035   8.896  10.164   3.374 -1.4245  0.9755 -1.7820
  233ccc     H7 6036   9.116  10.292   3.287 -0.7935  0.1419 -0.2352
  233ccc     H8 6037   9.156  10.132   3.227 -0.3977  0.2208 -0.3539
  233ccc     N2 6038   9.129  10.134   3.439  0.0549  0.3795 -0.5569
  233ccc     C5 6039   9.252  10.195   3.483  0.0045 -0.1119 -0.6704
  233ccc     C6 6040   9.134   9.991   3.433  0.1803 -0.4435  0.1539
  233ccc     H9 6041   9.040   9.956   3.389  0.3391  0.0472 -0.6027
  233ccc     C7 6042   9.148   9.923   3.573  0.2680 -0.3091 -0.5570
  233ccc    H10 6043   9.218   9.965   3.368  0.0692  1.8728 -1.0169
  233ccc    H11 6044   9.075   9.967   3.642  0.4625 -1.8665  0.7032
  233ccc    H12 6045   9.246   9.925   3.623  0.4229 -1.6156 -0.7512
  233ccc     C8 6046   9.123   9.775   3.566 -0.4888  0.5812 -0.1714
  233ccc     O2 6047   9.097   9.706   3.664  0.1213 -0.2881 -0.1564
  233ccc     O3 6048   9.143   9.714   3.461  0.4622  0.0949 -0.2803
  233ccc    H13 6049   9.330  10.184   3.406 -0.6322 -3.7569 -0.9409
  233ccc    H14 6050   9.303  10.142   3.565  2.3593  2.1163 -0.5477
  233ccc     C9 6051   9.250  10.353   3.511  0.0950  0.1135 -0.6074
  233ccc    H15 6052   9.184  10.358   3.598 -1.4318 -0.5812 -1.6873
  233ccc    H16 6053   9.198  10.402   3.428 -0.8712 -0.3323 -0.2734
  233ccc    C10 6054   9.395  10.405   3.540  0.1023  0.0484 -0.1232
  233ccc     O4 6055   9.421  10.448   3.653 -0.1997 -0.5485  0.2041
  233ccc     O5 6056   9.494  10.373   3.468  0.0012 -0.2357  0.1581
  234ccc     N1 6057   9.632   8.242   3.967 -0.1101  0.7064  0.8221
  234ccc     H4 6058   9.600   8.152   4.001 -2.4524  1.0077 -0.3658
  234ccc     C3 6059   9.728   8.242   3.853  0.0885 -0.0439  0.4980
  234ccc     H5 6060   9.720   8.155   3.787  0.2268 -0.0227  0.4539
  234ccc     C4 6061   9.873   8.238   3.896 -1.0138 -0.3237 -0.1207
  234ccc     H6 6062   9.702   8.337   3.804  3.8259  2.7348  3.2717
  234ccc     H7 6063   9.889   8.298   3.987 -1.1853  0.6117 -0.7018
  234ccc     H8 6064   9.930   8.290   3.818 -3.6442 -2.4024 -3.7183
  234ccc     N2 6065   9.944   8.106   3.893 -0.2959 -0.0534 -0.0255
  234ccc     C5 6066  10.095   8.126   3.900  0.4674  0.5656 -0.0371
  234ccc     C6 6067   9.885   8.009   3.983 -0.0381 -0.2587  0.0024
  234ccc     H9 6068   9.776   8.000   3.969 -0.2105  1.2580  0.1692
  234ccc     C7 6069   9.897   8.054   4.135 -0.4199 -0.4020 -0.2415
  234ccc    H10 6070   9.928   7.908   3.980  0.2159 -0.1305 -1.9556
  234ccc    H11 6071   9.853   8.153   4.151  0.3296 -0.3545  1.8268
  234ccc    H12 6072  10.000   8.056   4.174 -0.4673  0.1925 -0.1337
  234ccc     C8 6073   9.812   7.957   4.214  0.0882  0.1508  0.4431
  234ccc     O2 6074   9.721   8.000   4.280 -0.8698  0.2728  0.4125
  234ccc     O3 6075   9.808   7.834   4.194 -0.3065 -0.0077 -0.3818
  234ccc    H13 6076  10.118   8.174   3.996  0.0804  0.1755  0.2503
  234ccc    H14 6077  10.124   8.191   3.816  0.3511  0.7137  0.0364
  234ccc     C9 6078  10.180   7.998   3.898  0.5481 -0.7383  0.2878
  234ccc    H15 6079  10.173   7.947   3.801  2.9581  0.9334 -0.8552
  234ccc    H16 6080  10.147   7.932   3.979  0.0269 -2.0213 -0.9300
  234ccc    C10 6081  10.324   8.032   3.926 -0.3628  0.2373 -0.1474
  234ccc     O4 6082  10.360   8.069   4.039 -0.3814 -0.0893  0.2985
  234ccc     O5 6083  10.406   8.044   3.835 -0.1624 -0.4122  0.3427
  235ccc     N1 6084   9.117   7.826   3.981 -0.5007  0.0509  0.0819
  235ccc     H4 6085   9.081   7.870   3.897 -1.5183  0.6610  0.8118
  235ccc     C3 6086   9.120   7.681   3.990 -0.1424  0.0666 -0.8260
  235ccc     H5 6087   9.135   7.640   4.091 -0.4528 -0.4202 -0.9754
  235ccc     C4 6088   9.242   7.619   3.910  0.5905  1.2043  0.6187
  235ccc     H6 6089   9.027   7.635   3.956  0.3808 -1.3273 -0.4280
  235ccc     H7 6090   9.335   7.640   3.964  2.1219  0.1216 -1.4804
  235ccc     H8 6091   9.259   7.672   3.816  3.1266  1.1827  0.9934
  235ccc     N2 6092   9.231   7.471   3.896 -0.3901  0.5611  0.3024
  235ccc     C5 6093   9.363   7.413   3.900  0.5930  0.9834 -0.0347
  235ccc     C6 6094   9.127   7.401   3.822 -0.3909  0.7427  0.1728
  235ccc     H9 6095   9.173   7.307   3.789 -3.7039 -0.8621 -0.2273
  235ccc     C7 6096   9.077   7.480   3.693  0.1196 -0.2597 -0.2781
  235ccc    H10 6097   9.040   7.375   3.884 -0.2927  2.1512  0.9470
  235ccc    H11 6098   9.163   7.522   3.640  0.0330 -0.3332 -0.4748
  235ccc    H12 6099   9.010   7.563   3.719 -1.9495 -1.5221 -1.3477
  235ccc     C8 6100   8.990   7.405   3.593 -0.3025 -0.3899 -0.0463
  235ccc     O2 6101   8.903   7.335   3.632  0.2227 -0.2267 -0.0657
  235ccc     O3 6102   8.998   7.434   3.473 -0.3123 -0.5185  0.3814
  235ccc    H13 6103   9.353   7.304   3.901 -0.6542  1.0765  1.0210
  235ccc    H14 6104   9.401   7.433   4.002  0.5898 -1.8039  0.6042
  235ccc     C9 6105   9.457   7.451   3.779  0.0957 -0.2492  0.4117
  235ccc    H15 6106   9.462   7.559   3.760  0.7770 -0.3536 -0.0494
  235ccc    H16 6107   9.405   7.413   3.691  1.3697 -0.4134 -0.2927
  235ccc    C10 6108   9.591   7.384   3.781  0.0329  0.4139 -0.1739
  235ccc     O4 6109   9.629   7.323   3.883 -0.7015 -0.2125 -0.1031
  235ccc     O5 6110   9.670   7.393   3.687  0.2295  0.0064 -0.7740
  236ccc     N1 6111   9.906   8.748   3.101  0.6284 -0.3016  0.2962
  236ccc     H4 6112   9.865   8.660   3.072  0.1114 -0.6190  1.8572
  236ccc     C3 6113   9.871   8.864   3.018  0.4025 -0.6716 -0.2941
  236ccc     H5 6114   9.797   8.925   3.073 -0.0134 -0.0647 -1.5000
  236ccc     C4 6115   9.814   8.827   2.882  0.0561  0.2271 -0.3035
  236ccc     H6 6116   9.956   8.931   3.000 -0.7388  0.5901 -1.1224
  236ccc     H7 6117   9.776   8.913   2.825 -0.5762  1.0398  1.3026
  236ccc     H8 6118   9.729   8.764   2.910 -0.5831  1.7095  1.2766
  236ccc     N2 6119   9.898   8.742   2.795  0.6037  0.1641 -0.1064
  236ccc     C5 6120   9.833   8.684   2.675  0.2775 -0.0654 -0.0993
  236ccc     C6 6121  10.041   8.784   2.776 -0.7146 -0.2838 -0.9192
  236ccc     H9 6122  10.097   8.789   2.870  0.6153  1.2582 -1.7354
  236ccc     C7 6123  10.043   8.907   2.681 -0.4908 -0.1634 -0.1269
  236ccc    H10 6124  10.102   8.708   2.725  0.1337 -0.8711  0.8692
  236ccc    H11 6125   9.988   8.986   2.733  2.6652  2.2517 -0.1443
  236ccc    H12 6126   9.998   8.888   2.582 -0.1969 -0.5249 -0.1925
  236ccc     C8 6127  10.184   8.963   2.671 -0.5083  1.2601  0.1938
  236ccc     O2 6128  10.260   8.935   2.582 -0.1257  0.1752  0.1426
  236ccc     O3 6129  10.230   9.037   2.759  0.0976  0.4070  0.2511
  236ccc    H13 6130   9.910   8.618   2.634 -0.1786 -0.9206  0.3808
  236ccc    H14 6131   9.807   8.759   2.600 -2.0012 -0.2202  0.4646
  236ccc     C9 6132   9.711   8.594   2.701  0.2711  0.5075 -0.4024
  236ccc    H15 6133   9.630   8.651   2.747 -0.1010 -2.1602  2.5909
  236ccc    H16 6134   9.743   8.512   2.766  2.1498  0.9268 -0.7167
  236ccc    C10 6135   9.668   8.519   2.573  0.9090 -0.3693  0.2411
  236ccc     O4 6136   9.601   8.576   2.488  0.6904  0.3696 -0.0685
  236ccc     O5 6137   9.733   8.419   2.536  0.2098  0.4324  0.3662
  237ccc     N1 6138  10.061   8.060   3.551 -0.4659 -0.3019 -0.2828
  237ccc     H4 6139  10.019   8.068   3.643  1.0757 -0.9490  0.5117
  237ccc     C3 6140  10.146   7.940   3.534  0.3690 -0.1820  0.6505
  237ccc     H5 6141  10.201   7.953   3.440 -2.5052 -1.2442 -1.3173
  237ccc     C4 6142  10.052   7.809   3.534  0.4962 -0.8287  0.2130
  237ccc     H6 6143  10.224   7.940   3.610  1.3461  0.3357 -0.3163
  237ccc     H7 6144   9.996   7.797   3.440  0.3232 -1.5411  0.4004
  237ccc     H8 6145   9.973   7.836   3.605  2.6782  3.4714  1.3334
  237ccc     N2 6146  10.132   7.686   3.563  0.9858 -0.0617  0.1961
  237ccc     C5 6147  10.071   7.592   3.648  0.9830 -0.0850  0.1809
  237ccc     C6 6148  10.207   7.648   3.443  0.2633  1.1875 -0.2921
  237ccc     H9 6149  10.133   7.583   3.394  1.9313 -0.1496 -1.1071
  237ccc     C7 6150  10.340   7.570   3.468  0.2568 -0.5872  0.5095
  237ccc    H10 6151  10.226   7.738   3.384 -1.8857  1.8615 -0.0634
  237ccc    H11 6152  10.321   7.485   3.534  1.0317 -1.6774 -0.6160
  237ccc    H12 6153  10.406   7.636   3.526 -2.1045  0.5591  2.0031
  237ccc     C8 6154  10.416   7.507   3.351 -0.2185 -0.0181  0.1820
  237ccc     O2 6155  10.362   7.468   3.251  0.3139  0.2082 -0.4394
  237ccc     O3 6156  10.540   7.510   3.358  0.6203 -0.1594 -0.1069
  237ccc    H13 6157  10.143   7.515   3.681 -1.0155 -1.5098  1.4560
  237ccc    H14 6158   9.994   7.538   3.592  1.3120 -1.2359  0.7899
  237ccc     C9 6159  10.014   7.638   3.790 -0.1794 -0.2407  1.0243
  237ccc    H15 6160   9.967   7.737   3.791 -1.2464 -0.5284 -2.6750
  237ccc    H16 6161  10.099   7.655   3.857  1.6271  0.8991 -1.3844
  237ccc    C10 6162   9.928   7.539   3.862 -0.5596  0.1291 -0.2548
  237ccc     O4 6163   9.924   7.420   3.843  0.4589 -0.5145  0.1580
  237ccc     O5 6164   9.844   7.584   3.944 -0.6032  0.3342  0.0906
  238ccc     N1 6165   7.262  10.738   1.930 -0.0551 -0.1387  0.4495
  238ccc     H4 6166   7.266  10.818   1.868  1.2276  0.3679  1.1679
  238ccc     C3 6167   7.228  10.764   2.074  0.5229 -0.3726  0.1656
  238ccc     H5 6168   7.144  10.698   2.099 -0.1907 -0.7099 -2.7244
  238ccc     C4 6169   7.199  10.909   2.125  0.1921 -0.1219 -0.1796
  238ccc     H6 6170   7.315  10.733   2.133  1.0101  0.6113 -0.0108
  238ccc     H7 6171   7.128  10.945   2.049 -1.6677  0.1619  1.6215
  238ccc     H8 6172   7.287  10.968   2.095  1.1345 -0.5857  1.5719
  238ccc     N2 6173   7.142  10.924   2.266 -0.2529 -0.4883 -0.0546
  238ccc     C5 6174   7.236  10.905   2.372  0.1354  0.7171  0.3539
  238ccc     C6 6175   7.004  10.869   2.287 -0.0678 -0.1474  0.0636
  238ccc     H9 6176   7.011  10.761   2.304  0.5705  0.1451  1.7488
  238ccc     C7 6177   6.896  10.896   2.177 -0.3673  0.3308  0.1410
  238ccc    H10 6178   6.971  10.898   2.387 -0.8283 -3.6756  0.9757
  238ccc    H11 6179   6.914  10.823   2.096 -0.5016 -3.7434  3.4642
  238ccc    H12 6180   6.917  10.997   2.139 -0.2491  0.7014  1.1621
  238ccc     C8 6181   6.756  10.877   2.231  0.1688  0.4538  0.0151
  238ccc     O2 6182   6.662  10.943   2.185 -0.4363  0.2331 -0.4461
  238ccc     O3 6183   6.724  10.815   2.327 -0.3720 -0.2923 -0.0397
  238ccc    H13 6184   7.282  10.806   2.360 -0.6719  0.1993  1.3889
  238ccc    H14 6185   7.170  10.887   2.458 -3.1598  0.3007 -2.0903
  238ccc     C9 6186   7.356  11.001   2.388  0.7575 -0.7116  0.0360
  238ccc    H15 6187   7.316  11.101   2.407  3.4167 -0.0995  3.4440
  238ccc    H16 6188   7.416  11.010   2.297 -0.1119  0.4530 -0.4512
  238ccc    C10 6189   7.448  10.965   2.501  0.5387 -0.5099 -0.7892
  238ccc     O4 6190   7.430  11.003   2.612 -0.4672  0.1035 -0.2591
  238ccc     O5 6191   7.556  10.905   2.489  0.4132 -0.1923  0.1584
  239ccc     N1 6192   7.732  11.012   1.770  0.3020  0.1385 -0.7729
  239ccc     H4 6193   7.653  11.038   1.828 -0.2496 -0.1676 -1.3741
  239ccc     C3 6194   7.858  11.096   1.780 -0.5476  0.0263 -0.2822
  239ccc     H5 6195   7.945  11.064   1.721  0.8987  0.4468  1.5309
  239ccc     C4 6196   7.918  11.087   1.920 -0.5462  0.1116  0.2832
  239ccc     H6 6197   7.836  11.200   1.755  1.1403  0.2179 -1.0868
  239ccc     H7 6198   7.927  10.980   1.946 -0.9405 -0.2111 -0.8220
  239ccc     H8 6199   7.849  11.133   1.991  0.9084  0.5530  1.4363
  239ccc     N2 6200   8.045  11.159   1.933  0.0227  0.4093  0.3859
  239ccc     C5 6201   8.090  11.165   2.077  0.5150  0.0838  0.0474
  239ccc     C6 6202   8.054  11.287   1.866  0.0995 -0.6584  0.3280
  239ccc     H9 6203   8.150  11.338   1.875  0.1177 -0.9022  1.7212
  239ccc     C7 6204   7.959  11.409   1.910 -0.1925  0.8301  0.1807
  239ccc    H10 6205   8.023  11.279   1.761 -1.4464 -0.9304  0.7801
  239ccc    H11 6206   7.976  11.434   2.016  1.9573  0.9242 -0.1414
  239ccc    H12 6207   7.855  11.374   1.903 -0.4900  0.5577  3.9505
  239ccc     C8 6208   7.966  11.539   1.823 -1.1480  0.1684 -0.3715
  239ccc     O2 6209   7.921  11.638   1.879 -0.2412 -0.4280 -0.3252
  239ccc     O3 6210   7.968  11.541   1.699  0.3291  0.7171 -0.0934
  239ccc    H13 6211   8.016  11.218   2.139  1.5795  1.3597  0.2549
  239ccc    H14 6212   8.184  11.220   2.083  1.4795 -1.3539 -1.1744
  239ccc     C9 6213   8.120  11.029   2.135  0.5817 -0.0215  0.3642
  239ccc    H15 6214   8.194  10.979   2.070 -0.0597  0.5543 -0.8550
  239ccc    H16 6215   8.035  10.959   2.133  0.7198 -0.1805 -0.3678
  239ccc    C10 6216   8.161  11.045   2.280  0.2682 -0.2781  0.2648
  239ccc     O4 6217   8.084  11.020   2.367 -0.1800  0.1931 -0.8085
  239ccc     O5 6218   8.253  11.125   2.300  0.1937 -0.0715  0.3016
  240ccc     N1 6219   7.941   8.772   1.762  0.3069  0.1351 -0.1178
  240ccc     H4 6220   7.990   8.850   1.804 -2.1341  1.3215  0.6852
  240ccc     C3 6221   7.916   8.647   1.833  0.2259  0.9109 -0.0282
  240ccc     H5 6222   7.873   8.668   1.932  1.1174 -0.5699  0.7114
  240ccc     C4 6223   8.053   8.582   1.860  0.0701 -0.0763  0.8267
  240ccc     H6 6224   7.844   8.588   1.775 -0.4330  0.1761  1.4786
  240ccc     H7 6225   8.106   8.640   1.937  0.1461  0.3451  0.4616
  240ccc     H8 6226   8.114   8.583   1.769  1.1660 -1.5107  1.5137
  240ccc     N2 6227   8.061   8.448   1.904  0.2426 -0.4587 -0.1560
  240ccc     C5 6228   7.962   8.357   1.842 -0.0627  0.5165  0.6286
  240ccc     C6 6229   8.191   8.386   1.941 -0.6937  0.1781 -0.5339
  240ccc     H9 6230   8.171   8.283   1.974 -1.9326  0.7031  0.4284
  240ccc     C7 6231   8.275   8.446   2.054 -0.0428  0.0175  0.4997
  240ccc    H10 6232   8.247   8.380   1.847 -0.2335  0.2614 -0.2693
  240ccc    H11 6233   8.211   8.474   2.138 -0.1168 -0.7454  0.7063
  240ccc    H12 6234   8.309   8.541   2.012 -1.7108  1.6513  2.6194
  240ccc     C8 6235   8.389   8.346   2.084 -0.6562  0.4929 -0.2174
  240ccc     O2 6236   8.427   8.257   2.007  0.1129 -0.5268  0.2977
  240ccc     O3 6237   8.448   8.349   2.191  0.2120  0.0540 -0.0026
  240ccc    H13 6238   7.859   8.384   1.868 -0.0682  0.7973  0.3271
  240ccc    H14 6239   7.968   8.253   1.877  0.5273  0.8640  1.5736
  240ccc     C9 6240   7.989   8.342   1.693  0.1726 -0.1656 -0.1841
  240ccc    H15 6241   8.098   8.328   1.696  0.4126  1.2745  3.5338
  240ccc    H16 6242   7.963   8.437   1.645 -0.5004  0.6831  1.7219
  240ccc    C10 6243   7.923   8.217   1.639 -0.3520  0.5118  0.5744
  240ccc     O4 6244   7.992   8.127   1.591  0.4362  0.0051 -0.2715
  240ccc     O5 6245   7.809   8.225   1.606  0.2468 -0.5689 -0.1333
  241ccc     N1 6246   8.243   8.999   1.117  0.5070 -0.3705 -0.6687
  241ccc     H4 6247   8.179   8.930   1.155 -0.9115  0.8476 -0.7578
  241ccc     C3 6248   8.295   9.001   0.978  0.2088  0.4237  0.3941
  241ccc     H5 6249   8.234   9.059   0.907  1.5918  0.6836 -0.6231
  241ccc     C4 6250   8.278   8.858   0.915 -0.0555  0.4509 -0.7396
  241ccc     H6 6251   8.398   9.038   0.969 -0.0418  1.0386 -0.0484
  241ccc     H7 6252   8.172   8.836   0.898  0.2058 -1.0738 -0.4795
  241ccc     H8 6253   8.323   8.794   0.992 -1.3938  1.7414  1.1993
  241ccc     N2 6254   8.360   8.842   0.791  0.2097  0.3485 -0.0763
  241ccc     C5 6255   8.352   8.947   0.687  0.4464  0.1448 -0.1920
  241ccc     C6 6256   8.365   8.705   0.735 -0.2537 -0.0898  0.1637
  241ccc     H9 6257   8.271   8.674   0.687 -1.0131 -1.4242  2.3618
  241ccc     C7 6258   8.395   8.589   0.834 -0.4367  0.3114 -0.4782
  241ccc    H10 6259   8.451   8.698   0.667 -0.7704  0.7004 -0.6015
  241ccc    H11 6260   8.308   8.568   0.898 -0.2158 -1.5013 -0.7257
  241ccc    H12 6261   8.473   8.620   0.905 -1.2531  0.7282  0.2610
  241ccc     C8 6262   8.438   8.455   0.766  0.0898  0.6193 -0.1903
  241ccc     O2 6263   8.551   8.404   0.771  0.5526 -0.5582  0.5940
  241ccc     O3 6264   8.356   8.387   0.705 -0.1996  0.2358  0.1801
  241ccc    H13 6265   8.416   8.912   0.605 -0.7279 -1.0905 -0.6153
  241ccc    H14 6266   8.391   9.039   0.732  1.3691 -1.2591  2.0689
  241ccc     C9 6267   8.207   8.981   0.643 -0.2228  0.0540 -0.3462
  241ccc    H15 6268   8.134   8.994   0.724 -1.7573 -3.6209 -0.9518
  241ccc    H16 6269   8.180   8.895   0.581  0.8169  0.0629 -0.8211
  241ccc    C10 6270   8.206   9.113   0.564  0.3985  0.4871 -1.0665
  241ccc     O4 6271   8.226   9.219   0.615 -0.2604 -0.1415  0.6227
  241ccc     O5 6272   8.201   9.111   0.442  0.0028 -0.2333  0.8459
  242ccc     N1 6273   7.253   7.635   1.673  0.1305  0.0490  0.3285
  242ccc     H4 6274   7.241   7.694   1.592 -1.4562  0.3608  0.7520
  242ccc     C3 6275   7.278   7.498   1.648 -0.6389 -0.8892 -0.0813
  242ccc     H5 6276   7.365   7.486   1.582  0.3574 -1.3696  1.2594
  242ccc     C4 6277   7.166   7.416   1.584 -0.2491 -0.0970 -0.2002
  242ccc     H6 6278   7.300   7.445   1.741 -0.1510  0.1625  0.4180
  242ccc     H7 6279   7.210   7.317   1.574  1.3803  0.5662  0.0707
  242ccc     H8 6280   7.143   7.453   1.483  0.4462  1.8678  0.3058
  242ccc     N2 6281   7.045   7.390   1.660  0.4579 -0.1854  0.7662
  242ccc     C5 6282   7.071   7.301   1.774 -0.1899  0.2131 -0.1746
  242ccc     C6 6283   6.963   7.509   1.684 -0.0935 -0.0033  1.0178
  242ccc     H9 6284   7.005   7.541   1.780 -0.3821 -0.0794  1.1727
  242ccc     C7 6285   6.813   7.475   1.691 -0.0861  0.4039 -0.1832
  242ccc    H10 6286   6.973   7.579   1.600 -0.2864 -0.3588  0.6959
  242ccc    H11 6287   6.794   7.434   1.791  1.7474 -0.2164 -0.0446
  242ccc    H12 6288   6.789   7.394   1.622  0.3316 -1.7473  2.0539
  242ccc     C8 6289   6.732   7.604   1.676  0.1448 -0.1472  0.6410
  242ccc     O2 6290   6.670   7.655   1.772 -0.0170  0.0597 -0.0069
  242ccc     O3 6291   6.701   7.639   1.564  0.2264  0.2624  0.1066
  242ccc    H13 6292   6.989   7.313   1.846 -1.6745 -0.9033 -1.6040
  242ccc    H14 6293   7.166   7.333   1.819 -1.4009  1.4272  1.6746
  242ccc     C9 6294   7.076   7.150   1.733 -0.3430 -0.0986  0.2583
  242ccc    H15 6295   7.156   7.131   1.660  0.7006  0.0235  1.3389
  242ccc    H16 6296   6.979   7.118   1.692 -0.0115 -2.2024  1.0248
  242ccc    C10 6297   7.108   7.064   1.854 -0.1856  0.0817 -0.2602
  242ccc     O4 6298   7.220   7.073   1.907  0.1195  0.0731  0.0571
  242ccc     O5 6299   7.030   7.020   1.933 -0.1892  0.6817  0.5619
  243ccc     N1 6300   6.805   8.369   2.082  0.4766 -0.6827  0.0635
  243ccc     H4 6301   6.797   8.390   1.983 -0.6560 -0.2850  0.2290
  243ccc     C3 6302   6.699   8.418   2.168  0.1195 -0.0617  0.2767
  243ccc     H5 6303   6.718   8.406   2.275  1.0239  3.6054  0.6716
  243ccc     C4 6304   6.557   8.360   2.137  0.2385 -0.7201  0.9293
  243ccc     H6 6305   6.704   8.527   2.158  2.2357 -0.2985 -2.0868
  243ccc     H7 6306   6.562   8.252   2.156  1.7286 -0.8893 -0.2450
  243ccc     H8 6307   6.526   8.375   2.033  1.0384 -0.3565  0.7307
  243ccc     N2 6308   6.463   8.430   2.232 -0.0125  0.3313 -0.2438
  243ccc     C5 6309   6.445   8.577   2.221 -0.0594 -0.1064 -0.2002
  243ccc     C6 6310   6.341   8.345   2.245 -0.7477  0.1511  0.6973
  243ccc     H9 6311   6.282   8.373   2.156 -0.1590 -1.0274 -0.0811
  243ccc     C7 6312   6.261   8.362   2.375 -0.3350 -0.0033  0.1067
  243ccc    H10 6313   6.361   8.238   2.236 -1.4532  0.0547  0.2002
  243ccc    H11 6314   6.163   8.313   2.370 -0.5782 -0.1049  3.6962
  243ccc    H12 6315   6.243   8.464   2.411  0.4404 -0.3306  1.4883
  243ccc     C8 6316   6.347   8.298   2.486  0.4320 -0.0793 -0.7420
  243ccc     O2 6317   6.423   8.200   2.470 -0.0092  0.4351 -0.2516
  243ccc     O3 6318   6.331   8.345   2.597  0.2410 -0.3325 -0.1425
  243ccc    H13 6319   6.538   8.626   2.251 -0.9492  1.4707  0.0996
  243ccc    H14 6320   6.374   8.617   2.294  0.9861  1.9283 -0.2274
  243ccc     C9 6321   6.411   8.632   2.083  0.3299 -0.3430  0.0967
  243ccc    H15 6322   6.323   8.575   2.050  1.2324 -2.2430  0.8081
  243ccc    H16 6323   6.489   8.620   2.007  2.7635 -0.5546  2.4875
  243ccc    C10 6324   6.357   8.776   2.098  0.4014 -0.1304  0.1671
  243ccc     O4 6325   6.280   8.824   2.014 -0.3580  0.2638  0.0751
  243ccc     O5 6326   6.395   8.845   2.189  0.0740  0.0576  0.1705
  244ccc     N1 6327   6.230   9.097   0.839 -0.6254  0.8046 -0.3408
  244ccc     H4 6328   6.246   9.080   0.938  1.1230  0.0374 -0.7167
  244ccc     C3 6329   6.129   9.178   0.784  0.9721 -0.1148  0.7541
  244ccc     H5 6330   6.109   9.255   0.860 -1.6222 -0.4067  0.4361
  244ccc     C4 6331   5.997   9.104   0.784  0.4663  0.8269 -0.7958
  244ccc     H6 6332   6.144   9.224   0.686  0.9314 -1.0306  0.3106
  244ccc     H7 6333   5.997   9.059   0.884 -1.5447  1.2424 -0.5593
  244ccc     H8 6334   6.000   9.028   0.705  1.4958 -1.0845  1.0042
  244ccc     N2 6335   5.878   9.195   0.776 -0.0866 -0.5270  0.5195
  244ccc     C5 6336   5.750   9.148   0.835  0.0841  0.3878 -0.4070
  244ccc     C6 6337   5.874   9.274   0.644 -0.2533 -0.4556 -0.5098
  244ccc     H9 6338   5.968   9.327   0.622 -0.5243  0.5352  0.5859
  244ccc     C7 6339   5.769   9.385   0.637 -0.3118 -0.2757  0.0914
  244ccc    H10 6340   5.841   9.208   0.563  0.4033  0.7039 -1.7744
  244ccc    H11 6341   5.804   9.464   0.704 -1.3314  0.5481 -0.3320
  244ccc    H12 6342   5.664   9.369   0.665  0.0695  0.0677  1.8422
  244ccc     C8 6343   5.777   9.447   0.502 -0.4021 -0.1384  0.9623
  244ccc     O2 6344   5.875   9.517   0.473  0.4745 -0.6021 -0.0369
  244ccc     O3 6345   5.683   9.441   0.420 -0.6131  0.1144 -0.1510
  244ccc    H13 6346   5.684   9.234   0.849  0.6918  0.6494  1.0585
  244ccc    H14 6347   5.776   9.104   0.932 -1.1317 -0.0624 -0.2777
  244ccc     C9 6348   5.677   9.029   0.754 -0.2475 -0.0404 -0.1216
  244ccc    H15 6349   5.740   8.940   0.751 -0.3903 -0.1604  0.3466
  244ccc    H16 6350   5.655   9.058   0.651  0.6223 -0.4140 -0.4130
  244ccc    C10 6351   5.539   8.987   0.816 -0.7630 -0.5097 -0.4671
  244ccc     O4 6352   5.528   8.958   0.931  0.0399  0.3538  0.0038
  244ccc     O5 6353   5.432   9.020   0.762 -0.4498 -0.3135 -0.0984
  245ccc     N1 6354   6.250   8.768   1.220 -0.7543 -0.4948 -0.0348
  245ccc     H4 6355   6.189   8.747   1.142 -0.3677  1.5920 -0.9963
  245ccc     C3 6356   6.249   8.911   1.268  0.3794  0.4045 -0.2607
  245ccc     H5 6357   6.293   8.914   1.368 -1.0051  1.1077  0.3533
  245ccc     C4 6358   6.112   8.993   1.270  0.1788 -0.1479  0.2746
  245ccc     H6 6359   6.319   8.964   1.202  0.3374 -2.6531 -3.0729
  245ccc     H7 6360   6.096   9.025   1.166 -1.7117  2.4311  1.2270
  245ccc     H8 6361   6.126   9.091   1.317  0.8299 -0.0284 -0.1512
  245ccc     N2 6362   5.994   8.918   1.319  0.1541 -0.4554 -0.5899
  245ccc     C5 6363   6.008   8.870   1.460  0.0305 -0.0523 -1.1798
  245ccc     C6 6364   5.870   8.992   1.276 -0.3106 -1.3055 -0.0139
  245ccc     H9 6365   5.856   9.093   1.317  0.6648 -0.9731 -0.4704
  245ccc     C7 6366   5.742   8.906   1.314 -0.5627 -1.1106  0.4400
  245ccc    H10 6367   5.872   9.012   1.169 -0.1108 -0.0552  0.2033
  245ccc    H11 6368   5.738   8.879   1.420 -0.6780 -2.5729  0.0938
  245ccc    H12 6369   5.749   8.804   1.273 -2.9100 -1.6613  1.2739
  245ccc     C8 6370   5.610   8.957   1.268  0.7576 -0.7113 -0.4816
  245ccc     O2 6371   5.599   9.071   1.234  0.8481  0.1246 -0.3075
  245ccc     O3 6372   5.509   8.887   1.275  0.5669  0.3071  0.2086
  245ccc    H13 6373   6.099   8.811   1.474 -0.8951 -0.9977  1.6644
  245ccc    H14 6374   5.924   8.802   1.481 -0.8939  0.7553 -2.1393
  245ccc     C9 6375   6.001   8.985   1.565 -1.0181  0.4890 -0.6419
  245ccc    H15 6376   5.914   9.050   1.551 -1.3960 -0.0960 -1.0888
  245ccc    H16 6377   6.088   9.050   1.552  0.2115 -0.7939  0.8129
  245ccc    C10 6378   6.014   8.933   1.711 -0.7744 -0.5988  0.6631
  245ccc     O4 6379   6.103   8.976   1.781  0.4270 -0.1121  0.4389
  245ccc     O5 6380   5.969   8.828   1.743 -0.3137  0.0933 -0.3173
  246ccc     N1 6381   6.330   8.615   4.044 -0.4440  0.2361  0.2237
  246ccc     H4 6382   6.376   8.549   3.982 -1.9002 -0.0064 -0.6303
  246ccc     C3 6383   6.221   8.568   4.130  0.6173  0.0465  0.4245
  246ccc     H5 6384   6.157   8.647   4.173  0.3922  0.3135 -0.3817
  246ccc     C4 6385   6.279   8.481   4.246 -0.2376 -0.1606  0.9511
  246ccc     H6 6386   6.159   8.509   4.062 -0.4005  2.6492 -1.0469
  246ccc     H7 6387   6.361   8.533   4.296  1.1733 -0.8464 -0.5661
  246ccc     H8 6388   6.337   8.402   4.197 -1.1153 -0.6330  0.6454
  246ccc     N2 6389   6.166   8.429   4.330  0.4050 -0.2756 -0.2661
  246ccc     C5 6390   6.079   8.527   4.396 -0.1627  0.3647  0.0055
  246ccc     C6 6391   6.103   8.302   4.286 -0.6573  0.3159  0.0740
  246ccc     H9 6392   6.058   8.257   4.375 -1.2573 -1.1535 -0.9405
  246ccc     C7 6393   6.194   8.203   4.213  0.1698 -0.3783 -0.4060
  246ccc    H10 6394   6.021   8.322   4.216  0.6175  2.0262 -1.0033
  246ccc    H11 6395   6.166   8.101   4.242  1.4263 -0.3527  1.0312
  246ccc    H12 6396   6.293   8.209   4.260  1.6263  2.9761 -3.4230
  246ccc     C8 6397   6.194   8.207   4.058 -0.2048 -0.4017 -0.6540
  246ccc     O2 6398   6.303   8.206   3.996 -0.7375  0.2978 -0.3382
  246ccc     O3 6399   6.096   8.192   3.984 -0.0267 -0.0081 -0.2406
  246ccc    H13 6400   6.021   8.470   4.470  3.3066 -1.0728  1.8502
  246ccc    H14 6401   6.004   8.562   4.324  0.4081  0.9934 -0.2904
  246ccc     C9 6402   6.133   8.644   4.470  0.7261 -0.1842 -0.0463
  246ccc    H15 6403   6.181   8.709   4.395 -0.0608  1.9609  1.2140
  246ccc    H16 6404   6.201   8.609   4.549  1.7825  1.1265 -0.3276
  246ccc    C10 6405   6.023   8.732   4.531 -0.2474 -0.3043 -0.3069
  246ccc     O4 6406   5.949   8.688   4.624 -0.0158  0.1923 -0.1742
  246ccc     O5 6407   6.011   8.851   4.511 -0.9445  0.1715 -0.1232
  247ccc     N1 6408   6.465   8.609   3.551  0.1795  0.4115 -0.5367
  247ccc     H4 6409   6.387   8.603   3.615  2.2080  1.2045  2.2221
  247ccc     C3 6410   6.504   8.488   3.488 -0.2310 -0.1520 -0.2662
  247ccc     H5 6411   6.606   8.488   3.447 -0.8000  0.8509 -1.7760
  247ccc     C4 6412   6.414   8.454   3.370  0.3868  0.1784 -0.5110
  247ccc     H6 6413   6.491   8.415   3.569  2.0557  0.1572  0.4538
  247ccc     H7 6414   6.417   8.539   3.301  0.6609 -0.9743 -1.9796
  247ccc     H8 6415   6.312   8.438   3.407 -0.4111  0.1904 -2.5888
  247ccc     N2 6416   6.461   8.333   3.298 -0.4163 -0.1000  0.7199
  247ccc     C5 6417   6.380   8.314   3.175 -0.3642  0.0707  0.2177
  247ccc     C6 6418   6.487   8.214   3.384  0.3614  0.2035  0.6542
  247ccc     H9 6419   6.539   8.132   3.334  1.0574  0.0760  1.5535
  247ccc     C7 6420   6.358   8.145   3.443 -0.7932 -0.6155 -0.0157
  247ccc    H10 6421   6.553   8.254   3.463  0.7148  0.3921  0.2657
  247ccc    H11 6422   6.308   8.107   3.352 -1.2320  1.4620 -0.7001
  247ccc    H12 6423   6.284   8.216   3.482 -0.7033  0.6207 -1.9288
  247ccc     C8 6424   6.393   8.043   3.552  0.2458 -0.0728 -0.1031
  247ccc     O2 6425   6.433   7.934   3.521 -0.3114 -0.0183 -0.0542
  247ccc     O3 6426   6.360   8.069   3.669 -0.0358  0.6140 -0.1654
  247ccc    H13 6427   6.379   8.405   3.114 -2.4491 -0.7125 -1.0134
  247ccc    H14 6428   6.273   8.302   3.196 -0.9892  3.2566 -0.6312
  247ccc     C9 6429   6.431   8.195   3.086 -0.1962 -0.2704  0.0573
  247ccc    H15 6430   6.410   8.104   3.144 -1.0418 -0.0816  0.0613
  247ccc    H16 6431   6.539   8.197   3.065 -0.4290  1.6802 -1.1571
  247ccc    C10 6432   6.353   8.210   2.954  0.3900 -0.2067  0.1252
  247ccc     O4 6433   6.407   8.248   2.852 -0.4277  0.7912  0.3570
  247ccc     O5 6434   6.231   8.213   2.952  0.8916  0.5103 -0.5255
  248ccc     N1 6435   7.683   8.665   3.721 -0.2489 -0.2019  0.0342
  248ccc     H4 6436   7.657   8.761   3.704 -0.5754 -0.5786 -1.8741
  248ccc     C3 6437   7.803   8.613   3.646  0.4287 -0.2003 -0.4364
  248ccc     H5 6438   7.879   8.577   3.717  1.7602 -2.3165 -2.7355
  248ccc     C4 6439   7.855   8.715   3.547 -0.2618 -0.1950  0.7580
  248ccc     H6 6440   7.775   8.519   3.596 -2.1865 -0.0540  0.5858
  248ccc     H7 6441   7.779   8.713   3.468  1.8790  0.2076 -1.4557
  248ccc     H8 6442   7.948   8.675   3.504 -2.4867 -2.8298 -2.0586
  248ccc     N2 6443   7.884   8.854   3.596 -0.1975  0.5365  0.0229
  248ccc     C5 6444   7.941   8.941   3.489 -0.5861  0.0133 -0.9654
  248ccc     C6 6445   7.947   8.885   3.729 -0.0445  0.7141  1.0035
  248ccc     H9 6446   7.938   8.994   3.739  0.4394  0.9916 -1.2125
  248ccc     C7 6447   8.091   8.847   3.736 -0.0430 -0.1217  0.1015
  248ccc    H10 6448   7.890   8.840   3.811  0.6876 -2.9420 -0.3029
  248ccc    H11 6449   8.151   8.900   3.661 -0.8957 -0.2034 -0.6590
  248ccc    H12 6450   8.095   8.737   3.730  1.7107 -0.0181 -1.7679
  248ccc     C8 6451   8.151   8.852   3.870  0.7366 -0.1116  0.1024
  248ccc     O2 6452   8.086   8.888   3.971  0.2356  0.0806 -0.0911
  248ccc     O3 6453   8.271   8.842   3.885 -0.5155 -0.3787 -0.4630
  248ccc    H13 6454   8.038   8.898   3.463  0.0938  0.3270  0.9232
  248ccc    H14 6455   7.953   9.042   3.528  0.1629  0.8036 -3.1003
  248ccc     C9 6456   7.846   8.957   3.366 -0.3253  0.1375  0.5577
  248ccc    H15 6457   7.754   9.012   3.393 -0.2889  0.4042  0.1443
  248ccc    H16 6458   7.809   8.865   3.320  0.3902  0.2059 -0.1624
  248ccc    C10 6459   7.926   9.045   3.265 -0.1868 -0.1432  0.4496
  248ccc     O4 6460   8.048   9.041   3.259 -0.2505  0.0693  0.6362
  248ccc     O5 6461   7.875   9.115   3.186 -0.3820 -0.3655 -0.2418
  249ccc     N1 6462   7.099   9.173   3.762  0.2788  0.5375  0.2557
  249ccc     H4 6463   7.029   9.149   3.831 -0.1102  0.6078 -0.1099
  249ccc     C3 6464   7.064   9.283   3.671 -0.0914 -0.1660 -0.6277
  249ccc     H5 6465   7.125   9.373   3.683 -1.0966  0.7854 -2.2175
  249ccc     C4 6466   6.911   9.321   3.689 -0.0866  1.1949  0.0371
  249ccc     H6 6467   7.083   9.258   3.566  1.7862 -0.2436 -0.2980
  249ccc     H7 6468   6.895   9.371   3.786 -2.8192 -0.5252  0.5851
  249ccc     H8 6469   6.860   9.224   3.696  2.3756 -0.0805  1.7929
  249ccc     N2 6470   6.859   9.412   3.593 -0.0261 -0.6633  0.2799
  249ccc     C5 6471   6.946   9.536   3.575  0.5349  0.3522 -0.1022
  249ccc     C6 6472   6.718   9.443   3.611  0.9027 -0.1261 -0.9508
  249ccc     H9 6473   6.679   9.473   3.708  3.5754  0.4514  0.0241
  249ccc     C7 6474   6.626   9.328   3.562  0.1847 -0.2760 -0.1558
  249ccc    H10 6475   6.697   9.532   3.551  0.9465 -0.9307 -2.2106
  249ccc    H11 6476   6.632   9.244   3.633 -2.4082  0.4209  1.0062
  249ccc    H12 6477   6.652   9.299   3.460 -0.3001 -0.5844 -0.1929
  249ccc     C8 6478   6.490   9.381   3.557 -0.3356  0.3272 -0.9648
  249ccc     O2 6479   6.429   9.396   3.660 -0.1120  0.3540  0.2702
  249ccc     O3 6480   6.446   9.444   3.459 -0.0352  0.3427  0.5438
  249ccc    H13 6481   6.989   9.569   3.670  0.0954  1.1468 -0.1739
  249ccc    H14 6482   6.882   9.619   3.544  0.0660  0.0514  0.0576
  249ccc     C9 6483   7.047   9.525   3.461  0.5604 -0.9222 -0.3642
  249ccc    H15 6484   7.001   9.493   3.367  0.8341  2.5681 -1.8005
  249ccc    H16 6485   7.130   9.456   3.484  1.6331  0.1384 -0.9540
  249ccc    C10 6486   7.119   9.662   3.440  0.8023  0.2381  0.3967
  249ccc     O4 6487   7.073   9.746   3.367  0.4365 -0.0024  0.1223
  249ccc     O5 6488   7.228   9.688   3.476 -0.3033  0.1221 -0.4338
  250ccc     N1 6489   5.741   8.164   2.501  0.1625 -0.3229  0.4140
  250ccc     H4 6490   5.716   8.134   2.407  0.6098  0.7064 -0.0473
  250ccc     C3 6491   5.761   8.056   2.596  0.0160  0.4313 -0.3456
  250ccc     H5 6492   5.788   8.097   2.694  2.8198 -1.2172 -0.3094
  250ccc     C4 6493   5.868   7.965   2.545 -0.3069 -0.4890  0.4408
  250ccc     H6 6494   5.672   7.995   2.611  0.1208  0.0785 -1.0708
  250ccc     H7 6495   5.940   8.023   2.486 -0.6360  0.1469  0.6628
  250ccc     H8 6496   5.822   7.881   2.491  1.0108  0.3063 -2.0651
  250ccc     N2 6497   5.952   7.905   2.656  0.2244  0.2392  0.5569
  250ccc     C5 6498   6.065   7.821   2.604  0.5942 -0.2997  0.4113
  250ccc     C6 6499   5.879   7.833   2.768 -0.3294 -0.9009  0.6669
  250ccc     H9 6500   5.944   7.803   2.851 -0.2215  1.2129  1.4208
  250ccc     C7 6501   5.819   7.697   2.731  0.2314  0.5520 -0.4665
  250ccc    H10 6502   5.800   7.894   2.814  0.6013  0.1659  0.8791
  250ccc    H11 6503   5.906   7.631   2.717  0.4029  0.7250 -0.2082
  250ccc    H12 6504   5.758   7.705   2.640  0.1141  1.1371 -0.3392
  250ccc     C8 6505   5.735   7.637   2.845 -0.0457  0.2743  0.2488
  250ccc     O2 6506   5.765   7.531   2.906 -0.0976  0.2058  0.0986
  250ccc     O3 6507   5.622   7.678   2.870 -0.0745 -0.1139 -0.2309
  250ccc    H13 6508   6.022   7.758   2.525 -0.3290  1.9170 -0.9590
  250ccc    H14 6509   6.101   7.766   2.691 -1.0079  0.2004  1.4511
  250ccc     C9 6510   6.183   7.911   2.542  0.2779  0.3341 -0.9705
  250ccc    H15 6511   6.218   7.990   2.610  2.4566 -0.4540 -1.0947
  250ccc    H16 6512   6.164   7.954   2.442  0.6441 -0.2163 -1.2814
  250ccc    C10 6513   6.308   7.826   2.513 -0.7041  0.0408  0.1026
  250ccc     O4 6514   6.419   7.868   2.504  0.4342 -0.3467  0.4130
  250ccc     O5 6515   6.301   7.716   2.459 -0.1107 -0.2083 -0.1331
  251ccc     N1 6516   6.052   8.444   2.039 -0.0488  1.1278 -0.3886
  251ccc     H4 6517   6.077   8.381   2.115 -2.0470 -1.9862 -2.0802
  251ccc     C3 6518   6.044   8.376   1.909  0.1286  0.3204 -0.0217
  251ccc     H5 6519   5.954   8.314   1.913 -0.3582  1.0710  1.0083
  251ccc     C4 6520   6.168   8.293   1.871  0.1833  0.5351  0.1404
  251ccc     H6 6521   6.037   8.459   1.837 -0.8838  2.0240  1.9510
  251ccc     H7 6522   6.253   8.352   1.833  1.1594 -0.8791  0.0648
  251ccc     H8 6523   6.145   8.231   1.784 -2.5031 -3.7337  3.4980
  251ccc     N2 6524   6.219   8.196   1.975 -0.1640 -0.5167 -0.0670
  251ccc     C5 6525   6.355   8.155   1.943 -0.5087  0.4826 -1.2565
  251ccc     C6 6526   6.127   8.096   2.023 -0.3778 -0.1785 -0.4707
  251ccc     H9 6527   6.023   8.129   2.017  0.3633  2.1970 -1.0059
  251ccc     C7 6528   6.145   8.039   2.165 -0.6660  0.6188 -0.6378
  251ccc    H10 6529   6.121   8.016   1.949 -2.2642  0.5827 -1.1873
  251ccc    H11 6530   6.047   7.994   2.186 -0.3768  0.0735 -0.4324
  251ccc    H12 6531   6.163   8.121   2.236  0.4250 -1.6706  1.9124
  251ccc     C8 6532   6.256   7.934   2.183  0.0595 -0.0095 -0.8459
  251ccc     O2 6533   6.243   7.820   2.152 -0.5125  0.2947 -0.5805
  251ccc     O3 6534   6.366   7.965   2.221 -0.3110 -0.4563 -0.0940
  251ccc    H13 6535   6.407   8.119   2.033 -2.0526  1.1656 -0.0364
  251ccc    H14 6536   6.417   8.241   1.914 -0.9040  1.0806 -0.3895
  251ccc     C9 6537   6.371   8.043   1.840 -0.4832  0.6849  0.4765
  251ccc    H15 6538   6.331   8.094   1.752 -1.0350  1.9420  1.4376
  251ccc    H16 6539   6.311   7.954   1.863 -0.3283  0.7036  0.9576
  251ccc    C10 6540   6.514   7.986   1.839  0.8945  0.1369  0.7892
  251ccc     O4 6541   6.607   8.029   1.773 -0.6436  0.0878  0.7009
  251ccc     O5 6542   6.533   7.878   1.900 -0.0123  0.1958 -0.1513
  252ccc     N1 6543   6.072   8.909   3.776 -0.3628 -0.1550  0.8126
  252ccc     H4 6544   6.027   8.822   3.803  0.5217 -1.1181 -0.6953
  252ccc     C3 6545   6.105   9.020   3.862  0.4516 -0.7212 -0.2664
  252ccc     H5 6546   6.147   8.988   3.958 -0.0609 -0.2282  0.1307
  252ccc     C4 6547   5.980   9.110   3.896 -0.0888 -0.2868 -0.2738
  252ccc     H6 6548   6.184   9.077   3.810  1.8476 -2.5146 -0.2036
  252ccc     H7 6549   5.908   9.040   3.941  0.6432 -1.5054 -0.9325
  252ccc     H8 6550   5.929   9.150   3.808 -0.7177 -2.1491 -0.7943
  252ccc     N2 6551   6.003   9.218   3.994  0.5035 -0.1636  0.7684
  252ccc     C5 6552   6.041   9.177   4.132 -0.0448  0.1434 -0.0970
  252ccc     C6 6553   6.091   9.332   3.943  0.6085  0.4770 -0.2602
  252ccc     H9 6554   6.114   9.405   4.021 -0.2910  0.5003 -0.0132
  252ccc     C7 6555   6.053   9.410   3.813 -0.5291 -0.0787  0.4647
  252ccc    H10 6556   6.188   9.282   3.931  1.0739  0.5162  2.5601
  252ccc    H11 6557   5.947   9.435   3.827 -1.4809 -2.7466 -1.0307
  252ccc    H12 6558   6.057   9.337   3.730 -2.0695  1.3854 -0.9653
  252ccc     C8 6559   6.135   9.534   3.787 -0.6809  0.3426 -0.2312
  252ccc     O2 6560   6.198   9.594   3.874  0.0043 -0.4255 -0.0509
  252ccc     O3 6561   6.146   9.577   3.670 -0.1344 -0.0166 -0.1372
  252ccc    H13 6562   6.150   9.161   4.133 -0.1634 -0.8899 -1.4991
  252ccc    H14 6563   5.985   9.086   4.157 -0.8744  0.2534 -1.4836
  252ccc     C9 6564   6.020   9.284   4.238  0.6293  0.3463  0.0630
  252ccc    H15 6565   5.919   9.329   4.236  0.2021 -0.5856 -1.8285
  252ccc    H16 6566   6.094   9.364   4.238  0.0624  0.8902 -0.8267
  252ccc    C10 6567   6.032   9.208   4.372  0.7419  0.3794 -0.0185
  252ccc     O4 6568   6.135   9.203   4.438 -0.0691 -0.0575  0.3502
  252ccc     O5 6569   5.931   9.141   4.398 -0.2627 -0.5815  0.7396
  253ccc     N1 6570   5.972   8.284   3.303  0.3545 -0.7462 -1.1579
  253ccc     H4 6571   5.975   8.320   3.208  0.5084 -0.5752 -1.0870
  253ccc     C3 6572   6.023   8.149   3.340 -0.2385  0.5035  0.4726
  253ccc     H5 6573   6.106   8.120   3.273 -0.9607  1.4207 -0.8546
  253ccc     C4 6574   5.913   8.042   3.323 -1.1022 -0.6112 -0.6213
  253ccc     H6 6575   6.055   8.130   3.443 -0.0440 -2.3896 -0.0357
  253ccc     H7 6576   5.858   8.045   3.229 -2.3878 -0.8486  0.1056
  253ccc     H8 6577   5.838   8.058   3.401 -0.5472  0.6274 -0.3097
  253ccc     N2 6578   5.965   7.905   3.333 -0.6068  0.0060 -0.6331
  253ccc     C5 6579   5.867   7.804   3.313 -0.2690 -0.0683  0.2181
  253ccc     C6 6580   6.039   7.877   3.463 -0.0225  0.0749  0.5873
  253ccc     H9 6581   6.068   7.771   3.457 -2.1152 -0.4906 -1.0948
  253ccc     C7 6582   5.974   7.904   3.599  1.3430 -0.0958  0.3128
  253ccc    H10 6583   6.134   7.930   3.463 -0.0397  0.1190  1.2429
  253ccc    H11 6584   5.884   7.846   3.622 -0.3908  1.4638 -2.0881
  253ccc    H12 6585   5.949   8.010   3.604 -0.6620 -0.5753  3.9415
  253ccc     C8 6586   6.088   7.883   3.707 -0.3941 -0.4510 -0.1782
  253ccc     O2 6587   6.097   7.968   3.793  1.2158 -0.2098 -0.0813
  253ccc     O3 6588   6.183   7.804   3.700  0.2982  0.1793  0.1675
  253ccc    H13 6589   5.808   7.779   3.402  2.5369 -4.7235  1.1398
  253ccc    H14 6590   5.928   7.713   3.304 -2.2526 -1.5934  1.2857
  253ccc     C9 6591   5.772   7.820   3.200  0.5663 -0.6741  0.3457
  253ccc    H15 6592   5.815   7.843   3.101  0.2382 -0.2528  0.2951
  253ccc    H16 6593   5.707   7.905   3.226  1.1661 -0.2408  0.4613
  253ccc    C10 6594   5.678   7.705   3.175 -0.3061 -0.0251  0.5037
  253ccc     O4 6595   5.718   7.586   3.175  0.8460 -0.4048  0.2219
  253ccc     O5 6596   5.565   7.728   3.127  0.0364  0.0026 -0.2827
  254SOL     OW 6597   1.568   0.349   5.709  0.4122  0.1462  0.3712
  254SOL    HW1 6598   1.489   0.398   5.686  0.5346  0.5567  0.7885
  254SOL    HW2 6599   1.634   0.380   5.646  0.3855  0.2332  0.3848
  255SOL     OW 6600   4.911   1.379   4.734  0.2655 -0.3421 -0.0707
  255SOL    HW1 6601   4.900   1.442   4.663  0.0876  1.7578  1.7171
  255SOL    HW2 6602   4.822   1.365   4.768  0.1251 -2.5164 -1.1224
  256SOL     OW 6603   6.133   6.228   4.323  0.7389  0.0777  0.1834
  256SOL    HW1 6604   6.225   6.205   4.316  1.0954  1.4769  0.1330
  256SOL    HW2 6605   6.097   6.211   4.236  0.8970 -0.6326  0.2493
  257SOL     OW 6606   0.915   7.453  10.865 -0.1779 -0.2836 -0.3642
  257SOL    HW1 6607   0.992   7.418  10.909  0.2577 -0.0627 -0.9350
  257SOL    HW2 6608   0.843   7.437  10.925  0.0702 -1.8457 -0.4524
  258SOL     OW 6609   7.007   3.028   5.800 -0.1965 -0.0459  0.4695
  258SOL    HW1 6610   6.995   2.935   5.780  1.2241 -0.1845  0.2022
  258SOL    HW2 6611   7.072   3.058   5.737  0.8320  0.6527  1.8187
  259SOL     OW 6612   1.748   1.533   5.845 -0.1429  0.6397  0.0462
  259SOL    HW1 6613   1.729   1.486   5.926  0.0828  1.4755  0.5866
  259SOL    HW2 6614   1.662   1.547   5.805 -0.1268 -2.0994 -1.2348
  260SOL     OW 6615   0.822   4.017   0.334  0.0346 -0.0056  0.3786
  260SOL    HW1 6616   0.738   3.974   0.317 -0.4940  0.4711  1.6302
  260SOL    HW2 6617   0.819   4.096   0.280 -0.7848  0.5222  1.1626
  261SOL     OW 6618   7.032   7.029   1.214 -0.6960 -0.3926  0.3032
  261SOL    HW1 6619   7.089   6.979   1.156 -0.1319  0.4542  0.0999
  261SOL    HW2 6620   7.025   6.976   1.293  0.8937 -0.2503  0.5780
  262SOL     OW 6621   8.866   1.142   9.696 -0.2380 -0.5755 -0.8224
  262SOL    HW1 6622   8.954   1.180   9.695  0.4728 -2.1312 -0.6289
  262SOL    HW2 6623   8.866   1.081   9.622 -1.2059 -0.4930 -0.8992
  263SOL     OW 6624   0.146   1.273   2.652  0.0806  0.1584 -0.0012
  263SOL    HW1 6625   0.090   1.205   2.689  0.9018 -0.0287  0.9479
  263SOL    HW2 6626   0.233   1.235   2.651  0.5220  1.1201  0.3577
  264SOL     OW 6627   7.234   6.979   9.756 -0.2224 -0.6457 -0.0344
  264SOL    HW1 6628   7.286   6.975   9.675  0.3819 -1.8444  0.3922
  264SOL    HW2 6629   7.149   7.015   9.728 -0.0643 -1.1526 -1.2334
  265SOL     OW 6630   0.263   0.731   1.873  0.4497 -0.1713 -0.3226
  265SOL    HW1 6631   0.171   0.720   1.850 -0.2764  2.5851  0.8011
  265SOL    HW2 6632   0.285   0.652   1.923 -1.1398 -1.0991 -1.0184
  266SOL     OW 6633   4.601   4.407   8.034 -0.2580  0.1797 -0.0521
  266SOL    HW1 6634   4.620   4.470   8.103  0.6280 -1.5982  1.4066
  266SOL    HW2 6635   4.515   4.372   8.057  0.4024 -1.0260  0.6912
  267SOL     OW 6636   9.284   0.765   0.195 -0.2137 -0.1422  0.3393
  267SOL    HW1 6637   9.295   0.859   0.207  0.5947 -0.3123  1.0505
  267SOL    HW2 6638   9.194   0.754   0.165  0.0925  0.9667 -1.0537
  268SOL     OW 6639   9.821   8.229   1.341  0.5183  0.1060  0.3056
  268SOL    HW1 6640   9.870   8.190   1.414 -0.6107 -0.1603  0.9509
  268SOL    HW2 6641   9.836   8.170   1.267  0.9008 -0.1534  0.5879
  269SOL     OW 6642   5.311  10.329   7.764  0.0837 -0.2046 -0.3778
  269SOL    HW1 6643   5.270  10.329   7.678  0.1410 -0.4306 -0.4062
  269SOL    HW2 6644   5.295  10.241   7.798  0.5568 -0.2989 -0.3966
  270SOL     OW 6645   1.110   7.339   2.812  0.2124 -1.0901 -0.2010
  270SOL    HW1 6646   1.135   7.265   2.867  1.0578 -1.1326 -0.6133
  270SOL    HW2 6647   1.114   7.304   2.723 -2.0251 -1.2751 -0.2772
  271SOL     OW 6648  10.188   2.972   0.908 -0.2755  0.0425 -0.6078
  271SOL    HW1 6649  10.170   2.882   0.936  4.8709 -1.4757 -1.2241
  271SOL    HW2 6650  10.187   2.968   0.813  1.2146  0.2422 -0.6548
  272SOL     OW 6651   7.296   6.219   9.087  0.3915  0.4738 -0.2497
  272SOL    HW1 6652   7.287   6.145   9.028 -1.3991  0.0188  0.5281
  272SOL    HW2 6653   7.219   6.214   9.144 -0.3753  3.5234 -0.8304
  273SOL     OW 6654   2.369   3.272   6.202  0.2851 -0.0886  0.9114
  273SOL    HW1 6655   2.334   3.269   6.292 -2.0468 -0.5823  0.0710
  273SOL    HW2 6656   2.344   3.359   6.170 -1.5565 -0.9354 -0.1541
  274SOL     OW 6657   2.901   8.155   3.421  0.3664  0.4056  0.4002
  274SOL    HW1 6658   2.888   8.072   3.467  1.7834  0.0912  0.2713
  274SOL    HW2 6659   2.959   8.133   3.348 -1.6448  0.9277 -1.4601
  275SOL     OW 6660   3.559   4.129   8.321 -0.0383  0.3024  0.3083
  275SOL    HW1 6661   3.519   4.192   8.381 -0.9769  0.2340 -0.2328
  275SOL    HW2 6662   3.503   4.052   8.325 -0.1653  0.3237 -0.7102
  276SOL     OW 6663   1.036   9.700   0.811 -0.4175  0.0776  0.5939
  276SOL    HW1 6664   1.127   9.712   0.836 -0.2756 -0.1752  0.2092
  276SOL    HW2 6665   1.038   9.632   0.744 -0.6620  1.4825 -0.8954
  277SOL     OW 6666   3.971   7.281   2.625  0.4608  0.1026  0.6613
  277SOL    HW1 6667   3.986   7.273   2.531  1.9028 -1.2798  0.9598
  277SOL    HW2 6668   4.056   7.307   2.661 -0.0868  0.6744  1.5920
  278SOL     OW 6669   8.957   4.687   1.105 -0.7145 -0.4230 -0.1168
  278SOL    HW1 6670   9.017   4.707   1.177  1.5408  0.1717 -2.0819
  278SOL    HW2 6671   8.923   4.772   1.078  0.6616 -0.3009 -1.5644
  279SOL     OW 6672   7.694   1.161   1.077  0.0978  0.3379  0.2832
  279SOL    HW1 6673   7.609   1.192   1.107 -0.4795 -0.7374 -0.2026
  279SOL    HW2 6674   7.699   1.188   0.985 -0.6830 -1.4867 -0.3333
  280SOL     OW 6675  10.644   3.461   5.588 -0.0081 -0.0779 -0.0324
  280SOL    HW1 6676  10.587   3.458   5.512  1.7294 -0.2749 -1.3793
  280SOL    HW2 6677  10.595   3.415   5.657 -1.6301  0.1632 -0.9910
  281SOL     OW 6678   4.272   8.344   6.805 -0.3000 -0.3339  0.1202
  281SOL    HW1 6679   4.306   8.342   6.895  2.8898 -0.5877 -0.9458
  281SOL    HW2 6680   4.225   8.261   6.796 -0.7177 -0.2769  1.5730
  282SOL     OW 6681   6.314   2.568   1.199  0.1154  0.6288  0.1502
  282SOL    HW1 6682   6.362   2.495   1.237  0.1466  0.7181  0.2836
  282SOL    HW2 6683   6.259   2.528   1.131  0.4019  0.5311 -0.0275
  283SOL     OW 6684   0.828  10.822   7.100  0.3180  0.2487  0.0468
  283SOL    HW1 6685   0.748  10.775   7.126  0.2907  0.3580  0.1632
  283SOL    HW2 6686   0.898  10.759   7.113  0.5073  0.8013  1.9518
  284SOL     OW 6687   9.733   9.346   9.665  0.2234  0.3198  0.1075
  284SOL    HW1 6688   9.671   9.301   9.608  1.5799  0.1281 -1.2556
  284SOL    HW2 6689   9.818   9.333   9.624  1.2090  0.5265  1.9635
  285SOL     OW 6690   4.571  10.864   3.345 -0.1246 -0.3683 -0.2057
  285SOL    HW1 6691   4.601  10.948   3.379 -0.0932 -0.1667 -0.7222
  285SOL    HW2 6692   4.535  10.818   3.421 -1.5830  0.7354 -0.1883
  286SOL     OW 6693   1.474  10.120   8.234 -0.4658  0.3411  0.8906
  286SOL    HW1 6694   1.522  10.083   8.159 -2.3103 -0.0435 -0.1476
  286SOL    HW2 6695   1.497  10.213   8.233 -0.5214  0.3524 -0.1912
  287SOL     OW 6696   9.317   8.912   7.908 -0.0586  0.3541  0.0556
  287SOL    HW1 6697   9.384   8.878   7.967 -1.2312 -2.1191  0.0892
  287SOL    HW2 6698   9.241   8.927   7.964  0.1893  2.4662 -0.0983
  288SOL     OW 6699   8.267   9.973  10.456  0.0770 -0.1549  1.0490
  288SOL    HW1 6700   8.250  10.047  10.397  1.5652 -1.4487 -1.1273
  288SOL    HW2 6701   8.299  10.014  10.537  0.2935  1.6149  0.1152
  289SOL     OW 6702   6.722   4.601   0.479 -0.7442 -0.1623 -0.2345
  289SOL    HW1 6703   6.689   4.531   0.423 -0.5176  0.2101 -0.8438
  289SOL    HW2 6704   6.800   4.634   0.434  0.2939 -0.7901  0.9984
  290SOL     OW 6705   3.028   9.961   6.508 -0.1823 -0.4272 -0.2436
  290SOL    HW1 6706   3.054  10.051   6.490 -0.0774 -0.4173 -0.0330
  290SOL    HW2 6707   2.980   9.965   6.590  0.7731 -0.7250  0.3419
  291SOL     OW 6708   4.446   3.980   8.683 -0.3043  0.3602 -0.3719
  291SOL    HW1 6709   4.506   3.906   8.693 -1.0116 -0.2354 -0.4254
  291SOL    HW2 6710   4.442   3.995   8.589 -1.3119 -0.5211 -0.4843
  292SOL     OW 6711   8.906   1.394  10.878 -0.1498  0.0724 -0.2087
  292SOL    HW1 6712   8.893   1.487  10.861 -0.8138  0.1533  0.6746
  292SOL    HW2 6713   8.825   1.365  10.918  0.3050 -0.7388  0.1562
  293SOL     OW 6714   2.680   6.187   6.776 -0.6455  0.1674  0.4372
  293SOL    HW1 6715   2.702   6.241   6.852 -1.2070 -0.0921  0.7982
  293SOL    HW2 6716   2.667   6.250   6.705  3.6386  0.2433 -0.5249
  294SOL     OW 6717   0.439   4.555   1.279  0.0826 -0.2312 -0.4759
  294SOL    HW1 6718   0.432   4.617   1.206  2.3453 -0.0486 -0.5921
  294SOL    HW2 6719   0.373   4.585   1.341  0.6586  1.9391 -0.8114
  295SOL     OW 6720   8.760   4.643   3.387 -0.2997  0.1133 -0.1429
  295SOL    HW1 6721   8.716   4.562   3.414  1.1606 -0.1807  1.5198
  295SOL    HW2 6722   8.709   4.713   3.428  1.2919 -0.2766  2.7239
  296SOL     OW 6723   0.717   6.515  10.756  0.2702 -0.4122 -0.2877
  296SOL    HW1 6724   0.734   6.512  10.662 -0.9471  0.5828 -0.5813
  296SOL    HW2 6725   0.755   6.598  10.785 -0.6590  0.0137 -0.2280
  297SOL     OW 6726   7.572   5.627   1.869 -0.0319 -0.0424 -0.0450
  297SOL    HW1 6727   7.646   5.669   1.825 -0.2460  2.0836  1.4883
  297SOL    HW2 6728   7.496   5.651   1.816  0.1637 -1.0748 -0.8396
  298SOL     OW 6729   4.900   1.616   0.144  0.2622 -0.3417 -0.2677
  298SOL    HW1 6730   4.926   1.643   0.232 -0.0522 -2.5064  0.5499
  298SOL    HW2 6731   4.889   1.698   0.096  0.2326  0.9067  1.7619
  299SOL     OW 6732   3.528   5.996   9.801 -0.2458  0.0383  0.5962
  299SOL    HW1 6733   3.447   5.964   9.761 -0.2628 -1.0125  1.4534
  299SOL    HW2 6734   3.568   6.051   9.733 -0.4374 -1.4358 -0.7568
  300SOL     OW 6735   0.414   6.662   5.261  0.0366 -0.2178  0.4195
  300SOL    HW1 6736   0.440   6.570   5.272 -1.2539 -0.9322 -1.8494
  300SOL    HW2 6737   0.489   6.703   5.219  1.1943  0.1866  2.7513
  301SOL     OW 6738   5.601   3.844   2.937 -0.1670  0.2498  0.1400
  301SOL    HW1 6739   5.542   3.919   2.936 -1.4641 -0.7062  1.6001
  301SOL    HW2 6740   5.663   3.863   3.008  2.1663  1.7999 -2.1122
  302SOL     OW 6741   2.527   7.353  10.466  0.1533 -0.2191 -0.0433
  302SOL    HW1 6742   2.539   7.286  10.534 -0.1379  0.3885  0.6254
  302SOL    HW2 6743   2.550   7.309  10.384  1.9929 -0.5318  0.6043
  303SOL     OW 6744   3.328  10.289   7.017  0.4779  0.6074  0.4186
  303SOL    HW1 6745   3.294  10.308   6.930 -0.5750 -0.7305  0.4993
  303SOL    HW2 6746   3.295  10.360   7.072 -0.5228  0.4104  0.0897
  304SOL     OW 6747   7.735   4.472   5.685  0.5369 -0.0857 -0.2433
  304SOL    HW1 6748   7.771   4.387   5.710  0.2704 -0.0330  0.3263
  304SOL    HW2 6749   7.667   4.490   5.750  0.7259  0.6539 -0.2407
  305SOL     OW 6750   3.811   0.523   3.615 -0.6728 -0.1483 -0.3568
  305SOL    HW1 6751   3.799   0.580   3.539  0.5614 -0.2933 -0.6880
  305SOL    HW2 6752   3.778   0.574   3.689  0.1020  0.8817 -0.6969
  306SOL     OW 6753   0.274   8.566   3.943 -0.5199  0.5256 -0.6339
  306SOL    HW1 6754   0.294   8.567   3.849  1.2286 -0.1530 -0.3049
  306SOL    HW2 6755   0.359   8.556   3.986 -1.3536  0.0418  1.0016
  307SOL     OW 6756   1.495   4.059  10.495 -0.4154 -0.0656 -0.2109
  307SOL    HW1 6757   1.418   4.117  10.498 -1.1033 -0.9617 -0.2685
  307SOL    HW2 6758   1.468   3.981  10.543  0.0631 -0.8609 -1.2095
  308SOL     OW 6759   9.158   6.825  10.071 -0.4885  0.2808 -0.0559
  308SOL    HW1 6760   9.070   6.788  10.065 -0.0531 -0.7445 -0.4133
  308SOL    HW2 6761   9.214   6.750  10.091  0.2940  0.9412  0.2995
  309SOL     OW 6762   8.229   4.232  10.002  0.2687 -0.1429 -0.3270
  309SOL    HW1 6763   8.289   4.234   9.927 -0.1897  2.4159 -0.7323
  309SOL    HW2 6764   8.145   4.207   9.964  0.0533  1.0784 -0.7129
  310SOL     OW 6765   2.242   1.058   8.847  0.0853  0.2463 -0.2061
  310SOL    HW1 6766   2.310   1.090   8.788 -0.8076  1.9093 -0.4049
  310SOL    HW2 6767   2.288   1.040   8.929  0.7389  1.6987 -0.2158
  311SOL     OW 6768   7.816  10.165   1.914 -0.6467  0.6319 -0.3045
  311SOL    HW1 6769   7.860  10.179   1.830  0.6164  0.5210  0.3013
  311SOL    HW2 6770   7.723  10.167   1.893 -0.3727 -1.0312 -1.9745
  312SOL     OW 6771   2.532   4.991  10.354  0.1681  0.1624 -0.0262
  312SOL    HW1 6772   2.557   4.990  10.447  0.6996  0.0244 -0.1650
  312SOL    HW2 6773   2.588   4.925  10.314 -1.7553 -1.5546 -0.0392
  313SOL     OW 6774   9.382   7.529   0.393 -0.3529 -0.3686  0.3828
  313SOL    HW1 6775   9.322   7.565   0.458 -0.6005 -2.2661  1.2728
  313SOL    HW2 6776   9.431   7.462   0.440  1.1014 -0.2249 -0.8322
  314SOL     OW 6777   3.818   9.446  10.272 -0.5846 -0.0809  0.0123
  314SOL    HW1 6778   3.803   9.455  10.178  0.0408 -0.3259 -0.1170
  314SOL    HW2 6779   3.862   9.528  10.297  2.1317 -1.2424 -0.5387
  315SOL     OW 6780   5.102   5.987   2.814  0.2277  0.0772  0.0307
  315SOL    HW1 6781   5.161   5.938   2.872 -0.2083  1.8580  2.0999
  315SOL    HW2 6782   5.046   6.037   2.873 -1.5708  0.5309 -1.9249
  316SOL     OW 6783   9.673   1.889   5.420 -0.0774 -0.4497  0.6581
  316SOL    HW1 6784   9.756   1.874   5.466 -0.7354 -2.3317  1.3307
  316SOL    HW2 6785   9.690   1.964   5.364  2.1818 -0.9858  0.5297
  317SOL     OW 6786   7.754   0.953   7.573  0.1648 -0.1177  0.0912
  317SOL    HW1 6787   7.686   0.903   7.527  0.4320 -0.8369  0.4724
  317SOL    HW2 6788   7.732   1.045   7.554 -0.2742 -0.3694 -0.6942
  318SOL     OW 6789  10.449   9.356   3.660  0.0761 -0.3771  0.1340
  318SOL    HW1 6790  10.446   9.263   3.636  2.7387 -0.3728 -0.5462
  318SOL    HW2 6791  10.372   9.369   3.715 -1.5809 -2.4576 -1.5029
  319SOL     OW 6792   1.014   0.100   7.425  0.5085 -0.0593  0.0247
  319SOL    HW1 6793   1.024   0.021   7.372  2.1516  0.7585 -0.9734
  319SOL    HW2 6794   1.046   0.075   7.512 -1.4693 -1.1968  0.4684
  320SOL     OW 6795   9.697   6.531  10.021  0.1404 -0.8154 -0.2474
  320SOL    HW1 6796   9.686   6.596   9.952 -0.3814  1.3790  1.7777
  320SOL    HW2 6797   9.608   6.513  10.052  0.2105 -2.9650 -1.0639
  321SOL     OW 6798   2.692   6.353   9.070  0.2325  0.6407  0.1823
  321SOL    HW1 6799   2.631   6.292   9.112  0.8358 -1.1098 -1.3644
  321SOL    HW2 6800   2.637   6.405   9.011 -0.1554  1.0296  0.8722
  322SOL     OW 6801   4.827   6.603  10.488  0.2804 -0.5101  0.4659
  322SOL    HW1 6802   4.862   6.560  10.566  1.2192 -0.4318  0.0970
  322SOL    HW2 6803   4.733   6.610  10.505  0.7340  1.4963  2.5715
  323SOL     OW 6804   5.487  10.003   4.418 -0.1343  0.2161 -0.2568
  323SOL    HW1 6805   5.404  10.039   4.450  0.2068  0.8048 -0.0023
  323SOL    HW2 6806   5.552  10.034   4.481  0.1504 -1.0842  0.1170
  324SOL     OW 6807   6.481   2.723   5.576 -0.2659 -0.0775 -0.3848
  324SOL    HW1 6808   6.562   2.737   5.526 -0.7855 -0.4800 -1.3829
  324SOL    HW2 6809   6.411   2.743   5.513 -0.9382 -0.5143  0.2190
  325SOL     OW 6810   1.015   1.710   1.444 -0.5751 -0.4542  0.6176
  325SOL    HW1 6811   0.991   1.729   1.535  0.7578  1.3570  0.6532
  325SOL    HW2 6812   1.079   1.778   1.422  0.0885 -1.6354 -1.2777
  326SOL     OW 6813   4.278   3.261  10.635 -0.3558 -0.0665  0.0647
  326SOL    HW1 6814   4.231   3.344  10.637  0.3434  0.3555 -0.8303
  326SOL    HW2 6815   4.369   3.284  10.651 -0.2674 -0.7623  0.6365
  327SOL     OW 6816   1.377   6.200  10.142 -0.2479  0.0148 -1.1730
  327SOL    HW1 6817   1.345   6.120  10.102 -0.5634  0.2045 -1.3026
  327SOL    HW2 6818   1.308   6.265  10.126  1.1812  1.0603 -3.4700
  328SOL     OW 6819   3.516   2.515  10.152 -0.0467  0.2265 -0.0448
  328SOL    HW1 6820   3.525   2.519  10.247  0.5030 -0.9839 -0.0319
  328SOL    HW2 6821   3.481   2.601  10.128 -0.0448  0.6046  1.2269
  329SOL     OW 6822   4.472   9.459   7.495 -0.1422  0.4181  0.2809
  329SOL    HW1 6823   4.443   9.473   7.585 -0.8986  2.3109 -0.2114
  329SOL    HW2 6824   4.557   9.501   7.490 -0.2628  0.6309  0.0112
  330SOL     OW 6825   9.242   3.925   2.290 -0.2621 -0.0888 -0.0533
  330SOL    HW1 6826   9.298   3.989   2.246 -1.7696  1.3393  0.0364
  330SOL    HW2 6827   9.181   3.896   2.222 -0.4373 -0.4258  0.2470
  331SOL     OW 6828   8.098   2.905   8.526  0.2438  0.4489 -0.8224
  331SOL    HW1 6829   8.116   2.895   8.433 -2.8126  0.0130 -1.4904
  331SOL    HW2 6830   8.039   2.981   8.532 -1.6487 -1.0037  0.3601
  332SOL     OW 6831   9.743   5.909   4.032 -0.5972 -0.1419  0.1763
  332SOL    HW1 6832   9.668   5.957   4.068 -1.0871 -0.7873  0.0339
  332SOL    HW2 6833   9.717   5.888   3.942  0.3200  0.8210 -0.3392
  333SOL     OW 6834   8.148   0.128   4.388  0.0194 -0.6429  0.3364
  333SOL    HW1 6835   8.142   0.145   4.482  1.5896 -1.7192  0.6691
  333SOL    HW2 6836   8.117   0.038   4.378  2.7377 -1.6663  0.3261
  334SOL     OW 6837   9.227   5.424   2.976  0.0252  0.3801 -0.4762
  334SOL    HW1 6838   9.227   5.496   2.913 -0.8006 -0.0378 -0.9834
  334SOL    HW2 6839   9.301   5.441   3.033  0.6061  0.9362 -1.3798
  335SOL     OW 6840   2.028   5.173   0.284  0.6076 -0.5834  0.5675
  335SOL    HW1 6841   2.056   5.229   0.211 -0.0610 -1.1896 -0.1857
  335SOL    HW2 6842   2.007   5.234   0.354  1.7510 -0.0085  0.4371
  336SOL     OW 6843   6.960   2.820   5.242 -0.2858 -0.8473 -0.2049
  336SOL    HW1 6844   6.896   2.750   5.223 -1.7356  0.6000 -0.9607
  336SOL    HW2 6845   6.914   2.901   5.218  0.1042  0.6972  3.6307
  337SOL     OW 6846   2.457   1.045   9.079  0.2061 -0.1882 -0.0688
  337SOL    HW1 6847   2.466   1.115   9.144 -0.3297 -0.1187 -0.0622
  337SOL    HW2 6848   2.463   0.964   9.130 -0.6239 -0.1312  0.1296
  338SOL     OW 6849   5.801   8.127   0.690 -0.5718 -0.3441 -0.5482
  338SOL    HW1 6850   5.879   8.178   0.666 -0.2556 -0.6746 -0.2310
  338SOL    HW2 6851   5.809   8.047   0.639 -1.9739  0.6251 -2.4231
  339SOL     OW 6852   8.659   0.125   5.387 -0.1266  0.1619 -0.3404
  339SOL    HW1 6853   8.724   0.173   5.337 -1.0741  2.2148  0.3033
  339SOL    HW2 6854   8.576   0.166   5.364 -0.7722  0.0809  1.6506
  340SOL     OW 6855   4.304   9.020   3.906 -0.1448 -0.2255  0.1894
  340SOL    HW1 6856   4.396   9.047   3.897 -0.0806 -0.1264  1.1153
  340SOL    HW2 6857   4.255   9.085   3.855  0.2661 -0.1003 -0.0534
  341SOL     OW 6858   4.987   1.415   2.329 -0.1807  0.2140  0.0278
  341SOL    HW1 6859   5.078   1.417   2.299 -0.1116 -1.9340 -0.1016
  341SOL    HW2 6860   4.990   1.454   2.416  1.0095 -0.4200  0.3023
  342SOL     OW 6861   8.906  10.468  10.496 -0.4841 -0.5673  0.4948
  342SOL    HW1 6862   8.871  10.428  10.576 -0.6888 -0.2222  0.5789
  342SOL    HW2 6863   8.926  10.394  10.439 -0.4060 -0.8122  0.8386
  343SOL     OW 6864   3.952   3.035   7.784  0.1416 -0.7222  0.2722
  343SOL    HW1 6865   3.980   3.125   7.797  0.1884 -0.6144 -0.5458
  343SOL    HW2 6866   3.992   3.008   7.701 -2.6442 -0.3219 -1.3564
  344SOL     OW 6867   4.086  10.906   6.832 -0.6356 -0.3051  0.5262
  344SOL    HW1 6868   4.015  10.861   6.877 -1.1901 -1.2237 -1.1870
  344SOL    HW2 6869   4.070  10.999   6.848 -2.4913 -0.4678 -0.1823
  345SOL     OW 6870  10.179   4.162   9.670 -0.1759 -0.1110  0.3170
  345SOL    HW1 6871  10.163   4.188   9.580 -0.0137 -0.8487  0.0632
  345SOL    HW2 6872  10.121   4.217   9.722 -0.0903  0.4940 -0.2124
  346SOL     OW 6873   2.690   4.773   0.276  0.1646 -0.0693  0.1187
  346SOL    HW1 6874   2.701   4.855   0.324  0.9884 -0.9124  1.4635
  346SOL    HW2 6875   2.613   4.787   0.221 -0.4447  1.1789  1.2298
  347SOL     OW 6876   5.550   1.007   6.154  0.5075 -0.1063 -0.1554
  347SOL    HW1 6877   5.476   0.953   6.126 -0.1928  0.3049  0.8345
  347SOL    HW2 6878   5.619   0.944   6.176  0.1632 -0.5343 -0.2901
  348SOL     OW 6879   4.629   2.266   8.145  0.2337 -0.5844  0.9161
  348SOL    HW1 6880   4.692   2.247   8.215 -0.9778 -2.9113  1.4759
  348SOL    HW2 6881   4.585   2.346   8.173  1.8856  0.2859  1.2175
  349SOL     OW 6882   4.220   9.768   2.529  0.4316  0.2752 -0.2131
  349SOL    HW1 6883   4.276   9.824   2.583  1.8531  0.5843 -1.9378
  349SOL    HW2 6884   4.175   9.828   2.469 -0.3378 -0.1610 -0.0906
  350SOL     OW 6885   8.021   4.836   0.924 -0.8117  0.1116  0.0878
  350SOL    HW1 6886   7.984   4.904   0.868  1.7638 -0.3350 -2.3802
  350SOL    HW2 6887   7.960   4.763   0.915 -1.1413  0.5045 -1.1094
  351SOL     OW 6888   2.674   6.599   0.971  0.5918  0.5684  0.2969
  351SOL    HW1 6889   2.597   6.654   0.956 -1.4599 -2.2475 -0.2907
  351SOL    HW2 6890   2.670   6.577   1.064 -0.4028 -0.9743 -0.0744
  352SOL     OW 6891   3.120   9.137   8.910  0.3254  0.0868 -0.1970
  352SOL    HW1 6892   3.110   9.230   8.889 -0.1251 -0.0356 -0.5608
  352SOL    HW2 6893   3.114   9.093   8.825 -2.8229 -0.5326  0.1955
  353SOL     OW 6894   9.998   6.637   5.795 -0.6162  0.5812 -0.2195
  353SOL    HW1 6895   9.926   6.635   5.731  1.1685 -0.6383 -2.3579
  353SOL    HW2 6896  10.077   6.643   5.742  1.0519 -1.4758  1.7930
  354SOL     OW 6897   3.101   0.129   9.711 -0.2023  0.5693  0.1427
  354SOL    HW1 6898   3.008   0.113   9.722 -0.7249  3.0777  0.0673
  354SOL    HW2 6899   3.142   0.095   9.791 -0.9751 -1.5616 -0.3029
  355SOL     OW 6900   3.204   3.590   5.067 -0.4253 -0.1316 -0.2488
  355SOL    HW1 6901   3.288   3.614   5.028 -0.1922 -0.5886 -0.0337
  355SOL    HW2 6902   3.156   3.672   5.073 -1.0952 -0.2455 -2.9654
  356SOL     OW 6903   8.313   3.022   6.241 -0.0364  0.1651  0.5028
  356SOL    HW1 6904   8.329   2.964   6.315 -1.5665 -0.9283  0.0213
  356SOL    HW2 6905   8.218   3.027   6.234  0.0284  2.8094  0.5461
  357SOL     OW 6906   4.007   7.255   7.730  0.2847  0.0081 -0.2587
  357SOL    HW1 6907   3.969   7.341   7.715 -0.4602 -0.4246 -0.9193
  357SOL    HW2 6908   4.033   7.224   7.644 -2.2259 -1.6695 -0.5535
  358SOL     OW 6909   1.883   5.133   7.558  0.0540  0.1215 -0.4872
  358SOL    HW1 6910   1.920   5.046   7.565  0.6256  0.3906 -0.0624
  358SOL    HW2 6911   1.907   5.163   7.470  1.3469  0.4994 -0.0373
  359SOL     OW 6912   2.592   7.705   0.043 -0.1232  0.0685 -0.2042
  359SOL    HW1 6913   2.517   7.649   0.021 -0.6161 -0.1841  1.8882
  359SOL    HW2 6914   2.627   7.668   0.124  0.8388  1.5593  0.1045
  360SOL     OW 6915   1.894   8.068   2.116 -0.0574 -0.0338  0.0289
  360SOL    HW1 6916   1.985   8.095   2.119 -0.4528  1.3372  0.3831
  360SOL    HW2 6917   1.885   8.021   2.033  0.9699 -0.2507  0.0289
  361SOL     OW 6918   5.773   5.215   1.391  0.3064  0.1469  0.6626
  361SOL    HW1 6919   5.804   5.144   1.335 -0.3491  0.5890 -0.2838
  361SOL    HW2 6920   5.730   5.171   1.464 -0.3801 -0.4416 -0.0791
  362SOL     OW 6921   6.400   0.947  10.895 -0.0827  0.1722  0.2859
  362SOL    HW1 6922   6.419   0.887  10.823  2.8854  0.5287  0.6400
  362SOL    HW2 6923   6.433   0.902  10.973 -1.6871  0.5181  1.2034
  363SOL     OW 6924   4.269   5.173   0.720 -0.5403 -0.0018  0.5274
  363SOL    HW1 6925   4.228   5.249   0.678  0.5750  1.4470  1.9449
  363SOL    HW2 6926   4.197   5.127   0.763 -1.0203  1.1558  0.9770
  364SOL     OW 6927   0.039   5.276   9.128  0.2463 -0.2163  0.0412
  364SOL    HW1 6928   0.030   5.192   9.174 -0.8513 -0.1883 -0.0786
  364SOL    HW2 6929  -0.003   5.340   9.186 -1.0684 -0.1694 -0.8998
  365SOL     OW 6930   6.357   0.659   8.364  0.0936  0.1337  0.3237
  365SOL    HW1 6931   6.370   0.753   8.354 -2.3323  0.4464 -0.3794
  365SOL    HW2 6932   6.299   0.635   8.292 -1.1963 -1.4669  1.8032
  366SOL     OW 6933   0.872   9.577   1.273  0.7496  0.9613  0.9321
  366SOL    HW1 6934   0.954   9.624   1.256  0.8233 -0.1453 -2.7912
  366SOL    HW2 6935   0.805   9.631   1.231  0.2274 -0.0892  0.3691
  367SOL     OW 6936   2.057   5.504   8.706  0.2535  0.0958  0.5779
  367SOL    HW1 6937   2.107   5.579   8.672  1.3434 -0.8525  0.0158
  367SOL    HW2 6938   2.057   5.516   8.801 -0.4609  1.3389  0.4330
  368SOL     OW 6939   5.287   4.509   2.532  0.0659 -0.1716 -0.5359
  368SOL    HW1 6940   5.336   4.428   2.547  1.3086  0.5879 -0.3427
  368SOL    HW2 6941   5.220   4.485   2.468 -0.0639 -1.5170  0.0661
  369SOL     OW 6942   7.191   3.482   6.535 -0.1128 -0.0794  0.5258
  369SOL    HW1 6943   7.226   3.393   6.541  0.0900 -0.2938 -2.4226
  369SOL    HW2 6944   7.237   3.530   6.604  0.3082 -2.0590  1.7252
  370SOL     OW 6945   5.117   2.379   8.202 -0.1003  0.2440  0.2633
  370SOL    HW1 6946   5.077   2.405   8.119  0.3863 -1.9119 -0.7258
  370SOL    HW2 6947   5.191   2.324   8.176  0.3546 -0.0838  2.1354
  371SOL     OW 6948   6.876   2.535   6.471 -0.7084 -0.1436  0.3631
  371SOL    HW1 6949   6.832   2.452   6.452  0.1449 -1.0252  2.0623
  371SOL    HW2 6950   6.854   2.590   6.396 -1.5261 -1.7969 -0.6916
  372SOL     OW 6951   3.730  10.765   3.167  0.0192  0.2049  0.6500
  372SOL    HW1 6952   3.643  10.747   3.134  0.3190  1.2394 -0.8097
  372SOL    HW2 6953   3.729  10.859   3.186  1.1929  0.5106 -0.6567
  373SOL     OW 6954   6.537   8.504   5.929 -0.2662  0.6486 -0.0061
  373SOL    HW1 6955   6.597   8.526   5.857  0.0435 -0.3592 -0.0614
  373SOL    HW2 6956   6.593   8.503   6.007 -0.3032  0.1825  0.0142
  374SOL     OW 6957   3.709  10.638   0.910 -0.6201 -0.4087 -0.0095
  374SOL    HW1 6958   3.659  10.712   0.945 -0.9735  0.2695 -1.8359
  374SOL    HW2 6959   3.650  10.563   0.921 -0.5561 -0.3073  1.1741
  375SOL     OW 6960   4.862   0.192   8.044 -0.0130  0.6837 -0.7094
  375SOL    HW1 6961   4.896   0.197   7.954 -2.5195 -0.9610 -1.8724
  375SOL    HW2 6962   4.927   0.237   8.097  1.7887  1.3402 -3.2904
  376SOL     OW 6963   0.848  10.916   3.803 -0.6925  0.2566 -0.4095
  376SOL    HW1 6964   0.857  10.824   3.828 -0.4222  0.7126  1.2403
  376SOL    HW2 6965   0.756  10.924   3.775 -0.4902 -0.6906 -1.4242
  377SOL     OW 6966   4.601   8.484   2.247 -0.2034 -0.0737  0.5978
  377SOL    HW1 6967   4.595   8.467   2.341  1.3702 -1.5059  0.5007
  377SOL    HW2 6968   4.570   8.403   2.206 -0.0147  0.2004 -0.0939
  378SOL     OW 6969  10.659   1.740   4.338 -0.3210  0.2894  0.2450
  378SOL    HW1 6970  10.638   1.662   4.287  1.4971  0.2511 -0.5385
  378SOL    HW2 6971  10.730   1.713   4.396 -0.6046  1.0213  0.9594
  379SOL     OW 6972   4.520   9.220   2.402 -0.2234 -0.1007 -0.4347
  379SOL    HW1 6973   4.559   9.216   2.315 -0.5002  1.0892 -0.6328
  379SOL    HW2 6974   4.462   9.296   2.399 -0.6457 -0.3618  0.6225
  380SOL     OW 6975   0.140   0.367   5.885  0.4773  0.6091 -0.2294
  380SOL    HW1 6976   0.197   0.430   5.840 -0.7918  1.4663 -0.6991
  380SOL    HW2 6977   0.069   0.350   5.822 -0.4653  0.5639  0.8138
  381SOL     OW 6978   7.137   1.691   7.541  0.3356  0.0512 -0.8267
  381SOL    HW1 6979   7.174   1.677   7.629 -0.5826 -0.1004 -0.4559
  381SOL    HW2 6980   7.075   1.619   7.529  0.3248  0.1723 -1.5334
  382SOL     OW 6981   0.673   6.861   3.104  0.4591  0.3457  0.0638
  382SOL    HW1 6982   0.622   6.782   3.125 -0.2057  1.0080  1.0326
  382SOL    HW2 6983   0.644   6.885   3.016  0.8484 -0.6174 -0.3431
  383SOL     OW 6984   3.490   1.624   5.782  0.5677  0.0300  0.5800
  383SOL    HW1 6985   3.540   1.701   5.810 -0.2249  0.5228  0.6787
  383SOL    HW2 6986   3.421   1.659   5.726  0.6311 -0.6910  0.0366
  384SOL     OW 6987   5.327   9.771   8.325  0.0716 -0.3716  0.0993
  384SOL    HW1 6988   5.238   9.752   8.352 -0.5926 -1.6694 -2.6956
  384SOL    HW2 6989   5.318   9.827   8.248  1.5029 -2.3921 -1.6550
  385SOL     OW 6990   9.074   2.232   1.539  0.0892 -0.5717 -0.6562
  385SOL    HW1 6991   8.995   2.186   1.511 -0.4938  1.1457 -2.0329
  385SOL    HW2 6992   9.075   2.223   1.634 -2.1900  0.0025 -0.5251
  386SOL     OW 6993   0.074   0.354   9.278  0.4786 -0.3660 -0.5321
  386SOL    HW1 6994   0.056   0.262   9.298  0.4665 -0.0130  1.2614
  386SOL    HW2 6995  -0.010   0.388   9.246 -0.2310 -0.4272  1.1202
  387SOL     OW 6996   7.004   1.724  10.826  0.1251 -0.2786  0.5611
  387SOL    HW1 6997   7.039   1.775  10.899 -1.6757 -1.0858  2.0868
  387SOL    HW2 6998   6.920   1.766  10.805 -0.4130 -1.3619  0.4508
  388SOL     OW 6999   7.831   9.828   2.977 -0.1459 -0.0596 -0.2788
  388SOL    HW1 7000   7.898   9.779   3.026  1.5212  2.6251  0.3248
  388SOL    HW2 7001   7.758   9.836   3.037 -0.3540 -1.5431 -0.3034
  389SOL     OW 7002   3.135   7.083   1.981  0.0713 -0.1777 -0.0460
  389SOL    HW1 7003   3.204   7.147   1.994  0.5977 -0.7516  0.0375
  389SOL    HW2 7004   3.077   7.122   1.915  0.5965  0.2029 -0.2835
  390SOL     OW 7005   8.767   6.152   3.117 -0.3403 -0.5761 -0.1792
  390SOL    HW1 7006   8.787   6.123   3.206 -0.5982 -0.2148 -0.0029
  390SOL    HW2 7007   8.849   6.137   3.068 -0.3814 -1.3257 -0.0287
  391SOL     OW 7008   0.584   5.562   9.849 -0.6977  0.8333 -0.3942
  391SOL    HW1 7009   0.652   5.609   9.898 -0.4723  0.9477 -0.8112
  391SOL    HW2 7010   0.584   5.474   9.886 -0.7132  0.9938 -0.0072
  392SOL     OW 7011   0.173   3.059   9.170 -0.1717 -0.1633 -0.1685
  392SOL    HW1 7012   0.174   3.111   9.250 -1.8689 -2.7720  1.7441
  392SOL    HW2 7013   0.088   3.079   9.129 -0.7485 -1.2004  0.4765
  393SOL     OW 7014   6.562   3.280   5.644  0.2261 -0.0708 -0.1407
  393SOL    HW1 7015   6.552   3.375   5.642  3.3789  0.3852 -3.2653
  393SOL    HW2 7016   6.518   3.249   5.566  0.7990 -0.9278 -0.1425
  394SOL     OW 7017   6.742   5.849   1.644  0.2294  0.4292  0.1551
  394SOL    HW1 7018   6.800   5.902   1.698  1.3819 -0.1261 -0.4966
  394SOL    HW2 7019   6.686   5.802   1.706  1.5183 -0.1941  0.8723
  395SOL     OW 7020  10.848   5.304   6.576  0.6933 -0.3652 -0.1940
  395SOL    HW1 7021  10.866   5.293   6.482 -1.1111  0.8699 -0.7566
  395SOL    HW2 7022  10.794   5.384   6.580  0.9069 -0.2840  1.9265
  396SOL     OW 7023   0.920   8.040   5.115 -0.5570 -0.6057  0.7901
  396SOL    HW1 7024   1.006   8.038   5.073 -0.7463  1.0674  0.2371
  396SOL    HW2 7025   0.938   8.029   5.208  0.4814  1.5224  0.8983
  397SOL     OW 7026   4.033   2.422   7.816 -0.1336  0.2988  0.4695
  397SOL    HW1 7027   4.055   2.457   7.902  1.2107 -1.5636  0.9447
  397SOL    HW2 7028   4.019   2.329   7.831  0.1213 -0.0616 -1.3220
  398SOL     OW 7029   0.656   9.727   5.131 -0.7846 -0.3337 -0.3814
  398SOL    HW1 7030   0.593   9.799   5.122 -0.7325 -0.2038  0.2012
  398SOL    HW2 7031   0.607   9.648   5.109 -1.3856 -0.3231  0.8321
  399SOL     OW 7032   0.518   4.707   9.124 -0.3775 -0.4432  0.0161
  399SOL    HW1 7033   0.469   4.782   9.089 -0.0789  0.5932  1.6971
  399SOL    HW2 7034   0.451   4.650   9.161 -0.4601  0.0298  0.6015
  400SOL     OW 7035   2.984   9.604   5.377 -0.1283 -0.4334 -0.1175
  400SOL    HW1 7036   2.895   9.629   5.399 -0.0117 -1.3869  1.6113
  400SOL    HW2 7037   3.012   9.669   5.313 -1.6293  0.6117  0.2272
  401SOL     OW 7038   5.992   4.290   2.062 -0.0395  0.1788 -0.2208
  401SOL    HW1 7039   6.066   4.350   2.053 -1.0515  1.5602  0.1297
  401SOL    HW2 7040   5.930   4.318   1.994 -0.9115  0.1343  0.5298
  402SOL     OW 7041   8.274   2.991   9.367 -0.3010 -0.0103 -0.0989
  402SOL    HW1 7042   8.353   3.007   9.419  0.3554 -1.8429 -0.4443
  402SOL    HW2 7043   8.299   3.018   9.278 -0.6727  1.0405  0.1056
  403SOL     OW 7044   5.783   5.814   0.881  0.1320 -0.8382  0.7878
  403SOL    HW1 7045   5.729   5.890   0.858  1.2701 -1.0148 -3.0912
  403SOL    HW2 7046   5.720   5.750   0.914 -1.6533 -0.0471 -0.8787
  404SOL     OW 7047   1.829   4.596  10.681  0.2490 -0.4856 -0.4592
  404SOL    HW1 7048   1.840   4.601  10.586  0.6300 -3.3387 -0.6616
  404SOL    HW2 7049   1.918   4.608  10.716  0.3219 -0.7268 -0.5589
  405SOL     OW 7050  10.586   4.744   0.585 -0.0831  0.1916 -0.3081
  405SOL    HW1 7051  10.626   4.824   0.553 -1.8371  0.1244 -3.0319
  405SOL    HW2 7052  10.536   4.710   0.510 -0.7144 -2.5945  1.2068
  406SOL     OW 7053   0.804   8.621  10.406  0.0714 -0.2316 -0.1105
  406SOL    HW1 7054   0.836   8.548  10.458  1.4041  0.0439 -0.5118
  406SOL    HW2 7055   0.880   8.652  10.358 -0.1686  2.1457  0.8920
  407SOL     OW 7056   8.642   4.316   6.737  0.1662  0.1962  0.1668
  407SOL    HW1 7057   8.624   4.284   6.649 -1.9371  1.2330  0.1573
  407SOL    HW2 7058   8.696   4.394   6.723  2.3080 -1.2251  0.0174
  408SOL     OW 7059   9.323   3.004   1.570  0.3200 -0.1954 -0.1221
  408SOL    HW1 7060   9.243   2.975   1.526 -0.6266  1.4979  0.3681
  408SOL    HW2 7061   9.357   3.074   1.514  2.2868 -1.8148 -1.0556
  409SOL     OW 7062   4.016   8.630   0.972 -0.7416  0.1169 -0.1372
  409SOL    HW1 7063   4.049   8.719   0.968 -0.1894 -0.0412  0.6668
  409SOL    HW2 7064   3.921   8.640   0.963 -0.8238  0.9240  1.2703
  410SOL     OW 7065   0.480  10.121   6.088 -0.2951 -0.1759  0.1782
  410SOL    HW1 7066   0.404  10.100   6.143 -0.5493 -0.9881 -0.4684
  410SOL    HW2 7067   0.528  10.038   6.081 -0.1914 -0.0461 -0.7079
  411SOL     OW 7068   9.314   0.460   4.197  0.7834 -0.9388  0.2057
  411SOL    HW1 7069   9.284   0.494   4.113  0.4772 -2.1797 -0.2158
  411SOL    HW2 7070   9.300   0.531   4.259  0.6017 -0.1627 -0.7167
  412SOL     OW 7071   0.230   6.667   2.189  0.0913  0.1753 -0.1673
  412SOL    HW1 7072   0.286   6.745   2.179 -0.7224  0.6229 -1.3987
  412SOL    HW2 7073   0.167   6.673   2.118 -2.5556  0.5084  2.0123
  413SOL     OW 7074   1.413   4.175   5.129 -0.4706 -0.4345  0.3545
  413SOL    HW1 7075   1.358   4.098   5.118  0.8114 -1.7623  2.5747
  413SOL    HW2 7076   1.353   4.249   5.124 -2.5578 -1.8133  2.7956
  414SOL     OW 7077   5.413   3.045   4.856 -0.2077 -0.6102  0.3636
  414SOL    HW1 7078   5.442   3.056   4.946 -1.4677 -0.0718  0.7317
  414SOL    HW2 7079   5.476   3.096   4.804 -0.6271  0.7777  1.1555
  415SOL     OW 7080   6.469   8.730   5.316 -0.2113 -0.1513  0.3622
  415SOL    HW1 7081   6.516   8.727   5.233 -0.1569 -1.3223  0.4181
  415SOL    HW2 7082   6.377   8.742   5.292 -0.5290 -2.7422 -0.0447
  416SOL     OW 7083   2.795   9.080   0.493  0.2887  0.8143 -0.0406
  416SOL    HW1 7084   2.825   9.096   0.583 -1.2776 -0.9225  0.8429
  416SOL    HW2 7085   2.699   9.082   0.499  0.1156 -1.3951 -1.2374
  417SOL     OW 7086   7.936   7.204   1.773  0.6204  0.5640 -0.2363
  417SOL    HW1 7087   7.869   7.234   1.834  0.7414  1.5785 -0.5790
  417SOL    HW2 7088   7.894   7.133   1.723  0.5048 -0.2264  0.9535
  418SOL     OW 7089   8.786   2.755   6.503 -0.2405 -0.1463  0.3658
  418SOL    HW1 7090   8.837   2.713   6.434 -1.1720  0.2855 -0.6243
  418SOL    HW2 7091   8.825   2.842   6.512 -0.3128 -0.0906  0.1512
  419SOL     OW 7092   2.058   9.988   1.647  0.1653 -0.3168  0.0605
  419SOL    HW1 7093   2.125   9.968   1.582 -0.7899  0.3258 -1.1631
  419SOL    HW2 7094   1.979   9.943   1.616 -0.6372  1.0125  0.0550
  420SOL     OW 7095   0.098   7.093   3.596 -0.1798 -0.5639  0.2379
  420SOL    HW1 7096   0.123   7.077   3.505  1.1826 -0.2029  0.5245
  420SOL    HW2 7097   0.181   7.111   3.641 -0.9753  0.7525  1.2489
  421SOL     OW 7098   7.552   8.600   5.009 -0.0706 -0.3729  0.0478
  421SOL    HW1 7099   7.528   8.692   5.007  0.2501 -0.2892 -1.0208
  421SOL    HW2 7100   7.469   8.553   5.010 -0.3057 -0.0750 -1.8380
  422SOL     OW 7101   1.330   2.500   7.748  0.2908  0.2820 -0.3745
  422SOL    HW1 7102   1.348   2.584   7.706 -1.0318  0.1740 -1.2040
  422SOL    HW2 7103   1.278   2.522   7.825 -0.2985  0.2213 -0.7461
  423SOL     OW 7104   0.072   2.685   6.087  0.0187  0.4725  0.1136
  423SOL    HW1 7105   0.148   2.629   6.071  0.4135  0.7261  1.0244
  423SOL    HW2 7106   0.028   2.646   6.163 -1.2199 -0.1212 -0.8733
  424SOL     OW 7107   8.765   5.842   0.236  0.1648  0.1401 -0.1243
  424SOL    HW1 7108   8.708   5.902   0.187  0.9366 -0.2461 -1.5524
  424SOL    HW2 7109   8.827   5.810   0.171  2.0631  0.5652  1.3898
  425SOL     OW 7110   3.662   3.012   6.382 -0.1195  0.0651  0.1081
  425SOL    HW1 7111   3.601   3.047   6.447 -1.0643 -1.9040  0.3695
  425SOL    HW2 7112   3.616   3.023   6.298 -0.3921 -0.4707  0.1835
  426SOL     OW 7113   5.990   5.364   8.254  0.5446  0.2910 -0.2014
  426SOL    HW1 7114   6.028   5.399   8.173 -0.3746 -1.9514 -1.7074
  426SOL    HW2 7115   6.060   5.372   8.319  0.9578  3.1174 -0.8802
  427SOL     OW 7116   6.039   0.290  10.885  0.1703 -0.0016 -0.1120
  427SOL    HW1 7117   6.124   0.332  10.874  0.2481  0.2392  1.1770
  427SOL    HW2 7118   6.035   0.224  10.816  0.5947  1.2258 -1.3539
  428SOL     OW 7119   5.547   9.969   3.312 -0.0124 -0.3382 -0.0665
  428SOL    HW1 7120   5.613   9.943   3.377 -0.4729 -0.0961  0.5169
  428SOL    HW2 7121   5.565  10.062   3.295 -0.4026 -0.1767  0.3588
  429SOL     OW 7122   9.264   8.086   5.238  0.2370  0.3321 -0.0036
  429SOL    HW1 7123   9.219   8.086   5.154  1.5387  1.0011 -0.7303
  429SOL    HW2 7124   9.194   8.088   5.303 -0.7916  1.8951 -1.0981
  430SOL     OW 7125   9.008   8.758   7.248  0.0726  0.2295  0.7682
  430SOL    HW1 7126   9.038   8.811   7.322  0.0338 -0.3400  1.2032
  430SOL    HW2 7127   9.066   8.681   7.248 -0.6902 -0.3618  0.9619
  431SOL     OW 7128   9.865   2.644   2.603 -0.4482  0.3645  0.1613
  431SOL    HW1 7129   9.891   2.580   2.537 -0.1145 -0.5467  1.1418
  431SOL    HW2 7130   9.770   2.646   2.598 -0.4494 -0.0476 -0.0454
  432SOL     OW 7131  10.070   7.817   8.166  0.4897 -0.0648 -0.1524
  432SOL    HW1 7132   9.984   7.777   8.182 -0.4122  2.1122  0.8181
  432SOL    HW2 7133  10.131   7.743   8.165 -1.0969 -1.4805  1.3918
  433SOL     OW 7134   3.305   4.121   0.350  0.4882 -0.1502  0.0129
  433SOL    HW1 7135   3.260   4.122   0.434  0.6034  0.2558  0.0756
  433SOL    HW2 7136   3.353   4.204   0.348 -0.1396  0.2168 -0.7806
  434SOL     OW 7137   9.252   2.010   5.583 -0.3605 -0.9091 -0.2415
  434SOL    HW1 7138   9.346   2.015   5.603 -0.6042 -0.2658  0.7856
  434SOL    HW2 7139   9.243   1.929   5.533  0.5640 -1.5638  0.6212
  435SOL     OW 7140   0.888   6.841   8.490  0.1367  0.3965  0.1155
  435SOL    HW1 7141   0.974   6.876   8.509 -0.3479  1.0239  1.2183
  435SOL    HW2 7142   0.888   6.829   8.395  1.1624  1.1195  0.0063
  436SOL     OW 7143   8.434   9.995   2.770 -0.1967 -0.0877 -0.1865
  436SOL    HW1 7144   8.465  10.071   2.819  0.3416 -0.6697  0.3858
  436SOL    HW2 7145   8.342  10.014   2.752  0.4679  1.7894 -2.1264
  437SOL     OW 7146   3.537  10.230   1.111 -0.0995  0.2760  0.1123
  437SOL    HW1 7147   3.505  10.185   1.189  0.5505  0.5967  0.5671
  437SOL    HW2 7148   3.513  10.322   1.124  0.2792  0.3799  0.0708
  438SOL     OW 7149   8.568   6.814   7.655  0.3405 -0.5203  0.2635
  438SOL    HW1 7150   8.648   6.766   7.633  0.2370 -0.3987 -0.3787
  438SOL    HW2 7151   8.600   6.898   7.688  0.4656 -0.0245 -1.0593
  439SOL     OW 7152   6.216   6.457   5.680  0.0901  0.3003  0.1855
  439SOL    HW1 7153   6.138   6.509   5.658  0.1061 -0.2653 -1.3186
  439SOL    HW2 7154   6.277   6.473   5.608  0.6043 -0.7867  0.3574
  440SOL     OW 7155   0.486   1.666   7.509  0.4777  0.5704 -0.4571
  440SOL    HW1 7156   0.508   1.582   7.468 -0.9279 -1.4410  2.5606
  440SOL    HW2 7157   0.406   1.694   7.465 -0.1957 -0.7824 -0.1556
  441SOL     OW 7158   1.005  10.044   6.941  0.1908  0.3822 -0.0189
  441SOL    HW1 7159   1.050   9.973   6.988 -1.7255 -1.6724 -1.0718
  441SOL    HW2 7160   0.992  10.112   7.008 -0.1372 -1.3332  1.7757
  442SOL     OW 7161   9.052   4.061   1.926  0.3354 -0.0069 -0.1255
  442SOL    HW1 7162   8.977   4.002   1.933  0.0062  0.3703 -0.4008
  442SOL    HW2 7163   9.014   4.148   1.938  1.0100  0.0924  1.7035
  443SOL     OW 7164   3.335   9.730   0.242 -0.1912  0.8322  0.3064
  443SOL    HW1 7165   3.415   9.689   0.210 -0.2401  2.6707 -2.5566
  443SOL    HW2 7166   3.316   9.799   0.178 -4.2173  0.3386  0.7061
  444SOL     OW 7167   1.367   8.193   0.194  0.3816 -0.1152 -0.3789
  444SOL    HW1 7168   1.413   8.253   0.253 -0.2051 -0.2454  0.2171
  444SOL    HW2 7169   1.381   8.107   0.232  0.0177 -0.2031 -0.4383
  445SOL     OW 7170   2.811   4.950   5.836 -0.2720  0.0018 -0.2510
  445SOL    HW1 7171   2.724   4.951   5.796  0.1586  0.1787 -1.2143
  445SOL    HW2 7172   2.861   4.886   5.784  0.3665  0.3924 -0.1353
  446SOL     OW 7173   3.558   5.705   6.809  0.2362 -0.3858 -0.0168
  446SOL    HW1 7174   3.604   5.783   6.777 -0.1678 -1.6046 -4.2356
  446SOL    HW2 7175   3.491   5.688   6.743 -1.6674 -2.6624  2.3083
  447SOL     OW 7176   0.610   5.465   0.059 -0.0569  0.4396  0.0665
  447SOL    HW1 7177   0.701   5.434   0.059  0.5105  1.9957  0.4777
  447SOL    HW2 7178   0.561   5.395   0.103  1.2753  0.4046  1.6025
  448SOL     OW 7179   6.612   2.871   7.844  0.0678 -0.4343 -0.0364
  448SOL    HW1 7180   6.627   2.907   7.756 -1.0226 -1.2455 -0.5751
  448SOL    HW2 7181   6.517   2.860   7.849  0.2870 -2.4634  0.3877
  449SOL     OW 7182   4.672   2.107  10.345 -0.2869  0.0571  0.2880
  449SOL    HW1 7183   4.691   2.039  10.281 -1.5735  0.5470 -0.6417
  449SOL    HW2 7184   4.713   2.076  10.426  1.2386 -0.6350 -0.7125
  450SOL     OW 7185   7.461   4.544   4.668 -0.1915 -0.5602 -0.1286
  450SOL    HW1 7186   7.530   4.485   4.697  0.2687 -0.0227 -0.1236
  450SOL    HW2 7187   7.497   4.632   4.680 -0.8746 -0.2742 -0.1248
  451SOL     OW 7188   6.408   6.557   3.137  0.1490  0.1581 -0.1112
  451SOL    HW1 7189   6.339   6.537   3.074 -0.5516 -1.9011  1.2216
  451SOL    HW2 7190   6.488   6.561   3.084 -0.6158 -0.0792 -1.3175
  452SOL     OW 7191   7.867   0.286   6.147 -0.3305  0.0604 -0.6320
  452SOL    HW1 7192   7.803   0.232   6.101 -1.2258  0.7129 -0.1725
  452SOL    HW2 7193   7.864   0.371   6.102  0.4858 -0.0050 -0.8374
  453SOL     OW 7194   9.649   5.963   2.532  0.0162 -0.8391 -0.0400
  453SOL    HW1 7195   9.718   5.999   2.588 -0.9901  2.0260 -0.5051
  453SOL    HW2 7196   9.689   5.961   2.445 -0.3483  0.6371 -0.2742
  454SOL     OW 7197   4.904   2.352   3.395 -0.5236  0.0280  0.1769
  454SOL    HW1 7198   4.895   2.395   3.480 -2.1957 -0.6651  0.4046
  454SOL    HW2 7199   4.994   2.367   3.369 -0.8514  3.1357  0.5083
  455SOL     OW 7200   8.879   4.871   0.683 -0.0879  0.0939  0.5153
  455SOL    HW1 7201   8.856   4.877   0.776  1.7143 -0.2043  1.0066
  455SOL    HW2 7202   8.808   4.819   0.645 -1.2459  0.8370  1.5568
  456SOL     OW 7203   8.670   5.992   8.052  0.2408 -0.3153  0.2629
  456SOL    HW1 7204   8.596   5.933   8.047  0.5461 -0.6222 -0.9395
  456SOL    HW2 7205   8.742   5.938   8.086  0.3929 -0.5260 -0.3751
  457SOL     OW 7206   1.555   2.779   0.031 -0.3433 -0.3212 -0.2193
  457SOL    HW1 7207   1.589   2.763  -0.057 -0.4545  1.7930 -0.6987
  457SOL    HW2 7208   1.522   2.869   0.028  0.2757  0.0556  2.1709
  458SOL     OW 7209   5.543   4.640   3.742 -0.2743 -0.1020 -0.3768
  458SOL    HW1 7210   5.462   4.600   3.711  0.7121 -3.0149  0.4974
  458SOL    HW2 7211   5.534   4.732   3.718 -3.1132 -0.6058 -1.7508
  459SOL     OW 7212   5.610   7.899   5.873 -0.5571  0.5887 -0.6651
  459SOL    HW1 7213   5.569   7.818   5.843  0.5123  0.2667 -1.3199
  459SOL    HW2 7214   5.642   7.941   5.792 -0.9579  1.6026 -0.3237
  460SOL     OW 7215  10.549   2.250   7.816  0.0859 -0.2352  0.3354
  460SOL    HW1 7216  10.602   2.291   7.748 -0.9864  2.2759  0.9076
  460SOL    HW2 7217  10.515   2.170   7.775  0.4204  0.5938 -1.6622
  461SOL     OW 7218   6.007   9.344   2.579  0.4473  1.2144 -0.3900
  461SOL    HW1 7219   5.973   9.428   2.608 -0.9294  1.2539 -1.9285
  461SOL    HW2 7220   6.092   9.364   2.540 -0.1108  2.0168 -1.2449
  462SOL     OW 7221   8.721   8.560   0.633 -0.1346 -0.2744 -0.3165
  462SOL    HW1 7222   8.696   8.552   0.541 -0.7840 -0.7843 -0.1051
  462SOL    HW2 7223   8.676   8.487   0.677 -1.4580  1.0736  0.7105
  463SOL     OW 7224   7.092   2.175   7.829 -0.3557  0.1209  0.1107
  463SOL    HW1 7225   7.022   2.138   7.883  0.3313  1.4505  2.0197
  463SOL    HW2 7226   7.171   2.164   7.882  0.5123  0.6685 -1.0334
  464SOL     OW 7227   3.919   2.410   3.843  0.0130  0.0982 -0.6143
  464SOL    HW1 7228   3.923   2.329   3.894 -1.3983 -0.5070 -1.4002
  464SOL    HW2 7229   4.005   2.451   3.855  0.4054 -1.0196  0.5898
  465SOL     OW 7230   4.558   5.402   0.652  0.0612 -0.2310 -0.2230
  465SOL    HW1 7231   4.628   5.417   0.716 -0.2240 -0.1544  0.0728
  465SOL    HW2 7232   4.567   5.310   0.627 -0.1094 -0.3861  0.2701
  466SOL     OW 7233   2.444   1.116   5.071 -0.3346  0.2482  0.3207
  466SOL    HW1 7234   2.501   1.040   5.060 -0.9284 -0.0691 -0.6881
  466SOL    HW2 7235   2.477   1.181   5.009  0.0420  0.7542  1.0314
  467SOL     OW 7236   9.839   0.872   5.387  0.4133  0.0841  0.0757
  467SOL    HW1 7237   9.898   0.929   5.336  1.4837 -1.1934 -0.1668
  467SOL    HW2 7238   9.887   0.854   5.467 -0.5818  0.7487  0.8435
  468SOL     OW 7239   6.492   3.310   9.102  0.1586 -0.2590  0.1865
  468SOL    HW1 7240   6.477   3.399   9.071  2.1779 -0.4364 -1.5113
  468SOL    HW2 7241   6.568   3.317   9.160  1.2402 -1.0174 -1.0767
  469SOL     OW 7242   0.820   2.464   2.934 -0.0941 -0.3177  0.2682
  469SOL    HW1 7243   0.885   2.395   2.921  1.3288  1.1549 -0.8526
  469SOL    HW2 7244   0.862   2.543   2.900 -1.6072  1.1512  1.6124
  470SOL     OW 7245   1.755   3.499   1.733  0.5659  0.5063 -0.2882
  470SOL    HW1 7246   1.839   3.485   1.776 -0.2721 -1.0667  0.9286
  470SOL    HW2 7247   1.745   3.423   1.676 -0.6342 -0.0486  0.6265
  471SOL     OW 7248   2.872   8.375   8.572  0.1561 -0.0570  0.2733
  471SOL    HW1 7249   2.848   8.455   8.524 -0.3212 -0.8613 -0.8899
  471SOL    HW2 7250   2.958   8.394   8.609 -0.2713  1.2611  0.6580
  472SOL     OW 7251   9.095   0.146   2.881 -0.1491 -0.7351 -0.1026
  472SOL    HW1 7252   9.052   0.088   2.818  0.7195 -1.7993  0.2740
  472SOL    HW2 7253   9.159   0.091   2.925 -1.5035 -0.3552  2.5625
  473SOL     OW 7254   2.454  10.126   6.494  0.0530 -0.2566 -0.0475
  473SOL    HW1 7255   2.451  10.153   6.402 -0.7191  1.1767  0.3769
  473SOL    HW2 7256   2.410  10.041   6.496  1.0084 -0.8119 -1.1475
  474SOL     OW 7257   9.896   2.862   7.394 -0.4265  0.2272 -0.2800
  474SOL    HW1 7258   9.960   2.798   7.364 -1.4132 -1.1902  0.5628
  474SOL    HW2 7259   9.843   2.881   7.316  0.0105  0.2070 -0.5869
  475SOL     OW 7260   2.264   5.435   7.199  0.1227  0.4509 -0.1325
  475SOL    HW1 7261   2.232   5.524   7.184 -0.0137  0.5174  0.5271
  475SOL    HW2 7262   2.187   5.387   7.230  0.3089  0.2230 -0.0243
  476SOL     OW 7263   9.963  10.660   0.148  0.0114  0.0435  0.1117
  476SOL    HW1 7264   9.875  10.630   0.127 -0.5219  0.5114  1.5490
  476SOL    HW2 7265   9.983  10.725   0.081 -1.5910  1.4469  0.9272
  477SOL     OW 7266   2.513   1.469   4.198 -0.0367  0.5744 -0.2349
  477SOL    HW1 7267   2.535   1.527   4.271 -1.8585 -0.1974  1.0009
  477SOL    HW2 7268   2.555   1.508   4.122  3.0525  0.7412  1.3935
  478SOL     OW 7269   6.341   0.109   9.589 -0.0387  0.3521  0.0166
  478SOL    HW1 7270   6.426   0.133   9.626  0.9641  1.1083 -2.5407
  478SOL    HW2 7271   6.291   0.190   9.588 -0.3003  0.1963  0.2995
  479SOL     OW 7272   1.972   1.383   1.710 -0.6918 -0.3608  0.1045
  479SOL    HW1 7273   2.026   1.441   1.763 -0.9252 -0.9944  1.0802
  479SOL    HW2 7274   2.012   1.384   1.623 -0.0768  0.4242  0.3927
  480SOL     OW 7275   2.261   9.436   2.997 -0.8155  0.1584 -0.7415
  480SOL    HW1 7276   2.222   9.522   3.014  2.3755  1.9896 -1.7565
  480SOL    HW2 7277   2.305   9.413   3.079 -1.0126 -0.1276 -0.7158
  481SOL     OW 7278   6.953   9.039   8.815 -0.0835  0.2477  0.1608
  481SOL    HW1 7279   7.041   9.066   8.789 -0.7847  1.8557 -0.6515
  481SOL    HW2 7280   6.950   9.054   8.909 -0.2607  2.6420 -0.1665
  482SOL     OW 7281   6.528   6.090   5.141 -0.3339  0.2171 -0.5353
  482SOL    HW1 7282   6.611   6.047   5.165  0.3320  2.2036  0.9492
  482SOL    HW2 7283   6.487   6.112   5.225 -1.2319  1.3699 -1.2455
  483SOL     OW 7284   2.797  10.402   7.041  0.5655 -0.0439 -0.1188
  483SOL    HW1 7285   2.792  10.438   6.953  0.3587  1.1828  0.3815
  483SOL    HW2 7286   2.708  10.412   7.076  0.7788 -0.0158  0.4195
  484SOL     OW 7287   9.814   7.948   8.587 -0.0748  0.2219 -0.2002
  484SOL    HW1 7288   9.754   8.018   8.562  0.3696  2.1192  3.4739
  484SOL    HW2 7289   9.758   7.884   8.632  0.1882  0.6253  0.7254
  485SOL     OW 7290   5.265   4.891   7.647 -0.0755  0.3303 -0.2340
  485SOL    HW1 7291   5.219   4.834   7.709 -0.8456  0.8549 -0.3092
  485SOL    HW2 7292   5.346   4.914   7.692 -0.5276  0.5339  0.5049
  486SOL     OW 7293   1.957   1.682   6.991  0.3030  0.0262 -0.1991
  486SOL    HW1 7294   1.973   1.763   6.943  1.4409  0.2774  0.5665
  486SOL    HW2 7295   1.862   1.679   7.001  0.0604  0.1468 -2.1179
  487SOL     OW 7296   6.866   8.121  10.696  0.5240 -0.0395  0.1022
  487SOL    HW1 7297   6.960   8.107  10.683  0.0848 -1.4399 -2.1014
  487SOL    HW2 7298   6.859   8.155  10.785  2.9927 -1.2467  0.8521
  488SOL     OW 7299   9.826   8.940   6.426 -0.5633  0.0135  0.1059
  488SOL    HW1 7300   9.901   8.979   6.380 -0.3805  0.3000  0.6393
  488SOL    HW2 7301   9.790   9.012   6.478 -0.6744 -0.3456  0.5291
  489SOL     OW 7302   8.006  10.384   2.999 -0.4526  0.2713  0.8311
  489SOL    HW1 7303   7.911  10.378   2.993 -0.5354  1.9224 -0.0226
  489SOL    HW2 7304   8.037  10.371   2.910  0.0807  0.3975  0.9908
  490SOL     OW 7305   8.587   3.810   1.918 -0.1479  0.0379 -0.0692
  490SOL    HW1 7306   8.536   3.838   1.994 -0.0810  0.2083 -0.0846
  490SOL    HW2 7307   8.608   3.892   1.872  1.9666  0.2323  1.0941
  491SOL     OW 7308   6.905   8.269   5.557  0.2781 -0.0412 -0.6570
  491SOL    HW1 7309   6.898   8.208   5.630  1.1657 -1.0442 -1.3824
  491SOL    HW2 7310   6.999   8.287   5.549  0.1361  0.5436 -1.1585
  492SOL     OW 7311   2.012   3.362   4.268  0.0788 -0.7162  0.3600
  492SOL    HW1 7312   2.013   3.346   4.363  1.0632 -0.8524  0.3322
  492SOL    HW2 7313   2.104   3.365   4.243 -0.1743 -0.6328 -0.5942
  493SOL     OW 7314   9.228   3.204   2.994 -0.1461  0.0035  0.1542
  493SOL    HW1 7315   9.162   3.273   2.984 -2.6491 -2.3337 -0.6640
  493SOL    HW2 7316   9.278   3.208   2.912 -2.6367 -1.3349 -1.5647
  494SOL     OW 7317   0.174   0.236   8.410  0.0249 -0.1996 -0.0666
  494SOL    HW1 7318   0.163   0.229   8.315 -0.1954 -3.7169  0.0754
  494SOL    HW2 7319   0.085   0.232   8.445  0.1658 -0.1327  0.3032
  495SOL     OW 7320   9.245   2.450   7.864  0.2475 -0.1668 -1.0454
  495SOL    HW1 7321   9.212   2.363   7.842  1.4475 -0.8042 -0.4212
  495SOL    HW2 7322   9.166   2.501   7.883 -0.4648 -1.1768 -1.1962
  496SOL     OW 7323   7.010   4.109   2.131  0.1473  0.1005 -0.1429
  496SOL    HW1 7324   7.047   4.024   2.153 -0.2402 -0.0092  0.0773
  496SOL    HW2 7325   7.077   4.172   2.159  1.4322 -0.2093 -2.3268
  497SOL     OW 7326   1.234   1.430  10.157  0.0336  0.3092 -0.0107
  497SOL    HW1 7327   1.296   1.487  10.202 -1.3598  0.0700  2.3646
  497SOL    HW2 7328   1.283   1.396  10.082  2.4058  0.9342  1.1596
  498SOL     OW 7329   2.442  10.237   7.457 -0.3663 -0.8088 -0.1346
  498SOL    HW1 7330   2.421  10.329   7.442  0.7896 -0.5727 -0.4669
  498SOL    HW2 7331   2.423  10.195   7.373  0.1873 -0.6490 -0.3464
  499SOL     OW 7332   7.868   1.157   2.070 -0.0691 -0.0758 -0.1577
  499SOL    HW1 7333   7.893   1.163   1.978  3.4127 -1.4075  0.5610
  499SOL    HW2 7334   7.861   1.063   2.086  1.7684 -0.0068  1.4026
  500SOL     OW 7335   5.004   6.100   7.609  0.7091  0.6370 -0.7648
  500SOL    HW1 7336   4.945   6.160   7.655  0.1595 -0.1517 -0.4261
  500SOL    HW2 7337   5.055   6.059   7.679 -2.6953 -3.4154 -0.2705
  501SOL     OW 7338   5.092   8.071   2.884  0.0902  0.0213  0.3302
  501SOL    HW1 7339   5.104   8.054   2.977 -2.1481  1.5023  0.9588
  501SOL    HW2 7340   5.108   7.987   2.842 -0.4609 -1.0637  2.2078
  502SOL     OW 7341   0.511   5.385   4.167  0.3622  0.6261 -0.0602
  502SOL    HW1 7342   0.567   5.339   4.229 -1.7101 -0.5672  0.9942
  502SOL    HW2 7343   0.573   5.434   4.111  2.4912 -1.4011  0.3801
  503SOL     OW 7344   5.483   1.501   5.134  0.1852 -0.5877 -0.2729
  503SOL    HW1 7345   5.426   1.426   5.150  1.0721 -1.1518  0.3133
  503SOL    HW2 7346   5.485   1.510   5.038 -3.0297  1.1557 -0.3174
  504SOL     OW 7347   5.662   0.484   4.015  0.4934 -0.2999 -0.0669
  504SOL    HW1 7348   5.710   0.402   4.013  1.0976  0.0247  0.9021
  504SOL    HW2 7349   5.707   0.537   4.080 -1.3400 -0.0951  1.0940
  505SOL     OW 7350   7.356   3.915   6.471  0.0745  0.5146  0.4287
  505SOL    HW1 7351   7.316   4.002   6.472  0.2054  0.5762  0.4358
  505SOL    HW2 7352   7.286   3.855   6.497 -0.4944  0.4175 -1.1598
  506SOL     OW 7353   6.724   8.384  10.883  0.9046 -0.4240  0.4687
  506SOL    HW1 7354   6.673   8.312  10.918 -1.7523  0.4384 -1.3348
  506SOL    HW2 7355   6.774   8.417  10.958  0.7396 -2.8924  1.7491
  507SOL     OW 7356   1.286   7.609   9.570 -0.4964 -0.3287 -0.5677
  507SOL    HW1 7357   1.359   7.558   9.533 -1.5520 -2.2276 -0.1365
  507SOL    HW2 7358   1.211   7.586   9.515 -1.1927  0.0572  0.2039
  508SOL     OW 7359   3.264   6.227   0.347 -0.3096 -0.8467  0.4944
  508SOL    HW1 7360   3.224   6.301   0.393 -1.0471 -0.6366 -0.4477
  508SOL    HW2 7361   3.190   6.172   0.323 -0.0796 -0.3792 -1.4051
  509SOL     OW 7362   9.437   1.158   2.459  0.4363 -0.0838  0.2097
  509SOL    HW1 7363   9.482   1.198   2.534  0.6733 -0.0129  0.0309
  509SOL    HW2 7364   9.496   1.173   2.385  0.5730 -0.8517  0.1568
  510SOL     OW 7365   1.639   7.199   5.108  0.5367  0.3039 -0.0231
  510SOL    HW1 7366   1.659   7.292   5.094  0.1643  0.2921 -0.7131
  510SOL    HW2 7367   1.563   7.183   5.052  1.7055 -0.8527 -1.3709
  511SOL     OW 7368   0.228   2.356   3.411  0.0205  0.6193 -0.4571
  511SOL    HW1 7369   0.190   2.436   3.375  0.2822  0.9504 -0.0145
  511SOL    HW2 7370   0.275   2.317   3.338 -1.6095 -0.0968 -1.1648
  512SOL     OW 7371   2.860   9.426   6.270  0.6699 -0.7339 -0.3101
  512SOL    HW1 7372   2.772   9.411   6.305  0.9622 -1.5002  0.1405
  512SOL    HW2 7373   2.846   9.464   6.184 -0.0724  0.7306  0.4363
  513SOL     OW 7374   2.683   9.042   1.819 -0.2327 -0.7288 -0.6775
  513SOL    HW1 7375   2.609   8.984   1.835  0.4779 -1.7626 -1.0080
  513SOL    HW2 7376   2.665   9.120   1.871 -2.0746 -0.4949 -1.5954
  514SOL     OW 7377   1.634   7.201   4.495 -0.0174 -0.1055 -0.0349
  514SOL    HW1 7378   1.621   7.253   4.416 -0.9547 -1.2893 -0.7003
  514SOL    HW2 7379   1.619   7.111   4.466  2.6222 -0.9216  0.8131
  515SOL     OW 7380   5.991   6.228   5.015  0.9888 -0.2889 -0.3737
  515SOL    HW1 7381   6.035   6.298   4.967  0.7192  0.2673  0.1882
  515SOL    HW2 7382   5.924   6.196   4.954  0.8839  0.1704 -0.4987
  516SOL     OW 7383   8.240   8.546   7.395  0.0660 -0.2343 -0.4886
  516SOL    HW1 7384   8.289   8.571   7.316 -0.1005  0.3590 -0.4061
  516SOL    HW2 7385   8.167   8.608   7.398  0.2224 -0.0870  0.2799
  517SOL     OW 7386   3.022   5.660   8.447 -0.3147 -0.2990 -0.4613
  517SOL    HW1 7387   3.073   5.736   8.477 -0.7578  0.4032 -1.4149
  517SOL    HW2 7388   3.023   5.600   8.521 -1.0458  1.1762  0.8166
  518SOL     OW 7389   0.215   3.210   9.953 -0.1434  0.2362 -0.0597
  518SOL    HW1 7390   0.135   3.196  10.004 -0.1922 -0.3687 -0.2922
  518SOL    HW2 7391   0.229   3.127   9.908 -0.6119  1.0305 -1.7445
  519SOL     OW 7392  10.422   7.090   6.415 -0.3340 -0.3939  0.4355
  519SOL    HW1 7393  10.342   7.038   6.424 -0.1344 -0.7417  0.2224
  519SOL    HW2 7394  10.391   7.181   6.415 -0.7734 -0.5341 -0.0454
  520SOL     OW 7395   5.564   8.424  10.482 -0.2551 -0.3528 -0.4756
  520SOL    HW1 7396   5.572   8.402  10.389  2.6924 -0.0042 -0.3922
  520SOL    HW2 7397   5.497   8.492  10.485 -0.3775 -0.3399 -2.3357
  521SOL     OW 7398   3.480   6.530   6.264  0.2327  0.2678 -0.0939
  521SOL    HW1 7399   3.437   6.479   6.196  0.3947  1.4109 -1.0776
  521SOL    HW2 7400   3.573   6.507   6.256  0.1641 -0.1735  0.2728
  522SOL     OW 7401   5.858   2.619   3.183  0.0480 -0.3926  0.2364
  522SOL    HW1 7402   5.766   2.647   3.187  0.1083 -0.1022 -0.2513
  522SOL    HW2 7403   5.908   2.701   3.183  0.2758 -0.5275 -0.1355
  523SOL     OW 7404   1.758   5.031   1.558 -0.2808  0.5372  0.1538
  523SOL    HW1 7405   1.770   4.938   1.539 -0.2291  0.2780  1.3950
  523SOL    HW2 7406   1.735   5.070   1.473 -2.0318 -0.8822 -0.0785
  524SOL     OW 7407   0.833   7.299   1.985  0.2395  0.2915 -0.0819
  524SOL    HW1 7408   0.914   7.253   2.008  0.3074  1.0223  1.2677
  524SOL    HW2 7409   0.815   7.273   1.895  1.1060 -1.1431  0.1293
  525SOL     OW 7410   4.256   6.777   3.222  0.2107  0.7530  0.1486
  525SOL    HW1 7411   4.281   6.738   3.138 -0.3824  1.9554 -0.6072
  525SOL    HW2 7412   4.162   6.759   3.229  0.6971 -1.7792  1.9195
  526SOL     OW 7413   0.769   3.891   4.880 -0.1954  0.3691 -0.0034
  526SOL    HW1 7414   0.731   3.917   4.796  1.0151 -0.0362 -0.7047
  526SOL    HW2 7415   0.863   3.912   4.871  0.3167 -1.5435  0.4588
  527SOL     OW 7416   7.381   6.909   5.068  0.0455 -0.0886  0.4241
  527SOL    HW1 7417   7.338   6.990   5.094 -2.1985 -0.9175 -0.4748
  527SOL    HW2 7418   7.332   6.840   5.113  1.6542 -1.0139  0.8551
  528SOL     OW 7419   2.725   0.338   9.899 -0.7181 -0.0354  0.4590
  528SOL    HW1 7420   2.749   0.379   9.982  1.0784  2.4091 -1.1414
  528SOL    HW2 7421   2.808   0.303   9.865 -1.8429 -3.4766  0.8143
  529SOL     OW 7422   1.796   1.984   4.697 -0.3239  0.3348  0.0127
  529SOL    HW1 7423   1.791   2.078   4.683  1.5400  0.3708 -0.6526
  529SOL    HW2 7424   1.789   1.973   4.792 -0.2026  1.1628  0.1197
  530SOL     OW 7425   4.565   2.312   6.681  0.2406  0.0499  0.0390
  530SOL    HW1 7426   4.577   2.306   6.775  2.2834  2.5631  0.0757
  530SOL    HW2 7427   4.575   2.223   6.649  0.8488 -0.6645  2.0771
  531SOL     OW 7428   2.380   8.218   8.857 -0.2400 -0.2692  0.3242
  531SOL    HW1 7429   2.338   8.136   8.832 -1.1450  0.0787  0.6564
  531SOL    HW2 7430   2.473   8.197   8.861 -0.3779 -1.0875 -0.3265
  532SOL     OW 7431   8.585   7.661   1.632  0.2822 -0.0923  0.4056
  532SOL    HW1 7432   8.653   7.664   1.700 -1.4820  0.6491  2.2387
  532SOL    HW2 7433   8.522   7.597   1.665 -0.1015 -0.5056 -1.0829
  533SOL     OW 7434   1.637   9.180   0.980  0.6932 -0.1962  0.0715
  533SOL    HW1 7435   1.703   9.112   0.998  0.8056 -0.2531 -0.5428
  533SOL    HW2 7436   1.557   9.146   1.020  0.5724 -1.0417 -0.8692
  534SOL     OW 7437   1.995   5.675  10.135 -0.5352  0.3604 -0.7368
  534SOL    HW1 7438   1.993   5.693  10.229 -0.6875 -1.0205 -0.4502
  534SOL    HW2 7439   1.915   5.715  10.101  0.1816  2.0350 -0.5342
  535SOL     OW 7440   9.568   2.718   7.659  0.5042 -0.2507  0.1497
  535SOL    HW1 7441   9.637   2.784   7.654  0.3424 -0.1653 -1.6981
  535SOL    HW2 7442   9.589   2.656   7.589 -2.0435  0.5395 -1.4286
  536SOL     OW 7443   1.834   9.681   6.642  0.0627  0.5331 -0.0675
  536SOL    HW1 7444   1.739   9.688   6.629 -0.1117 -0.9174  0.2773
  536SOL    HW2 7445   1.844   9.670   6.736  0.3413 -2.0066 -0.3283
  537SOL     OW 7446   7.141   7.612  10.488  0.4493 -0.2035 -0.0814
  537SOL    HW1 7447   7.064   7.589  10.437  1.1216 -0.7480 -0.8700
  537SOL    HW2 7448   7.108   7.670  10.557 -0.9870 -2.0096  0.8234
  538SOL     OW 7449   4.304   2.681   3.667  0.5169 -0.0955  0.1710
  538SOL    HW1 7450   4.287   2.727   3.585  0.7068  1.1879  0.8311
  538SOL    HW2 7451   4.381   2.724   3.703  0.8573 -1.1149  0.6961
  539SOL     OW 7452   1.011   2.251   0.029 -0.3291 -0.0750 -0.7008
  539SOL    HW1 7453   0.953   2.260  -0.047 -1.2343  0.7814  0.0606
  539SOL    HW2 7454   0.978   2.316   0.091  0.5151 -0.6311  0.3450
  540SOL     OW 7455   1.897   3.972   7.441  0.4903 -1.0854  0.5668
  540SOL    HW1 7456   1.865   4.001   7.356  3.0170 -2.0289 -0.8421
  540SOL    HW2 7457   1.951   4.045   7.473 -0.5071 -0.7041  1.4399
  541SOL     OW 7458  10.766   3.367   4.801 -0.0580 -0.5455  0.5820
  541SOL    HW1 7459  10.802   3.328   4.881 -1.1508 -0.0714  1.3152
  541SOL    HW2 7460  10.798   3.458   4.803 -0.3732 -0.4367  0.6628
  542SOL     OW 7461   0.501   9.413   5.887 -0.3866  0.5045 -0.4689
  542SOL    HW1 7462   0.480   9.341   5.829 -0.6152  1.2603 -1.3475
  542SOL    HW2 7463   0.416   9.450   5.911 -0.2651  0.5646 -0.1260
  543SOL     OW 7464   1.155   8.161   4.917  0.2132 -0.1582 -0.6665
  543SOL    HW1 7465   1.235   8.111   4.938 -0.4949 -1.0555 -0.0059
  543SOL    HW2 7466   1.103   8.101   4.864  0.3830  0.7851 -1.9479
  544SOL     OW 7467   0.354   2.661   1.471  0.3313 -0.0414 -0.2794
  544SOL    HW1 7468   0.375   2.753   1.453 -0.6218  0.2562  0.0751
  544SOL    HW2 7469   0.261   2.661   1.495  0.8206 -0.8036  1.8555
  545SOL     OW 7470   9.989   5.061  10.841 -0.4478 -0.0622  0.4118
  545SOL    HW1 7471   9.917   5.018  10.887 -1.2506  0.2430 -0.5246
  545SOL    HW2 7472   9.992   5.149  10.879 -0.7757  0.0249  0.2368
  546SOL     OW 7473   1.821   3.402   2.052 -0.9043  0.0446  0.0550
  546SOL    HW1 7474   1.879   3.432   2.122 -1.7710  0.5460  0.5823
  546SOL    HW2 7475   1.868   3.421   1.971 -0.3401  0.4390  0.4709
  547SOL     OW 7476   7.834   6.456  10.213 -0.3668  0.7429 -0.8349
  547SOL    HW1 7477   7.791   6.377  10.247  0.2258  1.0740  0.7775
  547SOL    HW2 7478   7.904   6.423  10.157  1.9734 -0.1114  2.2780
  548SOL     OW 7479   5.929   0.087   6.691 -0.4200  0.0734  0.3280
  548SOL    HW1 7480   5.904   0.063   6.602  0.5983 -0.6092  0.2113
  548SOL    HW2 7481   5.986   0.016   6.720 -0.5689  0.3895  1.4555
  549SOL     OW 7482   3.530   8.694   1.789  0.4876 -0.3071 -0.0836
  549SOL    HW1 7483   3.606   8.658   1.835 -1.1013 -2.0660  1.3052
  549SOL    HW2 7484   3.474   8.727   1.859 -0.7966 -0.6003 -0.9498
  550SOL     OW 7485   1.340   4.513   8.389 -0.2600 -0.7473 -0.4702
  550SOL    HW1 7486   1.332   4.422   8.419  0.0438 -0.0647  1.8397
  550SOL    HW2 7487   1.349   4.564   8.469  0.0364  1.2981 -1.7438
  551SOL     OW 7488   9.663   1.422   7.282  0.8526  0.1989  0.4390
  551SOL    HW1 7489   9.641   1.515   7.283  0.6357  0.1635 -0.3589
  551SOL    HW2 7490   9.581   1.378   7.303  0.9631  0.1848  0.8512
  552SOL     OW 7491   9.617   7.999   6.886  0.2148  1.0480 -0.8488
  552SOL    HW1 7492   9.536   8.036   6.919  0.0682 -0.6916  0.9140
  552SOL    HW2 7493   9.682   8.020   6.952  0.4479 -0.4405 -0.5685
  553SOL     OW 7494   2.634   0.499   8.785 -0.2772  0.4183 -0.0361
  553SOL    HW1 7495   2.690   0.456   8.721  1.4979 -1.7757  2.7831
  553SOL    HW2 7496   2.549   0.455   8.776  0.0290 -0.0637 -0.6316
  554SOL     OW 7497   1.370   1.813   6.714  0.0267 -1.1362  0.6497
  554SOL    HW1 7498   1.403   1.902   6.727 -1.4134 -0.2784 -1.0601
  554SOL    HW2 7499   1.276   1.825   6.699 -0.1196 -2.9009 -0.0745
  555SOL     OW 7500   1.400   1.482   5.107  0.3282 -0.2539 -0.3425
  555SOL    HW1 7501   1.384   1.551   5.042 -0.3054 -1.2097 -1.2287
  555SOL    HW2 7502   1.435   1.529   5.183 -1.5246  1.2767 -0.3514
  556SOL     OW 7503   5.948   6.031   5.609  0.3599 -0.0274  0.3881
  556SOL    HW1 7504   5.861   6.053   5.641  0.2037  0.6691 -0.4777
  556SOL    HW2 7505   5.973   6.105   5.554  0.9244 -0.8401 -0.4866
  557SOL     OW 7506   1.407   9.060   1.828 -0.7496  0.1414 -0.3704
  557SOL    HW1 7507   1.427   9.148   1.861 -0.9113  1.3373 -3.2480
  557SOL    HW2 7508   1.322   9.039   1.867 -0.2210  0.7321  1.2209
  558SOL     OW 7509   5.483   5.992   3.421  0.2083 -0.2090  0.5216
  558SOL    HW1 7510   5.513   5.943   3.345  0.7463 -0.2553  0.7522
  558SOL    HW2 7511   5.526   6.077   3.413 -1.5622  0.6463 -0.4490
  559SOL     OW 7512   4.515   0.779   0.392  0.0041 -0.3529 -0.2444
  559SOL    HW1 7513   4.506   0.858   0.337  0.3005  0.2009  0.4892
  559SOL    HW2 7514   4.527   0.708   0.329 -0.5303  0.1480 -0.9317
  560SOL     OW 7515   9.373   2.502   1.639 -0.5350  0.0808  0.2965
  560SOL    HW1 7516   9.418   2.494   1.723 -1.0108  0.1738  0.5641
  560SOL    HW2 7517   9.284   2.529   1.662 -0.6591  0.1423 -0.2393
  561SOL     OW 7518   7.018   4.044   6.295  0.0508  0.4644 -0.2503
  561SOL    HW1 7519   6.927   4.064   6.273 -0.3418  0.1458  1.0140
  561SOL    HW2 7520   7.065   4.047   6.211 -0.9978  1.2846 -0.8216
  562SOL     OW 7521   1.327   6.978   4.369  0.2865 -0.5296 -0.2713
  562SOL    HW1 7522   1.314   6.943   4.457 -0.1235  1.0744  0.3426
  562SOL    HW2 7523   1.328   7.073   4.381 -0.6293 -0.2468 -2.1045
  563SOL     OW 7524   3.237  10.489   2.900  0.0558 -0.1624  0.3215
  563SOL    HW1 7525   3.173  10.553   2.931  0.6611 -0.6097  2.6483
  563SOL    HW2 7526   3.300  10.541   2.851  0.3313  1.0138  1.8356
  564SOL     OW 7527   7.243   6.897   1.552 -0.1319  0.2915  0.2979
  564SOL    HW1 7528   7.257   6.934   1.465 -0.7071  3.4167  1.3753
  564SOL    HW2 7529   7.150   6.875   1.554  0.0938 -0.7109 -0.1847
  565SOL     OW 7530   4.490   7.694   1.953 -0.4412  0.1197 -0.3778
  565SOL    HW1 7531   4.561   7.759   1.951  0.9422 -1.3409 -0.9896
  565SOL    HW2 7532   4.429   7.727   2.019 -0.5841  2.8234 -1.7300
  566SOL     OW 7533   9.378   5.775  10.324 -0.0397  0.6894  0.1781
  566SOL    HW1 7534   9.366   5.686  10.290 -0.1534  0.0998  1.6954
  566SOL    HW2 7535   9.470   5.794  10.306  0.3325 -0.2570  0.9818
  567SOL     OW 7536   0.162   5.653   5.357 -0.4001  0.1844 -0.3968
  567SOL    HW1 7537   0.157   5.589   5.428  1.1355  0.0308 -0.3850
  567SOL    HW2 7538   0.115   5.729   5.390  0.5644  0.2414  0.9538
  568SOL     OW 7539   9.713   5.734   7.989 -0.1888  0.6198 -0.1520
  568SOL    HW1 7540   9.751   5.780   7.915 -0.6819  0.7802 -0.3082
  568SOL    HW2 7541   9.730   5.641   7.971 -1.7496  0.5270 -1.3079
  569SOL     OW 7542   3.597   3.391   5.946  0.6439 -0.0048 -0.0449
  569SOL    HW1 7543   3.663   3.325   5.964  2.5381  1.6520 -0.5104
  569SOL    HW2 7544   3.543   3.353   5.876  2.0477 -0.8147 -0.7191
  570SOL     OW 7545   8.018   5.661  10.872  0.2492  0.3575 -0.0173
  570SOL    HW1 7546   8.084   5.620  10.816  0.0451  1.0672 -0.7963
  570SOL    HW2 7547   7.984   5.734  10.820 -1.9356 -0.6342 -0.0705
  571SOL     OW 7548   1.106   1.328   5.567 -0.0079 -0.1033  0.1328
  571SOL    HW1 7549   1.154   1.245   5.566  0.1400 -0.0192 -0.7659
  571SOL    HW2 7550   1.036   1.315   5.631 -0.8917 -1.4617 -1.0442
  572SOL     OW 7551   1.432  10.429   0.044 -0.0610  0.6830 -0.3795
  572SOL    HW1 7552   1.473  10.356  -0.003 -1.9226  0.0400 -1.1041
  572SOL    HW2 7553   1.354  10.450  -0.007 -1.0356  1.3710  1.2903
  573SOL     OW 7554   3.040   8.296   9.956  0.3280 -0.6709  0.1723
  573SOL    HW1 7555   3.059   8.296  10.049  0.7048 -0.7019  0.0976
  573SOL    HW2 7556   3.092   8.223   9.921 -2.9028 -3.3510  0.5313
  574SOL     OW 7557   5.708   9.785  10.194 -0.2643 -0.9530 -0.2942
  574SOL    HW1 7558   5.728   9.879  10.197  1.7035 -1.2898 -1.4955
  574SOL    HW2 7559   5.624   9.778  10.239 -0.6749  1.4358 -0.5252
  575SOL     OW 7560  10.642   4.707   1.999 -0.1025 -0.6921  0.3754
  575SOL    HW1 7561  10.565   4.651   1.986 -1.7201  1.2964  0.8533
  575SOL    HW2 7562  10.650   4.754   1.916  0.7524 -1.0058  0.2681
  576SOL     OW 7563   5.044   4.563   9.261 -0.1345 -0.0420  0.5899
  576SOL    HW1 7564   4.977   4.581   9.327 -1.7116 -1.2361 -0.5812
  576SOL    HW2 7565   5.097   4.493   9.300 -1.0535 -0.7455  0.6162
  577SOL     OW 7566   5.102  10.670   7.122  0.2111  0.3138 -0.2917
  577SOL    HW1 7567   5.019  10.690   7.166 -0.5179  2.1726 -2.3247
  577SOL    HW2 7568   5.162  10.739   7.150  0.6521 -0.2078  0.0668
  578SOL     OW 7569   1.424   2.359   9.959  0.4450  0.6519  0.3598
  578SOL    HW1 7570   1.375   2.283   9.926 -1.7279  0.8348  2.8965
  578SOL    HW2 7571   1.466   2.328  10.039  0.5198  1.8276  0.7925
  579SOL     OW 7572   1.247   3.169   1.959 -0.4194 -0.1436 -0.4905
  579SOL    HW1 7573   1.183   3.104   1.928  1.6986 -2.1752 -0.8528
  579SOL    HW2 7574   1.259   3.227   1.884 -0.5212 -0.8222 -1.0463
  580SOL     OW 7575   7.705   7.677   4.142 -0.3650 -0.0874 -0.3103
  580SOL    HW1 7576   7.615   7.710   4.145 -0.5015 -0.4721 -0.1750
  580SOL    HW2 7577   7.702   7.596   4.193 -0.1295 -0.5525 -1.0286
  581SOL     OW 7578   8.437   5.436   4.856  0.3779 -0.2175  0.0759
  581SOL    HW1 7579   8.421   5.346   4.884  0.3959  0.4207  2.3768
  581SOL    HW2 7580   8.350   5.473   4.840  0.3186 -0.3645  0.0597
  582SOL     OW 7581   3.601   4.782   9.763 -0.2290  0.2049 -0.4364
  582SOL    HW1 7582   3.585   4.863   9.716  1.4479  0.1616 -1.1427
  582SOL    HW2 7583   3.515   4.758   9.799 -1.3526  0.7458 -2.6199
  583SOL     OW 7584   7.955   1.107   6.208 -0.2519  0.6206  0.4222
  583SOL    HW1 7585   7.958   1.066   6.122  0.6208 -0.1508  0.8081
  583SOL    HW2 7586   8.012   1.053   6.263  0.3715  1.9463  1.1218
  584SOL     OW 7587  10.394   5.943   0.350  0.3213  0.2337  0.2021
  584SOL    HW1 7588  10.402   6.034   0.320  0.3367  0.6629  1.4569
  584SOL    HW2 7589  10.404   5.891   0.271 -0.3047  1.3505 -0.6452
  585SOL     OW 7590   0.305   3.878   2.873 -0.1665  0.3039 -0.3041
  585SOL    HW1 7591   0.359   3.931   2.814  0.9219 -0.4552 -0.0327
  585SOL    HW2 7592   0.355   3.875   2.955 -0.7562 -0.2014  0.0474
  586SOL     OW 7593   7.896   9.225   5.959  0.6749  0.3081 -0.0874
  586SOL    HW1 7594   7.898   9.320   5.973  0.6200  0.3855 -0.5926
  586SOL    HW2 7595   7.830   9.193   6.021  0.5351  0.6254 -0.0692
  587SOL     OW 7596   6.582   4.845   3.053  0.1386  0.1265  0.3050
  587SOL    HW1 7597   6.648   4.871   2.989  0.1921 -0.9857 -0.1048
  587SOL    HW2 7598   6.576   4.750   3.045  0.0342 -0.0239  1.8526
  588SOL     OW 7599   7.237  10.741   2.775 -0.7858  0.5808 -0.0225
  588SOL    HW1 7600   7.175  10.813   2.786 -1.4947  0.1571 -1.0642
  588SOL    HW2 7601   7.317  10.783   2.743 -1.9665  0.7180 -3.1293
  589SOL     OW 7602   8.304   5.906   7.039  0.0714  0.1906 -0.4021
  589SOL    HW1 7603   8.280   5.998   7.032  1.0581  0.4479 -0.5644
  589SOL    HW2 7604   8.397   5.907   7.061  0.8508 -0.7327 -3.2217
  590SOL     OW 7605   7.944   1.693   9.302 -0.6625  0.4740  0.0374
  590SOL    HW1 7606   7.996   1.751   9.358  1.1023 -0.7100 -0.2848
  590SOL    HW2 7607   7.975   1.712   9.213  2.0657 -2.7370  0.0834
  591SOL     OW 7608   1.022   0.459   5.527  0.7324 -0.1632  0.1801
  591SOL    HW1 7609   1.054   0.438   5.440 -0.5228 -0.0337 -0.3366
  591SOL    HW2 7610   1.000   0.552   5.523  0.6489 -0.1593  0.6294
  592SOL     OW 7611   5.053   0.942   8.669 -0.5516  0.0353 -0.0322
  592SOL    HW1 7612   5.024   0.992   8.593 -0.3922  1.3449  0.7484
  592SOL    HW2 7613   4.984   0.955   8.734  0.9391  1.8697  1.2810
  593SOL     OW 7614   2.799   8.368   7.871 -0.2170 -0.2664 -0.3546
  593SOL    HW1 7615   2.720   8.331   7.910  0.5372  0.8597  2.5282
  593SOL    HW2 7616   2.805   8.456   7.909  2.9679 -0.7080  0.4183
  594SOL     OW 7617   2.578   3.709   7.245 -0.5518  0.3779 -0.4359
  594SOL    HW1 7618   2.564   3.642   7.178  0.0392  0.8514 -1.0552
  594SOL    HW2 7619   2.592   3.660   7.326  0.0406 -0.2564 -0.9079
  595SOL     OW 7620   1.004   6.966   6.434 -0.0835 -0.4110  0.1655
  595SOL    HW1 7621   0.952   6.913   6.374  0.1469  0.2938 -0.6940
  595SOL    HW2 7622   0.950   6.975   6.512 -0.4747 -1.1944 -0.0111
  596SOL     OW 7623   3.463   7.196   6.083 -0.2300  0.1857 -0.0647
  596SOL    HW1 7624   3.472   7.148   6.165  0.6153 -1.0963 -0.8908
  596SOL    HW2 7625   3.372   7.180   6.055 -0.4404  0.4194  0.4666
  597SOL     OW 7626   5.127   5.936   6.115 -0.4882 -0.2631 -0.2516
  597SOL    HW1 7627   5.174   5.859   6.083  0.5484 -0.0332  0.6705
  597SOL    HW2 7628   5.099   5.981   6.035  1.2435 -0.1887 -0.8688
  598SOL     OW 7629   6.070   7.276   5.468 -0.2742  0.4431 -0.4418
  598SOL    HW1 7630   6.008   7.346   5.489 -2.4645 -1.5572  0.1723
  598SOL    HW2 7631   6.066   7.268   5.373  1.3692  2.2607 -0.7296
  599SOL     OW 7632   8.237   6.873   8.939  0.3504 -0.2873  0.5314
  599SOL    HW1 7633   8.161   6.837   8.895  0.8320 -0.2021 -0.3891
  599SOL    HW2 7634   8.278   6.930   8.874  0.7572  0.2912  1.2793
  600SOL     OW 7635   2.420  10.887  10.208 -0.0293 -0.3246  0.0083
  600SOL    HW1 7636   2.472  10.837  10.272 -0.1766 -2.2608 -1.2895
  600SOL    HW2 7637   2.484  10.940  10.161 -0.0156  1.8372  2.2478
  601SOL     OW 7638   9.512   4.748   8.291  0.3845 -0.1092 -0.3263
  601SOL    HW1 7639   9.477   4.836   8.277 -2.0053 -0.8861  0.2095
  601SOL    HW2 7640   9.471   4.696   8.222  0.2640 -1.1367  0.5019
  602SOL     OW 7641   8.806  10.065   8.736  0.2133  0.3408  0.2118
  602SOL    HW1 7642   8.861  10.019   8.672  0.4750  0.3795  0.4038
  602SOL    HW2 7643   8.731  10.008   8.749  0.1687  0.3243 -0.1182
  603SOL     OW 7644   9.252   3.402   8.775 -0.3570  0.0826 -0.2409
  603SOL    HW1 7645   9.251   3.461   8.699  0.0674  0.8921  0.3657
  603SOL    HW2 7646   9.218   3.455   8.847  0.6399 -0.1968  0.4606
  604SOL     OW 7647   4.786   8.473   0.872 -0.0579 -0.1093 -0.2400
  604SOL    HW1 7648   4.850   8.445   0.806  1.1928  1.9904 -0.0377
  604SOL    HW2 7649   4.803   8.418   0.948  2.4435  1.1589  0.2317
  605SOL     OW 7650  10.406   0.807   6.127 -0.2406 -0.3365  0.4727
  605SOL    HW1 7651  10.397   0.713   6.145 -0.5506 -0.4421 -0.1863
  605SOL    HW2 7652  10.327   0.846   6.165 -0.9821 -0.5811 -0.7568
  606SOL     OW 7653   1.247   3.941   9.231  0.4772 -0.2872 -0.4837
  606SOL    HW1 7654   1.161   3.966   9.264  1.1617 -0.4098  1.5732
  606SOL    HW2 7655   1.241   3.847   9.214  0.7674 -0.7712  1.7976
  607SOL     OW 7656   4.714   5.346   8.733 -0.2474 -0.1483 -0.2863
  607SOL    HW1 7657   4.784   5.410   8.745 -0.5484  0.0121  0.6903
  607SOL    HW2 7658   4.643   5.395   8.691 -0.2897  0.0293 -0.0049
  608SOL     OW 7659   5.893   5.967   6.837  0.1485  0.1298  0.4033
  608SOL    HW1 7660   5.963   6.030   6.847  0.2669 -0.2185  1.9222
  608SOL    HW2 7661   5.903   5.907   6.911 -1.4692 -0.1900  0.4081
  609SOL     OW 7662   0.562   5.874   7.918 -0.4849 -0.1644  0.1275
  609SOL    HW1 7663   0.605   5.918   7.991  1.2984 -1.3158 -0.1460
  609SOL    HW2 7664   0.564   5.938   7.847 -1.7583  0.7743  0.9099
  610SOL     OW 7665   6.759   9.821   2.256  0.9693  0.9212  0.3196
  610SOL    HW1 7666   6.839   9.775   2.230  1.8416  1.7310  1.4980
  610SOL    HW2 7667   6.787   9.884   2.322 -0.4977  1.9067  0.0578
  611SOL     OW 7668   5.741   2.935  10.289 -0.3732 -0.3088 -0.1291
  611SOL    HW1 7669   5.742   2.962  10.197 -1.8310  0.0861 -0.0557
  611SOL    HW2 7670   5.664   2.878  10.296 -1.6983  1.5227  1.2983
  612SOL     OW 7671   4.437   6.166   6.725 -0.0038 -0.4818  0.1024
  612SOL    HW1 7672   4.388   6.102   6.776 -0.8445 -0.4102 -0.5933
  612SOL    HW2 7673   4.436   6.245   6.779  1.6998 -1.2274  1.3174
  613SOL     OW 7674   1.238   5.902   7.165  0.1337 -0.9614  0.7259
  613SOL    HW1 7675   1.154   5.916   7.120 -0.7741 -4.2601  1.1461
  613SOL    HW2 7676   1.213   5.889   7.257  1.0544 -2.1491  0.8259
  614SOL     OW 7677  10.676   4.427   6.012  0.0140 -0.3591  0.2162
  614SOL    HW1 7678  10.632   4.366   5.953 -0.5723  0.5582 -0.3171
  614SOL    HW2 7679  10.769   4.418   5.990 -0.0859 -0.8784 -0.0157
  615SOL     OW 7680   0.573   0.911   4.350  0.0676 -0.0176 -0.3416
  615SOL    HW1 7681   0.495   0.954   4.313  0.7861  0.3496 -1.4789
  615SOL    HW2 7682   0.642   0.977   4.343  0.9452 -0.9881 -1.1663
  616SOL     OW 7683   7.248   5.388   3.047 -0.2199  0.4382  0.6349
  616SOL    HW1 7684   7.287   5.472   3.071  0.1431  0.2421  0.7337
  616SOL    HW2 7685   7.277   5.327   3.115 -0.9138  0.3452  0.8616
  617SOL     OW 7686   7.894  10.128   1.653 -0.0911  0.4237 -0.4324
  617SOL    HW1 7687   7.901  10.044   1.700 -0.9408  0.4036 -0.3350
  617SOL    HW2 7688   7.981  10.140   1.614  0.9591  0.8747  1.8675
  618SOL     OW 7689   9.503   6.109   7.282 -0.2333 -0.1712  0.2471
  618SOL    HW1 7690   9.459   6.032   7.247 -0.2753  0.0285 -0.1528
  618SOL    HW2 7691   9.433   6.163   7.318 -0.6068  1.0129 -2.0218
  619SOL     OW 7692  10.157   8.973   4.488  0.6168  0.2569  0.2135
  619SOL    HW1 7693  10.088   8.953   4.424 -0.0577  1.1603  0.6292
  619SOL    HW2 7694  10.221   8.902   4.477 -0.7859 -1.1125  0.4068
  620SOL     OW 7695   2.744   6.256   0.571  0.3890  0.0101  0.6308
  620SOL    HW1 7696   2.695   6.327   0.613 -1.4051 -2.9222  4.0545
  620SOL    HW2 7697   2.694   6.237   0.491 -0.2446  1.3135  0.6908
  621SOL     OW 7698   1.760   1.450   8.291 -0.1443  0.2597  0.4883
  621SOL    HW1 7699   1.828   1.497   8.242  0.5648 -0.4819  0.7339
  621SOL    HW2 7700   1.764   1.360   8.257 -0.3315 -0.0279  1.2007
  622SOL     OW 7701  10.043   3.467   4.544  0.0415 -0.2788 -0.0916
  622SOL    HW1 7702  10.015   3.381   4.512  0.3194 -0.1610 -0.6479
  622SOL    HW2 7703  10.136   3.472   4.523 -0.4272  1.0607 -2.0715
  623SOL     OW 7704   3.314   1.160  10.370  0.1366  0.0325 -0.0421
  623SOL    HW1 7705   3.308   1.129  10.460 -1.7356  0.0515 -0.1065
  623SOL    HW2 7706   3.360   1.091  10.323 -0.8605 -1.0422  0.5067
  624SOL     OW 7707   4.870   4.786   1.990  0.4027 -0.3093  0.3826
  624SOL    HW1 7708   4.898   4.847   1.922 -0.4085 -2.4394 -2.0331
  624SOL    HW2 7709   4.934   4.715   1.987 -1.1327 -1.7433 -0.1398
  625SOL     OW 7710   9.194   6.323  10.100  0.0733 -0.5140  0.4279
  625SOL    HW1 7711   9.203   6.352  10.191 -0.5782 -1.0460  0.6741
  625SOL    HW2 7712   9.175   6.229  10.107 -3.3783  0.0007 -0.0422
  626SOL     OW 7713  10.721   8.963   3.151 -0.5546  0.8774 -0.4641
  626SOL    HW1 7714  10.738   9.053   3.123  0.2390  1.4191  1.5606
  626SOL    HW2 7715  10.628   8.962   3.173 -0.8367  0.8542 -1.6063
  627SOL     OW 7716   5.380   5.357   0.564  0.6676 -0.1750 -0.4147
  627SOL    HW1 7717   5.419   5.389   0.483 -0.2991 -0.6146 -1.0580
  627SOL    HW2 7718   5.351   5.269   0.544 -0.8756  0.2202 -0.0228
  628SOL     OW 7719   5.459  10.241   6.399 -0.5202 -0.6511 -0.3252
  628SOL    HW1 7720   5.368  10.216   6.416 -1.0318 -0.0026 -1.9341
  628SOL    HW2 7721   5.497  10.165   6.355 -0.3143 -0.8452  0.1699
  629SOL     OW 7722   3.267   7.172   1.193 -0.3013 -0.2861 -0.1877
  629SOL    HW1 7723   3.320   7.173   1.113  0.9702  1.5580  0.6113
  629SOL    HW2 7724   3.178   7.191   1.163  0.1966  0.6029 -1.1655
  630SOL     OW 7725   6.289   9.398   5.835  0.1172 -0.2649 -0.3051
  630SOL    HW1 7726   6.297   9.425   5.743  0.1632 -1.4782 -0.6753
  630SOL    HW2 7727   6.365   9.438   5.878 -0.4337  1.1209 -0.5785
  631SOL     OW 7728   2.296   6.369   8.901 -0.3655 -0.3910 -0.2411
  631SOL    HW1 7729   2.259   6.440   8.848  1.2225 -0.1098 -1.0062
  631SOL    HW2 7730   2.362   6.329   8.845 -0.7265 -2.0202  0.4559
  632SOL     OW 7731   5.483   3.058   2.910  0.1640 -0.7619  0.1363
  632SOL    HW1 7732   5.483   3.153   2.928  3.6309 -0.1036 -2.4087
  632SOL    HW2 7733   5.567   3.027   2.944 -0.6153 -2.8356  0.3121
  633SOL     OW 7734   4.472   9.730   6.183  0.4910 -0.1974 -0.2090
  633SOL    HW1 7735   4.482   9.677   6.262  1.2148 -1.3008 -1.0048
  633SOL    HW2 7736   4.382   9.714   6.154 -0.0558  0.8644  0.8145
  634SOL     OW 7737   3.724   0.925   4.175  0.8174  0.2730  0.4956
  634SOL    HW1 7738   3.656   0.982   4.212  0.4249 -0.6385  1.2244
  634SOL    HW2 7739   3.765   0.978   4.107 -1.3003  0.5151 -0.6867
  635SOL     OW 7740   5.198   7.381   3.121 -0.0466  0.5050  0.3887
  635SOL    HW1 7741   5.112   7.351   3.090 -0.7228  1.2398  1.4703
  635SOL    HW2 7742   5.227   7.444   3.054  0.0714 -0.3902 -0.4265
  636SOL     OW 7743   7.606   4.213   8.043  0.5381 -0.2653  0.5783
  636SOL    HW1 7744   7.608   4.118   8.051  0.4885 -0.3952 -0.7285
  636SOL    HW2 7745   7.661   4.244   8.115  3.7371 -1.4724 -1.1105
  637SOL     OW 7746   4.933   4.327   1.459 -0.2957 -0.1637  0.0719
  637SOL    HW1 7747   4.897   4.330   1.370 -0.7097  0.0947  0.2420
  637SOL    HW2 7748   4.913   4.239   1.490 -0.5335 -0.1155  0.0596
  638SOL     OW 7749   6.750   5.132   2.033  0.4719 -0.2301 -0.5220
  638SOL    HW1 7750   6.687   5.084   1.979 -0.4839 -0.0740  0.4235
  638SOL    HW2 7751   6.762   5.076   2.110  2.8623 -1.1142 -1.4266
  639SOL     OW 7752  10.750   1.036   3.688 -0.3225 -0.2664  0.1367
  639SOL    HW1 7753  10.714   1.053   3.601 -0.6618 -1.7479 -0.0274
  639SOL    HW2 7754  10.777   1.123   3.719 -3.3905  0.8619  0.0059
  640SOL     OW 7755   3.259   3.308   0.791  0.8900  0.0292 -0.3689
  640SOL    HW1 7756   3.218   3.222   0.791  1.2178 -0.1641  1.2932
  640SOL    HW2 7757   3.353   3.290   0.784  1.1408  0.0744  2.0338
  641SOL     OW 7758   2.429   3.287   0.894 -0.5667  0.0754 -0.6366
  641SOL    HW1 7759   2.490   3.239   0.837  0.2831  0.9801 -0.5098
  641SOL    HW2 7760   2.384   3.347   0.835  2.2053  2.9476 -0.0865
  642SOL     OW 7761   5.533   2.711  10.331  0.4596 -0.2163  0.1184
  642SOL    HW1 7762   5.614   2.664  10.312  0.6280  0.6561 -1.4811
  642SOL    HW2 7763   5.470   2.642  10.355  1.5026 -0.9469  0.8586
  643SOL     OW 7764   0.642   2.871   5.038  0.3243 -0.1639 -0.2084
  643SOL    HW1 7765   0.579   2.890   5.108 -0.3037  1.0356 -1.0741
  643SOL    HW2 7766   0.726   2.900   5.073  0.1102 -0.1105  0.2727
  644SOL     OW 7767   8.901   1.632   5.100  0.4948 -0.2256  0.4594
  644SOL    HW1 7768   8.881   1.591   5.184  1.0251  0.4063  0.9111
  644SOL    HW2 7769   8.822   1.620   5.047 -0.0078 -0.2510  1.1996
  645SOL     OW 7770   7.193   4.806  10.377  0.5248 -0.0327 -0.0483
  645SOL    HW1 7771   7.113   4.846  10.413  0.6011 -0.2466  0.3692
  645SOL    HW2 7772   7.235   4.876  10.329  1.4304  0.8592  1.9255
  646SOL     OW 7773   5.093   7.997   1.295  0.0306  0.0106  0.5730
  646SOL    HW1 7774   5.052   7.963   1.215  0.0631  0.3607  0.4080
  646SOL    HW2 7775   5.178   8.029   1.266 -1.0224  2.6973  0.2088
  647SOL     OW 7776   4.468   6.022   9.256 -0.1733  0.0678 -0.2426
  647SOL    HW1 7777   4.392   6.057   9.211 -0.1365  0.0464 -0.3207
  647SOL    HW2 7778   4.436   5.943   9.299 -0.2335  0.1441 -0.1431
  648SOL     OW 7779   4.360   2.097   7.860  0.1311  0.3774 -0.0349
  648SOL    HW1 7780   4.432   2.098   7.797  0.2273 -1.2405  0.0106
  648SOL    HW2 7781   4.292   2.043   7.819  0.5239 -1.4145  1.5381
  649SOL     OW 7782   9.203   2.727   2.642  0.0259 -0.6710  0.2186
  649SOL    HW1 7783   9.226   2.747   2.733  0.1287  1.1276 -0.1581
  649SOL    HW2 7784   9.128   2.784   2.624  1.8576  1.3250 -1.6985
  650SOL     OW 7785   0.514   9.060   9.361 -0.1514 -0.4590 -0.1528
  650SOL    HW1 7786   0.600   9.064   9.321 -0.8251 -1.0447 -1.7440
  650SOL    HW2 7787   0.531   9.043   9.453  1.4166 -1.6462 -0.6220
  651SOL     OW 7788   7.500   2.166   7.474  0.1923  0.1195  0.6683
  651SOL    HW1 7789   7.433   2.136   7.536 -0.0467 -0.2442  0.2432
  651SOL    HW2 7790   7.491   2.261   7.473 -0.0823  0.0968  0.8829
  652SOL     OW 7791   9.871   6.924   5.310 -0.0377  0.0694 -0.1204
  652SOL    HW1 7792   9.892   7.015   5.333  0.9542 -0.3439  0.7030
  652SOL    HW2 7793   9.791   6.930   5.258 -0.0581  1.4049  0.0331
  653SOL     OW 7794  10.019   9.652   0.042 -0.0222 -0.4107 -0.3458
  653SOL    HW1 7795  10.079   9.578   0.038  1.8074  1.0086 -0.8822
  653SOL    HW2 7796   9.992   9.666  -0.048  0.6534  0.3180 -0.4494
  654SOL     OW 7797   0.034   1.032   1.440  0.3248 -0.0275  0.4307
  654SOL    HW1 7798   0.003   1.090   1.510  0.3769  1.5463 -0.7998
  654SOL    HW2 7799  -0.045   1.013   1.388  0.3082 -1.0967  0.8138
  655SOL     OW 7800   9.315   4.500   3.672  0.6069 -0.0508 -0.2421
  655SOL    HW1 7801   9.349   4.514   3.584  1.0567  1.6981  0.1739
  655SOL    HW2 7802   9.362   4.562   3.727 -2.0351  1.3416  0.6385
  656SOL     OW 7803   0.227   3.948   0.349 -0.1732  0.2867  0.3575
  656SOL    HW1 7804   0.257   3.946   0.440  0.2831  2.2795  0.2969
  656SOL    HW2 7805   0.183   4.033   0.340 -0.8407 -0.1757 -1.1033
  657SOL     OW 7806   0.260   9.936   6.798  0.0272  0.0983 -0.6771
  657SOL    HW1 7807   0.323   9.867   6.778  3.4067  3.0903 -1.5080
  657SOL    HW2 7808   0.239   9.924   6.890  2.1331 -0.8965 -0.2629
  658SOL     OW 7809   9.557   6.904   7.201 -0.5082  0.3120 -0.8782
  658SOL    HW1 7810   9.634   6.898   7.258 -0.4895 -0.0864 -0.9389
  658SOL    HW2 7811   9.583   6.858   7.121 -0.7699  0.2701 -0.9406
  659SOL     OW 7812   1.263   4.412   9.759  0.1060  0.2710  0.0704
  659SOL    HW1 7813   1.343   4.386   9.804  3.1262  1.8332 -3.8133
  659SOL    HW2 7814   1.244   4.500   9.793 -0.1374 -0.1734  1.1282
  660SOL     OW 7815   0.205   0.630   4.061 -0.3866 -0.2237 -0.0296
  660SOL    HW1 7816   0.202   0.579   4.142  5.1225 -0.0772  0.6377
  660SOL    HW2 7817   0.222   0.720   4.090  1.0994 -0.0667 -1.2922
  661SOL     OW 7818   2.829   3.291   0.825  0.1472  0.6920 -0.5030
  661SOL    HW1 7819   2.832   3.195   0.828 -0.1172  0.6865 -0.4221
  661SOL    HW2 7820   2.776   3.315   0.901 -1.7725  0.8101 -1.8413
  662SOL     OW 7821   6.669   5.405   2.031  0.1217 -0.8527  0.8335
  662SOL    HW1 7822   6.697   5.314   2.045  2.3582 -0.2852  0.4663
  662SOL    HW2 7823   6.643   5.435   2.118 -0.1367 -1.6895  1.0578
  663SOL     OW 7824   9.976   2.148   3.513 -0.4187 -0.0452 -0.5161
  663SOL    HW1 7825  10.020   2.081   3.565 -1.7569 -0.3809  0.2434
  663SOL    HW2 7826  10.042   2.216   3.501  0.2768 -0.4775  0.6616
  664SOL     OW 7827  10.154   0.908   2.268  1.0512 -0.0236 -0.1421
  664SOL    HW1 7828  10.232   0.928   2.216  1.7146 -0.0322  0.8355
  664SOL    HW2 7829  10.184   0.844   2.333  0.2763  0.1318  0.3822
  665SOL     OW 7830   2.632   0.398   5.569  0.4372 -1.1192 -0.3227
  665SOL    HW1 7831   2.674   0.329   5.621 -1.1836 -1.0205  1.2360
  665SOL    HW2 7832   2.542   0.367   5.558  0.2474 -0.2170 -1.4524
  666SOL     OW 7833   0.307  10.401   3.233  0.1594  0.1694 -0.0046
  666SOL    HW1 7834   0.386  10.454   3.219 -0.8710  1.4500 -1.2764
  666SOL    HW2 7835   0.314  10.371   3.323  2.0081  0.3964 -0.0368
  667SOL     OW 7836   4.930   0.854   6.213 -0.3719  0.0815 -0.1366
  667SOL    HW1 7837   4.931   0.788   6.283  2.0742  0.6556  0.4670
  667SOL    HW2 7838   5.022   0.868   6.193 -0.9380  1.7479 -1.7826
  668SOL     OW 7839   2.714   5.874   1.078  0.3626  0.0521 -0.4206
  668SOL    HW1 7840   2.681   5.930   1.008 -1.0074 -0.1239  0.0542
  668SOL    HW2 7841   2.662   5.898   1.155  1.2852 -0.3210  0.3425
  669SOL     OW 7842   6.629   6.963   1.306  0.6437 -0.1908 -0.1284
  669SOL    HW1 7843   6.683   6.953   1.227 -0.3316  0.5313 -0.9088
  669SOL    HW2 7844   6.682   7.018   1.364  0.5591  0.9495 -1.0921
  670SOL     OW 7845   7.723  10.898   9.700 -0.1951  0.2769  0.2325
  670SOL    HW1 7846   7.745  10.956   9.627 -0.5586 -1.8782 -1.7223
  670SOL    HW2 7847   7.808  10.864   9.730 -0.0648  0.9718  0.6821
  671SOL     OW 7848   5.795   1.995   3.306  0.1928 -0.1688  0.0171
  671SOL    HW1 7849   5.828   2.084   3.308  0.7749 -0.3901  0.9130
  671SOL    HW2 7850   5.790   1.973   3.213 -0.1713  0.8658 -0.2199
  672SOL     OW 7851   3.509   0.186   6.289 -0.7547 -0.0629  0.4139
  672SOL    HW1 7852   3.423   0.145   6.302 -0.4639 -0.6241  0.6160
  672SOL    HW2 7853   3.533   0.163   6.199 -1.1951  0.8235  0.0653
  673SOL     OW 7854   7.144   2.048   8.212  0.6183  0.3663  0.4081
  673SOL    HW1 7855   7.139   2.090   8.298  2.0318 -0.5693  0.9780
  673SOL    HW2 7856   7.237   2.027   8.201  0.4103  0.1488 -1.2076
  674SOL     OW 7857  10.500   7.160   2.276  0.1153  0.1668 -0.0975
  674SOL    HW1 7858  10.494   7.145   2.371  0.0963 -1.0367 -0.2729
  674SOL    HW2 7859  10.592   7.143   2.256  0.6094  2.4554  0.0073
  675SOL     OW 7860   2.705   1.502   3.394  0.6534 -0.0503 -0.0893
  675SOL    HW1 7861   2.638   1.569   3.384  0.9527  0.4064  0.8384
  675SOL    HW2 7862   2.692   1.444   3.319  1.1174  1.6453 -1.5319
  676SOL     OW 7863   4.263   8.734   7.708 -0.5692  0.2241  0.0865
  676SOL    HW1 7864   4.229   8.654   7.668  0.8621 -0.0090 -0.7607
  676SOL    HW2 7865   4.189   8.794   7.710 -1.3313 -0.6674 -0.5019
  677SOL     OW 7866   8.386   8.705   6.006  0.0076 -0.6057 -0.5125
  677SOL    HW1 7867   8.412   8.654   5.930  2.3694  0.2005 -0.3445
  677SOL    HW2 7868   8.290   8.709   6.002  0.0489 -0.7750 -3.2951
  678SOL     OW 7869   7.405   2.035   9.051 -0.0059 -0.2519 -0.1278
  678SOL    HW1 7870   7.455   2.053   8.971 -0.5966 -0.4341 -0.5520
  678SOL    HW2 7871   7.378   2.121   9.082  0.7760 -0.1384  0.2405
  679SOL     OW 7872   6.667  10.413   7.882  0.4215  0.1055  0.5809
  679SOL    HW1 7873   6.607  10.344   7.854  0.2658  0.5300 -0.1531
  679SOL    HW2 7874   6.745  10.367   7.911  1.4191 -0.3366 -2.4755
  680SOL     OW 7875   9.767   7.401  10.193 -0.0387 -0.0008 -0.2882
  680SOL    HW1 7876   9.685   7.421  10.239  0.6267  2.1112  0.1048
  680SOL    HW2 7877   9.807   7.486  10.178  2.8010 -1.0057  0.8727
  681SOL     OW 7878   9.794   5.239   4.989 -0.6442 -0.0323 -0.4696
  681SOL    HW1 7879   9.828   5.324   5.015  0.0271 -0.5970  0.5764
  681SOL    HW2 7880   9.774   5.194   5.071 -1.6696 -0.6219 -1.0167
  682SOL     OW 7881   2.779   8.943   1.213 -0.1833 -0.3679  0.5314
  682SOL    HW1 7882   2.737   9.028   1.228  0.3113 -0.1128  0.4963
  682SOL    HW2 7883   2.771   8.897   1.296 -2.0235 -0.9930  0.0414
  683SOL     OW 7884   7.932   7.790   4.002 -0.3191  0.4115  0.4910
  683SOL    HW1 7885   7.991   7.767   3.930  0.5642 -0.4397  1.4505
  683SOL    HW2 7886   7.954   7.728   4.072 -4.7222 -2.3664 -0.1930
  684SOL     OW 7887   3.725   0.033   1.088  0.4644  0.2507  0.1811
  684SOL    HW1 7888   3.784   0.056   1.159  1.2681 -1.7804  0.2402
  684SOL    HW2 7889   3.777   0.045   1.009  1.0028 -1.5010  0.2312
  685SOL     OW 7890   5.999   9.706   8.791 -0.1935  0.1167 -0.1370
  685SOL    HW1 7891   5.961   9.719   8.704  0.5200  1.5104 -0.2749
  685SOL    HW2 7892   6.060   9.633   8.779 -0.4559 -0.0160 -0.7043
  686SOL     OW 7893   2.435   8.613   0.719 -0.3665 -0.0356  0.3803
  686SOL    HW1 7894   2.528   8.634   0.711 -0.2427  0.1277  2.0364
  686SOL    HW2 7895   2.422   8.594   0.812 -1.7282 -1.3495 -0.0441
  687SOL     OW 7896   2.689   4.967   8.822  0.2378 -0.3928 -0.1400
  687SOL    HW1 7897   2.598   4.937   8.812  0.5335 -0.5948 -2.9843
  687SOL    HW2 7898   2.682   5.062   8.832 -0.2988 -0.4647  0.2123
  688SOL     OW 7899   2.764   6.934   6.516 -0.4610  0.3341  0.2758
  688SOL    HW1 7900   2.711   6.876   6.462  1.2488  1.2597 -2.6435
  688SOL    HW2 7901   2.782   6.884   6.596 -2.7330 -1.2999 -0.1534
  689SOL     OW 7902   6.256  10.251   5.399 -0.2995 -0.4295 -0.0023
  689SOL    HW1 7903   6.168  10.283   5.382  0.5336  1.7065 -0.6832
  689SOL    HW2 7904   6.283  10.295   5.479  0.3918 -0.5130 -0.1815
  690SOL     OW 7905  10.177   2.828   2.901 -0.1852  0.0047 -0.0966
  690SOL    HW1 7906  10.161   2.777   2.980 -0.6353 -1.5986 -1.1861
  690SOL    HW2 7907  10.121   2.905   2.911  3.3047  2.4615  3.3744
  691SOL     OW 7908   9.775   3.827   1.200 -0.1621  0.1141  0.4841
  691SOL    HW1 7909   9.726   3.868   1.272  0.1440  0.8002  0.3111
  691SOL    HW2 7910   9.776   3.734   1.222  0.7117  0.4080  1.8805
  692SOL     OW 7911   9.360   6.016   1.918  0.3576 -0.2165  0.3117
  692SOL    HW1 7912   9.357   6.031   1.824  1.5989 -1.5611  0.0278
  692SOL    HW2 7913   9.453   6.014   1.939  0.1585  2.4827  2.0275
  693SOL     OW 7914   5.832  10.081   7.006  0.1435  0.3853  0.2443
  693SOL    HW1 7915   5.806  10.132   7.083  0.1689  2.9116 -1.3121
  693SOL    HW2 7916   5.834  10.145   6.935  1.5218 -1.5763 -1.5879
  694SOL     OW 7917   5.329   2.623   5.889 -0.0935  0.0575 -0.1594
  694SOL    HW1 7918   5.403   2.661   5.937  1.0937 -1.2354 -0.8969
  694SOL    HW2 7919   5.364   2.543   5.850 -2.2635 -1.3548  0.5963
  695SOL     OW 7920   2.361   8.093  10.372  0.1987  0.3803  0.3739
  695SOL    HW1 7921   2.396   8.005  10.387 -1.4018 -0.2853  0.4398
  695SOL    HW2 7922   2.266   8.080  10.365  0.1333  1.6302 -2.8409
  696SOL     OW 7923   4.194   9.395   9.684  0.8089  0.5451 -0.0945
  696SOL    HW1 7924   4.119   9.452   9.701  1.3092  1.3493 -0.4815
  696SOL    HW2 7925   4.170   9.347   9.605  0.7813  0.9711 -0.3524
  697SOL     OW 7926   0.383   9.197   5.719  0.2121  0.2514 -0.0007
  697SOL    HW1 7927   0.433   9.214   5.638 -0.6619  1.4213 -0.3277
  697SOL    HW2 7928   0.295   9.228   5.699 -0.8797 -2.3854  0.3279
  698SOL     OW 7929   3.324  10.191   9.624  1.1807 -0.5430  0.2736
  698SOL    HW1 7930   3.411  10.153   9.610  1.8869  0.9467  0.3830
  698SOL    HW2 7931   3.313  10.190   9.719  0.8835 -1.1136  0.2381
  699SOL     OW 7932   5.711   9.624  10.497  0.4688 -0.4669 -1.1074
  699SOL    HW1 7933   5.681   9.573  10.573  0.6105  1.0902  0.0455
  699SOL    HW2 7934   5.634   9.674  10.470  0.4608 -0.8977 -1.9273
  700SOL     OW 7935   5.041   3.333   6.026 -0.1866 -0.2651 -0.1686
  700SOL    HW1 7936   4.958   3.322   5.981  0.5137  0.0448 -1.5942
  700SOL    HW2 7937   5.029   3.290   6.110 -2.0812  0.5718  0.0398
  701SOL     OW 7938  10.120   5.800   2.485  0.5990  0.2144  0.4681
  701SOL    HW1 7939  10.204   5.815   2.443 -0.3701  1.3129 -1.1763
  701SOL    HW2 7940  10.081   5.727   2.438  0.9200 -0.7800  1.7066
  702SOL     OW 7941   1.024   4.388   7.353  0.3851  0.4557  0.3757
  702SOL    HW1 7942   1.022   4.477   7.318  0.1061  0.5213  0.5580
  702SOL    HW2 7943   1.016   4.399   7.448  2.7069  0.3777  0.6534
  703SOL     OW 7944  10.648   9.286   7.853  0.3447  0.4713 -0.1311
  703SOL    HW1 7945  10.728   9.301   7.803 -0.1777 -0.5783 -1.3376
  703SOL    HW2 7946  10.645   9.358   7.915  0.7715  2.1618 -1.9492
  704SOL     OW 7947   9.286   8.740   8.245  0.0873  0.2103  0.2578
  704SOL    HW1 7948   9.229   8.774   8.175  0.6568  2.2210  0.7296
  704SOL    HW2 7949   9.329   8.664   8.205 -2.2248 -0.8548 -0.3985
  705SOL     OW 7950   3.808   9.221   0.947  0.3254 -0.1161  0.4271
  705SOL    HW1 7951   3.856   9.196   0.868  1.3852 -0.3055  1.1085
  705SOL    HW2 7952   3.861   9.291   0.986  0.4190 -0.7904  1.5496
  706SOL     OW 7953   3.978   3.316   7.783  0.2342 -0.5490 -0.3283
  706SOL    HW1 7954   4.020   3.392   7.823  0.9194 -0.2589 -1.5374
  706SOL    HW2 7955   3.894   3.348   7.752  0.1612 -0.5019 -0.0823
  707SOL     OW 7956   3.306   8.545   6.387 -0.1154  0.1288  0.9129
  707SOL    HW1 7957   3.377   8.564   6.326 -0.6350  0.3671  0.3716
  707SOL    HW2 7958   3.287   8.452   6.373 -1.5834  0.6492 -0.7584
  708SOL     OW 7959   8.632   1.021   8.579 -0.3546  0.1918  0.8066
  708SOL    HW1 7960   8.650   1.052   8.668  0.1727  1.2557  0.3543
  708SOL    HW2 7961   8.574   1.087   8.543  0.1025  0.2096  0.0908
  709SOL     OW 7962   0.569   0.553   0.116 -0.8355  0.8826 -0.5188
  709SOL    HW1 7963   0.562   0.458   0.124 -1.9761  1.0095  0.2379
  709SOL    HW2 7964   0.482   0.582   0.090 -0.0291  1.5788 -2.5997
  710SOL     OW 7965   5.688   4.652  10.293  0.2163  0.1138 -0.1421
  710SOL    HW1 7966   5.650   4.642  10.381 -0.7292  1.4763 -0.3569
  710SOL    HW2 7967   5.781   4.638  10.306 -0.1590 -1.9177  0.6646
  711SOL     OW 7968  10.714   4.056   9.672 -0.2719 -0.0484  0.7903
  711SOL    HW1 7969  10.709   4.143   9.631  1.3118  0.3738  1.3975
  711SOL    HW2 7970  10.808   4.036   9.674 -0.6107 -1.8188  0.6169
  712SOL     OW 7971   4.915   5.046   2.181 -0.3419  0.7502  0.1148
  712SOL    HW1 7972   4.880   4.990   2.249  0.0467  1.7795  1.1904
  712SOL    HW2 7973   4.852   5.040   2.109 -0.8102 -0.2526  0.5991
  713SOL     OW 7974   5.633  10.644   8.027 -0.0619 -0.0003 -0.2997
  713SOL    HW1 7975   5.659  10.566   8.078 -2.7029 -0.0230  1.2028
  713SOL    HW2 7976   5.660  10.718   8.082 -0.0833  0.0670 -0.3810
  714SOL     OW 7977   8.127   4.946   8.420 -0.3817  0.8128 -0.0634
  714SOL    HW1 7978   8.093   4.928   8.507  1.2010  0.5094  0.5205
  714SOL    HW2 7979   8.049   4.956   8.365 -1.3967 -0.8794  0.9872
  715SOL     OW 7980   9.177   5.903   0.772  0.2721 -0.4983  0.0389
  715SOL    HW1 7981   9.110   5.920   0.706 -0.0256  0.5142  0.5806
  715SOL    HW2 7982   9.224   5.986   0.782  0.1834 -0.5603  1.2173
  716SOL     OW 7983   1.239  10.476   6.286 -0.4842  0.5658  0.0891
  716SOL    HW1 7984   1.183  10.489   6.209 -2.0702 -1.1027  0.8832
  716SOL    HW2 7985   1.195  10.526   6.355 -2.6312 -2.7610  1.3749
  717SOL     OW 7986   6.182   6.964   0.354 -0.0928  0.6779  0.0090
  717SOL    HW1 7987   6.225   6.922   0.429 -0.5602  0.5770  0.2228
  717SOL    HW2 7988   6.112   7.016   0.392  0.3060  1.4488 -0.2768
  718SOL     OW 7989  10.499   2.017   2.245 -0.6542  0.2650 -0.4176
  718SOL    HW1 7990  10.541   2.086   2.295  0.1968  0.0476 -0.8041
  718SOL    HW2 7991  10.567   1.987   2.184 -0.7787 -1.3734  0.2049
  719SOL     OW 7992   3.292   2.304   6.633  0.4221  0.1239  0.0297
  719SOL    HW1 7993   3.374   2.253   6.636 -0.8698 -2.0756  0.4533
  719SOL    HW2 7994   3.319   2.394   6.651  2.5683 -0.7845  1.8675
  720SOL     OW 7995   8.244  10.594  10.752 -0.1553 -0.1720 -0.1680
  720SOL    HW1 7996   8.193  10.665  10.713  0.1574 -0.0795 -0.4141
  720SOL    HW2 7997   8.283  10.633  10.830  2.1696  0.7497 -1.6783
  721SOL     OW 7998   5.710   5.996   4.119 -0.6343 -0.2613 -0.5012
  721SOL    HW1 7999   5.731   5.918   4.171  0.2663  0.2237 -0.1191
  721SOL    HW2 8000   5.614   5.999   4.119 -0.6672 -0.5840  0.6777
  722SOL     OW 8001  10.537   2.946   2.607 -0.7014  0.1587  0.3381
  722SOL    HW1 8002  10.472   2.991   2.554  0.6980  0.6992 -0.9924
  722SOL    HW2 8003  10.528   2.984   2.694 -0.6973  1.8191 -0.3540
  723SOL     OW 8004   0.465   8.856   0.518  0.0208  0.5560 -0.2355
  723SOL    HW1 8005   0.465   8.951   0.518 -0.5958  0.5630  0.2546
  723SOL    HW2 8006   0.550   8.832   0.553  1.1772  0.8913 -2.5999
  724SOL     OW 8007   2.179  10.117   9.250  0.1882  0.4977 -0.5807
  724SOL    HW1 8008   2.130  10.098   9.329 -2.1759  1.1490 -1.7909
  724SOL    HW2 8009   2.207  10.032   9.217  0.2304  0.1415  0.3634
  725SOL     OW 8010  10.508   2.273  10.483 -0.6172 -0.2059  0.1734
  725SOL    HW1 8011  10.514   2.271  10.579 -0.2597 -0.5797  0.1453
  725SOL    HW2 8012  10.536   2.185  10.456  1.4816  0.5978 -0.4085
  726SOL     OW 8013   0.598   5.671   5.897 -0.0316 -0.7153  0.0178
  726SOL    HW1 8014   0.526   5.668   5.959  0.1297 -0.6097  0.2113
  726SOL    HW2 8015   0.629   5.762   5.901 -0.3087 -0.5901 -0.5445
  727SOL     OW 8016   8.124   4.842   2.473  0.3660  0.3962 -0.1556
  727SOL    HW1 8017   8.210   4.883   2.480 -0.5595  2.1930  1.7453
  727SOL    HW2 8018   8.074   4.901   2.417 -0.3029  0.6841  0.7186
  728SOL     OW 8019   9.616   6.913   6.863  0.4286  0.4970  0.4460
  728SOL    HW1 8020   9.707   6.939   6.881  1.0421 -1.5688  0.5929
  728SOL    HW2 8021   9.624   6.831   6.814 -1.3759  0.4222  0.2174
  729SOL     OW 8022   2.363   3.236   5.670 -0.0030  0.1760 -1.0867
  729SOL    HW1 8023   2.276   3.270   5.692 -0.3653 -0.5731 -1.3270
  729SOL    HW2 8024   2.403   3.216   5.755 -0.3528 -0.1673 -0.9988
  730SOL     OW 8025   4.374   6.917   4.459  0.0372 -0.3321 -0.3891
  730SOL    HW1 8026   4.465   6.893   4.476 -0.1342 -0.6744  0.0621
  730SOL    HW2 8027   4.326   6.881   4.533 -0.5498 -0.6973 -0.9369
  731SOL     OW 8028   4.238   9.108   5.469 -0.6678 -0.1203 -0.0343
  731SOL    HW1 8029   4.155   9.149   5.495 -0.1337  0.4636  0.7731
  731SOL    HW2 8030   4.252   9.040   5.534  0.3821  0.9629  0.8985
  732SOL     OW 8031   6.400   8.068  10.707 -0.4877 -0.1013 -0.5108
  732SOL    HW1 8032   6.317   8.114  10.715 -0.8831 -0.8488 -0.2203
  732SOL    HW2 8033   6.449   8.118  10.642 -1.2218  0.2533 -0.8003
  733SOL     OW 8034   9.747   0.317  10.426 -0.1428  0.2564  0.3355
  733SOL    HW1 8035   9.756   0.411  10.438  2.2431  0.5006 -2.2421
  733SOL    HW2 8036   9.654   0.299  10.437 -0.8789  3.1510 -0.5752
  734SOL     OW 8037   2.689   5.290   0.728  0.1292 -0.0429  0.1895
  734SOL    HW1 8038   2.732   5.373   0.751 -1.9931  0.4267  2.8931
  734SOL    HW2 8039   2.598   5.302   0.753 -0.0961 -3.4868  1.5544
  735SOL     OW 8040  10.166   6.585  10.476 -0.7540 -0.5086  0.0069
  735SOL    HW1 8041  10.071   6.572  10.477 -0.8553  0.0559 -1.0066
  735SOL    HW2 8042  10.177   6.679  10.460 -0.0373 -0.8837 -1.9551
  736SOL     OW 8043   7.200   6.853   1.079 -0.2211 -0.2189  0.3972
  736SOL    HW1 8044   7.187   6.874   0.986  0.1512  0.3021  0.4640
  736SOL    HW2 8045   7.177   6.760   1.085  0.1664 -0.3706 -0.3009
  737SOL     OW 8046   7.044   2.639   4.176  0.3120 -0.8362 -0.3106
  737SOL    HW1 8047   7.002   2.723   4.193  1.4976 -0.2291 -0.2432
  737SOL    HW2 8048   7.036   2.627   4.082  1.0236 -0.1354 -0.4732
  738SOL     OW 8049   4.009   9.799   9.832 -0.0598  0.1538  0.1091
  738SOL    HW1 8050   3.932   9.822   9.780  0.4089 -0.6721 -1.0029
  738SOL    HW2 8051   4.064   9.878   9.829 -0.2155  0.2495 -0.3299
  739SOL     OW 8052   8.964   7.689   8.871  0.1195 -0.2547 -0.1692
  739SOL    HW1 8053   8.884   7.689   8.924 -1.0147  3.7615 -1.5544
  739SOL    HW2 8054   9.028   7.735   8.925  1.0128 -1.8707  0.2030
  740SOL     OW 8055   1.649   6.062   9.116 -0.1509  0.3131  0.0463
  740SOL    HW1 8056   1.735   6.058   9.074 -0.3235 -0.6160 -0.2417
  740SOL    HW2 8057   1.594   6.005   9.062 -0.8944  0.7366  0.3485
  741SOL     OW 8058   3.203   0.786   2.260 -0.3606 -0.4008 -0.2664
  741SOL    HW1 8059   3.133   0.723   2.240 -1.5144  0.7863 -0.0653
  741SOL    HW2 8060   3.201   0.848   2.187 -2.1071  1.8246  1.5245
  742SOL     OW 8061   5.639   4.037   1.213 -0.0862 -0.5181 -0.0266
  742SOL    HW1 8062   5.664   3.977   1.284  0.5239  0.1327  0.3229
  742SOL    HW2 8063   5.694   4.114   1.227 -0.8795  0.1366 -0.4521
  743SOL     OW 8064   7.552   1.800   7.481  0.5069 -0.4665 -0.0994
  743SOL    HW1 8065   7.641   1.825   7.505  0.5358 -0.1707 -0.5242
  743SOL    HW2 8066   7.525   1.863   7.414  0.2279 -0.9698 -0.4695
  744SOL     OW 8067   6.120   8.304   7.922  0.2440  0.2166  0.0848
  744SOL    HW1 8068   6.044   8.289   7.865 -1.5580 -1.6176  2.7196
  744SOL    HW2 8069   6.086   8.293   8.011  4.0438 -3.5043  1.4079
  745SOL     OW 8070   7.809  10.496   6.215  0.0878  0.5171  0.1263
  745SOL    HW1 8071   7.883  10.464   6.267 -0.4970 -1.7784 -0.3371
  745SOL    HW2 8072   7.735  10.494   6.276 -0.1228  0.1482 -0.1380
  746SOL     OW 8073   5.591   0.120   7.936  0.6162 -0.2105  0.4192
  746SOL    HW1 8074   5.568   0.119   7.843  0.9526  0.6077  0.3149
  746SOL    HW2 8075   5.622   0.209   7.951  2.3256 -0.8605  0.8976
  747SOL     OW 8076  10.706   0.906   6.876  0.6656 -0.1868 -0.4255
  747SOL    HW1 8077  10.715   0.996   6.846  0.1545  0.3010  0.8377
  747SOL    HW2 8078  10.617   0.901   6.913  1.3416 -0.6524  1.2439
  748SOL     OW 8079   6.100   5.646   0.717  0.1625  0.2550 -0.3257
  748SOL    HW1 8080   6.121   5.666   0.625  0.7048 -0.5517 -0.3823
  748SOL    HW2 8081   6.173   5.684   0.767  0.9599 -1.1210 -0.3993
  749SOL     OW 8082   2.441   6.127  10.694 -1.0228 -0.2763 -0.6894
  749SOL    HW1 8083   2.366   6.182  10.671 -1.7323 -1.0318 -0.2093
  749SOL    HW2 8084   2.512   6.190  10.711 -1.8130  0.4881 -0.1641
  750SOL     OW 8085   7.378   2.217   7.944 -0.3607  0.3417 -0.8139
  750SOL    HW1 8086   7.375   2.304   7.903 -0.4571 -0.0363 -1.6293
  750SOL    HW2 8087   7.384   2.156   7.871 -2.5597 -0.4740 -0.3913
  751SOL     OW 8088  10.924   5.505   2.536  0.5930  0.0334  0.1975
  751SOL    HW1 8089  10.941   5.575   2.599  0.1208  0.3219  0.0048
  751SOL    HW2 8090  10.861   5.448   2.579 -0.1236  0.5044 -0.1996
  752SOL     OW 8091   3.004   2.081   8.895 -0.0204  0.0237  0.5962
  752SOL    HW1 8092   3.036   1.996   8.927  0.5871  0.0309  0.0167
  752SOL    HW2 8093   2.954   2.059   8.817  0.9145  0.2852 -0.0846
  753SOL     OW 8094   0.101   1.352   5.000  0.4933  0.0693 -0.3902
  753SOL    HW1 8095   0.065   1.416   5.061  0.2045 -0.5439  0.0883
  753SOL    HW2 8096   0.189   1.334   5.033  0.3763 -0.1827 -0.2142
  754SOL     OW 8097   2.393   2.355  10.247  0.9055 -0.0882  0.2074
  754SOL    HW1 8098   2.379   2.270  10.206  3.1981 -0.5736  0.2743
  754SOL    HW2 8099   2.429   2.410  10.177 -0.1826  0.7341  0.2688
  755SOL     OW 8100   2.383   7.729   7.884  0.0473  0.1704 -0.3986
  755SOL    HW1 8101   2.352   7.709   7.972  0.3856  1.0054 -0.0743
  755SOL    HW2 8102   2.446   7.661   7.864  0.2823  0.2128  0.1798
  756SOL     OW 8103   6.729   6.322   0.486 -0.5959 -0.2232  0.6060
  756SOL    HW1 8104   6.686   6.407   0.490 -0.5265 -0.1917  0.6783
  756SOL    HW2 8105   6.807   6.336   0.432 -0.2136 -0.0773  1.1744
  757SOL     OW 8106   9.712  10.469   0.866  0.7425 -0.3810  0.2032
  757SOL    HW1 8107   9.625  10.437   0.889  0.0655  1.7873  0.8936
  757SOL    HW2 8108   9.720  10.452   0.772  0.1249 -1.7585  0.3774
  758SOL     OW 8109   7.889   0.763   9.407 -0.0899  0.3865 -0.0584
  758SOL    HW1 8110   7.951   0.726   9.344  0.5778 -1.1757  1.4392
  758SOL    HW2 8111   7.923   0.850   9.428  1.9111 -0.6130  1.0809
  759SOL     OW 8112  10.917   2.781   8.535 -0.0900  0.6265  0.5997
  759SOL    HW1 8113  10.850   2.804   8.600 -0.3485  1.5600  0.0317
  759SOL    HW2 8114  10.987   2.845   8.550 -0.0369  0.6786  0.1395
  760SOL     OW 8115   9.132   5.810  10.245 -0.0801  0.0844  0.2846
  760SOL    HW1 8116   9.064   5.878  10.246  0.2217  0.4495 -1.1336
  760SOL    HW2 8117   9.214   5.858  10.244  0.1425 -0.2935 -0.5163
  761SOL     OW 8118   3.356   9.662   4.249 -0.2012 -0.8581 -0.3582
  761SOL    HW1 8119   3.401   9.604   4.188  0.7430 -0.6212  0.0929
  761SOL    HW2 8120   3.308   9.604   4.307  1.3535 -1.2596  0.5786
  762SOL     OW 8121   2.088   3.165   3.850  0.1085 -0.1162  0.3690
  762SOL    HW1 8122   2.159   3.229   3.848 -0.7471  0.8755 -1.8563
  762SOL    HW2 8123   2.008   3.218   3.845 -0.6190 -1.2761 -2.1414
  763SOL     OW 8124   5.652   2.452   5.341 -0.0180  0.5771 -0.1285
  763SOL    HW1 8125   5.681   2.512   5.273 -0.2194  0.0406 -0.7008
  763SOL    HW2 8126   5.587   2.501   5.391 -1.8188  0.1682 -1.9245
  764SOL     OW 8127   7.946   2.184   1.150  0.3141  0.1457  0.6458
  764SOL    HW1 8128   7.976   2.120   1.214  0.5373  0.6818  1.0842
  764SOL    HW2 8129   8.000   2.168   1.073 -1.9693 -2.5246 -0.5499
  765SOL     OW 8130   1.224  10.147   2.532 -0.4380 -0.4289 -0.1717
  765SOL    HW1 8131   1.161  10.216   2.508 -0.9276 -0.1809  1.7004
  765SOL    HW2 8132   1.280  10.187   2.598 -1.2247 -2.0039  1.5399
  766SOL     OW 8133   4.871   8.553   2.534  0.1353 -0.0150  0.0424
  766SOL    HW1 8134   4.780   8.524   2.533 -0.5906  2.0482 -2.0072
  766SOL    HW2 8135   4.871   8.630   2.592  0.7698 -0.4810  0.6772
  767SOL     OW 8136   6.876   2.517   8.734  0.4957 -0.0450  0.3220
  767SOL    HW1 8137   6.798   2.475   8.769  0.0445  0.0507 -0.5437
  767SOL    HW2 8138   6.918   2.558   8.810 -1.1129  1.2248  0.5681
  768SOL     OW 8139   2.534   8.722   3.934  0.3484  0.0430  0.1432
  768SOL    HW1 8140   2.471   8.697   4.001 -0.2513 -1.8062 -1.0360
  768SOL    HW2 8141   2.593   8.646   3.927  0.6098  0.3384 -1.1372
  769SOL     OW 8142   9.365   0.425  10.171 -0.1173 -0.4000 -0.2764
  769SOL    HW1 8143   9.367   0.511  10.213  2.3439 -0.3277 -0.3804
  769SOL    HW2 8144   9.441   0.425  10.113 -1.6548 -1.6494 -2.4265
  770SOL     OW 8145   7.566   8.222   1.782 -0.0706 -0.1433 -0.2548
  770SOL    HW1 8146   7.575   8.301   1.835  1.1459 -0.7695  0.5210
  770SOL    HW2 8147   7.647   8.217   1.732  0.7296 -1.8584  1.1118
  771SOL     OW 8148   2.978   2.007   3.055  0.6116  0.2955  0.0510
  771SOL    HW1 8149   3.009   2.098   3.053 -2.6280  1.5383  0.2161
  771SOL    HW2 8150   2.966   1.984   2.963 -1.6226  1.2867  0.0374
  772SOL     OW 8151   3.461   3.481   2.905 -0.0765  0.1124 -0.3334
  772SOL    HW1 8152   3.405   3.551   2.871  0.8709  1.2305  0.3635
  772SOL    HW2 8153   3.532   3.526   2.950 -1.1683 -1.2624  3.0706
  773SOL     OW 8154   9.230   0.927  10.230  0.1572 -0.1120 -0.5121
  773SOL    HW1 8155   9.242   0.919  10.135  2.3088 -0.4280 -0.2747
  773SOL    HW2 8156   9.248   1.019  10.248 -2.4450  0.4795 -0.6216
  774SOL     OW 8157   9.350   6.083   9.100 -0.3677 -0.3720  0.5619
  774SOL    HW1 8158   9.430   6.059   9.054 -0.2902  1.8850 -0.5932
  774SOL    HW2 8159   9.298   6.003   9.100  1.6649 -1.7755  0.9462
  775SOL     OW 8160   5.388   7.531   2.448 -0.5043 -0.3826 -0.4609
  775SOL    HW1 8161   5.362   7.621   2.465 -0.0997 -0.3233 -0.1509
  775SOL    HW2 8162   5.353   7.481   2.522 -1.6789 -0.6608 -1.1784
  776SOL     OW 8163   2.436   3.019   9.851  0.1685  0.0247 -0.2409
  776SOL    HW1 8164   2.401   3.017   9.940  2.5247  1.7310  0.8538
  776SOL    HW2 8165   2.359   3.021   9.795 -1.4221  0.5247  1.8284
  777SOL     OW 8166   5.666   4.874   1.803 -0.1233 -0.2558 -0.7499
  777SOL    HW1 8167   5.608   4.819   1.855  0.6108  0.1131  0.5168
  777SOL    HW2 8168   5.750   4.869   1.849 -0.1931  2.4096 -0.2228
  778SOL     OW 8169   2.188   4.203   6.511  0.5704  0.4371  0.1376
  778SOL    HW1 8170   2.236   4.254   6.445 -0.4837 -0.2383 -1.1910
  778SOL    HW2 8171   2.162   4.123   6.466 -2.3525  1.0249  0.5714
  779SOL     OW 8172  10.780   2.266   8.759 -0.1078 -0.5134  0.0748
  779SOL    HW1 8173  10.701   2.316   8.776  0.0960 -0.4488  0.9062
  779SOL    HW2 8174  10.845   2.332   8.734 -0.1090 -0.4695  0.1833
  780SOL     OW 8175   3.244   7.311   1.432 -0.1871 -0.0134  0.3875
  780SOL    HW1 8176   3.250   7.265   1.348 -1.4143  0.8774 -0.2187
  780SOL    HW2 8177   3.197   7.392   1.411 -0.1220  0.4264  1.8634
  781SOL     OW 8178   9.483   5.303   7.009 -0.2975  0.2784  0.1601
  781SOL    HW1 8179   9.544   5.299   7.082 -0.4725  0.5302  0.3198
  781SOL    HW2 8180   9.496   5.391   6.972  1.2749 -0.5385 -1.3882
  782SOL     OW 8181   5.079   1.185   2.008 -0.3755 -0.0405  0.2908
  782SOL    HW1 8182   5.013   1.229   2.061 -1.3991 -0.9601 -0.1978
  782SOL    HW2 8183   5.130   1.256   1.968  1.2368  0.7352  3.3931
  783SOL     OW 8184   7.150   7.403   8.668 -0.2076  0.0178 -0.4716
  783SOL    HW1 8185   7.158   7.421   8.574 -2.0565  1.2292 -0.4495
  783SOL    HW2 8186   7.232   7.360   8.691 -0.0222 -1.0537 -2.8067
  784SOL     OW 8187  10.810   0.241   5.330 -0.1894  0.4051  0.2099
  784SOL    HW1 8188  10.760   0.283   5.401  2.4370  1.8448  1.3888
  784SOL    HW2 8189  10.821   0.310   5.265 -1.0671 -0.3860 -0.8050
  785SOL     OW 8190   6.979   3.442   1.185  0.1136  0.4295 -0.2682
  785SOL    HW1 8191   6.936   3.361   1.212  0.1670 -0.5870 -2.9217
  785SOL    HW2 8192   6.911   3.491   1.138  0.4616  1.3004  0.1146
  786SOL     OW 8193   9.768   1.660   2.671 -0.0347  0.4437 -0.2779
  786SOL    HW1 8194   9.826   1.725   2.712 -1.8285  1.4481  0.8320
  786SOL    HW2 8195   9.795   1.577   2.709  0.6534  0.9056  0.2750
  787SOL     OW 8196   5.236   5.118   9.104  0.1234  0.5014 -0.1150
  787SOL    HW1 8197   5.175   5.064   9.155  0.6093 -1.1281 -1.1957
  787SOL    HW2 8198   5.297   5.153   9.169  0.9419 -1.8078  0.4403
  788SOL     OW 8199   3.320   1.544   2.707  1.0156  0.3333 -0.1987
  788SOL    HW1 8200   3.260   1.490   2.655  0.0872 -0.2845  1.4079
  788SOL    HW2 8201   3.267   1.620   2.731  1.5088  0.7261 -0.3568
  789SOL     OW 8202   7.014   4.323   9.078  0.0647 -0.1337  0.2516
  789SOL    HW1 8203   6.939   4.324   9.020  0.1690  0.9151  0.1120
  789SOL    HW2 8204   6.985   4.370   9.156  0.7452  0.8230 -0.0514
  790SOL     OW 8205   7.076   6.104  10.260 -0.0609  0.2433 -0.3468
  790SOL    HW1 8206   7.149   6.102  10.197 -0.6955 -0.1033 -1.0857
  790SOL    HW2 8207   6.999   6.085  10.207 -0.5819 -0.2759  0.5900
  791SOL     OW 8208   3.800   7.575   6.893  0.9839 -0.0811  0.4641
  791SOL    HW1 8209   3.764   7.590   6.980  1.0235  1.0752  0.3036
  791SOL    HW2 8210   3.812   7.481   6.887  0.8886 -0.1793  1.6719
  792SOL     OW 8211   0.566  10.877   0.488 -0.4266  0.4700 -0.0678
  792SOL    HW1 8212   0.658  10.881   0.513 -0.5079 -0.9972  0.5713
  792SOL    HW2 8213   0.536  10.968   0.491  0.8841  0.9136  0.1269
  793SOL     OW 8214   5.915   1.514   3.094 -0.6065 -0.3078  0.2030
  793SOL    HW1 8215   6.003   1.536   3.063 -1.2526  2.9944  0.3390
  793SOL    HW2 8216   5.892   1.434   3.047  1.4058  0.2720 -1.9485
  794SOL     OW 8217   5.023  10.517   0.410  0.6855 -0.1633 -0.3639
  794SOL    HW1 8218   4.942  10.467   0.418  0.1176  0.2094 -2.9192
  794SOL    HW2 8219   5.050  10.504   0.319  1.8274  2.2462 -0.4353
  795SOL     OW 8220   3.565   4.582   6.452 -0.1019  0.5387  0.5667
  795SOL    HW1 8221   3.621   4.582   6.530 -0.7625 -0.6942  1.0682
  795SOL    HW2 8222   3.592   4.505   6.403 -1.2258  0.0078  0.7403
  796SOL     OW 8223   9.602   6.023   7.691 -0.1960 -0.7641 -0.1679
  796SOL    HW1 8224   9.697   6.016   7.689 -0.2487 -1.3559 -0.9353
  796SOL    HW2 8225   9.573   5.947   7.741 -0.3352 -1.3786 -1.1724
  797SOL     OW 8226   2.772   6.219   6.365  0.3004  0.1159  0.1148
  797SOL    HW1 8227   2.725   6.191   6.286  0.0309  1.8283 -0.3810
  797SOL    HW2 8228   2.716   6.191   6.437 -1.3581  1.7490 -0.4531
  798SOL     OW 8229   2.240   7.855   3.720 -0.3347  0.2786 -0.0350
  798SOL    HW1 8230   2.295   7.777   3.731 -0.3775 -0.2066 -2.6508
  798SOL    HW2 8231   2.156   7.831   3.760 -0.9758 -1.8404 -2.4075
  799SOL     OW 8232   1.160   6.680   6.549 -0.0693 -0.6734  0.6254
  799SOL    HW1 8233   1.195   6.591   6.539  3.4439  0.7991 -2.1200
  799SOL    HW2 8234   1.152   6.691   6.644  2.5645 -2.8829  1.2531
  800SOL     OW 8235   0.347   6.830   0.546  0.5252 -0.4230  0.1530
  800SOL    HW1 8236   0.426   6.785   0.517 -0.6666 -2.9610  0.5388
  800SOL    HW2 8237   0.283   6.811   0.477 -0.0005  0.8800  0.2520
  801SOL     OW 8238   9.499   8.856   7.244 -0.3222 -0.0341  0.6519
  801SOL    HW1 8239   9.593   8.871   7.233 -0.4774  1.2574  0.9204
  801SOL    HW2 8240   9.463   8.943   7.259 -1.9459 -0.1208 -2.0259
  802SOL     OW 8241   2.646   2.477   7.150 -0.6900  0.6845  0.1029
  802SOL    HW1 8242   2.742   2.473   7.143 -0.7830  0.4511 -1.3026
  802SOL    HW2 8243   2.630   2.506   7.240  0.6405 -1.3850  1.0726
  803SOL     OW 8244   7.340   5.244   2.405 -0.2031 -0.3104 -0.0555
  803SOL    HW1 8245   7.265   5.294   2.374 -0.2077 -0.8007 -0.8467
  803SOL    HW2 8246   7.358   5.180   2.336  0.9847 -0.1573  0.0773
  804SOL     OW 8247   9.738   7.529   0.869  0.3758  0.1366 -0.0609
  804SOL    HW1 8248   9.699   7.531   0.957 -0.5510  1.3451 -0.4617
  804SOL    HW2 8249   9.793   7.607   0.866 -1.4813  1.4809 -1.3167
  805SOL     OW 8250   0.948   7.050   3.890  0.5525 -0.5363  0.0907
  805SOL    HW1 8251   1.031   7.012   3.920 -0.4262 -2.0336  1.0403
  805SOL    HW2 8252   0.964   7.074   3.799  1.2617 -3.3104 -0.6117
  806SOL     OW 8253   8.776   3.883   6.892 -0.1585  0.0746 -0.4022
  806SOL    HW1 8254   8.790   3.790   6.909 -0.6169 -0.3861 -2.3009
  806SOL    HW2 8255   8.859   3.912   6.853 -0.0779  0.4228  0.0257
  807SOL     OW 8256  10.701   5.211   1.155 -0.3962  0.1936 -0.6814
  807SOL    HW1 8257  10.660   5.281   1.205 -0.5117 -0.2900 -0.0854
  807SOL    HW2 8258  10.795   5.226   1.165 -0.3016 -1.5828  2.2282
  808SOL     OW 8259   5.373   2.914   9.656  0.2749  0.0965  0.0214
  808SOL    HW1 8260   5.374   3.008   9.639 -1.5492  0.3691  1.1686
  808SOL    HW2 8261   5.336   2.905   9.744 -3.0807 -1.7910 -1.3650
  809SOL     OW 8262   9.534   2.357   1.859  0.1571 -0.3553  0.3882
  809SOL    HW1 8263   9.536   2.279   1.803 -1.9968 -0.6994  0.7330
  809SOL    HW2 8264   9.582   2.330   1.938  1.1096 -0.6565 -0.2657
  810SOL     OW 8265   2.016   8.093   0.324 -0.6099  0.0167 -0.3471
  810SOL    HW1 8266   2.019   8.125   0.234  1.8208  0.1235 -0.3056
  810SOL    HW2 8267   2.036   8.169   0.378 -0.0069 -0.4489  0.1134
  811SOL     OW 8268   4.370  10.549   1.085  0.9313  0.7598 -0.5943
  811SOL    HW1 8269   4.345  10.569   0.995 -2.4017 -1.1815 -0.2838
  811SOL    HW2 8270   4.326  10.466   1.105  2.2173  0.6588  2.5875
  812SOL     OW 8271   6.933   3.976   0.501 -0.0209 -0.3721  0.2421
  812SOL    HW1 8272   6.902   4.038   0.434  0.2729 -0.4587  0.0277
  812SOL    HW2 8273   6.950   4.031   0.577  0.1262 -0.2024  0.0888
  813SOL     OW 8274   5.676   2.180   7.270 -0.3230 -0.3021 -0.1867
  813SOL    HW1 8275   5.702   2.154   7.182  0.2705 -0.2774 -0.0245
  813SOL    HW2 8276   5.735   2.132   7.328 -0.5882 -0.1806  0.1901
  814SOL     OW 8277   8.246   6.175   6.622 -0.2740 -0.7296 -0.1448
  814SOL    HW1 8278   8.313   6.238   6.650  0.3147 -0.2773 -2.3565
  814SOL    HW2 8279   8.189   6.225   6.565  0.7845 -2.3322 -2.7879
  815SOL     OW 8280   0.136   2.874   6.982 -0.1228 -0.4559  0.2047
  815SOL    HW1 8281   0.071   2.825   6.932 -2.0716 -0.0992  2.1826
  815SOL    HW2 8282   0.220   2.847   6.947 -1.3178 -1.1765 -2.2948
  816SOL     OW 8283   1.176   6.065   3.250 -0.2921 -0.1798  0.0756
  816SOL    HW1 8284   1.213   6.006   3.184 -1.1364 -1.6186  0.8270
  816SOL    HW2 8285   1.145   6.006   3.319  0.2170  1.2743  1.5782
  817SOL     OW 8286   9.587   2.048   4.866 -0.1518 -0.4554  0.2684
  817SOL    HW1 8287   9.632   2.030   4.783 -1.8409  3.1653 -1.6849
  817SOL    HW2 8288   9.646   2.107   4.913 -0.5884  0.1180  0.1062
  818SOL     OW 8289   7.197   1.592  10.373  0.2358 -0.5349 -0.5246
  818SOL    HW1 8290   7.196   1.598  10.468  1.7571  1.3938 -0.5595
  818SOL    HW2 8291   7.125   1.648  10.344 -0.5658 -1.5399 -0.5375
  819SOL     OW 8292   6.911   8.559  10.530 -0.2583 -0.9638  0.2375
  819SOL    HW1 8293   6.990   8.587  10.485  0.4614 -2.8237  0.2439
  819SOL    HW2 8294   6.840   8.607  10.487  0.6829 -0.6474 -1.0126
  820SOL     OW 8295   9.446   7.481   7.903  0.3334 -0.2449  0.7914
  820SOL    HW1 8296   9.530   7.484   7.858  0.7823  0.7322  1.6359
  820SOL    HW2 8297   9.382   7.465   7.834  1.1468 -0.3668  0.0477
  821SOL     OW 8298   1.797   3.502   9.414 -0.2531 -0.5292  0.0769
  821SOL    HW1 8299   1.755   3.439   9.356 -0.0842  0.2806 -0.9670
  821SOL    HW2 8300   1.728   3.567   9.433  0.1496  0.1177 -0.6118
  822SOL     OW 8301   8.396  10.076   4.302  0.2151  0.1581  0.0079
  822SOL    HW1 8302   8.390  10.076   4.398 -0.0281  1.1846  0.0009
  822SOL    HW2 8303   8.355   9.994   4.275 -0.9407  0.4885  0.7099
  823SOL     OW 8304   7.657   8.580   2.316 -0.7796 -0.0959 -1.0263
  823SOL    HW1 8305   7.593   8.627   2.263 -0.3463  1.0492 -0.5650
  823SOL    HW2 8306   7.682   8.642   2.385 -0.1619 -0.9926 -0.4154
  824SOL     OW 8307   8.297   7.667   5.669 -0.4296 -0.2376  0.3908
  824SOL    HW1 8308   8.233   7.738   5.674  1.4227  1.6467 -0.8804
  824SOL    HW2 8309   8.320   7.647   5.760 -1.8290 -0.0525  0.7988
  825SOL     OW 8310   8.942   8.324   7.780  0.1206 -0.1614  0.6156
  825SOL    HW1 8311   9.018   8.380   7.789  0.4906 -0.5440 -0.1066
  825SOL    HW2 8312   8.901   8.325   7.867  0.5480  0.6025  0.8100
  826SOL     OW 8313   2.894   4.792   5.581  0.4255 -0.1687 -0.4234
  826SOL    HW1 8314   2.831   4.745   5.527  0.4647 -0.0088 -0.6131
  826SOL    HW2 8315   2.958   4.827   5.518 -0.1127  0.9193 -0.3920
  827SOL     OW 8316   4.475   0.780   7.571  0.2688 -0.8969  0.1003
  827SOL    HW1 8317   4.403   0.729   7.609  0.7032 -1.9742 -0.4844
  827SOL    HW2 8318   4.472   0.758   7.478  1.0252 -0.5394 -0.0104
  828SOL     OW 8319   2.478  10.136   8.112 -0.0703  0.0773 -0.5901
  828SOL    HW1 8320   2.536  10.063   8.131 -0.3463 -0.2724 -1.0967
  828SOL    HW2 8321   2.404  10.097   8.067 -0.5050  0.5834 -0.3224
  829SOL     OW 8322   0.815   8.558   5.462  0.2275 -0.4272 -0.5925
  829SOL    HW1 8323   0.886   8.497   5.481  0.1173 -1.0865 -2.1092
  829SOL    HW2 8324   0.754   8.507   5.409 -0.2508  0.7663 -1.2296
  830SOL     OW 8325   8.351   0.143   7.510 -0.0086 -0.4412 -0.6022
  830SOL    HW1 8326   8.258   0.162   7.523  0.0139 -1.2074  0.8649
  830SOL    HW2 8327   8.352   0.065   7.454 -0.2518 -0.3614 -0.7183
  831SOL     OW 8328   9.071   5.060   7.091  0.4669 -0.1833  0.4354
  831SOL    HW1 8329   9.075   5.113   7.170  1.6842 -0.9771  0.9366
  831SOL    HW2 8330   9.026   4.980   7.118 -0.8595  0.3220 -0.1767
  832SOL     OW 8331   3.862   4.427   1.893 -0.0453 -0.0910  0.5558
  832SOL    HW1 8332   3.897   4.348   1.851 -0.5034 -1.4166  2.5268
  832SOL    HW2 8333   3.936   4.464   1.941  0.4462  1.3503 -1.2288
  833SOL     OW 8334   2.284   2.100   6.916  0.7245  0.2584  0.0023
  833SOL    HW1 8335   2.207   2.050   6.890  0.6415 -0.4037  1.4478
  833SOL    HW2 8336   2.342   2.096   6.840 -0.7109  0.9256 -1.1726
  834SOL     OW 8337   2.090   9.081   2.839 -0.0438  0.1726  0.0638
  834SOL    HW1 8338   2.083   8.989   2.811 -0.5963  0.5631 -1.1326
  834SOL    HW2 8339   2.153   9.079   2.911 -1.4815 -1.4205  1.3517
  835SOL     OW 8340   8.017  10.242   8.188 -0.5441 -0.4233 -0.3864
  835SOL    HW1 8341   7.959  10.315   8.164 -0.7525 -0.5724 -0.3362
  835SOL    HW2 8342   8.102  10.266   8.151 -0.3056  0.4276  0.6493
  836SOL     OW 8343   0.231   5.643   3.573 -0.3355  0.4600  0.1565
  836SOL    HW1 8344   0.231   5.719   3.514  1.2736 -0.2020 -0.7660
  836SOL    HW2 8345   0.166   5.584   3.536 -1.1633  1.1104  0.5348
  837SOL     OW 8346   9.871   7.164  10.272  0.0897  0.5234 -0.5289
  837SOL    HW1 8347   9.838   7.252  10.254 -0.5260  0.4773  0.2796
  837SOL    HW2 8348   9.895   7.166  10.365  0.0228 -0.1747 -0.4908
  838SOL     OW 8349   9.762   1.487   9.070 -0.1002 -0.3513 -0.1566
  838SOL    HW1 8350   9.694   1.423   9.091  1.0779 -1.7210 -0.3427
  838SOL    HW2 8351   9.718   1.554   9.018 -1.2276 -1.3687 -0.5443
  839SOL     OW 8352   4.160   3.691   7.942  0.8629  0.4999  0.1871
  839SOL    HW1 8353   4.254   3.695   7.929  0.7884  1.3853 -0.2048
  839SOL    HW2 8354   4.149   3.650   8.028  1.5609 -0.5612 -0.2217
  840SOL     OW 8355   2.960   6.675   3.367 -0.0724  0.0343  0.4994
  840SOL    HW1 8356   2.875   6.662   3.325  0.2636 -0.7018  0.0262
  840SOL    HW2 8357   2.989   6.761   3.338 -0.6707  0.3034  0.6907
  841SOL     OW 8358   5.015  10.020   5.406  0.0635 -0.8587  0.6341
  841SOL    HW1 8359   5.011   9.925   5.392  3.0247 -1.1894  1.4032
  841SOL    HW2 8360   4.994  10.032   5.498  0.8750 -0.9400  0.8412
  842SOL     OW 8361   5.546   4.548   5.535  0.1602 -0.3476  0.4394
  842SOL    HW1 8362   5.622   4.560   5.477 -0.0147 -1.1957  0.0161
  842SOL    HW2 8363   5.583   4.550   5.623  0.5906 -0.1631  0.2605
  843SOL     OW 8364  10.810   9.616   6.752  0.0250 -0.6910  0.2731
  843SOL    HW1 8365  10.820   9.668   6.672  2.3481 -0.7256  0.4580
  843SOL    HW2 8366  10.891   9.633   6.801  0.1859 -3.3210  1.0358
  844SOL     OW 8367   4.622   5.797   1.565  0.3668  0.4300  0.3289
  844SOL    HW1 8368   4.601   5.883   1.528 -1.4877  0.2051  0.7537
  844SOL    HW2 8369   4.594   5.735   1.498 -1.0862  0.0934  1.1999
  845SOL     OW 8370   1.784  10.262   2.181 -0.3315  0.2871  0.4692
  845SOL    HW1 8371   1.762  10.299   2.095 -0.3617  0.1718  0.4267
  845SOL    HW2 8372   1.710  10.204   2.201 -0.1129 -0.0240  0.3745
  846SOL     OW 8373   1.027   7.631   4.590 -0.2624 -0.1006  0.0842
  846SOL    HW1 8374   1.004   7.613   4.681 -1.6133  0.3907 -0.1281
  846SOL    HW2 8375   0.942   7.636   4.545  0.3683  0.0219 -1.1250
  847SOL     OW 8376  10.893   3.497  10.087 -0.3785 -1.0005  0.1060
  847SOL    HW1 8377  10.814   3.551  10.085  0.3380  0.0880 -1.3271
  847SOL    HW2 8378  10.881   3.434  10.015  0.6710  0.1869 -1.1779
  848SOL     OW 8379   5.923   9.409   6.171  0.0716  0.3515  0.3586
  848SOL    HW1 8380   5.960   9.416   6.259  2.1331 -0.5657 -0.3825
  848SOL    HW2 8381   5.854   9.475   6.169  1.2405  1.7170  2.0479
  849SOL     OW 8382   4.361   2.017   8.833 -0.6028 -0.5478 -1.0312
  849SOL    HW1 8383   4.278   1.972   8.816 -1.3361  0.3147  0.0868
  849SOL    HW2 8384   4.403   1.964   8.900 -0.8678 -0.2756 -0.6466
  850SOL     OW 8385   4.650   7.866   2.981  0.0096 -0.7070 -0.9458
  850SOL    HW1 8386   4.556   7.874   2.968 -0.0985 -1.4051 -0.6377
  850SOL    HW2 8387   4.686   7.856   2.893 -0.0875  0.5872 -1.1513
  851SOL     OW 8388   7.323   0.390   8.953  0.6279  1.0232  0.0339
  851SOL    HW1 8389   7.265   0.389   9.029 -0.4288  1.6335 -0.7441
  851SOL    HW2 8390   7.266   0.369   8.879  1.2453  2.3766 -0.8486
  852SOL     OW 8391  10.648   4.648   7.431 -0.2168 -0.1644  0.2060
  852SOL    HW1 8392  10.656   4.728   7.380 -2.1288  1.0565  1.6841
  852SOL    HW2 8393  10.717   4.654   7.497  1.0350 -0.8338 -0.9971
  853SOL     OW 8394   2.266   5.101   8.996  0.1996 -0.7424 -0.4616
  853SOL    HW1 8395   2.226   5.022   8.961 -0.6824 -0.8681  0.7646
  853SOL    HW2 8396   2.254   5.166   8.927 -2.4635 -0.6894 -0.0802
  854SOL     OW 8397   1.090   7.010   5.630  0.0012 -0.1383  0.0941
  854SOL    HW1 8398   1.002   7.014   5.668 -0.2256  2.2478 -0.5118
  854SOL    HW2 8399   1.076   7.023   5.537  0.9289 -1.0903 -0.1909
  855SOL     OW 8400   3.415   9.216   6.703  0.3596  0.2899 -0.3539
  855SOL    HW1 8401   3.415   9.193   6.796 -0.4664  1.8795  0.0752
  855SOL    HW2 8402   3.367   9.146   6.661 -4.3982  2.2119  1.2432
  856SOL     OW 8403   4.379   9.951   2.667  0.2949 -0.3986 -0.1711
  856SOL    HW1 8404   4.344   9.983   2.750 -2.6429 -0.9174 -1.0955
  856SOL    HW2 8405   4.442  10.018   2.640  1.6908 -0.4339  2.5996
  857SOL     OW 8406   4.481   4.307   1.115  0.7173 -0.8331  0.1197
  857SOL    HW1 8407   4.497   4.388   1.067 -1.9879 -0.1562  0.1934
  857SOL    HW2 8408   4.454   4.336   1.202  0.7589 -1.8639  0.4886
  858SOL     OW 8409   3.693   4.646   9.980  0.2947  0.1517 -0.1874
  858SOL    HW1 8410   3.780   4.683   9.994  0.4609  0.2929 -1.4203
  858SOL    HW2 8411   3.673   4.667   9.888  0.1089 -2.2360 -0.7410
  859SOL     OW 8412   9.874   6.901   4.116  0.3378 -0.8799 -0.2072
  859SOL    HW1 8413   9.786   6.911   4.154 -0.1331  0.7700 -1.5836
  859SOL    HW2 8414   9.925   6.858   4.184 -1.0211 -0.0305  1.4252
  860SOL     OW 8415   3.704  10.020   5.082  0.0385  0.0384 -0.2377
  860SOL    HW1 8416   3.757   9.940   5.078 -0.4362 -0.3498  0.9645
  860SOL    HW2 8417   3.714  10.051   5.172 -0.2189  1.0446 -0.5443
  861SOL     OW 8418   7.808   4.523   1.576 -0.6713  0.2045 -0.2260
  861SOL    HW1 8419   7.874   4.568   1.629 -0.8565  0.1040  0.0929
  861SOL    HW2 8420   7.747   4.487   1.640 -0.7188 -0.1997 -0.4941
  862SOL     OW 8421   8.516   7.115   3.519 -0.1624  0.2776  0.0358
  862SOL    HW1 8422   8.544   7.201   3.488  0.6858  0.3287  0.8741
  862SOL    HW2 8423   8.456   7.083   3.452  0.6498  0.8971 -1.0300
  863SOL     OW 8424   3.525   8.308  10.034  0.4792 -0.5571 -0.0940
  863SOL    HW1 8425   3.594   8.354   9.986 -0.5171  0.2214 -0.8577
  863SOL    HW2 8426   3.550   8.315  10.126  1.0117  0.4344 -0.2911
  864SOL     OW 8427   9.350   5.653   3.210  0.5634  0.0380  0.0261
  864SOL    HW1 8428   9.316   5.658   3.299  1.7532 -1.0068  0.5657
  864SOL    HW2 8429   9.274   5.673   3.154 -0.4498 -0.2898  1.2335
  865SOL     OW 8430   8.294   7.776   2.258 -0.8761  0.1056  0.1558
  865SOL    HW1 8431   8.213   7.753   2.211  0.2009 -1.3292 -1.0942
  865SOL    HW2 8432   8.361   7.720   2.219  0.9024  1.8162  0.5963
  866SOL     OW 8433   4.552   3.340   2.193 -0.4026 -0.1463  0.0489
  866SOL    HW1 8434   4.493   3.275   2.231 -0.8648 -2.3490 -3.8686
  866SOL    HW2 8435   4.511   3.364   2.110  1.1115  3.2530  0.1231
  867SOL     OW 8436   3.716   6.887   7.955 -1.0902 -0.1657  0.3891
  867SOL    HW1 8437   3.763   6.970   7.952 -1.7066  0.1917  0.6434
  867SOL    HW2 8438   3.667   6.889   8.037 -0.9490 -0.8743  0.5073
  868SOL     OW 8439   1.726  10.540   3.015 -0.2158 -0.4097  0.3177
  868SOL    HW1 8440   1.804  10.527   2.960  0.4543 -0.8937  1.3454
  868SOL    HW2 8441   1.761  10.556   3.103 -1.2905 -1.1793  0.9089
  869SOL     OW 8442   5.312   3.315   2.377  0.0912 -0.0391 -0.3537
  869SOL    HW1 8443   5.236   3.373   2.364  0.3100 -0.0024 -1.5506
  869SOL    HW2 8444   5.370   3.336   2.304  0.5590 -1.1767 -0.3162
  870SOL     OW 8445   8.859   4.817   5.068  0.0889  0.1232  0.1312
  870SOL    HW1 8446   8.900   4.897   5.100 -2.4240  1.5688  0.0493
  870SOL    HW2 8447   8.772   4.817   5.109  0.3183 -3.1354  0.9508
  871SOL     OW 8448   4.768   2.552   4.177 -0.0287  0.0938 -0.3301
  871SOL    HW1 8449   4.706   2.604   4.228 -0.5765 -0.3046 -0.5642
  871SOL    HW2 8450   4.712   2.506   4.114  0.4394 -0.7885 -0.1120
  872SOL     OW 8451   5.377   3.959  10.444 -0.1870  0.4711  0.2125
  872SOL    HW1 8452   5.399   3.867  10.453  0.2442  0.6425  1.0309
  872SOL    HW2 8453   5.315   3.976  10.516  0.5388  1.0504  0.7164
  873SOL     OW 8454   4.225  10.409   3.097  0.1956  0.2993 -0.1320
  873SOL    HW1 8455   4.231  10.395   3.003  1.9977  1.1827 -0.1906
  873SOL    HW2 8456   4.252  10.500   3.110  0.4604  0.0462  1.2870
  874SOL     OW 8457  10.076   5.723   2.015  0.1498  0.4825  0.3908
  874SOL    HW1 8458  10.032   5.757   1.938  0.1816 -0.5375 -0.0996
  874SOL    HW2 8459  10.151   5.674   1.981 -0.3369 -0.7311  0.9923
  875SOL     OW 8460   0.744   9.311   1.597 -0.2797 -0.0015  0.0948
  875SOL    HW1 8461   0.749   9.233   1.543  0.3785 -0.3312  0.6172
  875SOL    HW2 8462   0.663   9.355   1.569  0.0516 -0.1512 -1.1545
  876SOL     OW 8463   2.507   5.681   0.395  0.0798 -0.5994  0.1233
  876SOL    HW1 8464   2.437   5.689   0.460 -1.1948 -0.9642 -1.1444
  876SOL    HW2 8465   2.473   5.729   0.319  1.3499 -0.5519 -0.4236
  877SOL     OW 8466   8.828   4.009   5.950 -0.1439  0.1750 -0.5909
  877SOL    HW1 8467   8.865   4.029   5.864 -0.1159 -0.7402 -0.8039
  877SOL    HW2 8468   8.903   3.978   6.001 -0.4203 -0.6645 -0.6896
  878SOL     OW 8469   0.080  10.316   6.961  0.1401 -0.0101 -0.4507
  878SOL    HW1 8470   0.017  10.371   7.007  0.1042  0.2800 -0.8364
  878SOL    HW2 8471   0.146  10.378   6.928  0.4625 -0.2762 -0.3154
  879SOL     OW 8472   4.396   7.895   9.763 -0.6485 -0.2824  0.5367
  879SOL    HW1 8473   4.390   7.847   9.845 -0.3017 -2.0196 -0.4099
  879SOL    HW2 8474   4.384   7.987   9.788 -0.7479 -0.7838  2.4815
  880SOL     OW 8475   4.795   5.224   8.962 -0.1001  0.3846 -0.9086
  880SOL    HW1 8476   4.766   5.268   8.882 -0.2451  1.4415 -0.2928
  880SOL    HW2 8477   4.886   5.200   8.944 -0.5088 -0.5449 -1.8553
  881SOL     OW 8478   5.620   3.162  10.765  0.3455  0.0729 -0.0859
  881SOL    HW1 8479   5.652   3.091  10.708  2.0931  1.4165 -0.8771
  881SOL    HW2 8480   5.577   3.223  10.706 -2.1506 -0.7940  0.7419
  882SOL     OW 8481   8.099   0.934   8.715  0.2480 -0.4374  0.3995
  882SOL    HW1 8482   8.095   0.992   8.791  0.1940  0.7568 -0.4799
  882SOL    HW2 8483   8.017   0.885   8.718 -0.8049  1.1953 -0.0678
  883SOL     OW 8484   8.230   3.140   5.468  0.6307 -0.2553  0.7612
  883SOL    HW1 8485   8.323   3.130   5.445  0.4215 -2.3153  0.6243
  883SOL    HW2 8486   8.231   3.156   5.562  1.1479  0.8226  0.5944
  884SOL     OW 8487   0.970   1.437   6.623 -0.7411  0.6065  0.2454
  884SOL    HW1 8488   0.880   1.469   6.623 -0.9288  0.0944  0.3133
  884SOL    HW2 8489   1.016   1.493   6.685 -0.4063  2.5138 -1.6038
  885SOL     OW 8490   4.283   5.683   3.337 -0.1199  0.2608  0.0329
  885SOL    HW1 8491   4.322   5.654   3.419 -1.8656 -0.7793  0.5500
  885SOL    HW2 8492   4.207   5.626   3.324  0.8484 -0.5520 -3.0163
  886SOL     OW 8493  10.219   1.763   1.073 -0.2798  0.0961  0.0533
  886SOL    HW1 8494  10.145   1.785   1.130 -0.9073 -2.7928  0.4712
  886SOL    HW2 8495  10.264   1.692   1.119  0.3815 -0.9468 -2.1128
  887SOL     OW 8496   8.714   5.450   5.648 -0.1914  0.5641 -0.0041
  887SOL    HW1 8497   8.738   5.482   5.562  0.6844  0.2997  0.1322
  887SOL    HW2 8498   8.699   5.356   5.636 -2.2878  0.8892 -0.3074
  888SOL     OW 8499   4.961   8.166  10.073  0.7398  0.4670  0.0704
  888SOL    HW1 8500   4.960   8.156  10.168  0.1053 -0.2964 -0.0129
  888SOL    HW2 8501   4.917   8.250  10.058  0.6916  0.5104  0.4440
  889SOL     OW 8502   1.619   9.639   5.902 -0.0443  0.0503  0.4829
  889SOL    HW1 8503   1.524   9.627   5.896 -0.5671  3.7308 -2.2966
  889SOL    HW2 8504   1.649   9.632   5.812  1.7690  2.1583  0.8615
  890SOL     OW 8505  10.399   5.059   6.531  0.0382 -0.4077 -0.1111
  890SOL    HW1 8506  10.440   5.137   6.570 -3.0988  1.5777 -0.4271
  890SOL    HW2 8507  10.427   5.060   6.440 -0.2222  0.5967 -0.1953
  891SOL     OW 8508   6.472   7.641   3.021  0.1007 -0.8463 -0.3403
  891SOL    HW1 8509   6.414   7.581   2.974  0.7366 -2.9715  1.4023
  891SOL    HW2 8510   6.430   7.653   3.107  1.3760 -1.0761  0.3379
  892SOL     OW 8511   3.043   8.369   0.542  0.0190  0.2350 -0.0007
  892SOL    HW1 8512   3.077   8.449   0.582  0.3293  0.7948 -1.3302
  892SOL    HW2 8513   3.083   8.298   0.592  0.4985  0.9073  0.5863
  893SOL     OW 8514   4.721   3.119   7.693  0.4088 -0.1254 -0.0980
  893SOL    HW1 8515   4.635   3.155   7.670  1.3587  1.4866 -1.3612
  893SOL    HW2 8516   4.739   3.152   7.781 -0.0907 -0.1509  0.0159
  894SOL     OW 8517   5.295   3.460   6.350 -0.0017 -0.3126 -0.3785
  894SOL    HW1 8518   5.319   3.371   6.377  0.0729 -0.3345 -0.5198
  894SOL    HW2 8519   5.202   3.467   6.369  0.1437 -0.1738  0.3235
  895SOL     OW 8520   0.387   9.947   0.322  0.3629  0.2820 -0.7306
  895SOL    HW1 8521   0.459   9.913   0.268 -0.0462 -0.6029 -0.7280
  895SOL    HW2 8522   0.407   9.917   0.411 -1.2802 -2.1907 -1.0981
  896SOL     OW 8523   5.483   7.145   3.791  0.4515  0.3268 -0.2136
  896SOL    HW1 8524   5.441   7.134   3.705 -1.0036  0.2637  0.4706
  896SOL    HW2 8525   5.545   7.073   3.797  0.1438 -0.0125 -0.9760
  897SOL     OW 8526   3.639   9.452   7.670 -0.2469 -0.2690 -0.7366
  897SOL    HW1 8527   3.668   9.531   7.716 -0.9356 -0.9530  0.9763
  897SOL    HW2 8528   3.566   9.481   7.616 -0.9330  0.1853  0.3851
  898SOL     OW 8529   0.958   7.104   3.074 -0.2396 -0.5657 -0.1595
  898SOL    HW1 8530   1.034   7.070   3.026  0.2758 -1.1831  1.0411
  898SOL    HW2 8531   0.995   7.134   3.158 -1.2881 -0.6649  0.3486
  899SOL     OW 8532   9.223   8.886   8.469  0.0576 -0.6224 -0.3083
  899SOL    HW1 8533   9.244   8.816   8.408  1.5404 -0.8209  0.3829
  899SOL    HW2 8534   9.278   8.960   8.441  0.9321 -0.7892  0.8876
  900SOL     OW 8535   9.239   7.208   1.853  0.8642  0.0652 -0.1047
  900SOL    HW1 8536   9.290   7.149   1.909 -0.5387 -1.3659 -0.2950
  900SOL    HW2 8537   9.255   7.177   1.764  0.5208  0.3167 -0.2556
  901SOL     OW 8538   3.395   7.832   8.701 -0.0844  0.1737  0.2936
  901SOL    HW1 8539   3.377   7.753   8.650 -2.9641  0.5882  0.5223
  901SOL    HW2 8540   3.440   7.890   8.640 -1.5713 -0.1401 -1.1564
  902SOL     OW 8541   9.513  10.775   9.687  0.1441 -0.0390  0.4618
  902SOL    HW1 8542   9.419  10.758   9.679  0.1192  0.8172 -2.4188
  902SOL    HW2 8543   9.534  10.755   9.778 -2.6168 -1.2101  0.9427
  903SOL     OW 8544   1.200   7.395   4.736  0.2661 -0.5829 -0.4437
  903SOL    HW1 8545   1.255   7.322   4.764 -1.7254 -1.9946 -0.0016
  903SOL    HW2 8546   1.120   7.386   4.788 -0.2202  1.6849 -0.6936
  904SOL     OW 8547   1.763   2.144   3.817  0.1471 -0.5423  0.9058
  904SOL    HW1 8548   1.700   2.105   3.756 -0.8054  1.4554  0.4940
  904SOL    HW2 8549   1.848   2.114   3.787  0.1025  2.7132 -3.5904
  905SOL     OW 8550   7.990   4.472   7.660 -0.1059 -0.0163  0.6280
  905SOL    HW1 8551   7.937   4.458   7.582  0.9042  0.8155 -0.2353
  905SOL    HW2 8552   8.067   4.417   7.647 -0.9039 -1.5746  2.0902
  906SOL     OW 8553   9.036   3.979   8.737  0.2874  0.0831  0.1620
  906SOL    HW1 8554   8.958   4.028   8.710  0.5391  0.0077 -0.7283
  906SOL    HW2 8555   9.064   4.022   8.818  0.6896  1.6423 -0.7578
  907SOL     OW 8556   1.084  10.489   3.573 -0.3752  0.3343 -0.5469
  907SOL    HW1 8557   1.019  10.474   3.505 -0.7322 -2.5718  0.3238
  907SOL    HW2 8558   1.052  10.441   3.649  1.0444  1.7771  1.0616
  908SOL     OW 8559   8.554   6.052   2.960  0.2015  0.6145 -0.0486
  908SOL    HW1 8560   8.490   6.011   3.018 -0.3629  0.7197 -0.6006
  908SOL    HW2 8561   8.623   6.083   3.020 -0.0909  0.2051  0.5108
  909SOL     OW 8562   2.012   1.614   2.399  0.1650  0.7739 -0.3496
  909SOL    HW1 8563   2.015   1.606   2.495 -1.5738  1.8161 -0.1702
  909SOL    HW2 8564   2.040   1.704   2.382 -1.7524  1.3551 -0.6151
  910SOL     OW 8565   6.113   8.116   6.017  0.2356 -0.1579  0.2665
  910SOL    HW1 8566   6.159   8.136   5.935  0.6815  1.0106  0.7957
  910SOL    HW2 8567   6.066   8.034   5.998 -0.0575  0.3468 -1.3066
  911SOL     OW 8568   8.368   3.222   8.058  0.2262 -0.3331  0.1003
  911SOL    HW1 8569   8.303   3.242   8.126  0.9500 -1.0358  1.0363
  911SOL    HW2 8570   8.372   3.126   8.056  0.2221 -0.3166 -0.9362
  912SOL     OW 8571   8.392   8.086   6.896  0.7187 -0.3554  0.3951
  912SOL    HW1 8572   8.455   8.119   6.959  1.1955 -1.2985  0.4189
  912SOL    HW2 8573   8.321   8.050   6.949  1.2955 -1.4992  0.4308
  913SOL     OW 8574   3.937   1.449  10.506  0.5231  0.2429  0.0960
  913SOL    HW1 8575   3.843   1.466  10.510  0.2281 -1.1473 -0.4330
  913SOL    HW2 8576   3.955   1.394  10.583  0.9360  0.6357  0.2845
  914SOL     OW 8577   9.015   5.273   9.605  0.4442 -0.0833 -0.4419
  914SOL    HW1 8578   8.966   5.205   9.559 -0.6546  0.7057 -0.4906
  914SOL    HW2 8579   9.062   5.227   9.674  0.4221 -1.0031 -1.0358
  915SOL     OW 8580   6.091   9.535  10.030  0.0070 -0.0245 -0.0280
  915SOL    HW1 8581   6.160   9.580   9.980 -0.5286  1.6453  0.6656
  915SOL    HW2 8582   6.013   9.589  10.017 -0.6608 -0.7516  0.8681
  916SOL     OW 8583  10.026   2.469   4.162  0.6376  0.1758  0.4935
  916SOL    HW1 8584   9.941   2.444   4.200  0.8778 -1.2878  0.1233
  916SOL    HW2 8585  10.036   2.561   4.185 -0.4215  0.0101  1.7454
  917SOL     OW 8586   2.522   2.937   1.651 -0.0746 -0.0044  0.1211
  917SOL    HW1 8587   2.458   2.866   1.639 -1.0926  0.6489  1.5004
  917SOL    HW2 8588   2.505   2.970   1.739 -0.3705  2.7020 -0.8825
  918SOL     OW 8589  10.536   2.711   1.664 -0.0980  0.3109 -0.1497
  918SOL    HW1 8590  10.464   2.773   1.653 -1.6859 -1.2929  0.5289
  918SOL    HW2 8591  10.506   2.653   1.735  1.8462 -0.4638  0.0881
  919SOL     OW 8592   4.906   4.600   2.389  0.1596 -0.0998  0.2575
  919SOL    HW1 8593   4.927   4.510   2.366 -0.2681 -0.1454  0.0456
  919SOL    HW2 8594   4.819   4.615   2.354  1.4409  1.4167 -2.5943
  920SOL     OW 8595   3.465   8.356   7.987  0.1709 -0.3239  0.3722
  920SOL    HW1 8596   3.432   8.392   8.069 -0.9821  0.0905 -0.2537
  920SOL    HW2 8597   3.389   8.354   7.929  1.0403 -0.2591 -0.8142
  921SOL     OW 8598   6.368   9.590  10.003  0.8061  0.2145  0.2595
  921SOL    HW1 8599   6.371   9.672  10.052  1.1920 -0.0573  0.7090
  921SOL    HW2 8600   6.419   9.529  10.057  1.1587 -0.1170 -0.4374
  922SOL     OW 8601   3.869   7.207   0.888  0.5129  0.0144 -0.4666
  922SOL    HW1 8602   3.821   7.219   0.805  1.9010  1.4661 -1.1259
  922SOL    HW2 8603   3.943   7.151   0.865  1.6634  1.5120 -0.5807
  923SOL     OW 8604   1.902   4.521  10.018 -0.1271  0.3676 -0.3019
  923SOL    HW1 8605   1.830   4.528   9.955 -1.7349 -1.7760  1.1409
  923SOL    HW2 8606   1.889   4.594  10.078 -2.7544 -1.3257  1.3950
  924SOL     OW 8607   9.802   2.693   4.469 -0.5443 -0.1910  0.1355
  924SOL    HW1 8608   9.737   2.737   4.523 -1.9614 -0.3783 -1.3345
  924SOL    HW2 8609   9.886   2.716   4.508 -1.4749 -0.1327  2.2412
  925SOL     OW 8610   1.423   4.358   0.955  0.2209  0.1310  0.0662
  925SOL    HW1 8611   1.503   4.351   1.007  0.0654  1.6934  0.5704
  925SOL    HW2 8612   1.376   4.278   0.973  1.7374 -0.9085 -0.3682
  926SOL     OW 8613   3.716   4.572   1.159  0.1011  0.4225  0.0255
  926SOL    HW1 8614   3.644   4.605   1.105 -0.3129  2.3946  1.6615
  926SOL    HW2 8615   3.679   4.564   1.247  0.9192 -2.1262  0.2039
  927SOL     OW 8616   9.363   5.520   9.125  0.4957 -0.1729  0.0229
  927SOL    HW1 8617   9.408   5.463   9.187 -0.7006 -0.3347  0.7793
  927SOL    HW2 8618   9.307   5.575   9.180 -0.0431  0.1815 -0.8706
  928SOL     OW 8619   2.803   6.683   0.710  0.2370 -0.0074  0.3899
  928SOL    HW1 8620   2.892   6.658   0.688  0.7744  1.1889  1.1071
  928SOL    HW2 8621   2.780   6.625   0.784  0.4981 -0.1557  0.3578
  929SOL     OW 8622   1.486   8.140  10.073  0.8840 -0.4346 -0.1626
  929SOL    HW1 8623   1.506   8.047  10.071  0.3943 -0.5526  0.0944
  929SOL    HW2 8624   1.526   8.176   9.994 -1.0502 -1.3111 -1.6155
  930SOL     OW 8625   0.806   5.128   6.108 -0.0750  0.2772  0.0957
  930SOL    HW1 8626   0.844   5.115   6.020  0.3247 -1.4523  0.4836
  930SOL    HW2 8627   0.822   5.045   6.153 -0.3238  1.1185  1.8016
  931SOL     OW 8628   3.405  10.619   1.747  0.3553 -0.0387 -0.1134
  931SOL    HW1 8629   3.402  10.707   1.711 -0.0347 -0.8221 -2.1100
  931SOL    HW2 8630   3.404  10.561   1.671 -0.2682 -1.7992  1.1550
  932SOL     OW 8631   5.585   4.625  10.542 -0.1475 -0.2749  0.0394
  932SOL    HW1 8632   5.607   4.586  10.626 -0.2866 -0.8054 -0.1657
  932SOL    HW2 8633   5.502   4.669  10.556  0.0465  0.0107  0.2927
  933SOL     OW 8634   9.442   1.881   4.597 -0.1150  0.0361  0.5239
  933SOL    HW1 8635   9.492   1.856   4.519  1.2237  1.1945  0.9719
  933SOL    HW2 8636   9.411   1.798   4.632  0.6114 -0.6426 -0.3605
  934SOL     OW 8637   6.899   1.280   7.805 -0.3837 -0.1946 -0.5035
  934SOL    HW1 8638   6.841   1.352   7.830 -0.7304 -0.8737  0.7311
  934SOL    HW2 8639   6.984   1.321   7.791 -0.2843  0.3372  1.3453
  935SOL     OW 8640   3.140   6.774  10.258 -0.3695 -0.0072  0.0457
  935SOL    HW1 8641   3.204   6.843  10.244 -3.5752  2.8669 -1.9241
  935SOL    HW2 8642   3.151   6.715  10.184  0.6794 -0.1670  0.3216
  936SOL     OW 8643   5.320   5.547   7.503 -0.3207  0.0009  0.1910
  936SOL    HW1 8644   5.373   5.617   7.466 -0.7828  0.8576  1.0977
  936SOL    HW2 8645   5.357   5.467   7.467  0.7859  0.6598 -0.1709
  937SOL     OW 8646   3.538   9.844   8.926  0.1400 -0.1799  0.4693
  937SOL    HW1 8647   3.576   9.881   8.846  0.7306 -0.1361  0.7608
  937SOL    HW2 8648   3.453   9.887   8.935  0.4012  0.3800  0.2810
  938SOL     OW 8649   1.497   0.171   7.979 -0.3210 -0.3526  0.0680
  938SOL    HW1 8650   1.562   0.227   8.022  1.0813 -0.1384 -2.1721
  938SOL    HW2 8651   1.417   0.183   8.030  1.3463 -0.6016  2.9236
  939SOL     OW 8652   9.604   1.268   9.065 -0.7898 -0.0829  0.3668
  939SOL    HW1 8653   9.680   1.212   9.054 -1.8199 -1.7541  1.3343
  939SOL    HW2 8654   9.545   1.244   8.993  0.1990  2.4095 -1.4254
  940SOL     OW 8655   4.147   7.441   6.370 -0.0089 -0.0511 -0.1203
  940SOL    HW1 8656   4.065   7.468   6.411 -0.3210 -0.0246 -0.7499
  940SOL    HW2 8657   4.172   7.515   6.315  0.5249  0.0072  0.2009
  941SOL     OW 8658   6.988   1.755  10.098  0.3518 -0.5176  0.1648
  941SOL    HW1 8659   6.974   1.826  10.160  1.9041  0.7774 -0.8658
  941SOL    HW2 8660   6.950   1.678  10.140 -2.5734  1.1110  0.7642
  942SOL     OW 8661  10.783   1.513   6.620 -0.2832 -0.0007 -0.2182
  942SOL    HW1 8662  10.761   1.479   6.706  0.3572  1.3622  0.5127
  942SOL    HW2 8663  10.875   1.539   6.626 -0.3775  0.6212 -1.1298
  943SOL     OW 8664   7.835   4.417   6.759 -0.2893  0.0914 -0.3305
  943SOL    HW1 8665   7.820   4.380   6.847  1.0563  0.2247 -0.0190
  943SOL    HW2 8666   7.749   4.417   6.718 -0.9206 -0.1180  0.9423
  944SOL     OW 8667   9.664   6.490   7.910 -0.8249 -0.7685 -0.3344
  944SOL    HW1 8668   9.579   6.514   7.873 -0.8684  0.0503  0.2601
  944SOL    HW2 8669   9.645   6.419   7.971 -1.4983  0.9166  1.5576
  945SOL     OW 8670   8.371   3.461   3.123  0.6907  0.1268 -0.4509
  945SOL    HW1 8671   8.411   3.375   3.109 -1.9607 -1.3265  0.1465
  945SOL    HW2 8672   8.397   3.485   3.212  2.3087  0.4788 -0.9991
  946SOL     OW 8673   6.343   0.804   8.127 -0.1525  0.0938 -0.2011
  946SOL    HW1 8674   6.332   0.856   8.047 -0.9417 -0.0963 -0.2261
  946SOL    HW2 8675   6.348   0.714   8.095 -0.8379 -0.0133 -0.0145
  947SOL     OW 8676   1.467   6.905   8.851  0.0849 -0.1964 -0.0634
  947SOL    HW1 8677   1.377   6.923   8.823 -0.4396 -2.3046  0.1569
  947SOL    HW2 8678   1.478   6.956   8.931 -0.8653  0.1454 -0.1368
  948SOL     OW 8679   4.986  10.421   6.316 -0.2184  0.4024 -0.3236
  948SOL    HW1 8680   5.004  10.377   6.233 -2.3177 -3.2736  0.9495
  948SOL    HW2 8681   5.070  10.422   6.362  0.3124 -0.4487 -1.2347
  949SOL     OW 8682   1.630   2.225   7.179  0.5886  0.4188 -0.0288
  949SOL    HW1 8683   1.583   2.184   7.251 -0.1070  0.5701 -0.3960
  949SOL    HW2 8684   1.648   2.153   7.118 -0.0596  0.5402 -0.3659
  950SOL     OW 8685   1.490   6.203   4.360  0.5887 -0.5541 -0.2270
  950SOL    HW1 8686   1.429   6.210   4.287  0.5463 -0.4041 -0.1768
  950SOL    HW2 8687   1.559   6.266   4.340 -0.5890  1.2312  0.9996
  951SOL     OW 8688  10.881   1.451   9.321 -0.2255  0.3646  0.9066
  951SOL    HW1 8689  10.921   1.482   9.402 -0.9246 -1.6428  2.0732
  951SOL    HW2 8690  10.951   1.456   9.256  0.3391  2.0036  1.5983
  952SOL     OW 8691   5.788   7.911   6.332  0.1678 -0.8960 -0.1423
  952SOL    HW1 8692   5.874   7.944   6.306  0.1845  1.5077  2.5402
  952SOL    HW2 8693   5.728   7.983   6.312 -1.4275 -2.7211 -2.4572
  953SOL     OW 8694   4.709   2.899   1.629 -0.3463 -0.4710 -0.2054
  953SOL    HW1 8695   4.771   2.965   1.660 -0.0913 -0.7255 -0.1733
  953SOL    HW2 8696   4.713   2.829   1.694  1.3802 -1.7375 -1.5704
  954SOL     OW 8697   8.800   9.725  10.153 -0.1855 -0.2384 -0.3207
  954SOL    HW1 8698   8.768   9.638  10.127 -0.7778  0.3515 -1.6158
  954SOL    HW2 8699   8.789   9.779  10.076  0.3328  0.9733  0.4257
  955SOL     OW 8700   1.057   3.049   9.584  0.1851  0.0832  0.0359
  955SOL    HW1 8701   1.120   2.989   9.624  0.0215  0.2314  0.5313
  955SOL    HW2 8702   1.097   3.136   9.594  0.5148  0.0474 -0.8586
  956SOL     OW 8703   3.391   2.357  10.502  0.2536  0.2937  0.3839
  956SOL    HW1 8704   3.425   2.291  10.443  1.3951 -0.0687  1.4039
  956SOL    HW2 8705   3.436   2.438  10.477  0.3715  0.2442  0.4354
  957SOL     OW 8706   7.563   2.427   4.206 -0.0176  0.3225  0.0186
  957SOL    HW1 8707   7.640   2.483   4.198  0.8692 -0.9283 -0.4322
  957SOL    HW2 8708   7.492   2.479   4.168  0.3917  1.8378  1.2180
  958SOL     OW 8709   3.218  10.853   0.424  0.1183  0.2374  0.0422
  958SOL    HW1 8710   3.297  10.803   0.405 -0.0307 -0.2797  0.7740
  958SOL    HW2 8711   3.205  10.907   0.345  0.4255 -0.6663 -0.6452
  959SOL     OW 8712   6.223   8.992   2.293  0.5057 -0.5224 -0.6601
  959SOL    HW1 8713   6.218   9.070   2.238  1.0860 -0.0460 -0.0633
  959SOL    HW2 8714   6.278   8.931   2.244 -0.6870 -0.9213 -1.5396
  960SOL     OW 8715   4.023  10.600   6.481 -0.1314 -0.5005 -0.1756
  960SOL    HW1 8716   4.094  10.564   6.428  1.1445 -0.4741  1.4506
  960SOL    HW2 8717   4.059  10.605   6.569 -0.5248  3.7909 -0.0513
  961SOL     OW 8718   0.583   5.977   8.688  0.5009 -0.2762 -0.2829
  961SOL    HW1 8719   0.605   6.050   8.746 -0.0516 -0.8869  0.7143
  961SOL    HW2 8720   0.491   5.989   8.668  0.7202  0.0166 -1.1958
  962SOL     OW 8721   5.342   7.128   5.337  0.3973  0.2272 -0.1768
  962SOL    HW1 8722   5.386   7.150   5.419  0.9412  2.1822 -0.9405
  962SOL    HW2 8723   5.249   7.143   5.354  0.4621  0.2144  0.1934
  963SOL     OW 8724   4.786   4.636   6.203 -0.1976  0.1447  0.0348
  963SOL    HW1 8725   4.789   4.550   6.245  1.2057  0.3256  0.3521
  963SOL    HW2 8726   4.811   4.618   6.112 -0.2813  0.1567  0.0102
  964SOL     OW 8727  10.095   7.138   5.846  0.5107 -0.0719  0.0484
  964SOL    HW1 8728  10.024   7.081   5.874 -1.3936  1.2595 -1.7315
  964SOL    HW2 8729  10.150   7.082   5.790  0.2876 -0.8479  0.5884
  965SOL     OW 8730   4.521   7.083   7.351 -0.4579  0.1206 -0.6451
  965SOL    HW1 8731   4.437   7.052   7.384  0.2084 -1.4528 -0.2933
  965SOL    HW2 8732   4.505   7.107   7.260 -1.3165  0.0316 -0.5224
  966SOL     OW 8733   6.074   9.975   1.380 -0.3141  0.0977 -0.3282
  966SOL    HW1 8734   6.019  10.049   1.354 -0.5590 -0.1179 -0.4233
  966SOL    HW2 8735   6.036   9.944   1.462  0.8936  1.2453  0.7380
  967SOL     OW 8736   3.211   7.866   3.751 -0.0550  0.3445 -0.4094
  967SOL    HW1 8737   3.133   7.813   3.767 -0.1789  0.9936  1.2884
  967SOL    HW2 8738   3.222   7.917   3.831  2.8303 -0.6371 -0.0722
  968SOL     OW 8739   8.802   7.453   9.767  0.5338 -0.2959 -1.1637
  968SOL    HW1 8740   8.807   7.374   9.712  2.2694 -1.1172  0.0746
  968SOL    HW2 8741   8.843   7.427   9.850 -2.2356  0.7896  0.7075
  969SOL     OW 8742   5.196   6.401   5.239  0.2727 -0.3212 -0.5872
  969SOL    HW1 8743   5.262   6.370   5.301 -0.6392 -0.1012  0.5097
  969SOL    HW2 8744   5.244   6.411   5.157  2.1545  2.0190  0.6966
  970SOL     OW 8745   9.281   5.024   8.548 -0.6123 -0.3568 -0.0323
  970SOL    HW1 8746   9.338   4.987   8.616  0.8347  0.9032 -0.5134
  970SOL    HW2 8747   9.292   5.118   8.555 -1.6218 -0.1339 -1.0381
  971SOL     OW 8748   1.415   6.364   2.936 -0.1616  0.6556  0.0078
  971SOL    HW1 8749   1.499   6.368   2.983  0.0971 -0.2953 -0.3556
  971SOL    HW2 8750   1.402   6.271   2.919 -1.7429  0.6962  0.8558
  972SOL     OW 8751   0.867   2.008   1.575 -0.0745  0.0665 -0.1805
  972SOL    HW1 8752   0.899   2.030   1.487 -2.5075  1.3666 -0.8270
  972SOL    HW2 8753   0.796   1.946   1.560 -0.1363 -0.1579  0.9413
  973SOL     OW 8754   4.908   6.983   5.928  0.0541  0.4167 -0.2472
  973SOL    HW1 8755   4.981   6.998   5.868  1.5098  1.0260  1.6022
  973SOL    HW2 8756   4.929   6.899   5.970  0.5412  1.3163  1.3950
  974SOL     OW 8757   4.117   2.435   6.100  0.5257  0.3004  0.1683
  974SOL    HW1 8758   4.152   2.361   6.149  1.1007 -0.1896 -0.9499
  974SOL    HW2 8759   4.178   2.447   6.027 -0.8505  0.3594 -1.0093
  975SOL     OW 8760   7.546   1.627   3.585  0.4150 -0.3951 -0.6217
  975SOL    HW1 8761   7.546   1.689   3.658 -0.0173 -0.8604 -0.2157
  975SOL    HW2 8762   7.453   1.609   3.568  0.4735  0.2926 -1.8073
  976SOL     OW 8763   0.952   9.290   0.882 -0.1900  0.0209 -0.1175
  976SOL    HW1 8764   0.865   9.316   0.912 -0.3770 -0.4236 -0.2545
  976SOL    HW2 8765   0.941   9.276   0.787  0.3024  1.0618 -0.3405
  977SOL     OW 8766   6.385   3.479   1.065 -0.4181 -0.0862 -0.3572
  977SOL    HW1 8767   6.417   3.562   1.028  2.1536 -0.6387  0.3993
  977SOL    HW2 8768   6.389   3.417   0.992  2.3371 -0.6006  0.1085
  978SOL     OW 8769   7.645  10.130   4.455 -0.1774  0.0199 -0.3408
  978SOL    HW1 8770   7.685  10.071   4.391 -1.2263 -1.4428  0.3021
  978SOL    HW2 8771   7.671  10.217   4.426  0.2480 -0.6564 -2.1427
  979SOL     OW 8772   5.796   6.729   1.586 -0.3736  0.3346  0.0144
  979SOL    HW1 8773   5.729   6.794   1.608 -0.7756  0.0844 -0.4442
  979SOL    HW2 8774   5.794   6.724   1.491  0.1156  0.1288  0.0124
  980SOL     OW 8775   6.423   6.071   3.584 -0.2018 -1.0190 -0.0161
  980SOL    HW1 8776   6.485   6.136   3.551 -0.4969 -0.8818 -0.3006
  980SOL    HW2 8777   6.443   6.064   3.678 -2.7432  2.3893  0.9475
  981SOL     OW 8778   3.281   5.453   5.789 -0.0059 -0.1773  0.7224
  981SOL    HW1 8779   3.307   5.431   5.699 -0.6308  0.2182  0.4380
  981SOL    HW2 8780   3.243   5.372   5.823 -3.1581  0.6080 -0.6398
  982SOL     OW 8781   4.741   7.979   8.544 -0.8362  0.1080 -0.8385
  982SOL    HW1 8782   4.700   8.015   8.623 -1.0809  1.3822 -1.5256
  982SOL    HW2 8783   4.730   7.885   8.552 -2.2478  0.3176 -0.1070
  983SOL     OW 8784   6.585   8.054  10.311 -0.3932  0.1280 -0.4697
  983SOL    HW1 8785   6.653   8.012  10.363  0.4860  1.1081 -0.7995
  983SOL    HW2 8786   6.627   8.074  10.227 -1.0425  0.8543 -0.6350
  984SOL     OW 8787   0.743   4.682   0.768 -0.2767 -0.4134  0.0134
  984SOL    HW1 8788   0.820   4.738   0.757  0.5600 -1.6419 -0.6580
  984SOL    HW2 8789   0.706   4.707   0.853  0.9382  0.1203  0.4010
  985SOL     OW 8790   8.706   6.754   7.314 -1.0547  0.0348  0.6907
  985SOL    HW1 8791   8.780   6.704   7.349 -0.7180  0.3214  0.4014
  985SOL    HW2 8792   8.659   6.785   7.391  1.0657  2.7607  1.0590
  986SOL     OW 8793  10.615  10.475   8.623  0.1970 -0.1144 -0.2285
  986SOL    HW1 8794  10.610  10.394   8.675  1.5234  0.7782  1.4053
  986SOL    HW2 8795  10.709  10.486   8.606 -0.1066  0.2924 -1.7719
  987SOL     OW 8796   5.224   3.257   3.866  0.1349  0.0884 -0.5126
  987SOL    HW1 8797   5.219   3.246   3.771  1.2060 -0.6569 -0.4993
  987SOL    HW2 8798   5.259   3.174   3.898 -1.5056 -0.1979  0.6882
  988SOL     OW 8799   8.125   0.851   5.395  0.0144  1.0043  0.0494
  988SOL    HW1 8800   8.202   0.869   5.341  1.3936  0.2741  1.6549
  988SOL    HW2 8801   8.081   0.778   5.351 -0.1919  1.8995 -1.2763
  989SOL     OW 8802   3.195   4.570   3.809  0.3019 -0.2984  0.4385
  989SOL    HW1 8803   3.282   4.538   3.835  1.0002 -0.0525 -1.4461
  989SOL    HW2 8804   3.208   4.608   3.722 -1.7068 -0.2557  0.1034
  990SOL     OW 8805   8.289   7.743   5.983 -0.2882 -0.6915 -0.2854
  990SOL    HW1 8806   8.378   7.768   6.009 -0.7063 -0.3639  0.8986
  990SOL    HW2 8807   8.286   7.648   5.994 -0.4476 -0.5610  0.8897
  991SOL     OW 8808   8.898   6.300   8.178  0.3616 -0.6756  0.0651
  991SOL    HW1 8809   8.988   6.289   8.208 -0.0616 -0.5953  1.4480
  991SOL    HW2 8810   8.853   6.221   8.207 -0.4405  0.1584  1.1727
  992SOL     OW 8811   5.630   0.049   9.762 -0.4807 -0.2909 -0.3651
  992SOL    HW1 8812   5.700   0.084   9.818 -0.0400  0.6970 -1.4865
  992SOL    HW2 8813   5.589  -0.019   9.815  1.3643 -0.9511  0.3312
  993SOL     OW 8814   7.265   9.377  10.211  0.0780 -0.4625  0.1279
  993SOL    HW1 8815   7.214   9.313  10.261  0.9526  0.1253  1.8660
  993SOL    HW2 8816   7.233   9.462  10.240  1.3355 -0.0988  0.4967
  994SOL     OW 8817   3.393   8.578   3.148 -0.2538  0.6016  0.1267
  994SOL    HW1 8818   3.303   8.605   3.133 -0.6673  0.5982  2.3004
  994SOL    HW2 8819   3.427   8.641   3.211  0.6677 -0.4513  0.7259
  995SOL     OW 8820   5.734   2.890   2.361 -0.2571 -0.0536 -0.1684
  995SOL    HW1 8821   5.723   2.965   2.303  0.8116 -0.6438 -1.1570
  995SOL    HW2 8822   5.726   2.927   2.449  0.5220  1.2750 -0.6326
  996SOL     OW 8823   2.645   1.512   7.041 -0.2720  0.0427  0.0058
  996SOL    HW1 8824   2.582   1.571   7.082 -0.1301  0.1353  0.0922
  996SOL    HW2 8825   2.647   1.539   6.949  0.7795  1.0570  0.3021
  997SOL     OW 8826   0.572   2.784  10.017 -0.5316  0.3476 -0.0455
  997SOL    HW1 8827   0.586   2.689  10.020  0.3599  0.4650 -0.1830
  997SOL    HW2 8828   0.612   2.817  10.098  0.4025  0.7365 -0.6404
  998SOL     OW 8829   3.639   6.632  10.834 -0.2442  0.1196  0.3877
  998SOL    HW1 8830   3.728   6.597  10.838  0.1140  1.0044  0.2883
  998SOL    HW2 8831   3.644   6.707  10.774 -1.3443 -0.6371 -0.7119
  999SOL     OW 8832   0.754   8.542   3.855  0.2739 -0.0877 -0.2129
  999SOL    HW1 8833   0.766   8.632   3.823  0.7897 -0.1296 -0.1459
  999SOL    HW2 8834   0.730   8.492   3.777  2.6151 -0.4110 -0.7997
 1000SOL     OW 8835   3.489   5.905   6.474 -0.0248 -0.6051  0.3701
 1000SOL    HW1 8836   3.441   5.844   6.530 -1.1532 -0.4378 -0.3789
 1000SOL    HW2 8837   3.423   5.939   6.414  0.9359  0.0532 -0.3431
 1001SOL     OW 8838   4.290   9.248   5.224  0.4452  0.5716  0.0702
 1001SOL    HW1 8839   4.381   9.224   5.212  0.7551  1.4723  0.5073
 1001SOL    HW2 8840   4.277   9.249   5.319  0.4967  2.1887  0.0995
 1002SOL     OW 8841   6.202   2.534   4.683 -0.8920  0.6077  0.2981
 1002SOL    HW1 8842   6.127   2.482   4.653 -0.5278  0.0223  0.3723
 1002SOL    HW2 8843   6.236   2.486   4.758 -0.1723  0.6172 -0.0113
 1003SOL     OW 8844   4.044   2.474   7.552 -0.1439 -0.8337 -0.4836
 1003SOL    HW1 8845   4.010   2.388   7.527 -0.6985 -1.2853  1.6660
 1003SOL    HW2 8846   4.011   2.489   7.640 -0.0337  1.6032 -0.7907
 1004SOL     OW 8847   5.481   3.102   9.233  0.8680  0.5793 -0.4786
 1004SOL    HW1 8848   5.405   3.046   9.252  1.5508  0.0404  0.7485
 1004SOL    HW2 8849   5.556   3.051   9.262  1.7504  1.0127 -1.9044
 1005SOL     OW 8850  10.679   1.753   5.473  0.2868  0.2961  0.3246
 1005SOL    HW1 8851  10.735   1.808   5.529 -0.9695  0.6301  1.3059
 1005SOL    HW2 8852  10.680   1.797   5.388  0.1508  1.2535  0.8050
 1006SOL     OW 8853   5.026   9.132   5.742  0.1475  0.4313 -0.0785
 1006SOL    HW1 8854   4.994   9.091   5.662 -2.5153 -0.1534  1.1748
 1006SOL    HW2 8855   5.117   9.104   5.748 -0.2678 -1.5228 -1.6516
 1007SOL     OW 8856  10.105   2.995   7.707 -0.1613  0.4929  0.0787
 1007SOL    HW1 8857  10.100   3.005   7.802 -0.2843 -0.9469  0.2450
 1007SOL    HW2 8858  10.104   3.084   7.673  1.0498  1.0646  1.4761
 1008SOL     OW 8859   4.241   3.940   3.370 -0.4726  0.1519  0.3156
 1008SOL    HW1 8860   4.220   3.947   3.277 -1.4085 -0.1180  0.4993
 1008SOL    HW2 8861   4.258   4.031   3.398 -2.2066  0.5003  0.3292
 1009SOL     OW 8862   1.764   3.732  10.506  0.1090 -0.4599  0.2864
 1009SOL    HW1 8863   1.752   3.752  10.413  0.1173  0.5623  0.4965
 1009SOL    HW2 8864   1.681   3.759  10.547  0.7984  0.9052  0.8440
 1010SOL     OW 8865   7.581   8.523   7.448 -0.0331  0.0262  0.1058
 1010SOL    HW1 8866   7.535   8.560   7.524  0.1223 -0.8815  0.6582
 1010SOL    HW2 8867   7.511   8.502   7.387 -0.5967 -2.5891  1.4758
 1011SOL     OW 8868   2.032   8.001  10.153  0.2584 -0.2628  0.1538
 1011SOL    HW1 8869   2.070   7.916  10.133  0.4738 -0.7617  2.4283
 1011SOL    HW2 8870   1.984   8.025  10.074  2.0784 -1.4020 -1.3761
 1012SOL     OW 8871   9.294   0.759   6.200 -0.2679  0.3201  0.2045
 1012SOL    HW1 8872   9.305   0.720   6.113 -1.5712 -0.8915  0.5411
 1012SOL    HW2 8873   9.327   0.693   6.261 -4.0578 -1.1955  0.8866
 1013SOL     OW 8874   5.429   9.293   7.148 -0.4789  0.3056 -0.3065
 1013SOL    HW1 8875   5.338   9.310   7.172  0.4428  2.9847  1.7731
 1013SOL    HW2 8876   5.467   9.380   7.133  1.5690 -0.7708 -1.9553
 1014SOL     OW 8877   5.955   6.456  10.681 -0.2248 -0.1110 -0.2545
 1014SOL    HW1 8878   5.934   6.388  10.745  0.1893 -0.2008 -0.2109
 1014SOL    HW2 8879   5.981   6.408  10.603 -0.8198 -0.0011 -0.5285
 1015SOL     OW 8880   6.621   7.409   4.540  1.0119  0.3491  0.3862
 1015SOL    HW1 8881   6.661   7.408   4.453  0.3518  2.5376  0.0018
 1015SOL    HW2 8882   6.689   7.375   4.598  1.3804 -1.3754 -0.9854
 1016SOL     OW 8883   8.832  10.686   8.224 -0.3620 -0.3172 -0.4390
 1016SOL    HW1 8884   8.885  10.744   8.170  0.9499 -1.6474 -0.6430
 1016SOL    HW2 8885   8.889  10.611   8.242 -1.2469 -0.5861  1.5815
 1017SOL     OW 8886   9.827   2.336   9.547  0.3364  0.0987 -0.0973
 1017SOL    HW1 8887   9.771   2.275   9.498  0.0535  0.5465 -0.3328
 1017SOL    HW2 8888   9.766   2.391   9.595  0.6178 -0.7407  1.2758
 1018SOL     OW 8889   0.056   6.294   8.202 -0.1251  0.3151 -0.0483
 1018SOL    HW1 8890   0.116   6.354   8.247 -1.1830  1.4003 -0.0405
 1018SOL    HW2 8891   0.063   6.318   8.110 -1.4684  1.3432  0.0836
 1019SOL     OW 8892   4.719   4.464  10.641 -0.7828  0.4429 -0.0876
 1019SOL    HW1 8893   4.645   4.416  10.680 -0.2450 -0.6577 -0.3690
 1019SOL    HW2 8894   4.794   4.438  10.694 -0.7943  2.7945  1.2133
 1020SOL     OW 8895   3.600   9.998  10.847  0.1800  0.1062  0.0600
 1020SOL    HW1 8896   3.654  10.024  10.772 -0.5527  1.3342 -0.0679
 1020SOL    HW2 8897   3.663   9.981  10.917  0.7354  2.2250  0.1324
 1021SOL     OW 8898   4.704   5.033   0.052 -0.2382  0.2083  0.1207
 1021SOL    HW1 8899   4.719   5.092  -0.022 -1.6715 -1.3489 -1.5104
 1021SOL    HW2 8900   4.617   5.058   0.086  0.6051  1.2240  1.6404
 1022SOL     OW 8901   0.367   1.725   2.199  0.0140 -0.2829  0.3526
 1022SOL    HW1 8902   0.447   1.757   2.240 -0.6345  0.7182  0.8872
 1022SOL    HW2 8903   0.368   1.630   2.216 -0.1358  0.0523  2.6015
 1023SOL     OW 8904   3.716   4.788   6.748 -0.6793  0.0163  0.2220
 1023SOL    HW1 8905   3.748   4.834   6.826  2.0585  0.5147 -1.0928
 1023SOL    HW2 8906   3.622   4.776   6.765 -0.5561  1.7473  2.7561
 1024SOL     OW 8907   9.330   3.519   4.218 -0.3454  0.5677  0.2235
 1024SOL    HW1 8908   9.364   3.533   4.130  1.1458 -0.4116  0.6021
 1024SOL    HW2 8909   9.304   3.426   4.220 -3.9409  1.4083 -0.2809
 1025SOL     OW 8910   3.283   0.447   8.895  0.2682 -0.5193  0.0185
 1025SOL    HW1 8911   3.352   0.461   8.960  0.0109  0.9168  0.0154
 1025SOL    HW2 8912   3.210   0.410   8.946  0.1088  0.4873  0.5503
 1026SOL     OW 8913   5.113   9.439   9.111 -0.5505  0.4552 -0.2282
 1026SOL    HW1 8914   5.107   9.440   9.016 -0.8530  3.3339 -0.2720
 1026SOL    HW2 8915   5.165   9.516   9.133  0.2523 -0.6130  1.9391
 1027SOL     OW 8916   5.544   2.760   0.891  0.0013 -0.1736  0.3051
 1027SOL    HW1 8917   5.487   2.683   0.889  1.1066 -0.9978 -1.7358
 1027SOL    HW2 8918   5.538   2.797   0.803  2.0417  0.1163  0.2441
 1028SOL     OW 8919   4.880   5.542  10.088 -0.0511 -0.1447 -0.3269
 1028SOL    HW1 8920   4.785   5.533  10.101 -0.2317  1.9445  0.0648
 1028SOL    HW2 8921   4.899   5.485  10.013 -1.5990 -0.6589 -0.3651
 1029SOL     OW 8922   4.047   5.165   0.033  0.8088 -0.2640 -0.0319
 1029SOL    HW1 8923   4.110   5.095   0.051  1.6345  0.5673  0.3428
 1029SOL    HW2 8924   3.978   5.152   0.099  2.0817  0.6277  1.5493
 1030SOL     OW 8925   4.250   9.160   8.200 -0.4713 -0.1575  0.0443
 1030SOL    HW1 8926   4.213   9.072   8.196  0.2554 -0.5334  1.0141
 1030SOL    HW2 8927   4.293   9.164   8.285 -1.6109  1.6016  0.6028
 1031SOL     OW 8928   1.015   0.583   7.111  0.1376  0.0067  0.3480
 1031SOL    HW1 8929   0.967   0.655   7.070  0.4468  0.4175  0.6996
 1031SOL    HW2 8930   1.104   0.590   7.077  0.1629 -0.2213  0.3675
 1032SOL     OW 8931   3.689   1.624   7.799 -0.0905 -0.3447 -0.4681
 1032SOL    HW1 8932   3.658   1.694   7.741 -1.4838  0.2824  0.9844
 1032SOL    HW2 8933   3.685   1.545   7.745 -0.4086  0.3670 -1.5161
 1033SOL     OW 8934   3.740   4.126   8.130 -0.0585 -0.1427  0.3403
 1033SOL    HW1 8935   3.705   4.191   8.070  1.2798  0.0587 -0.2603
 1033SOL    HW2 8936   3.677   4.122   8.202 -0.2300  1.7247  0.3208
 1034SOL     OW 8937   2.978   9.779   9.079 -0.5699 -0.6530 -0.6038
 1034SOL    HW1 8938   2.979   9.806   8.987  0.2859 -1.3215 -0.7994
 1034SOL    HW2 8939   2.996   9.860   9.128 -0.6989 -0.3600 -1.0348
 1035SOL     OW 8940   1.754   5.367   4.615  0.1168  0.1324  0.5841
 1035SOL    HW1 8941   1.691   5.352   4.545 -0.6256 -0.8845  1.4482
 1035SOL    HW2 8942   1.801   5.446   4.587 -2.0148  1.3770  0.2588
 1036SOL     OW 8943   6.723   1.325   0.322 -0.3000 -0.2729 -0.0226
 1036SOL    HW1 8944   6.651   1.284   0.370  0.5713 -1.1595  0.5828
 1036SOL    HW2 8945   6.783   1.252   0.303  1.0355  0.6200  0.6117
 1037SOL     OW 8946   4.687   9.671  10.672 -0.3154  0.3147 -0.1891
 1037SOL    HW1 8947   4.651   9.659  10.584 -0.3126  0.4833 -0.2121
 1037SOL    HW2 8948   4.612   9.694  10.726 -0.5383 -1.0419  0.1114
 1038SOL     OW 8949   4.163   4.292   1.534  0.0273 -0.5337  0.1700
 1038SOL    HW1 8950   4.068   4.298   1.522 -0.4980 -1.3303  3.0116
 1038SOL    HW2 8951   4.178   4.332   1.620  2.7538  2.4064 -1.4974
 1039SOL     OW 8952   9.228   4.872   5.700 -0.2322 -0.3180  0.2581
 1039SOL    HW1 8953   9.163   4.835   5.760 -0.0002 -2.3959 -0.6667
 1039SOL    HW2 8954   9.287   4.922   5.756 -0.8831 -0.9347  1.5414
 1040SOL     OW 8955  10.265   3.787   0.521  0.1778  0.1621  0.2345
 1040SOL    HW1 8956  10.349   3.756   0.487  0.5478  2.3936 -1.0970
 1040SOL    HW2 8957  10.210   3.799   0.444 -1.1647 -0.5855  1.0298
 1041SOL     OW 8958   1.974   1.447   3.747  0.6353  0.2215  0.0151
 1041SOL    HW1 8959   1.888   1.473   3.780  0.9789  0.5948  0.6163
 1041SOL    HW2 8960   1.962   1.356   3.720  0.2836 -0.0282  0.9641
 1042SOL     OW 8961   1.744   3.461   2.688 -0.5816 -0.1205  0.0887
 1042SOL    HW1 8962   1.835   3.433   2.696 -0.8601 -0.8498  0.7385
 1042SOL    HW2 8963   1.697   3.414   2.757 -1.9454 -1.8337 -1.8837
 1043SOL     OW 8964  10.782   3.503   6.905 -0.3558  0.5864  0.2824
 1043SOL    HW1 8965  10.763   3.591   6.937 -0.3942  0.5469  0.3672
 1043SOL    HW2 8966  10.737   3.498   6.821 -0.2458  0.6938  0.2160
 1044SOL     OW 8967   8.402   9.216   6.309 -0.4072 -0.1021  0.9012
 1044SOL    HW1 8968   8.371   9.159   6.381  0.3350 -0.6890  0.7725
 1044SOL    HW2 8969   8.390   9.163   6.230  0.3149 -0.0976  0.7814
 1045SOL     OW 8970   1.723   8.492   5.464  0.2656 -0.0803  0.4197
 1045SOL    HW1 8971   1.721   8.402   5.497 -0.9995  0.1858  1.1608
 1045SOL    HW2 8972   1.690   8.545   5.537  0.8282  0.9670 -0.0608
 1046SOL     OW 8973   5.848   9.721   7.996 -0.2683 -0.1089 -0.1164
 1046SOL    HW1 8974   5.845   9.788   8.063  1.4743 -1.1727  1.1190
 1046SOL    HW2 8975   5.936   9.729   7.957 -0.4464 -0.9245 -0.7368
 1047SOL     OW 8976   3.183   3.977   4.391  0.0864 -0.5442 -0.5546
 1047SOL    HW1 8977   3.223   3.908   4.337 -0.7153 -0.9386 -0.6516
 1047SOL    HW2 8978   3.110   4.008   4.338 -0.3894 -0.5696  0.0902
 1048SOL     OW 8979   5.732   9.425   7.594  0.7311  0.2189 -0.2558
 1048SOL    HW1 8980   5.801   9.362   7.573 -0.0755 -0.5342 -0.7516
 1048SOL    HW2 8981   5.737   9.435   7.689  0.4982 -1.0753 -0.0851
 1049SOL     OW 8982   0.837   8.006   0.785 -0.4007  0.8841 -0.2356
 1049SOL    HW1 8983   0.795   7.920   0.788  3.3174 -1.1278 -0.2095
 1049SOL    HW2 8984   0.814   8.041   0.699 -0.8132 -0.7794 -0.8398
 1050SOL     OW 8985   2.519   0.003   7.356 -0.1484 -0.2805 -0.7242
 1050SOL    HW1 8986   2.603  -0.043   7.350  0.7389  1.1576  0.0914
 1050SOL    HW2 8987   2.527   0.075   7.294 -0.7601 -0.0930 -0.5894
 1051SOL     OW 8988   3.026   4.194   1.236  0.0961 -0.3505 -0.0141
 1051SOL    HW1 8989   2.984   4.236   1.162  0.3725 -1.9879 -1.1631
 1051SOL    HW2 8990   3.036   4.263   1.301  0.8020  1.4064 -1.8925
 1052SOL     OW 8991   0.265   0.636   4.928  0.7647 -0.8375 -0.1105
 1052SOL    HW1 8992   0.358   0.644   4.949  0.7431  2.8388 -0.8533
 1052SOL    HW2 8993   0.261   0.639   4.833 -0.1186 -0.9219 -0.0830
 1053SOL     OW 8994   4.663  10.053   7.052  0.0587  0.0599 -0.3138
 1053SOL    HW1 8995   4.704  10.121   7.105  1.5895 -1.1333  0.1020
 1053SOL    HW2 8996   4.688  10.075   6.962 -0.2792  0.5724 -0.2880
 1054SOL     OW 8997   4.247  10.714   7.719 -0.2713 -0.0155 -0.3961
 1054SOL    HW1 8998   4.184  10.646   7.744 -0.3264  0.3855  0.5787
 1054SOL    HW2 8999   4.314  10.712   7.787  1.2428 -0.9787 -1.8307
 1055SOL     OW 9000   7.542   7.850   5.835 -0.7876 -0.2511  1.0229
 1055SOL    HW1 9001   7.510   7.926   5.786 -1.5998 -0.4975  1.1601
 1055SOL    HW2 9002   7.622   7.881   5.877 -0.8415  0.3792  0.6789
 1056SOL     OW 9003   7.961   2.891   7.780 -0.0486  0.0644  0.6856
 1056SOL    HW1 9004   7.914   2.821   7.735  2.3599 -0.6116 -0.9536
 1056SOL    HW2 9005   7.985   2.854   7.864  2.6580 -1.8428 -0.7874
 1057SOL     OW 9006   6.447   4.074  10.008  0.3676 -0.0191  0.5780
 1057SOL    HW1 9007   6.539   4.056  10.027  0.6162  2.4821  2.2509
 1057SOL    HW2 9008   6.430   4.028   9.926  2.1337 -3.3055  1.8442
 1058SOL     OW 9009   5.247   5.579   2.775  0.2632 -0.8730  0.0684
 1058SOL    HW1 9010   5.229   5.634   2.699  0.3213 -1.0012 -0.0378
 1058SOL    HW2 9011   5.162   5.570   2.818  0.5010  0.5123  0.9117
 1059SOL     OW 9012   7.422   5.818   4.700  0.1850 -0.5492  0.3711
 1059SOL    HW1 9013   7.403   5.839   4.608 -1.3932  0.5115  0.8989
 1059SOL    HW2 9014   7.471   5.894   4.732  1.4388 -1.2642  0.2431
 1060SOL     OW 9015   5.277   8.219   1.881  0.2559 -0.1239 -0.1590
 1060SOL    HW1 9016   5.224   8.169   1.819 -1.1328  0.6551  0.3670
 1060SOL    HW2 9017   5.216   8.280   1.922  1.3284  0.0207  1.3131
 1061SOL     OW 9018   6.292   3.035   6.179 -0.3481 -0.2988  0.0816
 1061SOL    HW1 9019   6.332   3.084   6.107 -1.7710 -0.1336 -0.6456
 1061SOL    HW2 9020   6.338   2.951   6.180  0.9870  0.3996  0.2563
 1062SOL     OW 9021   0.034   7.336   1.604 -0.1014 -0.0720  0.2770
 1062SOL    HW1 9022   0.003   7.254   1.566 -2.0367  0.3998  0.7366
 1062SOL    HW2 9023   0.129   7.329   1.601 -0.1213 -0.6974 -3.2052
 1063SOL     OW 9024   4.222   6.430   7.493 -0.3726  0.2294  0.5059
 1063SOL    HW1 9025   4.181   6.443   7.407 -1.8317  1.0108  1.2742
 1063SOL    HW2 9026   4.312   6.406   7.473  0.1512  3.1467 -1.2518
 1064SOL     OW 9027   9.717   4.874   8.074  0.0075 -0.6205  0.5457
 1064SOL    HW1 9028   9.654   4.819   8.123 -0.2410 -0.3536  0.5302
 1064SOL    HW2 9029   9.681   4.878   7.986 -1.3322  1.5781  1.1116
 1065SOL     OW 9030   9.982   7.335   0.051  0.4552  0.1436  0.2039
 1065SOL    HW1 9031   9.919   7.390   0.097  0.3610  1.3173 -1.2726
 1065SOL    HW2 9032   9.930   7.261   0.018  0.3318 -0.1521  1.0267
 1066SOL     OW 9033   6.393   0.454   9.859  0.3915  0.0386 -0.1470
 1066SOL    HW1 9034   6.411   0.436   9.951  2.1594  0.2648 -0.4116
 1066SOL    HW2 9035   6.329   0.387   9.833 -0.4893  0.2593  1.3344
 1067SOL     OW 9036   2.471   4.952   7.007 -0.1613  0.2620  0.1721
 1067SOL    HW1 9037   2.402   4.931   7.069  1.0284  0.5923  1.6778
 1067SOL    HW2 9038   2.484   5.047   7.016 -0.4548  0.4464 -1.1296
 1068SOL     OW 9039   8.409   1.360   9.995 -0.2800 -0.5070 -0.0515
 1068SOL    HW1 9040   8.400   1.266   9.980  3.3472 -1.1385  0.7902
 1068SOL    HW2 9041   8.497   1.381   9.964  0.2302  1.9377  2.5932
 1069SOL     OW 9042   4.226   4.054   6.752 -0.5282  0.2750  0.0049
 1069SOL    HW1 9043   4.141   4.065   6.710 -0.6302  0.0993  0.1616
 1069SOL    HW2 9044   4.267   3.981   6.706  0.9853  2.4798 -2.3784
 1070SOL     OW 9045   6.061   0.742   7.381  0.1834 -0.0945 -0.2447
 1070SOL    HW1 9046   6.109   0.819   7.353 -0.5775 -0.0331 -1.4628
 1070SOL    HW2 9047   5.999   0.724   7.310 -1.4966 -0.2418  1.1609
 1071SOL     OW 9048   5.659   9.804  10.853 -0.0876 -0.2007 -0.0191
 1071SOL    HW1 9049   5.671   9.814  10.759 -0.5655 -1.7909 -0.2787
 1071SOL    HW2 9050   5.678   9.891  10.889 -2.5194  1.1890 -1.8130
 1072SOL     OW 9051   4.848   9.504  10.382 -0.4967 -0.3255  0.2181
 1072SOL    HW1 9052   4.899   9.578  10.414  0.8101 -0.4441 -1.4512
 1072SOL    HW2 9053   4.770   9.544  10.342 -0.9006 -0.0364  1.2439
 1073SOL     OW 9054   6.060   9.576   9.227  0.0619 -0.0595  0.6712
 1073SOL    HW1 9055   6.144   9.541   9.199  0.1856 -0.1412  1.1418
 1073SOL    HW2 9056   6.015   9.599   9.145  0.3753 -0.3935  0.4036
 1074SOL     OW 9057   3.131   7.109   3.539 -0.0153 -0.0235 -0.1495
 1074SOL    HW1 9058   3.162   7.020   3.522  0.5050  0.3078 -1.0074
 1074SOL    HW2 9059   3.195   7.145   3.600 -0.9502 -0.6542  1.2511
 1075SOL     OW 9060  10.808   8.440   2.498 -0.5129 -0.5310  0.3770
 1075SOL    HW1 9061  10.714   8.435   2.515 -0.4896  0.0487  0.7167
 1075SOL    HW2 9062  10.818   8.409   2.408 -1.2891  1.3001 -0.4000
 1076SOL     OW 9063   5.787   2.612  10.316 -0.0120  1.2341  1.0818
 1076SOL    HW1 9064   5.881   2.624  10.331  0.6222 -1.6840  0.0148
 1076SOL    HW2 9065   5.760   2.549  10.382 -1.0673  1.4235  0.8482
 1077SOL     OW 9066   8.043   4.236   5.200 -0.0779  0.0284  0.0670
 1077SOL    HW1 9067   8.075   4.323   5.223 -1.7625  1.3588 -2.1983
 1077SOL    HW2 9068   8.012   4.199   5.282 -1.3959  2.5245  0.8118
 1078SOL     OW 9069   8.738   5.509   1.959 -0.2144 -0.2088  0.2342
 1078SOL    HW1 9070   8.805   5.474   2.018  0.7004 -0.2215 -0.7823
 1078SOL    HW2 9071   8.770   5.596   1.935 -0.5001 -0.2603 -0.3555
 1079SOL     OW 9072   5.714   1.443   6.600  0.7021  0.6099  0.3146
 1079SOL    HW1 9073   5.751   1.365   6.557 -0.3935 -0.2538  0.8907
 1079SOL    HW2 9074   5.723   1.425   6.693  0.8245  1.3760  0.4544
 1080SOL     OW 9075   0.242   6.026   4.342  0.2100 -0.4214 -0.0426
 1080SOL    HW1 9076   0.245   5.977   4.424 -0.4304  0.7921  0.7424
 1080SOL    HW2 9077   0.312   6.090   4.350 -0.4050  0.2654 -0.0529
 1081SOL     OW 9078  10.591  10.664   6.167  0.9232 -0.1970 -0.0879
 1081SOL    HW1 9079  10.548  10.598   6.222  2.5635 -1.2603 -0.0078
 1081SOL    HW2 9080  10.626  10.614   6.093 -1.4003  1.2398 -2.2674
 1082SOL     OW 9081   1.237   5.542   3.830 -0.4702 -0.3082  0.0729
 1082SOL    HW1 9082   1.225   5.630   3.865 -0.8475  0.3379 -1.5915
 1082SOL    HW2 9083   1.173   5.489   3.877 -0.1235  0.2432  1.2176
 1083SOL     OW 9084   0.673   7.496   5.295  0.6860  0.0533  0.4361
 1083SOL    HW1 9085   0.654   7.589   5.305 -1.9780 -0.1204 -1.7976
 1083SOL    HW2 9086   0.654   7.458   5.381 -1.3662  1.1824  0.5547
 1084SOL     OW 9087   1.474   5.796   9.915 -0.3930  0.2435  0.4271
 1084SOL    HW1 9088   1.401   5.849   9.948 -1.1780 -0.4568 -0.1600
 1084SOL    HW2 9089   1.548   5.856   9.913 -0.7391  0.7555  1.8333
 1085SOL     OW 9090   3.362   6.558   0.958 -0.2182 -0.0264 -0.0206
 1085SOL    HW1 9091   3.313   6.481   0.987 -0.7765  0.2023 -0.3410
 1085SOL    HW2 9092   3.415   6.582   1.034 -0.5045 -0.3578  0.2922
 1086SOL     OW 9093   0.617   2.477   0.203 -0.0781 -0.4754  0.4262
 1086SOL    HW1 9094   0.654   2.402   0.252 -0.3803 -0.6164  0.4398
 1086SOL    HW2 9095   0.539   2.501   0.252  0.5818  0.5278  1.0191
 1087SOL     OW 9096   1.901   3.071   5.516 -0.1623  0.0351  0.1358
 1087SOL    HW1 9097   1.889   3.066   5.421  0.6577  3.7686 -0.3507
 1087SOL    HW2 9098   1.996   3.067   5.528 -0.2826 -0.8366  0.8645
 1088SOL     OW 9099   9.436   4.224   5.987  0.0653  0.5923 -0.7047
 1088SOL    HW1 9100   9.478   4.179   5.913 -0.6808  0.5604 -1.1146
 1088SOL    HW2 9101   9.416   4.154   6.049  2.3882  0.8164  0.4139
 1089SOL     OW 9102   2.057   3.852   5.711 -0.4751  0.7459  0.1532
 1089SOL    HW1 9103   2.082   3.765   5.680 -0.0357  0.6255  0.8133
 1089SOL    HW2 9104   2.053   3.843   5.807 -2.3005  0.9728  0.1277
 1090SOL     OW 9105   0.746   4.384   9.845 -0.1403  0.1817  0.4199
 1090SOL    HW1 9106   0.775   4.467   9.884  0.7476  0.1180 -0.0805
 1090SOL    HW2 9107   0.822   4.326   9.852 -0.1321  0.0009 -0.9052
 1091SOL     OW 9108   2.575  10.060   4.949  0.2402 -0.2038 -0.3028
 1091SOL    HW1 9109   2.503  10.007   4.913 -0.4228  0.5977 -0.1850
 1091SOL    HW2 9110   2.622  10.091   4.872  0.0141 -0.1191 -0.4081
 1092SOL     OW 9111   5.928   2.888   4.461  0.3208 -0.5320 -0.3444
 1092SOL    HW1 9112   5.916   2.903   4.367  0.1404  1.0560 -0.0997
 1092SOL    HW2 9113   6.014   2.849   4.469  0.5980 -0.0967 -1.1314
 1093SOL     OW 9114   5.520   8.847   6.022 -0.3201 -0.3441  0.0485
 1093SOL    HW1 9115   5.556   8.909   5.958  0.2550  0.1963  0.8781
 1093SOL    HW2 9116   5.430   8.834   5.994 -1.0738  2.3450  0.8944
 1094SOL     OW 9117   7.369   2.442   2.171  0.1445 -0.1441 -0.0212
 1094SOL    HW1 9118   7.462   2.417   2.173  0.1512 -0.1070  0.3265
 1094SOL    HW2 9119   7.349   2.455   2.079  0.8614  1.1943 -0.0218
 1095SOL     OW 9120   8.430   8.238   6.517 -0.4654 -0.2199 -0.3507
 1095SOL    HW1 9121   8.405   8.324   6.551 -1.9446 -0.9087  0.4015
 1095SOL    HW2 9122   8.474   8.257   6.434  2.1674  1.4431  1.2981
 1096SOL     OW 9123   6.020   4.036   6.077 -0.0473 -0.2461  0.2017
 1096SOL    HW1 9124   5.979   4.066   6.159  1.7270  0.9612  0.7218
 1096SOL    HW2 9125   5.992   4.100   6.012  2.1251  1.5209  0.8870
 1097SOL     OW 9126   2.842   6.824   1.611 -0.3083 -0.8245  0.3779
 1097SOL    HW1 9127   2.883   6.848   1.528 -0.4497  0.2138  0.5937
 1097SOL    HW2 9128   2.755   6.794   1.586  0.3293 -2.4171 -0.0204
 1098SOL     OW 9129   3.027   7.793   8.793  0.9754 -0.5728  0.0132
 1098SOL    HW1 9130   3.113   7.805   8.833  1.6580 -0.7777 -1.3188
 1098SOL    HW2 9131   3.016   7.871   8.739  0.2115 -0.4371  0.3624
 1099SOL     OW 9132   9.898   7.732   3.190  0.4645  0.2934  0.3385
 1099SOL    HW1 9133   9.856   7.656   3.230 -1.5302  1.1669  0.0063
 1099SOL    HW2 9134   9.826   7.782   3.151  2.0371  0.6432 -2.4152
 1100SOL     OW 9135   0.406   6.493  10.157 -0.2625 -0.1062  0.2328
 1100SOL    HW1 9136   0.349   6.418  10.139 -2.1870  1.7221 -1.9937
 1100SOL    HW2 9137   0.473   6.489  10.090 -1.1138  0.7920 -0.7083
 1101SOL     OW 9138   8.973   2.078   3.090 -0.3220 -0.2648 -0.3093
 1101SOL    HW1 9139   8.974   1.984   3.073  0.0250 -0.0791 -1.4075
 1101SOL    HW2 9140   8.919   2.115   3.020  0.2819  0.4404 -0.4224
 1102SOL     OW 9141   2.712  10.538   6.807  0.3250 -0.1976 -0.1163
 1102SOL    HW1 9142   2.686  10.463   6.753 -1.0603  0.8507 -0.9629
 1102SOL    HW2 9143   2.650  10.607   6.784  2.6444  1.8057 -0.6506
 1103SOL     OW 9144   7.566   8.933   7.987  0.3219 -0.2036 -0.1517
 1103SOL    HW1 9145   7.622   8.881   7.929  0.3046  0.4797 -0.7848
 1103SOL    HW2 9146   7.477   8.913   7.958  0.3283  0.4445 -0.6271
 1104SOL     OW 9147   4.255   8.444   6.256  0.0382 -0.2172  0.6479
 1104SOL    HW1 9148   4.351   8.437   6.256  0.3171  2.0332  2.8196
 1104SOL    HW2 9149   4.238   8.530   6.294 -2.8877 -1.1720  1.7306
 1105SOL     OW 9150   0.196   2.986   7.734 -0.6442  0.2933 -0.1635
 1105SOL    HW1 9151   0.175   3.047   7.663 -0.3433  0.7187  0.1116
 1105SOL    HW2 9152   0.115   2.978   7.784 -1.2034 -0.8883 -1.1921
 1106SOL     OW 9153   3.952   7.640  10.064  0.8064 -0.1036  0.3748
 1106SOL    HW1 9154   3.887   7.703  10.033 -0.6568 -2.3734 -1.5301
 1106SOL    HW2 9155   3.930   7.627  10.156  0.0383  0.8753  0.3522
 1107SOL     OW 9156   5.626   1.908   1.362 -0.0413 -0.0885  0.6564
 1107SOL    HW1 9157   5.559   1.896   1.295  0.1259 -1.8968  0.7520
 1107SOL    HW2 9158   5.705   1.931   1.313 -0.5166  1.2531  0.4812
 1108SOL     OW 9159   1.696   9.707   2.131 -0.0978  0.1850 -0.1567
 1108SOL    HW1 9160   1.783   9.674   2.111  0.7792  2.0426  0.3397
 1108SOL    HW2 9161   1.690   9.703   2.227 -1.0784 -1.1033 -0.2439
 1109SOL     OW 9162   4.446   1.871   0.004 -0.5773  0.2292  0.0917
 1109SOL    HW1 9163   4.361   1.877   0.049 -0.6872  0.7619 -0.1769
 1109SOL    HW2 9164   4.500   1.938   0.046 -1.3153  2.2018 -1.8895
 1110SOL     OW 9165   9.016   1.721  10.458 -0.2939 -0.3975 -0.5004
 1110SOL    HW1 9166   9.003   1.816  10.466  0.3354 -0.2972 -0.6756
 1110SOL    HW2 9167   9.078   1.710  10.386  1.0320 -0.8361  0.6617
 1111SOL     OW 9168   1.017  10.372   4.807 -0.5240 -0.3006 -0.1855
 1111SOL    HW1 9169   0.965  10.360   4.887 -0.4915 -1.2422 -0.2910
 1111SOL    HW2 9170   1.106  10.349   4.833 -0.2270  0.8564 -0.1226
 1112SOL     OW 9171   6.590  10.243   0.009 -0.0313  0.8254  0.2758
 1112SOL    HW1 9172   6.650  10.317   0.012 -1.3816  1.9382  1.1357
 1112SOL    HW2 9173   6.544  10.246   0.093 -0.7568 -0.4407 -0.0495
 1113SOL     OW 9174   2.736   7.116   4.183 -0.2247 -0.1291 -0.2302
 1113SOL    HW1 9175   2.807   7.053   4.169 -0.8762 -1.0710  0.6236
 1113SOL    HW2 9176   2.772   7.179   4.246  0.0012 -0.3516 -0.1352
 1114SOL     OW 9177  10.216   7.619   5.593  0.5202  0.0456  0.2105
 1114SOL    HW1 9178  10.184   7.682   5.658  2.3865  0.6472  0.6021
 1114SOL    HW2 9179  10.232   7.539   5.644  0.7437  0.1071  0.2366
 1115SOL     OW 9180   1.372   7.823   3.348 -0.2915 -0.3334 -0.3362
 1115SOL    HW1 9181   1.449   7.804   3.295  0.1509 -1.5254  0.6895
 1115SOL    HW2 9182   1.300   7.829   3.284 -0.0561 -3.1862 -1.0320
 1116SOL     OW 9183  10.443   8.571   7.147  0.7905 -0.1175  0.0325
 1116SOL    HW1 9184  10.471   8.480   7.148  2.5745  0.3937  1.4148
 1116SOL    HW2 9185  10.462   8.601   7.058 -0.0977 -1.1248 -0.5269
 1117SOL     OW 9186   2.890   6.699   8.539  0.2906  0.0315  0.0424
 1117SOL    HW1 9187   2.926   6.647   8.610  1.6317  0.3432 -0.3818
 1117SOL    HW2 9188   2.849   6.636   8.481 -1.4505 -0.1749  1.3914
 1118SOL     OW 9189   4.461   5.849   0.614  0.0576 -0.1020  0.2595
 1118SOL    HW1 9190   4.402   5.897   0.671 -0.1717 -0.0999  0.0237
 1118SOL    HW2 9191   4.536   5.827   0.669  0.4969  1.1474  0.1873
 1119SOL     OW 9192  10.531   7.779   3.234 -0.1577 -0.1497 -0.1486
 1119SOL    HW1 9193  10.526   7.752   3.142  0.2661  1.4928 -0.6937
 1119SOL    HW2 9194  10.524   7.697   3.283  1.0235 -1.2447 -1.6751
 1120SOL     OW 9195   5.417   7.838   7.196  0.1218  0.2111 -0.1955
 1120SOL    HW1 9196   5.416   7.800   7.108  0.7711 -1.1524  0.3591
 1120SOL    HW2 9197   5.511   7.847   7.216 -0.0251  0.6612  0.3000
 1121SOL     OW 9198   0.188   0.629   0.649 -0.2629  0.9061  0.2179
 1121SOL    HW1 9199   0.237   0.699   0.692 -1.6884  1.4793  0.9718
 1121SOL    HW2 9200   0.147   0.671   0.573 -0.7511  0.7905  0.4130
 1122SOL     OW 9201   2.844   3.457   3.798 -0.0570  0.2960 -0.1644
 1122SOL    HW1 9202   2.792   3.496   3.868 -0.0628  1.2043 -0.6557
 1122SOL    HW2 9203   2.786   3.392   3.757  0.1003 -0.5727  0.9424
 1123SOL     OW 9204   8.134   9.224   3.697  0.4037  0.4395  0.9138
 1123SOL    HW1 9205   8.173   9.179   3.771  0.1278 -1.3512  0.0346
 1123SOL    HW2 9206   8.178   9.188   3.620 -0.1271  1.3815  0.1338
 1124SOL     OW 9207   5.685   8.285   5.423 -0.0797 -0.2463 -0.0444
 1124SOL    HW1 9208   5.772   8.249   5.404  0.0306  0.3034 -0.5956
 1124SOL    HW2 9209   5.682   8.367   5.375 -0.7724 -0.0844  0.2682
 1125SOL     OW 9210   0.170   2.181   1.652  0.4958  0.1366  0.7667
 1125SOL    HW1 9211   0.248   2.234   1.637  0.1564  0.4318  0.0252
 1125SOL    HW2 9212   0.164   2.123   1.576 -2.7571  3.5206 -1.9190
 1126SOL     OW 9213   4.351   5.739  10.574 -0.0840  0.5310 -0.5718
 1126SOL    HW1 9214   4.310   5.714  10.491 -0.7733 -3.5323  0.7290
 1126SOL    HW2 9215   4.293   5.805  10.611 -1.0860  0.6351 -2.2374
 1127SOL     OW 9216   4.562  10.523   2.620 -0.0455  0.0886  0.4521
 1127SOL    HW1 9217   4.603  10.505   2.704  0.1170 -2.2839 -0.0650
 1127SOL    HW2 9218   4.612  10.471   2.557 -2.3386 -1.0554 -0.5618
 1128SOL     OW 9219   7.365  10.155   6.220  0.2970  0.2557 -0.7618
 1128SOL    HW1 9220   7.279  10.142   6.181 -1.0678  0.9506  1.7664
 1128SOL    HW2 9221   7.400  10.067   6.232 -1.4819 -0.2861  0.9699
 1129SOL     OW 9222   9.957   5.121   5.261 -0.6298 -0.3705 -0.3033
 1129SOL    HW1 9223   9.983   5.209   5.291 -1.7340 -0.6213  1.5821
 1129SOL    HW2 9224  10.029   5.065   5.288 -0.2293 -0.1372 -0.8886
 1130SOL     OW 9225   0.738   6.125   1.591  0.7241  0.3570 -0.9085
 1130SOL    HW1 9226   0.764   6.095   1.504 -3.0950 -0.3081 -2.0021
 1130SOL    HW2 9227   0.676   6.059   1.622 -0.6909  2.3413  0.7693
 1131SOL     OW 9228   7.732   3.555   8.991  0.3959  0.0209 -0.3766
 1131SOL    HW1 9229   7.714   3.533   9.082  0.4128  2.5203  0.2861
 1131SOL    HW2 9230   7.670   3.502   8.941 -0.5933 -0.3248  1.1567
 1132SOL     OW 9231   5.762   5.757   1.850 -0.1795  0.6072 -0.2258
 1132SOL    HW1 9232   5.792   5.844   1.823  0.7608  0.2792 -0.2680
 1132SOL    HW2 9233   5.764   5.705   1.769  0.0231  0.3363 -0.0470
 1133SOL     OW 9234   3.608   7.148   7.209 -0.5192  0.4204 -0.0804
 1133SOL    HW1 9235   3.527   7.185   7.174 -0.1286  0.4715 -0.9460
 1133SOL    HW2 9236   3.582   7.106   7.291 -1.4359  0.3504 -0.4031
 1134SOL     OW 9237   7.661   3.928   0.096  0.6170  0.0796  0.1472
 1134SOL    HW1 9238   7.657   3.872   0.019  0.1807  1.2929 -0.7439
 1134SOL    HW2 9239   7.700   3.872   0.164  2.0067 -0.7072 -1.2130
 1135SOL     OW 9240   6.505   9.413   4.751  0.2298 -0.6405 -0.5343
 1135SOL    HW1 9241   6.573   9.390   4.815 -0.1463 -2.0140 -0.6137
 1135SOL    HW2 9242   6.429   9.360   4.775 -0.2990 -0.3184 -1.4229
 1136SOL     OW 9243   3.411  10.489   8.656  0.4758 -0.3088 -0.4073
 1136SOL    HW1 9244   3.438  10.572   8.696  1.0569 -0.5147 -0.3616
 1136SOL    HW2 9245   3.452  10.490   8.569 -1.8107  0.7087 -1.5439
 1137SOL     OW 9246   1.294   6.122   1.728  0.4647 -0.2398  0.2582
 1137SOL    HW1 9247   1.256   6.034   1.723 -1.8887  0.7852 -1.4722
 1137SOL    HW2 9248   1.270   6.154   1.815 -1.7839 -0.0320 -0.3987
 1138SOL     OW 9249   9.141   6.620   9.636  0.2524 -0.2125  0.0356
 1138SOL    HW1 9250   9.096   6.536   9.632  0.7094 -0.4710  0.2016
 1138SOL    HW2 9251   9.148   6.647   9.545  0.6288 -0.6440 -0.0683
 1139SOL     OW 9252  10.325  10.057   4.878 -0.9192 -0.0109  0.5216
 1139SOL    HW1 9253  10.313   9.962   4.869 -2.2580  0.2484 -0.8794
 1139SOL    HW2 9254  10.385  10.067   4.952  1.5491 -2.0675 -1.0198
 1140SOL     OW 9255   4.175   1.155   7.672  0.0288  0.0128 -0.1778
 1140SOL    HW1 9256   4.098   1.112   7.634  0.6067 -1.3842  0.1485
 1140SOL    HW2 9257   4.143   1.239   7.704 -1.6031 -0.9381  0.8419
 1141SOL     OW 9258  10.395   5.968   5.654 -0.0576 -0.0975 -0.3763
 1141SOL    HW1 9259  10.369   6.014   5.734  0.8140  0.3535 -0.3431
 1141SOL    HW2 9260  10.330   5.993   5.589 -0.5850 -0.2058  0.1031
 1142SOL     OW 9261   8.580   6.682   0.368 -0.1213 -0.1215  0.0767
 1142SOL    HW1 9262   8.540   6.703   0.283  0.2855  0.5015  0.0287
 1142SOL    HW2 9263   8.662   6.733   0.368 -0.2152  0.0313  0.9227
 1143SOL     OW 9264   5.513   8.904   8.575  0.5088 -0.5366 -0.3446
 1143SOL    HW1 9265   5.542   8.817   8.603 -0.4956 -0.9720 -0.5855
 1143SOL    HW2 9266   5.421   8.891   8.549  0.7347  0.3150 -1.6583
 1144SOL     OW 9267   5.927  10.666   8.498  0.1434 -0.2178  0.1550
 1144SOL    HW1 9268   5.909  10.575   8.520 -1.0479 -0.8935 -2.9629
 1144SOL    HW2 9269   6.016  10.666   8.465  0.4796 -0.0302  1.0385
 1145SOL     OW 9270   1.745   9.092   4.613  0.2063  0.1989  0.3754
 1145SOL    HW1 9271   1.729   9.000   4.593  0.4735  0.4351 -1.0111
 1145SOL    HW2 9272   1.793   9.090   4.696  0.1535 -0.8999  0.3964
 1146SOL     OW 9273   4.052   5.742   6.270 -0.4081 -0.0491  0.6931
 1146SOL    HW1 9274   3.977   5.706   6.223  0.9807 -1.3059 -0.6663
 1146SOL    HW2 9275   4.087   5.669   6.321  0.2285  0.3643  0.8682
 1147SOL     OW 9276   9.851   5.608   3.877  0.0021  0.2542 -0.0694
 1147SOL    HW1 9277   9.898   5.531   3.908  0.3673  0.9532  1.1790
 1147SOL    HW2 9278   9.896   5.633   3.797  0.2418 -0.4838 -0.1733
 1148SOL     OW 9279   6.391   4.872   0.180 -0.4325  0.3204 -0.1291
 1148SOL    HW1 9280   6.366   4.794   0.229 -1.1881  0.1285 -0.7996
 1148SOL    HW2 9281   6.447   4.839   0.109  0.2158  0.5370  0.2651
 1149SOL     OW 9282   6.461   1.469   7.958 -0.0683  0.3428  0.0981
 1149SOL    HW1 9283   6.419   1.488   7.875  0.7503  0.4896 -0.2938
 1149SOL    HW2 9284   6.407   1.513   8.024 -0.4432  0.6352 -0.4015
 1150SOL     OW 9285   3.826   3.000   4.050  0.0987 -0.6337  0.1217
 1150SOL    HW1 9286   3.843   2.991   3.956  1.4750  1.2161  0.1485
 1150SOL    HW2 9287   3.908   3.032   4.086 -0.6885 -0.4515  1.8432
 1151SOL     OW 9288   0.219   3.808   4.846  0.9271  0.1966 -0.4734
 1151SOL    HW1 9289   0.305   3.845   4.864  1.7072 -1.0862 -1.3997
 1151SOL    HW2 9290   0.168   3.825   4.925  1.2268  3.1482 -0.8066
 1152SOL     OW 9291  10.539   0.297  10.912  0.0046 -0.2705 -0.0051
 1152SOL    HW1 9292  10.540   0.350  10.993  2.7556  2.2017 -1.4507
 1152SOL    HW2 9293  10.490   0.351  10.850  0.2692 -0.8430 -0.7136
 1153SOL     OW 9294   1.762   5.962   6.388 -0.3416  0.2494 -0.2278
 1153SOL    HW1 9295   1.727   5.875   6.367 -0.8350  0.3186  0.2996
 1153SOL    HW2 9296   1.710   6.022   6.335 -0.8989  0.3345  0.4059
 1154SOL     OW 9297   7.308   4.742   4.372  0.1988 -0.2949 -0.1907
 1154SOL    HW1 9298   7.337   4.657   4.338  0.0806 -0.1002 -0.7877
 1154SOL    HW2 9299   7.269   4.722   4.457  1.4680 -0.6545  0.3262
 1155SOL     OW 9300  10.238   0.392   6.377 -0.5374 -0.4479  0.1258
 1155SOL    HW1 9301  10.284   0.463   6.333 -0.8081 -0.7474 -0.6505
 1155SOL    HW2 9302  10.165   0.370   6.319 -2.0820  0.4514  1.6119
 1156SOL     OW 9303   6.090   1.691   2.811  0.2593 -0.9163 -0.1362
 1156SOL    HW1 9304   6.156   1.672   2.744  0.3852 -1.8943  0.2587
 1156SOL    HW2 9305   6.137   1.686   2.894 -0.5075 -2.6766  0.2256
 1157SOL     OW 9306   6.726   2.806  10.292  0.0742  0.2730 -0.0995
 1157SOL    HW1 9307   6.802   2.832  10.344  0.2731  2.5278 -1.4028
 1157SOL    HW2 9308   6.675   2.886  10.283 -1.3606 -0.7043 -1.0794
 1158SOL     OW 9309   6.123   2.034   2.874 -0.0684  0.2960  0.3877
 1158SOL    HW1 9310   6.156   2.104   2.817  0.5814  0.2196  0.6648
 1158SOL    HW2 9311   6.059   1.988   2.820  1.0727 -0.2427 -0.5703
 1159SOL     OW 9312   2.708   9.938   9.305  0.6142 -0.6628  0.3810
 1159SOL    HW1 9313   2.660   9.863   9.342 -1.2167  0.6834  0.8991
 1159SOL    HW2 9314   2.701   9.926   9.210  0.9507 -1.5008  0.4529
 1160SOL     OW 9315   1.499   7.475   0.945 -0.1565  0.1501  0.3483
 1160SOL    HW1 9316   1.487   7.448   1.036 -2.1357  0.4402  0.2108
 1160SOL    HW2 9317   1.462   7.562   0.940 -0.1792  0.0911 -0.7676
 1161SOL     OW 9318   3.379   5.712  10.269 -0.2133 -0.6260  0.2999
 1161SOL    HW1 9319   3.293   5.750  10.286 -0.2250  0.0103 -1.1037
 1161SOL    HW2 9320   3.441   5.779  10.299 -0.2353  0.3073 -1.5944
 1162SOL     OW 9321   2.017   5.102   3.281 -0.0005  0.0033 -0.4566
 1162SOL    HW1 9322   2.017   5.104   3.185 -1.5877  2.1095 -0.4986
 1162SOL    HW2 9323   2.107   5.118   3.306  0.0446  1.9936 -1.6681
 1163SOL     OW 9324   8.295   0.147   8.941 -0.0876 -0.1663 -0.2020
 1163SOL    HW1 9325   8.238   0.089   8.991  0.4687  0.4115  1.1576
 1163SOL    HW2 9326   8.377   0.099   8.933  0.2801  0.2845  0.6807
 1164SOL     OW 9327   8.636   2.215   8.505 -0.3741  0.2086  0.0282
 1164SOL    HW1 9328   8.721   2.193   8.467  0.2363  2.0225  0.2212
 1164SOL    HW2 9329   8.621   2.306   8.478 -2.3069 -0.1169 -0.0783
 1165SOL     OW 9330   8.249   9.113   4.553 -0.3835 -0.4049 -0.2384
 1165SOL    HW1 9331   8.156   9.119   4.534 -0.9882  0.5898  2.5116
 1165SOL    HW2 9332   8.255   9.046   4.622  0.3572  2.0895  2.2939
 1166SOL     OW 9333   0.468   3.232   8.851 -0.3033  0.7088 -0.4453
 1166SOL    HW1 9334   0.421   3.265   8.928  0.4187 -0.4752  0.5343
 1166SOL    HW2 9335   0.413   3.258   8.777 -1.2257  1.5161  0.4865
 1167SOL     OW 9336   6.405   6.555   0.723  0.6543 -0.3632  0.2302
 1167SOL    HW1 9337   6.446   6.505   0.794 -0.8067  0.0336  1.4142
 1167SOL    HW2 9338   6.379   6.489   0.659 -0.9974 -1.1758  1.6456
 1168SOL     OW 9339   4.756   3.088   2.436 -0.1411 -0.4504  0.0690
 1168SOL    HW1 9340   4.721   3.167   2.396  1.0449 -0.4889 -1.1520
 1168SOL    HW2 9341   4.755   3.105   2.530  1.3575  1.6096 -0.2174
 1169SOL     OW 9342   1.318   6.935   8.117  0.0648  0.1036  0.4534
 1169SOL    HW1 9343   1.330   6.910   8.208 -1.6026  0.5610  0.8541
 1169SOL    HW2 9344   1.400   6.913   8.074  0.9347 -0.0061  2.0889
 1170SOL     OW 9345   5.789   3.745   1.826  0.3997  0.2267  0.0829
 1170SOL    HW1 9346   5.874   3.784   1.806  0.8375 -0.9866 -0.5542
 1170SOL    HW2 9347   5.780   3.675   1.761 -0.2040 -0.9102  1.3501
 1171SOL     OW 9348   8.302   3.064   3.567  0.1340 -0.2884  0.1034
 1171SOL    HW1 9349   8.350   3.145   3.550 -1.7745  0.5438 -1.9010
 1171SOL    HW2 9350   8.344   2.999   3.510  0.1372 -0.0708 -0.1444
 1172SOL     OW 9351   3.165  10.543   7.525 -0.2047 -0.4608  0.4115
 1172SOL    HW1 9352   3.078  10.574   7.500  0.0434 -0.1029 -0.0110
 1172SOL    HW2 9353   3.162  10.448   7.511  0.3738 -0.1479 -2.3938
 1173SOL     OW 9354   7.993   1.493   4.227  0.1952  0.3122  0.5664
 1173SOL    HW1 9355   7.918   1.524   4.278 -0.8700 -2.2877  0.7322
 1173SOL    HW2 9356   7.960   1.484   4.137  0.7821  0.6646  0.3064
 1174SOL     OW 9357   7.137   4.701   2.230  0.9934 -0.0964  0.5237
 1174SOL    HW1 9358   7.124   4.665   2.142  1.2509 -0.7345  0.7461
 1174SOL    HW2 9359   7.132   4.796   2.217 -0.7901 -0.2131  0.1091
 1175SOL     OW 9360   3.478   8.620   0.785  0.0325 -0.0203  0.4849
 1175SOL    HW1 9361   3.482   8.601   0.879 -1.1023  0.4917  0.6418
 1175SOL    HW2 9362   3.515   8.542   0.744  3.2965  0.8611  1.4242
 1176SOL     OW 9363   4.025   4.963   2.050 -0.0453  0.4649  0.1579
 1176SOL    HW1 9364   3.973   4.884   2.035 -0.1967  0.5632  0.1648
 1176SOL    HW2 9365   3.986   5.029   1.992  0.0689  0.5400  0.1664
 1177SOL     OW 9366   2.738   6.123   1.833 -0.1574 -0.0372  0.0823
 1177SOL    HW1 9367   2.645   6.110   1.852 -0.0580  0.1174  0.6869
 1177SOL    HW2 9368   2.748   6.094   1.742 -0.6127 -0.9711  0.3163
 1178SOL     OW 9369   8.033   5.284   7.110 -0.5476 -0.3749  0.2892
 1178SOL    HW1 9370   8.105   5.291   7.047  0.7246 -0.1839  1.7055
 1178SOL    HW2 9371   8.006   5.192   7.106  0.9013 -0.8545  0.8983
 1179SOL     OW 9372   3.808   6.759   5.017  0.3419 -0.2863 -0.3196
 1179SOL    HW1 9373   3.751   6.778   5.092  0.8282  0.7790 -0.2054
 1179SOL    HW2 9374   3.760   6.692   4.968 -0.2719 -0.5545  0.6037
 1180SOL     OW 9375   2.734   8.472   5.361 -0.5131 -0.6001  0.1747
 1180SOL    HW1 9376   2.742   8.410   5.433 -2.3752  0.3871  1.2966
 1180SOL    HW2 9377   2.786   8.433   5.291  0.3195 -2.2259  1.6073
 1181SOL     OW 9378   8.904   9.834   9.047  0.5280 -0.4537 -0.0403
 1181SOL    HW1 9379   8.883   9.796   8.962  0.7856 -0.3065 -0.1707
 1181SOL    HW2 9380   8.997   9.853   9.043  0.1779  1.4021 -0.4738
 1182SOL     OW 9381   7.610   0.614   1.918  0.0420  0.1916 -0.3288
 1182SOL    HW1 9382   7.696   0.648   1.939  0.3036  0.7716 -2.1080
 1182SOL    HW2 9383   7.549   0.672   1.963  0.5582  0.6299 -0.1903
 1183SOL     OW 9384  10.862   0.783   0.980  0.2081 -0.2358  0.1228
 1183SOL    HW1 9385  10.794   0.821   1.035  0.7791  0.3057  0.4570
 1183SOL    HW2 9386  10.936   0.769   1.039  0.4652 -0.6317 -0.2843
 1184SOL     OW 9387  10.191   2.232   4.627 -0.0102  0.2903 -0.0253
 1184SOL    HW1 9388  10.150   2.155   4.667 -0.1684  0.0747 -0.5884
 1184SOL    HW2 9389  10.285   2.213   4.629 -0.0246  0.2313  0.1360
 1185SOL     OW 9390   3.953  10.701   6.158 -0.6985  0.0382 -0.1266
 1185SOL    HW1 9391   3.952  10.607   6.176  0.4833  0.0704  0.2028
 1185SOL    HW2 9392   3.933  10.742   6.242  0.3110  0.0954  0.1026
 1186SOL     OW 9393   2.245   0.620   7.641  0.1651  0.3817 -0.3860
 1186SOL    HW1 9394   2.332   0.661   7.636  0.4320 -0.2229 -0.7023
 1186SOL    HW2 9395   2.257   0.532   7.607  0.9810 -2.2147  5.3318
 1187SOL     OW 9396   9.279   7.992   2.960 -0.2821  0.8727 -0.2735
 1187SOL    HW1 9397   9.193   8.007   2.999  0.1845 -0.5938  1.4492
 1187SOL    HW2 9398   9.281   7.899   2.939  1.2337  0.6615  0.6492
 1188SOL     OW 9399   0.788   0.438   4.794  0.6836  0.2759 -0.2755
 1188SOL    HW1 9400   0.800   0.343   4.795  0.5649  0.1861 -2.7860
 1188SOL    HW2 9401   0.693   0.450   4.785  0.8353  0.5660 -1.6805
 1189SOL     OW 9402   7.467   1.042   7.457 -0.5187 -0.3647 -0.6120
 1189SOL    HW1 9403   7.391   1.100   7.463 -1.4842 -1.7022  1.0702
 1189SOL    HW2 9404   7.535   1.087   7.506 -1.5579 -0.9781  1.5546
 1190SOL     OW 9405   7.771   2.820   9.862  0.2210  0.0770 -0.0348
 1190SOL    HW1 9406   7.782   2.818   9.957 -0.8123 -0.2438  0.0945
 1190SOL    HW2 9407   7.832   2.887   9.832  0.7641 -0.0242  0.8270
 1191SOL     OW 9408   8.392   1.092   6.470 -0.1961 -0.4439  0.3121
 1191SOL    HW1 9409   8.395   1.078   6.375 -3.3960  2.0177 -0.3564
 1191SOL    HW2 9410   8.359   1.009   6.505 -0.6094 -0.8563 -0.9759
 1192SOL     OW 9411   5.402   2.403   7.121  0.1595 -0.3251 -0.5336
 1192SOL    HW1 9412   5.491   2.409   7.156 -0.9852  0.3283  2.5984
 1192SOL    HW2 9413   5.381   2.493   7.097 -0.2587 -0.1615  0.4276
 1193SOL     OW 9414   2.541   6.381   7.248 -0.2684 -0.2397 -0.1298
 1193SOL    HW1 9415   2.539   6.386   7.152  0.0099 -0.1315 -0.1317
 1193SOL    HW2 9416   2.449   6.374   7.274 -0.4761  1.3161 -0.3285
 1194SOL     OW 9417   1.517   5.996  10.659 -0.4442 -0.9977 -0.6997
 1194SOL    HW1 9418   1.481   6.046  10.733  2.0855  1.9741 -1.2955
 1194SOL    HW2 9419   1.484   6.042  10.582  2.7381  0.5701 -1.2592
 1195SOL     OW 9420   8.181   6.063  10.067  0.0347  0.5433  0.2953
 1195SOL    HW1 9421   8.091   6.075  10.097 -0.8998 -1.5113 -1.4132
 1195SOL    HW2 9422   8.211   5.985  10.115 -0.3325 -0.7817 -1.5151
 1196SOL     OW 9423   9.275   8.984   4.812  0.2078 -0.2732 -0.0033
 1196SOL    HW1 9424   9.281   9.032   4.895 -1.1227  0.1851 -0.1574
 1196SOL    HW2 9425   9.340   8.914   4.821 -0.7926 -1.0382  1.9741
 1197SOL     OW 9426   9.202   8.407   7.843  0.3337  0.8495  0.9150
 1197SOL    HW1 9427   9.241   8.494   7.832  1.2209  0.3347 -0.2045
 1197SOL    HW2 9428   9.239   8.355   7.771 -0.8873 -0.2099  1.0281
 1198SOL     OW 9429   7.853   3.724   9.248  0.4355  0.6170  0.5361
 1198SOL    HW1 9430   7.859   3.629   9.252 -0.5263  0.5669  0.9933
 1198SOL    HW2 9431   7.942   3.755   9.264  0.8221 -0.2074  0.0303
 1199SOL     OW 9432   2.795   4.278   4.244 -0.4331 -0.4267 -0.0305
 1199SOL    HW1 9433   2.879   4.232   4.242 -0.2880 -0.1509 -0.3034
 1199SOL    HW2 9434   2.772   4.283   4.337  0.6710  0.9845  0.1936
 1200SOL     OW 9435   7.562   1.428   6.347  0.1844  0.1209 -0.0054
 1200SOL    HW1 9436   7.608   1.346   6.362  1.7340  0.9807  0.2329
 1200SOL    HW2 9437   7.471   1.404   6.337  0.5638 -1.5850  0.4088
 1201SOL     OW 9438   6.158   9.085   7.661 -0.5319  0.1013 -0.1839
 1201SOL    HW1 9439   6.153   8.991   7.674 -1.3252  0.2034  0.2613
 1201SOL    HW2 9440   6.195   9.119   7.743  0.0564  0.1505 -0.4638
 1202SOL     OW 9441  10.830   3.111   9.065 -0.0258  0.1633  0.0177
 1202SOL    HW1 9442  10.772   3.169   9.114  0.8426  1.4809 -0.4262
 1202SOL    HW2 9443  10.834   3.151   8.977  0.1840 -0.8715 -0.4544
 1203SOL     OW 9444   0.924   7.083   2.735 -0.0155  0.0539 -0.2746
 1203SOL    HW1 9445   0.880   7.168   2.727 -0.6887 -0.4308 -2.6776
 1203SOL    HW2 9446   0.854   7.021   2.757  0.1754 -0.1357 -0.1919
 1204SOL     OW 9447   5.752   2.518   4.972 -0.5033 -0.0493  0.1464
 1204SOL    HW1 9448   5.700   2.573   5.030 -0.6217 -0.3007  0.2805
 1204SOL    HW2 9449   5.794   2.579   4.912  0.2495  0.2899  0.9914
 1205SOL     OW 9450  10.231   3.846   3.795 -0.0439  0.0420  0.1973
 1205SOL    HW1 9451  10.195   3.930   3.824 -1.4628 -0.6777  0.6421
 1205SOL    HW2 9452  10.303   3.869   3.736 -1.9637  1.6078 -1.7000
 1206SOL     OW 9453   2.046   8.555   8.266  0.0439 -0.2715  0.5035
 1206SOL    HW1 9454   1.997   8.619   8.318 -0.8671 -1.3229  0.9900
 1206SOL    HW2 9455   2.131   8.551   8.309 -0.7797 -1.3284  2.1660
 1207SOL     OW 9456   7.107   3.038   1.299  0.0498  0.0332  1.0366
 1207SOL    HW1 9457   7.133   2.971   1.236  0.1662 -0.9332  2.0688
 1207SOL    HW2 9458   7.127   3.121   1.256 -1.3140 -0.5223 -0.8225
 1208SOL     OW 9459   4.270   9.113   8.473  0.1024 -0.2833  0.2683
 1208SOL    HW1 9460   4.287   9.048   8.541  0.1799 -1.7615 -1.1159
 1208SOL    HW2 9461   4.197   9.078   8.423 -0.4702  1.1583  0.0419
 1209SOL     OW 9462   8.964   2.757   0.655  0.0068  0.2205  0.3013
 1209SOL    HW1 9463   9.005   2.705   0.586 -1.3206 -0.6033  0.1095
 1209SOL    HW2 9464   8.896   2.701   0.692 -1.1296  1.6047  0.4418
 1210SOL     OW 9465   6.667   2.011   1.706 -0.2923 -0.1193 -0.5709
 1210SOL    HW1 9466   6.705   2.080   1.761 -0.8997  0.7074 -1.1556
 1210SOL    HW2 9467   6.615   1.958   1.766 -1.3447  1.0607 -0.3848
 1211SOL     OW 9468   0.898   1.004   9.357  0.5554  0.0273  0.9030
 1211SOL    HW1 9469   0.921   1.005   9.264  0.7287 -0.6585  0.9390
 1211SOL    HW2 9470   0.830   1.071   9.365 -0.0062 -0.4369  0.1400
 1212SOL     OW 9471  10.011  10.529   4.714 -0.1628 -0.6557 -0.0039
 1212SOL    HW1 9472  10.069  10.591   4.671 -0.2088 -0.6982 -0.1288
 1212SOL    HW2 9473   9.951  10.500   4.645  0.7154 -1.8708 -0.3002
 1213SOL     OW 9474   6.431   4.956   5.803  0.5151 -0.2848 -0.2431
 1213SOL    HW1 9475   6.399   5.013   5.733  0.0386 -0.7754 -0.4335
 1213SOL    HW2 9476   6.389   4.990   5.882  1.3354  0.4941 -0.1239
 1214SOL     OW 9477   0.659   0.010   1.524 -0.1574  0.3937 -0.8784
 1214SOL    HW1 9478   0.698   0.067   1.458  2.1607 -1.7689 -1.4889
 1214SOL    HW2 9479   0.623  -0.064   1.475 -1.9127  0.5753  0.0196
 1215SOL     OW 9480   4.019   8.605   6.804 -0.2235 -0.0944 -0.4435
 1215SOL    HW1 9481   4.042   8.513   6.796  1.0130  0.1507 -0.0001
 1215SOL    HW2 9482   4.082   8.640   6.867 -1.3782  0.8245  0.2355
 1216SOL     OW 9483   5.376   9.368   3.096 -0.2991 -0.2950  0.6491
 1216SOL    HW1 9484   5.322   9.415   3.159 -1.0630  0.6598 -0.6612
 1216SOL    HW2 9485   5.461   9.413   3.099 -1.3474  2.1031 -1.4109
 1217SOL     OW 9486   8.977   5.673   6.990 -0.3622 -0.5085 -0.2239
 1217SOL    HW1 9487   8.935   5.598   7.032 -0.7119  0.5687  1.4564
 1217SOL    HW2 9488   9.059   5.683   7.037 -0.1405 -0.0711 -0.7006
 1218SOL     OW 9489   9.559   5.700   1.789  0.3322 -0.4701 -0.3149
 1218SOL    HW1 9490   9.474   5.674   1.753 -0.5004 -1.1227  1.9425
 1218SOL    HW2 9491   9.623   5.656   1.734 -0.7996 -0.4333 -1.7064
 1219SOL     OW 9492   5.490   9.294   1.757  0.3001  0.1930  0.2558
 1219SOL    HW1 9493   5.446   9.364   1.805 -2.6641 -0.0099 -1.9329
 1219SOL    HW2 9494   5.454   9.213   1.793  0.8838 -0.1027  0.1965
 1220SOL     OW 9495   1.803   7.814   2.255  0.3327 -0.2250  0.0463
 1220SOL    HW1 9496   1.785   7.904   2.228 -0.7283 -1.0176 -2.0550
 1220SOL    HW2 9497   1.883   7.821   2.308 -0.0178  1.9908  0.3948
 1221SOL     OW 9498   0.254   3.164   1.925 -0.0327 -0.0096  0.5571
 1221SOL    HW1 9499   0.295   3.162   1.839 -0.6923  2.1348  0.1214
 1221SOL    HW2 9500   0.250   3.072   1.952  0.6299 -0.6940 -1.4690
 1222SOL     OW 9501   2.441   9.181  10.132 -0.0883 -0.2833  0.2855
 1222SOL    HW1 9502   2.362   9.134  10.161 -1.3649  1.1341 -0.7207
 1222SOL    HW2 9503   2.452   9.250  10.198 -0.0107 -0.1507  0.1324
 1223SOL     OW 9504   3.154   2.422   6.948 -0.1012  0.3337  0.0140
 1223SOL    HW1 9505   3.214   2.482   6.902 -0.4287 -1.3364 -2.8845
 1223SOL    HW2 9506   3.202   2.339   6.951  0.0766  0.4490  3.3139
 1224SOL     OW 9507   6.354  10.919   8.271  0.3486 -0.0852  0.1917
 1224SOL    HW1 9508   6.369  11.002   8.226 -2.4361  0.8949  0.8460
 1224SOL    HW2 9509   6.370  10.939   8.363  1.9809 -0.9827  0.1489
 1225SOL     OW 9510   6.192   1.180   7.609  0.1271  0.0654 -0.2697
 1225SOL    HW1 9511   6.232   1.232   7.678  1.0812 -0.8835 -0.0791
 1225SOL    HW2 9512   6.236   1.095   7.615 -2.3652 -1.2773  0.3880
 1226SOL     OW 9513   3.548   8.697   8.658 -0.2330  0.5942  0.4855
 1226SOL    HW1 9514   3.642   8.685   8.650 -0.2924  1.0301 -1.2166
 1226SOL    HW2 9515   3.525   8.654   8.741  1.3041 -0.3801  0.4391
 1227SOL     OW 9516   0.268   4.076  10.438 -0.1172  0.1501  0.0712
 1227SOL    HW1 9517   0.288   4.150  10.381  0.0388  1.4603  1.7464
 1227SOL    HW2 9518   0.197   4.107  10.494 -1.4901 -1.7178 -0.5312
 1228SOL     OW 9519   0.232   9.456   7.161  0.2610 -0.2660  0.0684
 1228SOL    HW1 9520   0.273   9.490   7.081 -0.2036 -2.8392 -1.3672
 1228SOL    HW2 9521   0.306   9.431   7.217  0.5898  0.7702  0.1209
 1229SOL     OW 9522   5.942  10.722   2.913 -0.0269  0.3162  0.0422
 1229SOL    HW1 9523   5.944  10.780   2.989  0.6938 -2.3807  2.2364
 1229SOL    HW2 9524   6.030  10.729   2.875  0.2356  0.2425  0.6295
 1230SOL     OW 9525   9.858   3.601   3.472 -0.3744  0.1142  0.1416
 1230SOL    HW1 9526   9.808   3.616   3.552 -0.4333  0.4618  0.0398
 1230SOL    HW2 9527   9.857   3.685   3.427 -2.7967 -0.7748 -1.6585
 1231SOL     OW 9528   0.133   5.736   0.909 -0.2862  0.6921 -0.4468
 1231SOL    HW1 9529   0.102   5.811   0.959 -0.7134 -0.3835  0.9828
 1231SOL    HW2 9530   0.098   5.749   0.821 -0.7843  1.8977 -0.0844
 1232SOL     OW 9531   9.078   6.544   5.433 -0.3026  0.5197  0.1192
 1232SOL    HW1 9532   9.102   6.559   5.524  0.8980 -0.0161 -0.0865
 1232SOL    HW2 9533   9.120   6.461   5.410 -2.9623 -0.8516 -0.1201
 1233SOL     OW 9534   7.097   9.652   9.116 -1.2152  0.0087 -0.0324
 1233SOL    HW1 9535   7.179   9.690   9.085 -0.9971  0.0856  0.6328
 1233SOL    HW2 9536   7.032   9.681   9.052 -0.5974 -0.7323 -1.0197
 1234SOL     OW 9537   9.968   3.663   8.531  0.2059 -0.5126 -0.3619
 1234SOL    HW1 9538   9.961   3.607   8.454 -0.5873  1.6072 -1.9271
 1234SOL    HW2 9539  10.026   3.734   8.504 -3.2685  2.5480 -0.6080
 1235SOL     OW 9540   9.585   0.657   4.206 -0.2665  0.1593 -0.4286
 1235SOL    HW1 9541   9.515   0.655   4.140 -0.3321  1.5559 -0.4385
 1235SOL    HW2 9542   9.655   0.707   4.165  1.1091 -1.8920 -0.7171
 1236SOL     OW 9543   5.935   4.896   2.498  0.1560  0.4872 -0.3884
 1236SOL    HW1 9544   5.947   4.932   2.586 -2.2660 -0.9761  0.6507
 1236SOL    HW2 9545   5.937   4.801   2.511  1.3923  0.2112 -2.2240
 1237SOL     OW 9546   7.068   0.755   8.009  0.4648 -0.3669  0.0340
 1237SOL    HW1 9547   7.006   0.786   7.943  0.1607  0.0544  0.5026
 1237SOL    HW2 9548   7.153   0.785   7.978  0.5691 -1.7789 -1.1008
 1238SOL     OW 9549   2.608  10.756   2.919 -0.9000 -0.3845 -0.1681
 1238SOL    HW1 9550   2.651  10.671   2.928  0.2332  0.1576 -0.1724
 1238SOL    HW2 9551   2.597  10.767   2.824 -0.0861 -0.0910 -0.2400
 1239SOL     OW 9552   6.729   7.295   7.543  0.3486 -0.0549  0.0477
 1239SOL    HW1 9553   6.749   7.225   7.482 -0.5884 -1.4949  1.2976
 1239SOL    HW2 9554   6.634   7.289   7.555  0.5757 -0.3011  2.1348
 1240SOL     OW 9555   0.491   8.538   1.292 -0.3127 -0.0744  0.0755
 1240SOL    HW1 9556   0.463   8.535   1.383  1.6094 -0.7167  0.6929
 1240SOL    HW2 9557   0.421   8.585   1.247 -1.1562  0.5335  1.9267
 1241SOL     OW 9558   6.694   0.412  10.917  0.3263 -0.6522 -0.1501
 1241SOL    HW1 9559   6.670   0.346  10.983  0.7020 -0.0359  0.6243
 1241SOL    HW2 9560   6.720   0.361  10.841 -0.7125 -1.3808 -0.0480
 1242SOL     OW 9561   4.556   9.882   6.495  0.2266  0.0806 -0.2797
 1242SOL    HW1 9562   4.468   9.917   6.484 -0.0522 -0.8387 -1.1540
 1242SOL    HW2 9563   4.604   9.917   6.420  1.0109  1.6889  0.9072
 1243SOL     OW 9564   4.197   9.356   4.446  0.5147  0.7303  0.0796
 1243SOL    HW1 9565   4.125   9.379   4.388 -1.5992  0.0803  2.2586
 1243SOL    HW2 9566   4.228   9.439   4.482 -0.0825  0.9237  0.1497
 1244SOL     OW 9567   1.105   0.458   6.473 -0.2740  0.0561  0.2197
 1244SOL    HW1 9568   1.014   0.461   6.502 -0.6254  1.0444 -0.9125
 1244SOL    HW2 9569   1.156   0.475   6.553 -1.1974  2.5349  0.3547
 1245SOL     OW 9570   8.993   9.839   9.363 -0.0939 -1.1346 -0.4011
 1245SOL    HW1 9571   8.966   9.914   9.311  2.4480 -0.2124 -0.5588
 1245SOL    HW2 9572   8.945   9.848   9.445 -0.0170  0.5743 -0.5076
 1246SOL     OW 9573   5.642   3.660   9.480 -0.2687  1.2388 -0.1713
 1246SOL    HW1 9574   5.610   3.673   9.569 -2.0515  1.3489 -0.7876
 1246SOL    HW2 9575   5.564   3.667   9.425  0.4324 -0.9244 -1.5736
 1247SOL     OW 9576   1.310   7.935   1.663 -0.0861  0.0336  0.2977
 1247SOL    HW1 9577   1.247   7.922   1.734 -1.2587  1.7576 -0.3797
 1247SOL    HW2 9578   1.395   7.935   1.708 -0.5622 -1.5454  1.3242
 1248SOL     OW 9579  10.622  10.064   1.754 -0.8228 -0.0589  0.7551
 1248SOL    HW1 9580  10.542  10.110   1.730 -1.1535 -0.6848  0.6449
 1248SOL    HW2 9581  10.629   9.992   1.691 -1.2211 -1.1792  1.9356
 1249SOL     OW 9582   3.621   9.244   0.068 -0.0658  0.2030  0.9337
 1249SOL    HW1 9583   3.531   9.272   0.084 -0.0598  0.4509  0.5483
 1249SOL    HW2 9584   3.649   9.295  -0.008 -0.1236 -0.9915  0.0750
 1250SOL     OW 9585   4.082   2.464   2.525  0.0051 -0.0376  0.2222
 1250SOL    HW1 9586   4.123   2.437   2.607 -2.5886  1.4638  2.1730
 1250SOL    HW2 9587   4.014   2.398   2.509  1.4028 -1.1615 -1.6688
 1251SOL     OW 9588   2.616   2.248  10.706 -0.1078  0.3635 -0.1280
 1251SOL    HW1 9589   2.588   2.329  10.749  1.5229  1.2885 -0.6820
 1251SOL    HW2 9590   2.650   2.278  10.622  2.6421 -0.5557  0.5579
 1252SOL     OW 9591   3.157   8.088   2.069 -0.0030 -0.1127 -0.1720
 1252SOL    HW1 9592   3.202   8.044   1.998  0.9426  0.3915  0.0974
 1252SOL    HW2 9593   3.212   8.073   2.146 -1.3060 -1.1573  0.6060
 1253SOL     OW 9594   4.900   9.910   9.228 -0.3639 -0.5640 -0.3415
 1253SOL    HW1 9595   4.854   9.828   9.213  0.3154 -0.4496 -4.0384
 1253SOL    HW2 9596   4.993   9.885   9.233 -0.2201 -0.1157 -0.6708
 1254SOL     OW 9597   2.185   6.239   3.115 -0.0434 -0.1510 -0.0382
 1254SOL    HW1 9598   2.205   6.195   3.198  1.0828  1.0508  0.3771
 1254SOL    HW2 9599   2.160   6.169   3.056  1.7325 -1.3891  0.5685
 1255SOL     OW 9600   5.877   7.544   8.445 -0.0552  0.3017  0.7091
 1255SOL    HW1 9601   5.877   7.491   8.366  1.6030 -1.4722  1.8136
 1255SOL    HW2 9602   5.817   7.498   8.505 -0.3111  0.9156  0.9344
 1256SOL     OW 9603  10.899   2.047   5.727 -0.2004  0.2042  0.1386
 1256SOL    HW1 9604  10.914   2.141   5.740 -0.4033 -0.0478  2.6877
 1256SOL    HW2 9605  10.876   2.014   5.814  0.7579 -2.3792 -0.4918
 1257SOL     OW 9606   2.964   2.548   7.137 -0.0910  0.2116 -0.2453
 1257SOL    HW1 9607   3.040   2.515   7.089  0.1918  2.7961 -1.7547
 1257SOL    HW2 9608   2.969   2.504   7.222  1.7529 -1.4274 -1.1111
 1258SOL     OW 9609   0.604   1.097   8.903  0.2099 -0.1057  0.2882
 1258SOL    HW1 9610   0.633   1.008   8.921 -0.4069 -0.9422 -2.3968
 1258SOL    HW2 9611   0.656   1.152   8.962  1.2810 -2.1325  1.3296
 1259SOL     OW 9612   8.026   7.016   2.290 -0.1088  0.4805  0.0526
 1259SOL    HW1 9613   8.021   6.967   2.208  1.3511 -0.2875  0.3929
 1259SOL    HW2 9614   7.950   7.074   2.287  0.6538  1.5245 -2.5102
 1260SOL     OW 9615   1.428   2.533   0.108  0.1231  0.7096 -0.2687
 1260SOL    HW1 9616   1.515   2.507   0.140 -0.0683  0.5209  0.0998
 1260SOL    HW2 9617   1.439   2.625   0.083  0.2815  0.8572  0.3242
 1261SOL     OW 9618  10.120   2.179   6.581 -0.6227 -0.3867 -0.0345
 1261SOL    HW1 9619  10.042   2.221   6.617 -0.1271 -0.5231  1.2608
 1261SOL    HW2 9620  10.137   2.106   6.640  1.0485  0.2384  0.3029
 1262SOL     OW 9621   9.856   0.588   0.485 -0.0404 -0.5062  0.4831
 1262SOL    HW1 9622   9.908   0.665   0.462  0.9091 -0.6082  2.1287
 1262SOL    HW2 9623   9.805   0.569   0.407  2.9088 -0.7963 -1.5522
 1263SOL     OW 9624   3.503   4.066   9.383 -0.1178 -0.4573  0.2532
 1263SOL    HW1 9625   3.419   4.106   9.362  0.1139  0.0395  0.2435
 1263SOL    HW2 9626   3.557   4.138   9.416  0.0720 -0.9065  0.9576
 1264SOL     OW 9627   3.626   5.153   6.127 -0.3391  1.1539  0.8128
 1264SOL    HW1 9628   3.705   5.198   6.157  0.9021 -1.1977  1.2344
 1264SOL    HW2 9629   3.634   5.152   6.032  0.6456  0.1240  0.8882
 1265SOL     OW 9630   2.835   7.730   6.424  0.2093 -0.2732 -0.3448
 1265SOL    HW1 9631   2.742   7.719   6.443  0.2756 -0.0751  0.0970
 1265SOL    HW2 9632   2.879   7.667   6.481  0.4323  0.5545  0.4078
 1266SOL     OW 9633   1.177   0.489   9.181 -0.0318 -0.0351  0.4998
 1266SOL    HW1 9634   1.095   0.506   9.227 -1.2087 -0.4434 -1.3502
 1266SOL    HW2 9635   1.168   0.536   9.098  1.0986 -1.0626 -0.2314
 1267SOL     OW 9636   7.177   7.750   5.212  0.2021  0.2241  0.1322
 1267SOL    HW1 9637   7.250   7.748   5.149 -0.7097  0.5907 -0.9595
 1267SOL    HW2 9638   7.108   7.799   5.168 -0.9629 -0.6781  0.8829
 1268SOL     OW 9639   6.995   0.611   2.828  0.0026 -0.4362 -0.3026
 1268SOL    HW1 9640   7.020   0.699   2.801 -2.1892  0.3752  0.1045
 1268SOL    HW2 9641   7.026   0.554   2.758  0.1962  0.8430 -1.2844
 1269SOL     OW 9642   7.877   1.396   7.041 -0.7066  0.4022  0.6916
 1269SOL    HW1 9643   7.913   1.422   6.956  1.2293  0.5265  1.4959
 1269SOL    HW2 9644   7.865   1.479   7.088  1.1294  0.2108  1.5969
 1270SOL     OW 9645   3.604   9.500   6.446 -0.0359 -0.5317  0.0107
 1270SOL    HW1 9646   3.548   9.437   6.401  0.3865  0.2359 -1.6486
 1270SOL    HW2 9647   3.619   9.460   6.532 -0.7778 -2.1051 -0.5418
 1271SOL     OW 9648   5.726   6.375   2.892  0.5501 -0.3141  0.3230
 1271SOL    HW1 9649   5.736   6.321   2.970  1.0949 -0.2228  0.3168
 1271SOL    HW2 9650   5.801   6.352   2.837  0.6072  0.2049  0.1786
 1272SOL     OW 9651   9.290   9.029   5.909  0.3282  0.2865 -0.6967
 1272SOL    HW1 9652   9.331   8.943   5.900  0.3146  0.0605  1.0991
 1272SOL    HW2 9653   9.335   9.070   5.983  0.2855  1.8186 -1.4801
 1273SOL     OW 9654   5.102   2.662   1.706  0.1289  0.5756 -0.2460
 1273SOL    HW1 9655   5.096   2.587   1.648 -0.2621  1.5796 -1.5368
 1273SOL    HW2 9656   5.012   2.681   1.732  0.1754  0.9075 -0.3247
 1274SOL     OW 9657   1.368   1.949   9.016  0.2697 -0.5172 -0.4729
 1274SOL    HW1 9658   1.341   1.859   9.032  1.4025 -0.5545  1.6277
 1274SOL    HW2 9659   1.286   1.998   9.006 -0.3677 -1.6436 -0.8761
 1275SOL     OW 9660   9.294   0.017   3.026  0.4680  0.6232 -0.1104
 1275SOL    HW1 9661   9.346  -0.010   2.951 -0.7734 -1.2315 -0.3553
 1275SOL    HW2 9662   9.287  -0.062   3.080  0.4184  1.6295  1.4128
 1276SOL     OW 9663   9.134   5.419   2.560  0.3688  0.0537 -0.8162
 1276SOL    HW1 9664   9.131   5.463   2.476  0.9133  0.2051 -0.7561
 1276SOL    HW2 9665   9.088   5.479   2.620  2.1187  1.1198 -0.4796
 1277SOL     OW 9666   7.317   6.631   6.592  0.3537  0.0668 -0.3793
 1277SOL    HW1 9667   7.244   6.668   6.642 -0.4720 -1.9111 -0.0096
 1277SOL    HW2 9668   7.376   6.595   6.658 -0.8862 -2.8251 -0.7117
 1278SOL     OW 9669   4.483   8.173  10.838  0.0755  0.1296  0.2296
 1278SOL    HW1 9670   4.546   8.168  10.910 -1.5964  1.1421  1.8393
 1278SOL    HW2 9671   4.398   8.154  10.877 -0.6255 -2.0245 -2.0470
 1279SOL     OW 9672   0.047  10.245   3.956 -0.4391 -0.3604  0.7413
 1279SOL    HW1 9673   0.083  10.175   3.902  1.0600 -1.1304  2.6252
 1279SOL    HW2 9674   0.077  10.225   4.044 -1.7867  1.4987  1.6912
 1280SOL     OW 9675   3.231   2.133   8.556 -0.1991  0.2258  0.9987
 1280SOL    HW1 9676   3.277   2.050   8.542  0.4659  0.8624 -1.0239
 1280SOL    HW2 9677   3.206   2.161   8.468 -0.9397  1.8816  1.6970
 1281SOL     OW 9678   5.344  10.339   2.792  0.2922 -0.1220 -0.0969
 1281SOL    HW1 9679   5.353  10.250   2.827  0.9026 -0.4309 -0.9937
 1281SOL    HW2 9680   5.255  10.365   2.815  0.5798 -0.4116  1.4082
 1282SOL     OW 9681   4.135   0.887   0.078  0.4690  0.4520 -0.6148
 1282SOL    HW1 9682   4.162   0.814   0.023  0.7693  1.7201 -2.2397
 1282SOL    HW2 9683   4.041   0.877   0.089  0.7428 -1.1045  0.6662
 1283SOL     OW 9684   2.836   7.206   8.129 -0.3722  0.1577  0.5640
 1283SOL    HW1 9685   2.798   7.120   8.149  0.0144 -0.1883 -0.1683
 1283SOL    HW2 9686   2.832   7.213   8.034 -0.3610  0.9384  0.6134
 1284SOL     OW 9687   2.930   0.638   9.358  0.2171 -0.2151  0.0502
 1284SOL    HW1 9688   2.923   0.546   9.383 -1.5887  0.0866  0.8175
 1284SOL    HW2 9689   2.940   0.685   9.441  0.7373  0.3230 -0.3072
 1285SOL     OW 9690   6.648   4.991   2.626  0.5520 -0.5603 -0.0644
 1285SOL    HW1 9691   6.564   4.946   2.614 -0.4591  1.6790 -2.4306
 1285SOL    HW2 9692   6.707   4.949   2.563  1.4199 -2.3576  1.8282
 1286SOL     OW 9693   3.705   6.383   3.020  0.7807 -0.3070 -0.1878
 1286SOL    HW1 9694   3.776   6.405   2.960  0.5957 -0.5226 -0.4907
 1286SOL    HW2 9695   3.640   6.339   2.965  1.1734 -1.6975  0.4171
 1287SOL     OW 9696   8.764   5.464   0.850 -0.5417  0.0960 -0.0032
 1287SOL    HW1 9697   8.796   5.391   0.797 -0.8525  1.3817 -2.0685
 1287SOL    HW2 9698   8.810   5.455   0.933  0.9007 -1.3024 -0.8951
 1288SOL     OW 9699  10.468   1.952   8.212 -0.1359 -0.2733  0.1322
 1288SOL    HW1 9700  10.520   1.871   8.211  0.1853 -0.1013 -1.5189
 1288SOL    HW2 9701  10.381   1.924   8.184 -0.2722 -0.1845  0.4701
 1289SOL     OW 9702   6.072   7.357   0.199  0.0385  0.3433 -0.3127
 1289SOL    HW1 9703   6.167   7.354   0.185  0.6899 -0.0554  3.2232
 1289SOL    HW2 9704   6.063   7.381   0.291 -3.2828 -1.2162 -0.1263
 1290SOL     OW 9705   1.557  10.500   6.911 -0.0766  0.0412  0.5923
 1290SOL    HW1 9706   1.535  10.548   6.830 -0.5587  1.0985  1.3287
 1290SOL    HW2 9707   1.649  10.476   6.900 -0.6239 -1.5345 -1.0996
 1291SOL     OW 9708   7.998   6.739   8.824 -0.3441 -0.3825  0.3147
 1291SOL    HW1 9709   7.947   6.776   8.896 -0.7617 -0.5109  0.0850
 1291SOL    HW2 9710   7.954   6.657   8.802  0.3429 -0.8239  0.5464
 1292SOL     OW 9711   6.851  10.773   2.620 -0.2287 -0.0220  0.1107
 1292SOL    HW1 9712   6.903  10.696   2.642  0.0854  0.0525 -0.3670
 1292SOL    HW2 9713   6.893  10.845   2.667 -1.8119 -0.4587  2.3949
 1293SOL     OW 9714   5.318   7.501   4.404  0.0336 -0.7408  0.4715
 1293SOL    HW1 9715   5.327   7.533   4.314 -1.5433 -0.5478  0.3427
 1293SOL    HW2 9716   5.283   7.412   4.394 -2.3402  0.0613  0.8492
 1294SOL     OW 9717   2.953   7.010   6.804 -0.0588 -0.3301 -0.0687
 1294SOL    HW1 9718   2.926   7.030   6.894 -0.7936  1.5279 -0.6620
 1294SOL    HW2 9719   2.972   7.095   6.764  1.0279 -1.1690 -1.4636
 1295SOL     OW 9720   3.252   6.882   5.232 -0.4501 -0.1960  0.4620
 1295SOL    HW1 9721   3.317   6.877   5.302 -1.9775 -1.6857  1.8682
 1295SOL    HW2 9722   3.174   6.842   5.269 -1.7283  0.1530 -1.6870
 1296SOL     OW 9723   2.146   9.845   9.104 -0.0025 -0.4895 -0.3837
 1296SOL    HW1 9724   2.120   9.796   9.182 -0.4857 -1.0023 -0.8631
 1296SOL    HW2 9725   2.063   9.876   9.067  0.2092 -0.4391 -0.8190
 1297SOL     OW 9726   8.465   3.557   8.353  0.0426 -0.1967 -0.0920
 1297SOL    HW1 9727   8.522   3.604   8.414 -0.9798  1.6541 -0.4806
 1297SOL    HW2 9728   8.384   3.542   8.402  0.7204 -2.6574  0.4027
 1298SOL     OW 9729   9.883   9.118   8.719 -0.0824  0.2525 -0.5359
 1298SOL    HW1 9730   9.839   9.036   8.741 -0.3274 -0.0925 -2.1685
 1298SOL    HW2 9731   9.931   9.142   8.798  0.7199 -1.9349 -0.2914
 1299SOL     OW 9732  10.460   3.131   1.273  0.0258 -0.1032 -0.4240
 1299SOL    HW1 9733  10.457   3.083   1.190 -1.8528  0.8250 -0.9464
 1299SOL    HW2 9734  10.451   3.223   1.248  1.9787  0.4384  0.6716
 1300SOL     OW 9735   8.728   0.927   1.702  0.1425 -0.6845  0.3307
 1300SOL    HW1 9736   8.801   0.866   1.716  2.2768  1.5196 -0.3475
 1300SOL    HW2 9737   8.708   0.959   1.790  1.9065  0.6290  0.3254
 1301SOL     OW 9738   0.904   3.186   7.190  0.0973 -0.1908  0.2698
 1301SOL    HW1 9739   0.935   3.123   7.125 -0.5335  0.9265 -1.1485
 1301SOL    HW2 9740   0.904   3.136   7.272  1.6486 -1.4176 -0.4036
 1302SOL     OW 9741   6.239   5.742  10.081  0.6921 -0.5397  0.3122
 1302SOL    HW1 9742   6.190   5.672  10.038  0.8939 -0.8409  0.5611
 1302SOL    HW2 9743   6.320   5.700  10.111  0.9527 -0.1267  0.1966
 1303SOL     OW 9744   5.375   9.193  10.273 -0.1360  0.1813  0.4107
 1303SOL    HW1 9745   5.352   9.265  10.215 -0.4097  0.9952  1.4995
 1303SOL    HW2 9746   5.463   9.214  10.304 -0.6488  0.6386  1.5954
 1304SOL     OW 9747   9.959   0.314   3.688 -0.2711 -0.6231 -0.1145
 1304SOL    HW1 9748  10.003   0.232   3.664 -0.3743 -0.1626 -2.1151
 1304SOL    HW2 9749  10.021   0.382   3.661 -0.9675 -0.0207 -0.2117
 1305SOL     OW 9750   9.656   1.542   4.311  0.3170  0.1680 -0.6500
 1305SOL    HW1 9751   9.638   1.457   4.351  0.9852  0.8750  1.2686
 1305SOL    HW2 9752   9.731   1.526   4.254  1.3147 -0.2819  0.7469
 1306SOL     OW 9753   3.889   9.541   8.343  0.6715  0.0627  0.3350
 1306SOL    HW1 9754   3.820   9.474   8.338  0.1544  0.6013  0.2069
 1306SOL    HW2 9755   3.890   9.566   8.435 -1.2464  2.0532 -0.1239
 1307SOL     OW 9756   8.562   9.395   9.927 -0.2289  0.1490  0.0505
 1307SOL    HW1 9757   8.510   9.412  10.006  0.4457  0.1609  0.5012
 1307SOL    HW2 9758   8.508   9.337   9.874 -0.9472  0.6242  0.2449
 1308SOL     OW 9759   7.094   2.514   4.415  0.0105  0.2246  0.0873
 1308SOL    HW1 9760   7.100   2.600   4.456 -1.9371  0.9544 -1.0084
 1308SOL    HW2 9761   7.061   2.532   4.327 -0.2867 -1.6274 -0.2250
 1309SOL     OW 9762   2.282   4.936   8.412  0.0264  0.0631 -1.1549
 1309SOL    HW1 9763   2.299   4.847   8.445 -1.2231  0.0237 -0.5460
 1309SOL    HW2 9764   2.206   4.926   8.355  1.5849  0.2989 -3.3926
 1310SOL     OW 9765   0.738   5.170   4.044  0.1206  0.1274 -0.0537
 1310SOL    HW1 9766   0.750   5.221   3.964  1.2189 -1.0369 -0.6572
 1310SOL    HW2 9767   0.813   5.111   4.047 -0.3244 -0.4163  1.4197
 1311SOL     OW 9768   8.346   5.240   1.480 -0.0436 -0.1339  0.3817
 1311SOL    HW1 9769   8.326   5.182   1.407 -0.6028 -0.1018  0.5049
 1311SOL    HW2 9770   8.267   5.293   1.491  0.4037  0.5496  0.3651
 1312SOL     OW 9771   4.329   2.282   0.294  0.1516  0.4828 -0.1590
 1312SOL    HW1 9772   4.360   2.217   0.358  1.7121  0.7232 -0.6206
 1312SOL    HW2 9773   4.406   2.300   0.240 -1.0402  0.5189 -1.9218
 1313SOL     OW 9774   0.744   0.475   7.153 -0.0288 -0.2545  0.1163
 1313SOL    HW1 9775   0.811   0.454   7.088 -0.6782  0.3619 -0.7836
 1313SOL    HW2 9776   0.792   0.485   7.235  1.0135  0.3595 -0.5508
 1314SOL     OW 9777   2.925   3.287   8.378 -0.1696  0.3029  0.0040
 1314SOL    HW1 9778   2.856   3.221   8.384 -1.2861  1.5021  1.2425
 1314SOL    HW2 9779   2.979   3.273   8.456 -1.5264  1.9430  1.3360
 1315SOL     OW 9780   6.477   3.307   4.245 -0.0391 -0.0470  0.0203
 1315SOL    HW1 9781   6.481   3.392   4.202  0.5255  0.1967  0.5390
 1315SOL    HW2 9782   6.386   3.298   4.273 -0.1074  0.3662 -0.0674
 1316SOL     OW 9783   0.492   4.631   2.264 -0.1473  0.2838 -0.6519
 1316SOL    HW1 9784   0.430   4.661   2.198 -2.1616 -0.5021  0.7943
 1316SOL    HW2 9785   0.442   4.571   2.319  1.6225  0.3917  1.2108
 1317SOL     OW 9786   4.905   0.120   1.341 -0.0752  0.4577  0.0777
 1317SOL    HW1 9787   4.850   0.176   1.395 -0.6628  0.6235 -0.6829
 1317SOL    HW2 9788   4.843   0.066   1.292  0.4597  0.0239 -0.1263
 1318SOL     OW 9789   9.330   9.157   2.037 -0.3558 -0.6148 -0.1691
 1318SOL    HW1 9790   9.384   9.235   2.049 -0.4362 -0.4250 -1.0109
 1318SOL    HW2 9791   9.281   9.149   2.119 -0.3347  0.2093 -0.0678
 1319SOL     OW 9792   5.646   7.276   6.141  0.1130  0.0224 -0.1609
 1319SOL    HW1 9793   5.709   7.328   6.191 -1.8814  1.0444  1.4403
 1319SOL    HW2 9794   5.595   7.341   6.093 -0.4899 -0.6787 -0.4836
 1320SOL     OW 9795   6.735   6.873   5.719  0.3742 -0.0635  0.0945
 1320SOL    HW1 9796   6.802   6.806   5.735 -0.3138 -0.6649  0.5236
 1320SOL    HW2 9797   6.728   6.919   5.803  1.1629  0.8557 -0.3277
 1321SOL     OW 9798   0.738   0.851   7.219 -0.2039 -0.1077 -0.4767
 1321SOL    HW1 9799   0.692   0.935   7.215 -0.0209  0.2223  2.3205
 1321SOL    HW2 9800   0.676   0.788   7.181 -1.4843  0.8763 -0.0959
 1322SOL     OW 9801   3.362   8.307  10.386  0.1841 -0.7065 -0.0886
 1322SOL    HW1 9802   3.455   8.298  10.367  0.0799 -0.7718 -0.5873
 1322SOL    HW2 9803   3.356   8.381  10.446  0.7533 -1.9563  1.5744
 1323SOL     OW 9804   2.597   3.123   4.362 -0.2855  0.4647  0.1768
 1323SOL    HW1 9805   2.566   3.181   4.433  1.5126  0.9304  0.6407
 1323SOL    HW2 9806   2.687   3.102   4.387 -0.3488 -1.1739 -0.8777
 1324SOL     OW 9807   5.097   8.775   5.727 -0.0074  0.2367 -0.0699
 1324SOL    HW1 9808   5.118   8.800   5.637  0.8769 -0.3637 -0.0438
 1324SOL    HW2 9809   5.176   8.797   5.777  0.0404 -0.7232  0.3003
 1325SOL     OW 9810   0.814   3.699   1.784  0.4793  0.0179 -0.4456
 1325SOL    HW1 9811   0.748   3.709   1.854  1.4533 -2.1410  0.8719
 1325SOL    HW2 9812   0.763   3.678   1.706 -0.4475 -1.4066  0.5015
 1326SOL     OW 9813   6.258   4.623   7.481 -0.2988 -0.6207  0.0702
 1326SOL    HW1 9814   6.258   4.651   7.573  0.4813 -0.8730  0.1557
 1326SOL    HW2 9815   6.225   4.533   7.483  1.8224 -1.4531  0.4004
 1327SOL     OW 9816   4.146   6.957   2.472  0.0677 -0.2723  0.1295
 1327SOL    HW1 9817   4.218   6.908   2.434  1.8857  0.2708  2.6212
 1327SOL    HW2 9818   4.136   7.034   2.416  2.7246  0.5841  0.7152
 1328SOL     OW 9819   0.098   6.601   0.838 -1.4134 -0.5051 -0.0662
 1328SOL    HW1 9820   0.060   6.672   0.890 -0.7141  0.3441 -0.6871
 1328SOL    HW2 9821   0.126   6.536   0.903 -1.3353  0.1499  0.5687
 1329SOL     OW 9822   5.073   9.725   6.828  0.9624  0.3930  0.0487
 1329SOL    HW1 9823   5.028   9.705   6.746 -1.0229 -0.1711  1.1989
 1329SOL    HW2 9824   5.010   9.777   6.878  1.3710 -0.7659  1.9066
 1330SOL     OW 9825   8.278   8.008   5.634  0.5269  0.3524 -0.3019
 1330SOL    HW1 9826   8.324   8.054   5.704 -1.0639  3.7181 -1.2389
 1330SOL    HW2 9827   8.266   8.074   5.566 -3.2273 -1.0141 -1.2060
 1331SOL     OW 9828   3.807   1.330   4.237  0.1711  0.1461  0.2610
 1331SOL    HW1 9829   3.882   1.273   4.253  0.7864  0.7992 -0.2204
 1331SOL    HW2 9830   3.776   1.306   4.150  0.1947  0.2706  0.2171
 1332SOL     OW 9831   6.405   9.216   6.500 -0.0680 -0.1845 -0.0986
 1332SOL    HW1 9832   6.410   9.256   6.414  0.4844 -0.4315 -0.1827
 1332SOL    HW2 9833   6.495   9.212   6.530 -0.2053 -0.5949  0.2678
 1333SOL     OW 9834   6.742  10.086   7.210  0.3526  0.1874  0.1983
 1333SOL    HW1 9835   6.798  10.061   7.138  0.3874  1.5555 -0.2875
 1333SOL    HW2 9836   6.771  10.174   7.234  0.5778 -0.3562  2.1202
 1334SOL     OW 9837   7.682   4.534   1.309  0.8910  0.4363 -0.0606
 1334SOL    HW1 9838   7.749   4.472   1.280  1.7018  1.0457  0.4348
 1334SOL    HW2 9839   7.708   4.557   1.398  0.7127  1.5906 -0.2823
 1335SOL     OW 9840   3.769   0.131   3.162 -0.2208  0.1749 -0.3169
 1335SOL    HW1 9841   3.828   0.165   3.230  0.0604 -2.1961  0.7369
 1335SOL    HW2 9842   3.684   0.170   3.182 -0.0667 -0.2216  1.2472
 1336SOL     OW 9843   6.223   7.236   0.965  0.3022 -0.0861  0.0603
 1336SOL    HW1 9844   6.251   7.161   0.914  0.2662  0.1517 -0.3134
 1336SOL    HW2 9845   6.302   7.290   0.974  0.8374 -1.0760  1.9826
 1337SOL     OW 9846   9.224   6.485  10.358  0.2245 -0.7142  0.0668
 1337SOL    HW1 9847   9.152   6.547  10.348  1.1130  0.3903  0.2414
 1337SOL    HW2 9848   9.211   6.445  10.444 -0.5875 -1.0866 -0.2242
 1338SOL     OW 9849   8.826   6.765   1.052 -0.2680 -0.4123  0.3621
 1338SOL    HW1 9850   8.899   6.801   1.103  1.7617 -0.1201 -2.5247
 1338SOL    HW2 9851   8.847   6.673   1.041 -2.3924 -1.2927  2.6356
 1339SOL     OW 9852   9.721  10.069   8.375  0.0370  0.2746  0.1138
 1339SOL    HW1 9853   9.737  10.152   8.421 -0.6860 -0.0525  0.9842
 1339SOL    HW2 9854   9.629  10.049   8.394  0.0045 -0.3792 -0.6759
 1340SOL     OW 9855   0.607   2.190   5.404  0.0746  0.5400 -1.1351
 1340SOL    HW1 9856   0.580   2.183   5.496 -1.2708 -0.6474 -1.5788
 1340SOL    HW2 9857   0.664   2.115   5.390 -1.8002 -0.8091 -1.8957
 1341SOL     OW 9858  10.732   1.165  10.086  0.6306  0.2292 -0.6848
 1341SOL    HW1 9859  10.650   1.150  10.039  1.6139  0.0178 -2.4289
 1341SOL    HW2 9860  10.768   1.244  10.047  2.9584 -1.6169 -2.5723
 1342SOL     OW 9861   2.322   6.761   7.220  0.0671 -0.0875  0.1818
 1342SOL    HW1 9862   2.270   6.794   7.147 -2.1315  0.4164  1.8927
 1342SOL    HW2 9863   2.366   6.683   7.184 -2.1225 -0.7345 -1.2716
 1343SOL     OW 9864   6.814   7.097   5.516 -0.4480  0.1509  0.1275
 1343SOL    HW1 9865   6.789   7.021   5.464 -1.9905 -1.1462  2.5897
 1343SOL    HW2 9866   6.740   7.158   5.509 -0.8192 -0.1841  1.0511
 1344SOL     OW 9867   8.702   4.837   9.441  0.0314  0.6511 -0.0839
 1344SOL    HW1 9868   8.618   4.832   9.396 -0.0208  2.1315 -0.2336
 1344SOL    HW2 9869   8.726   4.930   9.435  1.3250  0.3865  0.5918
 1345SOL     OW 9870   3.986   9.247   8.507  0.5086 -0.3861 -0.0716
 1345SOL    HW1 9871   3.909   9.278   8.555  1.9287 -1.1691  2.9214
 1345SOL    HW2 9872   4.026   9.327   8.473 -0.6201  0.2014 -0.0756
 1346SOL     OW 9873   8.099   5.288   0.590 -0.1156 -0.1705 -0.2030
 1346SOL    HW1 9874   8.104   5.289   0.686  0.0512  1.5341 -0.2025
 1346SOL    HW2 9875   8.020   5.336   0.569  0.3764  0.3415 -0.9369
 1347SOL     OW 9876   7.620   0.285   7.410  0.3911 -0.1836  0.0466
 1347SOL    HW1 9877   7.601   0.236   7.329 -2.7403 -0.8814  1.0459
 1347SOL    HW2 9878   7.641   0.217   7.474 -2.3827 -0.2534  1.0334
 1348SOL     OW 9879   7.200   7.532   3.409  0.0372 -0.2576 -0.0370
 1348SOL    HW1 9880   7.288   7.565   3.393  0.1736 -0.3303  0.5455
 1348SOL    HW2 9881   7.154   7.605   3.450  1.1728 -1.5408  4.0184
 1349SOL     OW 9882   3.346   4.558   7.694 -0.2908  0.3644  0.4022
 1349SOL    HW1 9883   3.334   4.645   7.731  0.3735 -0.1301  1.8319
 1349SOL    HW2 9884   3.353   4.500   7.769  3.4632 -0.3957 -0.3186
 1350SOL     OW 9885  10.676   2.800   1.996 -0.1880  0.4828 -0.2465
 1350SOL    HW1 9886  10.598   2.747   2.014 -1.8468  2.3684 -1.5461
 1350SOL    HW2 9887  10.735   2.740   1.950 -0.0395 -1.4790  2.2154
 1351SOL     OW 9888   9.491   6.994   1.922  0.3701 -0.3774  0.0691
 1351SOL    HW1 9889   9.440   7.010   2.001 -1.5673 -0.4577 -1.1085
 1351SOL    HW2 9890   9.445   6.922   1.878  0.1716  0.9907 -2.1076
 1352SOL     OW 9891   1.370   1.987   2.212 -0.1084 -0.4672 -0.7006
 1352SOL    HW1 9892   1.389   2.016   2.122 -0.5354 -0.4959 -0.8037
 1352SOL    HW2 9893   1.417   1.904   2.221  1.2675  0.3081 -0.3484
 1353SOL     OW 9894   2.461   3.940   1.085 -0.0479  0.2529 -0.2814
 1353SOL    HW1 9895   2.509   3.889   1.020  1.0652  3.7695 -2.5215
 1353SOL    HW2 9896   2.516   3.938   1.163  0.4393 -1.0543 -0.6334
 1354SOL     OW 9897   9.259   0.313   7.907  0.0916 -0.1523 -0.0801
 1354SOL    HW1 9898   9.262   0.390   7.851  0.1454 -0.3346 -0.3332
 1354SOL    HW2 9899   9.204   0.251   7.858 -1.0149  0.1781  0.6953
 1355SOL     OW 9900   4.851   7.754   8.931  0.2967  0.0896  0.6826
 1355SOL    HW1 9901   4.813   7.793   9.010  0.2757  1.8084 -0.1234
 1355SOL    HW2 9902   4.912   7.688   8.964 -1.1604 -0.6265  2.0748
 1356SOL     OW 9903  10.240   5.912   8.089  0.0671  0.6932  0.2877
 1356SOL    HW1 9904  10.281   5.834   8.127  1.8786  2.0530  1.2762
 1356SOL    HW2 9905  10.311   5.975   8.082 -0.9071  1.6370 -2.3845
 1357SOL     OW 9906   1.095   3.197   1.179 -0.0305 -0.4158 -0.0929
 1357SOL    HW1 9907   1.105   3.133   1.250  1.3937 -0.7828 -0.5706
 1357SOL    HW2 9908   1.184   3.208   1.145 -0.6469 -0.1166 -1.6994
 1358SOL     OW 9909   4.182  10.520   4.627 -0.2816  0.0751 -0.3123
 1358SOL    HW1 9910   4.094  10.489   4.648  0.6699 -2.0250  1.0360
 1358SOL    HW2 9911   4.232  10.439   4.612  1.5948  1.1540 -0.1773
 1359SOL     OW 9912   5.271   2.420   5.299  1.2166 -0.0646 -1.1108
 1359SOL    HW1 9913   5.270   2.333   5.337  0.0741  0.0228 -0.8983
 1359SOL    HW2 9914   5.211   2.415   5.225 -1.1399  1.2187  0.5662
 1360SOL     OW 9915   8.380   4.901   2.480  0.0116  1.0648 -0.6352
 1360SOL    HW1 9916   8.400   4.868   2.392  1.2279 -0.5977  0.2112
 1360SOL    HW2 9917   8.455   4.955   2.503  1.0862 -0.7691  0.4177
 1361SOL     OW 9918   3.882   3.064   7.257 -0.6138 -0.0749 -0.4920
 1361SOL    HW1 9919   3.801   3.026   7.290 -1.3852  0.8567 -1.2471
 1361SOL    HW2 9920   3.905   3.132   7.320  0.3425 -1.2179  0.4414
 1362SOL     OW 9921   0.960   2.221   6.549  0.2628 -0.0757 -0.4524
 1362SOL    HW1 9922   1.040   2.178   6.579  1.2761  0.4329 -2.3020
 1362SOL    HW2 9923   0.989   2.307   6.518 -0.5274 -0.8045 -3.5072
 1363SOL     OW 9924   6.453   5.541   1.757  0.8742 -0.0730 -0.2741
 1363SOL    HW1 9925   6.385   5.511   1.817  0.2399 -0.9074 -1.3866
 1363SOL    HW2 9926   6.410   5.607   1.703  1.3182  0.3365 -0.1374
 1364SOL     OW 9927   2.714   5.371  10.773 -0.4114  0.1213  0.4891
 1364SOL    HW1 9928   2.642   5.419  10.812 -1.1551 -0.7232  0.2076
 1364SOL    HW2 9929   2.778   5.362  10.843 -1.9249 -1.8008  1.7478
 1365SOL     OW 9930   8.571   8.771   3.247  0.5098  0.0635 -0.1740
 1365SOL    HW1 9931   8.654   8.807   3.215  0.3261 -0.6543 -1.5247
 1365SOL    HW2 9932   8.578   8.677   3.231 -0.9936  0.1207 -1.3497
 1366SOL     OW 9933   2.020   5.804   4.450 -0.3872  0.5557 -0.0442
 1366SOL    HW1 9934   2.054   5.859   4.521 -1.1428 -0.0522  0.8083
 1366SOL    HW2 9935   1.970   5.864   4.395 -0.7279  0.8424  0.5632
 1367SOL     OW 9936   2.786   7.924   5.336 -0.1382  0.2227 -0.0759
 1367SOL    HW1 9937   2.797   7.846   5.390 -0.5556 -0.5320 -1.0570
 1367SOL    HW2 9938   2.831   7.993   5.385 -2.1575  0.0574  2.2345
 1368SOL     OW 9939   6.718   7.277   4.284  0.0190 -0.0300 -0.1180
 1368SOL    HW1 9940   6.709   7.182   4.282  0.6942 -0.1044  0.0659
 1368SOL    HW2 9941   6.644   7.310   4.233 -0.4792 -0.6339  0.2040
 1369SOL     OW 9942  10.451   8.102   6.103  0.1128  0.3073  0.0993
 1369SOL    HW1 9943  10.478   8.063   6.019 -1.8705  0.5863 -0.7308
 1369SOL    HW2 9944  10.518   8.168   6.121 -0.8873  2.3713 -2.8580
 1370SOL     OW 9945   4.214   9.306   3.046  0.0220 -0.0955 -0.1835
 1370SOL    HW1 9946   4.179   9.345   3.125  1.4983  2.1189 -0.5341
 1370SOL    HW2 9947   4.149   9.326   2.978 -0.1767 -0.0057  0.0317
 1371SOL     OW 9948   3.084   1.121   0.611  0.0865  0.4682  0.4705
 1371SOL    HW1 9949   3.000   1.165   0.598  1.2211  2.4888 -0.5373
 1371SOL    HW2 9950   3.107   1.088   0.524  2.0158  3.2694 -0.2177
 1372SOL     OW 9951   2.253   7.431   2.317  0.1093 -0.0311 -0.2055
 1372SOL    HW1 9952   2.194   7.505   2.329  0.9627  0.5362  0.7305
 1372SOL    HW2 9953   2.305   7.455   2.240 -2.3853 -1.6230 -2.5640
 1373SOL     OW 9954   0.629   5.690   0.360  0.1099  0.6371  0.2874
 1373SOL    HW1 9955   0.558   5.738   0.317  0.9257  1.0864 -0.5844
 1373SOL    HW2 9956   0.659   5.749   0.428  0.1693  0.7739  0.1432
 1374SOL     OW 9957   8.036   4.735   8.075 -0.0213 -0.2471 -0.2818
 1374SOL    HW1 9958   8.124   4.727   8.038  0.5218  1.4240  0.5638
 1374SOL    HW2 9959   7.978   4.730   7.999  1.0110  1.9650 -1.3211
 1375SOL     OW 9960   3.035   4.135   4.224  0.1615 -0.3124  0.0340
 1375SOL    HW1 9961   3.114   4.184   4.245  0.4614 -0.6215 -0.3633
 1375SOL    HW2 9962   3.056   4.089   4.143 -0.8737  0.6388 -0.8136
 1376SOL     OW 9963   7.042   6.775  10.569  0.1516 -0.2598 -0.1679
 1376SOL    HW1 9964   7.105   6.838  10.606 -2.2092  1.6032  0.9214
 1376SOL    HW2 9965   7.081   6.749  10.486  2.4431  0.6650  0.5220
 1377SOL     OW 9966   5.949   3.782  10.700 -0.1277  0.3727  0.2035
 1377SOL    HW1 9967   5.993   3.831  10.770 -0.6821  0.5738  0.4178
 1377SOL    HW2 9968   5.890   3.723  10.746 -0.3634  0.3788 -0.0925
 1378SOL     OW 9969   1.650   4.417   5.878 -0.8430  0.2369 -0.5014
 1378SOL    HW1 9970   1.678   4.463   5.798 -2.1799  0.6516 -0.7610
 1378SOL    HW2 9971   1.670   4.325   5.861 -0.4846  0.4071 -1.0303
 1379SOL     OW 9972   7.521   7.854  10.120  0.1971 -0.2616 -0.2015
 1379SOL    HW1 9973   7.586   7.854  10.050 -0.7685 -0.0664 -1.1402
 1379SOL    HW2 9974   7.571   7.862  10.200  1.2314  2.0647 -0.9982
 1380SOL     OW 9975   5.686   3.791   1.386 -0.2711  0.6868  0.5109
 1380SOL    HW1 9976   5.707   3.704   1.419 -1.4649 -0.1421 -0.7752
 1380SOL    HW2 9977   5.591   3.800   1.399 -0.5316  0.9011 -1.2870
 1381SOL     OW 9978   5.836   0.969   2.551 -0.2705 -0.0528 -0.6536
 1381SOL    HW1 9979   5.849   1.051   2.598 -2.9522  0.4714 -0.7001
 1381SOL    HW2 9980   5.813   0.906   2.620  0.4203 -0.4538 -0.7763
 1382SOL     OW 9981   5.331   1.392   9.973  0.3911  0.5592 -0.6788
 1382SOL    HW1 9982   5.395   1.464   9.980  0.4752  0.6342 -1.9651
 1382SOL    HW2 9983   5.265   1.426   9.913  0.2314 -0.2983 -0.9902
 1383SOL     OW 9984   2.531   5.236   3.763  0.4095  0.4053 -0.0849
 1383SOL    HW1 9985   2.436   5.238   3.779 -0.0903 -4.2751 -1.0651
 1383SOL    HW2 9986   2.568   5.201   3.844  1.3239  1.9860  0.2046
 1384SOL     OW 9987   2.205   7.391   8.654  0.2516 -0.0691  0.6523
 1384SOL    HW1 9988   2.158   7.472   8.675  0.5423 -0.2167  1.9944
 1384SOL    HW2 9989   2.220   7.396   8.560  0.3266  1.4905  0.7126
 1385SOL     OW 9990   8.600   3.081   0.090 -0.8850  0.4667  0.4108
 1385SOL    HW1 9991   8.581   3.137   0.165 -0.6492  1.2167 -0.0784
 1385SOL    HW2 9992   8.695   3.080   0.084 -0.8265 -1.0740  1.2098
 1386SOL     OW 9993   3.986   1.922   2.437 -0.0115 -0.3243  0.1410
 1386SOL    HW1 9994   3.893   1.939   2.423  0.4834  1.9676 -0.8376
 1386SOL    HW2 9995   4.010   1.978   2.511  0.6779 -0.6355  0.1622
 1387SOL     OW 9996  10.135   3.724   1.906 -0.5291  0.3592 -0.3794
 1387SOL    HW1 9997  10.107   3.646   1.954 -1.2275 -0.2682 -1.7522
 1387SOL    HW2 9998  10.054   3.772   1.889 -0.2075  0.9163 -0.3729
 1388SOL     OW 9999   7.470   5.903   9.209 -0.1724 -0.1135  0.0872
 1388SOL    HW110000   7.541   5.903   9.145 -0.7344 -1.9875 -0.5816
 1388SOL    HW210001   7.489   5.979   9.265 -0.0211  2.0459 -2.6447
 1389SOL     OW10002   7.686  10.788   3.098 -0.2496 -0.7556 -0.0972
 1389SOL    HW110003   7.621  10.799   3.167 -0.1834 -1.5497  0.1055
 1389SOL    HW210004   7.763  10.752   3.142  0.6395  0.9231 -0.1932
 1390SOL     OW10005   1.704   7.677   7.338 -0.0941  0.1834 -0.2666
 1390SOL    HW110006   1.611   7.696   7.322  0.2959  0.6692 -2.1318
 1390SOL    HW210007   1.739   7.759   7.370 -0.1670  0.1791 -0.1723
 1391SOL     OW10008   7.505   7.899   3.727  0.0110 -0.1781 -0.4179
 1391SOL    HW110009   7.437   7.835   3.746 -0.8992  0.0018 -2.7820
 1391SOL    HW210010   7.587   7.850   3.735 -0.5024 -0.9243  0.4046
 1392SOL     OW10011   3.254   6.283   7.959 -0.5140  0.1397 -0.4779
 1392SOL    HW110012   3.235   6.376   7.970 -0.4497 -0.0051  1.1146
 1392SOL    HW210013   3.344   6.273   7.990 -0.3018 -0.3736 -1.2100
 1393SOL     OW10014   3.036   2.540   0.175  0.0536  0.7647 -0.0108
 1393SOL    HW110015   3.027   2.455   0.132 -2.5317  0.0380  1.7323
 1393SOL    HW210016   3.062   2.600   0.105  1.3025 -1.2925 -1.4158
 1394SOL     OW10017   1.254   0.077   1.677  0.0234 -0.1712 -0.1063
 1394SOL    HW110018   1.349   0.085   1.676 -0.0624  1.1537 -0.6415
 1394SOL    HW210019   1.228   0.103   1.765  0.1263  0.0679 -0.1450
 1395SOL     OW10020   2.756   7.357   4.827 -0.0472 -0.2626  0.0769
 1395SOL    HW110021   2.666   7.388   4.836 -0.3843 -1.0580 -0.3903
 1395SOL    HW210022   2.803   7.429   4.785 -0.5795 -0.0081 -0.0842
 1396SOL     OW10023   0.219   5.147   8.014 -0.5962 -0.2971  0.0873
 1396SOL    HW110024   0.223   5.054   7.990 -0.8308 -0.0840 -0.8197
 1396SOL    HW210025   0.223   5.193   7.931 -3.7654  0.4106  0.2023
 1397SOL     OW10026   0.170   2.227   0.855 -0.2849 -0.2269 -0.1730
 1397SOL    HW110027   0.210   2.229   0.768  2.5334  0.9721  1.0472
 1397SOL    HW210028   0.183   2.315   0.890  2.7838 -1.7520  3.1141
 1398SOL     OW10029   8.784   2.110   2.713 -0.2923  0.3010 -0.1353
 1398SOL    HW110030   8.764   2.185   2.657  0.1623 -0.3711 -1.2250
 1398SOL    HW210031   8.876   2.122   2.737 -0.0425 -0.2462 -0.8326
 1399SOL     OW10032   7.546   5.135   7.659  0.6477 -0.5515  0.2680
 1399SOL    HW110033   7.495   5.064   7.699 -0.9493 -0.2296 -1.0832
 1399SOL    HW210034   7.563   5.105   7.569 -0.5011  0.9469 -0.4900
 1400SOL     OW10035   1.791   4.157   2.329 -0.1432 -0.2264  0.3321
 1400SOL    HW110036   1.717   4.105   2.359 -1.3796  0.9058 -0.6418
 1400SOL    HW210037   1.783   4.158   2.234 -0.7955  2.5416  0.3347
 1401SOL     OW10038   6.108   1.466   5.087 -0.3543  0.1469  0.2509
 1401SOL    HW110039   6.128   1.393   5.029  0.7009  0.9585 -0.4661
 1401SOL    HW210040   6.040   1.515   5.041  0.4430  0.7597 -0.3066
 1402SOL     OW10041   4.138   3.631   0.808  0.2938  0.2384 -0.3578
 1402SOL    HW110042   4.222   3.666   0.778 -0.1064  0.7811 -0.8841
 1402SOL    HW210043   4.091   3.708   0.838 -0.7361  0.2383 -1.8384
 1403SOL     OW10044   6.351   5.985   3.126  0.0032  0.2043 -0.4297
 1403SOL    HW110045   6.350   5.934   3.207  1.9788 -0.9384 -1.0784
 1403SOL    HW210046   6.285   6.053   3.140 -1.5333 -1.4972  1.1173
 1404SOL     OW10047   9.600   9.409   3.479  0.4075  0.5950 -0.1004
 1404SOL    HW110048   9.632   9.475   3.540  0.7746 -0.7653  1.2505
 1404SOL    HW210049   9.612   9.448   3.393  1.4683  1.9128  0.6036
 1405SOL     OW10050   9.823   9.779  10.301 -0.4007  0.0130 -0.2497
 1405SOL    HW110051   9.780   9.768  10.386 -0.8183 -2.7236 -0.7218
 1405SOL    HW210052   9.752   9.788  10.238 -0.1437  0.2459 -0.5105
 1406SOL     OW10053   3.904   9.328   7.038  0.3745  0.1308  0.2593
 1406SOL    HW110054   3.834   9.334   7.104  0.0626 -0.4427 -0.0177
 1406SOL    HW210055   3.981   9.364   7.082 -0.3137  1.7206  0.2409
 1407SOL     OW10056   6.979   0.267   6.398 -0.1014  0.3624  0.1424
 1407SOL    HW110057   6.912   0.211   6.437  0.8223 -0.5112  0.5174
 1407SOL    HW210058   6.931   0.342   6.364 -1.2393 -0.1414  0.5992
 1408SOL     OW10059   2.023   5.845  10.356 -0.3099 -0.5014  0.4967
 1408SOL    HW110060   1.959   5.877  10.420  1.7426  1.9262  1.5174
 1408SOL    HW210061   2.075   5.781  10.405  2.1745  2.3738  1.9628
 1409SOL     OW10062   3.273   2.998   4.108  0.4801  0.5966  0.1765
 1409SOL    HW110063   3.308   3.007   4.019  0.1806 -1.1376 -0.1422
 1409SOL    HW210064   3.190   3.046   4.105 -0.2349 -0.6549 -0.9279
 1410SOL     OW10065   1.625   7.899   9.053 -0.0107  0.0661  0.4927
 1410SOL    HW110066   1.529   7.894   9.055 -0.0293  0.4490  0.8237
 1410SOL    HW210067   1.652   7.870   9.140  0.2461 -1.2671 -0.0213
 1411SOL     OW10068   3.697   3.488   4.065  0.5148 -0.0422 -0.0968
 1411SOL    HW110069   3.740   3.407   4.094  0.4133 -0.4915 -1.1602
 1411SOL    HW210070   3.763   3.556   4.078  0.2111 -0.0562  1.9337
 1412SOL     OW10071   0.715   1.158   5.725 -0.2303 -0.3033 -0.3738
 1412SOL    HW110072   0.653   1.127   5.659 -0.4036 -0.4027 -0.1640
 1412SOL    HW210073   0.726   1.085   5.785 -0.3042 -0.1091 -0.1227
 1413SOL     OW10074   4.997   6.773   9.422  0.6095  0.4934 -0.0921
 1413SOL    HW110075   4.971   6.865   9.421  2.3771  1.0947  1.8540
 1413SOL    HW210076   5.058   6.765   9.348 -0.9306  0.3470 -1.4214
 1414SOL     OW10077   5.499   0.730  10.295 -0.0723  0.0532 -0.4386
 1414SOL    HW110078   5.520   0.788  10.368  0.1463 -0.6233  0.0399
 1414SOL    HW210079   5.453   0.787  10.232  0.3301  0.7936 -0.0784
 1415SOL     OW10080   7.030   1.020   7.412  0.1934  0.1839  0.2934
 1415SOL    HW110081   6.947   1.035   7.368  0.1512 -0.7977  0.0292
 1415SOL    HW210082   7.087   0.984   7.344  0.5930  0.0956  0.6740
 1416SOL     OW10083   6.277   1.811   2.999  0.4522 -0.3685  0.4464
 1416SOL    HW110084   6.360   1.857   2.997  0.1083  0.3734  1.7452
 1416SOL    HW210085   6.213   1.875   2.969  0.6367 -1.9105 -4.0063
 1417SOL     OW10086   1.586   8.798   8.060 -0.3253 -0.2554 -0.1395
 1417SOL    HW110087   1.676   8.781   8.087 -0.0893 -0.8519 -1.2755
 1417SOL    HW210088   1.578   8.759   7.973 -1.0930  1.5056 -0.9128
 1418SOL     OW10089   0.553   8.310  10.143 -0.1339 -0.0853  0.0629
 1418SOL    HW110090   0.542   8.265  10.059  2.0766 -0.4773 -0.0819
 1418SOL    HW210091   0.647   8.313  10.156 -0.4131 -0.1124  2.6046
 1419SOL     OW10092   8.297   9.805   4.333 -0.3281 -0.1468  0.8075
 1419SOL    HW110093   8.265   9.721   4.302 -0.4585  0.0436  0.4133
 1419SOL    HW210094   8.225   9.866   4.316  0.9329  0.7369 -2.1242
 1420SOL     OW10095   3.750   3.713   9.659 -0.6563  0.1910 -0.0373
 1420SOL    HW110096   3.756   3.759   9.575  0.2663 -2.7391 -1.7175
 1420SOL    HW210097   3.837   3.720   9.697 -0.6504  0.2439 -0.0613
 1421SOL     OW10098  10.661  10.692   9.627 -0.1023 -0.3375  0.1617
 1421SOL    HW110099  10.604  10.737   9.564 -0.2568  2.6869  2.2582
 1421SOL    HW210100  10.601  10.657   9.693  0.2632 -0.7376  0.2855
 1422SOL     OW10101   5.616   0.840   6.603  0.5172 -0.6806 -0.0052
 1422SOL    HW110102   5.571   0.830   6.687 -1.1654 -1.8243 -0.9843
 1422SOL    HW210103   5.706   0.860   6.627  0.4169 -2.3589  2.1294
 1423SOL     OW10104   3.547   1.318  10.309 -0.0710  0.1037  0.1439
 1423SOL    HW110105   3.525   1.253  10.243 -0.5546  0.4968 -0.0933
 1423SOL    HW210106   3.475   1.312  10.373  1.8435 -2.3791  2.2958
 1424SOL     OW10107   3.277   1.115   2.661  0.6161  0.3792 -0.6866
 1424SOL    HW110108   3.325   1.082   2.584  1.0180  0.7978 -0.6181
 1424SOL    HW210109   3.280   1.043   2.723 -0.7121 -0.4042 -1.4862
 1425SOL     OW10110   5.698   9.912  10.582 -0.1585 -0.4479 -0.2477
 1425SOL    HW110111   5.666   9.864  10.506  4.1362 -2.9854 -0.7514
 1425SOL    HW210112   5.747   9.986  10.545 -0.4574 -0.0077  0.2176
 1426SOL     OW10113   4.745   5.767   7.186 -0.0614  0.1013  0.0114
 1426SOL    HW110114   4.757   5.688   7.238 -0.6756  0.6526  1.0320
 1426SOL    HW210115   4.812   5.828   7.218 -0.3339  0.3847  0.0508
 1427SOL     OW10116   2.124   7.033   4.569  0.0417  0.4696 -0.0573
 1427SOL    HW110117   2.106   6.968   4.637  0.7182 -1.5030 -1.6691
 1427SOL    HW210118   2.045   7.087   4.566 -1.6478 -1.8362 -0.3101
 1428SOL     OW10119   5.118   6.427   7.258 -0.2301  0.3743  0.2407
 1428SOL    HW110120   5.119   6.458   7.167 -0.1630 -1.1745 -0.3240
 1428SOL    HW210121   5.050   6.479   7.300  0.0592  1.4461 -0.5695
 1429SOL     OW10122   4.472  10.018   9.770 -0.0627 -0.3059  0.5698
 1429SOL    HW110123   4.532  10.065   9.828  0.0019  2.1981 -1.3626
 1429SOL    HW210124   4.521   9.940   9.743  1.3615  0.4281  0.9336
 1430SOL     OW10125  10.250  10.506   1.995  0.2894 -0.4146 -0.1263
 1430SOL    HW110126  10.256  10.500   1.900  1.5142 -0.5186 -0.0576
 1430SOL    HW210127  10.259  10.416   2.026 -0.9041 -0.4869  0.0753
 1431SOL     OW10128   9.214   6.227   3.675  0.2701  0.0628  0.1689
 1431SOL    HW110129   9.186   6.312   3.710 -0.4006 -0.0918  0.0339
 1431SOL    HW210130   9.243   6.247   3.586  0.3698  0.1888  0.2277
 1432SOL     OW10131   0.380   2.165  10.236 -0.4960 -0.2138  0.0107
 1432SOL    HW110132   0.393   2.146  10.144 -1.7212  0.5012 -0.3314
 1432SOL    HW210133   0.437   2.240  10.254 -1.0079  0.2882 -0.4299
 1433SOL     OW10134   4.235   7.582   8.618 -0.0972 -0.1665 -0.3661
 1433SOL    HW110135   4.223   7.615   8.529 -2.2140 -0.2066 -0.1617
 1433SOL    HW210136   4.225   7.487   8.611 -0.5533 -0.1473 -0.0829
 1434SOL     OW10137   5.772   6.436  10.164 -0.0468  0.3786  0.4568
 1434SOL    HW110138   5.768   6.378  10.240 -1.0557 -1.3777 -0.8624
 1434SOL    HW210139   5.866   6.444  10.145  0.1016 -1.5943  0.1422
 1435SOL     OW10140   1.382  10.558   5.013  0.0867  0.4640  0.5264
 1435SOL    HW110141   1.328  10.490   4.972  1.2741 -0.6937  0.7899
 1435SOL    HW210142   1.468  10.548   4.972  0.2188  2.0458  0.3476
 1436SOL     OW10143   5.966   1.340   3.303  0.4420 -0.3240  0.8735
 1436SOL    HW110144   5.888   1.297   3.338  0.9703 -1.7615  0.3766
 1436SOL    HW210145   5.934   1.392   3.229 -0.4524  1.5152  2.4651
 1437SOL     OW10146   3.032   4.759   2.264 -0.2255 -0.2855  0.6444
 1437SOL    HW110147   3.079   4.678   2.284  0.2144  0.1647  1.5264
 1437SOL    HW210148   3.086   4.802   2.198 -0.0891 -0.3811  0.6935
 1438SOL     OW10149   0.881   2.814   8.377  0.6184 -0.4803 -0.3253
 1438SOL    HW110150   0.889   2.835   8.284  1.5591  0.0257 -0.1422
 1438SOL    HW210151   0.787   2.810   8.393  0.4258  1.1710 -0.9109
 1439SOL     OW10152   1.822   8.901   0.405 -0.5595 -0.0452  0.3591
 1439SOL    HW110153   1.827   8.825   0.346 -0.6063  0.7193 -0.6640
 1439SOL    HW210154   1.758   8.959   0.364 -1.3873  0.0507  1.7381
 1440SOL     OW10155   5.034   0.667   7.600 -0.5455 -0.4747  0.3860
 1440SOL    HW110156   5.075   0.737   7.650 -0.8800  0.0578 -0.0676
 1440SOL    HW210157   5.055   0.587   7.648 -1.2221  0.0561  1.6095
 1441SOL     OW10158   1.026   8.212   2.028  0.6653 -0.2257  0.1292
 1441SOL    HW110159   0.956   8.267   1.993  0.7656 -0.3947 -0.3425
 1441SOL    HW210160   1.100   8.271   2.041  0.6831 -0.1987 -0.1061
 1442SOL     OW10161   6.529   3.936   8.453  0.4944 -0.5694  0.2288
 1442SOL    HW110162   6.552   3.843   8.458  0.6699 -0.4846  1.0466
 1442SOL    HW210163   6.453   3.938   8.395  0.3401 -1.2525  0.3958
 1443SOL     OW10164   8.942   4.294   8.437  0.2182 -0.3765  0.1187
 1443SOL    HW110165   8.898   4.222   8.393  0.9039 -0.2877 -0.7525
 1443SOL    HW210166   8.953   4.360   8.369  1.8781 -0.4907  0.2431
 1444SOL     OW10167   0.216   1.840   3.043 -0.0932  0.3860 -0.2396
 1444SOL    HW110168   0.146   1.905   3.037  0.4870  1.0778  0.2685
 1444SOL    HW210169   0.172   1.761   3.074 -0.8150  0.5207 -0.8992
 1445SOL     OW10170  10.488   4.970   5.289 -0.0266  0.3943  0.4668
 1445SOL    HW110171  10.452   4.997   5.204 -0.2677 -0.6995  0.2132
 1445SOL    HW210172  10.580   5.000   5.287  0.1375 -0.1532 -0.4213
 1446SOL     OW10173  10.380   3.321   6.066 -0.0792  0.3628 -0.2913
 1446SOL    HW110174  10.459   3.268   6.059 -1.3975 -1.6662 -0.4883
 1446SOL    HW210175  10.335   3.289   6.144 -1.9112 -0.2830 -1.5342
 1447SOL     OW10176   0.812   3.367   1.642  0.0314  0.2010 -0.0771
 1447SOL    HW110177   0.870   3.442   1.657  0.5342 -0.3366  0.6808
 1447SOL    HW210178   0.836   3.336   1.555  1.6023 -0.6256  0.6098
 1448SOL     OW10179   4.847   4.848   3.252 -0.0063  0.3479 -0.4330
 1448SOL    HW110180   4.831   4.760   3.218  2.9666  0.1912 -1.7027
 1448SOL    HW210181   4.781   4.903   3.210 -1.9016 -1.1883  0.3618
 1449SOL     OW10182   0.429   3.234   3.131 -0.6248 -0.4812  0.0980
 1449SOL    HW110183   0.425   3.272   3.044 -2.3320  0.4969  0.5555
 1449SOL    HW210184   0.514   3.264   3.166  0.7484 -2.0739 -1.6742
 1450SOL     OW10185   3.590   4.239   5.042 -0.2868  0.3827 -0.4994
 1450SOL    HW110186   3.534   4.302   4.998 -0.5064 -0.3569 -1.3084
 1450SOL    HW210187   3.668   4.288   5.067 -0.6874  1.0885 -0.6224
 1451SOL     OW10188  10.267   7.308   0.736  0.3090  0.0150 -0.2663
 1451SOL    HW110189  10.220   7.305   0.820  0.0519 -2.0019 -0.4254
 1451SOL    HW210190  10.203   7.346   0.675  0.1171  0.4985  0.2256
 1452SOL     OW10191   9.884   0.689  10.738  0.1115 -0.3995  0.2346
 1452SOL    HW110192   9.836   0.646  10.668  1.5566  1.3510 -1.9796
 1452SOL    HW210193   9.955   0.629  10.760  0.2451 -0.5314 -0.5456
 1453SOL     OW10194   4.180   5.424   3.293 -0.1451 -0.0611 -0.2171
 1453SOL    HW110195   4.089   5.411   3.268 -0.3691  1.5712 -0.3367
 1453SOL    HW210196   4.230   5.399   3.215 -0.5533 -0.0129 -0.4955
 1454SOL     OW10197   8.742   5.344   4.199 -0.1197  0.4839  0.2440
 1454SOL    HW110198   8.736   5.436   4.224  0.1638  0.4513  0.4425
 1454SOL    HW210199   8.758   5.298   4.282 -2.7544 -0.0294  0.5380
 1455SOL     OW10200   6.637   6.892  10.398 -0.0132  0.4648  0.2029
 1455SOL    HW110201   6.556   6.892  10.347 -0.2141  0.4292  0.5181
 1455SOL    HW210202   6.671   6.803  10.390 -1.0341 -0.0984  1.6672
 1456SOL     OW10203   3.805   8.367   5.097 -0.5691  0.0123  0.0295
 1456SOL    HW110204   3.873   8.424   5.132 -1.5967  1.1266  0.2466
 1456SOL    HW210205   3.804   8.385   5.003  0.3062 -0.9709 -0.1915
 1457SOL     OW10206   6.892   4.252   7.368 -0.1403 -0.1467  0.1870
 1457SOL    HW110207   6.877   4.347   7.362  0.5736 -0.0647 -0.3735
 1457SOL    HW210208   6.959   4.234   7.302  0.5162 -0.8763  1.0384
 1458SOL     OW10209   2.089  10.618   6.454 -0.2111  0.6516  0.6121
 1458SOL    HW110210   2.159  10.655   6.399 -0.8819 -0.1750 -0.8703
 1458SOL    HW210211   2.076  10.530   6.418 -2.6208  1.1043  0.2412
 1459SOL     OW10212   9.605   5.567   3.230 -0.6111 -0.3667  0.2610
 1459SOL    HW110213   9.592   5.498   3.295  1.1528  0.1958  1.2956
 1459SOL    HW210214   9.519   5.607   3.220 -0.6340  0.7631  3.7411
 1460SOL     OW10215   8.357   2.348   9.093  0.1425  0.2717  0.0072
 1460SOL    HW110216   8.270   2.334   9.131  0.4227 -3.5380 -0.3086
 1460SOL    HW210217   8.402   2.404   9.155 -1.8048  0.4256  1.3758
 1461SOL     OW10218   5.868   1.613   8.106 -0.1602 -0.3152 -0.9161
 1461SOL    HW110219   5.864   1.529   8.153 -1.4659 -0.1223 -0.6464
 1461SOL    HW210220   5.901   1.675   8.172  2.7314 -0.9399 -1.6580
 1462SOL     OW10221   7.395   8.903   9.353  0.9190  0.1713  0.7751
 1462SOL    HW110222   7.329   8.897   9.284 -0.5919 -1.2505  2.2388
 1462SOL    HW210223   7.462   8.961   9.318 -0.4889  0.6412 -1.2913
 1463SOL     OW10224   5.970  10.734   5.297 -0.3794  0.0467  0.5638
 1463SOL    HW110225   5.970  10.774   5.384 -2.1253  0.6775  0.3179
 1463SOL    HW210226   5.889  10.684   5.295  0.9828 -2.2901  0.2769
 1464SOL     OW10227  10.111   4.549   9.305 -0.0812 -0.0331  0.5623
 1464SOL    HW110228  10.038   4.603   9.275 -0.5714 -1.3712 -0.7791
 1464SOL    HW210229  10.177   4.612   9.334 -1.1323  1.2422  0.2849
 1465SOL     OW10230   5.254   1.889   6.354 -0.6081 -0.5533  0.0797
 1465SOL    HW110231   5.214   1.817   6.305 -0.5914 -0.8032  0.4308
 1465SOL    HW210232   5.338   1.855   6.383 -0.2804 -0.1445 -0.3608
 1466SOL     OW10233   8.776   1.956  10.018 -0.3157  0.1636 -0.9926
 1466SOL    HW110234   8.759   1.902  10.096 -1.6285 -0.2443 -1.5250
 1466SOL    HW210235   8.822   2.033  10.052 -1.9901  0.6261  0.4186
 1467SOL     OW10236   3.900   1.967   1.865  0.3573  0.1998  0.1286
 1467SOL    HW110237   3.941   1.973   1.779 -0.5446 -0.1422 -0.3439
 1467SOL    HW210238   3.822   1.913   1.850  0.9429 -1.0707  1.4432
 1468SOL     OW10239   6.733   4.136   0.907  0.3483  0.2130 -0.0126
 1468SOL    HW110240   6.753   4.048   0.940 -0.5570  0.1463  0.4037
 1468SOL    HW210241   6.808   4.189   0.932  1.4937 -0.7109 -1.3823
 1469SOL     OW10242   8.127  10.871   6.892  0.4077  0.4522 -0.1004
 1469SOL    HW110243   8.033  10.853   6.889  0.7235 -1.2909 -1.1013
 1469SOL    HW210244   8.167  10.787   6.916  1.8449  0.4700 -2.1482
 1470SOL     OW10245   8.132   4.122   3.142  0.2523 -0.5907  0.0900
 1470SOL    HW110246   8.060   4.132   3.205 -2.2122 -0.8596 -2.4840
 1470SOL    HW210247   8.156   4.030   3.148 -0.5330 -0.8038  0.1050
 1471SOL     OW10248   9.108   8.184   6.044  0.2165  0.5678  0.2276
 1471SOL    HW110249   9.013   8.179   6.054  0.1034  1.6127 -0.1577
 1471SOL    HW210250   9.125   8.155   5.955  0.3152 -0.1005  0.4602
 1472SOL     OW10251   5.544   1.109   6.739  0.1128 -0.9435  0.0298
 1472SOL    HW110252   5.519   1.131   6.649  1.3529  2.1538  0.2989
 1472SOL    HW210253   5.635   1.140   6.746 -0.0182 -0.9637  2.3685
 1473SOL     OW10254   6.503   8.341   8.039 -0.0841 -0.6118  0.2361
 1473SOL    HW110255   6.504   8.327   8.133 -2.2939  1.0551  0.5729
 1473SOL    HW210256   6.593   8.367   8.018  0.2439 -0.1714  2.0364
 1474SOL     OW10257   9.554   8.416   5.848 -0.5819  0.1143  0.7025
 1474SOL    HW110258   9.624   8.473   5.879 -0.0187  0.2608 -0.7290
 1474SOL    HW210259   9.495   8.473   5.799 -1.2007 -0.1734  1.0948
 1475SOL     OW10260   9.213  10.099   9.061 -0.6854  0.1925  0.5651
 1475SOL    HW110261   9.301  10.086   9.027 -1.1470 -0.6902 -0.3475
 1475SOL    HW210262   9.165  10.020   9.035 -1.5231  0.2773  1.7766
 1476SOL     OW10263   4.564   1.856   5.412  0.1806 -0.6676  0.0555
 1476SOL    HW110264   4.562   1.843   5.317 -0.6117 -0.0263 -0.0292
 1476SOL    HW210265   4.656   1.848   5.436  0.4985  0.0530 -0.9000
 1477SOL     OW10266  10.723   1.552   5.120 -0.3486 -0.2832  0.4992
 1477SOL    HW110267  10.711   1.538   5.214 -1.1330 -0.0926  0.4348
 1477SOL    HW210268  10.793   1.616   5.114 -1.9929  1.6966  1.0729
 1478SOL     OW10269   0.254   5.217   5.267 -0.0985 -0.8249 -0.0782
 1478SOL    HW110270   0.189   5.156   5.302 -0.5421 -0.5451 -0.3857
 1478SOL    HW210271   0.293   5.171   5.193 -2.1126  0.0859 -1.8312
 1479SOL     OW10272   4.725   9.411   4.813 -0.4751 -0.2902  0.0286
 1479SOL    HW110273   4.787   9.472   4.773 -0.0771  0.9418  2.3507
 1479SOL    HW210274   4.653   9.405   4.750 -0.1033  1.8490 -0.6726
 1480SOL     OW10275   8.149   7.708   7.597 -0.1422  0.8158  0.1910
 1480SOL    HW110276   8.186   7.660   7.523  0.6183 -2.4002  2.4647
 1480SOL    HW210277   8.057   7.684   7.597  0.3743 -1.4859  1.7553
 1481SOL     OW10278   7.474   9.919   6.253 -0.4520 -0.4036  0.3747
 1481SOL    HW110279   7.477   9.855   6.183 -0.3996 -1.5468  1.3921
 1481SOL    HW210280   7.563   9.920   6.290 -0.9243 -1.1605  1.5800
 1482SOL     OW10281   4.880   6.133   9.232 -0.2075  0.1895  0.3499
 1482SOL    HW110282   4.843   6.135   9.144  0.5134  2.5781  0.0387
 1482SOL    HW210283   4.954   6.072   9.226 -0.9774 -0.7079 -0.3078
 1483SOL     OW10284   7.571   9.580  10.105  0.2285  0.2265  0.3699
 1483SOL    HW110285   7.503   9.539  10.051 -0.7590  0.6019  1.3010
 1483SOL    HW210286   7.628   9.625  10.042  0.3242 -1.0927 -0.5190
 1484SOL     OW10287   2.345   5.594   2.670 -0.5058  0.0174 -0.1256
 1484SOL    HW110288   2.271   5.534   2.679 -1.2328  0.8654 -0.3004
 1484SOL    HW210289   2.418   5.550   2.714 -1.4006 -0.3391  1.0336
 1485SOL     OW10290   7.603  10.385   5.289 -0.0337  0.2658 -0.1693
 1485SOL    HW110291   7.565  10.297   5.294  0.3525  0.1722  1.7674
 1485SOL    HW210292   7.685  10.379   5.337  0.7315  1.3491 -1.2752
 1486SOL     OW10293   8.505   2.333   4.793  0.3110  0.0992 -0.3625
 1486SOL    HW110294   8.488   2.315   4.885  0.1712  1.7819 -0.0181
 1486SOL    HW210295   8.591   2.376   4.792  0.3703 -0.0213 -1.0264
 1487SOL     OW10296   4.915   5.947   3.940 -0.7460  0.1762  0.2865
 1487SOL    HW110297   4.993   5.942   3.995 -0.8321 -2.2323  0.2759
 1487SOL    HW210298   4.949   5.937   3.851 -1.0267 -0.6985  0.2694
 1488SOL     OW10299   0.398   9.786   2.464  0.0216  0.3772  0.0141
 1488SOL    HW110300   0.393   9.696   2.434 -0.9825  0.5967 -0.5048
 1488SOL    HW210301   0.421   9.837   2.387  1.3336  0.4997  0.4570
 1489SOL     OW10302   0.406   9.121   0.442 -0.2833 -0.0530 -0.5730
 1489SOL    HW110303   0.419   9.108   0.348 -0.9526 -2.5858 -0.3909
 1489SOL    HW210304   0.334   9.184   0.448  1.1854  1.8244 -1.6826
 1490SOL     OW10305   7.090   6.198   9.263 -0.0230 -0.4365 -0.2188
 1490SOL    HW110306   7.103   6.148   9.344  0.8700  1.4331  0.8690
 1490SOL    HW210307   7.091   6.289   9.291 -0.0813  0.2626 -2.3128
 1491SOL     OW10308   3.213   7.148   9.603  0.4683  1.0835  0.1449
 1491SOL    HW110309   3.157   7.219   9.572 -1.2182 -0.7971 -1.3804
 1491SOL    HW210310   3.245   7.106   9.524  0.3967 -0.6285  0.9846
 1492SOL     OW10311  10.703   7.577   5.810 -0.0002  0.4393  0.1809
 1492SOL    HW110312  10.630   7.625   5.850 -0.1768  0.8690 -0.6317
 1492SOL    HW210313  10.741   7.526   5.882  0.4879  2.1467  1.2072
 1493SOL     OW10314   4.864   3.323   4.316 -0.3112 -0.1873 -0.0770
 1493SOL    HW110315   4.946   3.275   4.304 -0.2455 -0.3692  0.9377
 1493SOL    HW210316   4.886   3.414   4.299 -0.0347 -0.3122 -0.3895
 1494SOL     OW10317   1.524   8.435   0.831 -0.0711 -0.1385  0.1529
 1494SOL    HW110318   1.453   8.498   0.840 -0.2744 -0.2463 -0.6730
 1494SOL    HW210319   1.581   8.471   0.764 -0.4793 -1.0906 -0.7261
 1495SOL     OW10320   5.956   1.326   1.066 -0.4782 -0.0016 -0.4143
 1495SOL    HW110321   5.954   1.363   0.978  0.6615  1.2258  0.0432
 1495SOL    HW210322   5.928   1.235   1.054 -0.1946  0.0891 -2.0683
 1496SOL     OW10323   4.132   1.387   7.517 -0.0484  0.1077 -0.6350
 1496SOL    HW110324   4.173   1.301   7.503 -0.2638 -0.0321 -0.4253
 1496SOL    HW210325   4.195   1.450   7.482  0.6625 -0.0559  0.2952
 1497SOL     OW10326  10.597   5.916   5.939 -0.0967  0.6825 -0.2396
 1497SOL    HW110327  10.677   5.952   5.901 -1.2016  1.1190 -2.3445
 1497SOL    HW210328  10.622   5.828   5.967  1.0827  0.7410 -1.0089
 1498SOL     OW10329   2.017   6.427   3.796 -0.0368 -0.5281  0.3665
 1498SOL    HW110330   2.045   6.437   3.887 -1.2134 -0.9528  0.7981
 1498SOL    HW210331   2.008   6.517   3.764  0.0037 -0.3694  0.7865
 1499SOL     OW10332   3.294  10.745   5.205 -0.3098 -0.4697 -0.8175
 1499SOL    HW110333   3.356  10.767   5.136 -0.0717 -2.4936 -1.3349
 1499SOL    HW210334   3.276  10.827   5.250  1.1781  0.5096 -1.9454
 1500SOL     OW10335   5.412   4.910   8.698  0.4956 -0.3802  0.6329
 1500SOL    HW110336   5.449   4.998   8.687  1.2126 -0.7249  0.2660
 1500SOL    HW210337   5.345   4.921   8.765 -0.2181  0.6837 -0.2019
 1501SOL     OW10338   5.797   3.467   4.683 -0.3743  0.0219  0.3443
 1501SOL    HW110339   5.748   3.384   4.683 -0.2502 -0.1658 -2.9332
 1501SOL    HW210340   5.889   3.441   4.685 -0.2402 -0.1875 -3.0113
 1502SOL     OW10341   8.637   4.150   2.134 -0.9229  0.0168 -0.5065
 1502SOL    HW110342   8.651   4.116   2.046 -3.3785  0.6119 -1.1910
 1502SOL    HW210343   8.699   4.101   2.189 -0.0216 -1.0470 -2.3775
 1503SOL     OW10344  10.840   0.092   1.039 -0.0907 -0.5414  0.7614
 1503SOL    HW110345  10.849   0.044   0.958  2.0300  0.3391  0.4274
 1503SOL    HW210346  10.869   0.031   1.107 -0.1779 -0.6808  0.6743
 1504SOL     OW10347   3.817   5.938   9.270 -0.1370 -0.2110  0.0728
 1504SOL    HW110348   3.760   5.944   9.346  1.2858  1.5914  1.1068
 1504SOL    HW210349   3.817   6.027   9.234  3.1430  0.3782  1.1109
 1505SOL     OW10350  10.650   3.306   0.260 -0.0672  0.0675 -0.5690
 1505SOL    HW110351  10.711   3.273   0.326  2.1255  0.3171 -2.3439
 1505SOL    HW210352  10.645   3.400   0.277 -1.8089 -0.2591  0.9662
 1506SOL     OW10353   0.044   2.525   6.714  0.5942  0.2990  0.4747
 1506SOL    HW110354  -0.044   2.488   6.710 -0.2884  2.3339  0.3796
 1506SOL    HW210355   0.057   2.567   6.629  2.9777 -2.6326 -0.8266
 1507SOL     OW10356  10.659   1.716   0.255  0.1456  0.5141  0.7461
 1507SOL    HW110357  10.611   1.719   0.173 -0.0217  1.3582  0.8699
 1507SOL    HW210358  10.600   1.755   0.320  0.3734  0.0899  1.2217
 1508SOL     OW10359   0.446   4.563  10.452  0.2067 -0.1133 -0.0300
 1508SOL    HW110360   0.378   4.526  10.509  0.6843  0.1420  0.7283
 1508SOL    HW210361   0.514   4.495  10.449  0.3597  0.0348  0.0391
 1509SOL     OW10362   8.024   9.739   0.831  0.1891 -0.2861 -0.1873
 1509SOL    HW110363   8.035   9.648   0.805 -1.4331 -0.7861  0.7134
 1509SOL    HW210364   8.050   9.741   0.923  0.5130  0.2304 -0.2848
 1510SOL     OW10365   5.332   0.483   9.758  0.4501 -0.2827  0.1769
 1510SOL    HW110366   5.242   0.452   9.745  0.0857  0.4013  0.9716
 1510SOL    HW210367   5.382   0.404   9.778 -0.0420 -0.6211  0.0826
 1511SOL     OW10368   2.990   9.469   2.725  0.1097 -0.0384  0.0845
 1511SOL    HW110369   3.039   9.551   2.736  0.1526 -0.3711  3.1587
 1511SOL    HW210370   2.900   9.493   2.746  0.2805 -0.8982  2.0126
 1512SOL     OW10371   0.650   7.267   9.618 -0.3816 -0.4042 -0.8928
 1512SOL    HW110372   0.639   7.176   9.589  0.4937 -0.5319 -0.8383
 1512SOL    HW210373   0.587   7.278   9.689  1.7092 -1.9615  1.3412
 1513SOL     OW10374  10.652   4.025   1.287  0.1673 -0.2086  0.1755
 1513SOL    HW110375  10.718   4.036   1.356  1.0238 -0.8453 -0.5259
 1513SOL    HW210376  10.652   3.932   1.268 -1.3405 -0.3110  0.5316
 1514SOL     OW10377   9.943   5.087   8.595 -0.0272 -0.0952 -0.0447
 1514SOL    HW110378   9.928   5.181   8.583  0.2617  0.4991  3.2677
 1514SOL    HW210379  10.026   5.070   8.549  0.7952  1.6732  0.6912
 1515SOL     OW10380  10.166   3.772   5.418 -0.3695 -0.8111  0.0121
 1515SOL    HW110381  10.245   3.750   5.467  0.0852  0.3645 -0.1522
 1515SOL    HW210382  10.198   3.794   5.330 -1.1723 -2.9473 -0.8929
 1516SOL     OW10383   7.302   6.115   8.514 -0.1011  0.0805  0.2889
 1516SOL    HW110384   7.215   6.078   8.500 -0.1146  0.4240 -0.6224
 1516SOL    HW210385   7.287   6.187   8.576 -0.6758  0.9221 -0.7999
 1517SOL     OW10386   0.953   7.932   5.375  0.2036 -0.4987 -0.4343
 1517SOL    HW110387   0.971   8.016   5.417 -1.3496  0.0824 -0.8730
 1517SOL    HW210388   0.959   7.868   5.446  1.4697 -0.0472 -0.1090
 1518SOL     OW10389  10.310   2.143  10.894  0.0113 -0.0442  0.1133
 1518SOL    HW110390  10.356   2.079  10.840 -0.3680 -0.8836  0.7714
 1518SOL    HW210391  10.332   2.119  10.984 -0.0235  0.8412  0.3703
 1519SOL     OW10392  10.232   4.129   6.802 -0.5209  0.1916 -0.1154
 1519SOL    HW110393  10.272   4.114   6.716 -0.9612  1.3196 -0.5386
 1519SOL    HW210394  10.305   4.127   6.863 -0.2020 -0.6345 -0.4976
 1520SOL     OW10395   5.944   8.766   7.933 -0.5401  0.4001 -0.1002
 1520SOL    HW110396   5.875   8.700   7.923 -0.2388  0.1619 -0.6318
 1520SOL    HW210397   5.897   8.849   7.936 -0.7963  0.3449 -1.6227
 1521SOL     OW10398   4.771   1.617   7.598 -0.2393  0.1227 -0.0518
 1521SOL    HW110399   4.756   1.545   7.537 -0.7143  0.6333 -0.5524
 1521SOL    HW210400   4.793   1.574   7.681  1.7304 -0.5756 -0.8839
 1522SOL     OW10401   2.363   0.264   5.777 -0.1200 -0.0633 -0.0913
 1522SOL    HW110402   2.336   0.172   5.783 -2.3117  0.5744  1.0431
 1522SOL    HW210403   2.318   0.306   5.850  1.0979  1.8743 -0.4004
 1523SOL     OW10404   0.267   3.496   6.407 -0.0913 -0.4627  0.3214
 1523SOL    HW110405   0.308   3.543   6.479 -0.8918 -2.3017  2.0639
 1523SOL    HW210406   0.340   3.453   6.362  0.6087  1.9445 -1.0698
 1524SOL     OW10407   4.416  10.541   1.952  0.5100 -0.2614 -0.0964
 1524SOL    HW110408   4.504  10.510   1.930  1.1291  1.3253  0.0194
 1524SOL    HW210409   4.397  10.607   1.886 -0.5706 -0.5235 -0.0627
 1525SOL     OW10410   0.208   2.880   4.552  0.0737 -0.3243  0.3442
 1525SOL    HW110411   0.255   2.958   4.580  0.6968 -0.4678 -0.2692
 1525SOL    HW210412   0.129   2.879   4.606  0.2353  0.5231  0.6154
 1526SOL     OW10413   7.187   5.087   2.593  0.3124  0.0503 -0.1260
 1526SOL    HW110414   7.257   5.120   2.536  0.5243  0.0855  0.1496
 1526SOL    HW210415   7.177   5.154   2.660 -0.3536  0.2922 -0.4581
 1527SOL     OW10416   7.682   5.356   3.150  0.7730  0.1564 -0.6431
 1527SOL    HW110417   7.753   5.292   3.152  0.0138 -0.6740  0.5165
 1527SOL    HW210418   7.727   5.441   3.151  1.7600 -0.3569 -0.3363
 1528SOL     OW10419   3.445   3.049   8.329 -0.4366 -0.0154 -0.0009
 1528SOL    HW110420   3.523   3.062   8.383 -1.3300 -0.4742  1.4572
 1528SOL    HW210421   3.429   3.135   8.290  0.3753  0.2646  0.2512
 1529SOL     OW10422   2.395   3.403   2.212 -0.4630  0.2614  0.4289
 1529SOL    HW110423   2.360   3.415   2.300 -0.9739 -0.1913  0.2931
 1529SOL    HW210424   2.464   3.469   2.204  0.2057 -0.2774  1.4892
 1530SOL     OW10425   2.087   3.568   0.964 -0.1723  0.3404  0.0013
 1530SOL    HW110426   2.135   3.592   1.043 -1.0401  0.9081  0.3694
 1530SOL    HW210427   2.115   3.632   0.898 -1.8498  1.9174  0.7485
 1531SOL     OW10428   3.719   0.747   5.974  0.4743 -0.1886 -0.5518
 1531SOL    HW110429   3.688   0.659   5.951 -0.5047 -0.3653  1.2881
 1531SOL    HW210430   3.800   0.731   6.023  0.5396 -0.0381 -0.6114
 1532SOL     OW10431   6.744   5.577   3.691 -0.2419  0.2834  0.1111
 1532SOL    HW110432   6.768   5.553   3.781 -0.1664 -1.0628 -0.2408
 1532SOL    HW210433   6.717   5.669   3.697 -0.0729  0.2704  1.4755
 1533SOL     OW10434   7.241   8.048   3.676 -0.3309  0.0606 -0.1519
 1533SOL    HW110435   7.241   7.954   3.696  1.0813 -0.3059 -1.6587
 1533SOL    HW210436   7.268   8.053   3.585 -0.4751  1.9526 -0.1275
 1534SOL     OW10437   2.631   1.531   5.898  0.2005 -0.4459  0.7080
 1534SOL    HW110438   2.652   1.437   5.897 -0.2669 -0.5620 -0.9919
 1534SOL    HW210439   2.713   1.575   5.878  0.3525 -0.5031  1.1949
 1535SOL     OW10440   4.128   1.345   0.138  0.0550 -0.2437 -0.2853
 1535SOL    HW110441   4.176   1.406   0.082 -1.6099  2.0043  0.6183
 1535SOL    HW210442   4.158   1.364   0.227  0.3553 -1.5892 -0.0699
 1536SOL     OW10443   6.368   7.695   3.279 -0.3754  0.1747 -0.1492
 1536SOL    HW110444   6.305   7.648   3.334 -0.6063  1.1323  0.4261
 1536SOL    HW210445   6.317   7.765   3.238 -0.0862 -0.2040 -1.1826
 1537SOL     OW10446   4.988   3.516   7.647 -0.1877  0.2089 -0.0646
 1537SOL    HW110447   5.052   3.448   7.668  0.8284  0.8962 -0.8200
 1537SOL    HW210448   5.017   3.591   7.699  0.7423  1.0857 -1.7499
 1538SOL     OW10449   7.169   4.151  10.718 -0.5199 -0.9367 -0.0034
 1538SOL    HW110450   7.162   4.213  10.790 -2.0188 -1.5473  0.4103
 1538SOL    HW210451   7.178   4.205  10.640 -0.6322 -0.2227  0.4735
 1539SOL     OW10452   7.770   5.577   0.787  0.0566 -0.7235  0.2492
 1539SOL    HW110453   7.839   5.577   0.854  0.4756  1.7263 -0.1029
 1539SOL    HW210454   7.699   5.627   0.826 -0.4648 -0.9181 -0.4338
 1540SOL     OW10455   6.206   6.303   0.895 -0.2986 -0.7624 -0.1922
 1540SOL    HW110456   6.151   6.248   0.952  0.5801 -1.1675  0.2909
 1540SOL    HW210457   6.296   6.279   0.918  0.0925  0.0980 -0.7581
 1541SOL     OW10458   7.071   8.151   7.241 -0.4155  0.3869  0.3630
 1541SOL    HW110459   7.075   8.071   7.188 -1.5008 -0.7629  1.9386
 1541SOL    HW210460   6.992   8.196   7.210 -0.0651  0.6323 -0.1971
 1542SOL     OW10461   8.253   2.673   4.717  0.3799 -0.3586  0.0911
 1542SOL    HW110462   8.315   2.721   4.772 -0.3712 -0.4554  1.0583
 1542SOL    HW210463   8.183   2.736   4.699 -0.8541 -1.1683  1.7686
 1543SOL     OW10464   5.222   2.631   2.494 -0.2498 -0.6422  0.5271
 1543SOL    HW110465   5.174   2.706   2.529  0.6787  0.9377 -1.3696
 1543SOL    HW210466   5.309   2.666   2.475  0.2477 -2.2496 -0.3167
 1544SOL     OW10467   6.997  10.528   9.015  0.3993  0.0427  0.0293
 1544SOL    HW110468   6.967  10.530   8.924 -0.6447  2.0683  0.3473
 1544SOL    HW210469   7.083  10.570   9.013 -0.8033  2.7258  0.2608
 1545SOL     OW10470   6.109   7.402  10.322  0.5402  0.1503 -0.3547
 1545SOL    HW110471   6.149   7.342  10.259 -1.3656 -1.3432 -0.2399
 1545SOL    HW210472   6.051   7.457  10.269 -0.0485 -0.2054 -0.0907
 1546SOL     OW10473   2.993   8.848   3.766 -0.2319  0.2821  0.3114
 1546SOL    HW110474   2.929   8.851   3.695 -1.7569  2.1744  1.6676
 1546SOL    HW210475   3.053   8.921   3.747 -0.0014  0.1137  0.3905
 1547SOL     OW10476   7.340   6.934   2.198 -0.2393 -0.1951  0.1789
 1547SOL    HW110477   7.352   6.974   2.285 -0.0582 -1.1642  0.6133
 1547SOL    HW210478   7.341   6.840   2.215  0.4602 -0.4071 -0.9669
 1548SOL     OW10479  10.124   1.420   9.438  0.1748  0.3235  0.4224
 1548SOL    HW110480  10.171   1.374   9.369  0.1268  0.2306  0.4520
 1548SOL    HW210481  10.072   1.486   9.392  0.6897  0.7380  0.4284
 1549SOL     OW10482   5.395   7.889   2.775 -0.1546 -0.4542  0.1585
 1549SOL    HW110483   5.417   7.894   2.682 -0.1193 -0.1945  0.1806
 1549SOL    HW210484   5.299   7.884   2.776 -0.1239 -1.2602  0.0765
 1550SOL     OW10485   2.068   8.475   5.581 -0.2733 -0.8498 -0.0850
 1550SOL    HW110486   2.124   8.420   5.636  0.9217  1.4617  1.1459
 1550SOL    HW210487   2.103   8.463   5.492 -0.0763 -2.0738  0.1447
 1551SOL     OW10488   7.403   5.567   7.918 -0.2869 -0.3404  0.1698
 1551SOL    HW110489   7.454   5.526   7.989 -0.8950  0.0888  0.8738
 1551SOL    HW210490   7.373   5.494   7.865  1.0782 -0.6108 -0.2871
 1552SOL     OW10491   3.991   1.785   1.451  0.0079  0.0756  0.4593
 1552SOL    HW110492   3.925   1.854   1.440 -0.8917 -0.6849  0.9483
 1552SOL    HW210493   3.980   1.730   1.373  2.9953  2.2325 -1.7343
 1553SOL     OW10494  10.407   0.717   3.820 -0.0134 -0.5021  0.4709
 1553SOL    HW110495  10.319   0.683   3.833 -1.0604  2.2970  1.5307
 1553SOL    HW210496  10.406   0.754   3.731 -0.9943  2.1786  1.5040
 1554SOL     OW10497   0.540   9.424   8.898 -0.6866  0.1673 -0.1163
 1554SOL    HW110498   0.540   9.474   8.980 -1.8195  2.1147 -1.2332
 1554SOL    HW210499   0.631   9.428   8.868 -0.7505  1.6075 -0.1797
 1555SOL     OW10500   2.001   3.476   0.589  0.6230 -0.4079 -0.7897
 1555SOL    HW110501   1.910   3.503   0.578  0.8083  0.8493  0.5740
 1555SOL    HW210502   2.018   3.420   0.513 -0.5742  1.1869 -2.3010
 1556SOL     OW10503   7.847   4.578   0.281  0.3291  0.1341  0.0077
 1556SOL    HW110504   7.819   4.508   0.340  0.1672 -0.2563 -0.5295
 1556SOL    HW210505   7.941   4.566   0.272  0.0683 -1.0757 -1.4283
 1557SOL     OW10506   0.504   0.024   8.029 -0.0128  0.2407 -0.0248
 1557SOL    HW110507   0.478  -0.068   8.017  1.4902 -0.2102 -0.0255
 1557SOL    HW210508   0.501   0.036   8.124 -1.2254  0.5204 -0.0843
 1558SOL     OW10509   1.108   6.455   9.162  0.6074  0.2092 -0.4904
 1558SOL    HW110510   1.069   6.542   9.150 -2.3263 -0.7814  0.9918
 1558SOL    HW210511   1.135   6.453   9.253  0.6887 -0.4440 -0.5216
 1559SOL     OW10512   6.584   7.548   5.558 -0.1621  0.3478  0.0561
 1559SOL    HW110513   6.522   7.513   5.494 -0.6047  1.2074  0.0032
 1559SOL    HW210514   6.644   7.476   5.575 -0.3569 -0.0632 -0.9338
 1560SOL     OW10515   0.665   8.112  10.708 -0.1786 -0.2697  0.1496
 1560SOL    HW110516   0.588   8.067  10.743 -1.3763  1.4690 -0.1196
 1560SOL    HW210517   0.739   8.059  10.736 -1.4831 -2.1541  0.1843
 1561SOL     OW10518   7.538   0.894   6.225  0.2316 -0.3915 -0.7132
 1561SOL    HW110519   7.568   0.922   6.138 -2.0653 -1.8400 -2.0783
 1561SOL    HW210520   7.474   0.961   6.251  0.9671  0.0776 -0.0607
 1562SOL     OW10521   8.526   8.375   1.459 -0.4406 -0.2416 -1.1650
 1562SOL    HW110522   8.462   8.445   1.450  0.9680  1.1605 -0.6055
 1562SOL    HW210523   8.498   8.328   1.539 -1.4164 -0.3942 -1.5757
 1563SOL     OW10524   9.723  10.820   5.663  0.5496  0.0938  0.0883
 1563SOL    HW110525   9.679  10.867   5.733  1.9167  2.1717 -0.3580
 1563SOL    HW210526   9.655  10.805   5.598 -0.1108  0.7106  0.6212
 1564SOL     OW10527   7.458   1.851   4.934 -0.0668 -0.0301 -0.3708
 1564SOL    HW110528   7.364   1.835   4.921 -0.1387 -1.1090  1.1692
 1564SOL    HW210529   7.485   1.784   4.997  1.5021  0.9389  0.0464
 1565SOL     OW10530   7.555   9.573   7.487  0.4448 -0.5132 -0.6456
 1565SOL    HW110531   7.569   9.480   7.504  0.8189 -0.9650 -2.9935
 1565SOL    HW210532   7.476   9.576   7.433  0.6985  0.4541 -0.9883
 1566SOL     OW10533   3.265   7.381   8.443 -0.0684  0.3471 -0.2133
 1566SOL    HW110534   3.306   7.323   8.507 -0.7459  0.5740  0.4420
 1566SOL    HW210535   3.196   7.328   8.402  1.9815 -0.6374 -2.6428
 1567SOL     OW10536   0.536   5.278   0.324  0.3434  0.2762 -0.2211
 1567SOL    HW110537   0.491   5.257   0.242 -0.1609 -1.0507  0.3730
 1567SOL    HW210538   0.590   5.201   0.342  0.2827  0.4644  0.8119
 1568SOL     OW10539   1.091   2.659  10.328  0.7810  0.3831 -0.2297
 1568SOL    HW110540   1.110   2.735  10.384  1.0111  0.9516 -1.0643
 1568SOL    HW210541   1.147   2.589  10.362 -1.2557 -0.2180  2.1844
 1569SOL     OW10542   4.300  10.359   9.992 -0.1824  0.0840  0.3835
 1569SOL    HW110543   4.219  10.317   9.963  0.3493 -0.7594  0.0896
 1569SOL    HW210544   4.326  10.416   9.920 -1.2149  1.4077  1.0133
 1570SOL     OW10545   1.088   2.628   8.422  0.0897  0.0863  0.7350
 1570SOL    HW110546   1.109   2.567   8.351 -0.0304  0.2919  0.5188
 1570SOL    HW210547   1.005   2.668   8.395  0.6825  1.1079  0.3541
 1571SOL     OW10548   3.678   2.560   2.382  0.5504 -0.2723 -0.9249
 1571SOL    HW110549   3.705   2.505   2.309  0.1036 -1.7345 -0.0341
 1571SOL    HW210550   3.704   2.648   2.357  0.0918 -0.6769 -2.9924
 1572SOL     OW10551   2.921   5.906   0.472  0.3010  0.1796 -0.5352
 1572SOL    HW110552   2.902   5.874   0.384  0.1062 -0.8707 -0.1335
 1572SOL    HW210553   2.991   5.849   0.504 -0.2091 -0.0143  0.2876
 1573SOL     OW10554   6.851   6.747   8.783  0.0220  0.1160 -0.0998
 1573SOL    HW110555   6.799   6.827   8.782 -1.4888 -0.8410 -0.2335
 1573SOL    HW210556   6.913   6.758   8.711  0.7286  1.7070  0.7021
 1574SOL     OW10557  10.453   9.824   6.378 -0.3275 -0.0957 -0.1892
 1574SOL    HW110558  10.460   9.890   6.309 -3.6205  0.4353 -0.2117
 1574SOL    HW210559  10.457   9.875   6.460  2.7964 -0.6332  0.0851
 1575SOL     OW10560   5.613   1.325   4.015 -0.2136 -0.0321  0.1702
 1575SOL    HW110561   5.694   1.341   3.967 -0.9139  0.9302 -0.7123
 1575SOL    HW210562   5.544   1.355   3.957 -0.9996  3.5390  2.6435
 1576SOL     OW10563   4.157   4.582   4.371  0.3218  0.1243  0.0816
 1576SOL    HW110564   4.110   4.504   4.342  1.9204 -0.6136 -0.6252
 1576SOL    HW210565   4.092   4.632   4.421 -1.4618 -0.4046 -1.5876
 1577SOL     OW10566   3.914   1.098   5.041 -0.6345  0.2255  0.0112
 1577SOL    HW110567   3.930   1.085   5.134  1.5726  0.7169 -0.2532
 1577SOL    HW210568   3.906   1.193   5.031  1.8398  0.4196 -0.6310
 1578SOL     OW10569  10.437   4.682   7.719  0.1088  0.0414  0.3508
 1578SOL    HW110570  10.388   4.701   7.800  1.1719  3.2538  0.3806
 1578SOL    HW210571  10.524   4.658   7.750  0.3006  0.5160  0.1820
 1579SOL     OW10572   1.191   0.349   0.295 -0.0749  0.3152  0.0846
 1579SOL    HW110573   1.156   0.341   0.384 -0.7024  0.6156 -0.1326
 1579SOL    HW210574   1.285   0.363   0.308 -0.2058  0.6703  0.7134
 1580SOL     OW10575   4.575   3.991   2.943  0.1036 -0.4969 -0.3307
 1580SOL    HW110576   4.641   4.002   3.011  2.5503 -0.8994 -2.4702
 1580SOL    HW210577   4.605   4.048   2.872 -1.9091 -0.6601 -1.3667
 1581SOL     OW10578   4.394  10.878   7.556 -0.3710 -0.4689 -0.2495
 1581SOL    HW110579   4.428  10.952   7.606  0.6658 -0.7460 -0.5163
 1581SOL    HW210580   4.333  10.834   7.615  0.7712 -0.7509  0.7585
 1582SOL     OW10581   1.104  10.180   0.797  0.1972  0.0172 -0.2831
 1582SOL    HW110582   1.164  10.234   0.849  0.3323  0.0657 -0.4918
 1582SOL    HW210583   1.078  10.110   0.857 -0.8593  0.9261  0.3776
 1583SOL     OW10584   3.933   3.230   5.393 -0.4483  0.5141  0.0675
 1583SOL    HW110585   3.961   3.150   5.437  0.6480  0.9968  0.2746
 1583SOL    HW210586   3.947   3.214   5.300  0.6465  0.7768  0.1716
 1584SOL     OW10587   8.222   4.148   8.706  0.4104  0.3680  0.4513
 1584SOL    HW110588   8.142   4.097   8.696  0.5422 -0.0723  1.5111
 1584SOL    HW210589   8.285   4.086   8.743  1.7863  0.2186 -1.9282
 1585SOL     OW10590   1.883   0.370   5.841 -0.1969 -0.5154 -0.5356
 1585SOL    HW110591   1.793   0.401   5.850  0.2163  0.8042 -0.7009
 1585SOL    HW210592   1.936   0.450   5.839  0.8871 -1.2239 -1.4732
 1586SOL     OW10593   0.680   5.583   3.772  0.1141 -0.6755  0.0431
 1586SOL    HW110594   0.762   5.579   3.724  0.1820 -1.8619  0.2204
 1586SOL    HW210595   0.696   5.530   3.850 -0.4621  0.0115  0.6361
 1587SOL     OW10596   7.117   4.236   3.135  0.0667 -0.1405  0.7090
 1587SOL    HW110597   7.143   4.297   3.066 -0.4113 -2.5271 -1.7523
 1587SOL    HW210598   7.069   4.290   3.198 -1.9552  1.7849 -2.2440
 1588SOL     OW10599   3.685   4.049   5.737 -0.0058  0.2250 -0.4564
 1588SOL    HW110600   3.601   4.003   5.737  0.0636  0.0339  1.1042
 1588SOL    HW210601   3.685   4.100   5.818  0.8386  1.2772 -1.0809
 1589SOL     OW10602   1.319   5.724  10.887  0.0225 -0.3391  0.2983
 1589SOL    HW110603   1.238   5.680  10.913  0.6706 -0.8485  1.5309
 1589SOL    HW210604   1.291   5.811  10.858 -0.9851 -0.5890  0.4905
 1590SOL     OW10605   8.597   4.001  10.519 -0.3116  0.1239 -0.1749
 1590SOL    HW110606   8.688   4.019  10.496 -0.4730 -0.1787 -1.0648
 1590SOL    HW210607   8.562   3.951  10.445 -1.2185  0.2880  0.1257
 1591SOL     OW10608   7.348   8.195   7.150  0.3468  0.1120 -0.1666
 1591SOL    HW110609   7.349   8.152   7.065  0.0044  0.3266 -0.2814
 1591SOL    HW210610   7.270   8.161   7.194  1.2395 -1.0323  0.6097
 1592SOL     OW10611   0.315   6.682   2.480  0.1549  0.3822  0.4363
 1592SOL    HW110612   0.409   6.674   2.494  0.2683  0.9549  0.0338
 1592SOL    HW210613   0.299   6.634   2.399 -0.1448 -0.9829  1.2662
 1593SOL     OW10614  10.625   4.135   9.201  0.6705 -0.1142  0.2254
 1593SOL    HW110615  10.708   4.121   9.246  0.4724  0.6542  0.8480
 1593SOL    HW210616  10.636   4.091   9.116  1.1739 -1.2664  0.8687
 1594SOL     OW10617   8.840   4.060   4.550  0.2171 -0.3073  0.3544
 1594SOL    HW110618   8.908   3.999   4.579  2.4406  2.2409  0.8813
 1594SOL    HW210619   8.832   4.045   4.456  0.5703 -1.5197  0.5111
 1595SOL     OW10620   8.836   1.797   3.534  0.2035 -0.0244 -0.2646
 1595SOL    HW110621   8.904   1.864   3.540 -0.0880  0.3006 -0.5619
 1595SOL    HW210622   8.754   1.844   3.550 -0.0530 -0.2048 -1.0128
 1596SOL     OW10623   4.894   1.337  10.736 -0.4189 -0.2924  0.3779
 1596SOL    HW110624   4.947   1.371  10.808  1.9227 -2.9837  0.0834
 1596SOL    HW210625   4.868   1.249  10.763 -3.5144  0.3178 -0.2022
 1597SOL     OW10626   1.758   7.048   7.795 -0.6481  0.0777  0.4853
 1597SOL    HW110627   1.781   6.956   7.797  0.2132  0.2557 -0.3494
 1597SOL    HW210628   1.724   7.062   7.707  0.3519  0.7860  0.1840
 1598SOL     OW10629   5.926   1.801   7.021  0.0919  0.3663  0.4593
 1598SOL    HW110630   5.994   1.784   6.956  1.0590  0.2609  1.4724
 1598SOL    HW210631   5.974   1.827   7.099 -1.0924  1.7398  0.7765
 1599SOL     OW10632   0.546   7.820   0.225 -0.6028 -0.1512  0.3049
 1599SOL    HW110633   0.565   7.912   0.247 -0.3368 -0.0053 -0.5118
 1599SOL    HW210634   0.614   7.770   0.270  0.2787  0.1890 -0.6077
 1600SOL     OW10635  10.584  10.890   1.261 -0.0688 -0.4673 -0.5470
 1600SOL    HW110636  10.652  10.827   1.238  1.4479  1.0238 -0.3381
 1600SOL    HW210637  10.632  10.968   1.289 -1.8672  1.0018 -1.3410
 1601SOL     OW10638   0.104   8.654   4.140  0.3986 -0.1980  0.0440
 1601SOL    HW110639   0.121   8.748   4.132 -0.5710 -0.1053 -1.1831
 1601SOL    HW210640   0.174   8.612   4.089 -0.8143  0.0216 -1.9008
 1602SOL     OW10641   2.744   0.493   4.565 -0.4808 -0.2696  0.5619
 1602SOL    HW110642   2.770   0.562   4.504 -1.3960  1.4789  2.0581
 1602SOL    HW210643   2.724   0.418   4.509 -0.5265  1.0063 -1.2189
 1603SOL     OW10644   7.141   0.025   4.753  0.1057  0.5937 -0.3044
 1603SOL    HW110645   7.088  -0.054   4.765 -1.5041  1.5002 -1.0747
 1603SOL    HW210646   7.102   0.069   4.677  1.0868  2.0240 -0.0230
 1604SOL     OW10647   4.343  10.891   0.789 -0.7563 -0.5931 -0.0683
 1604SOL    HW110648   4.382  10.950   0.853 -1.1441 -1.7406  1.2906
 1604SOL    HW210649   4.281  10.839   0.840 -2.5027 -0.2715 -1.7580
 1605SOL     OW10650   6.713   6.215   2.509 -0.0311 -0.4128 -0.3629
 1605SOL    HW110651   6.733   6.135   2.460 -0.2028  0.1218 -1.3417
 1605SOL    HW210652   6.629   6.198   2.550  1.1943 -1.7648  1.7682
 1606SOL     OW10653   3.947   2.776   2.165  0.3913  0.6001  0.2888
 1606SOL    HW110654   3.856   2.792   2.186  0.4059 -0.6574  1.4639
 1606SOL    HW210655   3.987   2.751   2.248  1.2480 -1.2345 -0.6199
 1607SOL     OW10656   8.009   7.520   8.127  0.1593  0.0537  0.0021
 1607SOL    HW110657   8.033   7.430   8.149  0.7213 -0.1700 -1.3947
 1607SOL    HW210658   8.044   7.573   8.199 -0.6741 -0.8751  1.1250
 1608SOL     OW10659   5.802   8.768   9.661  0.4385  0.3152  0.1508
 1608SOL    HW110660   5.752   8.849   9.666 -0.0129 -0.0257  1.5199
 1608SOL    HW210661   5.739   8.700   9.686  0.9632 -0.3898 -0.4222
 1609SOL     OW10662  10.655  10.489   0.472 -0.1488  0.1185 -0.5398
 1609SOL    HW110663  10.682  10.560   0.529 -0.0623  0.3773 -0.8991
 1609SOL    HW210664  10.723  10.484   0.405  0.0311 -0.5407 -0.3128
 1610SOL     OW10665   2.737  10.511   9.473  0.3971 -0.0812  0.6625
 1610SOL    HW110666   2.694  10.430   9.446 -1.2792  0.9751 -0.0026
 1610SOL    HW210667   2.698  10.532   9.557 -0.6785  1.0533 -0.0885
 1611SOL     OW10668   2.027  10.414   0.637  0.6639 -0.4624 -0.7365
 1611SOL    HW110669   2.090  10.425   0.708 -0.6636 -0.2317  0.4466
 1611SOL    HW210670   1.971  10.492   0.642  0.1388 -0.7659 -1.6136
 1612SOL     OW10671   1.276   2.176   5.949  1.1829  0.4352  0.3798
 1612SOL    HW110672   1.269   2.082   5.934  1.5949  0.3619  0.6237
 1612SOL    HW210673   1.294   2.184   6.043  1.7472  0.7198  0.2504
 1613SOL     OW10674   2.931   0.332  10.568  1.0605 -0.5837  0.2527
 1613SOL    HW110675   2.905   0.298  10.653  2.2182  0.0577  0.8964
 1613SOL    HW210676   2.861   0.305  10.508  0.1695 -0.9453  1.4219
 1614SOL     OW10677   4.564   3.406   7.744 -0.5305 -0.0039 -0.5407
 1614SOL    HW110678   4.488   3.400   7.803 -0.3326 -2.3364 -0.4437
 1614SOL    HW210679   4.536   3.358   7.666  1.2493 -2.0938  0.0158
 1615SOL     OW10680   4.836   8.677   1.586 -0.2208  0.1427 -0.1227
 1615SOL    HW110681   4.853   8.586   1.563  0.2096  0.1102  0.3156
 1615SOL    HW210682   4.751   8.674   1.631 -1.1392  0.2289 -1.7689
 1616SOL     OW10683   1.535   5.674   6.620  0.1292  0.2933  0.6245
 1616SOL    HW110684   1.477   5.714   6.685  0.1376 -0.6474  1.2314
 1616SOL    HW210685   1.495   5.588   6.603  0.2458  0.4531 -0.4610
 1617SOL     OW10686  10.824   0.081   4.606  0.0007  0.6568  0.2234
 1617SOL    HW110687  10.890   0.037   4.660  1.7542  1.6885 -0.9872
 1617SOL    HW210688  10.742   0.065   4.652  0.9804 -1.1953  1.4785
 1618SOL     OW10689   9.267   6.288   2.039  0.1966  0.4682  0.1529
 1618SOL    HW110690   9.307   6.303   2.125 -0.5789  0.6922  0.4806
 1618SOL    HW210691   9.293   6.199   2.016 -1.8901 -0.7183  1.9218
 1619SOL     OW10692   4.004   0.800   6.756  0.5267  0.5010 -0.4019
 1619SOL    HW110693   3.941   0.751   6.701  0.7582 -0.7904  0.4381
 1619SOL    HW210694   3.949   0.847   6.818  0.3422 -1.2310  0.8324
 1620SOL     OW10695   8.361   1.075  10.399  0.1681 -0.2873  0.1194
 1620SOL    HW110696   8.311   1.087  10.318  3.0363  1.7393 -1.5171
 1620SOL    HW210697   8.415   0.998  10.383  1.0364  0.3524 -0.1070
 1621SOL     OW10698   7.316  10.085   7.623  0.4295  0.4803  0.0825
 1621SOL    HW110699   7.307  10.048   7.710 -0.2712  1.0851  0.2818
 1621SOL    HW210700   7.401  10.053   7.591  0.8201  0.4885  1.0906
 1622SOL     OW10701   3.992   6.529   3.788  0.5111  0.6712  0.0210
 1622SOL    HW110702   3.937   6.454   3.811  1.3690  0.1036  0.2734
 1622SOL    HW210703   4.017   6.513   3.697  0.3741  0.8541 -0.0491
 1623SOL     OW10704   2.031   1.667   9.935  0.2642  0.3250 -0.1266
 1623SOL    HW110705   2.113   1.675   9.887  1.2208 -1.6174  1.0744
 1623SOL    HW210706   2.055   1.623  10.017 -2.0814 -0.9856 -0.0566
 1624SOL     OW10707   5.499   0.014   8.151  0.3955  0.3736  0.2806
 1624SOL    HW110708   5.511   0.024   8.056  1.8323  1.3206  0.5389
 1624SOL    HW210709   5.470   0.100   8.180 -3.9205 -0.8133  0.2534
 1625SOL     OW10710   0.109  10.143   9.591  0.3891  0.1785 -0.1628
 1625SOL    HW110711   0.139  10.229   9.620 -0.5133  0.7261 -0.8027
 1625SOL    HW210712   0.052  10.112   9.662 -1.0628  1.1037 -0.8749
 1626SOL     OW10713   7.192   3.797   6.104  0.0868 -0.1641 -0.4269
 1626SOL    HW110714   7.266   3.744   6.075 -0.6897 -1.6311  0.1015
 1626SOL    HW210715   7.146   3.740   6.167 -0.5232  1.3531  0.5516
 1627SOL     OW10716   4.592   6.143  10.878 -0.2114 -0.1793 -0.6694
 1627SOL    HW110717   4.574   6.110  10.790  0.6796  1.3979 -1.5049
 1627SOL    HW210718   4.647   6.076  10.918 -1.7867 -1.5766 -0.7687
 1628SOL     OW10719   2.443   6.279   8.249 -0.2577  0.1758  0.2651
 1628SOL    HW110720   2.453   6.357   8.304 -2.3412  1.4950 -1.0602
 1628SOL    HW210721   2.440   6.313   8.159  0.3784 -1.6313 -0.4822
 1629SOL     OW10722   9.971   4.662   9.624 -0.7074 -0.4831  0.1998
 1629SOL    HW110723   9.954   4.582   9.574  4.2755 -2.7512  1.4078
 1629SOL    HW210724   9.938   4.643   9.712  1.7675 -2.0767  0.8852
 1630SOL     OW10725   0.247   7.177   5.344 -0.7047  0.4208  0.5061
 1630SOL    HW110726   0.286   7.209   5.262 -0.9985  0.3510  0.3372
 1630SOL    HW210727   0.262   7.082   5.341 -2.4151  0.1434 -0.3992
 1631SOL     OW10728   9.659   7.492   5.716  0.2937  0.6511 -0.7160
 1631SOL    HW110729   9.700   7.457   5.637  1.7695  1.9744 -0.5815
 1631SOL    HW210730   9.697   7.440   5.787 -0.4089  0.0193 -0.7830
 1632SOL     OW10731   3.203   4.141  10.079  0.1419 -0.0520  0.1535
 1632SOL    HW110732   3.152   4.220  10.058 -0.0809 -0.6545 -1.7801
 1632SOL    HW210733   3.147   4.092  10.139 -1.3547 -0.3948 -1.4242
 1633SOL     OW10734   0.176   4.216  10.750 -0.8358 -0.0891 -0.1284
 1633SOL    HW110735   0.164   4.305  10.716 -1.8819 -0.1874 -0.0593
 1633SOL    HW210736   0.089   4.177  10.746 -0.7569 -0.5181  1.5181
 1634SOL     OW10737   6.093   5.476   9.206  0.0929  0.0427 -0.0506
 1634SOL    HW110738   6.096   5.480   9.301 -0.8295 -0.1074 -0.0047
 1634SOL    HW210739   6.162   5.535   9.177  0.1128  0.4009  0.7080
 1635SOL     OW10740   1.346   5.955   6.262  0.1770  0.0323 -0.7633
 1635SOL    HW110741   1.397   5.952   6.343  1.3660 -0.7024 -1.5133
 1635SOL    HW210742   1.315   6.045   6.256  1.4149  0.5074 -0.2935
 1636SOL     OW10743   3.859   5.871   0.319  0.3554 -0.1366  0.0748
 1636SOL    HW110744   3.898   5.928   0.385 -0.1014  1.0453 -0.6482
 1636SOL    HW210745   3.933   5.828   0.278  0.8382  1.0809 -0.3779
 1637SOL     OW10746  10.591   5.756   4.097 -0.0307  0.3221  0.0948
 1637SOL    HW110747  10.640   5.822   4.147  0.2069  0.3897 -0.2304
 1637SOL    HW210748  10.618   5.673   4.135  0.5917  0.3383 -0.3065
 1638SOL     OW10749   4.361   0.632   6.710  0.2343  0.0848 -0.0191
 1638SOL    HW110750   4.455   0.644   6.701  0.4363 -0.7046  0.9009
 1638SOL    HW210751   4.324   0.720   6.700  0.9771  0.2859 -1.2435
 1639SOL     OW10752   5.029   9.474   2.646 -0.2242 -0.3398 -0.2822
 1639SOL    HW110753   4.973   9.411   2.601  0.4639  0.7925 -2.9102
 1639SOL    HW210754   5.116   9.434   2.644  0.0041  0.1654 -0.9549
 1640SOL     OW10755   6.116   3.086   9.608 -0.2137 -0.2450 -0.4988
 1640SOL    HW110756   6.025   3.061   9.623  0.7645 -3.1365  1.6147
 1640SOL    HW210757   6.134   3.061   9.517 -1.2922 -0.3702 -0.6853
 1641SOL     OW10758   8.218   6.602   0.772 -0.3891 -0.0666 -0.0025
 1641SOL    HW110759   8.243   6.512   0.794  1.0511  0.2490 -0.2144
 1641SOL    HW210760   8.240   6.611   0.679 -0.4656  0.5187  0.0327
 1642SOL     OW10761   1.657   9.424   1.801  0.4867  0.6647 -0.1526
 1642SOL    HW110762   1.585   9.377   1.844  0.1923  0.3861 -0.9270
 1642SOL    HW210763   1.735   9.400   1.851  0.0101  1.1786  0.8550
 1643SOL     OW10764   3.907   8.313   8.142  0.1314 -0.3443  0.1483
 1643SOL    HW110765   3.996   8.338   8.168 -0.6039  1.5981  0.9774
 1643SOL    HW210766   3.851   8.357   8.206 -1.5887  1.3832 -2.3961
 1644SOL     OW10767   4.968   8.652   2.938  0.0308 -0.3231 -0.2648
 1644SOL    HW110768   4.931   8.699   2.863 -0.2000  0.0110  0.0535
 1644SOL    HW210769   5.062   8.672   2.935  0.1709 -1.0439 -0.9841
 1645SOL     OW10770   8.634   3.803   3.295  0.3026 -0.1595 -0.1934
 1645SOL    HW110771   8.611   3.892   3.270  0.0810  0.5356  2.2795
 1645SOL    HW210772   8.725   3.808   3.324 -0.1222 -0.4044  1.2756
 1646SOL     OW10773   9.963   3.811   9.388  0.2331 -0.1632  0.4992
 1646SOL    HW110774  10.036   3.785   9.443  0.4195 -1.1281 -0.1664
 1646SOL    HW210775  10.003   3.855   9.313  0.0743  0.0293  0.5266
 1647SOL     OW10776   2.398   1.318   3.422 -0.0498 -0.3523 -0.3477
 1647SOL    HW110777   2.371   1.235   3.463 -1.5073  0.5138  0.5405
 1647SOL    HW210778   2.361   1.314   3.334  0.4906 -0.9261 -0.5611
 1648SOL     OW10779   6.599   2.957   2.338  0.0699 -0.0349 -0.1265
 1648SOL    HW110780   6.604   2.947   2.433 -3.6839  0.0201  0.2170
 1648SOL    HW210781   6.577   2.869   2.306  1.2883 -0.0522 -0.9898
 1649SOL     OW10782   5.486   1.700   8.182 -0.2858 -0.3200 -0.3492
 1649SOL    HW110783   5.537   1.779   8.199 -0.5340 -0.4584  1.1325
 1649SOL    HW210784   5.520   1.635   8.243 -0.4525 -1.2080 -1.1798
 1650SOL     OW10785   3.002   7.078   2.710 -0.1348  0.5663  0.2363
 1650SOL    HW110786   3.027   7.170   2.708  0.9854  0.3357 -3.4155
 1650SOL    HW210787   3.082   7.033   2.737 -0.5187  0.5758  1.4514
 1651SOL     OW10788   0.326   5.675   1.330 -0.1260 -0.0320 -0.4600
 1651SOL    HW110789   0.389   5.604   1.339  0.1939  0.2945 -0.1133
 1651SOL    HW210790   0.302   5.674   1.237 -0.1628 -0.6180 -0.4493
 1652SOL     OW10791   1.725   1.157   2.094 -0.5824  0.1792 -0.0619
 1652SOL    HW110792   1.635   1.146   2.063 -0.4076  1.6169 -1.1627
 1652SOL    HW210793   1.778   1.107   2.032 -0.6109 -0.7752  0.6615
 1653SOL     OW10794   7.836   7.711   8.043  0.0862  0.8021  0.1566
 1653SOL    HW110795   7.907   7.647   8.046 -0.2273  0.3920 -0.9667
 1653SOL    HW210796   7.880   7.794   8.022  0.2134  0.5052 -0.7736
 1654SOL     OW10797   3.464  10.876   5.002  0.2115 -0.1782  0.2562
 1654SOL    HW110798   3.414  10.948   5.039 -1.0411 -1.1775  0.5636
 1654SOL    HW210799   3.460  10.889   4.908 -1.0019 -0.4660  0.2565
 1655SOL     OW10800   1.360   5.796   6.776 -0.4998 -0.3220 -0.0593
 1655SOL    HW110801   1.307   5.874   6.756  1.5601  0.7798 -1.5958
 1655SOL    HW210802   1.298   5.735   6.816 -2.4177  1.7161  0.2896
 1656SOL     OW10803   4.752   2.871   5.666  0.1594  0.2342  0.0092
 1656SOL    HW110804   4.685   2.918   5.716  0.6971  0.5483  0.4447
 1656SOL    HW210805   4.733   2.778   5.682 -0.4303  0.3115 -0.2213
 1657SOL     OW10806   1.040   5.313   2.499 -0.1892 -0.4748  0.0061
 1657SOL    HW110807   1.128   5.352   2.498  0.0803 -0.9879 -2.2953
 1657SOL    HW210808   1.045   5.243   2.564  0.9775 -0.2188  0.2124
 1658SOL     OW10809   8.247   0.727   1.153  0.3066  0.3848 -0.5884
 1658SOL    HW110810   8.242   0.810   1.106 -0.6088  1.4419  1.2735
 1658SOL    HW210811   8.340   0.703   1.149  1.1622  2.9376  1.1030
 1659SOL     OW10812   5.681   9.767   5.774 -0.3723  0.2516 -0.2055
 1659SOL    HW110813   5.689   9.824   5.698  1.2396  0.8784  0.3818
 1659SOL    HW210814   5.771   9.738   5.792 -0.6214  0.5233  1.7207
 1660SOL     OW10815   7.169   8.402   6.850  0.7855 -0.1849  0.0766
 1660SOL    HW110816   7.263   8.385   6.847  0.8057 -0.0612 -0.0248
 1660SOL    HW210817   7.128   8.315   6.849  0.8749 -0.2253 -0.8303
 1661SOL     OW10818   0.929   0.507   5.052 -0.6961  0.3981 -0.0742
 1661SOL    HW110819   0.895   0.433   5.002 -0.4359 -1.3264  2.1048
 1661SOL    HW210820   0.851   0.553   5.084 -0.8668  0.6961 -0.9135
 1662SOL     OW10821   7.807  10.407   8.066 -0.0638 -0.1669  0.5223
 1662SOL    HW110822   7.729  10.447   8.029 -0.0932  0.2844  1.0552
 1662SOL    HW210823   7.867  10.398   7.993 -1.1657 -1.9341 -0.2376
 1663SOL     OW10824   8.941  10.020   0.881 -0.3305 -0.4692  0.0271
 1663SOL    HW110825   9.022   9.979   0.853 -0.3087 -1.1851  1.0950
 1663SOL    HW210826   8.881   9.947   0.897 -1.4059  0.0608 -1.3245
 1664SOL     OW10827   9.090   0.062   7.570  0.4971  0.2944  0.1010
 1664SOL    HW110828   9.043  -0.011   7.530 -0.9344 -0.2804  2.5779
 1664SOL    HW210829   9.157   0.019   7.625  0.2232  0.8472  0.8898
 1665SOL     OW10830   3.290   6.294  10.265  0.0240  0.0881  0.2122
 1665SOL    HW110831   3.298   6.203  10.237  0.5263  0.3980 -0.7031
 1665SOL    HW210832   3.380   6.328  10.261  0.2755 -0.0554  2.9866
 1666SOL     OW10833   4.977   5.954  10.637 -0.1904  0.0791 -0.7422
 1666SOL    HW110834   4.909   5.905  10.683  0.5726  0.1039  0.4384
 1666SOL    HW210835   4.998   6.027  10.695  0.9228  0.0078 -1.0361
 1667SOL     OW10836   8.660   7.211   6.108  0.0103 -0.1046 -0.0395
 1667SOL    HW110837   8.607   7.215   6.028 -1.9195 -1.4391  1.0949
 1667SOL    HW210838   8.701   7.125   6.105 -0.6009 -0.4281  0.7065
 1668SOL     OW10839   9.239   7.243   5.964 -0.2399  0.2869 -0.0197
 1668SOL    HW110840   9.312   7.268   6.021 -0.7511  0.1711  0.6819
 1668SOL    HW210841   9.266   7.274   5.877  1.8040 -1.9582 -0.2842
 1669SOL     OW10842   6.099   8.376   7.571 -0.5012 -0.3485  0.4130
 1669SOL    HW110843   6.047   8.432   7.513 -1.1217  0.4431  1.6835
 1669SOL    HW210844   6.034   8.329   7.624  0.0317 -1.8798 -0.2378
 1670SOL     OW10845  10.016   9.888   7.830 -0.0796  0.1607 -0.3357
 1670SOL    HW110846   9.939   9.943   7.845  1.1604  1.7845  0.2805
 1670SOL    HW210847  10.086   9.930   7.879  0.8017 -2.3554  0.7275
 1671SOL     OW10848   2.855   9.315   3.639 -0.0025 -0.3833  0.6689
 1671SOL    HW110849   2.827   9.233   3.681  0.7338 -0.3194  1.3172
 1671SOL    HW210850   2.865   9.376   3.712  0.9424 -0.1558  0.3624
 1672SOL     OW10851   4.544   7.489   5.704 -0.0723 -0.1368 -0.0336
 1672SOL    HW110852   4.638   7.468   5.697 -0.8056 -4.1440 -0.4915
 1672SOL    HW210853   4.528   7.494   5.798  0.3723 -0.9108  0.0939
 1673SOL     OW10854  10.291   0.132   4.726  0.1378 -0.2692  0.4603
 1673SOL    HW110855  10.251   0.152   4.810  0.8696  0.8416  0.5730
 1673SOL    HW210856  10.218   0.128   4.664 -0.2913  0.1868  0.9293
 1674SOL     OW10857   7.650   4.901   8.778 -0.0004  0.2020 -0.2980
 1674SOL    HW110858   7.625   4.828   8.835 -1.4321 -0.1437 -1.3293
 1674SOL    HW210859   7.679   4.859   8.697  1.5431  0.7103 -0.0435
 1675SOL     OW10860   8.201   2.302   2.714 -0.3285  0.3993  0.4061
 1675SOL    HW110861   8.219   2.359   2.789 -3.1131  0.1930  1.3215
 1675SOL    HW210862   8.240   2.218   2.738 -0.9726  0.4057  1.5583
 1676SOL     OW10863   7.048   0.589   4.559  0.2374 -0.1432 -0.4346
 1676SOL    HW110864   7.135   0.566   4.524 -0.3942 -1.7397 -1.0402
 1676SOL    HW210865   7.033   0.678   4.528  1.6375  0.1608 -0.3407
 1677SOL     OW10866  10.701   2.300   3.010  0.0912  0.0737 -0.0335
 1677SOL    HW110867  10.729   2.221   3.057  2.9917  0.2202 -1.2781
 1677SOL    HW210868  10.608   2.307   3.028  0.1629 -2.4251  1.8747
 1678SOL     OW10869  10.159   5.075   2.625  0.3160  0.1906 -0.9125
 1678SOL    HW110870  10.241   5.117   2.599  1.1781 -0.2764  0.8714
 1678SOL    HW210871  10.145   5.006   2.560  2.2191 -0.7617 -0.3785
 1679SOL     OW10872   6.252   5.969   3.925  0.7417 -0.4990 -0.7095
 1679SOL    HW110873   6.345   5.987   3.913  0.5653 -0.0807 -1.4642
 1679SOL    HW210874   6.221   5.939   3.840  0.0507 -0.0394 -0.6344
 1680SOL     OW10875   1.500   0.709   2.514 -0.3726 -0.0357  0.0834
 1680SOL    HW110876   1.529   0.620   2.494 -0.4109  0.3205 -1.8055
 1680SOL    HW210877   1.579   0.753   2.547 -0.3880 -0.7800  1.1578
 1681SOL     OW10878   5.636   7.500   4.065 -0.3699 -0.3483 -0.2331
 1681SOL    HW110879   5.656   7.446   3.989  1.4255 -1.2020  0.7802
 1681SOL    HW210880   5.637   7.590   4.032 -2.0781 -0.8228 -1.6791
 1682SOL     OW10881   8.838  10.750   1.867  0.4782 -0.2871  0.4022
 1682SOL    HW110882   8.891  10.826   1.888  0.2999  0.5857 -1.9558
 1682SOL    HW210883   8.901  10.679   1.856  1.0012  0.3098 -0.5676
 1683SOL     OW10884   4.596   5.350   6.675 -0.5712 -0.3087 -0.1474
 1683SOL    HW110885   4.647   5.271   6.659  0.8937  0.5996 -0.0772
 1683SOL    HW210886   4.638   5.392   6.750 -1.5911  0.3277  0.0946
 1684SOL     OW10887   1.990   5.885   0.504  0.3194  0.4425 -0.0930
 1684SOL    HW110888   2.085   5.875   0.495  0.2469 -1.7462  0.8907
 1684SOL    HW210889   1.957   5.882   0.414  1.2307  2.4326 -0.5366
 1685SOL     OW10890   5.128  10.045   1.871  0.0173  1.1730 -0.0060
 1685SOL    HW110891   5.129  10.130   1.827  0.4632  0.1679 -2.0223
 1685SOL    HW210892   5.092   9.984   1.807  2.0323 -0.6278  0.4288
 1686SOL     OW10893   7.633   2.035   4.425 -0.2609  0.1779 -0.0773
 1686SOL    HW110894   7.719   2.074   4.419 -0.2233 -0.0097 -0.7893
 1686SOL    HW210895   7.588   2.061   4.345 -0.1005 -1.5188 -0.7543
 1687SOL     OW10896   9.061   3.877   4.470  0.6737  0.0974 -0.2931
 1687SOL    HW110897   9.133   3.919   4.423  0.3031  0.5165 -0.4955
 1687SOL    HW210898   9.102   3.834   4.545  0.8907  2.2181  0.8831
 1688SOL     OW10899   5.746   8.385   6.494 -0.4692  0.5851 -0.3252
 1688SOL    HW110900   5.722   8.356   6.582 -0.6057  1.2069 -0.1469
 1688SOL    HW210901   5.688   8.336   6.436  0.1444 -0.3991 -0.1330
 1689SOL     OW10902   8.465   4.653   9.835 -0.1649 -0.4371  0.4508
 1689SOL    HW110903   8.552   4.650   9.874 -0.2535  1.3808  0.8894
 1689SOL    HW210904   8.405   4.650   9.909 -0.5695 -2.9543  0.0958
 1690SOL     OW10905   6.604  10.780   5.617 -0.7070  0.5475 -0.4374
 1690SOL    HW110906   6.644  10.853   5.570 -0.2527  1.3309  1.0946
 1690SOL    HW210907   6.551  10.735   5.551  1.3559  0.4605 -2.1358
 1691SOL     OW10908  10.904   4.619   0.867  0.1333  0.3415  0.4004
 1691SOL    HW110909  10.981   4.571   0.896  0.3619  1.3246  1.5167
 1691SOL    HW210910  10.838   4.552   0.851  1.9039 -0.7938 -3.1237
 1692SOL     OW10911   1.008  10.582   9.998 -0.0126 -0.2437 -0.1707
 1692SOL    HW110912   1.035  10.618  10.082 -0.3652 -1.5707  0.5419
 1692SOL    HW210913   1.009  10.487  10.012  0.3536 -0.5074 -1.7934
 1693SOL     OW10914   0.858   2.514   5.436  0.4117 -0.3856 -0.3666
 1693SOL    HW110915   0.785   2.525   5.497  0.9696 -1.7403  0.5917
 1693SOL    HW210916   0.824   2.543   5.352 -1.8671 -2.7077 -0.3436
 1694SOL     OW10917   7.729   8.252   4.853 -0.5525 -0.3116  0.2034
 1694SOL    HW110918   7.772   8.232   4.936  2.0529  0.8051 -0.7758
 1694SOL    HW210919   7.784   8.210   4.787 -1.8596 -0.1100 -1.0498
 1695SOL     OW10920   4.878   1.517   1.428  0.2124 -0.4826  0.4380
 1695SOL    HW110921   4.889   1.524   1.522  0.8171 -0.8976  0.4057
 1695SOL    HW210922   4.904   1.603   1.394 -0.1403 -0.2877  0.6570
 1696SOL     OW10923   0.825   4.889  10.231  0.1140  0.3547  0.1608
 1696SOL    HW110924   0.889   4.853  10.169  1.2685 -1.1858  2.1449
 1696SOL    HW210925   0.807   4.977  10.198  0.7741 -0.3390 -2.2553
 1697SOL     OW10926   1.827   5.237   0.008 -0.2401 -0.0941  0.2797
 1697SOL    HW110927   1.781   5.159   0.040  0.1075 -0.8527 -0.9863
 1697SOL    HW210928   1.814   5.302   0.076 -1.1688 -1.0337  1.0382
 1698SOL     OW10929   1.451   2.230   8.300  0.3855 -0.7031  0.1334
 1698SOL    HW110930   1.443   2.271   8.386  1.4137 -1.9473  0.8531
 1698SOL    HW210931   1.363   2.238   8.262  0.6781  2.8498 -0.1583
 1699SOL     OW10932   3.447   2.217   4.129  0.5254 -0.2327 -0.6042
 1699SOL    HW110933   3.447   2.129   4.089 -1.7330 -1.1887  1.2760
 1699SOL    HW210934   3.493   2.205   4.212 -0.0142  0.3066 -0.2250
 1700SOL     OW10935   2.651   7.928   0.637 -0.1307  0.0685  0.4023
 1700SOL    HW110936   2.574   7.885   0.600  0.8902 -0.6797 -0.9471
 1700SOL    HW210937   2.688   7.978   0.564  0.9384  0.0195  0.8954
 1701SOL     OW10938   7.860   6.500   5.939  0.0365 -0.1231  0.0181
 1701SOL    HW110939   7.899   6.417   5.966  1.0570  0.5166  0.5346
 1701SOL    HW210940   7.896   6.565   5.999 -0.0793  0.8368 -0.9152
 1702SOL     OW10941   2.582   0.827   0.752 -0.7514  0.4465 -0.0496
 1702SOL    HW110942   2.600   0.794   0.664  0.9208  0.5577  0.2096
 1702SOL    HW210943   2.626   0.764   0.810 -1.6603  0.4871  0.7050
 1703SOL     OW10944   1.001   5.086   1.382 -0.0907  0.1506  0.5684
 1703SOL    HW110945   0.912   5.121   1.392 -0.1692 -0.1026  0.7826
 1703SOL    HW210946   1.004   5.052   1.293 -0.7657 -1.3500  1.0732
 1704SOL     OW10947   6.684   3.711   9.817 -0.0090 -0.1957 -0.0233
 1704SOL    HW110948   6.751   3.777   9.804 -0.8807  1.0440  1.4208
 1704SOL    HW210949   6.629   3.715   9.738  0.3094  0.3509 -0.2160
 1705SOL     OW10950   7.064   3.084   3.974 -1.0263 -0.1382 -0.3262
 1705SOL    HW110951   7.156   3.087   3.947 -0.6017  1.2897  1.1259
 1705SOL    HW210952   7.028   3.008   3.928 -0.0820  1.3232 -3.8501
 1706SOL     OW10953   4.278   7.464  10.051  0.0682 -0.3180  0.0439
 1706SOL    HW110954   4.290   7.370  10.061  0.0924 -0.3167  0.0283
 1706SOL    HW210955   4.224   7.473   9.972 -0.3097 -0.3382  0.3005
 1707SOL     OW10956   8.040   3.950   4.924 -0.6472 -0.1990 -1.3394
 1707SOL    HW110957   8.046   3.884   4.855 -2.4291  0.0411 -1.7672
 1707SOL    HW210958   8.119   4.002   4.915  0.2778 -1.6040 -1.6798
 1708SOL     OW10959   8.240   5.440   6.477  0.1247  0.2641  0.2313
 1708SOL    HW110960   8.297   5.422   6.402  1.1497 -0.8808  1.2384
 1708SOL    HW210961   8.281   5.393   6.550 -2.7544 -1.7386  0.7428
 1709SOL     OW10962   6.814   1.263   4.450 -0.0446  0.4246 -0.5282
 1709SOL    HW110963   6.906   1.244   4.465  0.4620  1.9302 -1.5454
 1709SOL    HW210964   6.768   1.184   4.480  1.4429  0.1895  1.3033
 1710SOL     OW10965   5.125   7.490   4.099 -0.4544  0.0191  0.1129
 1710SOL    HW110966   5.093   7.578   4.083 -0.2479  0.3085  1.1994
 1710SOL    HW210967   5.068   7.455   4.168 -0.0565 -0.4136  0.2307
 1711SOL     OW10968   5.412   6.457   0.819  0.2469  0.1809  0.6637
 1711SOL    HW110969   5.437   6.528   0.759  1.5460  0.9730  2.0681
 1711SOL    HW210970   5.387   6.385   0.761  0.7933  1.1327 -0.8255
 1712SOL     OW10971   4.977  10.872   5.638 -0.1650 -0.6791 -0.1155
 1712SOL    HW110972   4.991  10.778   5.626  0.7149 -0.5945  0.1172
 1712SOL    HW210973   5.046  10.899   5.699 -1.3780 -0.1588  1.0853
 1713SOL     OW10974  10.065   2.234  10.916 -0.2236 -0.0271 -0.0166
 1713SOL    HW110975  10.007   2.182  10.860  0.4162  0.5281 -1.2290
 1713SOL    HW210976  10.153   2.213  10.885  0.2057 -0.3328  1.3422
 1714SOL     OW10977   1.878   8.487   2.748  0.3599 -0.7188 -0.5704
 1714SOL    HW110978   1.926   8.407   2.768 -0.4110 -1.2394 -0.7999
 1714SOL    HW210979   1.810   8.492   2.814 -1.0597 -1.4908 -1.9183
 1715SOL     OW10980   8.658  10.524   9.099  0.1020  0.3363  0.2822
 1715SOL    HW110981   8.606  10.494   9.025  1.2944  0.1281 -0.5059
 1715SOL    HW210982   8.616  10.485   9.176  0.5463 -1.9102 -0.5418
 1716SOL     OW10983   6.627   2.715   8.344 -0.2430  0.2240 -0.6572
 1716SOL    HW110984   6.687   2.780   8.381 -1.1623  0.7444 -0.0162
 1716SOL    HW210985   6.599   2.753   8.261 -1.3982  1.0660  0.0841
 1717SOL     OW10986   8.319   2.410   0.158 -0.1852  0.1212 -0.4734
 1717SOL    HW110987   8.298   2.496   0.124 -0.9185  0.5571  0.9905
 1717SOL    HW210988   8.414   2.402   0.148 -0.3351  0.3070 -2.3182
 1718SOL     OW10989   3.717   4.973   3.040 -0.1570 -0.4949 -0.0506
 1718SOL    HW110990   3.624   4.963   3.016 -0.8840  3.4719  0.5076
 1718SOL    HW210991   3.720   4.952   3.133 -1.0633  1.6287  0.5091
 1719SOL     OW10992   7.708   2.267   1.294 -0.0857  0.1976  0.1481
 1719SOL    HW110993   7.789   2.264   1.243  1.1158  1.3152  1.8494
 1719SOL    HW210994   7.731   2.224   1.377 -0.8427  1.5491  1.1062
 1720SOL     OW10995   8.178   5.517   4.841 -0.5397 -0.0952  0.0091
 1720SOL    HW110996   8.120   5.593   4.848 -2.8219 -1.6326 -0.8193
 1720SOL    HW210997   8.127   5.452   4.792  1.2957 -2.1711  0.6506
 1721SOL     OW10998  10.062   4.407   4.535 -0.5573  0.3305 -0.5040
 1721SOL    HW110999  10.102   4.493   4.544  0.0321  0.0049  0.0863
 1721SOL    HW211000   9.970   4.420   4.560 -0.6345  0.9135 -1.0698
 1722SOL     OW11001   3.523   5.815   2.063 -0.0634 -0.1205 -0.5623
 1722SOL    HW111002   3.559   5.729   2.042  1.6045  0.1563  0.9264
 1722SOL    HW211003   3.431   5.799   2.082  0.4213 -1.7556  0.6077
 1723SOL     OW11004   5.700   4.068  10.168  0.5990  0.0725  0.6847
 1723SOL    HW111005   5.693   4.152  10.214  2.6022 -0.2891  1.7579
 1723SOL    HW211006   5.793   4.047  10.169  0.2276 -1.8999 -0.0876
 1724SOL     OW11007   2.385   6.784   9.810  0.4530 -0.2617 -0.1672
 1724SOL    HW111008   2.465   6.769   9.761  1.5675  1.3004  1.0742
 1724SOL    HW211009   2.339   6.700   9.807  3.0173 -1.8026  0.6709
 1725SOL     OW11010   5.163   4.451   0.806 -0.3886 -0.6306  0.3444
 1725SOL    HW111011   5.195   4.529   0.761  0.6690 -1.6821 -0.7998
 1725SOL    HW211012   5.228   4.435   0.875 -0.7643 -0.3450  0.7708
 1726SOL     OW11013   8.668   5.150   5.000  0.5515 -0.3443 -0.1322
 1726SOL    HW111014   8.720   5.183   5.074 -1.4871  0.6736  0.9158
 1726SOL    HW211015   8.689   5.210   4.928  0.5582  0.2732  0.3776
 1727SOL     OW11016   8.313   5.563   1.679 -0.1072  0.1512 -0.3209
 1727SOL    HW111017   8.381   5.497   1.694  1.1646  1.2367 -1.1110
 1727SOL    HW211018   8.233   5.521   1.711  0.9783 -0.9951  1.0930
 1728SOL     OW11019   6.236   5.605   5.903 -0.2709 -0.0862 -0.5577
 1728SOL    HW111020   6.144   5.594   5.925 -0.1920 -1.7058 -0.9557
 1728SOL    HW211021   6.237   5.679   5.842 -1.1556  0.6415  0.2723
 1729SOL     OW11022   9.816   0.435   9.876  0.5998 -0.5301 -0.0430
 1729SOL    HW111023   9.849   0.347   9.860  1.1123 -0.8268  2.2831
 1729SOL    HW211024   9.893   0.484   9.907 -0.5064 -0.5932  3.1737
 1730SOL     OW11025   2.720  10.462   2.926  0.0489 -0.1559  0.3639
 1730SOL    HW111026   2.670  10.390   2.887  1.0726 -1.4861  1.4396
 1730SOL    HW211027   2.780  10.489   2.856 -0.8855  0.2432 -0.3198
 1731SOL     OW11028   3.437   3.165  10.511 -0.2775 -0.1947 -0.4191
 1731SOL    HW111029   3.496   3.162  10.586  0.6593 -3.5600 -1.1530
 1731SOL    HW211030   3.350   3.148  10.547 -0.1821  0.3966  0.1148
 1732SOL     OW11031   3.954   3.462   8.060  0.0216  0.4012  0.4214
 1732SOL    HW111032   3.968   3.552   8.091 -1.1868  0.1740  1.7033
 1732SOL    HW211033   3.860   3.447   8.071  0.0639 -0.7532 -0.5785
 1733SOL     OW11034   3.966   2.310   8.526 -0.0896 -0.2038 -0.0646
 1733SOL    HW111035   4.060   2.326   8.520  0.0136  0.0023  1.6278
 1733SOL    HW211036   3.953   2.226   8.481  0.9038 -0.2397 -0.2961
 1734SOL     OW11037   5.599   8.775   7.631  0.4441 -0.2338 -0.0189
 1734SOL    HW111038   5.559   8.746   7.549  0.3361 -1.5959  0.4972
 1734SOL    HW211039   5.682   8.816   7.604 -0.4396  1.0307 -0.9412
 1735SOL     OW11040   2.721   6.174   4.779 -0.1778 -0.7089 -0.3879
 1735SOL    HW111041   2.696   6.085   4.756  0.9273 -0.8780 -1.0187
 1735SOL    HW211042   2.660   6.199   4.848 -2.4043 -0.8639 -2.1910
 1736SOL     OW11043   8.372   5.696   0.951  0.2461 -0.1115 -0.4870
 1736SOL    HW111044   8.451   5.725   0.906  0.3384 -0.3981 -0.5134
 1736SOL    HW211045   8.300   5.721   0.893  0.2890  0.5277 -0.2663
 1737SOL     OW11046   2.257   7.845   3.002  0.2472 -0.2122  0.2003
 1737SOL    HW111047   2.259   7.880   2.913 -1.1614  0.1290  0.2703
 1737SOL    HW211048   2.349   7.835   3.026  0.6760  1.2387 -0.6865
 1738SOL     OW11049   6.626   1.421   5.988 -0.1997 -0.1965  0.2565
 1738SOL    HW111050   6.680   1.348   6.018  0.1826 -0.1178 -0.2298
 1738SOL    HW211051   6.685   1.475   5.937 -0.7074 -0.0424 -0.1809
 1739SOL     OW11052   4.799   1.125   0.615  0.5509  1.0920  0.1996
 1739SOL    HW111053   4.738   1.098   0.685  0.3055  1.7617  0.2603
 1739SOL    HW211054   4.824   1.044   0.572 -1.5073  0.8959 -0.7456
 1740SOL     OW11055   8.945   7.294   2.553 -0.8828  0.5414  0.3708
 1740SOL    HW111056   8.865   7.342   2.531 -0.2238  0.7592 -1.8780
 1740SOL    HW211057   9.014   7.361   2.548 -0.1392 -0.2802 -1.3738
 1741SOL     OW11058   6.696   9.904   4.008 -0.4839 -0.4119 -0.2476
 1741SOL    HW111059   6.719   9.986   3.965  1.0255 -0.2668  0.7624
 1741SOL    HW211060   6.780   9.859   4.021 -0.8462 -0.4281  2.5400
 1742SOL     OW11061   1.261   2.130   3.948 -0.2581  0.1677 -0.0509
 1742SOL    HW111062   1.281   2.083   4.029 -0.2258 -1.2470 -0.8508
 1742SOL    HW211063   1.292   2.219   3.964  1.5013 -0.5453  0.8190
 1743SOL     OW11064   6.017   6.678   6.920 -0.0074  0.2834 -0.6650
 1743SOL    HW111065   5.948   6.732   6.959  0.8926  0.7170  0.3795
 1743SOL    HW211066   6.084   6.741   6.895  1.0004 -0.3180  0.4416
 1744SOL     OW11067   8.172   1.824   9.449  0.1923 -0.0622  0.0769
 1744SOL    HW111068   8.248   1.808   9.394  0.9712 -1.7120  1.5142
 1744SOL    HW211069   8.208   1.861   9.530 -0.4271 -1.2660  0.9491
 1745SOL     OW11070   2.515   7.120   6.525 -0.4037 -0.2935 -0.3845
 1745SOL    HW111071   2.454   7.124   6.599 -1.0629  0.8428 -0.9663
 1745SOL    HW211072   2.561   7.036   6.537 -0.7954 -0.3385  1.0620
 1746SOL     OW11073   2.298   2.581   1.594 -0.3763  0.8747  0.0200
 1746SOL    HW111074   2.352   2.628   1.530 -0.6233 -0.4507 -1.2210
 1746SOL    HW211075   2.337   2.493   1.597 -0.2449  0.9588  1.8799
 1747SOL     OW11076   6.642   6.954   5.985  0.1086  0.1547  0.2507
 1747SOL    HW111077   6.560   6.936   6.032  0.8693  0.3279  1.6808
 1747SOL    HW211078   6.704   6.889   6.019  0.1581 -1.1415 -2.0827
 1748SOL     OW11079  10.627   8.865   7.467  0.2675  0.2997 -0.2089
 1748SOL    HW111080  10.563   8.875   7.396  1.0406  1.1754 -0.8080
 1748SOL    HW211081  10.706   8.832   7.424  0.5323  0.1826  0.3558
 1749SOL     OW11082   1.003   6.069   7.609  0.1984 -0.5424 -0.2859
 1749SOL    HW111083   0.924   6.042   7.657 -1.1230 -0.2065 -2.1667
 1749SOL    HW211084   0.970   6.114   7.532  2.2768  0.3792 -0.7019
 1750SOL     OW11085   3.298  10.715  10.486  0.2013  0.2289 -0.5969
 1750SOL    HW111086   3.321  10.628  10.455  1.5978  0.2115  0.3724
 1750SOL    HW211087   3.208  10.707  10.517  0.0715 -0.6729 -1.1881
 1751SOL     OW11088   8.229   7.429   9.819 -0.5202  0.0791 -0.1640
 1751SOL    HW111089   8.188   7.485   9.752 -0.7046 -0.9621 -0.9494
 1751SOL    HW211090   8.200   7.466   9.902  1.1187  2.4685 -0.5762
 1752SOL     OW11091   0.935   6.713   6.361 -0.0360  0.0253  0.7391
 1752SOL    HW111092   1.013   6.695   6.413 -1.2544 -0.6745  2.3718
 1752SOL    HW211093   0.916   6.631   6.316 -0.2649 -0.0203  0.9209
 1753SOL     OW11094   8.634   6.851   5.898  0.0924 -0.0559  0.0364
 1753SOL    HW111095   8.596   6.866   5.984  1.3092  1.2287  0.3889
 1753SOL    HW211096   8.560   6.824   5.843 -0.9694  0.5935  1.1025
 1754SOL     OW11097   2.480   2.280   8.624 -0.7577 -0.0066  0.1777
 1754SOL    HW111098   2.406   2.335   8.648 -0.3745  0.7164 -0.2638
 1754SOL    HW211099   2.549   2.342   8.599 -0.8304 -0.6759 -1.8793
 1755SOL     OW11100   1.078   7.003   1.979 -0.1794  0.8799 -0.1461
 1755SOL    HW111101   1.086   7.071   2.046  0.4531  0.9816 -0.3149
 1755SOL    HW211102   1.160   7.009   1.930 -0.6961  0.8993 -1.0202
 1756SOL     OW11103   7.674   6.324   3.977 -0.6966  0.2853 -0.0160
 1756SOL    HW111104   7.676   6.234   3.944  1.5342 -0.3720  1.6466
 1756SOL    HW211105   7.660   6.378   3.899 -0.5006 -1.4280 -1.2925
 1757SOL     OW11106   8.507   3.465   8.107  0.2293 -0.1109  0.7880
 1757SOL    HW111107   8.470   3.465   8.195 -0.3517 -1.1147  0.5624
 1757SOL    HW211108   8.470   3.387   8.065  1.9067 -0.6825  0.2668
 1758SOL     OW11109   6.295   3.089   6.651 -0.0813  0.3671 -0.0102
 1758SOL    HW111110   6.241   3.092   6.729  0.3101 -0.1548  0.2785
 1758SOL    HW211111   6.271   3.007   6.607 -0.1029  0.5250 -0.3017
 1759SOL     OW11112   2.504   1.826   4.837  0.4792  0.3178  0.0166
 1759SOL    HW111113   2.552   1.909   4.839 -1.1804  1.4109 -1.8130
 1759SOL    HW211114   2.423   1.845   4.884 -0.1839 -0.0733 -0.9558
 1760SOL     OW11115   8.727   4.513   9.054  0.0898 -0.3039 -0.3299
 1760SOL    HW111116   8.640   4.551   9.068  0.5876  0.5298  0.6090
 1760SOL    HW211117   8.776   4.580   9.006  0.3314 -0.6265 -0.5401
 1761SOL     OW11118  10.265   2.029   2.090  0.1238 -0.5176 -0.1269
 1761SOL    HW111119  10.328   2.027   2.162 -0.4699 -0.5650  0.4007
 1761SOL    HW211120  10.313   1.992   2.016  0.3019 -1.8203  0.6040
 1762SOL     OW11121   1.575   2.151   5.085 -0.6278 -0.0348 -0.0988
 1762SOL    HW111122   1.594   2.213   5.155 -2.1130  0.4037 -0.0377
 1762SOL    HW211123   1.574   2.204   5.006 -0.6897 -0.2017 -0.2102
 1763SOL     OW11124   5.545   3.601   5.601 -0.4385 -1.1309  0.4792
 1763SOL    HW111125   5.540   3.655   5.680  1.2573 -0.7132  0.3405
 1763SOL    HW211126   5.455   3.572   5.586 -1.0274 -0.0829  1.7680
 1764SOL     OW11127   2.713  10.003   7.860 -0.1659 -0.0214 -0.0839
 1764SOL    HW111128   2.666  10.066   7.806  0.6469  0.3481 -0.3739
 1764SOL    HW211129   2.648   9.936   7.881 -0.8589  0.5636 -0.3340
 1765SOL     OW11130   1.307   5.346   8.312 -0.2822 -0.0245  0.2560
 1765SOL    HW111131   1.253   5.268   8.325  0.7481 -0.8704 -0.4240
 1765SOL    HW211132   1.363   5.325   8.237 -1.0311  1.9483 -0.9408
 1766SOL     OW11133   0.676   9.705   2.272  0.2184 -0.1060  0.5165
 1766SOL    HW111134   0.729   9.741   2.343 -0.5880 -1.1265  1.6660
 1766SOL    HW211135   0.628   9.781   2.237 -1.2577  0.0670  2.7205
 1767SOL     OW11136   2.132  10.826   5.057  1.1065  0.7986 -0.6415
 1767SOL    HW111137   2.085  10.909   5.057  2.3981  1.5646  0.1250
 1767SOL    HW211138   2.157  10.812   4.966 -0.3541  0.4988 -1.0210
 1768SOL     OW11139   2.665   9.397   0.809 -0.7652  0.6717 -0.0046
 1768SOL    HW111140   2.720   9.436   0.878 -2.8047 -0.2354  2.2886
 1768SOL    HW211141   2.690   9.305   0.808  1.4333  1.1588 -2.8144
 1769SOL     OW11142   6.552   9.282   9.492  0.0802 -0.1060 -0.1163
 1769SOL    HW111143   6.538   9.340   9.567 -1.7084  0.9269 -1.1828
 1769SOL    HW211144   6.598   9.207   9.528 -0.2083  0.6332  1.9018
 1770SOL     OW11145   7.439   6.973   4.799  0.1043  0.2167  0.8538
 1770SOL    HW111146   7.448   6.986   4.894 -0.4572  2.4067  0.6661
 1770SOL    HW211147   7.497   7.039   4.761 -0.0156 -0.3479 -0.3435
 1771SOL     OW11148   9.895   5.295   3.061  0.4714  0.2553  0.2584
 1771SOL    HW111149   9.912   5.264   2.972  2.1533  0.9862  0.2891
 1771SOL    HW211150   9.955   5.369   3.072  0.7823 -0.2437  2.2308
 1772SOL     OW11151   1.419   7.291   6.627  0.8927  0.5961 -0.0435
 1772SOL    HW111152   1.325   7.294   6.644  1.0659 -0.1626  1.2060
 1772SOL    HW211153   1.437   7.200   6.604  1.2739  0.8057 -0.6039
 1773SOL     OW11154  10.198   9.265   3.380  0.3271 -0.3897  0.4154
 1773SOL    HW111155  10.293   9.276   3.387  0.2754  1.1120 -0.7567
 1773SOL    HW211156  10.186   9.190   3.322  0.8013  0.0548 -0.2608
 1774SOL     OW11157   2.449   2.009   7.090  0.9416  0.1202 -0.0546
 1774SOL    HW111158   2.476   2.080   7.148 -1.6583 -0.4730  2.1105
 1774SOL    HW211159   2.377   2.045   7.039  0.4006 -0.5913  0.1864
 1775SOL     OW11160   4.751   2.393   4.412  0.4401 -0.2847  0.4800
 1775SOL    HW111161   4.779   2.305   4.387  0.3452 -0.3721  0.6781
 1775SOL    HW211162   4.766   2.446   4.334 -1.4674 -0.9038 -0.3778
 1776SOL     OW11163   3.602   1.760   4.097  0.5762  0.0045 -0.8234
 1776SOL    HW111164   3.592   1.674   4.056  1.6474 -0.4974 -0.0730
 1776SOL    HW211165   3.692   1.761   4.129  0.4603  1.2667 -0.4800
 1777SOL     OW11166   0.278   5.732   7.990  0.3149  0.4761 -0.1565
 1777SOL    HW111167   0.239   5.733   7.902  2.0682  2.1313 -0.9920
 1777SOL    HW211168   0.362   5.777   7.979  1.3574 -0.7743  2.0505
 1778SOL     OW11169   1.324   4.586   8.660 -0.5417  0.3060 -0.1368
 1778SOL    HW111170   1.340   4.575   8.754  0.1556 -0.5141 -0.3402
 1778SOL    HW211171   1.229   4.584   8.651 -0.5927 -1.4966  0.3539
 1779SOL     OW11172   1.771   3.198   9.988 -0.0331  0.1751 -0.0268
 1779SOL    HW111173   1.737   3.277  10.031  1.3935  1.2924 -0.8341
 1779SOL    HW211174   1.756   3.213   9.895  1.6359  0.2554 -0.3251
 1780SOL     OW11175   3.551   5.349  10.500  0.0146  0.9523  0.0904
 1780SOL    HW111176   3.637   5.385  10.479 -0.4605  1.1553 -1.6812
 1780SOL    HW211177   3.566   5.255  10.508  0.2670  0.8694 -1.1612
 1781SOL     OW11178   2.301   9.569   7.622 -0.3583  0.8107  0.0966
 1781SOL    HW111179   2.369   9.610   7.570 -1.2729 -1.4053 -3.1937
 1781SOL    HW211180   2.348   9.513   7.684  0.9179 -0.5811 -2.0173
 1782SOL     OW11181   9.935   7.731   6.243  0.2524 -0.3880 -0.4807
 1782SOL    HW111182  10.026   7.706   6.257  1.5207  3.4846 -0.7496
 1782SOL    HW211183   9.889   7.699   6.321  1.7525 -2.4291 -0.3609
 1783SOL     OW11184   0.163  10.573   8.259  0.1637 -0.3883  0.1448
 1783SOL    HW111185   0.081  10.535   8.290 -0.0295  1.7560  2.6223
 1783SOL    HW211186   0.227  10.502   8.266 -1.1538 -1.6577 -0.3566
 1784SOL     OW11187   0.952   6.771   7.179 -0.2725 -0.4007  0.0377
 1784SOL    HW111188   1.025   6.816   7.136 -0.7148  0.0991 -0.1961
 1784SOL    HW211189   0.968   6.678   7.162  1.1798 -0.4416  1.3560
 1785SOL     OW11190   8.889   1.415   4.546 -0.3967 -0.8296 -0.1656
 1785SOL    HW111191   8.827   1.382   4.480 -1.5142  0.9651 -0.0745
 1785SOL    HW211192   8.866   1.507   4.557  1.9132 -0.2445  0.3524
 1786SOL     OW11193   7.201  10.302   8.834 -0.0431 -0.0005  0.1454
 1786SOL    HW111194   7.123  10.281   8.782 -0.9628 -1.0114  1.8496
 1786SOL    HW211195   7.169  10.364   8.900  1.2371  1.7347 -0.7906
 1787SOL     OW11196   9.381   8.158   3.608 -0.0816  0.1476 -0.5638
 1787SOL    HW111197   9.464   8.116   3.586 -1.2915 -1.3683 -2.6076
 1787SOL    HW211198   9.393   8.249   3.580  1.4568  0.4266  0.8512
 1788SOL     OW11199   3.467   0.040  10.041  0.2376 -0.0790  0.0160
 1788SOL    HW111200   3.533  -0.026  10.021  0.6425  0.4511 -0.4205
 1788SOL    HW211201   3.495   0.117   9.992 -0.4569  0.2889  0.1911
 1789SOL     OW11202   9.273   2.804   0.784  0.2141 -0.4193 -0.3197
 1789SOL    HW111203   9.198   2.836   0.733 -0.9435 -2.6107 -0.1053
 1789SOL    HW211204   9.235   2.782   0.870  1.1163 -1.4960 -0.1896
 1790SOL     OW11205   8.089   6.177   6.873  0.6876 -0.5040 -0.6605
 1790SOL    HW111206   8.062   6.086   6.861  2.4901 -0.8950 -2.1920
 1790SOL    HW211207   8.098   6.211   6.784 -0.9604  1.5388 -0.1290
 1791SOL     OW11208   0.693   1.869   2.742  0.4174  0.3921  0.4397
 1791SOL    HW111209   0.751   1.845   2.814 -1.0875  0.7572  1.8278
 1791SOL    HW211210   0.606   1.873   2.781 -0.2976  1.7561 -1.1424
 1792SOL     OW11211   0.840   7.865   2.360 -0.0371 -0.1251  0.1287
 1792SOL    HW111212   0.745   7.857   2.362 -0.0323 -0.1356  0.3836
 1792SOL    HW211213   0.867   7.847   2.450  0.2761 -1.0045 -0.1389
 1793SOL     OW11214   3.976   2.624   9.417 -0.0986  0.4971  0.0204
 1793SOL    HW111215   4.008   2.540   9.449  0.3811  0.4692 -0.5174
 1793SOL    HW211216   3.985   2.619   9.322 -1.7154  0.4950 -0.1592
 1794SOL     OW11217   7.956   6.608  10.417 -0.4024 -0.0464 -0.1906
 1794SOL    HW111218   7.880   6.585  10.364 -0.1466 -0.8963 -0.1985
 1794SOL    HW211219   8.000   6.676  10.367 -0.7104 -0.1344 -0.5880
 1795SOL     OW11220   8.069   3.937   0.437  0.2881 -0.5198  0.7131
 1795SOL    HW111221   8.038   3.872   0.501  1.6114  0.0979  2.0440
 1795SOL    HW211222   8.077   4.018   0.487  1.3616 -0.0062 -0.2503
 1796SOL     OW11223  10.831   9.563  10.582  0.2770 -0.0208  0.3675
 1796SOL    HW111224  10.811   9.585  10.491  2.0539 -0.3531 -0.1498
 1796SOL    HW211225  10.746   9.554  10.624 -0.5718  1.3412 -0.9618
 1797SOL     OW11226   0.195   5.902   4.107  0.0018  0.3529  0.1584
 1797SOL    HW111227   0.177   5.936   4.195 -0.5961 -1.1703  0.6582
 1797SOL    HW211228   0.240   5.818   4.122  0.9005  0.5936 -1.0129
 1798SOL     OW11229   7.896   9.118   5.695  0.5181 -0.5378  0.3601
 1798SOL    HW111230   7.889   9.144   5.787  0.2248  0.4154  0.0811
 1798SOL    HW211231   7.880   9.199   5.646  1.8482 -0.7617 -0.5162
 1799SOL     OW11232   4.323   6.515   0.307 -0.4521 -0.5488 -0.8582
 1799SOL    HW111233   4.288   6.426   0.308  1.1170 -1.1919  0.3414
 1799SOL    HW211234   4.318   6.545   0.398  0.0369  0.1703 -1.0536
 1800SOL     OW11235   8.488   3.338   9.733  0.1566  0.4107 -0.1832
 1800SOL    HW111236   8.566   3.394   9.731  0.9230 -0.6028  0.3999
 1800SOL    HW211237   8.429   3.383   9.794 -0.2033  1.7678 -1.4764
 1801SOL     OW11238   2.791   4.034   5.037  0.4678 -0.4153 -0.1988
 1801SOL    HW111239   2.765   4.110   5.090  0.7920 -0.5290  0.1252
 1801SOL    HW211240   2.708   3.996   5.010  0.1557 -1.9615  2.5223
 1802SOL     OW11241   2.075   0.739   4.737  0.4125  0.5302 -0.0962
 1802SOL    HW111242   2.157   0.783   4.717 -0.4762  1.6837 -1.4554
 1802SOL    HW211243   2.008   0.795   4.698 -1.0600 -0.1792  1.2939
 1803SOL     OW11244   6.657   8.183   8.740  0.1569  0.0466 -0.6815
 1803SOL    HW111245   6.737   8.181   8.688  1.2486  0.8009  0.8679
 1803SOL    HW211246   6.678   8.133   8.819 -0.2748  1.6969  0.5371
 1804SOL     OW11247   3.099   2.483   2.255 -0.2502  0.2714 -0.0032
 1804SOL    HW111248   3.018   2.516   2.217 -0.6239 -0.2813  0.2898
 1804SOL    HW211249   3.070   2.432   2.331  0.0760 -2.3128 -1.4626
 1805SOL     OW11250   4.075   4.099   7.419  0.6844 -0.1790 -0.0137
 1805SOL    HW111251   4.040   4.188   7.419  1.7218  0.2594  1.2422
 1805SOL    HW211252   4.170   4.110   7.414  0.7929 -1.2572 -0.8235
 1806SOL     OW11253   6.777  10.378   5.196 -0.1563  0.3513 -0.5861
 1806SOL    HW111254   6.691  10.402   5.229  0.1133  0.3449  0.1285
 1806SOL    HW211255   6.770  10.390   5.101 -0.6017  1.4470 -0.4286
 1807SOL     OW11256  10.605   3.045  10.204 -0.2974 -0.0827  0.2762
 1807SOL    HW111257  10.622   3.001  10.121 -0.3299  1.2628 -0.4592
 1807SOL    HW211258  10.671   3.010  10.263 -0.3192 -1.1070 -0.2787
 1808SOL     OW11259   5.091   9.606   0.337 -0.2373 -0.6170 -0.2348
 1808SOL    HW111260   5.068   9.662   0.411 -0.1652 -1.1423  0.1914
 1808SOL    HW211261   5.185   9.618   0.326 -0.6151  1.3397 -1.8192
 1809SOL     OW11262   6.098   6.077   1.965  0.3744 -0.4881  0.2392
 1809SOL    HW111263   6.102   5.982   1.969 -0.4919 -0.4919  1.5341
 1809SOL    HW211264   6.161   6.101   1.898  0.9169 -1.9489  0.2030
 1810SOL     OW11265  10.441   4.126   6.958 -0.3215 -0.1651 -0.1851
 1810SOL    HW111266  10.513   4.144   6.898 -1.0747  0.5608 -0.8810
 1810SOL    HW211267  10.483   4.083   7.033  0.7130 -0.4996 -0.9383
 1811SOL     OW11268   8.135   8.476   8.565  0.3993  0.0426 -0.5278
 1811SOL    HW111269   8.085   8.464   8.484  0.0261 -0.4139 -0.2342
 1811SOL    HW211270   8.205   8.537   8.541  0.4805 -0.3310 -1.2738
 1812SOL     OW11271   4.983   4.510   8.322 -0.1559 -0.3872  0.2953
 1812SOL    HW111272   5.035   4.529   8.400  1.8439 -0.1444 -1.0175
 1812SOL    HW211273   4.894   4.498   8.354 -0.1042  3.1747  2.2134
 1813SOL     OW11274   9.060   8.049   1.909  0.2246  0.6101  0.5386
 1813SOL    HW111275   9.052   8.142   1.887 -0.6893  0.5077  0.4219
 1813SOL    HW211276   8.989   8.033   1.971  0.0816 -0.1227  0.1897
 1814SOL     OW11277   2.584   9.497   2.033  0.1141  0.1664 -0.3546
 1814SOL    HW111278   2.514   9.561   2.033  1.2686  1.5087  0.6753
 1814SOL    HW211279   2.649   9.531   1.971  0.9648  0.2931  0.5735
 1815SOL     OW11280   1.678   2.085   7.795  0.7486  0.3099 -0.0608
 1815SOL    HW111281   1.762   2.072   7.750 -0.2435 -0.6052 -1.7495
 1815SOL    HW211282   1.638   2.160   7.752 -0.6370 -1.1573 -1.4642
 1816SOL     OW11283   8.339   9.706   0.707  0.1392  0.2254  0.2574
 1816SOL    HW111284   8.427   9.740   0.691  1.0142 -0.7318  2.5878
 1816SOL    HW211285   8.329   9.707   0.802 -1.7996 -1.0837  0.1483
 1817SOL     OW11286   8.639   2.024   9.636 -0.2443 -0.1988 -0.4121
 1817SOL    HW111287   8.626   1.959   9.566  1.0593 -0.0712 -0.7916
 1817SOL    HW211288   8.591   1.987   9.711 -0.6211 -0.9482 -1.0008
 1818SOL     OW11289  10.640   7.672   4.660  0.2892 -0.4706  0.1470
 1818SOL    HW111290  10.645   7.751   4.606  0.2601 -0.4771  0.1352
 1818SOL    HW211291  10.716   7.620   4.634 -0.1554 -0.8329 -0.4565
 1819SOL     OW11292   7.691   9.428   9.507 -0.3121 -0.0773 -0.6042
 1819SOL    HW111293   7.738   9.468   9.581 -1.8914  0.8235 -0.0288
 1819SOL    HW211294   7.693   9.334   9.526  1.2543 -0.0770 -0.6312
 1820SOL     OW11295   0.725   1.583   8.914  0.0459  0.7023 -0.3423
 1820SOL    HW111296   0.801   1.606   8.860  0.9444 -1.3376 -0.0377
 1820SOL    HW211297   0.660   1.551   8.852  0.8807 -1.1289 -0.3457
 1821SOL     OW11298   0.743   7.577   7.795  0.2018 -0.5777 -0.2431
 1821SOL    HW111299   0.780   7.651   7.843 -0.0489 -0.9894  0.6085
 1821SOL    HW211300   0.801   7.565   7.720  1.1199 -0.4641  0.4283
 1822SOL     OW11301   0.515   0.042   9.056  0.0594  0.1515  0.5607
 1822SOL    HW111302   0.565   0.015   9.133  0.7672  0.5357  0.2453
 1822SOL    HW211303   0.521   0.138   9.056  2.4399  0.1108 -1.4740
 1823SOL     OW11304   4.094   4.899   0.332  0.1967 -0.6265 -0.3949
 1823SOL    HW111305   4.049   4.906   0.416  0.9415 -1.7495  0.1259
 1823SOL    HW211306   4.074   4.811   0.301 -0.4550 -0.0688 -1.6398
 1824SOL     OW11307   9.544   4.025   0.105 -0.0395  0.3375 -0.3304
 1824SOL    HW111308   9.473   4.088   0.119 -0.7359 -0.2680 -1.0423
 1824SOL    HW211309   9.624   4.078   0.111 -0.6234  1.3703 -1.2617
 1825SOL     OW11310   4.122   5.072   4.906  0.4133  0.5967  0.2761
 1825SOL    HW111311   4.101   5.166   4.905 -1.0730  0.2865 -0.7137
 1825SOL    HW211312   4.129   5.050   4.999  2.1898  1.9386  0.5411
 1826SOL     OW11313   2.512   7.910   2.463 -0.2940  0.5169  0.3840
 1826SOL    HW111314   2.565   7.936   2.539  0.0760  1.2556 -0.1153
 1826SOL    HW211315   2.555   7.831   2.430 -0.3618  0.2844  0.8492
 1827SOL     OW11316   3.720   5.236   5.383  0.6339 -0.0268  0.3706
 1827SOL    HW111317   3.790   5.301   5.383  0.8677 -0.2572  1.4473
 1827SOL    HW211318   3.701   5.221   5.475  1.1464 -2.0642  0.2117
 1828SOL     OW11319   8.478   9.309   9.412  0.2540  0.4872  0.1757
 1828SOL    HW111320   8.567   9.309   9.447  0.8117 -1.6500 -1.0444
 1828SOL    HW211321   8.438   9.230   9.447 -0.4374  0.3063 -0.9695
 1829SOL     OW11322   1.530   1.261   2.765  0.5218 -0.2941 -0.3365
 1829SOL    HW111323   1.560   1.311   2.689 -0.3635 -0.4443 -0.7984
 1829SOL    HW211324   1.541   1.320   2.839  0.4706  0.2144 -0.7294
 1830SOL     OW11325  10.645   5.119   3.147 -0.5302 -0.9786  0.1843
 1830SOL    HW111326  10.578   5.089   3.085 -0.2580  2.7954 -2.3148
 1830SOL    HW211327  10.595   5.159   3.218 -0.9347 -1.1845  0.0167
 1831SOL     OW11328   7.953   2.571   0.335 -0.3982  0.0031  0.0467
 1831SOL    HW111329   8.040   2.534   0.351 -0.3443  0.2388  0.3006
 1831SOL    HW211330   7.963   2.664   0.355 -0.4271  0.2353 -0.9682
 1832SOL     OW11331  10.207   8.176   9.719 -0.2743  0.4166  0.5198
 1832SOL    HW111332  10.224   8.251   9.777  1.2815  1.3189 -1.0080
 1832SOL    HW211333  10.239   8.205   9.634 -0.0889 -1.8254 -0.2156
 1833SOL     OW11334   7.084   2.887  10.837 -0.6918 -0.0457 -0.1350
 1833SOL    HW111335   7.061   2.954  10.771 -3.4619 -1.8513 -1.1876
 1833SOL    HW211336   7.025   2.906  10.910 -1.0412 -0.9258 -0.1857
 1834SOL     OW11337   0.738   3.298   6.910  0.5475  0.0428 -0.4200
 1834SOL    HW111338   0.681   3.288   6.834  0.6511 -0.3192 -0.4511
 1834SOL    HW211339   0.794   3.221   6.908  1.1603  0.4784 -0.4955
 1835SOL     OW11340   6.662   5.838   3.713 -0.4350  0.3110  0.9222
 1835SOL    HW111341   6.625   5.911   3.763  1.2464  1.1913  0.9833
 1835SOL    HW211342   6.733   5.878   3.663 -0.9517 -0.8746 -0.8564
 1836SOL     OW11343   7.513  10.339   7.856 -0.3176  0.0579 -0.2645
 1836SOL    HW111344   7.500  10.413   7.915 -1.1049 -0.8036  0.6910
 1836SOL    HW211345   7.469  10.266   7.899  0.3700 -0.9592 -1.2130
 1837SOL     OW11346   0.748   0.760   9.262  0.0192 -0.1148  0.1123
 1837SOL    HW111347   0.676   0.802   9.309  0.7396  0.1769  0.9955
 1837SOL    HW211348   0.814   0.829   9.252 -0.1337 -0.1677 -1.3810
 1838SOL     OW11349   9.274   5.913   6.510  0.0651  0.4186  0.4144
 1838SOL    HW111350   9.182   5.922   6.532 -0.6196 -0.1922 -1.9504
 1838SOL    HW211351   9.288   5.819   6.500  0.1445  0.6290 -2.0890
 1839SOL     OW11352   2.823   2.283   0.002 -0.1424  0.0206  0.1737
 1839SOL    HW111353   2.763   2.242  -0.059  1.8594  0.2159 -2.0740
 1839SOL    HW211354   2.869   2.349  -0.050  0.0930  1.8057  2.4790
 1840SOL     OW11355  10.176   8.663   9.896 -0.2613 -0.3524 -0.6334
 1840SOL    HW111356  10.131   8.723   9.956  0.3755  0.4216 -0.9092
 1840SOL    HW211357  10.269   8.683   9.908 -0.1109 -0.3645 -1.6839
 1841SOL     OW11358   3.386   0.867   4.358 -0.0132 -0.6407 -0.3353
 1841SOL    HW111359   3.357   0.910   4.277  0.8137 -1.3979 -1.0539
 1841SOL    HW211360   3.350   0.779   4.352  0.4814 -0.8563 -0.1165
 1842SOL     OW11361   8.500   3.847   9.255 -0.0583 -0.3685  0.4909
 1842SOL    HW111362   8.529   3.934   9.226 -3.4099  0.3537 -1.2458
 1842SOL    HW211363   8.523   3.789   9.183  0.0238 -0.4410  0.5762
 1843SOL     OW11364  10.864   4.880   2.732 -0.0120  0.4015  0.0635
 1843SOL    HW111365  10.944   4.898   2.780 -0.1071 -0.6189  0.6428
 1843SOL    HW211366  10.889   4.811   2.670 -0.3909  0.2198  0.1122
 1844SOL     OW11367   0.277   7.117   3.903 -0.1119 -0.2903  0.0369
 1844SOL    HW111368   0.308   7.207   3.903 -0.3967 -0.1868  0.4120
 1844SOL    HW211369   0.337   7.070   3.846 -0.5727  0.3405 -1.0046
 1845SOL     OW11370   4.477   1.059   3.700 -0.8623  0.1060 -0.3134
 1845SOL    HW111371   4.415   1.038   3.769  0.0386 -1.8272 -0.0267
 1845SOL    HW211372   4.445   1.012   3.623  0.4388 -1.2954 -0.0436
 1846SOL     OW11373   5.334   4.163   0.304  0.0592 -0.0197  0.6214
 1846SOL    HW111374   5.377   4.127   0.382 -4.1324 -0.7585  2.8609
 1846SOL    HW211375   5.258   4.209   0.338 -1.8069 -0.0730 -3.0404
 1847SOL     OW11376   5.719   4.908  10.863 -0.0242 -0.2327 -0.0388
 1847SOL    HW111377   5.669   4.826  10.852  0.1684 -0.2615 -0.7179
 1847SOL    HW211378   5.660   4.976  10.830  0.8908 -0.4137 -2.2560
 1848SOL     OW11379   7.881   3.093   4.600  0.6798  0.0387  0.2571
 1848SOL    HW111380   7.877   3.092   4.504  0.4045 -1.4989  0.2621
 1848SOL    HW211381   7.797   3.131   4.627  0.7124  0.3746 -0.1040
 1849SOL     OW11382  10.091   5.570   0.872  0.5118  0.3249 -0.5336
 1849SOL    HW111383  10.063   5.494   0.820  1.0592 -1.2119  1.2871
 1849SOL    HW211384  10.018   5.631   0.866 -1.3447 -1.6530  0.3945
 1850SOL     OW11385   9.804   6.490   9.450  0.0374 -0.7590  0.1349
 1850SOL    HW111386   9.762   6.472   9.366  1.2245 -1.8200 -0.2688
 1850SOL    HW211387   9.783   6.413   9.504  1.3404 -1.2735 -0.0488
 1851SOL     OW11388   4.888   3.058   5.788 -0.6105 -0.3798 -0.1810
 1851SOL    HW111389   4.847   3.005   5.719  0.5061 -1.2588 -0.1915
 1851SOL    HW211390   4.942   3.121   5.741  0.1645 -0.9905 -0.1279
 1852SOL     OW11391   1.674   4.216   6.418  0.3914  0.5099  1.1402
 1852SOL    HW111392   1.589   4.261   6.415 -0.1460 -0.4953  0.7363
 1852SOL    HW211393   1.731   4.270   6.363 -0.8379 -0.4499 -1.2276
 1853SOL     OW11394   1.140   7.146   4.604  0.3815  0.0640 -0.1719
 1853SOL    HW111395   1.139   7.233   4.564 -0.6866 -0.3212 -1.0135
 1853SOL    HW211396   1.214   7.150   4.666  1.0757  1.1846 -1.0167
 1854SOL     OW11397   8.527   6.388   7.268  0.3826 -0.4696  0.1068
 1854SOL    HW111398   8.604   6.341   7.238 -0.1494  0.0375 -2.2834
 1854SOL    HW211399   8.545   6.480   7.245 -1.5115 -0.5437 -2.0161
 1855SOL     OW11400   6.004   2.841   3.544 -0.3274 -0.0750  0.3086
 1855SOL    HW111401   6.041   2.773   3.488 -0.1607  0.7677 -0.6276
 1855SOL    HW211402   6.072   2.859   3.609  0.4872  0.6490 -0.7045
 1856SOL     OW11403   1.592   8.395   3.763  0.1602 -0.1220 -0.0676
 1856SOL    HW111404   1.509   8.407   3.717 -0.3924 -3.3325 -0.1404
 1856SOL    HW211405   1.574   8.421   3.853 -0.9034 -0.6760 -0.1135
 1857SOL     OW11406   2.157   1.039   4.141  0.1463  0.0366  0.0864
 1857SOL    HW111407   2.214   1.005   4.072  1.1799  0.1239  0.8853
 1857SOL    HW211408   2.071   1.000   4.122  0.5592 -0.4403 -0.8727
 1858SOL     OW11409   0.637   0.925   7.535  0.1619 -0.5091  0.4089
 1858SOL    HW111410   0.598   0.840   7.514 -0.8432 -0.0782  0.4639
 1858SOL    HW211411   0.562   0.984   7.545  0.8836  0.5963 -0.5293
 1859SOL     OW11412   7.386   5.300   1.815  0.0169  0.1219  0.2832
 1859SOL    HW111413   7.386   5.208   1.842  0.1985 -0.4755 -1.5839
 1859SOL    HW211414   7.300   5.333   1.841  0.1362 -0.4179  1.4112
 1860SOL     OW11415   2.963   2.414   9.900 -0.4390 -0.1269  0.0543
 1860SOL    HW111416   3.023   2.452   9.836 -1.1743 -0.9718 -1.1939
 1860SOL    HW211417   2.893   2.478   9.908 -1.4665 -0.9576 -1.7251
 1861SOL     OW11418   8.897   2.536   5.601 -0.0340 -0.0419 -0.0727
 1861SOL    HW111419   8.973   2.480   5.585  0.2370  0.6512 -1.3663
 1861SOL    HW211420   8.832   2.509   5.537 -0.0255  0.8809 -0.4898
 1862SOL     OW11421   7.798   7.203   2.286  0.4324  0.6149  0.6477
 1862SOL    HW111422   7.738   7.174   2.355  0.1841  0.2225  0.2688
 1862SOL    HW211423   7.809   7.297   2.304  0.2457  0.5537  1.1263
 1863SOL     OW11424   2.092   4.841   3.015 -1.0367 -0.0020 -0.5149
 1863SOL    HW111425   2.147   4.917   2.994 -0.1391 -0.2163  0.9187
 1863SOL    HW211426   2.012   4.879   3.051 -0.3812  0.2817  0.6886
 1864SOL     OW11427   2.259   3.592   3.937 -0.2769  0.4786  0.3878
 1864SOL    HW111428   2.230   3.625   3.853  1.0322  1.0081  0.1234
 1864SOL    HW211429   2.301   3.667   3.980  1.2149 -0.3638  0.4870
 1865SOL     OW11430   4.819   1.412   1.150  0.1826  0.0846 -0.1539
 1865SOL    HW111431   4.746   1.351   1.156 -0.3618  0.8262  0.9375
 1865SOL    HW211432   4.823   1.455   1.235  0.9784  1.0893 -0.6648
 1866SOL     OW11433   2.842   7.656   8.576 -0.1438 -0.0651 -0.2523
 1866SOL    HW111434   2.936   7.649   8.561 -0.4806 -1.6670 -2.0884
 1866SOL    HW211435   2.805   7.668   8.488 -1.7512 -1.0165  0.2600
 1867SOL     OW11436   0.268   1.473   2.244  0.3493 -0.1658 -0.2760
 1867SOL    HW111437   0.173   1.477   2.252  0.4712  0.9244  1.2018
 1867SOL    HW211438   0.284   1.461   2.151 -1.2231  1.6354 -0.8534
 1868SOL     OW11439  10.207   6.761   5.649  0.3116 -0.3640  0.9873
 1868SOL    HW111440  10.266   6.761   5.724  1.5892  0.0656  0.0124
 1868SOL    HW211441  10.263   6.781   5.574 -1.2151  1.0712  0.1548
 1869SOL     OW11442   4.159   9.064   6.568 -0.3332 -0.1337  0.1286
 1869SOL    HW111443   4.104   9.085   6.642 -1.5050  1.3204 -1.1047
 1869SOL    HW211444   4.098   9.048   6.496  0.7655  2.2510 -1.4673
 1870SOL     OW11445   2.263   7.747   7.621 -0.3041  0.0510  0.4943
 1870SOL    HW111446   2.186   7.693   7.605  0.7398 -0.9202 -1.6212
 1870SOL    HW211447   2.292   7.723   7.709  0.1014 -2.8913 -0.3376
 1871SOL     OW11448  10.418   1.281   1.608 -0.7085 -0.4575  0.0591
 1871SOL    HW111449  10.458   1.195   1.623  0.0620 -0.2871 -0.8835
 1871SOL    HW211450  10.324   1.262   1.601 -0.6312 -1.1090  0.6417
 1872SOL     OW11451  10.384   9.312   9.783  0.4839  0.3953  0.0639
 1872SOL    HW111452  10.297   9.272   9.777  0.1605  1.2465 -1.1652
 1872SOL    HW211453  10.445   9.242   9.759  0.2869 -0.5976  2.1874
 1873SOL     OW11454   8.560   0.879   3.213 -0.4307 -0.2058 -0.5382
 1873SOL    HW111455   8.514   0.814   3.160 -1.3167  0.2950 -0.3970
 1873SOL    HW211456   8.491   0.938   3.244 -0.2963 -1.4833  2.6657
 1874SOL     OW11457   4.617   6.947   6.247 -0.5370  0.5533 -0.4677
 1874SOL    HW111458   4.671   6.927   6.323 -1.3047 -0.3440 -0.1435
 1874SOL    HW211459   4.534   6.977   6.283 -0.9856 -0.0907 -0.9379
 1875SOL     OW11460   4.692   9.145   6.859  0.4665  0.3893  0.4786
 1875SOL    HW111461   4.742   9.173   6.935 -0.7005  0.1669  1.3532
 1875SOL    HW211462   4.600   9.151   6.886  0.0627 -1.1438 -0.3768
 1876SOL     OW11463   3.318   3.274   6.835  0.1089 -0.1664  0.0737
 1876SOL    HW111464   3.230   3.307   6.856 -0.3676  0.3220 -2.3804
 1876SOL    HW211465   3.363   3.272   6.920 -1.5300  1.7487  1.1019
 1877SOL     OW11466   7.168   2.878   9.648 -0.6001 -0.4531 -0.2824
 1877SOL    HW111467   7.100   2.858   9.584 -1.1710  0.8267 -0.0841
 1877SOL    HW211468   7.153   2.816   9.719 -1.8098  0.0720 -0.0639
 1878SOL     OW11469   7.534   7.756   6.234 -0.4582  0.1715  0.0484
 1878SOL    HW111470   7.594   7.813   6.283 -0.9822 -0.5180  1.5472
 1878SOL    HW211471   7.591   7.697   6.186  0.1552 -1.1681  2.2717
 1879SOL     OW11472   3.750   0.486   9.103 -0.1365  0.2658  0.6658
 1879SOL    HW111473   3.680   0.486   9.038  0.1152 -0.3309  0.3836
 1879SOL    HW211474   3.706   0.463   9.185  0.0209 -2.5569  0.0907
 1880SOL     OW11475   3.822   2.359   9.641 -0.2669  0.0685 -0.1521
 1880SOL    HW111476   3.854   2.294   9.703 -0.1233 -2.1602 -2.4210
 1880SOL    HW211477   3.778   2.308   9.573 -1.2881  2.4567 -1.3992
 1881SOL     OW11478   8.914   0.663   0.306 -0.0993 -0.4887 -0.1740
 1881SOL    HW111479   8.955   0.715   0.236 -3.9838  1.4605 -1.2869
 1881SOL    HW211480   8.934   0.711   0.386  0.7006 -0.2104 -0.5324
 1882SOL     OW11481   7.817   3.594   3.415 -0.3800  0.1864 -0.0467
 1882SOL    HW111482   7.911   3.590   3.429 -0.2566  1.3599 -0.4073
 1882SOL    HW211483   7.797   3.520   3.358 -0.0178 -1.3004  1.6753
 1883SOL     OW11484   5.870   9.755   7.274  0.1505 -1.0304  0.4043
 1883SOL    HW111485   5.838   9.735   7.186 -1.0145 -2.4181  1.1080
 1883SOL    HW211486   5.965   9.743   7.268 -0.1639 -4.1334  0.0309
 1884SOL     OW11487   7.875   3.162   2.724 -0.6427 -0.5788  0.0497
 1884SOL    HW111488   7.839   3.238   2.770  0.8714  0.3512 -0.2377
 1884SOL    HW211489   7.823   3.156   2.644  0.6956  1.6463 -1.0744
 1885SOL     OW11490  10.908   5.033   3.440  0.0197 -0.5091 -0.2133
 1885SOL    HW111491  10.823   4.988   3.445  0.4621 -1.2694  0.8029
 1885SOL    HW211492  10.967   4.967   3.402  0.0844  0.1404 -1.2721
 1886SOL     OW11493   9.205   7.380   2.541 -0.2512 -0.1489  0.5308
 1886SOL    HW111494   9.193   7.434   2.619  0.8110  0.0524  0.5599
 1886SOL    HW211495   9.283   7.328   2.559 -1.5188 -2.1016  0.7159
 1887SOL     OW11496   9.076  10.284   5.369 -0.5437 -0.5846  0.3686
 1887SOL    HW111497   9.085  10.379   5.366 -2.2945 -0.3846 -1.3713
 1887SOL    HW211498   9.028  10.267   5.450  0.0314 -0.0079  0.8328
 1888SOL     OW11499   5.690   8.020   0.267  0.2629  0.1561  0.1834
 1888SOL    HW111500   5.609   8.016   0.216  0.0386  0.7459  0.4863
 1888SOL    HW211501   5.701   8.113   0.289  0.7999  0.0251  0.5006
 1889SOL     OW11502   3.923   9.395   1.112  0.0877 -0.0660 -0.0141
 1889SOL    HW111503   4.016   9.409   1.128  0.5349 -0.8612 -1.6843
 1889SOL    HW211504   3.888   9.482   1.091  0.8188  0.0206 -0.9560
 1890SOL     OW11505   1.612   0.972   6.102  0.5858  0.5742  0.3015
 1890SOL    HW111506   1.546   0.909   6.073  2.0015 -1.5918  1.5441
 1890SOL    HW211507   1.569   1.021   6.172 -0.1050  0.0792  0.2381
 1891SOL     OW11508   3.662   1.770   8.692  0.3573 -0.1593 -0.0884
 1891SOL    HW111509   3.643   1.757   8.600 -1.1674  1.8189 -0.1352
 1891SOL    HW211510   3.757   1.771   8.697  0.6194  3.3728 -2.3572
 1892SOL     OW11511   9.360   9.683   7.540  0.5215  0.6961 -0.1228
 1892SOL    HW111512   9.343   9.770   7.576  0.0645  0.4845  0.1778
 1892SOL    HW211513   9.320   9.623   7.603 -1.2731  0.3577 -1.5374
 1893SOL     OW11514   0.149   0.534   8.903  0.2377  0.1536 -0.7890
 1893SOL    HW111515   0.232   0.576   8.880  0.9333 -1.3812 -1.2276
 1893SOL    HW211516   0.172   0.442   8.918 -0.9313  0.1980  1.8366
 1894SOL     OW11517   1.273   9.739   8.874  0.1431  0.4541  0.5526
 1894SOL    HW111518   1.192   9.690   8.884  0.2471 -0.5386 -2.5459
 1894SOL    HW211519   1.266   9.780   8.788  2.9068  0.2948  0.1566
 1895SOL     OW11520   7.700   9.991   8.877  0.0739 -0.3302 -0.0973
 1895SOL    HW111521   7.676   9.966   8.966 -0.6132 -0.3753 -0.2935
 1895SOL    HW211522   7.645   9.937   8.820  0.5325 -0.3283 -0.5535
 1896SOL     OW11523   0.160   8.735  10.897 -0.4847 -0.0650 -1.0259
 1896SOL    HW111524   0.132   8.805  10.837 -0.5979  0.2008 -0.6647
 1896SOL    HW211525   0.239   8.770  10.938  0.2013 -0.6820 -1.8027
 1897SOL     OW11526   1.114   5.029   9.960  0.4820 -0.0675  0.7859
 1897SOL    HW111527   1.072   5.085   9.894  1.7466  1.1536  0.9761
 1897SOL    HW211528   1.203   5.016   9.928 -0.2320 -3.6178 -0.2314
 1898SOL     OW11529   5.429   6.350   5.398 -0.1682 -0.2833  0.2592
 1898SOL    HW111530   5.514   6.322   5.431  0.3245  0.8857  0.0214
 1898SOL    HW211531   5.387   6.393   5.473  0.1116  0.5397 -0.0406
 1899SOL     OW11532   3.739   2.079   7.475 -0.7314 -0.3369  0.6055
 1899SOL    HW111533   3.659   2.068   7.423 -0.8839  1.0523  0.5214
 1899SOL    HW211534   3.719   2.150   7.536  0.7056  0.6479 -0.0021
 1900SOL     OW11535   9.452   8.695  10.429  0.5332 -0.3743  0.1620
 1900SOL    HW111536   9.379   8.743  10.467  0.2066 -2.4963  2.5036
 1900SOL    HW211537   9.507   8.762  10.389 -1.8680  1.4553 -0.3288
 1901SOL     OW11538   3.545   8.455   1.602 -0.2957 -0.1589 -0.2048
 1901SOL    HW111539   3.497   8.374   1.622  1.4907 -1.1411  0.3036
 1901SOL    HW211540   3.538   8.507   1.682 -2.5203  0.8263 -0.9466
 1902SOL     OW11541   3.415  10.007  10.409  0.0919  0.2967  0.3553
 1902SOL    HW111542   3.352  10.063  10.455  1.0082  1.0349  0.7241
 1902SOL    HW211543   3.455   9.955  10.478  0.0630  0.0042  0.1493
 1903SOL     OW11544   1.223   1.110   3.898 -0.4669 -0.4821 -0.2915
 1903SOL    HW111545   1.211   1.063   3.981 -0.1378 -0.7153 -0.3738
 1903SOL    HW211546   1.158   1.073   3.839 -0.2784 -0.7583 -0.3245
 1904SOL     OW11547   2.292   8.444   9.746  0.2023 -0.0189 -0.2149
 1904SOL    HW111548   2.263   8.383   9.679 -1.9815  1.4937 -0.7342
 1904SOL    HW211549   2.214   8.495   9.769  1.7961  2.2763  0.5224
 1905SOL     OW11550   4.019   2.525   1.186 -0.2308 -0.4868  0.4234
 1905SOL    HW111551   4.072   2.598   1.153 -0.9161 -0.0331  0.2984
 1905SOL    HW211552   4.018   2.462   1.114  1.6458 -1.3436  1.0894
 1906SOL     OW11553   1.576   2.373   6.388 -0.5609 -0.4119 -0.2966
 1906SOL    HW111554   1.492   2.413   6.366  0.0320  0.6135 -0.8255
 1906SOL    HW211555   1.639   2.422   6.335  0.2422 -1.9327 -0.8023
 1907SOL     OW11556   0.526   7.547   2.826 -0.1662 -0.1329  0.1336
 1907SOL    HW111557   0.501   7.633   2.792 -0.8456 -0.6512 -0.7136
 1907SOL    HW211558   0.601   7.521   2.772 -0.5257 -0.4616 -0.2083
 1908SOL     OW11559   4.824   3.440   4.790 -0.7823 -0.6280  0.0730
 1908SOL    HW111560   4.791   3.512   4.737 -1.4096  0.2203  1.5613
 1908SOL    HW211561   4.746   3.389   4.813 -0.5729 -0.7724  0.4791
 1909SOL     OW11562   4.296   8.872   9.131  0.0532  0.8449  0.4618
 1909SOL    HW111563   4.373   8.900   9.080  0.5618  1.1575  1.3688
 1909SOL    HW211564   4.221   8.905   9.081  0.5984  3.0076  0.9415
 1910SOL     OW11565   5.466   7.206   4.230 -1.4947 -0.0117 -0.0880
 1910SOL    HW111566   5.444   7.122   4.189 -1.0073  0.0685 -0.5213
 1910SOL    HW211567   5.397   7.219   4.296 -0.9588 -1.2778  0.7663
 1911SOL     OW11568   9.283   1.162   7.615 -0.2923  0.2088  0.2830
 1911SOL    HW111569   9.207   1.148   7.672  0.9578 -2.4286  1.4841
 1911SOL    HW211570   9.303   1.076   7.579  1.3120  1.0948 -1.1218
 1912SOL     OW11571   4.705   5.837   9.300 -0.4292 -0.5136  0.3984
 1912SOL    HW111572   4.770   5.907   9.295 -0.2618 -0.6543  0.5900
 1912SOL    HW211573   4.623   5.878   9.270 -0.3887 -0.1666  0.7456
 1913SOL     OW11574  10.710   5.318   2.904 -0.1435 -0.2024 -0.2129
 1913SOL    HW111575  10.682   5.277   2.822  0.4709 -2.2879  0.5373
 1913SOL    HW211576  10.735   5.244   2.960 -1.6082  1.0695  2.2848
 1914SOL     OW11577   4.577   9.510   6.922 -0.2881  0.1582 -0.1508
 1914SOL    HW111578   4.636   9.458   6.977  0.8171  0.0368 -1.4232
 1914SOL    HW211579   4.586   9.600   6.955  0.4447  0.1034 -0.1942
 1915SOL     OW11580   7.289   7.130   5.174 -0.2571 -0.2520  0.4086
 1915SOL    HW111581   7.330   7.131   5.261 -1.5603  0.6377  1.0430
 1915SOL    HW211582   7.342   7.191   5.122  1.0487 -1.4376  0.2976
 1916SOL     OW11583   2.898   9.130   8.634  0.8100 -0.4050 -0.4550
 1916SOL    HW111584   2.972   9.071   8.644  2.3367  1.1079 -2.1171
 1916SOL    HW211585   2.822   9.073   8.629  1.7944 -2.0010  1.4477
 1917SOL     OW11586   4.656   9.064   6.548 -0.0591 -0.5805  0.6005
 1917SOL    HW111587   4.595   9.130   6.582  2.1792  1.0932  1.5732
 1917SOL    HW211588   4.722   9.114   6.500  1.2100 -2.1985  0.5762
 1918SOL     OW11589   1.340   5.520   8.522  0.0432 -0.6006 -0.2846
 1918SOL    HW111590   1.311   5.466   8.448  1.1543 -0.5670 -0.7768
 1918SOL    HW211591   1.333   5.463   8.598  0.5387 -1.2285 -0.6970
 1919SOL     OW11592  10.266   8.843   8.334 -0.0406 -0.3788 -0.0614
 1919SOL    HW111593  10.313   8.799   8.405 -0.6946 -1.9382 -0.5370
 1919SOL    HW211594  10.299   8.932   8.334  1.8341 -1.0318  0.5682
 1920SOL     OW11595   8.672   3.046   6.661  0.1459 -0.1058  0.0588
 1920SOL    HW111596   8.749   3.028   6.606 -1.0267  0.2415 -1.7875
 1920SOL    HW211597   8.613   3.095   6.604 -2.4072 -2.2858  0.6277
 1921SOL     OW11598   2.314   7.532  10.662  0.7879  0.7693  0.1964
 1921SOL    HW111599   2.380   7.585  10.618 -0.9537  4.2891  1.4094
 1921SOL    HW211600   2.282   7.472  10.594  3.2066  0.9241 -1.1700
 1922SOL     OW11601   4.326   6.090   5.265 -0.1061 -0.6001 -0.6519
 1922SOL    HW111602   4.370   6.026   5.209  2.9248 -0.0160  0.8154
 1922SOL    HW211603   4.347   6.175   5.225  0.3600 -0.2902  0.2256
 1923SOL     OW11604   2.066   3.126   1.488  0.1582 -0.3783  0.4012
 1923SOL    HW111605   2.034   3.050   1.536  1.7260 -0.5523  1.2250
 1923SOL    HW211606   2.144   3.153   1.535  0.6999  0.5843 -0.9861
 1924SOL     OW11607  10.084   2.632  10.727  0.2239  0.5573  0.3209
 1924SOL    HW111608  10.134   2.552  10.740 -0.8374 -0.3485 -0.9378
 1924SOL    HW211609  10.139   2.701  10.765  1.5692 -0.6259  0.6067
 1925SOL     OW11610   0.703   0.336   1.875 -0.4353 -0.1914  0.3073
 1925SOL    HW111611   0.722   0.244   1.856 -0.2966 -0.1880  0.4305
 1925SOL    HW211612   0.781   0.368   1.921 -0.6210 -0.1029  0.5624
 1926SOL     OW11613   2.524  10.779   5.764 -0.6628 -0.3411  0.6627
 1926SOL    HW111614   2.479  10.747   5.686 -0.0271 -0.8455  0.4882
 1926SOL    HW211615   2.597  10.718   5.776 -0.0571  0.4145  0.9642
 1927SOL     OW11616   4.982   6.651  10.915  0.0455  0.4283 -0.1052
 1927SOL    HW111617   4.953   6.672  11.004  2.0372  0.7332  0.5211
 1927SOL    HW211618   5.027   6.568  10.924  1.4529  1.1176 -0.5470
 1928SOL     OW11619   3.882   2.840   5.753  0.1090  0.1224  0.3082
 1928SOL    HW111620   3.879   2.745   5.768  0.5595  0.0468 -0.0735
 1928SOL    HW211621   3.956   2.853   5.694  0.6364  0.8180  1.1038
 1929SOL     OW11622   8.294   6.053   6.335  0.2478 -0.5875 -0.2745
 1929SOL    HW111623   8.324   5.975   6.288  0.6012  0.4174 -1.7932
 1929SOL    HW211624   8.315   6.036   6.427  0.0047 -2.4010 -0.5302
 1930SOL     OW11625   9.956   7.333   8.207  0.7412 -0.4866 -0.4907
 1930SOL    HW111626   9.950   7.426   8.183  2.5498 -0.5573 -1.3632
 1930SOL    HW211627   9.873   7.315   8.250  0.8656  1.9037  0.9675
 1931SOL     OW11628   1.455   3.039   9.840  0.1526 -0.4948 -0.5432
 1931SOL    HW111629   1.379   2.998   9.798  0.5987 -1.2077 -0.6834
 1931SOL    HW211630   1.529   3.014   9.785  0.5341 -0.0950 -0.2179
 1932SOL     OW11631   9.078   6.401   4.569 -0.7056 -0.3841 -0.0450
 1932SOL    HW111632   9.067   6.351   4.649  2.2681 -1.2206 -0.0407
 1932SOL    HW211633   8.989   6.427   4.544 -1.8569 -1.4365  2.6236
 1933SOL     OW11634   7.636   4.233   1.100  0.1671  0.3276 -0.3516
 1933SOL    HW111635   7.573   4.300   1.075  0.2996  1.2714  1.6138
 1933SOL    HW211636   7.716   4.281   1.120 -0.1527 -0.1438  2.5254
 1934SOL     OW11637   0.269  10.744   0.173 -0.0753 -0.0713 -0.9392
 1934SOL    HW111638   0.317  10.825   0.192 -0.2319  0.1110 -1.3030
 1934SOL    HW211639   0.280  10.690   0.251 -0.0717  0.3515 -0.6452
 1935SOL     OW11640   0.168   4.519   9.384  0.3926  0.1649  0.0715
 1935SOL    HW111641   0.122   4.457   9.327 -1.2185  0.4834  0.9542
 1935SOL    HW211642   0.258   4.488   9.386 -0.0770 -1.3247 -0.6284
 1936SOL     OW11643   1.507   8.795   3.196 -0.1013  0.4984 -0.4523
 1936SOL    HW111644   1.563   8.820   3.270 -0.1704  0.1418 -0.2762
 1936SOL    HW211645   1.488   8.877   3.151 -2.2505  1.1098  1.4302
 1937SOL     OW11646   1.657   7.435   4.939 -0.2907 -0.0170  1.0335
 1937SOL    HW111647   1.643   7.524   4.972 -2.1143  0.2069 -0.2290
 1937SOL    HW211648   1.666   7.445   4.845 -1.2392 -1.2253  0.7853
 1938SOL     OW11649   2.945   3.919   0.200  0.1293  0.3417  0.0384
 1938SOL    HW111650   2.945   4.006   0.241  1.3800 -0.1470  1.1234
 1938SOL    HW211651   2.881   3.869   0.251  1.8217 -0.3236  1.6332
 1939SOL     OW11652   5.646   5.756   9.696  0.2875 -0.3189  0.2535
 1939SOL    HW111653   5.662   5.662   9.702 -1.3315 -0.5653  1.2607
 1939SOL    HW211654   5.554   5.767   9.720  0.9293  1.7027  2.2065
 1940SOL     OW11655   7.667   1.925   8.069  0.0113  0.0755  0.3809
 1940SOL    HW111656   7.725   1.881   8.007  0.9952  1.3791  0.3280
 1940SOL    HW211657   7.692   1.889   8.154  1.2145  0.8897  0.4074
 1941SOL     OW11658   9.740   7.647   9.838  0.1196  0.4376 -0.3558
 1941SOL    HW111659   9.827   7.670   9.869  0.6680 -0.8605 -0.8608
 1941SOL    HW211660   9.750   7.634   9.743  0.1841 -2.8473 -0.0423
 1942SOL     OW11661   0.086   4.517   1.710  0.7435 -0.9307  0.3390
 1942SOL    HW111662   0.108   4.483   1.623  0.4276  0.2140 -0.1975
 1942SOL    HW211663  -0.009   4.510   1.716  0.8593 -2.1521  1.0945
 1943SOL     OW11664   7.232   3.058   1.040  0.2806 -0.7979  0.3222
 1943SOL    HW111665   7.210   3.126   0.977 -0.6218 -0.5032  0.9252
 1943SOL    HW211666   7.325   3.042   1.028  0.5748  0.7550  0.3676
 1944SOL     OW11667   4.817   2.973   7.491 -0.2919  0.0907 -0.3432
 1944SOL    HW111668   4.906   3.004   7.475 -0.4513  0.2138 -1.0474
 1944SOL    HW211669   4.780   3.037   7.551  0.3409 -0.3910  0.5737
 1945SOL     OW11670   8.345   9.016   8.534  0.1484  0.5029  0.1866
 1945SOL    HW111671   8.416   9.045   8.592 -0.0261 -0.2333  0.7770
 1945SOL    HW211672   8.274   9.078   8.551  0.2106  0.4840  0.5238
 1946SOL     OW11673  10.529  10.776   9.400  0.3426 -0.3125 -0.1774
 1946SOL    HW111674  10.555  10.865   9.377 -0.4106 -0.1092 -0.2885
 1946SOL    HW211675  10.436  10.772   9.377 -0.3354 -0.2573  2.3070
 1947SOL     OW11676  10.045   8.409   6.562 -0.5147  0.6958 -0.6964
 1947SOL    HW111677  10.055   8.489   6.509 -0.6748  0.2705 -1.3746
 1947SOL    HW211678  10.129   8.364   6.553 -0.4652  0.7297 -0.4057
 1948SOL     OW11679  10.794   6.178   5.427 -0.8578 -0.2925  0.2621
 1948SOL    HW111680  10.719   6.119   5.439 -0.5661 -0.9005 -0.7527
 1948SOL    HW211681  10.763   6.263   5.458 -1.0327 -1.1271  2.5146
 1949SOL     OW11682   2.807   3.780   8.915  0.2769 -0.0529 -0.2115
 1949SOL    HW111683   2.716   3.795   8.943  0.4478  1.4320 -0.3947
 1949SOL    HW211684   2.800   3.753   8.824 -0.0427 -1.2489  0.1429
 1950SOL     OW11685   8.332   1.872   5.215 -0.3734  0.9727 -0.1895
 1950SOL    HW111686   8.286   1.804   5.165  0.3898  1.6156 -1.8422
 1950SOL    HW211687   8.286   1.953   5.193  0.0592  1.2797  0.0349
 1951SOL     OW11688   0.935  10.136   8.169  0.3820  0.9468  0.3136
 1951SOL    HW111689   0.958  10.156   8.078  1.2493 -0.8348  0.0984
 1951SOL    HW211690   1.001  10.181   8.221  0.4928  1.1331  0.0179
 1952SOL     OW11691   5.299   4.898   6.378  0.0779 -0.3846  0.4000
 1952SOL    HW111692   5.237   4.890   6.450 -1.4017 -0.1909 -0.7974
 1952SOL    HW211693   5.315   4.992   6.371  0.3827 -0.4206  0.6017
 1953SOL     OW11694   3.677  10.287   3.612 -0.2595 -0.4987 -0.1332
 1953SOL    HW111695   3.660  10.250   3.525  0.9596  0.9010 -0.9940
 1953SOL    HW211696   3.672  10.381   3.600  1.6292 -0.2143  0.9202
 1954SOL     OW11697   2.639   4.059   8.391  0.2138  0.3644  0.0356
 1954SOL    HW111698   2.566   4.009   8.352  1.1940  0.1024 -1.5594
 1954SOL    HW211699   2.646   4.024   8.480 -1.0833 -0.1807 -0.0421
 1955SOL     OW11700   8.397   2.243   9.988 -0.1242  0.2109  0.0724
 1955SOL    HW111701   8.395   2.295  10.069 -0.8226  1.6452 -0.8353
 1955SOL    HW211702   8.487   2.251   9.957  0.6099 -1.6859  1.4993
 1956SOL     OW11703   7.841   6.409   9.245  0.0367 -0.7583 -0.0696
 1956SOL    HW111704   7.923   6.450   9.219 -0.8921  0.6161 -0.9481
 1956SOL    HW211705   7.848   6.319   9.212  1.3013 -0.7588  0.1625
 1957SOL     OW11706  10.164   3.059   7.969 -0.3654  0.3887 -0.1414
 1957SOL    HW111707  10.201   3.146   7.985  0.6436 -0.1096  0.2997
 1957SOL    HW211708  10.212   3.001   8.028 -2.2372 -0.2128  0.8708
 1958SOL     OW11709   1.762   7.153   9.378  0.0759  0.0725 -0.0293
 1958SOL    HW111710   1.792   7.077   9.427  1.0598  0.5113  0.0701
 1958SOL    HW211711   1.804   7.228   9.420  0.4447  0.5172 -1.1261
 1959SOL     OW11712  10.453   9.002   3.226 -0.0345  0.0320 -0.2342
 1959SOL    HW111713  10.432   9.095   3.235  0.0982  0.1202 -0.7855
 1959SOL    HW211714  10.391   8.970   3.161 -1.1398 -0.6364  1.1051
 1960SOL     OW11715   5.125   0.970   3.511 -0.4668  0.0536  0.1982
 1960SOL    HW111716   5.103   1.002   3.423  0.2736 -0.3329 -0.1410
 1960SOL    HW211717   5.176   0.890   3.495 -1.1031 -0.5344  0.9985
 1961SOL     OW11718   2.922   4.631   1.825  0.2677  0.5837 -0.3702
 1961SOL    HW111719   3.017   4.623   1.824  0.1873 -0.5706 -0.1674
 1961SOL    HW211720   2.890   4.542   1.809 -0.7776  0.8356  0.2012
 1962SOL     OW11721   6.525   1.660   4.522  0.4151 -0.0718  0.4298
 1962SOL    HW111722   6.591   1.605   4.563 -0.2338 -1.0755  0.1535
 1962SOL    HW211723   6.529   1.638   4.429  0.4710  0.7010  0.2389
 1963SOL     OW11724   4.968  10.880   8.003  0.2879  0.0711  0.0214
 1963SOL    HW111725   4.912  10.843   7.934  1.6679  0.4962 -1.3985
 1963SOL    HW211726   4.922  10.958   8.032 -1.0562 -0.9364  0.6941
 1964SOL     OW11727   3.692   0.011   3.583  0.2450 -0.1929  0.4017
 1964SOL    HW111728   3.710   0.013   3.677 -0.5803  1.1165  0.5537
 1964SOL    HW211729   3.700   0.102   3.555 -0.0493 -0.4880 -0.6965
 1965SOL     OW11730   4.220   7.702   6.602 -0.3430 -1.0004  0.5209
 1965SOL    HW111731   4.206   7.796   6.591  0.9632 -0.8390 -0.0103
 1965SOL    HW211732   4.144   7.661   6.563  0.6318 -0.2436 -2.4338
 1966SOL     OW11733   8.580   7.361   1.664 -0.4001 -0.1049 -0.0217
 1966SOL    HW111734   8.649   7.353   1.599 -0.2062 -1.1400  0.3023
 1966SOL    HW211735   8.612   7.313   1.740 -1.2262 -0.1121  0.3334
 1967SOL     OW11736   4.192   1.536   6.113 -0.5623  0.2308  0.1002
 1967SOL    HW111737   4.139   1.608   6.146  0.2027  0.3382  1.1690
 1967SOL    HW211738   4.179   1.466   6.177  0.4778  0.2222  0.3205
 1968SOL     OW11739   3.657   3.310   9.246 -0.2390 -0.5000  0.2915
 1968SOL    HW111740   3.670   3.396   9.286  1.4530 -0.6746  0.2154
 1968SOL    HW211741   3.563   3.303   9.233 -0.6176  0.4921  2.1644
 1969SOL     OW11742   7.321   0.616   3.863  0.4553  0.0359 -0.4579
 1969SOL    HW111743   7.411   0.640   3.887  0.6373 -0.7302 -0.3503
 1969SOL    HW211744   7.320   0.520   3.868 -0.2789  0.0246 -0.7836
 1970SOL     OW11745   6.815   2.823   4.972  0.3354 -0.6238 -0.1319
 1970SOL    HW111746   6.753   2.810   4.900  1.7402  1.4467 -1.8608
 1970SOL    HW211747   6.899   2.793   4.937  1.0457  0.3599  0.6542
 1971SOL     OW11748   2.343   1.878   3.954  0.5682  0.0851 -0.8991
 1971SOL    HW111749   2.425   1.891   4.002  2.4880  0.1941 -3.9725
 1971SOL    HW211750   2.311   1.967   3.938 -0.9524  0.0404  1.3410
 1972SOL     OW11751   2.037   0.276   3.811 -0.0359 -0.0342 -0.1324
 1972SOL    HW111752   2.101   0.255   3.879  0.9767  1.5307 -0.5618
 1972SOL    HW211753   2.088   0.312   3.739 -1.4112  1.8950 -0.2330
 1973SOL     OW11754   5.228  10.499   9.017  0.0118 -0.2361  0.5246
 1973SOL    HW111755   5.155  10.493   9.078  0.1212 -1.9601  0.5190
 1973SOL    HW211756   5.191  10.475   8.932  0.4003 -0.3342  0.3777
 1974SOL     OW11757   6.443   1.711   0.014  0.3109 -0.6127 -0.4756
 1974SOL    HW111758   6.467   1.783   0.071 -1.0868  1.4879 -2.3550
 1974SOL    HW211759   6.377   1.662   0.063  0.3799  0.1280  0.3662
 1975SOL     OW11760  10.669   5.248   9.324  0.4514  1.1303 -0.3257
 1975SOL    HW111761  10.706   5.323   9.278  1.7077  1.1747  0.6664
 1975SOL    HW211762  10.673   5.272   9.417  0.1495  0.1515 -0.0369
 1976SOL     OW11763   6.793   4.195  10.476 -0.5267  0.1109  0.0742
 1976SOL    HW111764   6.830   4.193  10.564  0.2218 -0.2658 -0.2454
 1976SOL    HW211765   6.761   4.285  10.465 -1.7158 -0.1453  1.1683
 1977SOL     OW11766   6.284   3.067   8.792 -0.2617 -0.3654  0.2882
 1977SOL    HW111767   6.338   3.088   8.716  0.7767  0.9770  1.3406
 1977SOL    HW211768   6.296   2.973   8.805  1.3345 -0.2115  0.1071
 1978SOL     OW11769   2.699   1.849   2.250  0.2475 -0.0149 -0.0672
 1978SOL    HW111770   2.705   1.891   2.165 -0.4356 -2.2916 -1.3045
 1978SOL    HW211771   2.655   1.914   2.306 -1.1616  0.7625 -1.9849
 1979SOL     OW11772   6.129   5.982   1.539  0.3624 -0.0139 -0.5104
 1979SOL    HW111773   6.195   5.970   1.472  0.9313  0.4995 -0.0465
 1979SOL    HW211774   6.046   5.973   1.493  0.7513 -0.0171 -1.2138
 1980SOL     OW11775   8.638   1.350   5.457 -0.1912 -0.2326 -0.1551
 1980SOL    HW111776   8.716   1.299   5.477  0.7277  1.0242 -0.4495
 1980SOL    HW211777   8.631   1.345   5.361 -0.6812 -0.6198 -0.1045
 1981SOL     OW11778   2.407   1.264   7.636 -0.3494 -0.1402  0.2161
 1981SOL    HW111779   2.476   1.263   7.569  0.8201  2.7199  1.2413
 1981SOL    HW211780   2.431   1.193   7.696  2.0096  1.0041  0.7439
 1982SOL     OW11781   8.302   9.404   8.344  0.8444  0.3056  0.0738
 1982SOL    HW111782   8.274   9.329   8.292  1.0970  0.1673  0.1350
 1982SOL    HW211783   8.242   9.474   8.319 -0.2600 -0.2715  1.0156
 1983SOL     OW11784   2.820   2.454   3.869  0.5143  0.1444 -0.3587
 1983SOL    HW111785   2.778   2.485   3.949 -0.2600 -0.0383 -0.6763
 1983SOL    HW211786   2.911   2.482   3.876 -0.0038  1.9642 -0.3718
 1984SOL     OW11787   4.028   8.467   6.083  0.3320 -0.5366 -0.0301
 1984SOL    HW111788   4.119   8.464   6.113  0.0756  0.0645  0.8479
 1984SOL    HW211789   3.996   8.378   6.092  0.6002 -0.5890  0.4154
 1985SOL     OW11790   5.867   8.333   8.458  0.0575 -0.1214  0.1841
 1985SOL    HW111791   5.806   8.294   8.521 -0.0358 -0.2032  0.0424
 1985SOL    HW211792   5.845   8.292   8.375  0.5655 -0.4481  0.2035
 1986SOL     OW11793   9.799   9.899   6.674 -0.0102 -0.4306  0.1819
 1986SOL    HW111794   9.755   9.826   6.631  0.1793  0.0547 -0.8638
 1986SOL    HW211795   9.793   9.971   6.612  0.2947  0.2878  0.9643
 1987SOL     OW11796   2.752   7.088   4.928  0.3772 -0.1008 -0.4594
 1987SOL    HW111797   2.821   7.058   4.870  1.0967  1.3459 -0.3698
 1987SOL    HW211798   2.745   7.182   4.912  2.9268  1.1421  4.0444
 1988SOL     OW11799   2.835   2.523   2.663  0.2681 -0.0082  0.0144
 1988SOL    HW111800   2.921   2.565   2.664  0.4196 -0.2715  2.0794
 1988SOL    HW211801   2.795   2.549   2.746 -1.5282 -0.1696 -0.7613
 1989SOL     OW11802   6.969   3.820   7.424 -0.2108 -0.0667  0.6161
 1989SOL    HW111803   6.911   3.893   7.400  0.5985  0.2303 -0.5120
 1989SOL    HW211804   6.941   3.749   7.365  1.6659  0.6077 -1.2132
 1990SOL     OW11805   7.970   2.920  10.480  0.5893  0.2948 -0.6839
 1990SOL    HW111806   7.963   2.973  10.400  1.4820  0.3116 -0.7537
 1990SOL    HW211807   8.042   2.860  10.462 -1.6625 -2.4280 -1.4659
 1991SOL     OW11808   1.888   6.062   6.103 -0.6037 -0.1473  0.3288
 1991SOL    HW111809   1.892   5.978   6.057 -0.3039 -0.4598  0.9118
 1991SOL    HW211810   1.795   6.081   6.111 -0.7714  1.6533 -3.4684
 1992SOL     OW11811   7.909   3.730   5.764 -0.1902  0.4987 -0.0382
 1992SOL    HW111812   7.855   3.659   5.798  0.2803 -0.8044 -1.8719
 1992SOL    HW211813   7.993   3.720   5.808  0.1129 -0.5744 -0.8271
 1993SOL     OW11814   1.240   8.448   8.274 -0.2940  0.1175  0.4362
 1993SOL    HW111815   1.297   8.386   8.320  0.8243  1.5494  1.0850
 1993SOL    HW211816   1.281   8.533   8.289 -1.8146  1.0330 -0.3602
 1994SOL     OW11817   2.802   8.611   2.962  0.0650  0.4250  0.1052
 1994SOL    HW111818   2.843   8.609   2.876  1.4424 -0.5412  0.7374
 1994SOL    HW211819   2.715   8.573   2.949  0.1729  0.4996 -0.8831
 1995SOL     OW11820   6.591   9.365   9.751 -0.2832  0.2285  0.1957
 1995SOL    HW111821   6.598   9.458   9.770  0.9348  0.3456 -0.7581
 1995SOL    HW211822   6.567   9.325   9.835 -0.0789  1.3042  0.7795
 1996SOL     OW11823   5.768   4.310   2.235 -0.0284  0.6123 -0.8778
 1996SOL    HW111824   5.691   4.287   2.182  0.5592  0.3563 -1.6375
 1996SOL    HW211825   5.842   4.272   2.187  0.3459 -1.5108  1.1853
 1997SOL     OW11826   6.622   2.337   6.958  0.1712 -0.2272 -0.2212
 1997SOL    HW111827   6.536   2.302   6.934  1.5347 -1.2101 -4.4956
 1997SOL    HW211828   6.674   2.261   6.981  0.9942 -0.2120 -1.8839
 1998SOL     OW11829   1.702   5.014   0.573 -0.6320 -0.2520  0.0959
 1998SOL    HW111830   1.695   5.088   0.634 -1.2291 -0.3906  0.1992
 1998SOL    HW211831   1.725   4.939   0.628 -3.6154 -0.9313  0.5882
 1999SOL     OW11832   6.915   2.626   8.982  0.1115  0.3905  0.1861
 1999SOL    HW111833   6.888   2.605   9.072 -0.8006 -2.0847 -0.5766
 1999SOL    HW211834   7.007   2.650   8.989  0.2216 -0.3754  1.6974
 2000SOL     OW11835   4.831   6.121   0.755  0.5735  0.2914  0.1010
 2000SOL    HW111836   4.804   6.208   0.787 -0.4708 -0.0454  0.1789
 2000SOL    HW211837   4.767   6.061   0.793  0.8212 -0.4232 -0.5936
 2001SOL     OW11838   0.144   8.334   9.758 -0.2008 -0.1382  0.8420
 2001SOL    HW111839   0.085   8.262   9.739 -0.8568  0.4364  0.6467
 2001SOL    HW211840   0.227   8.309   9.716 -0.2873 -0.9720  1.1670
 2002SOL     OW11841   6.817   7.627   9.135  0.6247  1.0874  0.2938
 2002SOL    HW111842   6.897   7.614   9.083  0.3343 -0.8746  0.2412
 2002SOL    HW211843   6.849   7.654   9.221  1.2378  2.0709 -0.2297
 2003SOL     OW11844   3.265   0.906  10.799 -0.1339 -0.0647 -0.6046
 2003SOL    HW111845   3.329   0.863  10.855  0.2608  0.5002 -0.6045
 2003SOL    HW211846   3.281   0.871  10.712 -0.2549 -0.3987 -0.4922
 2004SOL     OW11847   8.441   3.712   0.568  0.4756  0.4787  0.7249
 2004SOL    HW111848   8.513   3.652   0.550 -0.2667 -0.1048 -0.4194
 2004SOL    HW211849   8.439   3.771   0.493 -0.7118  0.0091  0.3712
 2005SOL     OW11850   4.258   0.961   4.340 -0.3544 -0.0072 -0.3570
 2005SOL    HW111851   4.238   1.050   4.370  1.0417  0.3680 -0.5056
 2005SOL    HW211852   4.199   0.905   4.391  0.6854  0.7623  1.8066
 2006SOL     OW11853  10.594   8.014   8.354 -0.1704  0.0081  0.9689
 2006SOL    HW111854  10.600   7.921   8.377 -1.0345  0.1399  1.7527
 2006SOL    HW211855  10.583   8.014   8.259  0.0710 -0.6756  0.9351
 2007SOL     OW11856  10.461   7.227   8.573  0.2506 -0.6625 -0.2632
 2007SOL    HW111857  10.499   7.259   8.654  1.4306 -1.5312 -0.4298
 2007SOL    HW211858  10.366   7.236   8.584  0.2953 -2.0519  1.7883
 2008SOL     OW11859   7.356   2.335   1.254 -0.1575  0.2391 -0.8118
 2008SOL    HW111860   7.418   2.408   1.255 -1.3524  1.3464 -2.6816
 2008SOL    HW211861   7.400   2.267   1.204  1.1470 -0.6000  1.3155
 2009SOL     OW11862   3.798   7.752   8.774 -0.7558 -0.4466  0.1047
 2009SOL    HW111863   3.826   7.676   8.826  0.3030 -0.2437 -0.1482
 2009SOL    HW211864   3.841   7.826   8.816 -0.4576 -0.1946 -0.6334
 2010SOL     OW11865   8.679   4.209   6.475  0.1587  0.2674  0.6974
 2010SOL    HW111866   8.687   4.202   6.380  1.7828  0.5099  0.7917
 2010SOL    HW211867   8.629   4.131   6.500  1.7943 -1.1211 -0.1469
 2011SOL     OW11868   6.500   2.948   0.652 -0.2072 -0.5990 -0.0944
 2011SOL    HW111869   6.465   2.896   0.724 -0.8531 -1.5157 -1.0402
 2011SOL    HW211870   6.521   3.033   0.691 -2.8939 -0.2115  0.6651
 2012SOL     OW11871   5.318   6.616   7.373 -0.1297 -0.3067  0.6662
 2012SOL    HW111872   5.235   6.640   7.331  0.6431  0.4767 -0.4822
 2012SOL    HW211873   5.354   6.547   7.317 -0.3776 -1.2368  1.6251
 2013SOL     OW11874   3.125   5.694   7.974 -0.9353  0.5506 -0.4862
 2013SOL    HW111875   3.044   5.666   8.016 -1.1670  1.0105 -0.6193
 2013SOL    HW211876   3.138   5.784   8.004  0.5785 -0.1360  1.1031
 2014SOL     OW11877   4.059   9.593   6.506 -0.1029  0.0758 -0.3187
 2014SOL    HW111878   4.093   9.644   6.580  0.9357  1.7679 -1.8910
 2014SOL    HW211879   4.124   9.523   6.494  0.4076  0.5626 -0.4267
 2015SOL     OW11880   9.041   1.975  10.527 -0.8043  0.2223  0.1880
 2015SOL    HW111881   9.133   1.999  10.534 -0.8584  0.6290 -0.4306
 2015SOL    HW211882   9.000   2.012  10.605 -0.3659 -0.3577  0.7020
 2016SOL     OW11883   1.042   0.325   8.277 -0.8608 -0.6624  0.0236
 2016SOL    HW111884   1.058   0.265   8.351  3.0615 -0.9256 -0.8077
 2016SOL    HW211885   1.075   0.409   8.308 -2.5139  0.1192 -0.2654
 2017SOL     OW11886   2.638   8.518   7.113  0.0996 -0.0111 -0.5893
 2017SOL    HW111887   2.608   8.520   7.204 -1.4087  1.1029 -1.0728
 2017SOL    HW211888   2.685   8.435   7.105  0.8345  0.1619  1.3668
 2018SOL     OW11889   1.426   0.519   9.743  0.2505  0.5707 -0.7426
 2018SOL    HW111890   1.380   0.576   9.804  2.0400  0.2646  1.0290
 2018SOL    HW211891   1.484   0.578   9.694  2.5762  0.3602  1.5381
 2019SOL     OW11892  10.104   5.750   7.251 -0.0969  0.0068 -0.5282
 2019SOL    HW111893  10.151   5.825   7.215  0.1758 -0.6300 -1.5181
 2019SOL    HW211894  10.012   5.768   7.230 -0.1405  0.5309  0.0952
 2020SOL     OW11895   4.478   8.562   4.569  0.6602  0.1453 -0.3126
 2020SOL    HW111896   4.398   8.582   4.617  0.6082  2.0184 -1.0992
 2020SOL    HW211897   4.541   8.536   4.637  0.1674  1.2788  0.6142
 2021SOL     OW11898   5.319   3.204   9.719 -0.2848 -0.0437  0.5203
 2021SOL    HW111899   5.329   3.276   9.782 -1.2155 -0.3729  1.0647
 2021SOL    HW211900   5.226   3.182   9.722 -0.1522 -0.7553 -0.2227
 2022SOL     OW11901   6.532   5.408   3.266  0.5785  0.4803 -0.3458
 2022SOL    HW111902   6.560   5.406   3.358  1.5496  0.8970 -0.6199
 2022SOL    HW211903   6.446   5.450   3.268  0.6238  0.5522  0.3695
 2023SOL     OW11904   5.480   9.695   9.962  0.2090  0.1157  0.1821
 2023SOL    HW111905   5.499   9.785   9.935  1.2587 -0.5635 -1.5428
 2023SOL    HW211906   5.543   9.642   9.913 -0.0034 -1.5260  1.5869
 2024SOL     OW11907   6.928   9.304   6.921  0.0814  0.2454  0.2769
 2024SOL    HW111908   6.934   9.267   7.009  0.0695 -0.1528  0.1127
 2024SOL    HW211909   6.888   9.390   6.934 -0.4934 -0.0655  0.5939
 2025SOL     OW11910   2.811   6.207   3.068  0.1800 -0.5348 -0.1416
 2025SOL    HW111911   2.869   6.279   3.092  0.3579 -1.0163  0.9134
 2025SOL    HW211912   2.870   6.133   3.052  0.3800  0.3320 -4.7851
 2026SOL     OW11913   8.987   6.813   6.117  0.1402  0.2433  0.1361
 2026SOL    HW111914   9.055   6.857   6.066 -0.0494  0.4704  0.0835
 2026SOL    HW211915   8.942   6.757   6.054 -1.1247  1.6984 -0.2927
 2027SOL     OW11916   0.862   9.590   7.252  0.3759  0.0160  0.5901
 2027SOL    HW111917   0.945   9.546   7.269 -0.4220 -2.1094 -0.6103
 2027SOL    HW211918   0.801   9.550   7.314 -0.0985  0.3788  0.3610
 2028SOL     OW11919   1.394   6.397   4.611 -0.1038 -0.3440  0.3563
 2028SOL    HW111920   1.315   6.445   4.587  0.7993  0.0720 -2.1468
 2028SOL    HW211921   1.426   6.360   4.529  1.1097 -2.3831  1.6643
 2029SOL     OW11922   4.674   8.240   9.564  0.0268  0.3432  0.3218
 2029SOL    HW111923   4.679   8.328   9.601 -0.8879 -0.5029  2.6514
 2029SOL    HW211924   4.745   8.192   9.606 -0.1493 -0.3071 -0.1070
 2030SOL     OW11925   3.287   1.708   5.633 -0.3324  0.3116  0.3497
 2030SOL    HW111926   3.250   1.774   5.691 -0.7283 -0.0364  0.4974
 2030SOL    HW211927   3.213   1.676   5.582 -0.0367  0.4155 -0.1491
 2031SOL     OW11928   5.351   1.000   4.569  0.2596 -0.4001  0.0589
 2031SOL    HW111929   5.318   1.042   4.490 -1.0743 -1.2693  0.1130
 2031SOL    HW211930   5.423   0.945   4.539  0.1027 -0.3199 -0.4741
 2032SOL     OW11931   3.406   3.711   1.543 -0.8126  0.9783  0.4915
 2032SOL    HW111932   3.457   3.663   1.478  0.9169  3.5123 -0.1903
 2032SOL    HW211933   3.420   3.663   1.625 -0.6380 -0.6457 -0.4535
 2033SOL     OW11934   5.482  10.784  10.691 -0.5072  0.1967 -0.2348
 2033SOL    HW111935   5.478  10.810  10.599  1.3294 -1.6608 -0.9372
 2033SOL    HW211936   5.575  10.794  10.714 -0.8748  0.2713  1.3094
 2034SOL     OW11937   6.971   1.282   8.473  0.2100 -0.7365  0.2164
 2034SOL    HW111938   6.936   1.356   8.522 -1.7006 -2.4609  1.6286
 2034SOL    HW211939   6.957   1.306   8.381  2.0787  1.7158  0.4588
 2035SOL     OW11940   1.154   0.380   0.574  0.5470 -0.2799  0.0020
 2035SOL    HW111941   1.096   0.324   0.626  0.1592  0.6921  0.6320
 2035SOL    HW211942   1.238   0.377   0.620  0.3115  0.2678  0.4761
 2036SOL     OW11943   7.986   9.035   4.582  0.3633  0.1836  0.2677
 2036SOL    HW111944   7.903   9.032   4.535 -0.2665  1.5807  1.2226
 2036SOL    HW211945   8.025   8.949   4.568 -1.4702 -0.6704  0.1999
 2037SOL     OW11946   5.271   7.482   5.741  0.0137  0.0826 -0.1677
 2037SOL    HW111947   5.219   7.528   5.806 -1.6860  2.2412 -2.8607
 2037SOL    HW211948   5.216   7.408   5.714 -0.5004  0.7397 -0.9906
 2038SOL     OW11949   0.201  10.676   9.925 -0.2196 -0.0271  0.5168
 2038SOL    HW111950   0.200  10.644  10.015  0.6188 -0.6989  0.3055
 2038SOL    HW211951   0.110  10.670   9.896 -0.2382 -1.3715  0.7911
 2039SOL     OW11952   5.098   6.875   3.591 -0.1273 -0.4384  0.1046
 2039SOL    HW111953   5.181   6.845   3.557  0.2100 -1.2595  1.5774
 2039SOL    HW211954   5.109   6.970   3.602  0.3780 -0.4497 -0.2962
 2040SOL     OW11955   4.029   4.100   8.160 -0.0124  0.4292  0.4175
 2040SOL    HW111956   3.934   4.099   8.164 -0.0432 -1.3736  0.2282
 2040SOL    HW211957   4.049   4.144   8.077 -0.7146  0.0589  0.0432
 2041SOL     OW11958   0.261   8.568   5.191  0.0068 -0.2675  0.0162
 2041SOL    HW111959   0.330   8.575   5.125 -0.5130 -2.2588 -0.8109
 2041SOL    HW211960   0.194   8.514   5.149 -1.5841  0.7375  1.1957
 2042SOL     OW11961   0.272   3.652  10.611 -0.2685 -0.0357  0.3768
 2042SOL    HW111962   0.270   3.574  10.556  0.9425 -0.4337  0.8518
 2042SOL    HW211963   0.240   3.623  10.696  1.3841 -0.3546  0.9176
 2043SOL     OW11964   1.202   2.225   4.621 -0.2172  0.3476  0.2792
 2043SOL    HW111965   1.216   2.319   4.635  1.2579  0.0769  0.8212
 2043SOL    HW211966   1.278   2.197   4.569 -0.4347 -0.6182  0.4694
 2044SOL     OW11967   0.698   0.554   3.975  0.3210  0.1426 -0.2065
 2044SOL    HW111968   0.658   0.468   3.984 -0.2588  0.5442  1.7091
 2044SOL    HW211969   0.647   0.610   4.035  0.4652  1.8978 -1.6271
 2045SOL     OW11970   4.954   2.580   2.985  0.3313  0.0363  0.0468
 2045SOL    HW111971   5.028   2.574   2.925  1.4319  2.7421  0.9868
 2045SOL    HW211972   4.901   2.652   2.952 -0.4699 -0.1608  0.8486
 2046SOL     OW11973   9.504   1.238   3.056 -0.0847  0.1562  0.2628
 2046SOL    HW111974   9.581   1.294   3.049 -1.3166  2.0548  1.0159
 2046SOL    HW211975   9.444   1.287   3.112 -1.8301 -1.2712 -0.2649
 2047SOL     OW11976   5.933   0.023   7.334 -0.1543  0.1570 -0.2469
 2047SOL    HW111977   5.980   0.063   7.407 -1.4854  2.5057 -0.5765
 2047SOL    HW211978   5.852   0.073   7.327 -2.1076 -2.7991 -0.6095
 2048SOL     OW11979   3.745   0.868   1.280 -0.0226  0.3864 -0.2294
 2048SOL    HW111980   3.717   0.832   1.364 -0.0890 -1.9715 -1.1974
 2048SOL    HW211981   3.840   0.856   1.279  0.1737  1.8063  0.1105
 2049SOL     OW11982   3.477  10.376   3.013 -0.4073  0.3527  0.0722
 2049SOL    HW111983   3.503  10.456   3.058  0.0602  0.5523 -0.5465
 2049SOL    HW211984   3.393  10.397   2.972 -1.1494 -0.0246  1.3505
 2050SOL     OW11985   9.805   6.876   7.295 -0.0890 -0.1418 -0.0891
 2050SOL    HW111986   9.809   6.789   7.335 -0.1604 -2.5714 -4.5953
 2050SOL    HW211987   9.897   6.898   7.278 -0.1342 -0.2063 -0.4388
 2051SOL     OW11988  10.308   7.878   5.522  0.1036 -0.1236 -0.8028
 2051SOL    HW111989  10.386   7.903   5.570  0.2436  0.0350 -1.1069
 2051SOL    HW211990  10.298   7.785   5.537 -0.1350  0.0181 -0.0624
 2052SOL     OW11991  10.004   3.986  10.017  0.1669  0.6559 -0.7006
 2052SOL    HW111992   9.960   3.902  10.001 -0.8016  0.9088  0.5280
 2052SOL    HW211993  10.097   3.963  10.022 -0.2152 -0.8039  1.9981
 2053SOL     OW11994   4.265   5.803   2.568  0.6240  0.3589 -0.5559
 2053SOL    HW111995   4.359   5.811   2.551  0.7299  0.1522 -0.0601
 2053SOL    HW211996   4.229   5.768   2.486  1.1329 -0.6029 -0.3825
 2054SOL     OW11997   0.880   5.581   8.475  0.3419 -0.1949 -0.1530
 2054SOL    HW111998   0.964   5.616   8.505 -0.9594  2.0243  1.1834
 2054SOL    HW211999   0.860   5.511   8.537  0.7322 -0.0610  0.1287
 2055SOL     OW12000   0.745   7.567   6.107  0.1058 -0.3882 -0.0380
 2055SOL    HW112001   0.780   7.594   6.192  0.4805 -1.5187  0.1850
 2055SOL    HW212002   0.797   7.491   6.083  0.0194 -0.0698 -1.3037
 2056SOL     OW12003   5.428   3.873   5.239  0.1481  0.3754 -0.4251
 2056SOL    HW112004   5.347   3.848   5.193  0.0853  1.8390 -1.1678
 2056SOL    HW212005   5.415   3.965   5.261  1.5306  0.5622 -0.3503
 2057SOL     OW12006   9.407   1.414   3.245  0.6029 -0.1361 -0.3012
 2057SOL    HW112007   9.434   1.475   3.313  2.3957  1.2590 -2.1191
 2057SOL    HW212008   9.328   1.452   3.208 -0.1277 -0.6717  0.6699
 2058SOL     OW12009   9.305   1.040   2.123 -0.8524  0.2187  0.1708
 2058SOL    HW112010   9.280   0.955   2.088 -0.5883 -0.5184  1.7082
 2058SOL    HW212011   9.259   1.047   2.206  0.5943  0.7541  0.9629
 2059SOL     OW12012   6.918   2.391   7.356 -0.3879  0.1921 -0.1134
 2059SOL    HW112013   6.827   2.418   7.354 -0.4347  0.0149 -0.5002
 2059SOL    HW212014   6.961   2.452   7.416 -0.3513  1.5391 -1.4771
 2060SOL     OW12015   2.222   2.249   1.017  0.1989  0.6451  0.3093
 2060SOL    HW112016   2.312   2.266   0.992  0.8065  1.2280  2.6353
 2060SOL    HW212017   2.170   2.314   0.970  1.1985  1.4334  0.2829
 2061SOL     OW12018   2.686   3.260  10.706 -0.0818  0.2054 -0.3462
 2061SOL    HW112019   2.782   3.251  10.709 -0.0045  1.1274  1.3460
 2061SOL    HW212020   2.660   3.264  10.798 -1.7579  0.0448 -0.7838
 2062SOL     OW12021   6.688   2.931   7.525  0.7885 -0.0164  0.1065
 2062SOL    HW112022   6.754   2.995   7.552 -0.1818  0.6958  0.8567
 2062SOL    HW212023   6.736   2.848   7.519  1.8190  0.5506  0.2890
 2063SOL     OW12024   5.134   6.739   7.205 -0.2171  0.0050 -0.5940
 2063SOL    HW112025   5.218   6.771   7.172  0.3290 -0.0314  0.6946
 2063SOL    HW212026   5.099   6.686   7.134  0.6224  0.4231 -1.3399
 2064SOL     OW12027   5.335   2.856   5.127 -0.3862  0.7609 -0.0319
 2064SOL    HW112028   5.399   2.927   5.125  0.5643 -0.0720  0.6425
 2064SOL    HW212029   5.351   2.808   5.046 -1.3649  1.5767 -0.7391
 2065SOL     OW12030   7.901   1.805   5.358  0.0276  0.0948 -0.7846
 2065SOL    HW112031   7.885   1.866   5.286 -1.6886 -0.9913 -1.3829
 2065SOL    HW212032   7.825   1.747   5.358 -0.0518  0.0593  1.9304
 2066SOL     OW12033   5.097   2.954  10.193 -0.3950  0.0180 -0.3454
 2066SOL    HW112034   5.011   2.989  10.217  0.4065  0.0492  2.9521
 2066SOL    HW212035   5.160   3.010  10.239  1.4552 -0.1373 -2.4872
 2067SOL     OW12036   5.258   4.047   9.286  0.2338  0.1141  0.4200
 2067SOL    HW112037   5.183   3.989   9.297 -1.1473  1.9880  1.4708
 2067SOL    HW212038   5.285   4.033   9.195  0.5269 -2.7204  0.8417
 2068SOL     OW12039   7.924   3.364   2.492 -0.0300  0.2403 -0.0846
 2068SOL    HW112040   7.992   3.429   2.511  0.2019 -0.1378  0.3942
 2068SOL    HW212041   7.943   3.335   2.403  1.0737 -0.6180  0.4084
 2069SOL     OW12042   6.182   8.925   5.787 -0.0985  0.6783  0.4018
 2069SOL    HW112043   6.106   8.983   5.792  0.3649  1.8448 -2.9094
 2069SOL    HW212044   6.256   8.979   5.817 -0.1425  0.6796  0.5050
 2070SOL     OW12045   6.975   2.766   2.604  0.2599 -0.2502  0.0739
 2070SOL    HW112046   6.968   2.769   2.509  2.2792  0.0262 -0.0957
 2070SOL    HW212047   6.995   2.675   2.624  0.3455 -0.2037  0.1989
 2071SOL     OW12048  10.084   6.988   2.148 -0.2840  0.3156 -0.2622
 2071SOL    HW112049  10.026   7.063   2.156  0.3164  0.9748 -1.6521
 2071SOL    HW212050  10.028   6.917   2.118 -1.1420 -0.2513  2.4294
 2072SOL     OW12051   9.254  10.161   8.197  0.0317  0.2101  0.5505
 2072SOL    HW112052   9.216  10.220   8.263 -0.7330 -0.1545  0.4503
 2072SOL    HW212053   9.251  10.211   8.116  0.3972  0.4310  0.6708
 2073SOL     OW12054   9.470   3.686   8.732 -0.4199 -0.2493 -0.2254
 2073SOL    HW112055   9.493   3.671   8.824 -1.3099  0.0235  0.0498
 2073SOL    HW212056   9.551   3.716   8.691 -0.1542  0.1800  0.5977
 2074SOL     OW12057  10.607   9.560   3.712 -0.3068  0.2946 -0.1360
 2074SOL    HW112058  10.566   9.482   3.674  1.2000  0.9883 -3.5395
 2074SOL    HW212059  10.534   9.620   3.728 -1.2188 -0.8243  0.0441
 2075SOL     OW12060   7.164   5.166   3.922  0.0613  0.2246 -0.1256
 2075SOL    HW112061   7.142   5.255   3.891  0.0648 -0.1051 -1.1227
 2075SOL    HW212062   7.256   5.156   3.900  0.1750  0.1290  0.3908
 2076SOL     OW12063   9.757   7.037   4.498 -0.7615 -0.6618 -0.0517
 2076SOL    HW112064   9.692   6.985   4.544  0.3040 -2.4766 -0.5168
 2076SOL    HW212065   9.823   6.974   4.470  2.0893  1.2249  1.8072
 2077SOL     OW12066   2.574  10.589  10.193 -0.1193  0.0752  0.0029
 2077SOL    HW112067   2.576  10.600  10.288  1.4347 -0.6413  0.0955
 2077SOL    HW212068   2.665  10.571  10.170 -0.4553  0.3410 -1.6428
 2078SOL     OW12069   3.738   0.284   3.523  0.5889  0.9353  0.0614
 2078SOL    HW112070   3.813   0.275   3.463  0.3629 -0.5372 -0.0453
 2078SOL    HW212071   3.750   0.370   3.564  3.8419 -0.2999  2.0733
 2079SOL     OW12072   3.141   9.636   2.481 -0.1999  0.1906  0.1601
 2079SOL    HW112073   3.155   9.657   2.573  0.6381 -0.2697  0.1484
 2079SOL    HW212074   3.212   9.680   2.435 -1.0806  1.0928 -0.3680
 2080SOL     OW12075   3.613   4.031   3.385 -0.3202  0.2989  0.1492
 2080SOL    HW112076   3.566   4.105   3.424 -0.4925 -0.8650  2.2407
 2080SOL    HW212077   3.566   4.015   3.303 -2.4092  0.4177  1.2516
 2081SOL     OW12078  10.699   8.597   2.737  0.0730 -0.2818 -0.0837
 2081SOL    HW112079  10.647   8.567   2.663  0.6737  2.0193 -1.5329
 2081SOL    HW212080  10.777   8.636   2.698  0.8895  0.1121  1.8067
 2082SOL     OW12081   6.866   8.094   5.329  0.4636 -0.1910 -0.9466
 2082SOL    HW112082   6.855   8.121   5.420 -3.3217 -0.9734 -1.0115
 2082SOL    HW212083   6.812   8.154   5.279 -1.4724 -2.6490 -2.0270
 2083SOL     OW12084   1.496   6.267   6.549  0.2112  0.3930 -0.2118
 2083SOL    HW112085   1.449   6.225   6.478 -0.2273  2.0182 -0.9222
 2083SOL    HW212086   1.551   6.197   6.586 -2.3335 -1.4773  0.3588
 2084SOL     OW12087   4.563   8.269   5.837 -0.0345  0.1648  0.0225
 2084SOL    HW112088   4.575   8.179   5.805 -1.1494 -0.6066  1.6736
 2084SOL    HW212089   4.650   8.296   5.866  0.5208  0.0344 -1.3975
 2085SOL     OW12090   2.894   8.801   9.084  0.2701  0.4395  0.2160
 2085SOL    HW112091   2.908   8.876   9.026 -0.0544  0.3305 -0.0019
 2085SOL    HW212092   2.803   8.810   9.113 -0.1319 -0.4847 -0.6869
 2086SOL     OW12093  10.677   2.887   4.904 -0.3895  0.1564 -0.2232
 2086SOL    HW112094  10.587   2.913   4.921 -0.4981 -0.4004  0.0950
 2086SOL    HW212095  10.706   2.846   4.986 -0.2957 -0.8823 -0.7531
 2087SOL     OW12096  10.838   8.360   0.160  0.6683 -0.4301 -0.2476
 2087SOL    HW112097  10.778   8.359   0.234  2.1537 -1.0622  1.0094
 2087SOL    HW212098  10.809   8.433   0.106 -0.5339 -0.0343  0.8813
 2088SOL     OW12099   1.617   8.355   3.262  0.1990 -0.3081  0.1626
 2088SOL    HW112100   1.592   8.273   3.303 -0.1635 -0.6728 -0.7519
 2088SOL    HW212101   1.537   8.408   3.264 -0.4466 -1.0921 -1.8428
 2089SOL     OW12102  10.059  10.137   4.928 -0.3729 -0.0010 -0.1829
 2089SOL    HW112103  10.146  10.100   4.910 -0.4082 -1.4184  2.2304
 2089SOL    HW212104  10.022  10.081   4.996 -2.7779  1.2119 -0.3785
 2090SOL     OW12105   4.573  10.507   8.936  0.6187 -0.1280 -0.0236
 2090SOL    HW112106   4.549  10.459   8.857  2.3694 -1.0474 -0.0498
 2090SOL    HW212107   4.625  10.581   8.905 -1.3304  1.3768  0.0864
 2091SOL     OW12108  10.540   0.340   7.167 -0.0768 -0.0405  0.2940
 2091SOL    HW112109  10.622   0.312   7.126  0.1303 -0.0285  0.6922
 2091SOL    HW212110  10.481   0.266   7.155 -0.0508  0.0075 -0.1229
 2092SOL     OW12111   0.133   3.528   3.455 -0.3179 -0.3427  0.4122
 2092SOL    HW112112   0.095   3.597   3.509 -0.9296 -0.2583 -0.1135
 2092SOL    HW212113   0.127   3.562   3.366  0.7738 -0.4347  0.2918
 2093SOL     OW12114   0.970   0.864   7.388 -0.4519  0.1882  0.3213
 2093SOL    HW112115   0.901   0.856   7.322  0.5614 -0.7876 -0.6811
 2093SOL    HW212116   1.031   0.929   7.351  0.0849 -0.3045  0.3307
 2094SOL     OW12117   0.732   9.065  10.242  0.0165  0.4990 -0.2405
 2094SOL    HW112118   0.809   9.046  10.296  0.3111  0.7073 -0.5800
 2094SOL    HW212119   0.717   8.985  10.193 -0.0973  0.3929 -0.0300
 2095SOL     OW12120   3.246   6.581   4.209  0.3155  0.1792 -0.0831
 2095SOL    HW112121   3.279   6.549   4.125  2.8552  0.2553  0.8151
 2095SOL    HW212122   3.170   6.526   4.227  1.1451 -1.4488 -1.3014
 2096SOL     OW12123  10.534   1.097   6.200  0.1026 -0.2890 -0.0009
 2096SOL    HW112124  10.566   1.185   6.178  2.8977 -1.4446 -0.9259
 2096SOL    HW212125  10.463   1.082   6.139 -0.3105  1.2350  0.0483
 2097SOL     OW12126   6.073  10.742   9.540 -0.0912  0.4852  0.7814
 2097SOL    HW112127   6.084  10.811   9.605  1.1054  0.1490  0.9524
 2097SOL    HW212128   6.148  10.753   9.481 -0.4806  0.0021  0.1838
 2098SOL     OW12129   5.782   2.443  10.526  0.3453 -0.0848  0.0153
 2098SOL    HW112130   5.737   2.418  10.606 -1.8899  0.7215 -0.9142
 2098SOL    HW212131   5.848   2.374  10.513  0.0153 -0.8228  1.9129
 2099SOL     OW12132  10.890   3.649   0.727  0.3631 -0.2374  0.2265
 2099SOL    HW112133  10.943   3.625   0.803 -0.2911  0.9305  1.0923
 2099SOL    HW212134  10.898   3.744   0.721 -0.3647 -0.2123 -0.5977
 2100SOL     OW12135   9.730  10.153   6.155  0.0125 -0.0327  0.0448
 2100SOL    HW112136   9.774  10.076   6.119  1.1246  1.2114 -1.3852
 2100SOL    HW212137   9.791  10.225   6.140 -0.0857  0.8443  3.2591
 2101SOL     OW12138   5.107   6.234  10.451 -0.1587 -0.3501  0.0056
 2101SOL    HW112139   5.031   6.221  10.506  0.3873 -2.2553  0.3637
 2101SOL    HW212140   5.181   6.242  10.512  0.0116  1.0392 -0.3489
 2102SOL     OW12141  10.387   2.754   6.677  0.3138 -0.2202 -0.3439
 2102SOL    HW112142  10.385   2.701   6.598  0.5974 -1.8539  0.6874
 2102SOL    HW212143  10.297   2.784   6.689 -0.0472 -1.1902 -0.5157
 2103SOL     OW12144   9.821   3.715   2.857 -0.8453 -0.1425  0.1450
 2103SOL    HW112145   9.884   3.676   2.918 -1.1284 -2.1406 -0.7925
 2103SOL    HW212146   9.777   3.782   2.909  1.8809  1.2454  0.9025
 2104SOL     OW12147  10.017   9.571   6.839  0.1811 -0.0270  0.0239
 2104SOL    HW112148  10.007   9.666   6.843 -0.6513 -0.1344  1.3839
 2104SOL    HW212149   9.987   9.541   6.925  2.3931 -1.3604  0.3974
 2105SOL     OW12150   3.252   9.020   2.713 -0.4114  0.1367 -0.1361
 2105SOL    HW112151   3.313   9.078   2.668  0.1323 -1.8077 -2.0945
 2105SOL    HW212152   3.306   8.970   2.775 -0.4780  0.1984 -0.0280
 2106SOL     OW12153   7.339   1.685   3.005 -0.0310  0.0386 -0.6958
 2106SOL    HW112154   7.367   1.681   3.096 -0.5944  1.8194 -0.4252
 2106SOL    HW212155   7.266   1.623   2.999  0.0819 -0.1715  0.0189
 2107SOL     OW12156   3.351   1.736   7.979 -0.3745  0.2814  0.0141
 2107SOL    HW112157   3.338   1.810   7.919 -0.9238  0.3634  0.2273
 2107SOL    HW212158   3.268   1.729   8.026 -0.3908 -0.6002 -0.1405
 2108SOL     OW12159   9.561  10.430   9.824  1.1629 -0.3008  0.6610
 2108SOL    HW112160   9.615  10.352   9.817  1.5310  0.0388 -0.6631
 2108SOL    HW212161   9.478  10.399   9.860  0.9663 -1.4790 -0.7397
 2109SOL     OW12162   9.068   5.120   5.615 -0.4736 -0.1083  0.1290
 2109SOL    HW112163   9.110   5.125   5.529  0.7954  0.0918  0.7387
 2109SOL    HW212164   9.094   5.035   5.650  0.3766  0.4749  0.9712
 2110SOL     OW12165   5.159   5.610   8.170 -0.2294  0.3400 -0.9846
 2110SOL    HW112166   5.067   5.594   8.150 -0.7994 -0.4025  1.8607
 2110SOL    HW212167   5.197   5.523   8.181 -0.1672  0.6073  1.5646
 2111SOL     OW12168   0.701   3.966   3.617 -0.6590 -0.5171 -0.0051
 2111SOL    HW112169   0.743   3.940   3.534 -1.1947 -0.4799 -0.2943
 2111SOL    HW212170   0.756   4.036   3.651 -0.2820 -0.7142 -0.1928
 2112SOL     OW12171   7.101   7.603   5.427  0.1271 -0.0130 -0.0792
 2112SOL    HW112172   7.029   7.650   5.471  0.1845  0.0389 -0.0404
 2112SOL    HW212173   7.120   7.657   5.350 -0.4740 -0.4923 -0.5777
 2113SOL     OW12174   8.722   3.974   5.030 -0.0371  0.1210  0.2002
 2113SOL    HW112175   8.650   3.923   4.994  0.4689  0.3989 -1.3141
 2113SOL    HW212176   8.741   4.039   4.962  2.9366 -1.2095 -0.3959
 2114SOL     OW12177   4.316   9.003   6.918 -0.1977  0.3530 -0.2450
 2114SOL    HW112178   4.227   9.029   6.941 -0.1747 -0.4232  0.7823
 2114SOL    HW212179   4.372   9.047   6.982  0.1036  0.3291 -0.4881
 2115SOL     OW12180   7.070   7.229   2.832  0.3002  0.0509  0.3860
 2115SOL    HW112181   7.028   7.184   2.904  0.1859 -0.9264 -0.2690
 2115SOL    HW212182   7.015   7.305   2.815 -1.1519 -1.1182 -0.3617
 2116SOL     OW12183   5.332   7.326   1.196 -0.3547 -0.0407  0.0997
 2116SOL    HW112184   5.372   7.321   1.109  0.0387  0.3006  0.2545
 2116SOL    HW212185   5.316   7.420   1.209  0.1598 -0.0221  0.6432
 2117SOL     OW12186   7.990   2.756  10.876  0.4537  0.5531  0.2090
 2117SOL    HW112187   8.022   2.833  10.828  2.1984 -1.0342 -1.3043
 2117SOL    HW212188   7.901   2.744  10.843  0.7013  1.0397 -0.6802
 2118SOL     OW12189   5.363   3.223   8.313 -0.0622  0.3183  0.1052
 2118SOL    HW112190   5.344   3.314   8.292  0.0886  0.0467 -1.3339
 2118SOL    HW212191   5.287   3.174   8.282 -0.1177 -0.0623  0.8106
 2119SOL     OW12192   4.850   3.594   5.724  0.4177  0.3342 -0.1110
 2119SOL    HW112193   4.764   3.613   5.760  0.6652  1.4775 -0.1029
 2119SOL    HW212194   4.905   3.580   5.801  0.2019 -0.6602 -0.1182
 2120SOL     OW12195   0.833   3.641   9.256 -0.0197  0.3414 -0.5442
 2120SOL    HW112196   0.787   3.558   9.248  0.7346 -0.0803 -0.4995
 2120SOL    HW212197   0.913   3.621   9.304  0.5661  0.9412 -1.2331
 2121SOL     OW12198   4.354   9.392  10.102  0.1606  0.0589  0.2384
 2121SOL    HW112199   4.353   9.482  10.136  0.7695  0.6972 -1.3452
 2121SOL    HW212200   4.396   9.341  10.171  2.4503  1.5119  0.0346
 2122SOL     OW12201   6.543   6.989   4.028  0.1974 -0.4993 -0.2511
 2122SOL    HW112202   6.500   6.927   3.969  0.7067 -0.8390 -0.2729
 2122SOL    HW212203   6.503   7.074   4.007 -1.2058 -0.9529  0.4632
 2123SOL     OW12204   3.562   2.458   3.997 -0.2181  0.1081 -0.1158
 2123SOL    HW112205   3.574   2.372   4.038 -1.4595  0.4875  1.1076
 2123SOL    HW212206   3.534   2.438   3.908 -1.7779 -0.8121  0.5342
 2124SOL     OW12207   2.994   1.365   1.020  0.0668 -0.0700  0.1666
 2124SOL    HW112208   2.941   1.443   1.037 -1.9975 -0.6670 -2.7924
 2124SOL    HW212209   3.027   1.377   0.931  0.9173 -1.9059  0.1894
 2125SOL     OW12210   2.197   9.246  10.433 -0.6102  0.3826 -0.4698
 2125SOL    HW112211   2.246   9.322  10.466  2.4095 -1.2054 -0.9338
 2125SOL    HW212212   2.181   9.192  10.511  0.5437 -0.1951 -0.6101
 2126SOL     OW12213   9.173   8.368   5.020 -0.2747  0.1615 -0.1320
 2126SOL    HW112214   9.124   8.292   5.053 -1.1502  0.4179 -0.8171
 2126SOL    HW212215   9.201   8.342   4.933 -1.2396  0.8872 -0.6806
 2127SOL     OW12216  10.003   1.775   1.259 -0.1735 -0.8353  0.0626
 2127SOL    HW112217   9.931   1.784   1.196  1.2676  2.1448 -1.3620
 2127SOL    HW212218   9.960   1.771   1.344 -2.0785  0.7468 -0.7430
 2128SOL     OW12219   7.299   5.833   3.496 -0.0283  0.4302  0.5281
 2128SOL    HW112220   7.336   5.922   3.492 -1.6229  1.1208  0.3714
 2128SOL    HW212221   7.211   5.842   3.460  0.5018 -1.6632 -1.5068
 2129SOL     OW12222   3.350   4.161   4.489  0.1899  0.5071  0.1853
 2129SOL    HW112223   3.331   4.140   4.580  1.4294 -0.2397  0.2932
 2129SOL    HW212224   3.305   4.093   4.439  0.2417  0.3961  0.2895
 2130SOL     OW12225   0.032   9.715   5.592 -0.1052 -0.1274 -0.6263
 2130SOL    HW112226   0.036   9.742   5.683  0.0819 -0.4458 -0.5382
 2130SOL    HW212227  -0.028   9.777   5.551  0.0928  0.2387 -0.3662
 2131SOL     OW12228   0.574   9.651   6.533 -0.0880 -0.2410  0.0356
 2131SOL    HW112229   0.498   9.624   6.483 -0.1525  0.1898 -0.0989
 2131SOL    HW212230   0.607   9.570   6.572 -0.7261 -0.3995  0.2524
 2132SOL     OW12231   8.511   3.171   6.504 -0.0911  0.5657  0.3770
 2132SOL    HW112232   8.427   3.174   6.458 -0.0151  0.9270  0.2538
 2132SOL    HW212233   8.559   3.247   6.470 -0.6658  1.8308  2.2646
 2133SOL     OW12234   0.890   6.579  10.280 -0.0792  0.2033  0.9869
 2133SOL    HW112235   0.964   6.624  10.321 -0.9266  1.6264  1.0006
 2133SOL    HW212236   0.929   6.534  10.204  0.4544  2.8785 -0.4293
 2134SOL     OW12237   2.284   9.936   9.854  0.0434  0.2023  0.1647
 2134SOL    HW112238   2.227   9.887   9.796 -0.1736 -0.0396  0.5806
 2134SOL    HW212239   2.363   9.951   9.803  0.2771 -0.9364  0.1622
 2135SOL     OW12240   7.358   7.061   8.815 -0.1411  0.2016 -0.2684
 2135SOL    HW112241   7.429   7.087   8.873  0.0581 -3.2589  1.2719
 2135SOL    HW212242   7.357   7.128   8.746  2.3628  2.1724  1.4362
 2136SOL     OW12243   1.163   1.738   9.096 -0.1788  0.2184  0.7335
 2136SOL    HW112244   1.202   1.650   9.093  0.3438  0.4434  0.7387
 2136SOL    HW212245   1.106   1.737   9.172  0.5281  0.1658  1.2701
 2137SOL     OW12246   0.725   3.789   0.082 -0.9033  0.3928 -0.1840
 2137SOL    HW112247   0.650   3.813   0.137 -1.2616 -2.4291  0.7198
 2137SOL    HW212248   0.695   3.804  -0.007 -2.1179  0.4465  0.2117
 2138SOL     OW12249   1.559   8.185   4.505 -0.1389 -0.2136  1.0226
 2138SOL    HW112250   1.555   8.183   4.600  0.6137  0.8390  1.0939
 2138SOL    HW212251   1.553   8.278   4.483  0.7735 -0.3573  0.1004
 2139SOL     OW12252   1.074   3.597   5.522 -0.4117  0.0872 -0.0869
 2139SOL    HW112253   1.101   3.687   5.544  1.8038 -0.6875  0.5748
 2139SOL    HW212254   1.155   3.552   5.501 -1.2269 -2.2960  1.5328
 2140SOL     OW12255   8.825   1.490   3.216  0.5225  0.3925  0.4007
 2140SOL    HW112256   8.894   1.539   3.261  0.3750  0.6699  0.3284
 2140SOL    HW212257   8.805   1.544   3.139 -1.7413  1.7550  1.8537
 2141SOL     OW12258   1.357   6.664   1.893 -0.4558  0.2277 -0.3643
 2141SOL    HW112259   1.407   6.708   1.961 -0.6501  0.6814 -0.5068
 2141SOL    HW212260   1.272   6.646   1.933  0.1119 -1.3912  0.1858
 2142SOL     OW12261   9.306   1.534   1.187  0.1971 -0.3773  0.5587
 2142SOL    HW112262   9.263   1.607   1.231 -1.2005 -0.8065 -0.0360
 2142SOL    HW212263   9.373   1.504   1.249 -0.0154  0.6309  1.3036
 2143SOL     OW12264   2.166   7.884   6.406  0.4454  0.6593 -0.3295
 2143SOL    HW112265   2.170   7.798   6.363 -0.6447  1.3517 -1.9043
 2143SOL    HW212266   2.152   7.946   6.334 -0.6781  1.9632  0.9658
 2144SOL     OW12267   3.721   5.520   6.239 -0.5898 -0.1223  0.2898
 2144SOL    HW112268   3.633   5.558   6.241 -1.5285 -2.1219 -0.6711
 2144SOL    HW212269   3.717   5.448   6.302  0.1200 -0.6994 -0.3168
 2145SOL     OW12270   1.305   0.899   9.748  0.1867 -0.3485  0.3325
 2145SOL    HW112271   1.382   0.901   9.806  1.1907 -0.2864 -0.9616
 2145SOL    HW212272   1.339   0.868   9.664 -0.8704  1.2968 -0.7563
 2146SOL     OW12273   7.888   8.456   4.408  0.1683  0.3191 -0.5126
 2146SOL    HW112274   7.867   8.469   4.501  1.8489 -0.3353 -0.0119
 2146SOL    HW212275   7.861   8.366   4.390 -0.7162  0.6377 -0.8472
 2147SOL     OW12276  10.315   4.793   6.570 -0.1530 -0.2623  0.6226
 2147SOL    HW112277  10.229   4.810   6.530  0.0084 -0.3367  0.2380
 2147SOL    HW212278  10.356   4.879   6.576  0.5318 -0.4369 -1.0209
 2148SOL     OW12279   9.228   9.436   8.937  0.8375 -0.2407  0.0738
 2148SOL    HW112280   9.276   9.356   8.960 -0.4356 -0.7803  1.0002
 2148SOL    HW212281   9.201   9.473   9.022 -2.0782 -1.0597 -0.3882
 2149SOL     OW12282   1.617   1.205   4.238 -0.2939  0.5243  0.0100
 2149SOL    HW112283   1.689   1.262   4.211  0.0750  0.2261  0.3497
 2149SOL    HW212284   1.582   1.248   4.317 -0.5522  0.7216 -0.2116
 2150SOL     OW12285   2.409   5.491   1.894  0.0863 -0.0851  0.5550
 2150SOL    HW112286   2.439   5.483   1.984  0.1091 -0.6243  0.5026
 2150SOL    HW212287   2.438   5.578   1.866  1.3548 -0.4900  0.5888
 2151SOL     OW12288   9.868   6.034   7.726 -0.2749  0.1346  0.0159
 2151SOL    HW112289   9.943   5.998   7.772 -2.3448 -3.3509  1.0578
 2151SOL    HW212290   9.858   6.122   7.761  1.4364 -0.4672  2.2193
 2152SOL     OW12291   3.793   6.206   1.119 -0.1265  0.5273 -0.0796
 2152SOL    HW112292   3.839   6.228   1.200 -1.2250 -0.6078  0.8947
 2152SOL    HW212293   3.779   6.112   1.124  0.0609  0.3792 -1.7613
 2153SOL     OW12294   2.390   1.794   9.130 -0.0717 -0.0954 -0.2808
 2153SOL    HW112295   2.331   1.775   9.057  1.5758  0.6032 -1.8633
 2153SOL    HW212296   2.348   1.754   9.206 -1.1251 -2.1747 -1.8583
 2154SOL     OW12297   5.158   1.489  10.174  0.4560  0.2053  0.2935
 2154SOL    HW112298   5.223   1.448  10.117 -0.5826  0.0113 -0.7929
 2154SOL    HW212299   5.077   1.488  10.123 -0.5181  0.0333  1.7808
 2155SOL     OW12300   4.609  10.221  10.259  0.0467 -0.2835  0.1641
 2155SOL    HW112301   4.597  10.268  10.177  0.8662  2.5333  1.5520
 2155SOL    HW212302   4.520  10.203  10.289 -0.2709 -0.4452 -0.8235
 2156SOL     OW12303   4.975   8.221   1.327 -0.2195  0.2729 -0.2195
 2156SOL    HW112304   4.897   8.187   1.370  0.1436  0.2676  0.4423
 2156SOL    HW212305   5.036   8.147   1.325 -0.5574  0.0053 -1.5655
 2157SOL     OW12306  10.704   3.032   6.844 -0.2909 -0.2898  0.0926
 2157SOL    HW112307  10.770   3.046   6.911 -0.2295 -1.4189  0.2860
 2157SOL    HW212308  10.753   3.019   6.763 -0.3734  1.4064 -0.2670
 2158SOL     OW12309   5.917   9.745   4.340 -0.2121  0.2241 -0.1790
 2158SOL    HW112310   5.848   9.806   4.314  0.7137  1.2958 -0.1545
 2158SOL    HW212311   5.953   9.712   4.258 -1.9038 -1.7563 -0.2366
 2159SOL     OW12312   6.516   1.203   6.585  0.4122 -0.3717 -0.2653
 2159SOL    HW112313   6.434   1.158   6.561  1.2732 -1.0517 -2.1263
 2159SOL    HW212314   6.554   1.229   6.501  2.2005 -0.2163  0.5512
 2160SOL     OW12315   9.851  10.712   8.787 -0.2118 -0.1890 -0.0054
 2160SOL    HW112316   9.884  10.721   8.876 -1.4124 -1.8426  0.6649
 2160SOL    HW212317   9.804  10.794   8.770  0.1261  0.1851  0.8464
 2161SOL     OW12318   2.036   8.982   3.763 -0.5455 -0.6704 -0.1686
 2161SOL    HW112319   1.991   9.016   3.686 -1.4979 -0.6402  0.3854
 2161SOL    HW212320   2.022   8.887   3.759 -1.5144 -0.5676  0.5205
 2162SOL     OW12321   5.064   4.023   0.355 -0.3036  0.0622 -0.2453
 2162SOL    HW112322   5.150   3.992   0.381 -1.2527 -0.7118  2.3049
 2162SOL    HW212323   5.066   4.117   0.371  0.2314  0.1244 -0.6900
 2163SOL     OW12324   6.488   0.334   7.591 -0.2804  0.2095  0.4174
 2163SOL    HW112325   6.504   0.428   7.581 -1.3307  0.3487 -0.0565
 2163SOL    HW212326   6.516   0.296   7.508 -0.5326  0.2004  0.3356
 2164SOL     OW12327   0.394   8.936   9.140 -0.2787 -0.4641 -0.1478
 2164SOL    HW112328   0.376   8.844   9.158  0.8690 -0.8264 -0.7593
 2164SOL    HW212329   0.449   8.964   9.213  1.7500 -1.0741 -1.3682
 2165SOL     OW12330   9.372   0.656   8.698 -0.0459 -0.0799 -0.3584
 2165SOL    HW112331   9.310   0.648   8.770  0.9717 -2.3568  0.3552
 2165SOL    HW212332   9.418   0.739   8.715 -0.0300 -0.4138  1.4801
 2166SOL     OW12333   9.023   6.295   2.683  0.0051 -0.5972 -0.2817
 2166SOL    HW112334   9.085   6.262   2.617  0.1448  1.8618 -1.5194
 2166SOL    HW212335   8.937   6.281   2.645 -0.0772 -1.5865  0.2414
 2167SOL     OW12336   7.576   9.601   6.297 -0.1783 -0.1560  0.2041
 2167SOL    HW112337   7.618   9.647   6.224  0.3107 -2.0143 -0.7376
 2167SOL    HW212338   7.497   9.563   6.258  0.5275 -1.8907  0.3803
 2168SOL     OW12339   7.877   0.566   9.590 -0.0143  0.1241 -0.4385
 2168SOL    HW112340   7.793   0.527   9.614 -0.3629  1.3411  0.3454
 2168SOL    HW212341   7.855   0.630   9.522  0.4171 -0.2308 -0.9221
 2169SOL     OW12342   3.189   0.860   8.775 -0.5331  0.7845 -0.1091
 2169SOL    HW112343   3.097   0.873   8.755 -0.3390  3.6891  0.5312
 2169SOL    HW212344   3.192   0.844   8.870 -0.4101 -0.2973 -0.2755
 2170SOL     OW12345   3.169   4.054   5.856  0.3241  0.1794 -0.7134
 2170SOL    HW112346   3.172   3.967   5.898  0.7519 -0.5972 -2.2698
 2170SOL    HW212347   3.108   4.043   5.783 -1.2898  1.8184  0.3134
 2171SOL     OW12348   7.307   2.174   6.791  0.0214 -0.1210  0.3860
 2171SOL    HW112349   7.285   2.260   6.754  2.9003  0.3914 -0.3312
 2171SOL    HW212350   7.320   2.191   6.884 -1.4755 -0.2413  0.6382
 2172SOL     OW12351   6.729   9.325   4.274  0.2828  0.1864 -0.0230
 2172SOL    HW112352   6.744   9.301   4.365  1.7868  1.1305  0.0117
 2172SOL    HW212353   6.680   9.408   4.279 -1.2416 -0.6641 -0.1196
 2173SOL     OW12354  10.753   3.348   3.083  0.1371 -0.4278  0.2051
 2173SOL    HW112355  10.695   3.424   3.092  0.5155 -0.1164  0.0276
 2173SOL    HW212356  10.758   3.311   3.171  0.6787  0.2879  0.4758
 2174SOL     OW12357   2.009   0.479   6.207 -0.0842  0.2174  0.1519
 2174SOL    HW112358   1.970   0.412   6.151 -1.0445  2.1438 -1.6101
 2174SOL    HW212359   2.092   0.440   6.235 -0.9569 -2.0038 -0.1109
 2175SOL     OW12360   0.682   3.864  10.435 -0.3135 -0.0121 -0.4513
 2175SOL    HW112361   0.587   3.854  10.435 -0.5076  0.9552  2.3386
 2175SOL    HW212362   0.716   3.779  10.463 -0.4643  0.0443 -0.0888
 2176SOL     OW12363   6.069   1.175   9.260 -0.0929  0.2403 -0.2422
 2176SOL    HW112364   6.095   1.261   9.227  1.5173 -0.6455 -1.4383
 2176SOL    HW212365   5.974   1.180   9.268 -0.0902  1.9358 -0.8611
 2177SOL     OW12366   7.199   2.123   6.464 -0.0629 -0.2381 -0.1745
 2177SOL    HW112367   7.162   2.035   6.471  0.5255 -0.4248  0.8947
 2177SOL    HW212368   7.275   2.121   6.523  0.8353  0.5347 -1.2806
 2178SOL     OW12369   7.568   0.629   6.345 -0.0047 -0.3553 -0.5058
 2178SOL    HW112370   7.659   0.607   6.326 -0.2745 -1.1146 -0.9748
 2178SOL    HW212371   7.556   0.716   6.306  0.7775  0.1800  0.4087
 2179SOL     OW12372   9.123  10.218   7.273 -0.0883 -0.0937  0.0182
 2179SOL    HW112373   9.215  10.236   7.295  0.1989  1.3166 -2.0076
 2179SOL    HW212374   9.126  10.138   7.222 -0.1960 -0.8230  1.1151
 2180SOL     OW12375   0.878   9.898   5.509 -0.5729  0.1486  0.1638
 2180SOL    HW112376   0.923   9.849   5.440  0.3326  1.6209 -0.3568
 2180SOL    HW212377   0.933   9.975   5.523 -2.3349  1.4423  0.3343
 2181SOL     OW12378   0.094   7.440   3.012 -0.1148  0.1325  0.0673
 2181SOL    HW112379   0.092   7.436   2.917 -2.8390 -0.5134  0.0662
 2181SOL    HW212380   0.158   7.508   3.032 -1.4762  2.2783 -2.3168
 2182SOL     OW12381  10.566   3.270   3.739 -0.4037 -0.6124 -0.3991
 2182SOL    HW112382  10.632   3.200   3.738 -0.9185 -1.2807  2.6895
 2182SOL    HW212383  10.603   3.338   3.683  0.6340 -2.8612 -2.6368
 2183SOL     OW12384   7.209   3.676   9.369 -0.5408  0.3727  0.1555
 2183SOL    HW112385   7.166   3.708   9.290  0.0326 -0.3479 -0.4609
 2183SOL    HW212386   7.249   3.593   9.343 -1.8456 -0.7826  1.6689
 2184SOL     OW12387   0.793   0.060   1.095 -0.0373 -0.6251 -0.5099
 2184SOL    HW112388   0.813   0.080   1.004 -1.2603 -0.1381 -0.6997
 2184SOL    HW212389   0.698   0.074   1.102  0.1063 -0.1822  0.9495
 2185SOL     OW12390   9.682   4.698   1.820 -0.3542 -0.1678  0.1934
 2185SOL    HW112391   9.653   4.707   1.911 -0.1556 -0.7518  0.3209
 2185SOL    HW212392   9.614   4.644   1.779 -1.5587  1.7971 -0.5653
 2186SOL     OW12393   3.788   7.249   9.244  0.4002  0.2102 -0.5769
 2186SOL    HW112394   3.834   7.332   9.242 -0.2896  0.6118 -0.1873
 2186SOL    HW212395   3.749   7.245   9.331  0.3989 -0.5027 -0.6053
 2187SOL     OW12396   8.144   6.229  10.451  0.1352 -0.6531  0.1506
 2187SOL    HW112397   8.165   6.288  10.524  0.9016 -0.6170 -0.0921
 2187SOL    HW212398   8.152   6.284  10.373 -0.2394 -0.8061  0.0038
 2188SOL     OW12399   8.417   5.005  10.040  0.7326 -0.0362  0.1443
 2188SOL    HW112400   8.376   5.087  10.013 -1.6038 -1.5778 -1.3332
 2188SOL    HW212401   8.396   4.943   9.970  3.5005 -1.6398  0.5835
 2189SOL     OW12402   7.457   2.449   8.612  0.3629 -0.1338 -0.3237
 2189SOL    HW112403   7.419   2.362   8.619 -0.8045  0.4175  0.5457
 2189SOL    HW212404   7.395   2.498   8.558  0.2415  0.5502  0.4121
 2190SOL     OW12405   9.096   4.709   2.821  0.1066  0.0084 -0.2920
 2190SOL    HW112406   9.103   4.680   2.912 -2.1382 -1.8137 -0.6250
 2190SOL    HW212407   9.087   4.629   2.770  0.8713  1.0103 -2.1139
 2191SOL     OW12408   9.028   7.099   3.621 -0.0274  0.1167 -0.4869
 2191SOL    HW112409   9.087   7.134   3.554 -1.2033 -0.3497 -1.7937
 2191SOL    HW212410   8.967   7.171   3.639  0.3877  0.3020  0.2417
 2192SOL     OW12411   8.575   4.494   4.257 -0.6871  0.0399  0.1756
 2192SOL    HW112412   8.629   4.415   4.253  0.1304  0.5781  0.3405
 2192SOL    HW212413   8.636   4.564   4.281 -1.5404  0.5892  0.8234
 2193SOL     OW12414   9.389   5.591   6.668  0.0003 -0.2001  0.0340
 2193SOL    HW112415   9.447   5.526   6.629  0.8589 -0.3106  1.4231
 2193SOL    HW212416   9.440   5.672   6.667 -0.7995  0.3129 -1.0467
 2194SOL     OW12417   1.332   5.465   6.280 -0.1722 -0.0095 -0.1569
 2194SOL    HW112418   1.293   5.391   6.233  0.2837 -0.1492 -0.3210
 2194SOL    HW212419   1.422   5.469   6.247  0.3003 -0.3911  1.0401
 2195SOL     OW12420   7.096   1.762   0.639  0.5474 -0.6838  0.3213
 2195SOL    HW112421   7.062   1.704   0.570 -1.5400 -1.4631  1.9076
 2195SOL    HW212422   7.055   1.847   0.621  3.0087  0.2326 -1.5494
 2196SOL     OW12423   0.601   6.603   2.513  0.1693  0.5649 -0.4449
 2196SOL    HW112424   0.630   6.604   2.422 -1.2097 -0.8413 -0.9473
 2196SOL    HW212425   0.574   6.513   2.528  1.6876  0.4156  1.8314
 2197SOL     OW12426   1.706   9.184  10.017  0.0121 -0.6636  0.7034
 2197SOL    HW112427   1.791   9.222  10.039 -0.6995  1.3045  0.2670
 2197SOL    HW212428   1.654   9.195  10.097 -0.7466  1.0167  0.0246
 2198SOL     OW12429   4.833   4.898   6.428  0.8419  0.1845 -0.5057
 2198SOL    HW112430   4.865   4.988   6.417 -0.1804  0.6568  0.2557
 2198SOL    HW212431   4.769   4.886   6.359  1.0238  0.0124 -0.6463
 2199SOL     OW12432   8.322   4.751  10.343 -0.3702 -0.0943  0.9791
 2199SOL    HW112433   8.348   4.788  10.427  1.2133  0.2904  0.3571
 2199SOL    HW212434   8.324   4.656  10.358  0.4231 -0.0429  1.2332
 2200SOL     OW12435   4.735   2.872   1.096  0.2470  0.1071  0.0973
 2200SOL    HW112436   4.791   2.846   1.169  2.0122 -0.1605 -1.2946
 2200SOL    HW212437   4.732   2.968   1.102 -1.2934  0.0223  1.6501
 2201SOL     OW12438   8.338   6.580   9.518 -0.6246  0.2711  0.0461
 2201SOL    HW112439   8.334   6.507   9.580  0.6374  0.2169  0.0949
 2201SOL    HW212440   8.368   6.540   9.436 -0.0657  0.7020  0.0361
 2202SOL     OW12441   5.323   5.719   4.570  0.7518  0.0050 -0.7845
 2202SOL    HW112442   5.347   5.771   4.647  1.7102 -1.2788 -0.1622
 2202SOL    HW212443   5.228   5.728   4.563  0.6241  0.0560  0.6334
 2203SOL     OW12444   9.868   8.769   0.744  0.0742  0.3366 -0.0087
 2203SOL    HW112445   9.874   8.674   0.754  1.8360  0.4141 -0.0055
 2203SOL    HW212446   9.911   8.787   0.660 -0.5314  1.1036 -0.1625
 2204SOL     OW12447   8.296   3.798  10.507  0.1835  0.2110 -0.4373
 2204SOL    HW112448   8.254   3.746  10.438  0.8212  0.8064 -1.3069
 2204SOL    HW212449   8.389   3.797  10.484  0.1339  2.4674 -1.0199
 2205SOL     OW12450   0.348   8.823   6.055  0.4099  0.3564 -0.1708
 2205SOL    HW112451   0.354   8.742   6.003  0.2684  0.0308  0.3136
 2205SOL    HW212452   0.399   8.887   6.005  1.7024 -0.3958  0.1244
 2206SOL     OW12453   6.502   8.417   6.692  0.3585 -0.4240  0.0084
 2206SOL    HW112454   6.532   8.429   6.783  0.1721 -0.8026  0.1226
 2206SOL    HW212455   6.483   8.323   6.686  0.4236 -0.4062 -0.4402
 2207SOL     OW12456   5.768   6.256   4.221  0.9585  0.2183  0.2445
 2207SOL    HW112457   5.780   6.171   4.180  0.0646  0.0907  0.2124
 2207SOL    HW212458   5.686   6.247   4.271 -0.5501  1.7871 -1.7806
 2208SOL     OW12459   7.164   4.072   9.614 -0.6149  0.6359  0.5520
 2208SOL    HW112460   7.225   4.140   9.643 -0.8682  1.3577 -0.5395
 2208SOL    HW212461   7.192   3.993   9.661  2.0871  0.5814 -0.9149
 2209SOL     OW12462  10.581   3.993   8.697 -0.1915  0.0722  0.3430
 2209SOL    HW112463  10.661   3.962   8.742 -0.4721  0.3766  1.0605
 2209SOL    HW212464  10.613   4.057   8.633  0.3432 -1.2168 -0.7552
 2210SOL     OW12465  10.613   6.826   8.624 -0.2314  0.0859  0.0208
 2210SOL    HW112466  10.640   6.880   8.550 -0.1286  0.8121  0.5805
 2210SOL    HW212467  10.547   6.767   8.588 -0.3057  0.5495 -0.6109
 2211SOL     OW12468   3.461   4.479   7.411 -0.2656 -0.5127 -0.0388
 2211SOL    HW112469   3.549   4.512   7.393 -0.2713 -0.5456 -0.1313
 2211SOL    HW212470   3.440   4.510   7.499 -1.2104  1.8027 -0.9954
 2212SOL     OW12471   1.320   4.362   2.512  0.6346 -0.3934 -0.5054
 2212SOL    HW112472   1.308   4.273   2.547 -3.0722  0.7161  1.5580
 2212SOL    HW212473   1.248   4.373   2.450  0.4031  1.4471  0.0381
 2213SOL     OW12474   8.250   8.914   8.274  0.4151 -0.0370  0.3142
 2213SOL    HW112475   8.262   8.933   8.368  1.0564 -0.4238  0.3138
 2213SOL    HW212476   8.166   8.868   8.270  0.4981 -0.2319  0.7276
 2214SOL     OW12477   6.692   2.930   4.395  0.3346 -0.0179 -0.1185
 2214SOL    HW112478   6.763   2.909   4.334  0.7708 -1.3989  0.8219
 2214SOL    HW212479   6.671   2.846   4.437 -0.9528  0.6286  0.5801
 2215SOL     OW12480   4.087   5.573   6.955  0.2529  0.1058 -0.6745
 2215SOL    HW112481   4.177   5.607   6.953 -0.0289  0.8833 -0.5740
 2215SOL    HW212482   4.096   5.481   6.934  1.0822  0.1710 -0.6538
 2216SOL     OW12483   3.650   3.947   1.153  0.1252 -0.1240 -0.5955
 2216SOL    HW112484   3.617   3.932   1.065 -1.1640  0.8975 -0.3344
 2216SOL    HW212485   3.572   3.969   1.204  1.0772  1.3089  0.3305
 2217SOL     OW12486   5.974   5.567   6.005 -0.1321  0.1623 -0.5039
 2217SOL    HW112487   6.003   5.509   6.076  0.1413  0.1594 -0.6172
 2217SOL    HW212488   5.904   5.619   6.044  1.4687  1.7138  0.4426
 2218SOL     OW12489   3.038   3.950  10.282 -0.2783 -0.1417 -0.3366
 2218SOL    HW112490   3.016   4.041  10.300 -1.3970 -0.8962  2.6277
 2218SOL    HW212491   2.958   3.901  10.302  0.7572 -1.9273 -0.3309
 2219SOL     OW12492   7.028   3.325   5.899  0.0219 -0.1110 -0.6229
 2219SOL    HW112493   6.969   3.253   5.877 -1.9260  0.7622  1.3339
 2219SOL    HW212494   6.979   3.404   5.878  0.2538  0.6566  1.5260
 2220SOL     OW12495   7.225   4.026   5.134  0.0987  0.4251 -0.1032
 2220SOL    HW112496   7.138   4.026   5.175  0.6675 -0.8543  1.1951
 2220SOL    HW212497   7.269   4.102   5.172  0.4198 -0.4202  1.2640
 2221SOL     OW12498   0.717   2.390   3.714  0.2175  0.6283  0.6112
 2221SOL    HW112499   0.806   2.371   3.744 -0.0249  0.5199  1.2832
 2221SOL    HW212500   0.726   2.405   3.620  1.1721  2.0443  0.8938
 2222SOL     OW12501   2.921   2.299   9.008  0.2638 -0.5360 -0.6002
 2222SOL    HW112502   2.997   2.357   9.002  1.3805 -1.7538  0.7469
 2222SOL    HW212503   2.953   2.215   8.975 -0.9736 -0.7129 -1.4204
 2223SOL     OW12504   1.803   2.179   4.266 -0.1185 -0.3159  0.4004
 2223SOL    HW112505   1.773   2.247   4.326  2.0302 -0.0648  1.2964
 2223SOL    HW212506   1.885   2.147   4.306  0.5395 -1.2597 -1.5917
 2224SOL     OW12507   6.704   3.000   1.681 -0.0563 -0.1859  0.2020
 2224SOL    HW112508   6.615   3.028   1.659  0.0119  0.0322  0.1989
 2224SOL    HW212509   6.759   3.035   1.610  0.1330  0.3179  0.5873
 2225SOL     OW12510   4.637   4.637   5.875  0.0829  0.0615  0.3141
 2225SOL    HW112511   4.707   4.575   5.895 -0.8085 -0.8785  0.6229
 2225SOL    HW212512   4.681   4.721   5.864  1.2386 -0.4925  0.6001
 2226SOL     OW12513   7.513   2.822   8.618 -0.1698 -0.6284 -0.3637
 2226SOL    HW112514   7.474   2.737   8.634 -1.9807 -0.3521 -2.8481
 2226SOL    HW212515   7.447   2.885   8.648 -0.2580 -0.1409 -1.5392
 2227SOL     OW12516   3.556   6.935   2.299  0.0713 -0.2394 -0.0209
 2227SOL    HW112517   3.594   6.942   2.211 -0.1792 -0.4282 -0.1468
 2227SOL    HW212518   3.496   7.009   2.305 -1.1315 -1.1193 -0.6278
 2228SOL     OW12519   2.286   5.077   9.908  0.0048 -0.5948  0.5433
 2228SOL    HW112520   2.279   5.036   9.994  0.4025  0.4903  1.1161
 2228SOL    HW212521   2.222   5.148   9.910  2.3852  1.6755  1.2986
 2229SOL     OW12522   6.827  10.452   3.810  0.6559 -0.4757  0.2251
 2229SOL    HW112523   6.751  10.410   3.850 -0.8179  2.5525  0.9321
 2229SOL    HW212524   6.795  10.485   3.726  1.2903  0.4191  0.3151
 2230SOL     OW12525   9.752   1.624   4.578  0.8590 -0.3280 -0.5283
 2230SOL    HW112526   9.822   1.612   4.514  0.2165 -1.4316 -1.0495
 2230SOL    HW212527   9.678   1.576   4.541  0.7536 -1.8718  1.5263
 2231SOL     OW12528   4.022   9.889   2.847  1.0204  0.6130 -0.1056
 2231SOL    HW112529   3.978   9.892   2.762  0.9011  0.8501 -0.0383
 2231SOL    HW212530   4.050   9.979   2.862  0.5137  0.6996  0.3739
 2232SOL     OW12531   8.368   7.625   3.776 -0.2515 -0.2743 -0.1937
 2232SOL    HW112532   8.414   7.666   3.849 -0.8035 -1.0204  0.6021
 2232SOL    HW212533   8.423   7.550   3.753 -0.4228 -0.4360 -0.0811
 2233SOL     OW12534   9.703   6.440   1.695  0.2479  0.2146  0.2807
 2233SOL    HW112535   9.744   6.401   1.618  1.4906  0.2155  0.9050
 2233SOL    HW212536   9.702   6.369   1.760 -2.2903 -0.2859 -0.2050
 2234SOL     OW12537   6.234   5.589   7.326  0.1902  0.1285  0.3894
 2234SOL    HW112538   6.155   5.641   7.338  0.8325  0.8718  1.5024
 2234SOL    HW212539   6.282   5.634   7.256 -0.7150 -0.7877 -0.8786
 2235SOL     OW12540   5.680   9.227   1.498 -0.3091  0.3531  0.0743
 2235SOL    HW112541   5.737   9.154   1.519 -0.6349 -0.1390 -0.6858
 2235SOL    HW212542   5.648   9.258   1.582  2.9280  2.2302  0.7990
 2236SOL     OW12543   6.645  10.679   6.878  0.5674 -0.5173  0.5668
 2236SOL    HW112544   6.627  10.688   6.972  0.8405 -1.6810  0.7424
 2236SOL    HW212545   6.735  10.647   6.874  1.1682  1.1325 -0.1641
 2237SOL     OW12546   7.337   0.594   9.578  0.2994 -0.0096  0.4503
 2237SOL    HW112547   7.363   0.672   9.529  0.7014 -0.1815  0.3836
 2237SOL    HW212548   7.346   0.522   9.516  0.6846 -0.2119  0.7348
 2238SOL     OW12549   7.205   9.823   8.044  0.5135  0.5300 -0.1462
 2238SOL    HW112550   7.205   9.728   8.045  1.4324  0.5206 -0.3216
 2238SOL    HW212551   7.219   9.847   8.136  0.2289  0.5059 -0.0937
 2239SOL     OW12552   8.893   7.290   7.561 -0.0446 -0.3820  0.5407
 2239SOL    HW112553   8.874   7.199   7.541 -0.9424 -0.4153  1.4566
 2239SOL    HW212554   8.828   7.315   7.627  0.7743  0.6386  1.0067
 2240SOL     OW12555   6.907   2.911   8.242 -0.4778 -0.3212 -0.5158
 2240SOL    HW112556   6.863   2.841   8.194 -0.0411 -1.4478  0.6593
 2240SOL    HW212557   6.866   2.910   8.329  2.6315 -2.3399  1.0971
 2241SOL     OW12558   1.661   2.254   4.041  0.1544 -0.3661 -0.2211
 2241SOL    HW112559   1.694   2.200   4.113  0.2102 -0.1811 -0.1064
 2241SOL    HW212560   1.705   2.220   3.963  0.1890 -0.4864 -0.1484
 2242SOL     OW12561   6.299   7.644   8.633  0.0931 -0.4014 -0.1417
 2242SOL    HW112562   6.262   7.706   8.695  0.1382 -0.6847  0.1677
 2242SOL    HW212563   6.291   7.559   8.675  0.1660 -0.5897 -0.5031
 2243SOL     OW12564   2.225   9.226   4.631 -0.0418 -0.3184  0.5893
 2243SOL    HW112565   2.209   9.213   4.724 -1.9868  0.8403  0.4909
 2243SOL    HW212566   2.248   9.319   4.624  0.4082 -0.4738 -0.0640
 2244SOL     OW12567   8.825   8.818   3.150  0.2667  0.7172  0.4942
 2244SOL    HW112568   8.812   8.883   3.081  0.6752  0.8333  0.5194
 2244SOL    HW212569   8.919   8.798   3.146  0.4297  1.2185  1.4367
 2245SOL     OW12570   5.832   2.236   5.861 -0.2685  0.2835  0.0720
 2245SOL    HW112571   5.873   2.291   5.794  0.2642 -0.6586 -0.3982
 2245SOL    HW212572   5.861   2.273   5.944  0.1727  0.6445 -0.2362
 2246SOL     OW12573   9.985  10.635   1.916  0.1496  0.3082 -0.1681
 2246SOL    HW112574  10.040  10.592   1.981  0.7674  0.7763 -0.3676
 2246SOL    HW212575  10.032  10.624   1.834  0.3326  1.3616 -0.2204
 2247SOL     OW12576   9.476   9.894   7.862  0.5055 -0.2659 -0.5181
 2247SOL    HW112577   9.387   9.920   7.839  1.0329  2.6255  0.3280
 2247SOL    HW212578   9.482   9.907   7.957  2.3134  1.4050 -0.7989
 2248SOL     OW12579   2.087   7.632   8.686  0.0010 -0.0695 -0.4263
 2248SOL    HW112580   2.024   7.639   8.758  0.6018  0.5919  0.0602
 2248SOL    HW212581   2.090   7.719   8.647  2.5546  0.7474  1.2919
 2249SOL     OW12582  10.813   4.461   2.427 -0.2910 -0.2246 -0.3841
 2249SOL    HW112583  10.796   4.439   2.519  0.2119 -2.6923 -0.8046
 2249SOL    HW212584  10.745   4.525   2.404  2.1453  4.1156  2.8519
 2250SOL     OW12585   4.072  10.115   4.249  0.4107 -0.0265  0.5513
 2250SOL    HW112586   4.033  10.028   4.249  0.3997 -0.0935  2.8169
 2250SOL    HW212587   4.032  10.159   4.325  0.8988  1.7250 -0.1581
 2251SOL     OW12588   5.199   3.527  10.441  0.0506  0.2511  0.3092
 2251SOL    HW112589   5.287   3.515  10.405 -0.0466  2.7872 -1.0037
 2251SOL    HW212590   5.149   3.451  10.409  1.8641 -1.6869  1.7738
 2252SOL     OW12591   0.846   6.706   0.763  0.1831  0.2583 -0.3095
 2252SOL    HW112592   0.908   6.635   0.744  1.0414  0.7681  0.5189
 2252SOL    HW212593   0.760   6.664   0.760  0.5873 -0.5610 -1.0139
 2253SOL     OW12594   7.383   4.051   9.838  0.0450 -0.1534  0.1072
 2253SOL    HW112595   7.458   4.062   9.780  0.5631 -0.7438  0.6443
 2253SOL    HW212596   7.416   3.998   9.911 -1.1062 -1.1960 -0.0726
 2254SOL     OW12597   7.745   4.908   3.702 -0.1424 -0.0828 -0.2513
 2254SOL    HW112598   7.682   4.881   3.636 -0.4862 -3.7352  1.3515
 2254SOL    HW212599   7.694   4.914   3.783  0.6363  2.3503  0.1442
 2255SOL     OW12600   8.692   7.079   9.572  0.5230 -0.4296 -0.1361
 2255SOL    HW112601   8.761   7.143   9.586 -0.8476  1.2117 -0.5884
 2255SOL    HW212602   8.652   7.067   9.659 -1.4015  1.9871 -0.5976
 2256SOL     OW12603   2.221   9.347   6.820 -0.3056  0.1363  0.2873
 2256SOL    HW112604   2.209   9.431   6.776  0.1045  0.3391  0.5609
 2256SOL    HW212605   2.186   9.361   6.908 -0.0168  0.0922  0.4086
 2257SOL     OW12606   8.208   2.289   9.468  0.1287 -0.4582  0.2242
 2257SOL    HW112607   8.278   2.251   9.522  2.4311  1.2102 -1.4015
 2257SOL    HW212608   8.171   2.214   9.421 -0.1305 -1.5550  2.0888
 2258SOL     OW12609   2.099   4.701   5.352 -0.0964 -0.2366 -0.4547
 2258SOL    HW112610   2.184   4.746   5.354 -0.5731  0.6907  1.0215
 2258SOL    HW212611   2.110   4.631   5.288  1.0266  1.3210 -2.0692
 2259SOL     OW12612   3.971   2.382  10.815  0.0288 -0.0142  0.2233
 2259SOL    HW112613   4.030   2.374  10.890 -1.0016 -0.1703  1.0304
 2259SOL    HW212614   4.013   2.328  10.747  0.0115 -1.4645  1.3094
 2260SOL     OW12615   7.216   9.722   4.324 -0.4121 -0.0713 -0.0219
 2260SOL    HW112616   7.212   9.627   4.319 -0.8382 -0.1060  0.7625
 2260SOL    HW212617   7.296   9.746   4.276  0.3188 -0.9053  0.7552
 2261SOL     OW12618   5.923   0.429  10.470 -0.3969 -0.0707  0.2463
 2261SOL    HW112619   5.927   0.468  10.558 -0.6155  1.0947 -0.2495
 2261SOL    HW212620   5.841   0.461  10.433 -0.3398 -0.6204 -0.3691
 2262SOL     OW12621   6.519   5.508   4.374 -0.2376  0.1305 -0.2838
 2262SOL    HW112622   6.600   5.546   4.408  0.8382 -0.2813 -2.2132
 2262SOL    HW212623   6.506   5.429   4.425  0.8089 -0.0001 -0.1943
 2263SOL     OW12624   0.570   3.071   5.279 -0.2745 -0.7710 -0.0641
 2263SOL    HW112625   0.635   3.060   5.348  0.5318 -1.6392 -0.9242
 2263SOL    HW212626   0.494   3.108   5.323  1.1531  1.3222  0.7785
 2264SOL     OW12627   5.802   9.437   2.821  0.2967 -0.7332  0.0478
 2264SOL    HW112628   5.776   9.347   2.799 -0.9548 -0.2202 -0.7162
 2264SOL    HW212629   5.766   9.490   2.749  0.4730  0.4493  0.8046
 2265SOL     OW12630   8.142   7.273   9.105  0.2639 -0.4904 -0.1970
 2265SOL    HW112631   8.142   7.252   9.198  0.7846  0.5596  0.0589
 2265SOL    HW212632   8.234   7.266   9.080  0.8270  3.1270  0.3453
 2266SOL     OW12633   5.336  10.341   3.774 -0.0040  0.6176 -0.2810
 2266SOL    HW112634   5.413  10.317   3.827  0.1637 -2.0167 -1.5197
 2266SOL    HW212635   5.270  10.276   3.798 -1.7497  2.5954  0.4564
 2267SOL     OW12636   7.795   2.649   1.095 -0.3900 -0.0151 -0.5596
 2267SOL    HW112637   7.852   2.591   1.145 -0.2616 -1.2088 -2.0231
 2267SOL    HW212638   7.855   2.702   1.042 -0.5174  1.3778  0.5952
 2268SOL     OW12639   9.911   1.636   5.331 -0.5200  0.0380  0.0216
 2268SOL    HW112640   9.874   1.710   5.284 -0.7976  0.7596  1.3219
 2268SOL    HW212641   9.941   1.673   5.414 -1.5860 -1.4556  1.1331
 2269SOL     OW12642   2.389   1.044   3.455  0.0399 -0.6320 -0.0675
 2269SOL    HW112643   2.484   1.041   3.442 -0.1855 -1.0567 -1.8785
 2269SOL    HW212644   2.354   0.980   3.393 -1.6400  1.9300 -1.9473
 2270SOL     OW12645   3.503   6.744   8.111  0.2234  0.1355 -0.3831
 2270SOL    HW112646   3.471   6.717   8.025 -0.2673  3.2518 -1.3246
 2270SOL    HW212647   3.436   6.804   8.143  1.1540  0.2482  1.4859
 2271SOL     OW12648   0.532   5.231   8.678 -0.0447  0.2208 -0.1062
 2271SOL    HW112649   0.543   5.154   8.623 -0.9210  0.6007 -0.8565
 2271SOL    HW212650   0.528   5.304   8.616 -0.1183  0.7677  0.5306
 2272SOL     OW12651   1.840   5.605   1.170 -0.9179  0.3743  0.0961
 2272SOL    HW112652   1.932   5.584   1.183 -0.8598  0.3597 -0.3501
 2272SOL    HW212653   1.835   5.641   1.082 -1.1410  1.5339  0.5601
 2273SOL     OW12654   9.256   6.162   1.245  0.1244 -0.1570 -0.1082
 2273SOL    HW112655   9.329   6.115   1.204 -0.5052 -1.0188 -0.2528
 2273SOL    HW212656   9.216   6.099   1.304 -2.5516 -0.8649 -2.4349
 2274SOL     OW12657   2.628   9.255   4.939  0.3061  0.7725  0.0940
 2274SOL    HW112658   2.630   9.159   4.942  0.9001  0.7296 -1.1310
 2274SOL    HW212659   2.678   9.277   4.860 -0.7536  2.0449 -0.2516
 2275SOL     OW12660   0.905   9.904   7.955  0.4294 -0.1947  0.2623
 2275SOL    HW112661   0.933   9.821   7.917 -1.4996 -0.7069 -0.1557
 2275SOL    HW212662   0.833   9.880   8.015 -0.7125  1.2166 -0.4820
 2276SOL     OW12663   5.407   1.951   4.794 -0.3212  0.2217 -0.1262
 2276SOL    HW112664   5.470   1.909   4.853  0.4374  0.5566 -0.6738
 2276SOL    HW212665   5.349   1.999   4.852 -0.4993 -0.6542  0.4343
 2277SOL     OW12666   8.770   6.360   3.360  0.5174 -0.1993  0.5973
 2277SOL    HW112667   8.718   6.440   3.349 -0.0480 -0.6376  0.0811
 2277SOL    HW212668   8.808   6.343   3.274 -0.5438 -1.2909  0.3207
 2278SOL     OW12669   1.573   7.465   5.255 -0.1810  0.4033 -0.5615
 2278SOL    HW112670   1.524   7.447   5.175 -0.5423  2.0565 -0.7458
 2278SOL    HW212671   1.518   7.431   5.325 -0.9156  0.9247 -0.8745
 2279SOL     OW12672   2.203   9.626   5.823 -0.5931  0.1504  0.4940
 2279SOL    HW112673   2.180   9.561   5.756 -2.7176  0.2265  1.0901
 2279SOL    HW212674   2.195   9.579   5.906  1.0749  0.3218  0.7763
 2280SOL     OW12675   2.499   2.989   5.278  0.1533 -0.4427 -0.4923
 2280SOL    HW112676   2.583   2.957   5.247 -0.6656 -0.1377 -3.2803
 2280SOL    HW212677   2.508   3.084   5.280 -0.1465 -0.3992 -0.9596
 2281SOL     OW12678   0.799   4.899   3.664  0.0296  0.0387  0.0189
 2281SOL    HW112679   0.718   4.849   3.664 -0.4943  0.8317  1.7090
 2281SOL    HW212680   0.780   4.976   3.610  0.2165 -0.5788 -0.9588
 2282SOL     OW12681   0.836   3.892   2.505 -0.2847 -0.1134  0.1940
 2282SOL    HW112682   0.762   3.833   2.502 -1.0781  0.8856 -0.5285
 2282SOL    HW212683   0.836   3.937   2.421  0.4561  0.7125  0.6040
 2283SOL     OW12684   9.760  10.804   6.546  0.1850 -0.3371 -0.3348
 2283SOL    HW112685   9.821  10.825   6.616  0.8972  1.4232 -1.4159
 2283SOL    HW212686   9.740  10.711   6.558  1.4691 -0.4389  1.2614
 2284SOL     OW12687  10.596   7.187   5.782  0.3296  0.5306  0.2735
 2284SOL    HW112688  10.542   7.262   5.807  1.9101  1.5463  0.8212
 2284SOL    HW212689  10.656   7.175   5.856  0.7599 -0.6344 -0.2441
 2285SOL     OW12690  10.159   6.851   6.061  0.5745 -0.7898 -0.1798
 2285SOL    HW112691  10.140   6.758   6.050  1.8589 -1.3149  1.4489
 2285SOL    HW212692  10.099   6.880   6.130  1.1510 -0.7923  0.3322
 2286SOL     OW12693   0.730   1.661   0.518 -0.7551 -0.2555 -0.3517
 2286SOL    HW112694   0.730   1.756   0.508 -0.0429 -0.1866  0.1844
 2286SOL    HW212695   0.748   1.627   0.431  0.4930  0.1604 -0.2825
 2287SOL     OW12696   7.514   1.233   5.871 -0.6298 -0.2876  0.2598
 2287SOL    HW112697   7.493   1.235   5.777  1.5128  0.8134 -0.2739
 2287SOL    HW212698   7.429   1.230   5.915 -1.7665  0.9045 -1.7030
 2288SOL     OW12699  10.382   9.451   5.934  0.0162  0.0849  0.5454
 2288SOL    HW112700  10.296   9.465   5.972 -0.5640 -0.4654 -0.5012
 2288SOL    HW212701  10.433   9.410   6.003 -0.3014  1.1756  1.4426
 2289SOL     OW12702   1.663   4.791   7.064  0.5164  0.1115 -0.3887
 2289SOL    HW112703   1.590   4.840   7.101  0.2244 -1.3359  1.1119
 2289SOL    HW212704   1.740   4.844   7.084  0.2132  0.0107  1.2073
 2290SOL     OW12705   6.207   7.590   8.272 -0.2761  0.6492 -0.3619
 2290SOL    HW112706   6.131   7.635   8.309  0.9471  1.3409  1.4506
 2290SOL    HW212707   6.281   7.620   8.325  1.0897 -0.9610 -1.2580
 2291SOL     OW12708   6.747   9.103  10.330  0.4108  0.4136 -0.1227
 2291SOL    HW112709   6.708   9.034  10.276 -1.1705  0.7240  0.5749
 2291SOL    HW212710   6.782   9.057  10.406 -0.0124  0.2947  0.0045
 2292SOL     OW12711   6.080   1.880   1.087  0.1778 -0.2257 -0.4628
 2292SOL    HW112712   6.045   1.912   1.004 -1.1038 -0.8226 -0.1671
 2292SOL    HW212713   6.032   1.799   1.104 -0.9099  0.8214  1.7652
 2293SOL     OW12714   2.232   3.901   1.890  0.3473  1.2219 -0.2059
 2293SOL    HW112715   2.223   3.970   1.956  0.4427  1.6160 -0.5997
 2293SOL    HW212716   2.322   3.910   1.859  0.5385  0.5557  0.1372
 2294SOL     OW12717   5.503   4.704   1.959 -0.1700  0.0567  0.1157
 2294SOL    HW112718   5.412   4.731   1.943 -0.7412 -2.0756 -0.6547
 2294SOL    HW212719   5.511   4.701   2.054 -0.4018  1.7445  0.2110
 2295SOL     OW12720   0.764   4.238   8.910  0.1409 -0.1689 -0.4315
 2295SOL    HW112721   0.746   4.284   8.992 -1.5331  0.7064 -1.2544
 2295SOL    HW212722   0.860   4.228   8.910  0.2506  0.4760  1.2598
 2296SOL     OW12723  10.636   3.446   4.574 -0.0376 -0.1807  0.1672
 2296SOL    HW112724  10.605   3.356   4.589 -3.9654  1.0305  0.4166
 2296SOL    HW212725  10.693   3.463   4.649  0.0897 -2.1511  0.5962
 2297SOL     OW12726   2.330   3.587   8.993  0.3221 -0.2008  0.1568
 2297SOL    HW112727   2.302   3.497   9.014  1.8989 -0.9854 -0.9212
 2297SOL    HW212728   2.379   3.615   9.070 -0.2623 -0.1985  0.5396
 2298SOL     OW12729   0.580   3.994   3.183  0.0610 -0.7102  0.0127
 2298SOL    HW112730   0.624   3.949   3.110 -0.2772 -0.2489 -0.4874
 2298SOL    HW212731   0.646   4.054   3.218  0.3397 -1.1911  0.3267
 2299SOL     OW12732  10.723   5.061   9.699 -0.1231  0.2404 -0.2210
 2299SOL    HW112733  10.706   4.969   9.719 -1.8216  0.3109 -1.1277
 2299SOL    HW212734  10.798   5.084   9.754  1.4944 -2.1250 -1.2556
 2300SOL     OW12735   9.751   4.601   0.881 -0.1416 -0.3602  0.0941
 2300SOL    HW112736   9.797   4.684   0.873  1.9057 -1.6142 -2.3152
 2300SOL    HW212737   9.697   4.595   0.802  0.5216 -1.7239 -0.2862
 2301SOL     OW12738   0.197   6.825   1.182 -0.0174 -0.6489  0.2035
 2301SOL    HW112739   0.155   6.836   1.097  1.1497 -0.6441 -0.3848
 2301SOL    HW212740   0.277   6.776   1.164  1.3459  1.1647  0.9822
 2302SOL     OW12741   6.902   3.083   1.487  0.0152  0.4110  0.4165
 2302SOL    HW112742   6.917   3.177   1.498  1.8745  0.0742  1.1665
 2302SOL    HW212743   6.976   3.052   1.435 -2.0164 -0.2409 -2.3164
 2303SOL     OW12744  10.833   3.052   1.245  0.1410  0.5284  0.3578
 2303SOL    HW112745  10.818   2.973   1.194  0.6552  0.4340  0.3453
 2303SOL    HW212746  10.863   3.117   1.181  0.8510  0.3902  0.5364
 2304SOL     OW12747   7.986   0.618   5.165  0.2055  0.7117 -0.7012
 2304SOL    HW112748   7.938   0.569   5.097 -1.1491  0.7039  0.2181
 2304SOL    HW212749   7.967   0.571   5.246  0.4928  1.6397 -0.0842
 2305SOL     OW12750   9.349   0.098   8.589  0.1815  0.0707  0.3091
 2305SOL    HW112751   9.370   0.126   8.678  1.8912 -0.1550  0.0040
 2305SOL    HW212752   9.286   0.163   8.557 -0.0913  0.4130  1.5034
 2306SOL     OW12753   1.173  10.720   6.825  0.4561  0.0661 -0.7335
 2306SOL    HW112754   1.082  10.696   6.841  0.5623  0.3104  0.3238
 2306SOL    HW212755   1.224  10.657   6.876  0.8564  0.3542 -0.7747
 2307SOL     OW12756   8.036   5.201   3.913 -0.9385  0.1060 -0.3651
 2307SOL    HW112757   8.036   5.144   3.989  2.6238 -1.2262 -1.1634
 2307SOL    HW212758   8.014   5.144   3.840  0.0317  0.2944 -0.8295
 2308SOL     OW12759   1.267   1.059   5.682 -0.6222 -0.7978 -0.0932
 2308SOL    HW112760   1.269   0.976   5.729  2.4622  0.7999  3.0296
 2308SOL    HW212761   1.226   1.120   5.743 -0.2839  0.5474 -1.1663
 2309SOL     OW12762   0.997   8.772   6.370  0.4606 -0.5437  0.0673
 2309SOL    HW112763   0.948   8.707   6.321 -1.1992  1.2480 -0.7870
 2309SOL    HW212764   1.064   8.804   6.309 -1.0338  1.0490 -0.8130
 2310SOL     OW12765   4.147   2.769   4.482  0.5528  0.8486  0.4721
 2310SOL    HW112766   4.157   2.857   4.517 -2.4481  1.7386 -0.5917
 2310SOL    HW212767   4.090   2.780   4.406  0.2863 -1.9815  0.1557
 2311SOL     OW12768   4.583   5.479   4.233 -0.2120 -0.0305  0.3424
 2311SOL    HW112769   4.640   5.552   4.255  0.5951 -0.3458 -0.6249
 2311SOL    HW212770   4.528   5.512   4.161  1.2025 -0.8018 -1.1635
 2312SOL     OW12771   0.627   9.016   4.646  0.4001 -0.2391 -0.2785
 2312SOL    HW112772   0.573   8.976   4.577 -0.6453  0.1982  0.2594
 2312SOL    HW212773   0.575   9.091   4.677  1.2372  0.0800  0.3915
 2313SOL     OW12774   0.430   8.915   5.146 -0.6011  0.2286  0.4355
 2313SOL    HW112775   0.351   8.894   5.096 -0.7793  0.7453  0.4962
 2313SOL    HW212776   0.497   8.929   5.080 -0.8060  0.7864  0.3427
 2314SOL     OW12777   0.946   6.035   3.537  0.0388  0.7886 -0.2570
 2314SOL    HW112778   0.908   5.999   3.617 -0.1852 -1.6661 -1.3895
 2314SOL    HW212779   1.018   6.090   3.568  0.6250 -0.9196  1.6342
 2315SOL     OW12780   2.326   5.672   5.563  0.2399 -0.5121 -0.0501
 2315SOL    HW112781   2.299   5.594   5.514 -0.6559  0.8114 -1.7842
 2315SOL    HW212782   2.419   5.660   5.578  0.2417 -1.6330 -0.8521
 2316SOL     OW12783   6.728   3.708   8.388 -0.2804  0.0577 -0.0708
 2316SOL    HW112784   6.675   3.747   8.318 -0.4190  1.7833  0.9135
 2316SOL    HW212785   6.769   3.632   8.348 -0.7637  0.6858 -1.8740
 2317SOL     OW12786   5.187   4.138   0.769  0.0372  0.0711  0.0488
 2317SOL    HW112787   5.273   4.132   0.812 -1.1184  0.6294  2.6106
 2317SOL    HW212788   5.177   4.231   0.748  0.3778 -0.1234 -1.0593
 2318SOL     OW12789   3.876   3.042   2.663 -0.0747 -0.2965  0.0066
 2318SOL    HW112790   3.891   3.053   2.569 -0.3677 -0.3406 -0.0474
 2318SOL    HW212791   3.869   2.948   2.676 -1.4082 -0.2375 -0.1542
 2319SOL     OW12792   3.219   3.637   4.682 -0.0233  0.6911  0.3130
 2319SOL    HW112793   3.136   3.663   4.721  0.8221 -0.0109  2.7512
 2319SOL    HW212794   3.286   3.676   4.738  1.2675 -1.0195  0.0514
 2320SOL     OW12795  10.645   8.874   3.841 -0.0363  0.0535 -0.6488
 2320SOL    HW112796  10.668   8.960   3.874 -0.1427  0.2550 -1.0927
 2320SOL    HW212797  10.658   8.815   3.915  0.7246  0.3448 -0.5376
 2321SOL     OW12798   9.667   4.409   1.148  0.4503 -0.4300 -0.6573
 2321SOL    HW112799   9.588   4.356   1.157 -0.1230 -0.7272 -5.1258
 2321SOL    HW212800   9.654   4.482   1.208 -1.8698 -1.8619  0.7496
 2322SOL     OW12801   6.455   0.053   4.274 -0.8329 -0.2458 -0.2534
 2322SOL    HW112802   6.544   0.063   4.309 -0.5348 -2.0162 -0.4468
 2322SOL    HW212803   6.408   0.005   4.342 -1.2374 -0.5871 -0.7710
 2323SOL     OW12804   4.284   5.950   7.074  0.4076 -0.0485  0.0437
 2323SOL    HW112805   4.309   5.905   6.993 -0.1316  1.1019 -0.7878
 2323SOL    HW212806   4.295   5.884   7.142  1.7829 -0.7688 -0.8266
 2324SOL     OW12807   3.180   6.591   0.170 -0.0476 -0.8905  0.0432
 2324SOL    HW112808   3.195   6.521   0.107  2.2486 -1.6037  1.2832
 2324SOL    HW212809   3.250   6.654   0.153  0.0731 -0.6679  1.2755
 2325SOL     OW12810   4.931   0.430   3.350  0.8354  0.0451  0.3507
 2325SOL    HW112811   4.964   0.389   3.270 -0.0491  1.7892 -0.9912
 2325SOL    HW212812   5.005   0.431   3.410  3.1273  3.0239 -2.1925
 2326SOL     OW12813   4.820   5.695   8.214  0.5406 -0.2051  0.2193
 2326SOL    HW112814   4.773   5.669   8.135 -0.8143 -1.0772  1.2584
 2326SOL    HW212815   4.754   5.739   8.267  0.6721 -2.0396  2.0146
 2327SOL     OW12816   5.620   4.019   5.863  0.0462 -0.0221  0.1427
 2327SOL    HW112817   5.612   4.013   5.768  1.7320  0.4576 -0.0617
 2327SOL    HW212818   5.713   4.007   5.880 -0.4084 -1.4982  1.8756
 2328SOL     OW12819   7.025   6.103   3.267  0.5338  0.1078  0.1461
 2328SOL    HW112820   7.029   6.084   3.173 -0.5779  0.1783  0.0651
 2328SOL    HW212821   7.027   6.017   3.309  1.0327  0.0758  0.0569
 2329SOL     OW12822   4.748   3.291   0.883  0.3883 -0.1783  0.2684
 2329SOL    HW112823   4.719   3.377   0.851 -0.9697 -0.3381  1.0102
 2329SOL    HW212824   4.783   3.247   0.806 -0.0189  0.5896 -0.3615
 2330SOL     OW12825   5.598   3.922   6.638 -0.1622  0.0935  0.1366
 2330SOL    HW112826   5.586   3.833   6.604  1.1196  0.2308 -0.7186
 2330SOL    HW212827   5.551   3.978   6.575 -0.1247  0.1137  0.1267
 2331SOL     OW12828  10.671  10.258   7.558 -0.1315  0.7777 -0.6001
 2331SOL    HW112829  10.620  10.310   7.621 -0.4535 -0.0472 -0.1645
 2331SOL    HW212830  10.606  10.202   7.515  0.2338  0.6032 -0.9257
 2332SOL     OW12831   6.398   0.683   7.039  0.2046  0.3629 -0.2869
 2332SOL    HW112832   6.416   0.608   6.982  0.3425  0.1338  0.0552
 2332SOL    HW212833   6.322   0.725   7.000  2.0543  1.9704 -2.3789
 2333SOL     OW12834   3.351   8.457  10.591  1.3218 -0.0955 -0.8939
 2333SOL    HW112835   3.442   8.460  10.622  0.9623  0.7086  0.1366
 2333SOL    HW212836   3.302   8.507  10.656  0.6756  2.6767 -3.3106
 2334SOL     OW12837   0.651  10.578   2.901  0.2018 -0.7935 -0.0394
 2334SOL    HW112838   0.652  10.505   2.839  0.4780 -1.1072  0.3230
 2334SOL    HW212839   0.742  10.585   2.931  0.6919  1.1674 -1.7342
 2335SOL     OW12840   3.791  10.543   3.325 -0.2883 -0.2536 -0.0784
 2335SOL    HW112841   3.777  10.633   3.294  1.3059  0.0137 -0.1071
 2335SOL    HW212842   3.818  10.495   3.247  1.1607 -0.1913  0.3607
 2336SOL     OW12843   7.729   5.435   6.388  0.1458 -0.0404 -0.1240
 2336SOL    HW112844   7.679   5.517   6.396 -0.2476 -0.2225 -0.6488
 2336SOL    HW212845   7.708   5.387   6.468 -0.3425 -0.0176 -0.2341
 2337SOL     OW12846   8.836   8.209   1.703  0.1855 -0.2459 -0.0604
 2337SOL    HW112847   8.890   8.272   1.751  0.5474  1.3822 -2.4553
 2337SOL    HW212848   8.746   8.231   1.728  0.3568  0.6875 -0.2244
 2338SOL     OW12849   1.933   0.703   7.539 -0.8452  0.4422  0.0062
 2338SOL    HW112850   1.969   0.767   7.478 -1.3392 -1.1207 -2.0241
 2338SOL    HW212851   2.009   0.672   7.588 -0.7661  3.5409  2.1557
 2339SOL     OW12852   3.627   2.707   2.824 -0.5229  0.1640  0.2337
 2339SOL    HW112853   3.635   2.640   2.892 -1.7752 -0.4014 -0.1371
 2339SOL    HW212854   3.589   2.660   2.749 -0.8491  1.1555 -0.2359
 2340SOL     OW12855   7.336   6.786   6.368 -0.5448  0.2895 -0.1333
 2340SOL    HW112856   7.366   6.715   6.312  0.9295 -0.4133  1.4497
 2340SOL    HW212857   7.319   6.744   6.453 -1.4133  1.5302  0.3446
 2341SOL     OW12858   5.012   9.738  10.416  0.0924 -0.7917  0.1446
 2341SOL    HW112859   5.061   9.788  10.350 -0.1032 -1.6335 -0.6675
 2341SOL    HW212860   4.934   9.791  10.432  0.7406  0.0398  0.6574
 2342SOL     OW12861   0.984  10.654   6.144  0.0972  0.5581  0.4801
 2342SOL    HW112862   0.989  10.568   6.102  1.6775  0.9514 -0.2057
 2342SOL    HW212863   0.924  10.704   6.089  0.4377  0.3920 -0.0443
 2343SOL     OW12864   0.363   4.998   1.944 -0.2831 -0.2405 -0.3076
 2343SOL    HW112865   0.361   4.907   1.976  0.3621 -0.2372 -0.2605
 2343SOL    HW212866   0.398   4.991   1.855 -0.6948 -0.0869 -0.4841
 2344SOL     OW12867   0.923   9.090   2.728 -0.0424  0.4259 -0.1970
 2344SOL    HW112868   1.010   9.068   2.695  0.3568  1.0722  0.3765
 2344SOL    HW212869   0.895   9.012   2.776 -0.1266 -0.0781 -1.0499
 2345SOL     OW12870   1.187   9.465   3.146 -0.0624 -0.3419 -0.2059
 2345SOL    HW112871   1.139   9.537   3.187 -1.9555  0.1640 -3.0306
 2345SOL    HW212872   1.203   9.494   3.056  2.3832 -2.0402 -0.4184
 2346SOL     OW12873   0.607   0.919   6.266 -0.3706 -0.0795 -0.7950
 2346SOL    HW112874   0.558   0.845   6.229 -0.0602  0.5939 -2.6468
 2346SOL    HW212875   0.696   0.886   6.275 -0.8701 -0.9895  1.6616
 2347SOL     OW12876   2.743   5.888   6.206  0.4943  0.2753 -0.3538
 2347SOL    HW112877   2.742   5.815   6.144 -0.9170  0.4763 -0.6130
 2347SOL    HW212878   2.775   5.850   6.288  0.1242 -0.5531 -0.5851
 2348SOL     OW12879   2.326  10.702   6.256 -0.0133  0.3550 -0.3062
 2348SOL    HW112880   2.394  10.740   6.201  0.8312 -2.0576 -1.0744
 2348SOL    HW212881   2.282  10.638   6.200  0.2354 -1.5050  1.4692
 2349SOL     OW12882   2.207   5.073   2.158 -0.0008  0.1551  0.2228
 2349SOL    HW112883   2.189   5.015   2.232  0.6944  0.0415  0.3064
 2349SOL    HW212884   2.300   5.093   2.165 -0.2985  1.5573  0.3976
 2350SOL     OW12885   9.043  10.920   8.199 -0.1595 -0.2928  0.2000
 2350SOL    HW112886   9.053  10.875   8.283 -0.5705 -0.6991  0.0366
 2350SOL    HW212887   9.024  11.011   8.223  2.1016  0.1532  0.5317
 2351SOL     OW12888   2.985   2.151   9.997  0.7698  0.7109  0.1525
 2351SOL    HW112889   3.080   2.136   9.998  0.5940 -0.4217  0.3659
 2351SOL    HW212890   2.976   2.237   9.956  1.8411  0.3836 -0.8387
 2352SOL     OW12891   7.946   5.903   8.868 -0.4000  1.0366  0.6239
 2352SOL    HW112892   7.908   5.823   8.830 -1.1277  1.7599 -0.2167
 2352SOL    HW212893   7.962   5.880   8.959  0.1827 -0.3343  0.2057
 2353SOL     OW12894   1.205   6.399   0.154 -0.0337  0.1197 -0.2538
 2353SOL    HW112895   1.169   6.389   0.066  0.8586 -0.2998 -0.5906
 2353SOL    HW212896   1.271   6.329   0.160  0.2351  0.4362  0.5768
 2354SOL     OW12897   9.569   5.700   7.515 -0.1752 -0.3218  0.2181
 2354SOL    HW112898   9.576   5.777   7.458 -0.7872  0.5054  1.2331
 2354SOL    HW212899   9.481   5.706   7.552 -0.3104 -1.6457  0.1476
 2355SOL     OW12900   9.019   6.227   6.628  0.0900 -0.1376 -0.0315
 2355SOL    HW112901   9.114   6.226   6.629  0.0816 -0.7225  0.5323
 2355SOL    HW212902   8.994   6.135   6.630 -0.4866 -0.0101 -0.8219
 2356SOL     OW12903   4.668   6.773  10.123 -0.3036 -0.0279  0.1746
 2356SOL    HW112904   4.643   6.810  10.208 -0.6271  0.2884 -0.0559
 2356SOL    HW212905   4.725   6.700  10.145  2.6019  2.2009  0.5830
 2357SOL     OW12906  10.551   7.466   0.218 -0.0986  0.5190  0.8830
 2357SOL    HW112907  10.549   7.446   0.311 -1.1933 -1.9675  0.4018
 2357SOL    HW212908  10.459   7.459   0.190  0.2143  1.1553 -0.3996
 2358SOL     OW12909   9.757   7.539   7.717  0.6196  0.2466  0.1196
 2358SOL    HW112910   9.744   7.630   7.690  1.0257  0.2861  0.0489
 2358SOL    HW212911   9.676   7.495   7.691  0.7236  0.4296 -0.5358
 2359SOL     OW12912   0.420   5.445  10.124 -0.0165 -0.7141 -0.0516
 2359SOL    HW112913   0.466   5.452  10.207  1.3257 -1.6307 -0.6720
 2359SOL    HW212914   0.431   5.530  10.083 -1.9015  0.2310  1.2583
 2360SOL     OW12915   2.863   3.514   0.483 -0.3381 -0.1703 -1.1057
 2360SOL    HW112916   2.790   3.457   0.460  0.8296 -1.5239 -1.5988
 2360SOL    HW212917   2.907   3.470   0.556 -0.7393  1.2933  0.0889
 2361SOL     OW12918   5.574   5.609   9.272 -0.2661  0.5758 -0.1496
 2361SOL    HW112919   5.560   5.546   9.201 -0.2795 -0.2289  0.5504
 2361SOL    HW212920   5.489   5.616   9.315 -0.4254  1.5506 -0.5790
 2362SOL     OW12921   5.509   2.822   0.616  0.5052 -0.1058  0.5872
 2362SOL    HW112922   5.413   2.821   0.622  0.4121 -0.9164 -0.5898
 2362SOL    HW212923   5.527   2.872   0.536  0.9569 -1.5412 -0.2537
 2363SOL     OW12924   1.672   6.973   5.436  0.3983 -0.0830 -0.0584
 2363SOL    HW112925   1.716   6.900   5.479  0.8631  0.4079  0.3106
 2363SOL    HW212926   1.699   6.967   5.344  2.1444  0.8686  0.3709
 2364SOL     OW12927   7.607   6.943   7.325 -0.1137 -0.2162  1.2393
 2364SOL    HW112928   7.524   6.910   7.360 -0.6704 -0.6390 -0.4059
 2364SOL    HW212929   7.593   7.038   7.317 -1.0976 -0.4670 -0.5906
 2365SOL     OW12930  10.681   5.321   2.606  0.5119 -0.4189  0.5913
 2365SOL    HW112931  10.639   5.359   2.528 -0.0437 -1.2522  0.4756
 2365SOL    HW212932  10.754   5.271   2.571  1.4141  0.7358  0.7654
 2366SOL     OW12933   9.131   4.583   3.048 -0.6648 -0.1740  0.3308
 2366SOL    HW112934   9.202   4.643   3.072  2.7783 -3.2777 -1.0646
 2366SOL    HW212935   9.103   4.544   3.131 -2.0324  2.2520  1.0903
 2367SOL     OW12936   6.534   1.357   5.668  0.3608  0.0653 -0.0101
 2367SOL    HW112937   6.592   1.405   5.608  0.9409  0.4492  0.8310
 2367SOL    HW212938   6.513   1.421   5.737  0.2803 -0.5637  0.5607
 2368SOL     OW12939   5.279   0.118   4.706  0.1048 -0.5156 -0.2372
 2368SOL    HW112940   5.294   0.212   4.690 -1.0647  0.0019  1.4323
 2368SOL    HW212941   5.191   0.102   4.671 -0.2944 -0.6279  0.8050
 2369SOL     OW12942   5.072   2.907   4.994  0.3298 -0.6050 -0.2429
 2369SOL    HW112943   5.102   2.941   4.910 -0.6302 -1.2382 -0.8537
 2369SOL    HW212944   5.150   2.865   5.032  0.2809 -2.1599 -1.7653
 2370SOL     OW12945   2.400   5.103   1.871 -0.0020  0.1197 -0.1381
 2370SOL    HW112946   2.368   5.105   1.961  0.7929 -0.3347  0.1587
 2370SOL    HW212947   2.495   5.112   1.879  0.1118 -0.3608 -0.9076
 2371SOL     OW12948   4.751   3.181   3.670 -0.2013  0.4329 -0.3104
 2371SOL    HW112949   4.699   3.251   3.631  0.5321  1.0901 -0.1513
 2371SOL    HW212950   4.697   3.148   3.742 -0.0822  1.6642  0.3829
 2372SOL     OW12951   5.034   4.912   4.183 -0.1143 -0.0342 -0.1540
 2372SOL    HW112952   4.953   4.873   4.150 -1.6049  1.1954  1.7990
 2372SOL    HW212953   5.047   4.991   4.130 -0.7642  0.2779  0.1375
 2373SOL     OW12954   4.076   8.694   0.085 -0.0598 -0.2638  0.0988
 2373SOL    HW112955   4.010   8.650   0.031  0.6772 -1.4549  0.1466
 2373SOL    HW212956   4.080   8.782   0.050 -0.1942 -0.7758 -1.2543
 2374SOL     OW12957   8.703   8.313   6.648  0.2143 -0.2832  0.3303
 2374SOL    HW112958   8.614   8.279   6.646  0.6377 -1.4190 -0.5439
 2374SOL    HW212959   8.727   8.326   6.557  1.0711 -0.3777  0.5270
 2375SOL     OW12960  10.830   6.108   9.984 -0.0395  0.1524  0.0413
 2375SOL    HW112961  10.745   6.150   9.975 -0.6985 -1.0815  0.2729
 2375SOL    HW212962  10.828   6.035   9.923 -0.2199 -1.5082  1.9208
 2376SOL     OW12963   5.013   4.906   9.521  0.6495 -0.2185  0.1652
 2376SOL    HW112964   5.022   4.811   9.527  1.6783 -0.0734  1.5699
 2376SOL    HW212965   4.949   4.929   9.589 -0.9610 -0.0418 -1.3517
 2377SOL     OW12966   7.611   3.741   3.372  0.5106  0.0607 -0.2209
 2377SOL    HW112967   7.534   3.684   3.367 -0.1326  0.7976  0.7531
 2377SOL    HW212968   7.684   3.682   3.387 -0.4175 -0.4573  3.0863
 2378SOL     OW12969   0.677  10.366   3.692  0.0232  0.2054  0.0550
 2378SOL    HW112970   0.673  10.272   3.679  0.7546  0.2873 -0.9090
 2378SOL    HW212971   0.771  10.386   3.690 -0.1611  1.0846 -0.9176
 2379SOL     OW12972   3.022   1.230   3.458  0.1230 -0.2791 -0.0151
 2379SOL    HW112973   3.040   1.194   3.371  0.4702 -1.3756  0.4907
 2379SOL    HW212974   3.009   1.323   3.443  0.0148 -0.4767 -1.2660
 2380SOL     OW12975  10.533   8.786   7.712 -0.2332 -0.2190 -0.3251
 2380SOL    HW112976  10.539   8.864   7.768 -2.4321 -0.0253 -0.2766
 2380SOL    HW212977  10.557   8.817   7.625 -0.2904  0.3287 -0.1479
 2381SOL     OW12978   6.804   6.969   9.366 -0.6866 -0.2319  0.0627
 2381SOL    HW112979   6.729   6.976   9.307 -0.4236 -0.7944 -0.3484
 2381SOL    HW212980   6.766   6.961   9.453 -1.1582 -2.0620 -0.2872
 2382SOL     OW12981   8.398  10.390   8.324 -0.0831 -0.6444  0.3122
 2382SOL    HW112982   8.449  10.469   8.307 -1.9849  0.4412 -0.5304
 2382SOL    HW212983   8.441  10.322   8.271 -0.6069  0.6840 -1.9363
 2383SOL     OW12984   0.825   2.432   8.728  0.0375  0.3868 -0.1876
 2383SOL    HW112985   0.785   2.393   8.650 -0.4314 -0.0222  0.2528
 2383SOL    HW212986   0.859   2.516   8.697 -0.3625  0.3438 -0.7776
 2384SOL     OW12987   7.515   0.485   4.405  0.8369 -0.1414  0.3640
 2384SOL    HW112988   7.588   0.495   4.345  1.0418 -0.9470  0.4640
 2384SOL    HW212989   7.525   0.396   4.441  0.9040  0.4196  1.8163
 2385SOL     OW12990   7.201   5.246   5.520  0.0817  0.0023  0.5920
 2385SOL    HW112991   7.221   5.339   5.531  0.1691  0.1976 -0.9885
 2385SOL    HW212992   7.116   5.245   5.476 -0.6550 -0.7256  1.9468
 2386SOL     OW12993   3.400   9.967   4.032  0.2302 -0.1944  0.1530
 2386SOL    HW112994   3.369  10.058   4.036  1.1743  0.1969 -0.8475
 2386SOL    HW212995   3.374   9.936   3.946 -0.1722 -0.9179  0.5294
 2387SOL     OW12996   1.131   8.217   6.203 -0.3941  0.0485 -0.0373
 2387SOL    HW112997   1.100   8.258   6.284 -0.0130 -2.5363  1.5294
 2387SOL    HW212998   1.225   8.205   6.218 -0.3471 -0.5650 -0.8144
 2388SOL     OW12999   1.750   2.119   0.271 -0.2322  0.3473 -0.2496
 2388SOL    HW113000   1.831   2.159   0.302  0.8160 -1.9453  0.0906
 2388SOL    HW213001   1.775   2.068   0.195 -1.4429 -0.0750 -0.3884
 2389SOL     OW13002   3.613   4.871   8.709  0.1240  0.2697 -0.1036
 2389SOL    HW113003   3.563   4.880   8.790  2.3669 -0.3513  1.4422
 2389SOL    HW213004   3.554   4.824   8.650 -2.8434  3.6143 -0.1064
 2390SOL     OW13005   1.024   0.154   7.101 -0.0007  0.3914  0.4442
 2390SOL    HW113006   0.941   0.106   7.092  0.1578  0.1864  0.0885
 2390SOL    HW213007   1.044   0.185   7.013 -0.1011  1.1197  0.6674
 2391SOL     OW13008   6.912   9.194   7.511  0.1308  0.5953 -0.1533
 2391SOL    HW113009   6.970   9.205   7.587 -0.3669  0.0815  0.3131
 2391SOL    HW213010   6.906   9.100   7.499 -1.2955  0.5974  0.3650
 2392SOL     OW13011   1.957   8.067   5.461 -0.1268  0.1660 -0.1714
 2392SOL    HW113012   1.880   8.040   5.411 -0.1307 -3.5067  1.4970
 2392SOL    HW213013   1.922   8.088   5.548  0.5635  0.1885  0.1017
 2393SOL     OW13014   6.213   6.025   4.700 -0.2935  0.0687  0.2408
 2393SOL    HW113015   6.206   6.000   4.792  0.8702 -2.1934 -0.2053
 2393SOL    HW213016   6.130   5.998   4.661 -0.3718  0.0594  0.4130
 2394SOL     OW13017   7.168   3.762   4.495  0.0591 -0.2236  0.5389
 2394SOL    HW113018   7.161   3.667   4.496  1.2221 -0.3666 -1.0204
 2394SOL    HW213019   7.078   3.793   4.499 -0.4122 -1.4192 -0.2780
 2395SOL     OW13020   6.696   6.628  10.420 -0.3472  0.3922  0.5874
 2395SOL    HW113021   6.610   6.586  10.417  0.3038 -0.9701  0.3488
 2395SOL    HW213022   6.741   6.597  10.342  0.8504 -0.0215  1.4129
 2396SOL     OW13023   3.723   4.445   4.080  0.1622 -0.0940  0.7682
 2396SOL    HW113024   3.742   4.534   4.109 -0.3369  0.5686 -0.8445
 2396SOL    HW213025   3.742   4.445   3.986  0.7614 -1.8702  0.8456
 2397SOL     OW13026   2.458   0.878   0.267  0.1015  0.0258  0.1157
 2397SOL    HW113027   2.549   0.854   0.245  0.0488 -0.9773  0.9402
 2397SOL    HW213028   2.463   0.913   0.355 -0.1527  1.1194 -0.2878
 2398SOL     OW13029   3.733   4.206   0.312 -0.4643  0.3087 -0.0365
 2398SOL    HW113030   3.701   4.174   0.397  1.6002 -0.8011  0.4007
 2398SOL    HW213031   3.674   4.166   0.248 -1.5921  0.5516  0.8192
 2399SOL     OW13032   8.155   7.459  10.737  0.1971 -0.2492  0.5374
 2399SOL    HW113033   8.216   7.505  10.680 -0.0332 -0.2731  0.2684
 2399SOL    HW213034   8.111   7.528  10.786  2.2930 -0.3218  2.6802
 2400SOL     OW13035   6.817   0.629  10.071 -0.2445 -0.0208 -0.1014
 2400SOL    HW113036   6.865   0.609  10.152  0.5100 -1.0585 -0.7751
 2400SOL    HW213037   6.856   0.710  10.039  0.8574 -0.6864 -0.4722
 2401SOL     OW13038   6.703   9.116   9.668 -0.0670  0.1651  0.3794
 2401SOL    HW113039   6.794   9.124   9.642 -0.6114  3.9018 -0.9877
 2401SOL    HW213040   6.696   9.167   9.749 -1.0067  0.2111  0.2843
 2402SOL     OW13041   1.976   3.702   4.270  0.1977 -0.3945  0.1835
 2402SOL    HW113042   2.068   3.699   4.246  0.5612 -2.7361  1.5689
 2402SOL    HW213043   1.931   3.663   4.194  0.4595 -0.2186 -0.0643
 2403SOL     OW13044   6.910   9.196   0.331 -0.2430  0.1224  0.0971
 2403SOL    HW113045   6.990   9.145   0.344  0.3509  1.3195  1.3423
 2403SOL    HW213046   6.938   9.272   0.280 -1.0310 -0.4772 -1.3091
 2404SOL     OW13047   6.922   2.323   0.631  0.1095  0.4170 -0.1223
 2404SOL    HW113048   7.001   2.310   0.578  1.6416  0.5129  2.0155
 2404SOL    HW213049   6.935   2.409   0.672 -0.0333 -0.4932  1.9444
 2405SOL     OW13050   2.783   7.500  10.908 -0.7150  0.1227  0.1166
 2405SOL    HW113051   2.806   7.579  10.859  0.4670 -0.2398  0.0521
 2405SOL    HW213052   2.697   7.475  10.875 -0.0918  0.0610 -1.5763
 2406SOL     OW13053   5.338   8.666   8.556  0.1849 -0.8617  0.2196
 2406SOL    HW113054   5.298   8.599   8.612  2.8090 -1.5745  1.3844
 2406SOL    HW213055   5.401   8.618   8.502 -0.3279  0.2327 -1.4168
 2407SOL     OW13056   4.700   1.348   0.102  0.3809 -0.3155 -0.5215
 2407SOL    HW113057   4.674   1.413   0.168 -0.3062  0.5896 -1.6346
 2407SOL    HW213058   4.787   1.321   0.129  0.0014 -0.2143  0.9307
 2408SOL     OW13059   4.050   0.227   7.182  0.2418  0.1809 -0.1396
 2408SOL    HW113060   4.120   0.171   7.215  0.7608  0.9468  0.0802
 2408SOL    HW213061   3.984   0.226   7.251 -0.0103 -0.6149 -0.3866
 2409SOL     OW13062   9.195   7.342   9.278  0.4398 -0.5154  0.2655
 2409SOL    HW113063   9.224   7.275   9.339  0.6664 -1.0884 -0.4537
 2409SOL    HW213064   9.130   7.393   9.326  0.1306 -1.3712  0.7609
 2410SOL     OW13065   3.839   4.695  10.506 -0.4904  0.0357 -0.2638
 2410SOL    HW113066   3.908   4.745  10.548 -1.3066  1.1256 -0.1560
 2410SOL    HW213067   3.760   4.749  10.518 -1.1829 -0.7476 -1.1369
 2411SOL     OW13068   1.759   6.447   7.981 -0.4057  0.1514 -0.2450
 2411SOL    HW113069   1.733   6.380   7.918  0.5181  1.3384 -1.9893
 2411SOL    HW213070   1.821   6.404   8.039  1.9700 -0.0439 -2.7348
 2412SOL     OW13071   3.872   5.356   1.596  0.1131  0.2424  0.3140
 2412SOL    HW113072   3.831   5.272   1.575 -1.4447  1.5474 -2.4977
 2412SOL    HW213073   3.801   5.410   1.631  0.9099  0.6364  1.3548
 2413SOL     OW13074   3.867   8.177   1.854  0.5503 -0.2255 -0.2127
 2413SOL    HW113075   3.817   8.131   1.787  0.2648  0.1854 -0.2920
 2413SOL    HW213076   3.800   8.224   1.905  0.1473 -4.0895  3.3398
 2414SOL     OW13077   0.032   9.357   5.357  0.4591  0.2467  0.7018
 2414SOL    HW113078   0.102   9.407   5.400  1.0418 -1.5333  1.9340
 2414SOL    HW213079   0.077   9.309   5.287  0.1602  0.3296  0.4487
 2415SOL     OW13080  10.124   9.596   7.497 -1.1041 -0.1410  0.2610
 2415SOL    HW113081  10.078   9.515   7.518 -0.2853 -0.5577  0.5184
 2415SOL    HW213082  10.155   9.583   7.407 -0.3892 -0.4105  0.5360
 2416SOL     OW13083   1.426   8.548   3.276 -0.2157 -0.4476 -0.1429
 2416SOL    HW113084   1.439   8.580   3.365 -4.1077 -0.6742  0.7060
 2416SOL    HW213085   1.416   8.628   3.224  2.7413 -0.2996 -0.6286
 2417SOL     OW13086   8.930   2.971   8.681  0.1775  0.2680  0.3496
 2417SOL    HW113087   9.013   2.985   8.636 -0.4727  0.9025 -0.7011
 2417SOL    HW213088   8.952   2.973   8.774  1.0616  2.2804  0.1330
 2418SOL     OW13089   9.723   9.729  10.568 -0.2673  0.5127 -0.0081
 2418SOL    HW113090   9.671   9.670  10.514  0.6867  1.1149 -1.6316
 2418SOL    HW213091   9.762   9.672  10.634 -1.0901 -0.3091 -0.2033
 2419SOL     OW13092   2.557   5.894   8.529  0.6467  0.2567 -0.1564
 2419SOL    HW113093   2.529   5.827   8.466  1.4606  1.1127 -1.4740
 2419SOL    HW213094   2.640   5.861   8.563 -1.0684 -1.5720  2.6643
 2420SOL     OW13095   0.699   6.688   6.569 -0.3364  0.3422  0.4793
 2420SOL    HW113096   0.755   6.705   6.494 -0.3647  1.0926  0.6246
 2420SOL    HW213097   0.703   6.768   6.622 -0.1748 -0.2343  1.3701
 2421SOL     OW13098   9.644   7.096   9.284 -0.1706  0.2913  0.6102
 2421SOL    HW113099   9.607   7.138   9.206 -1.7556  0.2769  1.3260
 2421SOL    HW213100   9.615   7.150   9.357  0.0873 -0.5018  1.3137
 2422SOL     OW13101   8.176   3.241  10.645 -0.3695  0.1371 -0.4727
 2422SOL    HW113102   8.101   3.286  10.606  0.7649  2.7006  0.1203
 2422SOL    HW213103   8.210   3.302  10.710  1.2342 -1.6587  0.4731
 2423SOL     OW13104   3.037   5.069   5.382 -0.2436 -0.4630  0.1600
 2423SOL    HW113105   3.071   4.982   5.361  0.4480 -0.2734  0.4713
 2423SOL    HW213106   3.096   5.129   5.337 -0.5690 -0.1488  0.1555
 2424SOL     OW13107   0.311   4.819   8.961  0.0471  0.2128 -0.4925
 2424SOL    HW113108   0.290   4.896   9.013  0.3824  0.1919 -0.3284
 2424SOL    HW213109   0.342   4.854   8.877 -0.2326  0.2492 -0.5815
 2425SOL     OW13110   4.662   9.017   5.384  1.0598  0.0736  0.4985
 2425SOL    HW113111   4.614   9.064   5.316 -1.1245 -3.4557 -0.6513
 2425SOL    HW213112   4.737   8.979   5.338 -0.5189 -2.4710 -0.1607
 2426SOL     OW13113   3.034   0.094   4.095 -0.0508  0.7350  0.2254
 2426SOL    HW113114   3.115   0.062   4.134  0.6969 -0.1943 -1.9209
 2426SOL    HW213115   3.047   0.189   4.086  1.6770  0.3887 -1.8047
 2427SOL     OW13116   4.197   7.724   8.402 -0.3323 -0.1450  0.6644
 2427SOL    HW113117   4.273   7.687   8.356 -0.8436 -0.4905  0.0780
 2427SOL    HW213118   4.124   7.711   8.341 -0.5761  1.6537  0.5179
 2428SOL     OW13119   0.746   8.550   4.530 -0.0305 -0.4056 -0.7130
 2428SOL    HW113120   0.689   8.599   4.470 -0.5348 -1.7763 -1.3816
 2428SOL    HW213121   0.784   8.618   4.586 -3.3759  0.5072  0.7241
 2429SOL     OW13122   4.370   3.363   8.727 -0.1915  1.0037 -0.0026
 2429SOL    HW113123   4.431   3.420   8.680 -0.9866  0.9049 -1.1838
 2429SOL    HW213124   4.330   3.309   8.659 -2.1948  1.6005  0.6293
 2430SOL     OW13125   5.016   7.773   0.673 -0.5190 -0.5664  0.5858
 2430SOL    HW113126   5.074   7.728   0.735  0.1229 -2.3865 -1.2338
 2430SOL    HW213127   4.973   7.703   0.625  0.4088  0.6916 -2.3122
 2431SOL     OW13128   2.518   5.596   2.147  0.2511 -0.5136  0.4070
 2431SOL    HW113129   2.504   5.672   2.090  0.2913 -0.2890  0.6959
 2431SOL    HW213130   2.534   5.634   2.233  0.7182 -0.8392  0.4610
 2432SOL     OW13131   1.924   0.313   8.744  0.0668  0.7005  0.0110
 2432SOL    HW113132   1.878   0.331   8.826  0.4660 -0.0618  0.4048
 2432SOL    HW213133   1.976   0.235   8.761 -0.5970 -0.0664 -1.2651
 2433SOL     OW13134   5.689   2.632   1.844  0.2780  0.1679  0.0044
 2433SOL    HW113135   5.670   2.548   1.802  0.7052  1.1959 -2.4174
 2433SOL    HW213136   5.648   2.626   1.930 -2.2370 -1.4193 -1.1920
 2434SOL     OW13137   7.899   2.222   5.351  0.3167 -0.1353  0.1903
 2434SOL    HW113138   7.804   2.229   5.345  0.2252 -0.7009  0.8657
 2434SOL    HW213139   7.930   2.238   5.262 -0.3034  1.4694  0.2227
 2435SOL     OW13140   5.059   9.415   2.984 -0.0930 -0.6215 -0.2891
 2435SOL    HW113141   4.966   9.423   3.002  0.0623 -1.0876  0.8332
 2435SOL    HW213142   5.081   9.325   3.009  0.6593 -0.5156 -0.5298
 2436SOL     OW13143   0.424   1.190   9.708 -0.2024  0.2363 -0.0556
 2436SOL    HW113144   0.333   1.180   9.682 -0.6153  1.1578  0.9285
 2436SOL    HW213145   0.436   1.285   9.718  0.0834  0.0214  2.3266
 2437SOL     OW13146   4.902   4.766   9.136 -0.3135  0.6710  0.4132
 2437SOL    HW113147   4.965   4.719   9.191  2.0288  2.0900 -0.9057
 2437SOL    HW213148   4.942   4.768   9.049 -1.4085  2.9787 -0.1228
 2438SOL     OW13149   1.576   6.876   1.776  0.0613  0.1895 -0.2187
 2438SOL    HW113150   1.665   6.841   1.772  0.0323  0.1312 -0.3607
 2438SOL    HW213151   1.551   6.868   1.868  0.6572  1.3415  0.0622
 2439SOL     OW13152   0.565   1.675   0.071 -0.0632 -0.1703  0.2031
 2439SOL    HW113153   0.501   1.605   0.063 -1.4283  1.0172  0.3653
 2439SOL    HW213154   0.626   1.661  -0.002 -1.1558 -0.6724 -0.6298
 2440SOL     OW13155   0.175   1.470   7.129 -0.3954  0.1721  0.2330
 2440SOL    HW113156   0.171   1.457   7.224 -1.3397  1.7609  0.4451
 2440SOL    HW213157   0.117   1.544   7.113  0.7892  0.7863 -1.4344
 2441SOL     OW13158   3.834  10.500   8.338  0.0656  0.1754 -0.4434
 2441SOL    HW113159   3.907  10.506   8.277 -0.0511  0.4081 -0.5624
 2441SOL    HW213160   3.867  10.447   8.410  1.1460  2.2359  0.6573
 2442SOL     OW13161   4.687   2.059   0.166 -0.3060  0.0975  0.7391
 2442SOL    HW113162   4.646   2.133   0.212 -0.0369  0.2774  0.6912
 2442SOL    HW213163   4.780   2.082   0.162 -0.2583 -0.1341  0.5154
 2443SOL     OW13164   6.830   1.941   3.530 -0.4274  0.3138 -0.0000
 2443SOL    HW113165   6.841   2.030   3.563  0.5008  0.3057 -0.2611
 2443SOL    HW213166   6.795   1.892   3.605 -0.4774  0.7882  0.2919
 2444SOL     OW13167   1.761   9.272   5.596  0.0430  0.5417 -1.2690
 2444SOL    HW113168   1.815   9.343   5.630 -1.5879  1.4013 -0.3337
 2444SOL    HW213169   1.681   9.316   5.566 -1.3328 -0.9437  0.0461
 2445SOL     OW13170   0.983   5.361   0.526  0.1458 -0.8212 -1.1996
 2445SOL    HW113171   1.022   5.425   0.467  0.0036 -0.0447 -0.4648
 2445SOL    HW213172   0.890   5.383   0.528  0.3451 -0.0464  0.2742
 2446SOL     OW13173   7.715   2.836   0.663 -0.3923  0.2762  0.0630
 2446SOL    HW113174   7.716   2.841   0.567 -0.6540  1.7577  0.1199
 2446SOL    HW213175   7.773   2.763   0.683 -0.9870 -0.5943 -1.2490
 2447SOL     OW13176   5.609   4.214   3.591  0.0586  0.6016 -0.5489
 2447SOL    HW113177   5.563   4.141   3.549 -0.4239  0.1070  0.7791
 2447SOL    HW213178   5.695   4.178   3.614 -0.5439  0.0710  1.0445
 2448SOL     OW13179   5.629   3.452   5.117  0.1844  0.1688  0.0170
 2448SOL    HW113180   5.560   3.415   5.173  0.1102  0.5685  0.1903
 2448SOL    HW213181   5.616   3.547   5.122  0.7355  0.2449  0.0314
 2449SOL     OW13182   6.391   9.090   5.819  0.4043  0.1419 -0.4278
 2449SOL    HW113183   6.462   9.058   5.765  0.2685  0.0452 -0.5487
 2449SOL    HW213184   6.396   9.186   5.811  0.4569  0.1311 -0.5165
 2450SOL     OW13185   3.692   2.294   7.635  0.2591 -0.5233  0.1029
 2450SOL    HW113186   3.730   2.367   7.586  1.4397 -1.0291  0.2184
 2450SOL    HW213187   3.737   2.297   7.719  2.2865 -2.9066 -0.7821
 2451SOL     OW13188   0.272   9.829   3.056 -0.4103  0.2160 -0.3592
 2451SOL    HW113189   0.273   9.921   3.083 -1.1566 -0.1082  0.8417
 2451SOL    HW213190   0.264   9.780   3.137 -0.5895 -0.9010 -1.0253
 2452SOL     OW13191   7.341   6.883   7.055  0.2967 -0.7353 -0.2363
 2452SOL    HW113192   7.288   6.855   6.980 -0.9153  0.9916 -0.0766
 2452SOL    HW213193   7.334   6.978   7.056  0.3671 -0.6971  2.0036
 2453SOL     OW13194   9.958   4.389   3.485 -0.0981  0.7269 -0.6714
 2453SOL    HW113195   9.898   4.464   3.492  1.5008  1.9271  1.1331
 2453SOL    HW213196  10.045   4.428   3.491  0.8164 -1.3949  3.5635
 2454SOL     OW13197   4.710   6.656   9.812 -0.1031 -0.3139 -0.2826
 2454SOL    HW113198   4.695   6.651   9.718 -3.6710  1.0499  0.0721
 2454SOL    HW213199   4.773   6.728   9.822  0.8719 -0.9424 -1.6132
 2455SOL     OW13200   3.967   2.174   9.777  0.2896 -0.3723  0.0057
 2455SOL    HW113201   4.007   2.097   9.737  0.1118 -0.5345  0.1329
 2455SOL    HW213202   4.040   2.220   9.819  0.4665 -0.2222 -0.4689
 2456SOL     OW13203   3.710   6.181   6.694 -0.0161 -0.2068 -0.1232
 2456SOL    HW113204   3.803   6.195   6.709 -0.4896  2.7732  0.6364
 2456SOL    HW213205   3.697   6.207   6.603 -0.1683 -0.2063 -0.1010
 2457SOL     OW13206   0.177   8.613   6.588 -0.5310 -0.0118 -0.3141
 2457SOL    HW113207   0.099   8.562   6.608  1.1423 -2.3424  0.7510
 2457SOL    HW213208   0.186   8.608   6.493 -0.7657 -1.2030 -0.2837
 2458SOL     OW13209   9.994   1.295   2.139  0.0829  0.3241 -0.0350
 2458SOL    HW113210   9.923   1.253   2.090  0.2487  1.3429 -1.2020
 2458SOL    HW213211   9.955   1.377   2.171  0.6259  0.7189 -0.3774
 2459SOL     OW13212   5.042   9.355   4.196 -0.0996 -0.3869  0.8046
 2459SOL    HW113213   4.984   9.408   4.251  2.0088  2.9055  0.1183
 2459SOL    HW213214   4.998   9.351   4.111 -0.0628  0.7791  0.7144
 2460SOL     OW13215   3.308   4.215   9.253 -0.7582 -0.2272 -0.2536
 2460SOL    HW113216   3.353   4.299   9.262  0.6068 -0.8014 -1.3442
 2460SOL    HW213217   3.236   4.220   9.315 -0.7346  1.7610 -0.3169
 2461SOL     OW13218   3.643   5.323   6.423  0.2679 -0.3080 -0.5162
 2461SOL    HW113219   3.711   5.269   6.462  0.5170 -0.1232 -0.6905
 2461SOL    HW213220   3.569   5.315   6.483 -0.4978 -2.6371 -1.6331
 2462SOL     OW13221   5.117   8.918   2.591 -0.0718 -0.4453  0.1742
 2462SOL    HW113222   5.059   8.988   2.621 -0.9319 -0.8383 -0.5373
 2462SOL    HW213223   5.203   8.942   2.625 -0.2009  1.3359 -0.6281
 2463SOL     OW13224   5.589   3.629   1.594  0.0315  0.0020 -0.4811
 2463SOL    HW113225   5.546   3.558   1.546 -0.3257  1.0304 -1.7401
 2463SOL    HW213226   5.546   3.631   1.679  0.0762 -1.2975 -0.4094
 2464SOL     OW13227   3.172   9.297   9.275  0.2975  0.3665 -0.2161
 2464SOL    HW113228   3.244   9.239   9.299 -0.3248 -0.5033 -0.3895
 2464SOL    HW213229   3.151   9.343   9.356  2.0666  1.8152 -0.5259
 2465SOL     OW13230   1.364   3.084   0.540  0.6326 -0.0645 -0.0599
 2465SOL    HW113231   1.307   3.106   0.467  0.5858 -0.9720 -0.3066
 2465SOL    HW213232   1.417   3.011   0.509  1.6739  0.5136  0.2982
 2466SOL     OW13233   2.213   2.136   4.450 -0.1330 -0.1598 -0.1226
 2466SOL    HW113234   2.244   2.091   4.372  0.4543 -0.3551  0.2187
 2466SOL    HW213235   2.207   2.228   4.425  1.7852  0.0626  0.1084
 2467SOL     OW13236   5.019   6.287   2.561 -0.3061  0.6682  0.3111
 2467SOL    HW113237   4.951   6.272   2.627  1.6134 -2.5215  1.8598
 2467SOL    HW213238   4.979   6.263   2.478 -1.6597  0.9075  0.8782
 2468SOL     OW13239   9.394   7.634   5.986 -0.0955  0.1377  0.0324
 2468SOL    HW113240   9.417   7.579   5.912  2.0035  0.2129  0.5614
 2468SOL    HW213241   9.307   7.668   5.965 -0.7512 -2.0414 -1.0554
 2469SOL     OW13242   1.319   8.712   8.148 -0.3723 -0.0002 -0.2835
 2469SOL    HW113243   1.396   8.766   8.130  0.2135 -0.9104 -0.6030
 2469SOL    HW213244   1.282   8.694   8.062  0.4653 -1.5529 -0.3476
 2470SOL     OW13245   4.125   4.945   7.081  0.2818  0.5822  0.0117
 2470SOL    HW113246   4.108   4.851   7.082 -0.5954  0.7321  0.6584
 2470SOL    HW213247   4.148   4.966   7.172 -0.2273  1.1133  0.0183
 2471SOL     OW13248   9.299   6.767   1.869  0.3031 -0.1835 -0.3167
 2471SOL    HW113249   9.370   6.729   1.817  0.6590 -0.3690  0.3058
 2471SOL    HW213250   9.250   6.821   1.806  1.3251  0.4114 -0.6320
 2472SOL     OW13251   6.772   0.583   5.658  0.1498 -0.4415 -0.0321
 2472SOL    HW113252   6.691   0.632   5.645 -0.4811 -0.8794  1.8838
 2472SOL    HW213253   6.841   0.649   5.654 -0.6159  0.5454  1.7409
 2473SOL     OW13254   0.707   8.787   0.601  0.1277  0.4412 -0.2609
 2473SOL    HW113255   0.782   8.731   0.621 -0.6443 -0.8735 -0.9255
 2473SOL    HW213256   0.716   8.862   0.660  0.9238 -0.6109  0.9897
 2474SOL     OW13257   1.117   6.189   9.557  0.4983  0.6046  0.1312
 2474SOL    HW113258   1.065   6.161   9.482  0.3739  1.2415 -0.0190
 2474SOL    HW213259   1.053   6.213   9.623  0.6080  0.5652  0.2518
 2475SOL     OW13260   3.043   6.505   5.876 -0.2133 -0.0571 -0.0955
 2475SOL    HW113261   3.130   6.539   5.897 -0.2221  0.2458 -0.5421
 2475SOL    HW213262   2.997   6.505   5.960  0.2104 -0.2077  0.1416
 2476SOL     OW13263   7.239   5.507   1.431 -0.3001  0.4501 -0.1988
 2476SOL    HW113264   7.213   5.563   1.358 -2.4142 -1.4046 -0.9783
 2476SOL    HW213265   7.299   5.444   1.393  0.1015  0.6345  0.1183
 2477SOL     OW13266   6.760   5.127   4.325 -0.0552  0.2554 -0.4146
 2477SOL    HW113267   6.768   5.095   4.415  0.0277 -1.0171 -0.8521
 2477SOL    HW213268   6.834   5.088   4.280  0.0037  1.0360 -1.0062
 2478SOL     OW13269   4.336   6.915   0.340  0.0038 -0.8171  0.1486
 2478SOL    HW113270   4.419   6.897   0.295  0.1665 -0.5405  0.3349
 2478SOL    HW213271   4.284   6.964   0.277  0.5633  0.3336  0.5490
 2479SOL     OW13272   9.539   1.940   9.313  0.4939 -0.7075  0.3432
 2479SOL    HW113273   9.477   1.921   9.243  0.3663  0.7052  0.0561
 2479SOL    HW213274   9.486   1.939   9.393 -0.3187  2.1279 -0.0514
 2480SOL     OW13275   5.185   0.058   5.355  0.2764 -0.8613 -0.1751
 2480SOL    HW113276   5.262   0.059   5.298  0.3971  0.2943 -0.0103
 2480SOL    HW213277   5.221   0.051   5.444  0.2163  0.1170 -0.0704
 2481SOL     OW13278   1.906   1.871   5.629  0.3413 -0.5377  0.3342
 2481SOL    HW113279   1.879   1.787   5.591  0.5354  0.0926 -1.2307
 2481SOL    HW213280   2.001   1.871   5.624  0.3274 -0.0865  0.0112
 2482SOL     OW13281   1.002   3.290   4.396  0.1585 -0.0893 -0.3657
 2482SOL    HW113282   0.983   3.374   4.353  1.6354 -0.1375 -1.1461
 2482SOL    HW213283   1.066   3.248   4.340 -0.5128 -1.7416  0.0604
 2483SOL     OW13284   0.787   2.066   0.951  0.2207 -0.4620  0.5886
 2483SOL    HW113285   0.793   2.146   0.899 -1.2790 -0.8050 -0.1571
 2483SOL    HW213286   0.859   2.073   1.014  0.5608  1.1156  0.0680
 2484SOL     OW13287   9.362   0.969   9.986  0.5502 -0.0196 -0.0906
 2484SOL    HW113288   9.326   0.917   9.914 -1.1149  1.3341 -0.2718
 2484SOL    HW213289   9.456   0.970   9.969  0.1329  1.2705 -2.9836
 2485SOL     OW13290   1.951   9.056  10.817 -0.0294 -0.2405  0.1562
 2485SOL    HW113291   1.929   9.146  10.792 -1.7301 -0.9144 -0.9216
 2485SOL    HW213292   1.971   9.062  10.911 -0.9430  1.1303  0.2889
 2486SOL     OW13293   6.393   6.151  10.492 -0.0929 -0.0208 -0.0478
 2486SOL    HW113294   6.317   6.124  10.441 -1.8287  2.0907  1.2520
 2486SOL    HW213295   6.468   6.115  10.444 -1.8276 -1.5842 -1.7665
 2487SOL     OW13296   4.462   7.695   2.743  0.1040 -0.4956 -0.3676
 2487SOL    HW113297   4.497   7.608   2.761 -1.1764 -0.8863  0.3984
 2487SOL    HW213298   4.392   7.706   2.807  0.9178  1.5427  0.2506
 2488SOL     OW13299   1.477   0.793   0.666 -0.2842 -0.3759  0.0716
 2488SOL    HW113300   1.559   0.766   0.708 -0.2134  0.5394  0.5461
 2488SOL    HW213301   1.474   0.742   0.585  0.7533 -0.4296  0.0489
 2489SOL     OW13302   9.457   6.099   8.328 -0.2972 -0.2092 -0.0575
 2489SOL    HW113303   9.528   6.131   8.384  0.5235 -0.4732 -0.9389
 2489SOL    HW213304   9.422   6.023   8.375 -0.8583  0.6619  1.0014
 2490SOL     OW13305   0.260   0.837   9.647 -0.1307 -0.4605 -0.1204
 2490SOL    HW113306   0.221   0.896   9.583 -0.9840 -1.2853 -0.4017
 2490SOL    HW213307   0.195   0.767   9.656  1.5473 -2.2562 -1.0903
 2491SOL     OW13308   6.517   7.056   3.091  0.1411  0.4039 -0.0155
 2491SOL    HW113309   6.519   7.139   3.139 -1.9694  0.3892  0.1750
 2491SOL    HW213310   6.558   7.076   3.006  0.7506  1.3030  0.4763
 2492SOL     OW13311   7.003  10.457   8.348  0.1373  0.0864  0.6129
 2492SOL    HW113312   6.957  10.404   8.413 -0.0173  0.4012  0.7607
 2492SOL    HW213313   6.936  10.477   8.282 -0.3777  1.8832  1.6217
 2493SOL     OW13314   4.375   6.524  10.390 -0.2982 -0.1735  0.3379
 2493SOL    HW113315   4.411   6.560  10.471 -0.2598 -1.3072  0.8392
 2493SOL    HW213316   4.353   6.433  10.412  0.6601 -0.8110 -1.1986
 2494SOL     OW13317   6.804   7.229   6.334  0.0845 -0.5430  0.0176
 2494SOL    HW113318   6.762   7.145   6.353 -1.3927  0.0922 -0.2747
 2494SOL    HW213319   6.747   7.270   6.269  2.5793 -0.7450 -2.4945
 2495SOL     OW13320   2.027   6.255   2.711 -0.5394 -0.3040 -0.2298
 2495SOL    HW113321   1.963   6.309   2.758 -0.0570 -0.2227  0.3483
 2495SOL    HW213322   2.091   6.318   2.677  1.4740 -0.6029  2.6266
 2496SOL     OW13323   1.276   5.827   1.722  0.2968  0.2690  0.3602
 2496SOL    HW113324   1.317   5.847   1.806 -2.1837 -0.0782  1.7373
 2496SOL    HW213325   1.294   5.734   1.708  1.1299  0.4396  0.2290
 2497SOL     OW13326   6.150   4.660   5.139 -0.2187 -0.1575 -0.0217
 2497SOL    HW113327   6.134   4.566   5.143 -1.4390 -0.0337 -1.1510
 2497SOL    HW213328   6.163   4.678   5.046 -0.3421  0.8345  0.1444
 2498SOL     OW13329   7.511   8.669   2.654 -0.6776 -0.1363  0.3531
 2498SOL    HW113330   7.460   8.622   2.588 -0.8187 -0.0970  0.4339
 2498SOL    HW213331   7.599   8.676   2.616 -0.7716 -0.0647  0.1462
 2499SOL     OW13332  10.269   3.827   3.451 -0.4105 -0.4190 -0.6694
 2499SOL    HW113333  10.256   3.740   3.488 -0.1593 -0.6833 -1.1918
 2499SOL    HW213334  10.333   3.869   3.510  0.3713 -1.0136 -1.0725
 2500SOL     OW13335   9.079  10.582   2.730 -0.2767 -0.0205  0.4552
 2500SOL    HW113336   9.146  10.638   2.690  0.9381 -0.9403  1.1213
 2500SOL    HW213337   9.005  10.586   2.669 -0.1764  2.1400  0.3985
 2501SOL     OW13338   2.357   4.477   7.420 -0.1865  0.8361 -0.4073
 2501SOL    HW113339   2.403   4.405   7.463 -0.9252  1.0814  0.8675
 2501SOL    HW213340   2.274   4.439   7.391 -0.6690  1.1998  0.4561
 2502SOL     OW13341   5.458  10.878   2.894  0.5951 -0.3526  0.0930
 2502SOL    HW113342   5.490  10.811   2.955  0.7408 -2.1235 -1.8267
 2502SOL    HW213343   5.536  10.908   2.847  0.6432  1.7445  1.3776
 2503SOL     OW13344   7.010   6.497   5.420 -0.0310 -0.0456 -0.8727
 2503SOL    HW113345   7.075   6.522   5.486  2.1392 -0.8147 -2.6001
 2503SOL    HW213346   7.018   6.402   5.413  0.9103  0.1415 -3.2605
 2504SOL     OW13347   8.698   7.367   7.766 -0.4160  0.6400  0.7962
 2504SOL    HW113348   8.694   7.392   7.858 -2.3292 -1.8382  1.5054
 2504SOL    HW213349   8.626   7.415   7.725  0.7044  2.0873  0.4005
 2505SOL     OW13350   8.042   8.961   9.000  0.5432  0.3670 -0.2186
 2505SOL    HW113351   8.043   8.870   8.971 -0.6828  0.6281 -1.1823
 2505SOL    HW213352   7.951   8.988   8.991  0.8251  1.6028  0.3621
 2506SOL     OW13353   1.762  10.549   5.263 -0.5281  0.4188 -0.4325
 2506SOL    HW113354   1.855  10.568   5.269 -0.7805  1.5264  0.2395
 2506SOL    HW213355   1.758  10.456   5.242  0.7219  0.2306  0.0798
 2507SOL     OW13356   4.885   2.561   3.905  0.1074 -1.1925  0.0307
 2507SOL    HW113357   4.812   2.589   3.960 -0.2655 -1.2442 -0.4295
 2507SOL    HW213358   4.962   2.602   3.944 -0.5600  1.7172 -1.4388
 2508SOL     OW13359   7.359   1.021   0.013 -0.8368 -0.1864  0.4883
 2508SOL    HW113360   7.286   1.022  -0.049 -1.0305 -0.6198  0.7060
 2508SOL    HW213361   7.400   0.936  -0.000 -0.5903 -0.0884  0.6226
 2509SOL     OW13362   0.069   7.422   0.934 -0.7565 -0.4152  0.1474
 2509SOL    HW113363  -0.024   7.431   0.915 -0.6445  1.0385  0.1495
 2509SOL    HW213364   0.113   7.432   0.850 -0.5765 -0.7056  0.2039
 2510SOL     OW13365   3.296   5.948   2.450  0.1879  0.1485 -0.5710
 2510SOL    HW113366   3.340   5.905   2.376  0.0713  0.8694 -1.0674
 2510SOL    HW213367   3.357   5.940   2.523  1.3111  1.4394 -1.3323
 2511SOL     OW13368   9.105  10.650   8.906  0.3794  0.2995  0.3186
 2511SOL    HW113369   9.045  10.603   8.963 -0.1485 -1.4270 -1.5586
 2511SOL    HW213370   9.160  10.582   8.867  2.2113  1.6412  0.4294
 2512SOL     OW13371   4.232   8.774   5.042  0.9380 -0.3189 -0.0064
 2512SOL    HW113372   4.270   8.853   5.080 -0.4621  0.8171 -0.8833
 2512SOL    HW213373   4.308   8.722   5.016  1.8991  1.0247 -0.0193
 2513SOL     OW13374   0.473   8.554   6.604 -0.0957  0.4549 -0.0740
 2513SOL    HW113375   0.385   8.546   6.567 -0.1340 -0.7500  0.2199
 2513SOL    HW213376   0.526   8.588   6.532 -0.1664 -1.8594 -1.3177
 2514SOL     OW13377  10.058   4.619   3.040 -0.7230  1.2324 -0.0576
 2514SOL    HW113378   9.994   4.574   3.095 -0.0062  0.2498 -0.0070
 2514SOL    HW213379  10.013   4.633   2.957 -0.5842 -0.6700 -0.4893
 2515SOL     OW13380   2.384   9.004  10.505 -0.0203  0.1688  0.1155
 2515SOL    HW113381   2.403   8.952  10.427 -0.2901  0.8483 -0.4194
 2515SOL    HW213382   2.329   9.076  10.473  0.2287  0.7027  0.8525
 2516SOL     OW13383   3.802  10.879   0.577 -0.6179 -0.1970  0.2286
 2516SOL    HW113384   3.730  10.929   0.616  0.6979  1.6710  0.4012
 2516SOL    HW213385   3.802  10.904   0.485 -0.2592 -0.2804  0.2030
 2517SOL     OW13386   4.815   7.914   9.290  0.3756  0.5508 -0.0182
 2517SOL    HW113387   4.834   7.911   9.384 -2.4361  1.9974  0.7092
 2517SOL    HW213388   4.800   7.823   9.265  0.3532  0.2283  1.1457
 2518SOL     OW13389   2.734   5.518  10.244  0.4302 -0.1402  0.4853
 2518SOL    HW113390   2.744   5.498  10.337 -1.1493  0.7916  0.8918
 2518SOL    HW213391   2.742   5.613  10.238 -2.0633  0.1220  0.1044
 2519SOL     OW13392   1.681   6.787   3.376 -0.1513  0.4200 -0.0322
 2519SOL    HW113393   1.658   6.762   3.287 -1.6997 -1.6176  0.8646
 2519SOL    HW213394   1.770   6.755   3.388 -0.2194 -0.0056 -0.6093
 2520SOL     OW13395   3.411   1.169   8.284 -0.2023  0.1590 -0.4486
 2520SOL    HW113396   3.433   1.256   8.253  1.5964  0.0979  0.5200
 2520SOL    HW213397   3.413   1.114   8.205  0.9197  0.6040 -0.7514
 2521SOL     OW13398   5.321   0.668   1.418 -0.0592 -0.9142  0.0208
 2521SOL    HW113399   5.289   0.690   1.330  0.4392 -1.1525 -0.2222
 2521SOL    HW213400   5.369   0.745   1.446  1.1234 -1.4135 -0.5627
 2522SOL     OW13401   1.923   0.997   2.002  0.1501 -0.2385 -0.4031
 2522SOL    HW113402   2.017   0.994   2.021 -0.0684 -1.2358  0.7154
 2522SOL    HW213403   1.896   0.905   2.004 -1.1426  0.1317  0.9973
 2523SOL     OW13404  10.759   1.783  10.808 -0.1471 -0.0572 -0.1668
 2523SOL    HW113405  10.758   1.816  10.718  0.0837  1.8523  0.4747
 2523SOL    HW213406  10.821   1.710  10.807  0.4018  0.3998 -1.4223
 2524SOL     OW13407   2.454   6.480   4.867  0.0952 -0.5220  0.2644
 2524SOL    HW113408   2.434   6.573   4.853 -1.9467 -0.8294  0.8861
 2524SOL    HW213409   2.539   6.481   4.911  0.0472  1.0641  0.3991
 2525SOL     OW13410   8.149   7.628   4.620 -0.5059  0.4171 -0.3668
 2525SOL    HW113411   8.083   7.571   4.581  1.3878 -0.7347 -2.1266
 2525SOL    HW213412   8.200   7.569   4.677 -0.5791  1.1249  0.4456
 2526SOL     OW13413   6.737   7.724   5.407  0.3469 -0.1493  0.8650
 2526SOL    HW113414   6.740   7.636   5.371  1.3322 -0.2322  1.1401
 2526SOL    HW213415   6.675   7.718   5.480  0.2233 -0.5459  0.7314
 2527SOL     OW13416   7.033   8.939   7.641  0.5517 -0.0645 -0.2463
 2527SOL    HW113417   7.115   8.890   7.635  0.8066  0.3213  0.0362
 2527SOL    HW213418   7.056   9.019   7.690  0.1883  0.4385 -0.8799
 2528SOL     OW13419   1.361   7.363   7.702 -0.1816 -0.6581 -0.2380
 2528SOL    HW113420   1.309   7.442   7.718 -0.0202 -0.6108  0.0628
 2528SOL    HW213421   1.359   7.352   7.606  0.7982  0.4103 -0.4001
 2529SOL     OW13422   4.165   6.329  10.660  0.3105 -0.0144  0.4866
 2529SOL    HW113423   4.227   6.364  10.724 -0.1286 -1.4441  1.7469
 2529SOL    HW213424   4.158   6.236  10.682 -0.2435 -0.4335 -1.3384
 2530SOL     OW13425   2.223   6.487   2.689  0.1813 -0.0101 -0.0206
 2530SOL    HW113426   2.178   6.533   2.760  0.7986 -0.7954  0.8995
 2530SOL    HW213427   2.242   6.556   2.626 -0.8599  0.6142  0.3082
 2531SOL     OW13428   2.794   5.657   1.291 -0.6797  0.2127 -0.1505
 2531SOL    HW113429   2.829   5.726   1.234  2.2241  0.8747  2.1984
 2531SOL    HW213430   2.847   5.580   1.270 -2.3284 -0.7098 -1.1018
 2532SOL     OW13431   5.129   6.627   2.603  0.2430  0.0531 -0.0624
 2532SOL    HW113432   5.040   6.658   2.618 -0.6835 -1.6637 -1.6094
 2532SOL    HW213433   5.138   6.625   2.508  2.0474  0.4060  0.0627
 2533SOL     OW13434   9.301   3.152   7.488 -0.7778 -0.4956  0.0105
 2533SOL    HW113435   9.259   3.065   7.487 -1.6401 -0.0917 -0.1424
 2533SOL    HW213436   9.348   3.155   7.571 -0.4167 -1.2560 -0.1531
 2534SOL     OW13437   2.467   9.588   2.425 -0.0876  0.2039 -0.3157
 2534SOL    HW113438   2.419   9.622   2.349  1.2246  1.7809 -0.5141
 2534SOL    HW213439   2.539   9.538   2.387 -0.1020 -0.0054 -0.0714
 2535SOL     OW13440   3.444   2.458   5.221 -0.0311 -0.6243 -0.0197
 2535SOL    HW113441   3.500   2.486   5.148  0.3973 -1.5796 -0.0737
 2535SOL    HW213442   3.497   2.394   5.268  0.0402  0.6253  1.6765
 2536SOL     OW13443   6.130   8.789   5.498  0.4963  0.1051  0.3313
 2536SOL    HW113444   6.177   8.710   5.471 -0.1638 -0.6707  1.3738
 2536SOL    HW213445   6.176   8.819   5.576  1.1238  1.1258 -0.4161
 2537SOL     OW13446   2.513   6.445   9.688  0.8825 -0.3619 -0.3568
 2537SOL    HW113447   2.560   6.521   9.655 -1.2984  1.5432  0.6128
 2537SOL    HW213448   2.512   6.383   9.615  0.7489  1.5193 -2.0304
 2538SOL     OW13449   4.902   5.149   2.494 -0.6327  0.5990  0.0721
 2538SOL    HW113450   4.997   5.148   2.483 -0.1836  1.6464  2.9148
 2538SOL    HW213451   4.875   5.059   2.475  1.2447 -0.2403  1.0581
 2539SOL     OW13452   2.111   0.607   5.459 -0.3189  0.2476 -0.1044
 2539SOL    HW113453   2.151   0.644   5.538  0.1345 -1.0386  0.2884
 2539SOL    HW213454   2.094   0.683   5.403 -0.1785  1.1260  1.0127
 2540SOL     OW13455   4.093   5.987   8.660  0.6339 -0.1074 -0.0991
 2540SOL    HW113456   4.171   6.036   8.634  1.0753 -0.8659 -0.2590
 2540SOL    HW213457   4.125   5.898   8.677 -0.3247 -0.6455 -0.9865
 2541SOL     OW13458   6.697   9.432   0.494  0.1482 -0.1247  0.1028
 2541SOL    HW113459   6.618   9.476   0.525 -0.0137 -0.8284  0.7214
 2541SOL    HW213460   6.750   9.502   0.456  0.3493  0.7782  1.9624
 2542SOL     OW13461   2.939   9.497   9.575 -0.1908  0.1560  0.2764
 2542SOL    HW113462   2.966   9.588   9.573  0.3479  0.0445  1.6100
 2542SOL    HW213463   2.873   9.492   9.644 -0.9385 -0.2827 -0.4541
 2543SOL     OW13464   8.971   7.150   0.861  0.0772  0.1275  0.0963
 2543SOL    HW113465   8.920   7.070   0.859 -1.4263  1.0612 -0.9597
 2543SOL    HW213466   8.911   7.218   0.831  1.5795  1.5012  0.0353
 2544SOL     OW13467   4.790   6.744   8.664 -0.5132 -0.3327 -0.1862
 2544SOL    HW113468   4.699   6.746   8.694 -0.4019  0.6888  0.0900
 2544SOL    HW213469   4.816   6.836   8.658 -0.3750 -0.4706 -2.9095
 2545SOL     OW13470   4.107   2.730   7.030 -0.0299 -0.5856 -0.4542
 2545SOL    HW113471   4.133   2.822   7.030  1.1118 -0.8787 -2.1033
 2545SOL    HW213472   4.161   2.689   7.098  0.2373 -0.2467 -0.4633
 2546SOL     OW13473   8.414   9.248  10.187 -0.2138 -0.2388  0.0557
 2546SOL    HW113474   8.356   9.319  10.160  1.3383  0.6928 -0.9789
 2546SOL    HW213475   8.475   9.289  10.249 -0.7458 -1.2501  1.2930
 2547SOL     OW13476   0.694  10.414   8.831  0.2753 -0.3318 -0.7854
 2547SOL    HW113477   0.785  10.439   8.846 -0.0633 -0.2001  1.2675
 2547SOL    HW213478   0.644  10.489   8.863 -0.6030 -1.2542  0.0293
 2548SOL     OW13479   8.180   0.340   7.033  0.3229  0.0979 -0.5320
 2548SOL    HW113480   8.242   0.378   7.096  0.0145 -0.0413 -0.1396
 2548SOL    HW213481   8.205   0.247   7.028  0.5454  0.1732 -0.8549
 2549SOL     OW13482   2.135   9.249   6.135 -0.1570 -0.1593  0.8539
 2549SOL    HW113483   2.075   9.295   6.193 -2.4768 -0.5822 -1.0524
 2549SOL    HW213484   2.119   9.156   6.153  0.3191 -0.2740  0.6961
 2550SOL     OW13485   8.446   7.075   2.618 -0.2558  0.0874 -0.2853
 2550SOL    HW113486   8.489   7.142   2.565  0.4225  0.7017  1.0194
 2550SOL    HW213487   8.441   6.999   2.559  0.4754  0.7432 -1.2298
 2551SOL     OW13488   6.910   2.437   4.608  0.5149 -0.0741  0.3539
 2551SOL    HW113489   6.931   2.449   4.700  1.3965  0.7813  0.0547
 2551SOL    HW213490   6.990   2.459   4.561 -0.3539  1.0338 -0.6974
 2552SOL     OW13491   6.186   3.424   8.791  0.0685  0.0511  0.0009
 2552SOL    HW113492   6.125   3.354   8.767  1.3728 -0.8589 -0.7282
 2552SOL    HW213493   6.149   3.460   8.872 -1.0931 -0.8899 -0.0724
 2553SOL     OW13494   6.113   0.350   9.108  0.2707 -0.1764  0.3172
 2553SOL    HW113495   6.029   0.366   9.064 -0.5615 -2.4838  0.9175
 2553SOL    HW213496   6.097   0.274   9.163  2.7219 -0.5074  0.6887
 2554SOL     OW13497   2.871   9.009   6.690 -0.3867  0.1824  0.6412
 2554SOL    HW113498   2.956   9.054   6.694 -0.5177  0.4945  0.0331
 2554SOL    HW213499   2.881   8.934   6.749  1.4499 -1.6504 -1.7238
 2555SOL     OW13500   9.017   9.700   4.144  0.0281  0.3530  0.0369
 2555SOL    HW113501   9.065   9.713   4.062  1.4772 -1.0904  0.6001
 2555SOL    HW213502   9.084   9.708   4.212 -0.5001 -1.6397  0.8542
 2556SOL     OW13503   4.875   4.983   8.755 -0.0294 -0.5746  0.4677
 2556SOL    HW113504   4.960   5.015   8.787 -0.0526 -1.2560  1.2397
 2556SOL    HW213505   4.894   4.897   8.718  0.0464  0.3040 -1.6784
 2557SOL     OW13506   4.162   6.973  10.803 -0.6547  0.3662 -0.1743
 2557SOL    HW113507   4.161   7.030  10.726 -0.5294  0.3976 -0.1528
 2557SOL    HW213508   4.235   7.006  10.856 -0.0282 -0.3598 -0.5673
 2558SOL     OW13509   4.538   4.432   2.320 -0.1513  0.2192 -0.7173
 2558SOL    HW113510   4.537   4.442   2.224 -0.9847 -0.5872 -0.7977
 2558SOL    HW213511   4.472   4.365   2.338 -1.1344  1.4734  0.5510
 2559SOL     OW13512  10.422   2.692   2.630 -0.4032  0.2974 -0.5174
 2559SOL    HW113513  10.346   2.741   2.661 -0.4404  0.1070 -0.2988
 2559SOL    HW213514  10.490   2.758   2.617 -0.3765  0.3806  0.0108
 2560SOL     OW13515   3.109  10.069   5.107 -0.4705 -0.1863  0.2484
 2560SOL    HW113516   3.180  10.099   5.164 -1.0767  0.2629  0.7921
 2560SOL    HW213517   3.109  10.131   5.034 -0.8997  0.4070  0.7315
 2561SOL     OW13518   3.010   1.462   8.163  0.2152  0.0408  0.3172
 2561SOL    HW113519   3.082   1.412   8.125 -0.5291 -2.6900  2.2353
 2561SOL    HW213520   2.931   1.418   8.131 -0.6975  2.4013 -0.9784
 2562SOL     OW13521   4.846   6.148   8.020 -0.5305  0.5493 -0.0239
 2562SOL    HW113522   4.877   6.060   8.000 -0.4147  0.3112  1.1014
 2562SOL    HW213523   4.885   6.168   8.106 -2.4255  0.7497  0.8539
 2563SOL     OW13524   4.546   4.711   5.385  0.1026 -0.2124 -0.0568
 2563SOL    HW113525   4.551   4.631   5.333  1.5380 -0.9385  1.1136
 2563SOL    HW213526   4.613   4.700   5.452 -1.7841  0.5751  2.0916
 2564SOL     OW13527   0.834   7.052   7.612  0.2665  0.4490 -0.2397
 2564SOL    HW113528   0.747   7.091   7.615 -0.0541  0.0602 -2.5390
 2564SOL    HW213529   0.818   6.959   7.601  0.7976  0.6612 -4.1007
 2565SOL     OW13530   6.202   8.798   9.683  0.2273 -0.1920  0.5253
 2565SOL    HW113531   6.181   8.722   9.739  0.1185  0.5571  1.5353
 2565SOL    HW213532   6.283   8.774   9.639 -0.6652 -1.5625 -0.4377
 2566SOL     OW13533   1.237   3.714   7.835 -0.4506  0.7324  0.3028
 2566SOL    HW113534   1.166   3.777   7.823  0.3050  1.1245 -3.1841
 2566SOL    HW213535   1.317   3.767   7.827  0.2311 -0.1453  1.1136
 2567SOL     OW13536   2.343  10.391   4.540  0.0708  0.2623  0.0159
 2567SOL    HW113537   2.361  10.478   4.576 -1.9486  1.9288 -2.6386
 2567SOL    HW213538   2.428  10.361   4.508  0.5616  1.9925 -0.4432
 2568SOL     OW13539   7.365   1.021   9.201 -0.0969 -0.0369  0.7730
 2568SOL    HW113540   7.280   1.043   9.239 -1.2901  1.2841 -2.2770
 2568SOL    HW213541   7.396   1.103   9.163  0.5369 -1.3072 -1.6958
 2569SOL     OW13542   4.445   8.609   5.039  0.5592 -0.1486 -0.0519
 2569SOL    HW113543   4.478   8.669   5.105  0.2964 -0.8935  0.7735
 2569SOL    HW213544   4.487   8.525   5.059 -2.0320 -1.2340  1.2603
 2570SOL     OW13545   8.383  10.289  10.471 -0.3199  0.4216 -0.2336
 2570SOL    HW113546   8.415  10.339  10.396  0.1641  0.1230 -0.2330
 2570SOL    HW213547   8.461  10.270  10.522 -0.7721  1.6007  0.9649
 2571SOL     OW13548  10.585   5.409   8.349 -0.3481 -0.0638 -0.9336
 2571SOL    HW113549  10.664   5.454   8.319 -1.4041  2.2247 -0.4780
 2571SOL    HW213550  10.602   5.390   8.441  0.1921 -0.8731 -1.1851
 2572SOL     OW13551   6.634   4.584   8.576 -0.0722  0.0960 -0.1481
 2572SOL    HW113552   6.650   4.491   8.561  0.3542  0.1256  0.0906
 2572SOL    HW213553   6.689   4.605   8.652  1.2630  0.9382 -1.2873
 2573SOL     OW13554   4.345   5.255  10.135 -0.1051  0.2507  0.3266
 2573SOL    HW113555   4.362   5.333  10.081 -1.4826 -0.2844 -0.9201
 2573SOL    HW213556   4.317   5.291  10.219 -1.2617  1.1516 -0.4013
 2574SOL     OW13557   2.460   9.313   8.924  0.0015 -0.3454 -0.1947
 2574SOL    HW113558   2.540   9.336   8.971  1.3555 -2.7178 -1.1340
 2574SOL    HW213559   2.429   9.395   8.886  0.1321  1.2482  2.7788
 2575SOL     OW13560   1.611   2.972   4.871 -0.0808 -0.0016 -0.3143
 2575SOL    HW113561   1.638   3.063   4.858 -1.0743  0.2571 -0.6875
 2575SOL    HW213562   1.522   2.978   4.907  0.0303 -0.8222  0.1225
 2576SOL     OW13563   5.642   8.370   9.091 -0.2600 -0.6871 -0.3834
 2576SOL    HW113564   5.681   8.299   9.142 -0.8946 -0.3221  0.6464
 2576SOL    HW213565   5.626   8.440   9.155  2.0797  1.1574 -1.6833
 2577SOL     OW13566   0.134   0.780   0.428 -0.6217 -1.1511 -0.1028
 2577SOL    HW113567   0.118   0.778   0.333 -0.6713 -1.0571 -0.0965
 2577SOL    HW213568   0.063   0.832   0.463  0.7614  0.9855 -0.2914
 2578SOL     OW13569   1.785   3.456  10.837 -0.2166  0.0795 -0.3391
 2578SOL    HW113570   1.725   3.518  10.879 -0.8818 -0.3839 -0.5945
 2578SOL    HW213571   1.866   3.505  10.827  0.2256 -0.0125  2.1689
 2579SOL     OW13572   9.762   2.679   6.918 -0.2076  0.2900 -0.7916
 2579SOL    HW113573   9.780   2.664   6.825 -0.3040  0.4100 -0.8302
 2579SOL    HW213574   9.740   2.772   6.924  2.5151  0.9680 -0.2067
 2580SOL     OW13575   4.656   8.330   4.769  0.6995  0.0351 -0.4586
 2580SOL    HW113576   4.656   8.239   4.740  0.2859 -0.0225 -0.2783
 2580SOL    HW213577   4.749   8.354   4.771  0.8509 -0.5473  0.0216
 2581SOL     OW13578   8.119   0.188   4.935  0.0025 -0.7752 -0.1445
 2581SOL    HW113579   8.151   0.120   4.995 -0.2700 -0.2764  0.5773
 2581SOL    HW213580   8.025   0.194   4.954 -0.7053 -2.5515 -2.5528
 2582SOL     OW13581   9.891   9.212   7.703  0.9257  0.0284 -0.0941
 2582SOL    HW113582   9.876   9.272   7.630 -0.2374 -1.6253 -1.2772
 2582SOL    HW213583   9.849   9.254   7.778 -0.1818  0.5450 -0.9720
 2583SOL     OW13584   2.241   6.641   3.333 -0.0010  0.0588  0.1518
 2583SOL    HW113585   2.261   6.601   3.418 -0.4896 -0.8843 -0.1706
 2583SOL    HW213586   2.212   6.569   3.278  3.3857  0.0278 -1.8693
 2584SOL     OW13587   1.716   0.183   5.464 -0.8746 -0.4966 -0.1238
 2584SOL    HW113588   1.719   0.130   5.543 -0.4224 -0.1699  0.0834
 2584SOL    HW213589   1.672   0.128   5.399  0.7019 -1.6236 -0.2967
 2585SOL     OW13590   7.638   3.665   6.000 -0.0008 -0.2788  0.1799
 2585SOL    HW113591   7.565   3.615   6.035 -1.3334  1.2930 -0.2640
 2585SOL    HW213592   7.633   3.651   5.905  0.8759 -0.9164  0.2108
 2586SOL     OW13593   1.644   1.914   2.577 -0.1584  0.7448 -0.5108
 2586SOL    HW113594   1.562   1.897   2.532  0.5426 -1.7593 -1.0242
 2586SOL    HW213595   1.694   1.969   2.517 -1.1333  1.6006 -0.5516
 2587SOL     OW13596   5.107   8.808   3.675  0.6666  0.2508 -0.3485
 2587SOL    HW113597   5.059   8.744   3.728  0.3456  2.2072  1.8817
 2587SOL    HW213598   5.194   8.768   3.663 -0.3792 -1.8513 -1.5979
 2588SOL     OW13599   1.292   1.186   3.297 -0.7038  0.1814 -0.0181
 2588SOL    HW113600   1.264   1.274   3.270 -1.4660  0.5655  1.8579
 2588SOL    HW213601   1.355   1.201   3.367 -0.1555 -0.7692 -0.2940
 2589SOL     OW13602   6.329   6.858   0.536 -0.7635  0.3871  0.4370
 2589SOL    HW113603   6.394   6.856   0.606  2.1981  1.1638 -2.0380
 2589SOL    HW213604   6.342   6.776   0.489 -3.6744 -0.7766  1.4605
 2590SOL     OW13605   8.162   7.427   7.712  0.6894  0.1514  0.2816
 2590SOL    HW113606   8.097   7.441   7.644  1.8918 -0.6393 -1.0878
 2590SOL    HW213607   8.114   7.387   7.784 -0.5665  0.8021 -0.1684
 2591SOL     OW13608   2.578   6.585   2.502 -0.1982  0.3316  0.3455
 2591SOL    HW113609   2.651   6.541   2.546 -1.1761 -2.6231 -0.7117
 2591SOL    HW213610   2.503   6.568   2.558 -0.9826 -1.2631 -1.1090
 2592SOL     OW13611   4.507   7.861  10.638 -0.0719  0.4842 -0.0956
 2592SOL    HW113612   4.518   7.808  10.717  0.0192  2.1493  1.0460
 2592SOL    HW213613   4.522   7.799  10.566 -0.2027 -1.0805  1.1637
 2593SOL     OW13614   7.771   4.355   8.524 -1.1554  0.4817  0.2666
 2593SOL    HW113615   7.792   4.288   8.459 -1.4073 -2.1708  2.7190
 2593SOL    HW213616   7.855   4.393   8.547 -0.6561 -0.7415  0.5454
 2594SOL     OW13617   6.976   5.650  10.496  0.4940  0.2405 -0.3776
 2594SOL    HW113618   6.910   5.648  10.426  0.1477  1.5186 -0.1157
 2594SOL    HW213619   6.926   5.648  10.577  0.7588  1.3408 -0.1744
 2595SOL     OW13620   8.137   1.219   3.930 -0.1515 -0.3717 -0.1466
 2595SOL    HW113621   8.196   1.227   4.005  0.3465  1.4252 -0.6919
 2595SOL    HW213622   8.178   1.271   3.861 -1.0624 -1.2532 -1.3853
 2596SOL     OW13623  10.654   1.615   8.478 -0.1363  0.2883  0.2305
 2596SOL    HW113624  10.618   1.584   8.561  0.6717  0.0241  0.4935
 2596SOL    HW213625  10.655   1.710   8.486 -2.4441  0.4321 -0.5003
 2597SOL     OW13626   7.985   7.278   1.021  0.2577  0.2983  0.0833
 2597SOL    HW113627   8.063   7.329   1.046  1.5252 -0.7994 -1.4178
 2597SOL    HW213628   7.990   7.198   1.073  0.7954 -0.2792 -0.8227
 2598SOL     OW13629   8.550   4.182  10.147  0.1071  0.2846  0.0603
 2598SOL    HW113630   8.470   4.182  10.200 -0.2110  1.1944 -0.3939
 2598SOL    HW213631   8.594   4.264  10.172  1.6963 -0.9337  1.4706
 2599SOL     OW13632   9.031   4.408   5.504 -0.5042  0.2549  0.2928
 2599SOL    HW113633   9.007   4.458   5.427  2.4125 -1.4533 -1.9322
 2599SOL    HW213634   8.984   4.325   5.494  0.1567 -0.1052  0.1719
 2600SOL     OW13635   8.343   7.260   6.806  0.1674 -0.5970 -0.1023
 2600SOL    HW113636   8.310   7.316   6.736  1.8805 -1.0706 -1.3475
 2600SOL    HW213637   8.438   7.259   6.793  0.3416 -2.2205  1.0713
 2601SOL     OW13638   3.821   7.687   1.544 -0.0307  0.5234 -0.1908
 2601SOL    HW113639   3.877   7.760   1.572  1.5124 -0.1887 -1.2907
 2601SOL    HW213640   3.880   7.627   1.498 -1.8275  0.1438 -2.1929
 2602SOL     OW13641   1.768   0.145   9.954 -0.4326  0.0758  0.0055
 2602SOL    HW113642   1.709   0.221   9.952  0.2005  0.5568 -0.5994
 2602SOL    HW213643   1.845   0.172   9.904  0.0955 -0.7270  0.3604
 2603SOL     OW13644   1.086   3.056   4.747  0.1015 -0.3776 -0.4400
 2603SOL    HW113645   1.036   3.035   4.826  0.1454  0.5279 -0.1588
 2603SOL    HW213646   1.054   3.142   4.721  1.2681  0.0615 -0.4601
 2604SOL     OW13647   7.905   9.969   5.760  0.1033 -0.4712  0.2845
 2604SOL    HW113648   7.859   9.917   5.694  0.4590 -0.3959 -0.0340
 2604SOL    HW213649   7.997   9.966   5.732  0.0989  0.5396  0.1050
 2605SOL     OW13650   5.080   0.735  10.138  0.2059 -0.5001  0.2237
 2605SOL    HW113651   5.104   0.697  10.222  0.6520 -1.3060 -0.2559
 2605SOL    HW213652   5.158   0.782  10.109 -0.6609  1.6927  1.2798
 2606SOL     OW13653   9.923   6.173   8.032 -0.1081  0.0970 -0.6351
 2606SOL    HW113654   9.972   6.120   8.096  1.0615  1.0577 -0.7062
 2606SOL    HW213655   9.984   6.186   7.960 -0.7292  0.6926 -1.0624
 2607SOL     OW13656   3.285   0.010   8.102  0.0339 -0.1571  0.3728
 2607SOL    HW113657   3.345  -0.026   8.037 -0.2787 -3.5308  1.7483
 2607SOL    HW213658   3.200   0.010   8.059 -0.0434 -1.6630  0.4760
 2608SOL     OW13659   4.002   5.876   2.387  0.1811 -0.7562  0.1401
 2608SOL    HW113660   3.943   5.855   2.314 -0.5272 -0.3065  0.5620
 2608SOL    HW213661   3.966   5.957   2.424  0.9607 -0.5797  0.5299
 2609SOL     OW13662   1.832   2.353   7.292 -0.0002  0.1632  0.4491
 2609SOL    HW113663   1.768   2.312   7.234  0.7604  0.1261 -0.3819
 2609SOL    HW213664   1.874   2.420   7.238 -0.0904  0.9284  1.3096
 2610SOL     OW13665  10.310   3.771   2.765 -0.3416 -0.0616 -0.4121
 2610SOL    HW113666  10.220   3.740   2.754 -0.6560  0.7145 -0.1358
 2610SOL    HW213667  10.300   3.855   2.810  0.3439  1.2042 -2.4582
 2611SOL     OW13668   6.732   2.520   8.485 -0.3293  0.0129 -0.0138
 2611SOL    HW113669   6.703   2.569   8.562 -0.1411  1.8328 -1.0366
 2611SOL    HW213670   6.699   2.570   8.411 -1.2877 -2.1650 -1.1630
 2612SOL     OW13671   5.781   1.116   9.159 -0.0990  0.4575  0.8252
 2612SOL    HW113672   5.757   1.208   9.150  2.1529  0.9175 -1.6168
 2612SOL    HW213673   5.719   1.070   9.102 -0.9012  0.4598  1.6589
 2613SOL     OW13674   9.531  10.258  10.677  0.2613 -0.4030  0.1793
 2613SOL    HW113675   9.548  10.168  10.702 -0.1116  0.1863  2.8383
 2613SOL    HW213676   9.435  10.264  10.672  0.1584  0.2682  2.0720
 2614SOL     OW13677   3.977   9.995   5.299  0.5400 -0.3992  0.2312
 2614SOL    HW113678   3.951   9.929   5.234  0.2104 -1.5790  1.5161
 2614SOL    HW213679   4.045   9.951   5.350  2.5529  1.3598 -0.7864
 2615SOL     OW13680   9.347   9.463   3.712  0.4110 -0.4117 -0.2978
 2615SOL    HW113681   9.269   9.419   3.678 -0.4421 -1.1507  2.3513
 2615SOL    HW213682   9.417   9.440   3.651 -1.3332  0.0307 -2.6080
 2616SOL     OW13683   5.337   5.538  10.795 -0.2885 -0.2905  0.5539
 2616SOL    HW113684   5.309   5.579  10.713  0.1561 -0.4138  0.3380
 2616SOL    HW213685   5.256   5.510  10.837 -0.5368  0.0042  0.2793
 2617SOL     OW13686   0.576   0.420   4.331  0.1406 -0.0806 -0.4880
 2617SOL    HW113687   0.554   0.377   4.248  0.9463 -1.3184 -0.0995
 2617SOL    HW213688   0.664   0.454   4.317 -0.1610  0.7033 -0.5049
 2618SOL     OW13689   8.459   5.079   5.783  0.3320  0.0722 -0.0575
 2618SOL    HW113690   8.389   5.044   5.728  0.4358 -0.3577  0.0790
 2618SOL    HW213691   8.492   5.154   5.734  0.4883 -0.3650 -0.6378
 2619SOL     OW13692   3.337   8.369   7.075  0.6985 -0.9150 -0.1045
 2619SOL    HW113693   3.363   8.284   7.111 -0.9510 -1.5319 -0.2872
 2619SOL    HW213694   3.242   8.369   7.081  0.6634  0.9076 -0.1810
 2620SOL     OW13695   3.616   1.540   9.932  0.1379 -0.5400  0.9881
 2620SOL    HW113696   3.675   1.535  10.007  0.6003 -1.4994  0.5829
 2620SOL    HW213697   3.619   1.452   9.893  0.9640  0.2944 -0.9637
 2621SOL     OW13698   5.453   9.674   5.099 -0.0114 -0.2210 -0.0511
 2621SOL    HW113699   5.421   9.683   5.189  0.9261  0.0883  0.2570
 2621SOL    HW213700   5.373   9.664   5.046 -0.5856 -0.0035  0.7609
 2622SOL     OW13701   8.516   6.382   1.641  0.0418 -0.5635  0.0190
 2622SOL    HW113702   8.561   6.466   1.631  1.4446 -0.7340  3.4959
 2622SOL    HW213703   8.502   6.351   1.551  1.2372  2.4334 -1.3236
 2623SOL     OW13704   4.553   3.156  10.289 -0.0663  0.2448 -0.0974
 2623SOL    HW113705   4.481   3.097  10.309  0.3938 -1.5048 -3.0452
 2623SOL    HW213706   4.520   3.214  10.221  1.1266 -0.2651 -1.1493
 2624SOL     OW13707   6.205   6.732   1.901  0.0453  0.0853 -0.0946
 2624SOL    HW113708   6.293   6.764   1.881  0.3046 -0.2803  0.4547
 2624SOL    HW213709   6.161   6.729   1.816  0.2105  1.2999 -0.2414
 2625SOL     OW13710   5.120   0.230   3.697 -0.0069  0.1725 -0.3237
 2625SOL    HW113711   5.214   0.236   3.682  0.0637  1.8291  0.5437
 2625SOL    HW213712   5.095   0.316   3.730 -1.5500 -0.7431  1.0615
 2626SOL     OW13713   6.285   9.434   8.816  0.0745 -0.4048 -0.4822
 2626SOL    HW113714   6.337   9.402   8.742  1.2354 -1.7387  0.8337
 2626SOL    HW213715   6.324   9.391   8.893 -0.7653  1.2884  0.9741
 2627SOL     OW13716   8.254   6.003   4.120 -0.3079  0.0200  0.3554
 2627SOL    HW113717   8.233   5.950   4.043  1.1818  0.1427 -0.1662
 2627SOL    HW213718   8.342   6.037   4.103 -1.5789  3.6278  0.1113
 2628SOL     OW13719   7.056   6.665   4.594  0.3474  0.3190  0.3581
 2628SOL    HW113720   7.106   6.676   4.675  0.1211  0.3743  0.4915
 2628SOL    HW213721   6.987   6.603   4.617 -1.0541  1.9516  0.8265
 2629SOL     OW13722   3.684   7.660   9.396  0.3219 -0.2412 -1.2791
 2629SOL    HW113723   3.692   7.627   9.486  0.9115 -0.6420 -1.4709
 2629SOL    HW213724   3.596   7.635   9.369 -0.9713  2.4444  0.1789
 2630SOL     OW13725   7.910  10.669   5.336  0.2142  0.0820 -0.1774
 2630SOL    HW113726   7.871  10.754   5.315 -2.1484 -1.1070 -1.0047
 2630SOL    HW213727   7.910  10.621   5.253  0.2465 -1.1836  0.5316
 2631SOL     OW13728   2.447   1.528   0.563 -0.1028 -0.0594  0.2931
 2631SOL    HW113729   2.369   1.525   0.508  0.3530  1.5427 -0.5164
 2631SOL    HW213730   2.428   1.597   0.628  0.3249 -0.2113  0.5883
 2632SOL     OW13731   5.249   1.084   1.222  0.3547  0.4894 -0.4846
 2632SOL    HW113732   5.294   1.130   1.292 -2.1129 -1.2127  2.4819
 2632SOL    HW213733   5.184   1.146   1.189 -0.3506  0.4529  0.7745
 2633SOL     OW13734   0.806   9.621   6.865  0.3649 -0.1246  0.4396
 2633SOL    HW113735   0.735   9.679   6.893 -0.4599 -1.8227  2.0423
 2633SOL    HW213736   0.874   9.631   6.932  0.0634 -1.2293  0.9385
 2634SOL     OW13737   6.603  10.777   3.671  0.2210  0.6040  0.5533
 2634SOL    HW113738   6.540  10.772   3.599 -0.5468 -2.1022  1.3235
 2634SOL    HW213739   6.670  10.713   3.649 -0.4022 -0.8008  2.5354
 2635SOL     OW13740   4.487   0.290   4.712  0.2424  0.1835 -0.8420
 2635SOL    HW113741   4.551   0.304   4.781  0.5687  0.5093 -1.2056
 2635SOL    HW213742   4.511   0.206   4.673 -1.3799 -1.2222  0.9776
 2636SOL     OW13743   1.051   7.176   2.181  0.4125  0.5289  0.3600
 2636SOL    HW113744   1.095   7.108   2.232  1.6914  0.9134 -0.1751
 2636SOL    HW213745   0.972   7.197   2.231 -0.7080 -2.1977 -0.0793
 2637SOL     OW13746   7.675   6.290   4.700 -0.0804  0.1308 -0.3186
 2637SOL    HW113747   7.675   6.231   4.624 -0.5844 -2.7098  1.7404
 2637SOL    HW213748   7.764   6.287   4.734 -0.5174 -0.8552  0.7877
 2638SOL     OW13749   3.546  10.922   0.135 -0.9523  0.1361 -0.1033
 2638SOL    HW113750   3.635  10.917   0.171 -0.0448 -1.2343 -2.3353
 2638SOL    HW213751   3.559  10.944   0.043 -3.0443  1.1934 -0.2038
 2639SOL     OW13752   6.451   9.860   9.357  0.1613 -0.9497  0.2870
 2639SOL    HW113753   6.423   9.822   9.441  0.5905 -1.3371  0.2604
 2639SOL    HW213754   6.537   9.821   9.341  0.0449 -0.9423 -0.3782
 2640SOL     OW13755   8.391   2.949   1.726  0.0191  0.0685 -0.1902
 2640SOL    HW113756   8.430   2.951   1.639  2.8727 -5.0357  0.5916
 2640SOL    HW213757   8.436   3.019   1.773 -0.6988  2.1354 -2.3894
 2641SOL     OW13758  10.705   6.281   3.925 -0.0278 -0.3639 -0.2630
 2641SOL    HW113759  10.731   6.285   4.017 -1.7551 -1.6141  0.3264
 2641SOL    HW213760  10.683   6.189   3.910 -0.1706 -0.1011 -1.8194
 2642SOL     OW13761   3.506   1.619   4.824  0.4039 -0.2620 -0.1502
 2642SOL    HW113762   3.447   1.546   4.804 -0.4276 -0.1638  1.7692
 2642SOL    HW213763   3.540   1.599   4.912  2.1089  0.4277 -0.6103
 2643SOL     OW13764   1.633   0.917  10.605  0.1201 -0.1203 -0.1322
 2643SOL    HW113765   1.546   0.947  10.633  0.4062  1.6168 -0.9705
 2643SOL    HW213766   1.621   0.892  10.513  0.5928  0.6235 -0.4065
 2644SOL     OW13767   7.389   0.958   5.307  0.4632  0.1241  0.1956
 2644SOL    HW113768   7.316   0.907   5.341  0.8750 -0.1603  0.6695
 2644SOL    HW213769   7.348   1.039   5.274 -0.0501  0.0163  0.5518
 2645SOL     OW13770   1.347   7.150   4.784  0.0667 -0.2455  0.1157
 2645SOL    HW113771   1.439   7.177   4.792 -0.6034  2.2466  0.1906
 2645SOL    HW213772   1.334   7.088   4.855  2.0502 -1.8235 -0.8050
 2646SOL     OW13773   6.602   3.213   3.121  0.7162 -0.0749  0.6031
 2646SOL    HW113774   6.573   3.189   3.209  0.9582  1.3914  1.1057
 2646SOL    HW213775   6.662   3.142   3.097 -0.9543 -1.6049  0.7267
 2647SOL     OW13776   0.288   3.425   2.916  0.3073 -0.3087  0.0359
 2647SOL    HW113777   0.342   3.447   2.840  2.1362 -2.2944  0.6819
 2647SOL    HW213778   0.331   3.467   2.990  0.6369 -1.3747  0.4654
 2648SOL     OW13779   2.958   7.868   3.107 -0.3909 -0.3939  0.8376
 2648SOL    HW113780   3.021   7.798   3.118 -0.4535 -0.3826  1.3019
 2648SOL    HW213781   2.999   7.944   3.148  1.5161  1.0035 -3.1866
 2649SOL     OW13782   2.529   9.090   0.509 -0.0320  0.1147  0.3126
 2649SOL    HW113783   2.514   9.006   0.465 -0.0553  0.9869 -1.4210
 2649SOL    HW213784   2.456   9.145   0.482  1.0259  1.3195 -0.1930
 2650SOL     OW13785   8.643   1.517   9.198 -0.1635 -0.1849  0.2520
 2650SOL    HW113786   8.634   1.587   9.133 -0.4087 -0.8456 -0.4349
 2650SOL    HW213787   8.706   1.457   9.160 -0.0962 -0.4421  0.7582
 2651SOL     OW13788   1.719   0.340   8.056  0.2769  0.3315 -0.2863
 2651SOL    HW113789   1.664   0.412   8.086 -2.3689 -0.5452 -2.6122
 2651SOL    HW213790   1.774   0.379   7.988  0.2104  0.5630 -0.2082
 2652SOL     OW13791   4.711   1.243   5.564 -0.5532  0.1423  0.1565
 2652SOL    HW113792   4.739   1.331   5.539  0.4818  0.0277  0.8629
 2652SOL    HW213793   4.715   1.243   5.660  0.0059 -0.8468  0.1401
 2653SOL     OW13794   1.638   8.448   4.408 -0.0656  0.1230  0.7296
 2653SOL    HW113795   1.616   8.536   4.378  0.4090 -0.0322 -0.1376
 2653SOL    HW213796   1.677   8.406   4.331 -2.1258 -1.5363  0.5050
 2654SOL     OW13797   9.195   5.271   5.394  0.7447  0.6753 -0.1485
 2654SOL    HW113798   9.171   5.341   5.455 -1.2920 -0.8374  0.9298
 2654SOL    HW213799   9.142   5.288   5.316 -1.0826 -0.4993  0.7551
 2655SOL     OW13800   5.621   4.231   6.752  0.5849 -0.1674  0.2036
 2655SOL    HW113801   5.711   4.212   6.725  0.6919  0.7191 -0.0875
 2655SOL    HW213802   5.629   4.301   6.817  0.0966  0.1217 -0.0342
 2656SOL     OW13803   1.780   9.434   2.596  0.2525  0.1476 -0.3425
 2656SOL    HW113804   1.799   9.521   2.561  1.6770  0.7955  1.8534
 2656SOL    HW213805   1.858   9.382   2.576  0.1292 -0.1180 -0.1466
 2657SOL     OW13806  10.728   6.479  10.199 -0.0623  0.5304  0.1501
 2657SOL    HW113807  10.735   6.475  10.104  0.1063  0.5372  0.1619
 2657SOL    HW213808  10.815   6.505  10.229 -0.6052  2.4851  0.1801
 2658SOL     OW13809   3.896   1.611  10.290  0.9792  0.2433  0.4638
 2658SOL    HW113810   3.952   1.563  10.351 -0.6659 -0.9336  1.1310
 2658SOL    HW213811   3.895   1.556  10.211 -0.2502 -0.4565  0.9350
 2659SOL     OW13812  10.030   4.435   6.471  0.0528  0.2878 -0.0063
 2659SOL    HW113813   9.999   4.465   6.557  0.7027  1.7209 -0.2654
 2659SOL    HW213814  10.122   4.460   6.468 -0.2645  1.3767 -1.6075
 2660SOL     OW13815   8.237   3.311   1.644  0.2094 -0.3251 -0.5142
 2660SOL    HW113816   8.275   3.346   1.725  0.2966 -0.1925 -0.6125
 2660SOL    HW213817   8.187   3.235   1.672 -0.7779  0.4349 -0.1751
 2661SOL     OW13818   7.276   6.377   9.625 -0.2006 -0.0494  0.3351
 2661SOL    HW113819   7.199   6.403   9.675  1.3157 -0.1414  2.8734
 2661SOL    HW213820   7.310   6.459   9.589 -1.4999 -0.0258 -0.9160
 2662SOL     OW13821   6.799   4.110   1.959 -0.1970 -0.4582  0.3397
 2662SOL    HW113822   6.854   4.035   1.936  3.1592  1.7809  0.2142
 2662SOL    HW213823   6.851   4.158   2.023 -0.9744  2.9849 -1.3841
 2663SOL     OW13824   6.818   3.998   7.608  0.4217  0.5723  0.0992
 2663SOL    HW113825   6.759   3.980   7.535  0.2624 -0.2493  0.4199
 2663SOL    HW213826   6.796   4.088   7.634 -0.0386  0.6086 -0.3749
 2664SOL     OW13827   6.029  10.884   5.948 -0.6681  0.0577  0.3702
 2664SOL    HW113828   5.975  10.831   5.890 -0.7395  1.6915 -1.1430
 2664SOL    HW213829   6.060  10.956   5.893 -1.7939  2.4448  2.6398
 2665SOL     OW13830   6.576   7.529   7.914 -0.1303 -0.6788  0.2219
 2665SOL    HW113831   6.540   7.609   7.876 -0.1698 -0.2912  1.0566
 2665SOL    HW213832   6.551   7.532   8.007  0.1646 -1.4856  0.3409
 2666SOL     OW13833   4.304   2.363   5.149 -0.5720 -0.0716 -0.1045
 2666SOL    HW113834   4.361   2.293   5.180 -0.8600  0.5584  1.9664
 2666SOL    HW213835   4.230   2.363   5.209 -1.6097  0.6799 -1.3216
 2667SOL     OW13836   5.989  10.386   7.690  0.0787 -0.0677 -0.3337
 2667SOL    HW113837   6.041  10.308   7.705 -0.5228  0.0765  3.4564
 2667SOL    HW213838   5.899  10.354   7.678  0.0136 -0.0000 -0.0203
 2668SOL     OW13839   9.429   4.869  10.858  0.0952  0.1129  0.0243
 2668SOL    HW113840   9.367   4.882  10.931 -0.2652  0.8520 -0.4054
 2668SOL    HW213841   9.454   4.777  10.865 -1.0253 -0.1970  0.2449
 2669SOL     OW13842   2.067   0.885   2.259  0.0551 -0.7780 -0.3951
 2669SOL    HW113843   2.126   0.836   2.316  0.2080  1.3457  1.3870
 2669SOL    HW213844   2.115   0.894   2.177  1.6084 -0.4047  0.5123
 2670SOL     OW13845   5.961   1.062   2.232 -0.5403  0.1105 -0.4576
 2670SOL    HW113846   5.954   1.136   2.293 -1.3236 -1.0192  0.8896
 2670SOL    HW213847   6.049   1.028   2.246 -0.4208  0.3638 -0.5805
 2671SOL     OW13848   5.474   4.613   4.057  0.0237 -0.3256 -0.1112
 2671SOL    HW113849   5.548   4.650   4.009  0.3866 -0.6260  0.2014
 2671SOL    HW213850   5.426   4.690   4.089 -1.6702 -0.0378 -2.9933
 2672SOL     OW13851   1.018   3.758   6.806  0.0162  0.6031 -0.2870
 2672SOL    HW113852   0.999   3.840   6.760  2.3532  1.5218  0.2342
 2672SOL    HW213853   1.054   3.700   6.738  0.2448  0.7281 -0.2725
 2673SOL     OW13854   8.663   5.709   8.986  0.6921  0.0758  0.3790
 2673SOL    HW113855   8.658   5.687   8.893 -2.4734  1.9602 -0.0415
 2673SOL    HW213856   8.661   5.804   8.988 -0.9942  0.0555  2.4128
 2674SOL     OW13857   9.384   1.573   8.492 -0.7764 -0.2485  0.2649
 2674SOL    HW113858   9.469   1.613   8.478 -0.9833 -0.4940 -2.2515
 2674SOL    HW213859   9.391   1.530   8.577  1.6186 -0.2756  0.1225
 2675SOL     OW13860   6.841   5.296   9.424 -0.0721 -0.4878 -0.4749
 2675SOL    HW113861   6.801   5.224   9.376 -2.1042  0.8041 -0.8496
 2675SOL    HW213862   6.936   5.281   9.415 -0.3445 -1.0889 -3.7149
 2676SOL     OW13863   6.790   4.357   8.929  0.0515 -0.1349  0.2638
 2676SOL    HW113864   6.792   4.438   8.878  0.8988 -0.1242  0.3028
 2676SOL    HW213865   6.724   4.303   8.886  1.0086 -0.2742 -1.0831
 2677SOL     OW13866   5.465   7.191   5.557 -0.0438 -0.6442  0.0661
 2677SOL    HW113867   5.537   7.231   5.508 -1.2397  1.0419 -0.4286
 2677SOL    HW213868   5.497   7.187   5.647  0.6313  0.2077 -0.1166
 2678SOL     OW13869  10.567   8.587  10.862  0.1904  0.4453 -0.2852
 2678SOL    HW113870  10.659   8.611  10.852  0.9260 -2.2953 -0.9436
 2678SOL    HW213871  10.545   8.539  10.782 -1.8825  1.1198 -0.1953
 2679SOL     OW13872   7.765   8.684   2.549  0.0010  0.2636  0.3069
 2679SOL    HW113873   7.794   8.645   2.631  2.0212 -1.9542 -1.3084
 2679SOL    HW213874   7.843   8.685   2.494 -1.2135  1.8898 -1.5339
 2680SOL     OW13875   9.585   2.638   0.365 -0.1217  0.5980 -0.4550
 2680SOL    HW113876   9.649   2.700   0.400 -0.3564  1.0177 -0.7673
 2680SOL    HW213877   9.505   2.657   0.414 -0.3265  0.8727 -0.8989
 2681SOL     OW13878   9.488   6.823   4.208  0.1215  0.5018 -0.2552
 2681SOL    HW113879   9.533   6.906   4.227 -1.9718  1.9268 -1.1879
 2681SOL    HW213880   9.441   6.839   4.126  0.0601 -1.8080 -0.7310
 2682SOL     OW13881   4.253   3.015   4.619 -0.0371  0.2107 -0.6973
 2682SOL    HW113882   4.272   3.063   4.699  0.1881 -0.2475 -0.4776
 2682SOL    HW213883   4.276   3.076   4.549  0.8601  0.1981 -0.4269
 2683SOL     OW13884   5.709   8.917   8.097  0.2390 -0.1232  0.9020
 2683SOL    HW113885   5.687   8.877   8.181  1.1884  2.5422  2.5433
 2683SOL    HW213886   5.657   8.868   8.033 -1.2199 -1.6718  3.1164
 2684SOL     OW13887   3.610   5.230   5.878 -0.1109  0.3097 -0.3489
 2684SOL    HW113888   3.688   5.215   5.825  0.3132  0.1880  0.3094
 2684SOL    HW213889   3.544   5.172   5.840 -0.1196  0.9687 -1.3945
 2685SOL     OW13890   7.073   4.798   3.559 -0.0037  0.0163 -0.4147
 2685SOL    HW113891   7.127   4.839   3.627  0.2263 -0.1152 -0.5180
 2685SOL    HW213892   6.985   4.794   3.598  0.0483  0.2747 -0.2655
 2686SOL     OW13893   3.746   6.092  10.667  0.4848  0.4135  0.5616
 2686SOL    HW113894   3.714   6.169  10.715  3.0158 -0.1762  3.4915
 2686SOL    HW213895   3.687   6.022  10.694 -0.2119  0.7743  0.0085
 2687SOL     OW13896   1.660   9.778   4.934  0.5618 -0.6715 -0.1992
 2687SOL    HW113897   1.699   9.691   4.943  1.9730 -0.1510 -1.0301
 2687SOL    HW213898   1.625   9.779   4.845  0.9761 -0.2200 -0.3570
 2688SOL     OW13899   3.046  10.538   8.426  0.1911  0.0797  0.1352
 2688SOL    HW113900   2.996  10.509   8.502 -1.0881  1.2551 -0.2240
 2688SOL    HW213901   3.026  10.474   8.358  0.4090 -0.3135  0.4367
 2689SOL     OW13902   3.230  10.093   1.978 -0.2131 -0.6845 -0.0292
 2689SOL    HW113903   3.318  10.115   2.006  0.4810  0.2055 -2.6219
 2689SOL    HW213904   3.219  10.001   2.002  0.8135 -0.4250  1.6167
 2690SOL     OW13905   8.469   8.784   8.606  0.5401 -0.1191  0.3650
 2690SOL    HW113906   8.559   8.803   8.581  0.0577  0.4281 -1.0120
 2690SOL    HW213907   8.418   8.856   8.570 -0.4134 -0.1918  1.4980
 2691SOL     OW13908   9.113   2.247   3.418  0.4340 -0.5061 -0.6955
 2691SOL    HW113909   9.161   2.205   3.347  1.6095  0.9092 -0.8063
 2691SOL    HW213910   9.111   2.340   3.394 -1.4082 -0.3550 -0.1112
 2692SOL     OW13911   9.121   2.437   6.072  0.1048  0.0190 -0.2630
 2692SOL    HW113912   9.136   2.521   6.116  0.0998  0.2745 -0.7423
 2692SOL    HW213913   9.043   2.401   6.114 -0.9382  1.0631 -1.2194
 2693SOL     OW13914   3.554  10.734   4.142 -0.9279  0.4850 -0.5267
 2693SOL    HW113915   3.541  10.731   4.237  0.7343 -0.1855 -0.2875
 2693SOL    HW213916   3.532  10.646   4.112 -0.1124  0.2859 -0.5567
 2694SOL     OW13917   3.258  10.271   8.467  0.3097  0.2162  0.6756
 2694SOL    HW113918   3.190  10.296   8.405  0.1182 -0.2076  0.7084
 2694SOL    HW213919   3.272  10.350   8.520  0.2972  0.5003  0.2612
 2695SOL     OW13920   1.554   8.572  10.121 -0.0936  0.4472 -0.1025
 2695SOL    HW113921   1.587   8.515  10.190 -0.6606  1.3246  0.9159
 2695SOL    HW213922   1.624   8.575  10.056 -0.0804 -1.4490 -0.2169
 2696SOL     OW13923   2.205   2.841   6.530  0.1669  0.2257 -0.0532
 2696SOL    HW113924   2.299   2.854   6.543  0.3273 -1.1589  0.4410
 2696SOL    HW213925   2.174   2.808   6.614 -0.7679  0.6699 -0.2140
 2697SOL     OW13926   2.182   5.565   9.977 -0.3122 -0.1338  0.4530
 2697SOL    HW113927   2.219   5.635   9.924 -1.2949 -0.3484 -0.5496
 2697SOL    HW213928   2.127   5.609  10.042  0.7265  0.1165  1.1874
 2698SOL     OW13929   0.648   4.271   0.539 -0.0249 -0.2890  0.0002
 2698SOL    HW113930   0.637   4.270   0.444 -0.4352 -2.8851  0.0122
 2698SOL    HW213931   0.742   4.287   0.551 -0.1397  1.1212 -0.7744
 2699SOL     OW13932   6.371   5.262   9.731 -0.2693  0.8631 -0.5222
 2699SOL    HW113933   6.409   5.287   9.815 -0.2209  0.5523 -0.4487
 2699SOL    HW213934   6.287   5.222   9.754 -0.4452  1.1527 -0.6529
 2700SOL     OW13935   9.856   1.856   5.161  0.2054  0.2562 -0.3915
 2700SOL    HW113936   9.840   1.864   5.067  0.8561  0.5376 -0.4810
 2700SOL    HW213937   9.824   1.938   5.198 -1.7199 -0.5757 -0.1269
 2701SOL     OW13938   4.531   5.981  10.644  0.0892 -0.3507  0.1470
 2701SOL    HW113939   4.485   6.046  10.592 -0.5689 -1.3740 -0.5834
 2701SOL    HW213940   4.577   5.926  10.580  1.0295 -0.3332  0.7761
 2702SOL     OW13941   8.156   2.822   1.615  0.0078  0.2647  0.4154
 2702SOL    HW113942   8.213   2.820   1.692  0.0647  0.3802  0.3757
 2702SOL    HW213943   8.154   2.732   1.584 -1.0661 -0.0467  1.3276
 2703SOL     OW13944   8.824   9.804   6.922 -0.2697  0.3420 -0.1684
 2703SOL    HW113945   8.899   9.744   6.928 -1.8789 -2.0204 -1.6665
 2703SOL    HW213946   8.814   9.839   7.010  0.5474 -1.9798  0.9373
 2704SOL     OW13947   8.417   8.143   5.815  0.1243 -0.2352  0.8758
 2704SOL    HW113948   8.380   8.224   5.779  2.0190 -0.5814 -2.2303
 2704SOL    HW213949   8.439   8.164   5.905 -2.8288  1.4970  1.3298
 2705SOL     OW13950   8.553   5.184   4.104 -0.2820 -0.0118 -0.0447
 2705SOL    HW113951   8.540   5.239   4.027 -0.7578  0.3955  0.3191
 2705SOL    HW213952   8.634   5.216   4.144 -0.1864 -0.0363 -0.2211
 2706SOL     OW13953   7.087   2.080   3.823 -0.1970 -0.4656  0.4572
 2706SOL    HW113954   7.136   2.003   3.795 -0.5343  0.0188 -1.5898
 2706SOL    HW213955   6.996   2.051   3.824 -0.4207  0.1011 -1.1740
 2707SOL     OW13956   6.887   3.330  10.481  0.1426 -0.3156  0.1600
 2707SOL    HW113957   6.876   3.405  10.423  1.4030  0.9246  1.4508
 2707SOL    HW213958   6.822   3.267  10.451  2.2612 -0.7752 -4.1590
 2708SOL     OW13959   1.178   3.711   9.906  0.7478 -0.4911 -0.3638
 2708SOL    HW113960   1.200   3.743   9.993 -0.4826  0.5084 -0.3813
 2708SOL    HW213961   1.263   3.694   9.864  1.3483 -1.1409  1.0621
 2709SOL     OW13962   6.581   4.414   5.701  0.4361  0.0055 -0.0468
 2709SOL    HW113963   6.552   4.496   5.661  0.6232 -0.5242 -1.3036
 2709SOL    HW213964   6.532   4.346   5.655  1.4414 -0.6914 -0.1059
 2710SOL     OW13965   3.171   1.997   0.360 -0.0458 -0.2059  0.0024
 2710SOL    HW113966   3.091   2.048   0.374 -0.6226  0.3238 -3.9293
 2710SOL    HW213967   3.191   1.960   0.445 -3.2843  1.3443  1.6378
 2711SOL     OW13968   0.530   9.052   9.651  0.0106  0.4642  0.1080
 2711SOL    HW113969   0.580   9.029   9.729  1.7565  0.3626 -0.9755
 2711SOL    HW213970   0.527   9.147   9.651 -1.2283  0.4325  1.0238
 2712SOL     OW13971   0.539   8.341   8.503 -0.2947 -0.1409  0.3673
 2712SOL    HW113972   0.461   8.378   8.543 -0.4144 -1.6725  1.6479
 2712SOL    HW213973   0.508   8.264   8.455  0.3171 -0.2709  0.1608
 2713SOL     OW13974   6.643  10.287  10.640 -0.3673  0.0443  0.3182
 2713SOL    HW113975   6.701  10.362  10.649  0.2717 -0.0541 -2.1870
 2713SOL    HW213976   6.622  10.262  10.730  1.3418  1.7011  1.2562
 2714SOL     OW13977   7.923   5.250   2.307 -0.2514 -0.0290  0.1092
 2714SOL    HW113978   8.016   5.244   2.286 -0.2409  1.9273 -0.6176
 2714SOL    HW213979   7.920   5.289   2.394 -0.4026 -1.4358  0.7607
 2715SOL     OW13980   5.239   8.674   7.351  0.5931 -0.1082  0.7045
 2715SOL    HW113981   5.333   8.690   7.358  0.6694 -0.4009  0.4029
 2715SOL    HW213982   5.223   8.669   7.256  0.3539 -0.5060  0.7638
 2716SOL     OW13983   0.908   9.423   3.626 -0.4388 -0.0629 -0.0181
 2716SOL    HW113984   0.961   9.461   3.696  0.7026 -1.2837 -0.1808
 2716SOL    HW213985   0.935   9.471   3.547 -1.3515  0.9603  0.2714
 2717SOL     OW13986   7.751   3.022   0.044  0.2256  0.0738 -0.0254
 2717SOL    HW113987   7.782   3.007   0.133 -0.8211  0.5603  0.4482
 2717SOL    HW213988   7.789   2.952  -0.008  1.8881  0.5197  0.5477
 2718SOL     OW13989   3.329   1.134   3.104  0.8206  0.0568 -0.0166
 2718SOL    HW113990   3.405   1.126   3.047  0.6486  0.0633 -0.2470
 2718SOL    HW213991   3.336   1.222   3.141  1.6401 -0.4115  0.9881
 2719SOL     OW13992   3.062  10.451   4.320  0.0374  0.2220 -0.3418
 2719SOL    HW113993   3.052  10.366   4.364 -0.9399  0.3576 -0.2918
 2719SOL    HW213994   3.094  10.509   4.389  0.9692 -0.1548 -0.4386
 2720SOL     OW13995   4.647   6.491   7.327  0.1248 -0.3027 -0.5904
 2720SOL    HW113996   4.612   6.414   7.371  1.2813  0.7044  2.3624
 2720SOL    HW213997   4.571   6.549   7.315 -0.3073 -0.8300 -0.4067
 2721SOL     OW13998   4.526   0.132   6.651 -0.0279 -0.1259 -0.1113
 2721SOL    HW113999   4.581   0.208   6.671  0.8657 -0.9880  0.7997
 2721SOL    HW214000   4.463   0.128   6.723 -0.5280  0.1548 -0.5268
 2722SOL     OW14001   4.480   3.255   7.965  0.5122 -0.4041  0.1850
 2722SOL    HW114002   4.384   3.254   7.956  0.4514  0.6188  0.5113
 2722SOL    HW214003   4.495   3.261   8.059  0.9161 -1.1853  0.1722
 2723SOL     OW14004   8.067   6.567   8.268  0.0701 -0.3111 -0.5694
 2723SOL    HW114005   8.028   6.530   8.347  0.1115  0.7397 -0.0377
 2723SOL    HW214006   8.134   6.503   8.243 -0.1219 -0.7866  0.0884
 2724SOL     OW14007  10.601   4.523   9.652  0.1280 -0.0633  0.4002
 2724SOL    HW114008  10.650   4.521   9.570 -1.5367  0.8312 -0.6736
 2724SOL    HW214009  10.561   4.436   9.658 -0.0037 -0.0251  0.0956
 2725SOL     OW14010   5.716   7.923   1.745 -0.3657  0.5862  0.3905
 2725SOL    HW114011   5.624   7.929   1.770 -0.2023 -0.4676  1.2939
 2725SOL    HW214012   5.716   7.863   1.670 -0.3770  0.3576  0.5744
 2726SOL     OW14013   5.315   8.314   9.342  0.3791  0.0209 -0.0392
 2726SOL    HW114014   5.329   8.372   9.267  1.2988 -0.5084 -0.2860
 2726SOL    HW214015   5.390   8.330   9.399  0.4726 -0.6837  0.0442
 2727SOL     OW14016   7.993  10.355   6.984  0.2242 -0.6897  0.1813
 2727SOL    HW114017   8.066  10.325   7.038  0.0567 -1.6152 -0.1023
 2727SOL    HW214018   7.968  10.279   6.931  0.3858  0.1828 -1.2162
 2728SOL     OW14019   3.432   4.384  10.338  0.1227  0.6415  0.0328
 2728SOL    HW114020   3.464   4.380  10.248  2.5372 -0.3744  0.8642
 2728SOL    HW214021   3.497   4.437  10.384 -1.2279  1.4011  1.1743
 2729SOL     OW14022   6.466   5.422   8.728  0.6442  0.4435  0.2902
 2729SOL    HW114023   6.525   5.474   8.782 -0.3891  3.1064 -0.9618
 2729SOL    HW214024   6.520   5.393   8.654  0.6636  2.0696 -0.3724
 2730SOL     OW14025   4.971   0.291  10.240  0.9180  0.2524  0.2483
 2730SOL    HW114026   4.976   0.213  10.184  0.5647  1.2592 -1.2592
 2730SOL    HW214027   4.986   0.259  10.328 -1.9025 -1.9973  0.0592
 2731SOL     OW14028  10.907   3.806   7.875 -0.1830  0.7594 -0.5845
 2731SOL    HW114029  10.860   3.740   7.825 -0.4013 -0.1028  0.7015
 2731SOL    HW214030  10.914   3.769   7.963  2.8735  0.8400 -0.6813
 2732SOL     OW14031   7.739   5.193   2.907 -0.2556 -0.0019  0.3467
 2732SOL    HW114032   7.773   5.146   2.983  0.7036 -0.4517 -0.3412
 2732SOL    HW214033   7.815   5.240   2.872 -0.0751 -1.6432 -1.6802
 2733SOL     OW14034  10.315   3.976   8.605  0.1124  0.4232 -0.1601
 2733SOL    HW114035  10.327   4.055   8.552 -0.4758 -1.6045 -3.5729
 2733SOL    HW214036  10.404   3.944   8.620  0.2634  0.7776 -0.2690
 2734SOL     OW14037   5.389   0.888   1.626 -0.4190 -0.5251 -0.5245
 2734SOL    HW114038   5.420   0.978   1.616 -1.0942 -0.0914  0.9195
 2734SOL    HW214039   5.433   0.856   1.705 -0.3357 -1.4061 -0.9117
 2735SOL     OW14040  10.083   6.512   4.975 -0.0216 -0.5273  0.4021
 2735SOL    HW114041  10.013   6.578   4.977 -0.9768 -1.5069  0.7366
 2735SOL    HW214042  10.065   6.461   4.896 -0.8621 -1.9705  1.4739
 2736SOL     OW14043   9.535   7.393   2.218  0.0251  0.3229  0.2104
 2736SOL    HW114044   9.590   7.315   2.215  3.2097  2.3563 -0.4264
 2736SOL    HW214045   9.528   7.421   2.127 -2.4285 -0.0118  0.2504
 2737SOL     OW14046   3.504   1.702   2.369 -0.6172 -0.1274 -0.0409
 2737SOL    HW114047   3.511   1.729   2.277 -1.3225 -0.3934 -0.1813
 2737SOL    HW214048   3.451   1.622   2.366 -0.9957  0.0942  0.6337
 2738SOL     OW14049   0.918   1.694   5.774  0.2371  0.3645  0.5398
 2738SOL    HW114050   0.837   1.663   5.735 -0.3052  0.7361  1.3351
 2738SOL    HW214051   0.984   1.684   5.705 -0.5774  0.5292 -0.2732
 2739SOL     OW14052   9.083   0.475   7.083 -0.5488 -0.3653  0.1646
 2739SOL    HW114053   9.106   0.444   6.996  0.8286 -0.2333  0.4550
 2739SOL    HW214054   9.009   0.535   7.068 -1.5210 -1.7094 -0.6795
 2740SOL     OW14055   8.187   8.311   0.910 -0.1036  0.2968  0.0142
 2740SOL    HW114056   8.236   8.338   0.833  0.5286  0.5561  0.4947
 2740SOL    HW214057   8.182   8.216   0.904  0.4978  0.2634 -0.0251
 2741SOL     OW14058   2.066   3.152   6.163 -0.0340  0.1433  0.2801
 2741SOL    HW114059   2.154   3.190   6.160  0.4438 -0.9687 -0.1715
 2741SOL    HW214060   2.071   3.087   6.233 -0.6578  0.4447  0.6097
 2742SOL     OW14061   3.982   6.745   3.172 -0.0939  0.1817  0.6401
 2742SOL    HW114062   3.991   6.727   3.078  0.9592  0.8329  0.6075
 2742SOL    HW214063   3.930   6.671   3.205 -0.4367 -0.0848 -0.4345
 2743SOL     OW14064   7.331   7.152   7.024  0.0591 -0.3181 -0.1557
 2743SOL    HW114065   7.313   7.197   6.941 -2.0930 -0.7677  0.0108
 2743SOL    HW214066   7.263   7.184   7.084  2.4247  1.1765  1.9847
 2744SOL     OW14067   6.104   2.639   0.094  0.4024  0.3411 -0.4028
 2744SOL    HW114068   6.051   2.616   0.017  1.7615 -2.5512 -0.6172
 2744SOL    HW214069   6.194   2.640   0.061  1.1411 -2.1699  1.2461
 2745SOL     OW14070   7.646   5.382   8.039 -0.0163 -0.0192  0.1641
 2745SOL    HW114071   7.722   5.437   8.020  1.2995 -1.4425  1.0686
 2745SOL    HW214072   7.615   5.413   8.125 -0.3896  0.4725 -0.1431
 2746SOL     OW14073   2.328   4.037   8.528  0.0353 -0.0353 -0.5931
 2746SOL    HW114074   2.324   4.081   8.613  0.4237 -0.7162 -0.2118
 2746SOL    HW214075   2.389   4.090   8.476 -1.2916  1.1977 -0.9524
 2747SOL     OW14076   8.415   1.010   4.633  0.1511  0.6178  0.5253
 2747SOL    HW114077   8.363   1.071   4.579  1.1930  0.5679 -0.5803
 2747SOL    HW214078   8.376   1.016   4.720  0.0428  2.6634  0.3805
 2748SOL     OW14079   3.777   8.596   8.890  0.2347 -0.0190 -0.1585
 2748SOL    HW114080   3.787   8.572   8.983 -1.2510  2.5289  0.7544
 2748SOL    HW214081   3.683   8.611   8.879  0.6627  2.1837 -1.3601
 2749SOL     OW14082   5.908   4.888   6.241 -0.1133 -0.3404  0.5315
 2749SOL    HW114083   5.866   4.852   6.319  0.2848 -2.3659 -0.1229
 2749SOL    HW214084   6.000   4.895   6.264 -0.3097  1.0932  0.9269
 2750SOL     OW14085   3.501  10.686   6.643  0.2942 -0.1448 -0.2501
 2750SOL    HW114086   3.537  10.628   6.710  1.4227  0.3016 -0.4455
 2750SOL    HW214087   3.549  10.664   6.563 -0.1082  0.2280 -0.6028
 2751SOL     OW14088   0.237   4.670   6.011  0.1607  0.4053  0.1715
 2751SOL    HW114089   0.278   4.722   5.942  0.1408  0.7370  0.4078
 2751SOL    HW214090   0.149   4.706   6.019 -0.4319 -0.7491 -0.8080
 2752SOL     OW14091   1.010   6.822   8.770 -0.3423  0.2564  0.0438
 2752SOL    HW114092   1.064   6.771   8.709 -1.1413  0.4117 -0.8162
 2752SOL    HW214093   0.925   6.829   8.727 -0.8967  0.4721  1.1395
 2753SOL     OW14094   5.407   1.535  10.468 -0.0058  0.3858  0.7804
 2753SOL    HW114095   5.494   1.498  10.454 -0.3793 -0.3021  0.2022
 2753SOL    HW214096   5.348   1.460  10.463 -0.6310  0.8380  1.2123
 2754SOL     OW14097   5.603   8.321   2.862 -0.5934 -0.0247  0.5603
 2754SOL    HW114098   5.672   8.306   2.797 -0.8830 -1.1698  0.4955
 2754SOL    HW214099   5.552   8.394   2.828 -0.2025 -0.0341 -0.0518
 2755SOL     OW14100   0.308   6.680   8.230  0.1633 -0.2346 -0.0640
 2755SOL    HW114101   0.318   6.629   8.150  0.4354 -0.4212  0.0854
 2755SOL    HW214102   0.390   6.730   8.237 -0.5470  1.0717 -0.7921
 2756SOL     OW14103   1.054   0.467   1.687  0.0632  0.0709  0.0380
 2756SOL    HW114104   0.994   0.501   1.753 -0.0118 -1.5537  0.8649
 2756SOL    HW214105   1.137   0.454   1.734  0.3444 -0.0060 -0.4698
 2757SOL     OW14106   0.472  10.511   4.472  0.1800 -0.0981  0.2974
 2757SOL    HW114107   0.561  10.479   4.483  0.2846 -0.0521 -0.3637
 2757SOL    HW214108   0.470  10.593   4.521  0.3854 -0.2978  0.6423
 2758SOL     OW14109   2.008   2.856   7.464  0.2735 -0.8582 -0.1316
 2758SOL    HW114110   1.950   2.819   7.398 -1.6762  3.5945 -1.2614
 2758SOL    HW214111   2.092   2.812   7.450 -1.1960 -3.1494 -2.5890
 2759SOL     OW14112   1.648   5.611   4.442  0.1675  0.2387 -0.1518
 2759SOL    HW114113   1.685   5.628   4.356 -0.5341 -1.1206 -0.7510
 2759SOL    HW214114   1.607   5.525   4.434  0.7897 -0.2771  1.7794
 2760SOL     OW14115   4.066   1.500   5.091  0.0511 -0.3070  0.1212
 2760SOL    HW114116   4.058   1.425   5.149  0.9120 -0.7680 -0.3341
 2760SOL    HW214117   4.103   1.465   5.010  1.2424  0.7173  0.1776
 2761SOL     OW14118   7.134   0.824   3.961  0.5054 -0.3919  0.6521
 2761SOL    HW114119   7.159   0.909   3.924 -0.8902 -0.1454  0.2057
 2761SOL    HW214120   7.185   0.760   3.912  0.9967  0.1414  0.4581
 2762SOL     OW14121   9.880  10.496   1.539 -0.2947  0.4308 -0.0372
 2762SOL    HW114122   9.802  10.500   1.595 -2.2277 -1.5104 -2.4049
 2762SOL    HW214123   9.910  10.587   1.536 -1.8034  1.0818  1.8072
 2763SOL     OW14124   9.848   4.026   7.314  0.2144 -0.5377  0.5750
 2763SOL    HW114125   9.846   3.932   7.293 -0.5195 -0.4916  0.4021
 2763SOL    HW214126   9.775   4.063   7.264 -1.6300 -0.4195  3.1324
 2764SOL     OW14127   0.227   3.451  10.177 -0.3488 -0.5151  0.3083
 2764SOL    HW114128   0.145   3.482  10.140 -0.5155 -0.3826  0.7874
 2764SOL    HW214129   0.231   3.358  10.152 -1.6411 -1.0782  1.9955
 2765SOL     OW14130   4.730   0.942   2.951  0.8320  0.0283 -0.1546
 2765SOL    HW114131   4.637   0.957   2.971  1.4388  1.0206  2.2555
 2765SOL    HW214132   4.756   0.872   3.010  2.0948  1.2426  0.8052
 2766SOL     OW14133  10.260   4.212   5.436 -0.0682  0.5470 -0.7285
 2766SOL    HW114134  10.209   4.160   5.498 -3.3327  1.1214 -2.6891
 2766SOL    HW214135  10.237   4.177   5.350  0.7177  2.6696 -1.8908
 2767SOL     OW14136   7.495   3.107   3.608 -0.5378  0.7746 -0.5318
 2767SOL    HW114137   7.548   3.027   3.611 -0.6061  0.7048 -1.0537
 2767SOL    HW214138   7.534   3.164   3.675 -0.6525  0.2067  0.0292
 2768SOL     OW14139   2.191   8.282   3.794  0.4698 -0.3491  0.5814
 2768SOL    HW114140   2.112   8.264   3.743 -0.1860 -0.4472  1.5974
 2768SOL    HW214141   2.181   8.228   3.872  0.7777  0.8207  1.4547
 2769SOL     OW14142   5.247   4.917   8.898 -0.4333 -0.5731  0.0468
 2769SOL    HW114143   5.170   4.859   8.902 -0.9655  0.1791  1.7243
 2769SOL    HW214144   5.230   4.983   8.965  1.3781  0.0127 -0.0223
 2770SOL     OW14145   5.587   2.187   5.241  0.5654  0.4310  0.1588
 2770SOL    HW114146   5.570   2.124   5.311 -0.0065 -0.2613 -0.5792
 2770SOL    HW214147   5.594   2.271   5.286 -2.7343  0.4860  0.8274
 2771SOL     OW14148   0.052   6.248   0.526 -0.3653  0.0912 -0.3913
 2771SOL    HW114149   0.089   6.336   0.531  1.2795 -0.6308  1.4375
 2771SOL    HW214150  -0.041   6.262   0.510 -0.2238  2.1789  0.3552
 2772SOL     OW14151   5.205   5.267   4.127 -0.3724  0.2574  0.0123
 2772SOL    HW114152   5.243   5.199   4.182 -1.1322  0.2390  0.5313
 2772SOL    HW214153   5.278   5.298   4.074  0.8953  1.6679  2.4091
 2773SOL     OW14154   1.245   6.478   0.433  0.3691  0.2543 -0.2945
 2773SOL    HW114155   1.253   6.471   0.338  3.1828 -1.1885 -0.0607
 2773SOL    HW214156   1.282   6.396   0.466  2.7354  2.1273  2.0938
 2774SOL     OW14157   4.760   9.500   8.931 -0.4703  0.3437  0.2245
 2774SOL    HW114158   4.753   9.433   8.998  0.8939 -1.0573 -0.9516
 2774SOL    HW214159   4.674   9.501   8.888 -0.4893 -0.7052  0.2181
 2775SOL     OW14160   5.864   1.208   6.084 -0.0289  0.0775  0.1898
 2775SOL    HW114161   5.848   1.251   6.168  0.5241  1.1368 -0.2274
 2775SOL    HW214162   5.780   1.213   6.038  0.1444  1.1480 -0.0351
 2776SOL     OW14163   0.701   6.187   7.325 -0.2152 -0.7173  0.2642
 2776SOL    HW114164   0.680   6.100   7.361 -1.3970  0.0302  1.4558
 2776SOL    HW214165   0.668   6.248   7.390 -1.5877  0.6993 -1.6528
 2777SOL     OW14166  10.782   1.528   3.294 -0.1771 -0.0579 -0.3746
 2777SOL    HW114167  10.791   1.497   3.384 -0.0703 -0.3757 -0.4928
 2777SOL    HW214168  10.713   1.594   3.298  0.7708  0.9237  0.1810
 2778SOL     OW14169   4.726   0.503   1.493  0.3417 -1.3670  0.2120
 2778SOL    HW114170   4.815   0.528   1.518  0.0566 -1.4270  1.3771
 2778SOL    HW214171   4.689   0.581   1.454 -0.0953 -0.2978  2.5625
 2779SOL     OW14172   4.909   9.979   5.672  0.7731 -0.0158  0.6408
 2779SOL    HW114173   4.817   9.975   5.695  0.6987 -1.1583  0.1895
 2779SOL    HW214174   4.953   9.926   5.739  0.6458 -2.6813 -1.2477
 2780SOL     OW14175   1.878   7.465   7.410 -0.0259  0.0963 -0.2896
 2780SOL    HW114176   1.827   7.526   7.357 -0.6607 -0.5409 -0.4292
 2780SOL    HW214177   1.813   7.421   7.466  0.3323 -0.8392 -0.5863
 2781SOL     OW14178   8.636  10.061   9.857 -0.1886 -0.3379  0.2282
 2781SOL    HW114179   8.631   9.966   9.850 -0.4223 -0.2227 -1.4737
 2781SOL    HW214180   8.703  10.086   9.794 -0.2798  0.6609  0.5100
 2782SOL     OW14181  10.129   5.000   5.459 -0.5029 -0.2025 -0.1370
 2782SOL    HW114182  10.221   5.025   5.472 -0.1456 -1.1235 -0.8122
 2782SOL    HW214183  10.120   4.917   5.506 -0.7509 -0.5581 -0.7939
 2783SOL     OW14184   6.468  10.829   6.099  0.4175  0.0142 -0.5175
 2783SOL    HW114185   6.433  10.918   6.109 -0.2020  0.1247 -3.0831
 2783SOL    HW214186   6.392  10.775   6.078  1.0192 -0.8104 -0.6302
 2784SOL     OW14187  10.839   8.128   7.262  0.2987  0.4108  0.1135
 2784SOL    HW114188  10.753   8.114   7.222  0.9026  1.0054 -1.4948
 2784SOL    HW214189  10.860   8.045   7.304 -0.1102 -0.4985 -1.4074
 2785SOL     OW14190   9.073   8.418   1.014  0.3529 -0.0890 -0.2188
 2785SOL    HW114191   8.997   8.369   0.983  1.2788 -1.7154 -0.0367
 2785SOL    HW214192   9.072   8.498   0.962 -1.1984 -0.2868 -0.5624
 2786SOL     OW14193   9.362   9.064   9.258 -0.3804  0.0269  0.1471
 2786SOL    HW114194   9.434   9.018   9.302 -1.4730 -0.8988  1.0354
 2786SOL    HW214195   9.305   8.994   9.227 -0.9921  0.7589 -0.3984
 2787SOL     OW14196   0.812   7.715   4.419  0.2725  0.0526  0.0696
 2787SOL    HW114197   0.769   7.763   4.489  2.3374 -0.0304  1.4589
 2787SOL    HW214198   0.866   7.780   4.374  0.2404 -0.2493 -0.4222
 2788SOL     OW14199   6.955   8.911   9.252  0.3672 -0.6350 -0.5880
 2788SOL    HW114200   7.044   8.932   9.280  0.1338 -0.1454 -0.1758
 2788SOL    HW214201   6.944   8.957   9.169 -0.4182  1.6984  0.7073
 2789SOL     OW14202   5.116   0.839   1.573  0.4100 -0.6279  0.9434
 2789SOL    HW114203   5.102   0.931   1.593  2.1141 -0.3771  1.1647
 2789SOL    HW214204   5.209   0.824   1.592 -0.1247 -2.7429  2.2600
 2790SOL     OW14205   5.821   5.211   9.565  0.4280  0.5911 -0.3250
 2790SOL    HW114206   5.782   5.171   9.642  0.0405  1.1350 -0.2356
 2790SOL    HW214207   5.747   5.237   9.511  0.6980 -0.9692 -1.5114
 2791SOL     OW14208  10.918  10.737   5.734 -0.2814 -0.4113 -0.1876
 2791SOL    HW114209  10.969  10.694   5.666 -0.5043 -1.8850  0.5408
 2791SOL    HW214210  10.827  10.717   5.712 -0.4957  0.9891 -0.6755
 2792SOL     OW14211   5.853   1.920   5.329 -0.1126 -0.1093  0.2444
 2792SOL    HW114212   5.847   1.984   5.401  1.3123 -0.4024  0.6565
 2792SOL    HW214213   5.943   1.887   5.334 -1.0813 -2.9754  0.7473
 2793SOL     OW14214   2.165   5.967   3.486  0.0164  0.2548 -0.4411
 2793SOL    HW114215   2.257   5.943   3.475 -0.1481 -0.5240 -0.2046
 2793SOL    HW214216   2.117   5.898   3.440 -0.4564  0.5558 -0.4052
 2794SOL     OW14217   5.664   8.209   7.522 -0.4807  0.2718  0.3252
 2794SOL    HW114218   5.654   8.191   7.429  1.7781 -0.0494  0.0865
 2794SOL    HW214219   5.674   8.123   7.563 -1.7692  0.3910  0.9268
 2795SOL     OW14220   2.352   6.500   4.576  0.2095 -0.1256 -0.3260
 2795SOL    HW114221   2.400   6.477   4.656 -0.2667 -1.2897 -0.3584
 2795SOL    HW214222   2.266   6.527   4.608  0.3002  0.2461 -0.3924
 2796SOL     OW14223   3.335   2.373  10.036 -0.9771  0.4073 -0.1243
 2796SOL    HW114224   3.290   2.428   9.973  0.8597  1.9566 -0.1689
 2796SOL    HW214225   3.410   2.425  10.065  0.4901 -1.8059  0.3385
 2797SOL     OW14226  10.893   4.479   4.268 -0.2528 -0.3916 -0.4611
 2797SOL    HW114227  10.986   4.465   4.286 -0.3471  0.0729  0.4541
 2797SOL    HW214228  10.888   4.570   4.236 -0.1668 -1.0206 -2.3630
 2798SOL     OW14229   7.513   9.714   8.467  0.0104 -0.2941  0.3427
 2798SOL    HW114230   7.451   9.761   8.523  0.3610 -0.3335  0.7725
 2798SOL    HW214231   7.562   9.784   8.423 -1.2285 -0.2412 -1.0430
 2799SOL     OW14232   4.892   9.297   9.188 -0.0101  0.4264  0.2586
 2799SOL    HW114233   4.982   9.321   9.168  0.3232  0.0229  1.2170
 2799SOL    HW214234   4.880   9.322   9.280 -0.7638  0.1546  0.2427
 2800SOL     OW14235   6.586   3.230   3.631 -0.5343  0.2712  0.2272
 2800SOL    HW114236   6.544   3.144   3.620 -0.5946 -0.0116  2.2596
 2800SOL    HW214237   6.632   3.245   3.548 -1.7121 -1.0442 -0.7186
 2801SOL     OW14238   3.379   0.658   1.490 -0.3246 -0.5399  0.0601
 2801SOL    HW114239   3.387   0.572   1.449  0.6846 -0.8868  0.9442
 2801SOL    HW214240   3.333   0.640   1.572  1.2520 -0.5064  0.9877
 2802SOL     OW14241   6.756   8.913   0.536  0.5154 -0.0223 -0.3195
 2802SOL    HW114242   6.791   8.958   0.613  0.7100 -0.2966 -0.2474
 2802SOL    HW214243   6.757   8.980   0.467  0.6460  0.1323 -0.1685
 2803SOL     OW14244   7.443  10.450   4.072  0.3618 -0.4068 -0.1516
 2803SOL    HW114245   7.454  10.478   4.162  2.1611  0.6276 -0.6592
 2803SOL    HW214246   7.477  10.360   4.070 -0.6846 -0.8359  0.3938
 2804SOL     OW14247   9.857   6.434   3.612 -0.5397 -0.2034 -0.4747
 2804SOL    HW114248   9.820   6.401   3.694 -1.2925  0.0832 -0.6962
 2804SOL    HW214249   9.803   6.509   3.589 -1.4901 -1.3485 -2.1792
 2805SOL     OW14250   3.704   2.534   3.391 -0.3239  0.2578  0.8529
 2805SOL    HW114251   3.723   2.460   3.448 -1.6517  0.2605  1.3416
 2805SOL    HW214252   3.638   2.501   3.330  1.7266 -0.0393 -1.3701
 2806SOL     OW14253   8.214   1.488   7.362  0.1945 -0.7154 -0.6397
 2806SOL    HW114254   8.147   1.540   7.406  0.6926 -0.8368  0.2772
 2806SOL    HW214255   8.251   1.547   7.296  0.4161 -0.0548  0.0570
 2807SOL     OW14256   6.357   5.964   1.098  0.8685 -0.4654  0.2236
 2807SOL    HW114257   6.288   6.020   1.063  2.5318  1.7794  0.3270
 2807SOL    HW214258   6.325   5.937   1.184 -0.3483 -0.4268 -0.1999
 2808SOL     OW14259   5.895   5.325   3.343 -0.3967 -0.3333  0.0973
 2808SOL    HW114260   5.971   5.348   3.289 -0.3865 -0.4437  0.0634
 2808SOL    HW214261   5.855   5.409   3.366 -1.1169 -0.3159 -1.1176
 2809SOL     OW14262   1.443   6.869   4.022  0.5370 -0.1599  0.1105
 2809SOL    HW114263   1.406   6.832   3.942  0.9645  0.5757 -0.4438
 2809SOL    HW214264   1.418   6.807   4.091  0.4191 -0.9629 -0.6332
 2810SOL     OW14265   4.630   2.782   1.385  0.1375 -0.3332  0.2707
 2810SOL    HW114266   4.552   2.829   1.358  0.7328  0.0141 -0.8854
 2810SOL    HW214267   4.672   2.840   1.449  0.9269  0.7999 -1.2259
 2811SOL     OW14268   5.441   3.981   7.607  0.1944  0.1738 -0.4053
 2811SOL    HW114269   5.377   3.990   7.536 -1.1712 -1.2240  0.5803
 2811SOL    HW214270   5.389   3.955   7.683  1.4614  2.5286  1.4032
 2812SOL     OW14271   1.389   9.897   1.070 -0.0478 -0.7586  0.1352
 2812SOL    HW114272   1.479   9.929   1.066 -0.1501 -0.5629 -0.6817
 2812SOL    HW214273   1.344   9.958   1.128 -0.4612  1.1878 -2.0822
 2813SOL     OW14274   0.103   8.047   0.878  0.3059 -0.2365  0.2170
 2813SOL    HW114275   0.140   8.082   0.960  1.2015  0.5983 -0.5108
 2813SOL    HW214276   0.119   7.953   0.883 -0.6266 -0.3454  1.4763
 2814SOL     OW14277   4.962   5.389   4.200  0.6975 -0.8673  0.3454
 2814SOL    HW114278   4.905   5.318   4.229  0.6757 -0.5830  1.0243
 2814SOL    HW214279   5.044   5.346   4.176  0.0638 -1.3432 -1.1164
 2815SOL     OW14280   1.274   6.987   9.546  0.0251 -0.3554 -0.0323
 2815SOL    HW114281   1.335   6.925   9.587 -0.8660 -0.5475  1.0297
 2815SOL    HW214282   1.285   7.068   9.596  0.2540 -0.0274 -0.6000
 2816SOL     OW14283   9.314   1.337   7.921  0.2483  0.4706  0.2169
 2816SOL    HW114284   9.306   1.296   8.007  1.8600 -0.2619  0.0660
 2816SOL    HW214285   9.224   1.343   7.888 -0.3128 -0.0174  1.5877
 2817SOL     OW14286   0.115  10.141   8.204 -0.4265 -0.0316  0.1521
 2817SOL    HW114287   0.176  10.185   8.263  0.9374  0.4582 -1.5354
 2817SOL    HW214288   0.157  10.146   8.118 -3.3125  1.3211 -1.3367
 2818SOL     OW14289  10.878   8.227   6.435 -0.4629 -0.2211  0.6072
 2818SOL    HW114290  10.886   8.311   6.481 -1.3863 -0.0965  0.5636
 2818SOL    HW214291  10.801   8.186   6.474 -1.4600  0.0225 -1.0101
 2819SOL     OW14292   5.110  10.171   3.778  0.3800  0.1240  0.0151
 2819SOL    HW114293   5.094  10.139   3.689  1.2113 -0.3136  0.0193
 2819SOL    HW214294   5.026  10.162   3.822  0.4474 -1.5342 -0.1502
 2820SOL     OW14295   2.912   4.693   9.076 -0.2011 -0.2329  0.0372
 2820SOL    HW114296   2.837   4.680   9.134 -0.9555 -1.4570 -1.1712
 2820SOL    HW214297   2.955   4.608   9.072  0.6982  0.2069 -0.0634
 2821SOL     OW14298   7.873   7.456   1.381 -0.8512  0.1550 -0.6060
 2821SOL    HW114299   7.835   7.479   1.296 -0.6264 -0.5662 -0.9098
 2821SOL    HW214300   7.830   7.514   1.443 -1.8918 -0.1272 -1.0431
 2822SOL     OW14301   0.058   8.139   2.308  0.4807 -0.3286  0.2836
 2822SOL    HW114302   0.010   8.192   2.370 -1.3629  0.1059 -1.4141
 2822SOL    HW214303   0.134   8.192   2.284  0.2032  0.2835  0.7503
 2823SOL     OW14304   7.912   4.208   6.592 -0.0446 -0.3007 -0.3832
 2823SOL    HW114305   7.891   4.291   6.634 -1.4548 -0.1618 -1.2845
 2823SOL    HW214306   7.827   4.170   6.570  0.5931 -1.6589 -0.6087
 2824SOL     OW14307   1.420   4.726   2.065  0.2040  0.1168  0.2001
 2824SOL    HW114308   1.399   4.815   2.038 -0.5384 -0.0843  0.0948
 2824SOL    HW214309   1.359   4.707   2.137  2.6748  0.9482  2.7026
 2825SOL     OW14310   7.142   0.897   9.995 -0.9070 -0.1124  0.4436
 2825SOL    HW114311   7.157   0.989  10.014  0.1311  0.1767 -1.4900
 2825SOL    HW214312   7.049   0.891   9.976 -1.6419 -0.1142  3.5609
 2826SOL     OW14313   5.653  10.028   1.944  0.2705  0.6202 -0.1615
 2826SOL    HW114314   5.669   9.986   2.028  1.1343  2.0320  0.4154
 2826SOL    HW214315   5.559  10.016   1.928  0.2651 -0.4166  0.5529
 2827SOL     OW14316   9.724   3.745   7.231 -0.2385 -0.3832  0.1690
 2827SOL    HW114317   9.681   3.680   7.175 -1.4888 -0.3205  1.0067
 2827SOL    HW214318   9.651   3.791   7.274  0.6672  0.1229  1.2177
 2828SOL     OW14319  10.811   4.534   9.889 -0.5590  0.7284  0.4298
 2828SOL    HW114320  10.770   4.452   9.913 -0.9169  0.8489  0.2443
 2828SOL    HW214321  10.904   4.513   9.878 -0.8015  0.1266 -0.6067
 2829SOL     OW14322   7.816   6.900   9.669 -0.5942  0.1371 -0.5112
 2829SOL    HW114323   7.744   6.864   9.618 -0.1632 -0.8584 -0.4446
 2829SOL    HW214324   7.802   6.866   9.758 -1.1710  1.6018 -0.0186
 2830SOL     OW14325   7.490   7.408   9.855  0.4274 -0.2958  0.5087
 2830SOL    HW114326   7.492   7.466   9.931 -0.5012 -0.7584  0.9039
 2830SOL    HW214327   7.491   7.466   9.779 -1.4233  0.2992  0.8960
 2831SOL     OW14328   8.589   1.350   3.872  0.5360  0.0381 -0.4066
 2831SOL    HW114329   8.635   1.388   3.798  1.0252  1.9512  0.8103
 2831SOL    HW214330   8.501   1.333   3.839  0.9420  0.1791 -1.6157
 2832SOL     OW14331   0.600   2.078   9.255  0.1251  0.8003 -0.3914
 2832SOL    HW114332   0.590   2.043   9.167  2.4888  1.5203 -1.0228
 2832SOL    HW214333   0.534   2.033   9.307 -0.4827 -0.5725 -2.2662
 2833SOL     OW14334   6.969   7.916   5.147  0.2811  0.1530 -0.3632
 2833SOL    HW114335   6.927   7.940   5.229 -1.2399 -0.9022 -0.7992
 2833SOL    HW214336   7.026   7.990   5.127  0.3073  0.6464  1.3743
 2834SOL     OW14337   6.601   9.721   6.907 -0.0513 -0.3391 -0.1286
 2834SOL    HW114338   6.657   9.796   6.885 -0.3359 -0.1878 -0.3493
 2834SOL    HW214339   6.554   9.749   6.985 -1.5872  0.4948 -1.2872
 2835SOL     OW14340   8.938   2.347   6.277  0.3772  0.2985 -0.0284
 2835SOL    HW114341   8.980   2.319   6.358  0.5848  0.9021  0.0731
 2835SOL    HW214342   8.855   2.299   6.276  1.9664 -2.6876 -1.3590
 2836SOL     OW14343   4.514   9.118   7.095 -0.0183 -0.4846 -0.6407
 2836SOL    HW114344   4.569   9.197   7.094 -1.7861  0.8695  1.1992
 2836SOL    HW214345   4.569   9.052   7.137  0.9030  0.2390 -0.6722
 2837SOL     OW14346   5.707   4.017   4.064  0.0922 -0.4867 -0.2395
 2837SOL    HW114347   5.638   4.071   4.028  0.4161  0.5945  0.7017
 2837SOL    HW214348   5.709   3.939   4.008 -0.3059  0.5182 -1.6859
 2838SOL     OW14349   5.660   7.122  10.544  0.6060  0.4296  0.0128
 2838SOL    HW114350   5.578   7.170  10.551  1.5176  2.2315 -1.1069
 2838SOL    HW214351   5.633   7.030  10.533 -1.2127  0.9111  0.0881
 2839SOL     OW14352   5.550   6.748   6.667 -0.3154 -0.2408  0.1890
 2839SOL    HW114353   5.548   6.653   6.656  0.4876 -0.2512  0.0657
 2839SOL    HW214354   5.643   6.769   6.674 -0.5281  0.4068  1.4102
 2840SOL     OW14355   4.414   4.346   8.964 -0.6871  0.8699 -0.3737
 2840SOL    HW114356   4.434   4.439   8.958  1.4391  0.4511 -0.3200
 2840SOL    HW214357   4.448   4.309   8.883 -0.7094 -0.0052  0.0047
 2841SOL     OW14358   5.664  10.392  10.467 -0.0930 -0.2612  0.0626
 2841SOL    HW114359   5.737  10.367  10.410  0.4244  0.0448  0.5888
 2841SOL    HW214360   5.586  10.364  10.419  0.3226  0.1709 -0.8984
 2842SOL     OW14361   0.768   6.181   6.221 -0.8278 -0.2667  0.7659
 2842SOL    HW114362   0.733   6.163   6.308 -0.5158  1.1630  1.2290
 2842SOL    HW214363   0.695   6.168   6.161 -1.0642 -1.1909  1.2469
 2843SOL     OW14364   2.735   2.571   1.787 -0.4815  0.2053 -0.3631
 2843SOL    HW114365   2.788   2.497   1.817  1.7453  1.4513 -0.9493
 2843SOL    HW214366   2.669   2.533   1.730 -0.1678 -1.4394  0.3236
 2844SOL     OW14367   0.085   9.825   5.833  0.1779 -0.0521 -0.6433
 2844SOL    HW114368   0.029   9.782   5.898 -1.6019 -0.0500 -2.0772
 2844SOL    HW214369   0.174   9.804   5.859 -0.5173 -0.9589  1.1457
 2845SOL     OW14370  10.114   8.037   5.823  0.0453  0.1693 -0.7591
 2845SOL    HW114371  10.062   8.094   5.767  0.8078  0.0019 -1.6659
 2845SOL    HW214372  10.081   8.054   5.911 -0.9260  0.7156 -1.2057
 2846SOL     OW14373   8.103   5.320   1.603  0.5115 -0.0745  0.0958
 2846SOL    HW114374   8.015   5.287   1.582  0.5320 -0.0622 -0.0062
 2846SOL    HW214375   8.091   5.365   1.687  0.5950 -0.8304  0.5326
 2847SOL     OW14376  10.544   8.490   1.795 -0.0361 -0.1032  0.0938
 2847SOL    HW114377  10.554   8.572   1.748 -1.6522 -0.8856 -1.7375
 2847SOL    HW214378  10.514   8.516   1.882  0.1366  1.2641 -0.2327
 2848SOL     OW14379   2.793   6.434   4.286  0.7141  0.4316  0.1155
 2848SOL    HW114380   2.768   6.526   4.290 -2.3556 -0.2656  0.0067
 2848SOL    HW214381   2.762   6.397   4.369  1.7464 -0.5683  0.0866
 2849SOL     OW14382   5.525   5.395   5.689  0.2044 -0.2033 -0.3197
 2849SOL    HW114383   5.593   5.427   5.630  0.5337 -1.1085 -0.4524
 2849SOL    HW214384   5.572   5.378   5.771  0.2228 -1.2207 -0.5374
 2850SOL     OW14385   1.864   2.066   2.422  0.4064  0.1120  0.2626
 2850SOL    HW114386   1.951   2.105   2.430  0.2031  0.2942  1.7558
 2850SOL    HW214387   1.875   1.998   2.355  1.4698  0.7336 -0.2225
 2851SOL     OW14388  10.543   8.605   4.630 -0.2534  0.0185  0.0410
 2851SOL    HW114389  10.510   8.516   4.624 -2.0748  0.5992  0.6222
 2851SOL    HW214390  10.473   8.653   4.675  0.7432  1.6998 -0.1230
 2852SOL     OW14391  10.027   4.265   0.546  0.2823  0.2085  0.1503
 2852SOL    HW114392  10.116   4.299   0.549  0.1132  0.5887  2.6280
 2852SOL    HW214393   9.975   4.336   0.508  0.5879  1.1632  1.4676
 2853SOL     OW14394   7.593   2.580  10.416 -0.1167  0.2089  0.3497
 2853SOL    HW114395   7.576   2.659  10.467 -0.4956 -0.1035  0.7146
 2853SOL    HW214396   7.515   2.525  10.430  0.2976 -0.3785  0.3810
 2854SOL     OW14397   4.653   0.411   6.113  0.3097 -0.3461 -0.2781
 2854SOL    HW114398   4.622   0.354   6.184 -0.3795  2.2857  1.7028
 2854SOL    HW214399   4.661   0.353   6.037  0.0274 -3.1109  1.6433
 2855SOL     OW14400   7.107   4.444   6.524 -0.0735  0.2474 -0.2099
 2855SOL    HW114401   7.047   4.434   6.597  0.0857  0.4544 -0.0482
 2855SOL    HW214402   7.160   4.521   6.547  0.7802 -0.3900  0.0291
 2856SOL     OW14403   2.501   1.937  10.349 -0.5043 -0.5918  0.5562
 2856SOL    HW114404   2.589   1.926  10.385 -0.1882  2.6582  1.0958
 2856SOL    HW214405   2.514   1.942  10.254 -0.0413  0.2262  0.6588
 2857SOL     OW14406  10.508   6.087   9.190 -0.2679 -0.3521 -0.6952
 2857SOL    HW114407  10.592   6.117   9.156 -0.4188  0.1973 -0.6047
 2857SOL    HW214408  10.454   6.166   9.192 -0.6098 -0.5947 -0.2306
 2858SOL     OW14409   9.310   0.412   6.576 -0.4252 -0.4881  0.1972
 2858SOL    HW114410   9.374   0.343   6.597  1.6286  1.4491  0.6642
 2858SOL    HW214411   9.320   0.427   6.482 -0.2529 -0.2479  0.2530
 2859SOL     OW14412   5.582   1.523   5.382  0.1011 -0.1574 -0.2907
 2859SOL    HW114413   5.550   1.505   5.294  0.0816  0.1022 -0.3357
 2859SOL    HW214414   5.660   1.576   5.370  0.1066 -0.1324 -0.1512
 2860SOL     OW14415  10.237   5.059   7.595  0.0451  0.2245 -0.3104
 2860SOL    HW114416  10.300   4.993   7.566  1.4603  2.2922 -2.2796
 2860SOL    HW214417  10.276   5.096   7.674 -0.5473 -0.9111  0.5560
 2861SOL     OW14418   3.451   8.908   0.166 -0.1414  0.3899 -0.4331
 2861SOL    HW114419   3.496   8.907   0.251  0.4998 -2.0031 -0.7309
 2861SOL    HW214420   3.482   8.989   0.124  1.0328  0.6546  0.8389
 2862SOL     OW14421   7.516   0.556   9.026 -0.2199 -0.2253 -0.1554
 2862SOL    HW114422   7.443   0.498   9.002  0.0413 -0.2659 -0.8842
 2862SOL    HW214423   7.476   0.643   9.033 -0.5131 -0.3993  0.4100
 2863SOL     OW14424   1.148   6.929   3.459  0.1841  0.0641 -0.1459
 2863SOL    HW114425   1.073   6.869   3.454 -0.0417  0.4352 -1.4051
 2863SOL    HW214426   1.224   6.871   3.462 -0.0442 -0.3124 -1.1271
 2864SOL     OW14427   5.271   9.498   6.234 -0.5344 -0.1424 -0.1730
 2864SOL    HW114428   5.241   9.459   6.316 -0.8023 -0.7064 -0.5317
 2864SOL    HW214429   5.358   9.534   6.255 -1.3669  1.3962  0.8437
 2865SOL     OW14430  10.772   2.390   3.346  0.2111 -0.4562  0.1986
 2865SOL    HW114431  10.785   2.469   3.294 -2.1250  1.4567  2.2773
 2865SOL    HW214432  10.821   2.322   3.299  0.5703  1.7080 -2.8430
 2866SOL     OW14433   9.547   5.821  10.689 -0.2734  0.1252  0.2601
 2866SOL    HW114434   9.607   5.761  10.645 -1.2790 -0.1327 -0.7948
 2866SOL    HW214435   9.604   5.889  10.725  0.5345  1.1114 -2.6063
 2867SOL     OW14436   3.294   7.168   6.798 -0.5805 -0.4534 -0.3503
 2867SOL    HW114437   3.301   7.180   6.704  1.3617 -3.6302 -0.7605
 2867SOL    HW214438   3.288   7.073   6.810  0.5840 -0.2568  2.7771
 2868SOL     OW14439   7.785   5.668   0.405  0.0487 -0.6780 -0.2347
 2868SOL    HW114440   7.828   5.643   0.324 -1.9815  0.0932 -1.6433
 2868SOL    HW214441   7.709   5.610   0.411 -0.1234 -0.3740  0.8613
 2869SOL     OW14442   1.203   2.584   3.097 -0.1734 -0.2648  0.3065
 2869SOL    HW114443   1.144   2.620   3.031 -0.2100  1.4254  1.2033
 2869SOL    HW214444   1.233   2.502   3.059 -1.8097 -0.3704 -0.8880
 2870SOL     OW14445   4.834   3.981  10.538  0.4332 -1.3758  0.4914
 2870SOL    HW114446   4.770   3.925  10.582  0.3815 -0.5884  1.4583
 2870SOL    HW214447   4.822   3.963  10.445  0.6250 -3.1861  0.7792
 2871SOL     OW14448   5.994   3.661   2.152  0.4522  0.6178  0.3047
 2871SOL    HW114449   5.991   3.578   2.200 -0.7879  1.0764  1.0565
 2871SOL    HW214450   6.084   3.691   2.165  0.9472 -0.6350 -0.0484
 2872SOL     OW14451   6.398   9.500   4.507  0.3542 -0.3907  0.1330
 2872SOL    HW114452   6.424   9.506   4.599 -1.0973  0.5885  0.5136
 2872SOL    HW214453   6.361   9.412   4.499  1.0814 -0.7240  0.3008
 2873SOL     OW14454   4.962   6.769   0.796 -0.1509  0.4189 -0.2157
 2873SOL    HW114455   4.909   6.715   0.737  0.0897  0.8351 -0.8250
 2873SOL    HW214456   5.045   6.721   0.803 -1.0612 -0.9749  1.8796
 2874SOL     OW14457  10.606  10.504   3.839  0.3792 -0.3248  0.1111
 2874SOL    HW114458  10.642  10.542   3.759 -0.5132 -1.9270 -1.1089
 2874SOL    HW214459  10.676  10.446   3.871  0.7071  0.2573  0.4561
 2875SOL     OW14460   0.131   9.669   7.673  0.0851 -0.5597  0.3236
 2875SOL    HW114461   0.098   9.759   7.668  1.2966 -0.1460 -0.5850
 2875SOL    HW214462   0.149   9.655   7.766 -2.1132 -0.6374  0.8028
 2876SOL     OW14463   8.841   7.610   9.552 -0.0909  0.4296 -0.1324
 2876SOL    HW114464   8.747   7.628   9.559  0.4182  2.8555  2.0677
 2876SOL    HW214465   8.858   7.542   9.617 -0.4178 -0.6907 -1.1837
 2877SOL     OW14466   1.413   8.107   5.299  0.0265  0.5430 -0.3377
 2877SOL    HW114467   1.378   8.030   5.254 -0.2826 -0.1098  0.9665
 2877SOL    HW214468   1.504   8.111   5.271 -0.1060  0.0465 -0.8747
 2878SOL     OW14469   1.152   0.792   0.715  0.3877 -0.7514 -0.1411
 2878SOL    HW114470   1.235   0.771   0.672 -0.0517 -0.1798 -1.2983
 2878SOL    HW214471   1.118   0.867   0.667 -0.4200 -0.4636  0.8356
 2879SOL     OW14472   9.036   4.955   1.176  0.1955  0.4174  0.4476
 2879SOL    HW114473   9.081   4.970   1.093 -1.3190  0.5065 -0.3968
 2879SOL    HW214474   9.097   4.902   1.227  1.0893  0.2047 -0.7943
 2880SOL     OW14475   3.163   2.565   5.532  0.0516  0.3347  0.2051
 2880SOL    HW114476   3.151   2.646   5.481 -1.1698  0.2376  0.3049
 2880SOL    HW214477   3.252   2.572   5.566  1.0424  0.2673 -2.1600
 2881SOL     OW14478   0.551   1.197   3.580  0.4467 -0.2130  0.3116
 2881SOL    HW114479   0.596   1.116   3.605  0.0909 -0.7441 -0.6870
 2881SOL    HW214480   0.617   1.247   3.532  0.6147  0.0112  0.7739
 2882SOL     OW14481  10.727   2.444   1.434  0.1161 -0.3507 -0.4373
 2882SOL    HW114482  10.714   2.418   1.525 -2.0302 -0.7688 -0.8032
 2882SOL    HW214483  10.780   2.374   1.396 -0.3338 -1.0006  0.1055
 2883SOL     OW14484   6.350   8.170   7.869  0.0670  0.2313 -0.2843
 2883SOL    HW114485   6.275   8.230   7.869 -0.2307 -0.0261  2.4212
 2883SOL    HW214486   6.414   8.211   7.926  0.4513 -1.3101  0.4356
 2884SOL     OW14487   2.262   6.318   1.571 -0.1734  0.3730 -0.1874
 2884SOL    HW114488   2.183   6.365   1.599  0.7699  1.6174  0.5078
 2884SOL    HW214489   2.272   6.247   1.633 -1.8951 -1.1341 -1.5341
 2885SOL     OW14490   4.704  10.468   2.869  0.5801 -0.2843 -0.0566
 2885SOL    HW114491   4.785  10.504   2.903  0.9524 -0.0039 -1.1757
 2885SOL    HW214492   4.720  10.374   2.862  1.8918  0.0286 -2.8590
 2886SOL     OW14493   9.424  10.112   3.153 -0.3883 -0.0058 -0.2445
 2886SOL    HW114494   9.374  10.148   3.080 -0.3304 -0.1248 -0.3429
 2886SOL    HW214495   9.482  10.183   3.181 -1.1525  0.3926  0.3666
 2887SOL     OW14496   9.353   6.897   5.646 -0.0758 -0.9396  0.2297
 2887SOL    HW114497   9.335   6.941   5.562 -1.3684 -1.2547  0.3272
 2887SOL    HW214498   9.267   6.891   5.688  0.6360 -0.3121  1.8180
 2888SOL     OW14499   6.050   5.819  10.240 -0.1771  0.2071  0.2891
 2888SOL    HW114500   6.120   5.783  10.185 -2.0425 -1.9370 -0.8544
 2888SOL    HW214501   5.989   5.858  10.178 -1.1725 -0.1338  1.0286
 2889SOL     OW14502   0.164   9.083   9.191 -0.6161  0.2546 -0.1473
 2889SOL    HW114503   0.247   9.040   9.170 -0.6844  0.3630 -0.6583
 2889SOL    HW214504   0.121   9.095   9.106 -1.2555  0.0004  0.1337
 2890SOL     OW14505   9.824   0.403   5.248 -0.2135  0.1432 -0.1722
 2890SOL    HW114506   9.742   0.355   5.232 -0.0417 -0.5296  0.8667
 2890SOL    HW214507   9.867   0.405   5.162 -0.1205 -1.7940 -0.2108
 2891SOL     OW14508   7.058   0.852   4.701 -0.1492  0.4987  0.2614
 2891SOL    HW114509   6.993   0.843   4.771  0.1270 -1.1868  0.3487
 2891SOL    HW214510   7.112   0.927   4.728  0.0559 -0.2016  1.9572
 2892SOL     OW14511   9.442   1.376   4.878 -0.2179 -0.4899  0.3491
 2892SOL    HW114512   9.456   1.282   4.866 -0.9613 -0.5587 -0.0148
 2892SOL    HW214513   9.393   1.383   4.960  0.2471 -0.3876  0.6179
 2893SOL     OW14514   9.542   7.859   3.892 -0.4962 -0.0636 -0.0401
 2893SOL    HW114515   9.466   7.861   3.833  0.2557  1.1506 -1.0275
 2893SOL    HW214516   9.599   7.791   3.855 -0.4555  0.0373 -0.1645
 2894SOL     OW14517   6.901   5.582   6.629 -0.6192  0.2313 -0.0704
 2894SOL    HW114518   6.904   5.531   6.710  1.5420  1.7125  0.8778
 2894SOL    HW214519   6.934   5.522   6.562 -1.4600 -0.6951  0.3257
 2895SOL     OW14520   4.761   9.066   8.178 -0.2721  0.0325 -0.0647
 2895SOL    HW114521   4.762   9.161   8.161 -0.0746 -0.0023 -0.2541
 2895SOL    HW214522   4.852   9.046   8.201 -0.6811  0.2358  1.8968
 2896SOL     OW14523   1.164   6.344   6.064  0.2507 -0.3919 -0.0657
 2896SOL    HW114524   1.148   6.404   6.137 -0.1373 -1.7656  1.0023
 2896SOL    HW214525   1.083   6.294   6.055 -0.0019  0.2699 -1.9729
 2897SOL     OW14526   5.683   9.532   6.301  0.5454  0.6052 -0.2517
 2897SOL    HW114527   5.659   9.450   6.258  2.4127 -0.5433  0.7823
 2897SOL    HW214528   5.640   9.600   6.249 -2.2600 -1.0614 -0.3169
 2898SOL     OW14529   7.246   6.373   1.177  0.1227 -0.0510  0.1737
 2898SOL    HW114530   7.306   6.309   1.216 -0.1520 -0.4743 -0.0836
 2898SOL    HW214531   7.195   6.322   1.114 -1.3132  0.0388  1.2201
 2899SOL     OW14532   4.907  10.587   3.007 -0.1201  0.1657 -0.6976
 2899SOL    HW114533   4.948  10.673   3.012 -1.6108  0.9150 -0.6152
 2899SOL    HW214534   4.839  10.590   3.075  0.2865 -1.3559 -0.2006
 2900SOL     OW14535   5.199  10.518   5.287 -0.1729  0.3713  0.6675
 2900SOL    HW114536   5.166  10.451   5.347 -2.4104 -0.2214 -1.1000
 2900SOL    HW214537   5.154  10.598   5.314  0.2012  0.5067  0.8960
 2901SOL     OW14538   9.801   1.099   2.030 -0.3061  0.5912 -0.4658
 2901SOL    HW114539   9.812   1.033   2.099 -1.0646  1.0487  0.1125
 2901SOL    HW214540   9.707   1.098   2.012 -0.3501  1.6425 -0.3224
 2902SOL     OW14541   7.519   1.501   3.894 -0.7275  0.2797  0.2277
 2902SOL    HW114542   7.454   1.563   3.860 -0.0717 -0.1841 -2.0783
 2902SOL    HW214543   7.480   1.415   3.879 -0.2812  0.0479  0.3952
 2903SOL     OW14544   1.627   4.290   1.106 -0.0816 -0.4164  0.0185
 2903SOL    HW114545   1.585   4.312   1.189 -1.4955 -3.0078  0.0991
 2903SOL    HW214546   1.688   4.219   1.128 -1.3803 -2.0325 -1.2381
 2904SOL     OW14547   9.280   2.116  10.538 -0.3566 -0.0142 -0.1076
 2904SOL    HW114548   9.314   2.189  10.590 -1.7945  0.5218  0.1267
 2904SOL    HW214549   9.243   2.157  10.460 -2.9329 -0.2308  0.9207
 2905SOL     OW14550   8.488   8.269   1.055 -0.3557 -0.2664 -0.0880
 2905SOL    HW114551   8.487   8.208   1.129 -1.3519 -0.4428 -0.2235
 2905SOL    HW214552   8.396   8.293   1.044  0.0915  1.9140  0.4915
 2906SOL     OW14553   0.413   5.732   3.264 -0.6085  0.2153  0.3055
 2906SOL    HW114554   0.479   5.688   3.318  0.6049  1.4005 -0.1456
 2906SOL    HW214555   0.414   5.683   3.182 -2.1042 -1.2836  1.1146
 2907SOL     OW14556  10.856  10.033   3.515  0.0088  0.2300  0.3873
 2907SOL    HW114557  10.943  10.057   3.485 -0.6391  1.2160 -0.8397
 2907SOL    HW214558  10.863   9.941   3.540  1.0770 -0.0989 -0.9897
 2908SOL     OW14559   1.635   0.216   7.679 -0.0459 -0.0321 -0.0609
 2908SOL    HW114560   1.609   0.191   7.768  0.2115 -1.6495 -0.4103
 2908SOL    HW214561   1.580   0.291   7.659  0.0812  0.5468  1.5662
 2909SOL     OW14562   0.417  10.383   9.704 -0.4885 -0.0062  0.0157
 2909SOL    HW114563   0.472  10.369   9.627 -2.0729 -0.1139 -1.1448
 2909SOL    HW214564   0.449  10.465   9.742 -0.8264  1.0230 -1.8158
 2910SOL     OW14565   1.697   4.153  10.625  0.3092 -0.1445  0.1066
 2910SOL    HW114566   1.715   4.072  10.671  1.5411  0.5371  0.8739
 2910SOL    HW214567   1.618   4.135  10.574 -0.7209 -1.1259  1.9595
 2911SOL     OW14568   9.377   0.188   4.842  0.0273 -0.2605 -0.4017
 2911SOL    HW114569   9.338   0.227   4.920 -1.0939  1.0389 -1.5639
 2911SOL    HW214570   9.309   0.129   4.808  0.4091 -0.6301 -0.5328
 2912SOL     OW14571   3.431   9.525   2.678  1.1800 -0.2949 -0.2467
 2912SOL    HW114572   3.482   9.449   2.707 -0.5312 -1.1384  0.6415
 2912SOL    HW214573   3.495   9.596   2.674  2.1428 -0.8986  2.5110
 2913SOL     OW14574   2.834   6.087   7.054 -0.0832  0.6342 -0.0470
 2913SOL    HW114575   2.773   6.088   7.128  1.2763 -0.9576  1.1795
 2913SOL    HW214576   2.884   6.168   7.063 -1.2973  1.4474 -0.4605
 2914SOL     OW14577   4.259   3.440   0.136  0.1240 -0.5476  0.4098
 2914SOL    HW114578   4.195   3.370   0.152  0.9445 -1.3530  0.2559
 2914SOL    HW214579   4.337   3.412   0.184  0.0299  0.9581  1.5165
 2915SOL     OW14580   6.217   4.281   8.778 -0.2549 -0.5654  0.0505
 2915SOL    HW114581   6.209   4.319   8.691 -1.4587 -0.8411  0.0226
 2915SOL    HW214582   6.183   4.192   8.769 -1.1097 -0.3538  0.9385
 2916SOL     OW14583   8.682   7.665   5.545  0.6923  0.8067 -0.3915
 2916SOL    HW114584   8.620   7.686   5.474 -2.5860 -2.6681  1.1345
 2916SOL    HW214585   8.678   7.742   5.602 -2.1040  0.8830 -0.5222
 2917SOL     OW14586   1.176   0.465   3.605 -0.4995  0.2008 -0.3188
 2917SOL    HW114587   1.133   0.457   3.520 -0.9211  0.1801 -0.1072
 2917SOL    HW214588   1.120   0.416   3.665  0.0069 -0.1180 -0.1020
 2918SOL     OW14589   8.849   4.944   5.516  0.1039  0.3243 -0.0861
 2918SOL    HW114590   8.903   4.873   5.551 -1.3374 -1.1152 -0.6931
 2918SOL    HW214591   8.911   4.999   5.467  2.2836  2.4362  4.3730
 2919SOL     OW14592   1.036   1.121   8.909 -0.1895  0.1138 -0.0165
 2919SOL    HW114593   1.096   1.102   8.836 -0.0421 -1.5817  0.5055
 2919SOL    HW214594   1.038   1.217   8.917 -0.6396  0.4193 -2.5789
 2920SOL     OW14595   5.133   8.042   3.179 -0.2108  0.3066  0.3013
 2920SOL    HW114596   5.096   8.002   3.258  2.3874  2.6653  2.9328
 2920SOL    HW214597   5.111   8.134   3.186  2.3313  1.0339 -0.2755
 2921SOL     OW14598  10.839   1.897   3.131  0.2369 -0.1950 -0.1843
 2921SOL    HW114599  10.840   1.804   3.109  1.2754 -0.0386 -0.8831
 2921SOL    HW214600  10.881   1.902   3.217  2.4229 -0.1580 -1.2052
 2922SOL     OW14601   3.401   3.595  10.753  0.2699  0.1977  0.4841
 2922SOL    HW114602   3.437   3.573  10.839 -1.9153 -0.0999  1.3934
 2922SOL    HW214603   3.427   3.685  10.738  1.2640  0.0305  1.1381
 2923SOL     OW14604   6.323  10.040   1.276 -0.0699  0.1100  0.5270
 2923SOL    HW114605   6.387  10.059   1.345  1.1524 -2.1031  0.0950
 2923SOL    HW214606   6.239  10.036   1.322 -0.4805  5.1342  0.8249
 2924SOL     OW14607   7.121   4.922   2.877  0.5129 -0.1336  0.0920
 2924SOL    HW114608   7.134   4.873   2.796  0.7956  1.3141 -0.7726
 2924SOL    HW214609   7.122   5.014   2.850 -1.6309  0.3501  1.4111
 2925SOL     OW14610   0.692   1.911   5.092 -0.3955 -0.1884  0.3484
 2925SOL    HW114611   0.631   1.931   5.021 -1.3330 -1.5897  0.6966
 2925SOL    HW214612   0.635   1.892   5.167  0.5361 -0.0008  1.1185
 2926SOL     OW14613   9.348   1.640   3.913  0.0628 -0.2153  0.0464
 2926SOL    HW114614   9.420   1.675   3.860 -0.8708  3.5412  0.9517
 2926SOL    HW214615   9.389   1.610   3.994  0.7302  1.4119  0.3425
 2927SOL     OW14616   1.518   0.666   0.215  0.0114 -0.3003  0.1761
 2927SOL    HW114617   1.559   0.753   0.222 -0.7241  0.0092  0.8718
 2927SOL    HW214618   1.591   0.605   0.209  0.6289  0.1888  1.9494
 2928SOL     OW14619   7.062   9.514   6.143 -0.4420 -0.0496 -0.0344
 2928SOL    HW114620   6.999   9.443   6.152 -0.6983  0.3147  1.1967
 2928SOL    HW214621   7.038   9.558   6.062 -1.3174 -0.3552  0.0536
 2929SOL     OW14622   1.236   0.725   1.482 -0.0488 -0.5329 -0.3083
 2929SOL    HW114623   1.246   0.631   1.500  0.1013 -0.3728  0.4808
 2929SOL    HW214624   1.142   0.737   1.468 -0.2254 -0.6204  0.7072
 2930SOL     OW14625   4.114   1.630   4.104  0.1257 -0.1456 -0.0064
 2930SOL    HW114626   4.128   1.685   4.181  1.0745  1.9743 -1.5789
 2930SOL    HW214627   4.198   1.586   4.089  0.3019  0.3315 -0.4552
 2931SOL     OW14628   5.931   7.408   3.262  0.0976  0.1397 -0.6864
 2931SOL    HW114629   6.022   7.399   3.291  0.6763  0.6326 -2.2667
 2931SOL    HW214630   5.880   7.376   3.336  1.5871 -1.7050 -0.3609
 2932SOL     OW14631   3.381   4.700   9.943 -0.0465  0.0733  0.2575
 2932SOL    HW114632   3.452   4.683  10.005 -0.3381 -0.9533  0.3296
 2932SOL    HW214633   3.322   4.760   9.988  0.9217  1.1885  0.0798
 2933SOL     OW14634   4.464   9.592   3.958 -0.3965 -0.0826  0.1333
 2933SOL    HW114635   4.401   9.528   3.991  1.2912 -1.0005  1.7984
 2933SOL    HW214636   4.538   9.539   3.926  1.0316  0.9532  1.5327
 2934SOL     OW14637   4.902  10.629   0.018 -0.2777 -0.5370  0.2912
 2934SOL    HW114638   4.952  10.640   0.099 -0.7535  0.8719  0.4094
 2934SOL    HW214639   4.953  10.674  -0.049 -1.4285  1.0469  0.4439
 2935SOL     OW14640   7.434   4.773   8.107 -0.1324  0.0496 -0.1796
 2935SOL    HW114641   7.457   4.740   8.193  0.4456  0.3850 -0.2015
 2935SOL    HW214642   7.437   4.868   8.116  0.5828  0.0872 -0.7402
 2936SOL     OW14643   6.464   1.522   7.185 -0.4174 -0.1054 -0.1737
 2936SOL    HW114644   6.436   1.445   7.135  0.7851 -0.0919 -0.8987
 2936SOL    HW214645   6.523   1.487   7.252 -1.4941 -0.0420  0.8462
 2937SOL     OW14646   1.596   3.384   0.925 -0.0014  0.8765 -0.0116
 2937SOL    HW114647   1.540   3.393   0.848 -1.5729  0.3084  1.0156
 2937SOL    HW214648   1.642   3.468   0.930 -0.8426  1.4124 -0.8284
 2938SOL     OW14649   5.067   3.120   7.503  0.0659  0.2712 -0.4068
 2938SOL    HW114650   5.089   3.171   7.425  0.5949  0.2179 -0.2950
 2938SOL    HW214651   5.097   3.174   7.577 -1.6364  0.9327 -0.1630
 2939SOL     OW14652   2.674   3.145   9.761  0.0401 -0.2824  0.3849
 2939SOL    HW114653   2.602   3.123   9.820  0.2110 -1.4848  0.1720
 2939SOL    HW214654   2.694   3.237   9.781 -2.9520  0.8027 -1.0450
 2940SOL     OW14655   1.128   8.311   5.771  0.8199  0.0269 -0.1276
 2940SOL    HW114656   1.112   8.328   5.678  2.1116 -0.2583 -0.4211
 2940SOL    HW214657   1.063   8.364   5.816 -1.0696 -1.2472 -1.2077
 2941SOL     OW14658   0.991   3.992   3.898  0.0721  0.6229  0.0511
 2941SOL    HW114659   0.915   4.007   3.954 -0.2704 -0.6198 -0.0446
 2941SOL    HW214660   1.060   3.962   3.957 -0.4087 -1.0780 -0.1948
 2942SOL     OW14661   3.927   9.882   4.222 -0.3097  0.0945  0.1266
 2942SOL    HW114662   3.908   9.788   4.214 -2.1848  0.3500  1.0961
 2942SOL    HW214663   3.921   9.915   4.133  3.1124 -1.0889 -0.7128
 2943SOL     OW14664   6.947  10.470   0.229 -0.1534 -0.5723 -0.2655
 2943SOL    HW114665   6.989  10.405   0.174  0.8080 -0.0040 -0.2376
 2943SOL    HW214666   7.014  10.494   0.293 -1.1501 -1.0138  0.9841
 2944SOL     OW14667  10.847   6.027   1.616  0.1795 -0.7340  0.6815
 2944SOL    HW114668  10.825   5.964   1.548  1.9206 -1.0755  0.3960
 2944SOL    HW214669  10.827   5.982   1.698  0.3861 -1.2582  0.4495
 2945SOL     OW14670  10.385   8.278   2.328  0.3825  0.4806 -0.4159
 2945SOL    HW114671  10.416   8.368   2.318  1.3858 -0.0078 -2.2986
 2945SOL    HW214672  10.303   8.275   2.278  0.2275  0.4049 -0.1583
 2946SOL     OW14673   7.597  10.222   0.954  0.1737  0.8343  0.9377
 2946SOL    HW114674   7.530  10.269   1.004 -0.0287 -0.1870  1.6574
 2946SOL    HW214675   7.587  10.254   0.865 -1.0526  0.9515  1.0975
 2947SOL     OW14676   8.674   1.092  10.170  0.2015  0.0273 -0.1624
 2947SOL    HW114677   8.637   1.177  10.196  1.2155  1.4667 -2.9945
 2947SOL    HW214678   8.620   1.064  10.096  1.3716 -0.5579 -0.8255
 2948SOL     OW14679   7.523   4.451   8.470  0.9268 -0.4690 -0.2604
 2948SOL    HW114680   7.607   4.408   8.489  0.4094 -1.7214 -0.7027
 2948SOL    HW214681   7.532   4.485   8.381  0.7378 -1.2020 -0.5649
 2949SOL     OW14682   1.363   0.360   9.330 -0.3416 -0.0651 -1.1408
 2949SOL    HW114683   1.306   0.387   9.258 -0.1748  0.3829 -1.1070
 2949SOL    HW214684   1.315   0.384   9.409  1.4954  4.0753 -1.0197
 2950SOL     OW14685   7.505   1.133   4.466  0.3071  0.4425  0.2080
 2950SOL    HW114686   7.450   1.146   4.389  1.5322 -1.2152 -1.0405
 2950SOL    HW214687   7.460   1.179   4.536 -2.7030 -0.9061 -0.7005
 2951SOL     OW14688   4.730   8.081   2.466  1.3214 -0.0137  0.2400
 2951SOL    HW114689   4.794   8.133   2.516  1.9280 -0.3219 -0.1924
 2951SOL    HW214690   4.762   7.991   2.473  1.4252 -0.0594 -0.7072
 2952SOL     OW14691   3.149   1.250   7.386  0.2146 -0.2588 -0.0581
 2952SOL    HW114692   3.125   1.331   7.432  0.7430  0.2503 -0.6547
 2952SOL    HW214693   3.164   1.186   7.456 -0.7986 -0.0115  0.3990
 2953SOL     OW14694   4.093   3.014   5.411  0.0033  0.2360 -0.3122
 2953SOL    HW114695   4.159   2.968   5.463  0.3904 -0.1263 -1.1047
 2953SOL    HW214696   4.056   2.946   5.355  0.0841  0.7567 -1.0033
 2954SOL     OW14697   1.828   6.274   6.546 -0.0830  0.0368  0.2769
 2954SOL    HW114698   1.890   6.240   6.482 -0.8830  1.6942 -1.4579
 2954SOL    HW214699   1.775   6.198   6.571  0.3952 -0.6828 -0.8392
 2955SOL     OW14700   8.913   0.370   9.784  0.2458 -0.1602 -0.1924
 2955SOL    HW114701   8.906   0.436   9.853  2.3171  0.9690 -0.9995
 2955SOL    HW214702   8.829   0.323   9.788 -0.7692  1.6427  1.2602
 2956SOL     OW14703   6.706   0.044   9.335  0.2407  0.5290  0.5153
 2956SOL    HW114704   6.705   0.135   9.366  1.8111  1.1990 -1.1797
 2956SOL    HW214705   6.785   0.006   9.373  0.8686  0.6336 -0.6334
 2957SOL     OW14706   1.213   7.662   8.030 -0.1695  0.3925  0.7000
 2957SOL    HW114707   1.202   7.645   8.124 -0.2517  1.2851  0.8601
 2957SOL    HW214708   1.244   7.753   8.026 -0.0379  0.3132 -0.1329
 2958SOL     OW14709   2.822   4.465   3.990  0.0321 -0.1082  0.7470
 2958SOL    HW114710   2.751   4.405   4.012  2.2051 -2.5255  1.7066
 2958SOL    HW214711   2.879   4.464   4.067  0.9100  2.1452  0.2195
 2959SOL     OW14712   7.375   0.365   3.958  0.1524  0.1643  0.5607
 2959SOL    HW114713   7.396   0.282   3.916 -1.5720  0.1326 -0.2910
 2959SOL    HW214714   7.329   0.340   4.038  0.2463  0.2985  0.6577
 2960SOL     OW14715   8.296   2.404   2.193 -0.7268  0.1333  0.3182
 2960SOL    HW114716   8.275   2.362   2.277  1.4530 -0.5083  0.6169
 2960SOL    HW214717   8.354   2.342   2.150  0.0468  1.4869 -0.6554
 2961SOL     OW14718   8.316   3.363   1.926 -0.1347  0.3508 -0.3554
 2961SOL    HW114719   8.327   3.334   2.016  1.2658 -0.2684 -0.6914
 2961SOL    HW214720   8.329   3.458   1.930 -0.9453  0.4451  0.2061
 2962SOL     OW14721   6.251   3.848   6.511  0.1946  0.7482 -0.5017
 2962SOL    HW114722   6.220   3.840   6.421 -0.8453 -2.0493 -0.0085
 2962SOL    HW214723   6.346   3.849   6.504  0.2917 -2.9318 -1.6007
 2963SOL     OW14724   8.017   9.896   9.928  0.2691 -0.1265 -0.0245
 2963SOL    HW114725   7.970   9.942   9.859  0.6579  0.6627  0.2252
 2963SOL    HW214726   8.070   9.963   9.971  1.2786 -0.8978 -0.0050
 2964SOL     OW14727  10.855   0.657   3.921 -0.2384 -0.0992  0.3418
 2964SOL    HW114728  10.809   0.722   3.973  0.4434  0.5857  0.1199
 2964SOL    HW214729  10.821   0.669   3.832  0.6717  0.7227  0.0887
 2965SOL     OW14730   2.239   4.496   1.491 -0.1356 -0.1038  0.3570
 2965SOL    HW114731   2.225   4.590   1.481  1.2047 -0.0953 -2.3396
 2965SOL    HW214732   2.173   4.455   1.434 -0.0579 -0.7692  0.7256
 2966SOL     OW14733   5.412   5.440   4.639 -0.1482  0.2629 -0.0673
 2966SOL    HW114734   5.393   5.524   4.597  2.0761  1.7502  1.6588
 2966SOL    HW214735   5.353   5.437   4.714 -0.3698  0.1761 -0.2435
 2967SOL     OW14736   4.873   5.585   8.775 -0.3267 -0.0621  0.0673
 2967SOL    HW114737   4.882   5.643   8.850 -0.4444 -0.8122  0.6648
 2967SOL    HW214738   4.962   5.580   8.738 -0.0634 -0.4843  0.7472
 2968SOL     OW14739   2.992   3.757  10.619 -0.6542 -0.2657 -0.2812
 2968SOL    HW114740   2.913   3.793  10.660 -1.0632 -0.7492 -0.6353
 2968SOL    HW214741   3.053   3.832  10.614 -1.7612  0.5891 -1.7198
 2969SOL     OW14742   6.546   9.477   8.664 -0.8235  0.0305 -0.1487
 2969SOL    HW114743   6.608   9.407   8.685 -0.3236  0.1114 -1.2705
 2969SOL    HW214744   6.544   9.532   8.742 -2.5835 -2.1647  1.4873
 2970SOL     OW14745   4.481   4.168   1.860  0.1680 -0.1875  0.1202
 2970SOL    HW114746   4.542   4.099   1.835  0.1347 -0.2934  0.3315
 2970SOL    HW214747   4.394   4.132   1.840  0.1917  0.0928 -0.4951
 2971SOL     OW14748   7.383   9.343   9.749  0.1501 -0.0933 -0.0874
 2971SOL    HW114749   7.324   9.267   9.747  0.9512 -0.7077 -0.5516
 2971SOL    HW214750   7.379   9.379   9.660 -1.5777  1.4976  0.5473
 2972SOL     OW14751   6.286   5.067   7.939  0.5563 -0.4459 -0.1732
 2972SOL    HW114752   6.283   5.010   7.862  1.2882 -1.8827  0.8084
 2972SOL    HW214753   6.357   5.031   7.992 -0.4571 -0.0007  1.5654
 2973SOL     OW14754   9.470   7.962   8.747  0.2798  0.0777 -0.6487
 2973SOL    HW114755   9.379   7.989   8.741 -0.1883 -0.9762  0.8522
 2973SOL    HW214756   9.500   7.956   8.657 -2.0466 -2.4195 -1.3802
 2974SOL     OW14757   9.441   7.639   7.420  0.1789 -0.6290 -0.6079
 2974SOL    HW114758   9.408   7.570   7.362 -0.3291 -0.3000 -0.7213
 2974SOL    HW214759   9.484   7.701   7.361 -0.0915 -0.4345 -0.6025
 2975SOL     OW14760   0.411   1.756   6.134  0.0401  0.3988  0.0278
 2975SOL    HW114761   0.484   1.797   6.087 -1.3551  1.0806 -1.7033
 2975SOL    HW214762   0.341   1.752   6.068 -0.4682 -3.2713  0.5880
 2976SOL     OW14763   9.564   3.501   0.863  0.4757  0.2116  0.6679
 2976SOL    HW114764   9.603   3.520   0.778  0.7605  0.4940  0.8605
 2976SOL    HW214765   9.540   3.408   0.858  0.6651  0.1787  0.3522
 2977SOL     OW14766   1.023   1.189   0.694 -0.2667 -0.2664  0.3654
 2977SOL    HW114767   0.963   1.132   0.646  0.4755 -1.6168  1.0023
 2977SOL    HW214768   1.001   1.277   0.663 -1.4218 -0.8752 -0.6593
 2978SOL     OW14769   5.297   3.365   3.372  0.0526  0.8802 -0.0590
 2978SOL    HW114770   5.228   3.384   3.309  0.1775  0.5865 -0.2928
 2978SOL    HW214771   5.315   3.448   3.415 -0.4233  0.9605 -0.0206
 2979SOL     OW14772   6.971   2.584   0.691 -0.0132  0.6089 -0.2079
 2979SOL    HW114773   6.938   2.673   0.689  0.1702  0.6962  0.4859
 2979SOL    HW214774   7.000   2.570   0.782  0.8445  0.1769 -0.5294
 2980SOL     OW14775   9.565   4.696   5.040  0.6731 -0.3500  0.4895
 2980SOL    HW114776   9.561   4.792   5.040  5.4470  0.1800 -1.7449
 2980SOL    HW214777   9.512   4.670   4.965  1.6874  0.9424 -0.7401
 2981SOL     OW14778   9.215   7.769   8.275  0.3419 -0.3239 -0.1778
 2981SOL    HW114779   9.272   7.747   8.201 -0.5921  0.5933 -1.2140
 2981SOL    HW214780   9.208   7.864   8.272 -0.0235 -0.3041  0.8773
 2982SOL     OW14781   7.117  10.888   0.468  0.1745 -0.1166 -0.4109
 2982SOL    HW114782   7.164  10.909   0.388 -0.4489 -0.7396 -0.9537
 2982SOL    HW214783   7.055  10.961   0.479 -0.3706 -0.4753 -1.0072
 2983SOL     OW14784   5.014   4.361   8.695  0.1508 -0.2560  0.0056
 2983SOL    HW114785   4.974   4.408   8.769 -0.1397  0.8761 -0.8450
 2983SOL    HW214786   5.108   4.364   8.713  0.3258  2.3386 -0.9163
 2984SOL     OW14787   4.156   5.141   5.914  0.6436 -0.5990 -0.5354
 2984SOL    HW114788   4.106   5.069   5.875 -0.7307 -0.4876  0.9258
 2984SOL    HW214789   4.110   5.220   5.887  0.4345 -0.4507  0.2403
 2985SOL     OW14790   4.310   4.084   0.312 -0.0499  0.7872  0.0280
 2985SOL    HW114791   4.223   4.124   0.315  0.1663  1.2791 -0.1674
 2985SOL    HW214792   4.324   4.051   0.401 -1.0351 -0.6170 -0.2922
 2986SOL     OW14793   4.025   0.342   6.611 -0.3470  0.1102  0.1310
 2986SOL    HW114794   3.960   0.411   6.596 -2.4928 -1.7261  0.4363
 2986SOL    HW214795   4.027   0.332   6.706 -2.7650 -2.5321  0.0269
 2987SOL     OW14796   0.852   2.823   8.097 -0.0125 -0.0420 -0.3402
 2987SOL    HW114797   0.800   2.833   8.017 -0.2447  0.5474 -0.1201
 2987SOL    HW214798   0.840   2.731   8.122  1.7007 -0.8238 -2.0928
 2988SOL     OW14799   1.142   9.537   5.244 -0.2534 -0.5344 -0.0832
 2988SOL    HW114800   1.145   9.525   5.339  1.2624 -0.6102 -0.1155
 2988SOL    HW214801   1.052   9.564   5.226 -0.3761  0.1881  1.4588
 2989SOL     OW14802   2.468   1.672   9.581  0.4062 -0.0939 -0.1216
 2989SOL    HW114803   2.534   1.740   9.590  0.4675 -0.2048  0.3190
 2989SOL    HW214804   2.500   1.601   9.637 -0.2929  0.0135  0.4308
 2990SOL     OW14805   8.614   6.456   7.662  0.0088  0.5721 -0.1513
 2990SOL    HW114806   8.660   6.528   7.621 -0.6335  0.1370 -1.7053
 2990SOL    HW214807   8.579   6.493   7.743 -0.4614  2.0747 -0.9957
 2991SOL     OW14808   9.734   6.945   2.569  0.4195  0.2277 -0.4072
 2991SOL    HW114809   9.759   7.038   2.573  0.8894  0.1391 -1.0946
 2991SOL    HW214810   9.759   6.918   2.480 -3.0351  0.4068 -1.6015
 2992SOL     OW14811   6.566   8.995   7.571  0.2417  0.5771  0.9129
 2992SOL    HW114812   6.538   8.915   7.527  0.2549  2.2106 -2.3590
 2992SOL    HW214813   6.494   9.057   7.556  2.5514  2.8755 -1.9406
 2993SOL     OW14814   3.749   9.660   7.078  0.0101  0.3175 -0.1173
 2993SOL    HW114815   3.693   9.593   7.039  0.6376  0.7433 -1.8364
 2993SOL    HW214816   3.793   9.616   7.150  0.3928 -1.1417 -1.1952
 2994SOL     OW14817   2.313   6.061   3.776  0.4084  0.2531  0.0299
 2994SOL    HW114818   2.226   6.041   3.810  1.4464 -1.4798  1.9395
 2994SOL    HW214819   2.348   6.126   3.838  0.9295 -0.0448  0.0543
 2995SOL     OW14820  10.804  10.254   8.253  0.1158 -0.4554  0.3732
 2995SOL    HW114821  10.773  10.314   8.185 -2.0021  0.5587  2.0997
 2995SOL    HW214822  10.885  10.218   8.218 -1.1937 -0.5437 -2.9891
 2996SOL     OW14823   9.312   6.569   4.749  0.0150 -0.0217 -0.3477
 2996SOL    HW114824   9.286   6.580   4.658  0.7686  1.2005 -0.4397
 2996SOL    HW214825   9.399   6.529   4.745  0.5741  1.1426 -0.2213
 2997SOL     OW14826  10.179   6.226   1.696 -0.1843  0.6509 -0.6166
 2997SOL    HW114827  10.189   6.172   1.617  0.0092  0.4714 -0.4705
 2997SOL    HW214828  10.153   6.312   1.663  0.0688  0.6241 -0.8877
 2998SOL     OW14829   0.935   4.079   2.940 -0.0126  0.2913  0.1834
 2998SOL    HW114830   0.925   4.162   2.986 -0.1020 -0.0445  0.7857
 2998SOL    HW214831   1.004   4.033   2.988  0.3246  0.1788 -0.3910
 2999SOL     OW14832   2.860   5.405   0.951 -0.3681 -0.1217 -0.1255
 2999SOL    HW114833   2.815   5.490   0.948  0.9909  0.6144 -0.3474
 2999SOL    HW214834   2.950   5.425   0.927 -0.2562 -1.8181 -1.2603
 3000SOL     OW14835   7.604   0.165   7.177 -0.4700 -0.0399  0.3213
 3000SOL    HW114836   7.652   0.234   7.130  1.3483 -1.7997 -0.5639
 3000SOL    HW214837   7.647   0.084   7.149 -2.5313 -1.5395  1.3300
 3001SOL     OW14838   2.178   4.590   0.032  0.2023  0.4544  0.6926
 3001SOL    HW114839   2.083   4.605   0.031  0.1559  0.1731  0.3389
 3001SOL    HW214840   2.191   4.529   0.105 -0.0652 -0.5313 -0.0609
 3002SOL     OW14841  10.105   7.499   1.298  0.1564  0.1530  0.4885
 3002SOL    HW114842  10.139   7.410   1.289  1.0424  0.6074 -1.3130
 3002SOL    HW214843  10.107   7.533   1.208 -0.6617  1.8103  1.0719
 3003SOL     OW14844   8.101  10.281   5.702  0.3202  0.3631  0.1166
 3003SOL    HW114845   8.027  10.340   5.689 -0.9451 -1.3627 -0.8441
 3003SOL    HW214846   8.095  10.256   5.795 -0.7497 -0.3039 -0.1161
 3004SOL     OW14847   1.289   5.961  10.065  0.1094  0.3405  0.6225
 3004SOL    HW114848   1.217   5.978  10.004 -0.3840  2.2721  1.6664
 3004SOL    HW214849   1.276   5.870  10.092  0.5102 -0.6790 -2.2959
 3005SOL     OW14850   3.900   4.504   8.934 -0.3350  0.2216  0.3116
 3005SOL    HW114851   3.805   4.491   8.924 -0.3515  0.6425 -0.0810
 3005SOL    HW214852   3.938   4.464   8.856 -0.0945 -1.0248  1.0441
 3006SOL     OW14853   3.999   9.081   6.799  0.1245  0.1522  0.3704
 3006SOL    HW114854   4.043   9.089   6.883 -1.4550  0.5464  1.2089
 3006SOL    HW214855   3.905   9.082   6.820 -0.3330  0.7151 -1.4224
 3007SOL     OW14856   5.054   4.423   5.700 -0.0093 -0.7478 -0.4610
 3007SOL    HW114857   5.092   4.341   5.730  0.4478 -0.1774  0.5865
 3007SOL    HW214858   5.129   4.481   5.688 -0.3578 -0.3671 -0.8482
 3008SOL     OW14859   5.656  10.300   7.979  0.4143  0.2530  0.0810
 3008SOL    HW114860   5.653  10.217   8.027 -1.2122  1.0461  1.4484
 3008SOL    HW214861   5.568  10.311   7.944  1.0178  0.7258 -1.3698
 3009SOL     OW14862   1.332   8.752   1.905  0.1903  0.2853 -0.2469
 3009SOL    HW114863   1.365   8.822   1.849  1.9694  0.1216  0.5328
 3009SOL    HW214864   1.316   8.794   1.989  0.5977 -0.0940  0.0259
 3010SOL     OW14865   2.633   8.473  10.415  0.3758 -0.5794 -0.0302
 3010SOL    HW114866   2.546   8.512  10.423  0.7394  0.0364  1.0410
 3010SOL    HW214867   2.621   8.383  10.445 -0.5075 -1.4682 -2.6883
 3011SOL     OW14868   4.069   1.788   4.869 -0.8785 -0.5122  0.2106
 3011SOL    HW114869   4.017   1.785   4.789 -1.5485 -2.3638  0.6864
 3011SOL    HW214870   4.007   1.812   4.938 -0.2974  1.1060  0.2288
 3012SOL     OW14871  10.298   8.271   6.642 -0.0025 -0.0228 -0.1309
 3012SOL    HW114872  10.297   8.176   6.630  0.8054 -0.1898  1.0041
 3012SOL    HW214873  10.322   8.284   6.733  0.6123  1.2935 -0.4542
 3013SOL     OW14874   5.766  10.260   7.237 -0.4236 -0.7119 -0.2929
 3013SOL    HW114875   5.836  10.292   7.295 -0.1714 -0.7497 -0.5718
 3013SOL    HW214876   5.751  10.332   7.176 -1.6869 -0.1028  0.6825
 3014SOL     OW14877   1.244   1.406   9.046  0.9289  0.0849 -0.3710
 3014SOL    HW114878   1.300   1.350   9.100 -0.5582 -1.0959  0.0201
 3014SOL    HW214879   1.248   1.368   8.959 -1.1452 -1.5420  0.1796
 3015SOL     OW14880   5.082  10.926   8.987 -0.3026  0.7391  0.1203
 3015SOL    HW114881   5.119  10.966   8.909  0.9192 -0.9860 -0.2500
 3015SOL    HW214882   5.082  10.995   9.052  0.7712  1.6136 -0.7729
 3016SOL     OW14883   0.670   8.125   2.402 -0.0523  0.3331  0.3698
 3016SOL    HW114884   0.740   8.152   2.343 -1.1065  1.8281 -0.2760
 3016SOL    HW214885   0.619   8.061   2.351  0.4892 -0.3059  0.6216
 3017SOL     OW14886   4.850   4.280   8.267 -0.0061 -0.5199  0.5160
 3017SOL    HW114887   4.913   4.352   8.265  1.5237 -1.7923  0.6199
 3017SOL    HW214888   4.845   4.255   8.359  2.4565 -2.9485  0.1240
 3018SOL     OW14889   1.370   0.146   8.773  0.0711  0.2432  0.3002
 3018SOL    HW114890   1.274   0.147   8.773  0.0048  0.2014 -1.9092
 3018SOL    HW214891   1.392   0.067   8.723  1.3566 -1.1174  2.8070
 3019SOL     OW14892   7.544   0.065   0.608  0.0033  0.2051 -0.2163
 3019SOL    HW114893   7.624   0.025   0.643  0.1721  3.3956  3.7531
 3019SOL    HW214894   7.474   0.027   0.661 -0.5399  0.8554 -0.4637
 3020SOL     OW14895   0.111   6.812   0.322  0.0288  0.4026  0.3025
 3020SOL    HW114896   0.078   6.846   0.239  0.4244  2.3149  0.8769
 3020SOL    HW214897   0.071   6.867   0.389  0.5911 -0.3752  1.3154
 3021SOL     OW14898   0.032   9.640   7.413 -0.0416 -0.1169  0.2760
 3021SOL    HW114899   0.045   9.670   7.503  0.3743 -1.1290  0.5644
 3021SOL    HW214900  -0.053   9.597   7.414 -0.0087 -0.1829  0.1994
 3022SOL     OW14901   6.197   6.100   9.215 -0.3949  0.0681 -0.2448
 3022SOL    HW114902   6.164   6.156   9.285  0.0118  0.9077 -0.7104
 3022SOL    HW214903   6.291   6.112   9.216 -0.3069 -0.5565 -0.4054
 3023SOL     OW14904   3.352   4.930   0.017  0.2497 -0.3885  0.0629
 3023SOL    HW114905   3.425   4.979  -0.020 -0.2883  2.3542  2.2337
 3023SOL    HW214906   3.284   4.934  -0.050  1.1188 -0.4946 -0.8514
 3024SOL     OW14907   2.095  10.534   0.394  0.1296  0.2127  0.3260
 3024SOL    HW114908   2.026  10.534   0.328  1.1859 -0.6761 -0.8216
 3024SOL    HW214909   2.057  10.486   0.468  0.2173 -2.2322 -1.1059
 3025SOL     OW14910   5.062   5.924   9.196  0.8244 -0.4240 -0.1371
 3025SOL    HW114911   5.063   5.893   9.287  0.0962 -0.6131 -0.1874
 3025SOL    HW214912   5.154   5.926   9.171  1.0312 -0.4627  0.5736
 3026SOL     OW14913   1.466   1.371   1.352 -0.2227  0.8382 -0.0359
 3026SOL    HW114914   1.496   1.281   1.339  0.1064  1.0357 -0.6853
 3026SOL    HW214915   1.400   1.384   1.284 -2.9605 -0.0675  2.2553
 3027SOL     OW14916   2.764   7.877   7.118  0.6859  0.5046 -0.1064
 3027SOL    HW114917   2.795   7.949   7.172 -1.2610 -0.0860  1.9552
 3027SOL    HW214918   2.834   7.812   7.123  1.1154  1.0009  0.6428
 3028SOL     OW14919   3.627   6.520   0.876 -0.0014  0.3322 -0.1423
 3028SOL    HW114920   3.643   6.551   0.787 -0.7553  0.6099 -0.1864
 3028SOL    HW214921   3.532   6.521   0.886 -0.1334 -2.6763 -0.3738
 3029SOL     OW14922   4.993   5.806   8.601 -0.0957  0.0439  0.1214
 3029SOL    HW114923   4.920   5.799   8.540  0.3329 -0.7936 -0.3090
 3029SOL    HW214924   5.066   5.839   8.549  0.1776 -0.3461  0.2487
 3030SOL     OW14925   7.320   4.860   5.002 -0.0555 -0.0292  0.8768
 3030SOL    HW114926   7.406   4.825   5.024 -0.4295 -1.5385  0.0609
 3030SOL    HW214927   7.336   4.950   4.975  1.3226 -0.4277  0.3158
 3031SOL     OW14928  10.259   8.474   3.514 -0.3509  0.0303  0.2977
 3031SOL    HW114929  10.343   8.515   3.495 -0.5288  0.6088  0.7120
 3031SOL    HW214930  10.281   8.387   3.547  0.1272  0.4693  1.1768
 3032SOL     OW14931   7.398   7.352   4.915  0.5540  0.1488  0.0735
 3032SOL    HW114932   7.403   7.430   4.860  0.6285 -0.1967 -0.4190
 3032SOL    HW214933   7.371   7.282   4.855 -1.3850  0.1500  0.8600
 3033SOL     OW14934   6.823   7.126   1.457  0.3894  0.0387 -0.2387
 3033SOL    HW114935   6.871   7.207   1.475  2.0996 -1.0334  0.2725
 3033SOL    HW214936   6.890   7.065   1.428 -0.9699 -1.0204 -1.2729
 3034SOL     OW14937   2.683   6.035   9.692  0.8019 -0.0511 -0.2662
 3034SOL    HW114938   2.673   6.016   9.785  0.7314  2.6056  0.3457
 3034SOL    HW214939   2.667   5.951   9.648 -0.6439 -1.0480  2.0100
 3035SOL     OW14940   6.730   7.328  10.600  0.2781 -0.1725 -0.1203
 3035SOL    HW114941   6.698   7.375  10.677  0.4293  2.4234 -1.5341
 3035SOL    HW214942   6.769   7.248  10.635 -0.6929  0.3610  2.3571
 3036SOL     OW14943   2.537   4.767   5.941 -0.1168 -0.2343  0.5763
 3036SOL    HW114944   2.593   4.773   6.018 -0.4212 -0.4760  0.8156
 3036SOL    HW214945   2.507   4.857   5.926  0.9120  0.0287  0.0146
 3037SOL     OW14946  10.683   6.008  10.217 -0.0530 -0.0798 -0.1329
 3037SOL    HW114947  10.671   6.090  10.265  0.2098 -1.2825  2.1589
 3037SOL    HW214948  10.776   6.008  10.193  0.5011 -0.6109  1.8038
 3038SOL     OW14949   0.392   7.246   7.287  0.2708 -0.0411 -0.3346
 3038SOL    HW114950   0.302   7.279   7.280  0.2689 -0.0472 -0.3398
 3038SOL    HW214951   0.418   7.231   7.196  0.1121 -0.4803 -0.3086
 3039SOL     OW14952   0.781   2.457   1.099  0.1962  0.7421 -0.0338
 3039SOL    HW114953   0.721   2.520   1.139  0.8873  0.4916  1.4428
 3039SOL    HW214954   0.796   2.391   1.166  0.5348 -0.3106 -1.0967
 3040SOL     OW14955   7.093   9.714   6.479 -0.4253  0.8580 -0.3869
 3040SOL    HW114956   7.036   9.718   6.403 -0.0397  2.2243 -0.6213
 3040SOL    HW214957   7.169   9.767   6.456  0.8773 -0.7182  0.0089
 3041SOL     OW14958   4.215   2.817  10.044 -0.5264  0.7554  0.0673
 3041SOL    HW114959   4.303   2.802  10.078 -0.7398  1.7123  1.0916
 3041SOL    HW214960   4.163   2.744  10.079 -0.2271  0.3836 -0.2519
 3042SOL     OW14961  10.724   1.679   7.020  0.1224  0.0424 -0.3494
 3042SOL    HW114962  10.757   1.645   7.103 -0.1336  0.0981 -0.2248
 3042SOL    HW214963  10.803   1.695   6.968  0.2262 -1.3474 -0.6485
 3043SOL     OW14964   0.066   7.098   2.603 -0.2662 -0.4686  0.5054
 3043SOL    HW114965   0.103   7.143   2.527  1.3612 -0.1567  1.4167
 3043SOL    HW214966   0.117   7.017   2.610 -0.7085 -0.7093  0.9864
 3044SOL     OW14967   9.087   7.585   9.400  0.6151 -0.3106  0.3327
 3044SOL    HW114968   9.003   7.597   9.446  0.9632 -3.4837  2.1585
 3044SOL    HW214969   9.151   7.627   9.457  0.7108 -1.8395  1.4299
 3045SOL     OW14970   3.703   8.490   2.239 -0.2256  0.3986  0.5129
 3045SOL    HW114971   3.767   8.420   2.242 -0.6658 -0.1240 -1.0962
 3045SOL    HW214972   3.731   8.552   2.307  1.5765 -0.1359  0.3070
 3046SOL     OW14973   4.672   9.328   7.150  0.3058 -0.4109 -0.2272
 3046SOL    HW114974   4.605   9.392   7.178  0.9085  0.8717 -1.5822
 3046SOL    HW214975   4.746   9.345   7.209  0.4339  0.1129 -0.5271
 3047SOL     OW14976   8.856   4.386   8.840 -0.3605  0.3651 -0.1619
 3047SOL    HW114977   8.804   4.444   8.895  0.2097  2.3012 -1.5605
 3047SOL    HW214978   8.946   4.398   8.871  0.1632  2.4685 -2.1814
 3048SOL     OW14979   4.622   4.459   4.010  0.1590  0.2861  0.0380
 3048SOL    HW114980   4.544   4.492   3.966 -0.6116  0.1880  1.2682
 3048SOL    HW214981   4.603   4.471   4.103  0.2950 -2.5720  0.5182
 3049SOL     OW14982   1.196   4.970   6.645 -0.0810 -0.2296  0.2058
 3049SOL    HW114983   1.277   4.929   6.615 -0.5267  0.1842 -1.6936
 3049SOL    HW214984   1.207   5.063   6.622 -0.3778  0.1691  1.5736
 3050SOL     OW14985   8.625   4.419   3.484 -0.0408 -0.2451  0.4160
 3050SOL    HW114986   8.696   4.355   3.477  1.6812  1.4265  1.4976
 3050SOL    HW214987   8.546   4.366   3.491  1.1368 -2.2097 -0.2102
 3051SOL     OW14988   0.237   8.278   4.168  0.9176  0.1166 -0.1677
 3051SOL    HW114989   0.298   8.220   4.122 -1.6548 -0.9569 -2.4869
 3051SOL    HW214990   0.185   8.219   4.223 -1.3042  0.1716 -2.0706
 3052SOL     OW14991   6.939   5.540   2.218  0.1274 -0.3188  0.0423
 3052SOL    HW114992   6.844   5.538   2.230  0.1923 -0.7597  0.5326
 3052SOL    HW214993   6.951   5.549   2.124 -0.4017  0.2442  0.0241
 3053SOL     OW14994   3.465   5.095   2.070  0.4382 -0.5347  0.2316
 3053SOL    HW114995   3.550   5.138   2.081 -0.6693  1.7242  0.7729
 3053SOL    HW214996   3.423   5.103   2.156 -0.8410 -0.3325 -0.3862
 3054SOL     OW14997   0.829   1.209   9.575  0.2232 -0.4699  0.1981
 3054SOL    HW114998   0.736   1.187   9.582  0.0090  0.1474 -0.5929
 3054SOL    HW214999   0.832   1.283   9.515  1.0741  0.5929  1.4829
 3055SOL     OW15000   3.191   2.502   3.131 -0.1791 -0.3665  0.0214
 3055SOL    HW115001   3.122   2.556   3.170  0.6491  0.2859  0.6326
 3055SOL    HW215002   3.271   2.553   3.144  0.2733 -0.5331 -1.7561
 3056SOL     OW15003   5.667  10.199   8.752  0.1704  0.1840  0.3911
 3056SOL    HW115004   5.680  10.175   8.844 -1.8463  0.9458  0.9496
 3056SOL    HW215005   5.659  10.295   8.753 -0.4423  0.1598 -0.4697
 3057SOL     OW15006   6.228   3.584   9.616  0.4963  0.4666  0.2192
 3057SOL    HW115007   6.260   3.652   9.675 -0.6277  1.4801 -0.3107
 3057SOL    HW215008   6.148   3.552   9.658  0.4180  0.2487 -0.0933
 3058SOL     OW15009  10.882   8.360   8.660  0.3275 -0.7028 -0.0603
 3058SOL    HW115010  10.847   8.296   8.598  0.5256 -0.6822 -0.1934
 3058SOL    HW215011  10.804   8.396   8.703  0.1523 -0.3643 -0.6420
 3059SOL     OW15012   2.182   1.612   1.802 -0.2366  0.3848 -0.3965
 3059SOL    HW115013   2.232   1.569   1.871  1.2248  0.0623 -1.6011
 3059SOL    HW215014   2.176   1.703   1.829  0.6087  0.3272 -0.0029
 3060SOL     OW15015   4.972   7.760   3.968  0.0652 -0.1875  0.9569
 3060SOL    HW115016   4.891   7.812   3.975  0.8189  0.8830  2.3369
 3060SOL    HW215017   5.039   7.816   4.006  1.2061 -1.6053  1.1116
 3061SOL     OW15018   1.191   6.802  10.162 -0.1383 -0.2446 -0.6383
 3061SOL    HW115019   1.146   6.886  10.168  0.0991 -0.0164 -1.7653
 3061SOL    HW215020   1.202   6.774  10.253 -0.3281  0.8809 -0.2502
 3062SOL     OW15021   8.560   4.226   3.259 -0.2550 -0.0468 -0.0767
 3062SOL    HW115022   8.488   4.263   3.208 -0.5641  1.1822  1.1706
 3062SOL    HW215023   8.523   4.146   3.298 -0.1468 -0.7582 -1.3811
 3063SOL     OW15024   3.850   8.592   3.454  0.3706  0.4051 -0.0508
 3063SOL    HW115025   3.756   8.611   3.465 -0.1485 -1.6011 -0.5405
 3063SOL    HW215026   3.872   8.628   3.369 -0.8942 -2.0484 -1.5259
 3064SOL     OW15027   3.500   6.192   8.053 -0.0490  0.2697 -0.7263
 3064SOL    HW115028   3.585   6.210   8.094  0.0778 -0.2439 -0.7636
 3064SOL    HW215029   3.460   6.126   8.109 -0.7221  0.9951 -0.3223
 3065SOL     OW15030   0.051   5.979   1.005 -0.3514 -0.0150 -0.6364
 3065SOL    HW115031   0.112   6.032   1.056 -1.0528 -0.8287  1.1637
 3065SOL    HW215032   0.050   6.019   0.918  0.3268  1.9256  0.2001
 3066SOL     OW15033   3.959   4.246  10.362 -0.6325  0.1453  0.3846
 3066SOL    HW115034   3.986   4.316  10.421 -0.4777 -0.4729  1.0571
 3066SOL    HW215035   3.863   4.250  10.361 -0.6316  0.2058  0.6169
 3067SOL     OW15036   3.565   1.103   5.616 -0.0154  0.5454  0.4559
 3067SOL    HW115037   3.635   1.076   5.675 -1.0152  0.0772  1.4675
 3067SOL    HW215038   3.610   1.131   5.536  1.3196  0.4139  1.1361
 3068SOL     OW15039   1.033   3.728   2.962  0.2792  0.2593  0.1652
 3068SOL    HW115040   1.110   3.700   3.012  0.7358  0.0819 -0.6197
 3068SOL    HW215041   0.959   3.697   3.013  0.7467 -1.7800 -0.3209
 3069SOL     OW15042   6.459   0.779   3.877  0.5283  0.0377  0.3488
 3069SOL    HW115043   6.514   0.793   3.800  2.4442 -0.6418  1.5356
 3069SOL    HW215044   6.512   0.808   3.951 -1.0574  0.1818  1.5048
 3070SOL     OW15045   4.311   5.346   3.062  0.0121  0.0020  0.1743
 3070SOL    HW115046   4.404   5.338   3.084  0.1665  1.6170  0.2432
 3070SOL    HW215047   4.287   5.261   3.025  1.6276 -0.3053 -0.2350
 3071SOL     OW15048   2.100   0.258   0.900  0.1979  0.1650  0.8711
 3071SOL    HW115049   2.032   0.266   0.832  0.3776  1.7466  0.8284
 3071SOL    HW215050   2.180   0.238   0.852 -0.1548 -1.4679  0.8992
 3072SOL     OW15051   0.886   9.489  10.021 -0.0647 -0.6608  0.3236
 3072SOL    HW115052   0.980   9.473  10.012  0.6377  2.0329  1.7307
 3072SOL    HW215053   0.862   9.446  10.103  0.1650 -0.5640  0.4433
 3073SOL     OW15054   3.479   6.545   1.211 -0.1163 -0.2915  0.0108
 3073SOL    HW115055   3.459   6.451   1.215  0.0674 -0.3597 -0.6047
 3073SOL    HW215056   3.574   6.550   1.212 -0.0945 -0.1830 -1.1709
 3074SOL     OW15057   4.302   7.674   4.456  0.5048  0.0676 -0.0785
 3074SOL    HW115058   4.293   7.586   4.419 -1.7306  0.3590 -0.3329
 3074SOL    HW215059   4.265   7.667   4.544 -0.7626  1.0078 -0.5232
 3075SOL     OW15060   0.523   8.353   4.390 -0.2332  0.1988 -0.0989
 3075SOL    HW115061   0.477   8.435   4.407 -1.3912 -0.1573 -1.3436
 3075SOL    HW215062   0.583   8.375   4.319 -2.2467 -0.5269 -2.1358
 3076SOL     OW15063  10.250   0.062   9.939  0.1617  0.7744 -0.1542
 3076SOL    HW115064  10.166   0.108   9.949  0.0318  0.2042  1.9328
 3076SOL    HW215065  10.313   0.119   9.984  0.6430  0.5110 -0.4864
 3077SOL     OW15066  10.424   3.441   7.356 -0.1394 -0.1705  0.4353
 3077SOL    HW115067  10.496   3.380   7.345 -0.7309 -0.8713  0.3984
 3077SOL    HW215068  10.367   3.425   7.281  0.5890  1.6942 -0.5868
 3078SOL     OW15069   1.794   1.750   4.354 -0.3037 -0.6624 -0.2185
 3078SOL    HW115070   1.740   1.772   4.430  2.6861  1.2231  1.5708
 3078SOL    HW215071   1.757   1.800   4.282 -0.2942  1.5654  1.2456
 3079SOL     OW15072   3.290   2.915   0.385 -0.7210 -0.1663 -0.0410
 3079SOL    HW115073   3.291   2.831   0.340  0.3833 -0.8136  1.1385
 3079SOL    HW215074   3.345   2.972   0.331 -1.0496 -0.3404 -0.5696
 3080SOL     OW15075   7.468   4.495   2.542  0.1330  0.2301  0.4002
 3080SOL    HW115076   7.443   4.586   2.528 -1.9218 -0.2164  0.7795
 3080SOL    HW215077   7.552   4.499   2.587 -0.4484  1.9686  1.4338
 3081SOL     OW15078   1.707   1.614   8.521 -0.0683 -0.2202  0.1321
 3081SOL    HW115079   1.750   1.586   8.602 -1.8746 -1.9555  0.5763
 3081SOL    HW215080   1.732   1.548   8.456 -0.9668 -0.5028  0.0589
 3082SOL     OW15081   6.952   1.193   2.713  0.3221 -0.0358 -0.5063
 3082SOL    HW115082   6.900   1.228   2.640  0.1901  0.1763 -0.3102
 3082SOL    HW215083   6.987   1.270   2.756  2.9843 -0.1696 -2.1824
 3083SOL     OW15084  10.417   6.041   9.853  0.5838  0.0446  0.1671
 3083SOL    HW115085  10.361   6.024   9.778  1.1016 -0.2632 -0.1544
 3083SOL    HW215086  10.385   6.124   9.889 -0.9730 -0.7900  0.8271
 3084SOL     OW15087   4.895   0.875   0.546 -0.0247 -0.1169 -0.3752
 3084SOL    HW115088   4.870   0.858   0.455 -1.9532  0.1782  0.0456
 3084SOL    HW215089   4.897   0.788   0.586  0.1673 -0.1942 -0.5508
 3085SOL     OW15090   6.427   7.207   3.571 -0.0371 -0.0572 -0.2075
 3085SOL    HW115091   6.355   7.189   3.631  0.9565  0.6508  1.2836
 3085SOL    HW215092   6.385   7.237   3.491 -1.4148 -0.6683  0.2518
 3086SOL     OW15093   1.010   4.132   6.133  0.0153  0.5391 -0.7271
 3086SOL    HW115094   0.961   4.209   6.162  0.0649  1.9281 -3.9263
 3086SOL    HW215095   0.946   4.060   6.136  0.0009  0.5665  2.3965
 3087SOL     OW15096   2.359   7.636   3.867  0.5525  0.7599  0.2937
 3087SOL    HW115097   2.445   7.677   3.859  0.6219  0.2971 -1.9319
 3087SOL    HW215098   2.374   7.544   3.842 -0.7715  0.9501 -1.3161
 3088SOL     OW15099   3.227   3.094   4.530  0.3103  0.4109  0.0556
 3088SOL    HW115100   3.243   3.165   4.467 -1.2164 -1.2134 -2.3129
 3088SOL    HW215101   3.150   3.123   4.578  2.7576  2.7193  3.0506
 3089SOL     OW15102   1.497   9.040   5.795 -0.2935 -0.8840  0.4803
 3089SOL    HW115103   1.427   8.978   5.776 -1.8071  1.1006 -0.8054
 3089SOL    HW215104   1.571   9.009   5.741 -1.6031 -0.5987 -1.6024
 3090SOL     OW15105   4.804   8.579   5.171 -0.0908  0.3177 -0.4660
 3090SOL    HW115106   4.841   8.601   5.085  1.5688 -1.6970 -0.3513
 3090SOL    HW215107   4.730   8.521   5.151 -0.0071  0.2440 -0.5651
 3091SOL     OW15108   8.174   6.783   0.981  0.2594  0.1463 -0.1220
 3091SOL    HW115109   8.167   6.727   0.903 -1.1923 -3.0614  2.0850
 3091SOL    HW215110   8.251   6.750   1.027 -0.4257  0.1569  1.0649
 3092SOL     OW15111   3.025   2.602   8.780 -0.0362 -0.1686 -0.3601
 3092SOL    HW115112   2.937   2.586   8.813 -0.2503 -0.5384 -1.0954
 3092SOL    HW215113   3.053   2.519   8.743  0.7289 -0.1239  0.0949
 3093SOL     OW15114   3.845   4.448  10.217 -0.3177 -0.2452  0.4270
 3093SOL    HW115115   3.818   4.505  10.288  1.0193  0.9877 -0.0027
 3093SOL    HW215116   3.929   4.411  10.245 -0.6690 -1.1881  0.2613
 3094SOL     OW15117   8.207   3.227   2.876 -0.3783  0.3615  0.8272
 3094SOL    HW115118   8.300   3.248   2.866 -0.4511 -0.0358 -1.1954
 3094SOL    HW215119   8.183   3.263   2.961  1.4037  1.2926  0.9850
 3095SOL     OW15120   2.035   9.838   4.359 -0.3233  0.3229  0.5438
 3095SOL    HW115121   2.072   9.764   4.408 -2.7158 -0.4755  1.2707
 3095SOL    HW215122   1.992   9.797   4.284  1.5412  1.3707 -1.2019
 3096SOL     OW15123   8.657   1.490   8.332 -0.1365 -0.0847 -0.4590
 3096SOL    HW115124   8.712   1.497   8.254  2.1182  0.5782  1.0723
 3096SOL    HW215125   8.699   1.421   8.384 -1.7453 -0.6981  0.0712
 3097SOL     OW15126   5.049   5.808   4.567  0.0579  0.0181 -0.3463
 3097SOL    HW115127   5.010   5.828   4.482 -0.5506  2.4849  0.4382
 3097SOL    HW215128   5.061   5.893   4.609  0.2761 -1.1211  2.0855
 3098SOL     OW15129   8.062  10.703   2.299 -0.2855 -0.0250  0.2457
 3098SOL    HW115130   7.994  10.658   2.249  1.1357  0.0727 -1.8949
 3098SOL    HW215131   8.135  10.641   2.302  0.2734  0.6337  0.7266
 3099SOL     OW15132  10.350   0.800   9.075 -0.5906 -0.0038 -0.0840
 3099SOL    HW115133  10.296   0.743   9.019 -1.7910 -0.6800  1.6738
 3099SOL    HW215134  10.288   0.834   9.140  0.9181  0.0407  1.3729
 3100SOL     OW15135  10.585   7.668  10.392 -0.5167  0.3432  0.7179
 3100SOL    HW115136  10.505   7.651  10.442 -0.5124  1.9140  1.3286
 3100SOL    HW215137  10.564   7.744  10.338  0.2588  0.1598  0.1473
 3101SOL     OW15138  10.622   4.884   6.016  0.0888 -0.0553 -0.9970
 3101SOL    HW115139  10.553   4.869   6.081  2.1292 -0.4788  1.2130
 3101SOL    HW215140  10.603   4.823   5.945 -1.0136 -1.1654  0.2085
 3102SOL     OW15141   9.192   7.113   7.441  0.6972  0.4474 -0.8232
 3102SOL    HW115142   9.262   7.048   7.440 -1.2439 -1.7831 -1.2476
 3102SOL    HW215143   9.150   7.101   7.526 -0.0238  0.7579 -1.1321
 3103SOL     OW15144   9.165   0.627   8.859 -0.2242  0.1084 -0.5754
 3103SOL    HW115145   9.198   0.639   8.948  1.1180  2.7325 -1.3249
 3103SOL    HW215146   9.070   0.628   8.869 -0.0995  0.6429  0.8199
 3104SOL     OW15147   0.117   3.308   3.090 -0.2021  0.0701  0.0803
 3104SOL    HW115148   0.181   3.337   3.025  0.8899  0.3048  1.2125
 3104SOL    HW215149   0.039   3.360   3.071 -0.2266 -0.5043 -1.5740
 3105SOL     OW15150   8.093   9.367   2.205  0.2738  0.3969  0.0934
 3105SOL    HW115151   8.019   9.384   2.146  0.7596 -0.7195 -0.8798
 3105SOL    HW215152   8.062   9.395   2.291 -0.5373  1.8405 -0.6379
 3106SOL     OW15153   5.211  10.471   3.567  0.2069  0.0920  0.2066
 3106SOL    HW115154   5.160  10.499   3.643  0.5102 -0.3822  0.5885
 3106SOL    HW215155   5.257  10.392   3.596 -0.2967 -0.5556 -0.7224
 3107SOL     OW15156   8.625   4.762   1.170  0.1992  0.4965  0.6414
 3107SOL    HW115157   8.592   4.823   1.236 -2.6205 -2.0093  1.7640
 3107SOL    HW215158   8.659   4.688   1.220 -0.9775 -0.9750 -0.6473
 3108SOL     OW15159   8.317   6.924  10.163 -0.1049 -0.0656  0.6013
 3108SOL    HW115160   8.354   6.997  10.114  0.3781 -1.0402 -0.5457
 3108SOL    HW215161   8.325   6.849  10.104 -1.7482 -0.7950  1.2443
 3109SOL     OW15162   0.517   2.831   8.912  0.4537  0.6158  0.0303
 3109SOL    HW115163   0.440   2.803   8.863  0.9946  0.0231 -0.5038
 3109SOL    HW215164   0.590   2.783   8.872  1.0656  0.9713  0.6883
 3110SOL     OW15165  10.677   8.916   9.424  0.0610  0.5739 -0.0512
 3110SOL    HW115166  10.689   8.822   9.408 -0.1231  0.8921 -2.5457
 3110SOL    HW215167  10.766   8.949   9.440  0.0152 -0.1337  2.0119
 3111SOL     OW15168   5.539   4.439   8.828 -0.0296  0.4743 -0.6235
 3111SOL    HW115169   5.584   4.512   8.870 -2.0326  0.4711  1.8629
 3111SOL    HW215170   5.585   4.361   8.859 -1.4072  0.4780  1.7857
 3112SOL     OW15171   7.628   5.583   4.855  0.1444  0.0930  0.4401
 3112SOL    HW115172   7.592   5.669   4.834  0.2771  0.0924  0.2052
 3112SOL    HW215173   7.723   5.596   4.854  0.2703 -0.4892 -1.6291
 3113SOL     OW15174  10.466   9.541   9.677 -0.3334  0.1630 -0.1429
 3113SOL    HW115175  10.484   9.608   9.743  0.2587  1.3211 -1.4280
 3113SOL    HW215176  10.425   9.470   9.726  1.2308  0.4351  1.6898
 3114SOL     OW15177   2.695  10.566   8.505 -0.5105  0.1426 -0.1978
 3114SOL    HW115178   2.603  10.550   8.523 -0.2357 -1.6987 -0.2595
 3114SOL    HW215179   2.696  10.646   8.453 -2.1416 -0.2529 -0.8948
 3115SOL     OW15180   2.447   1.003   5.659  0.0960  0.2302  0.5136
 3115SOL    HW115181   2.444   1.076   5.598 -1.9706  0.1870  0.5143
 3115SOL    HW215182   2.372   1.015   5.717  0.9757 -0.6989  1.9471
 3116SOL     OW15183   7.011   2.059   6.176  0.0771 -0.5160  0.3622
 3116SOL    HW115184   7.104   2.042   6.191 -0.0340 -0.9051  0.6096
 3116SOL    HW215185   7.009   2.149   6.143  0.4907 -0.2838  0.9430
 3117SOL     OW15186   3.032   3.095   8.171 -0.6494 -0.2169 -0.0904
 3117SOL    HW115187   3.038   3.142   8.254 -0.2469 -1.1391  0.4217
 3117SOL    HW215188   2.940   3.072   8.162 -0.3517 -2.3184  1.4018
 3118SOL     OW15189   2.351  10.719   7.465  0.5674  0.4297 -0.4993
 3118SOL    HW115190   2.425  10.777   7.448  0.2073  0.7861 -0.8819
 3118SOL    HW215191   2.281  10.752   7.409  0.0814  0.1682 -0.0598
 3119SOL     OW15192   0.025   0.008   8.751 -0.1928  0.4240  0.3654
 3119SOL    HW115193   0.110   0.017   8.794 -1.4948 -0.5146  3.3899
 3119SOL    HW215194   0.033  -0.071   8.697  0.7921  0.2175  0.7975
 3120SOL     OW15195   2.047   5.153   3.693 -0.1732  0.4670 -0.2048
 3120SOL    HW115196   1.984   5.085   3.718 -0.2337  0.7067  0.3176
 3120SOL    HW215197   2.127   5.105   3.673 -0.3711  0.1997 -0.3564
 3121SOL     OW15198   7.208   4.685   0.275  0.0649  0.1113 -0.2977
 3121SOL    HW115199   7.137   4.671   0.213  0.5415  1.2734 -1.1535
 3121SOL    HW215200   7.207   4.780   0.291  0.9482  0.0375  0.2532
 3122SOL     OW15201   8.406   3.290  10.499  0.2142  0.6757 -0.3188
 3122SOL    HW115202   8.330   3.241  10.530  1.3964 -1.7732 -1.0228
 3122SOL    HW215203   8.369   3.357  10.440 -1.4295  0.1632  0.0759
 3123SOL     OW15204   5.220  10.160  10.817 -0.5061 -0.0629 -0.1405
 3123SOL    HW115205   5.212  10.243  10.864  0.6867  0.3708 -0.6608
 3123SOL    HW215206   5.157  10.168  10.745 -0.4582  0.3515 -0.1401
 3124SOL     OW15207   9.209   1.999   4.042 -0.2887  0.2942  0.3203
 3124SOL    HW115208   9.282   2.050   4.006  0.3239 -0.1195  0.9478
 3124SOL    HW215209   9.174   2.054   4.112  0.8195 -0.4061  1.4681
 3125SOL     OW15210   5.611   2.748   4.700  0.4333  0.3383 -0.0330
 3125SOL    HW115211   5.688   2.803   4.715  0.3814  0.3597  0.1592
 3125SOL    HW215212   5.548   2.776   4.766  0.7935 -0.6930  0.7713
 3126SOL     OW15213   6.433   9.269   8.131 -0.3830  0.1378  0.3934
 3126SOL    HW115214   6.419   9.175   8.118  1.0204 -0.1733  0.9552
 3126SOL    HW215215   6.397   9.287   8.218  0.9842 -0.2802  1.0672
 3127SOL     OW15216   2.570   8.614   3.233  0.5792  0.5581 -0.1967
 3127SOL    HW115217   2.554   8.524   3.260 -0.7638  0.7139 -0.4430
 3127SOL    HW215218   2.483   8.652   3.221  1.1296  1.8321 -0.2909
 3128SOL     OW15219   4.813   1.656   2.193  0.5490  0.1981  0.0495
 3128SOL    HW115220   4.749   1.605   2.143  0.2309  0.7387 -0.1057
 3128SOL    HW215221   4.852   1.593   2.254 -0.8971  0.0624  0.8875
 3129SOL     OW15222   7.657   6.061   2.230  0.3846  0.6360 -0.3999
 3129SOL    HW115223   7.736   6.015   2.202  0.0094  1.2003 -2.5519
 3129SOL    HW215224   7.663   6.147   2.189 -0.9174  1.0236  0.1640
 3130SOL     OW15225  10.474   1.305   8.207 -0.1105 -0.3579 -0.1638
 3130SOL    HW115226  10.502   1.287   8.117  1.3940  0.8319  0.0276
 3130SOL    HW215227  10.409   1.375   8.199  0.4796  0.1832 -0.2989
 3131SOL     OW15228   8.109   4.143   7.696 -0.1736 -0.3342 -0.1049
 3131SOL    HW115229   8.127   4.201   7.622  1.9939 -0.7318  0.0510
 3131SOL    HW215230   8.013   4.139   7.700 -0.3616  1.0992 -1.7612
 3132SOL     OW15231   9.300   5.048   9.501 -0.2824  0.4144 -0.4276
 3132SOL    HW115232   9.232   5.079   9.560 -0.6223  1.0458 -1.1301
 3132SOL    HW215233   9.374   5.107   9.516  0.2747 -0.5235  0.6289
 3133SOL     OW15234  10.909   7.108   6.294  0.3664 -0.8310  0.4269
 3133SOL    HW115235  11.000   7.094   6.268  0.5782  0.2194  0.5441
 3133SOL    HW215236  10.895   7.202   6.282 -0.3244 -0.7597  1.5829
 3134SOL     OW15237   4.975   2.688   5.670 -0.1029 -0.1698 -0.3111
 3134SOL    HW115238   4.969   2.639   5.588  0.0159  0.4524 -0.6967
 3134SOL    HW215239   4.906   2.754   5.664  0.0237 -0.0040  0.0108
 3135SOL     OW15240   0.706   9.973   8.133 -0.3881  0.1515 -0.3214
 3135SOL    HW115241   0.705   9.938   8.223 -2.4077  0.9060  0.0064
 3135SOL    HW215242   0.789  10.020   8.127 -0.2014  0.0753  1.1567
 3136SOL     OW15243   4.343   1.384   2.224 -0.5446  0.0698 -0.9370
 3136SOL    HW115244   4.286   1.354   2.154 -1.5372  0.4911 -0.3269
 3136SOL    HW215245   4.322   1.477   2.233 -0.2819  0.0623 -0.2129
 3137SOL     OW15246   9.043   6.347   9.183  0.5940 -0.4686 -0.7648
 3137SOL    HW115247   8.977   6.279   9.174 -0.1886  0.3274 -1.2228
 3137SOL    HW215248   9.034   6.400   9.104 -1.2925  2.2855  1.1397
 3138SOL     OW15249   1.481   0.505   7.139 -0.4430  0.3884 -0.1497
 3138SOL    HW115250   1.524   0.446   7.200 -1.5968 -0.1139  0.2133
 3138SOL    HW215251   1.545   0.574   7.123  1.4971 -1.6706 -1.7219
 3139SOL     OW15252   2.699  10.718   3.368  0.1885  0.6410 -0.2837
 3139SOL    HW115253   2.778  10.715   3.422  0.3870  2.0845 -0.4524
 3139SOL    HW215254   2.650  10.793   3.401 -1.7162 -0.9062  0.5893
 3140SOL     OW15255   4.926   4.071   2.825  0.1358 -0.0766 -0.7009
 3140SOL    HW115256   4.858   4.109   2.771  1.1120  0.8317 -1.3262
 3140SOL    HW215257   4.910   4.107   2.913 -0.0011  0.3878 -0.9140
 3141SOL     OW15258   3.712   5.995   7.016 -0.5287  0.2051  0.0140
 3141SOL    HW115259   3.632   5.995   7.068 -0.1452 -0.0081  0.6110
 3141SOL    HW215260   3.759   6.073   7.044 -0.5566  0.3660 -0.3847
 3142SOL     OW15261   2.527   9.049  10.752  0.0385 -0.1456  0.0701
 3142SOL    HW115262   2.471   9.044  10.674 -0.0919  0.2566  0.1387
 3142SOL    HW215263   2.485   9.113  10.808  0.7048  0.3492  0.0144
 3143SOL     OW15264   6.499   9.856   0.081  0.3386 -0.1048 -0.0539
 3143SOL    HW115265   6.437   9.861   0.009  1.0808  0.1168 -0.6838
 3143SOL    HW215266   6.456   9.801   0.146 -0.3068 -0.3648 -0.6942
 3144SOL     OW15267   2.865   0.300   8.259  0.0809  0.2370  0.2815
 3144SOL    HW115268   2.826   0.387   8.264  0.5241  0.3747  2.9696
 3144SOL    HW215269   2.873   0.282   8.165 -0.4480  2.8743 -0.3400
 3145SOL     OW15270   5.268   6.653   6.319  0.0946  0.0294 -0.5810
 3145SOL    HW115271   5.357   6.684   6.337  0.4675 -0.8575 -0.7986
 3145SOL    HW215272   5.281   6.564   6.285 -0.9809 -0.9725  1.4451
 3146SOL     OW15273   7.012   2.301   8.634  0.6091 -0.6776 -0.3265
 3146SOL    HW115274   6.924   2.262   8.625  0.0790  0.5251 -0.4940
 3146SOL    HW215275   6.995   2.393   8.654  1.8390 -0.7774  1.2759
 3147SOL     OW15276   8.667   6.647  10.515  0.1179  0.5707  0.1468
 3147SOL    HW115277   8.658   6.560  10.476 -1.8036 -0.2885  2.2809
 3147SOL    HW215278   8.759   6.651  10.543  0.4465 -0.4192 -0.7090
 3148SOL     OW15279   2.646   2.360   9.048  0.1141  0.3242  0.1767
 3148SOL    HW115280   2.737   2.348   9.019  0.1393 -0.0471  0.3936
 3148SOL    HW215281   2.653   2.368   9.143 -0.2334 -1.5920  0.4117
 3149SOL     OW15282   2.842   7.782   9.605 -0.3858 -0.1724 -0.2538
 3149SOL    HW115283   2.782   7.778   9.680 -1.1555 -0.1832 -0.8475
 3149SOL    HW215284   2.835   7.695   9.565 -1.4316  0.3949 -1.3999
 3150SOL     OW15285   2.882   3.680   1.747  0.4920 -0.4283  0.0551
 3150SOL    HW115286   2.948   3.674   1.678  0.3568 -0.4256 -0.0730
 3150SOL    HW215287   2.885   3.772   1.775  0.9836 -0.5689  0.4809
 3151SOL     OW15288  10.724   4.609   8.713 -0.4944 -0.9618  0.1911
 3151SOL    HW115289  10.690   4.530   8.670  1.7188 -0.8560 -1.9342
 3151SOL    HW215290  10.788   4.576   8.776  0.7373 -0.9060 -0.9913
 3152SOL     OW15291  10.841  10.687   0.349  0.2859  0.9010 -0.1927
 3152SOL    HW115292  10.929  10.667   0.382  0.6601  1.9233 -0.5505
 3152SOL    HW215293  10.830  10.780   0.365 -0.4134  0.9515 -0.9165
 3153SOL     OW15294   5.130   4.664   1.850  0.3923 -0.5886 -0.9059
 3153SOL    HW115295   5.064   4.666   1.781  0.5734  0.2370 -1.0610
 3153SOL    HW215296   5.213   4.669   1.803  0.5531 -1.1106 -0.6826
 3154SOL     OW15297   8.267   4.081   1.054  0.4003  0.6082 -0.0460
 3154SOL    HW115298   8.336   4.134   1.015  1.9089 -1.5186 -0.4781
 3154SOL    HW215299   8.239   4.022   0.984 -0.0964 -0.2063  0.8059
 3155SOL     OW15300   9.083   1.901   9.597 -0.4703  0.0022 -0.1306
 3155SOL    HW115301   9.069   1.931   9.507  1.3491  0.4294 -0.3121
 3155SOL    HW215302   9.007   1.846   9.616 -1.4904  0.8604 -1.4989
 3156SOL     OW15303   5.849   9.452   8.306 -0.3256  0.0719 -0.2515
 3156SOL    HW115304   5.871   9.517   8.373 -2.8072  1.3576 -0.5525
 3156SOL    HW215305   5.933   9.413   8.282  1.0395  1.8577  1.2865
 3157SOL     OW15306   8.191   3.517   4.999 -0.2720 -0.0509 -0.0967
 3157SOL    HW115307   8.172   3.495   5.090  3.2325 -0.8264  0.5895
 3157SOL    HW215308   8.258   3.585   5.005  0.2459 -0.3409 -2.0824
 3158SOL     OW15309   5.174   9.299   7.260  0.1268  0.0168 -0.1399
 3158SOL    HW115310   5.206   9.328   7.345  0.2480 -0.1602 -0.1260
 3158SOL    HW215311   5.110   9.231   7.280  0.4094 -0.2703 -0.2028
 3159SOL     OW15312   7.467   0.422   6.078  0.0386  0.0470  0.3572
 3159SOL    HW115313   7.428   0.500   6.116 -0.4955 -0.6118  1.2083
 3159SOL    HW215314   7.459   0.355   6.146  1.0171 -0.5971 -0.1305
 3160SOL     OW15315   0.065   8.309   7.921 -0.3991 -0.4390  0.0881
 3160SOL    HW115316   0.079   8.395   7.959  0.4614 -1.7426  2.9109
 3160SOL    HW215317   0.133   8.300   7.855  0.6948  0.3225  1.0867
 3161SOL     OW15318   0.098   3.423   9.821  0.0046 -0.2470  0.6736
 3161SOL    HW115319   0.155   3.374   9.881  0.6131 -1.3832 -0.7806
 3161SOL    HW215320   0.112   3.382   9.736 -1.0173  1.1770 -0.2171
 3162SOL     OW15321   2.846  10.477  10.258  0.3931 -0.2975  0.0728
 3162SOL    HW115322   2.914  10.467  10.192  0.3270 -0.5812  0.0479
 3162SOL    HW215323   2.880  10.544  10.318  0.8410 -0.6778  0.2475
 3163SOL     OW15324   7.310   1.289   9.478  0.9213 -0.4436 -0.3405
 3163SOL    HW115325   7.237   1.334   9.518  2.7796  2.1665  0.3858
 3163SOL    HW215326   7.275   1.254   9.396 -0.8748  1.7093 -0.5842
 3164SOL     OW15327   1.498  10.691   2.998 -0.1903 -0.3246 -0.0492
 3164SOL    HW115328   1.465  10.692   3.088 -0.0488  1.0347  0.0187
 3164SOL    HW215329   1.582  10.644   3.004 -1.2345 -2.2448  0.0861
 3165SOL     OW15330   6.993   3.879   5.467  0.0701 -0.2283 -0.2787
 3165SOL    HW115331   7.039   3.805   5.427 -0.6839  0.8524 -3.3894
 3165SOL    HW215332   6.999   3.949   5.403 -1.4816  1.6097  1.4483
 3166SOL     OW15333   3.702   1.883   2.465  0.2130 -0.0627 -0.6021
 3166SOL    HW115334   3.724   1.886   2.558  0.4904 -0.1485 -0.6639
 3166SOL    HW215335   3.622   1.830   2.461  0.5193 -0.5379 -0.4674
 3167SOL     OW15336  10.079   2.826   6.872  0.1772  0.1184 -0.3250
 3167SOL    HW115337  10.103   2.918   6.872 -0.6002  0.3347 -0.0585
 3167SOL    HW215338  10.153   2.781   6.912 -0.3346  0.8919  1.5940
 3168SOL     OW15339   5.411   1.984   5.448 -0.4936  0.0026 -0.0096
 3168SOL    HW115340   5.411   2.034   5.530 -1.2406  0.4251 -0.2614
 3168SOL    HW215341   5.451   1.900   5.471  0.4341  0.5639  0.5067
 3169SOL     OW15342   8.946   5.564   4.712  1.2646  0.1037  1.0344
 3169SOL    HW115343   8.857   5.588   4.686  2.0277  1.1609 -0.7812
 3169SOL    HW215344   8.937   5.479   4.757 -0.5370 -0.2334  0.0893
 3170SOL     OW15345   0.445   9.002   0.137 -0.0592  0.1552 -0.1678
 3170SOL    HW115346   0.450   8.959   0.051 -2.5872 -1.4177  0.3718
 3170SOL    HW215347   0.488   8.940   0.196 -0.7852 -0.0915  0.1075
 3171SOL     OW15348   2.077   2.890   7.855  0.3531 -0.2133 -0.2686
 3171SOL    HW115349   2.034   2.961   7.903  3.2709  1.0165  0.7455
 3171SOL    HW215350   2.119   2.837   7.922  1.3393 -0.7014 -1.2333
 3172SOL     OW15351   6.845   6.425   8.264  0.8083  0.0499 -0.4990
 3172SOL    HW115352   6.819   6.429   8.356 -1.4523 -0.2324 -1.0789
 3172SOL    HW215353   6.793   6.355   8.226  0.9276  0.8261 -2.2316
 3173SOL     OW15354   6.786   4.526   9.497 -0.1042 -0.3927 -0.0468
 3173SOL    HW115355   6.802   4.607   9.547 -0.2417 -0.2416 -0.2457
 3173SOL    HW215356   6.721   4.551   9.433  2.2648  0.2577 -2.3797
 3174SOL     OW15357   8.678   4.994   1.463  0.2708  0.5863 -0.0631
 3174SOL    HW115358   8.625   5.023   1.388 -0.8485 -0.4424  0.2972
 3174SOL    HW215359   8.615   4.954   1.523  1.5460 -1.3366  0.0662
 3175SOL     OW15360   8.207   8.021   0.899  0.3374  0.0367  0.8108
 3175SOL    HW115361   8.200   7.936   0.943  1.4933 -0.3577  0.2558
 3175SOL    HW215362   8.215   8.001   0.806  2.8599  0.6016  0.8378
 3176SOL     OW15363   9.063   4.832   9.486  0.4240 -0.0001  0.1353
 3176SOL    HW115364   9.109   4.792   9.413  1.6610  1.0034  0.3244
 3176SOL    HW215365   9.094   4.785   9.563  1.6479  1.0444  0.3250
 3177SOL     OW15366  10.091   4.331   8.421 -0.3740 -0.1259  0.0544
 3177SOL    HW115367  10.037   4.402   8.457 -1.5648 -0.6860 -0.5708
 3177SOL    HW215368  10.030   4.259   8.406  0.5548 -0.7900 -0.6797
 3178SOL     OW15369   8.345   8.556   8.424 -0.2849 -0.2113 -0.0326
 3178SOL    HW115370   8.418   8.549   8.362 -1.5880  1.9047 -1.9679
 3178SOL    HW215371   8.363   8.637   8.472  0.0046 -1.1363  1.5176
 3179SOL     OW15372   1.503   5.251   8.087  0.2002 -0.2118 -0.6642
 3179SOL    HW115373   1.586   5.245   8.134  0.1441 -0.8610 -0.6445
 3179SOL    HW215374   1.528   5.270   7.997  0.3547 -0.1491 -0.6097
 3180SOL     OW15375   7.147   6.909   0.410 -0.0415 -0.4935  0.2524
 3180SOL    HW115376   7.130   7.001   0.389  2.2203  0.0154  0.4247
 3180SOL    HW215377   7.074   6.862   0.369 -0.8866  1.2983 -0.4296
 3181SOL     OW15378   6.658   7.010   8.781 -0.1555  0.3194  0.0078
 3181SOL    HW115379   6.642   7.082   8.720  0.1286  0.3822  0.0057
 3181SOL    HW215380   6.598   7.026   8.854  1.2945  1.6939  0.9701
 3182SOL     OW15381   3.006   1.803   5.168 -0.2901 -0.0933  0.3542
 3182SOL    HW115382   3.003   1.849   5.252  0.9194  0.1956  0.2669
 3182SOL    HW215383   3.089   1.755   5.170  0.4202  0.9581 -1.1703
 3183SOL     OW15384  10.782   3.831   4.628 -1.0284 -0.0045 -0.5930
 3183SOL    HW115385  10.856   3.780   4.595 -0.4406  0.3521  0.1667
 3183SOL    HW215386  10.773   3.903   4.567  0.4176  0.9721  0.2920
 3184SOL     OW15387   0.375   8.964   3.416  0.3128 -0.0409 -0.1712
 3184SOL    HW115388   0.453   9.007   3.379 -0.8643  2.4045 -0.0091
 3184SOL    HW215389   0.309   8.972   3.347 -1.3833  2.9634  1.6099
 3185SOL     OW15390   5.088   1.778   7.601  0.0503  0.3028  0.4625
 3185SOL    HW115391   5.110   1.694   7.562  2.3979  0.9751  0.1754
 3185SOL    HW215392   5.042   1.826   7.531 -1.8784 -0.8916  0.8326
 3186SOL     OW15393   2.181   1.049   1.827 -0.3545 -0.5757  0.5872
 3186SOL    HW115394   2.226   1.043   1.742  0.1461  0.7830  0.7238
 3186SOL    HW215395   2.090   1.066   1.804 -1.1432 -4.3711  0.2852
 3187SOL     OW15396   3.480   9.865   6.075 -0.3293  0.7420 -0.3524
 3187SOL    HW115397   3.517   9.810   6.144 -0.1062  0.3717 -0.7664
 3187SOL    HW215398   3.479   9.810   5.997 -0.6436  1.1356 -0.6345
 3188SOL     OW15399   6.330   5.470   0.917  0.0927 -0.0254  0.0608
 3188SOL    HW115400   6.345   5.434   0.829 -0.0058  0.0150  0.0269
 3188SOL    HW215401   6.398   5.538   0.927 -1.1021  1.3611 -0.7746
 3189SOL     OW15402   1.340   7.739   7.539  0.8043 -0.0266 -0.1278
 3189SOL    HW115403   1.404   7.753   7.609  2.0702 -2.8776 -0.6086
 3189SOL    HW215404   1.274   7.681   7.578 -0.8802  1.8043 -0.0609
 3190SOL     OW15405   3.918   1.079   3.860 -0.2699 -0.1489 -0.0359
 3190SOL    HW115406   3.993   1.063   3.917  0.4776  0.6532 -0.7795
 3190SOL    HW215407   3.898   1.172   3.873 -0.3385 -0.0578 -0.7820
 3191SOL     OW15408   5.516  10.299   4.589  0.1515 -1.1723 -0.7683
 3191SOL    HW115409   5.521  10.375   4.647  0.4623 -1.7651  0.0122
 3191SOL    HW215410   5.574  10.320   4.516 -1.9281  0.5210 -2.0489
 3192SOL     OW15411   5.663   9.615   6.615  0.7132 -0.5901 -0.0028
 3192SOL    HW115412   5.659   9.703   6.652  0.5897 -1.0463  1.1243
 3192SOL    HW215413   5.578   9.602   6.573  0.4299 -0.4504  0.5198
 3193SOL     OW15414   2.994   9.442   2.299  0.2953 -0.0070 -0.0136
 3193SOL    HW115415   3.035   9.498   2.365 -1.8045 -0.0894  1.4682
 3193SOL    HW215416   2.986   9.356   2.341 -0.5779 -0.1984 -0.5388
 3194SOL     OW15417   9.987   6.925  10.755  0.3471 -0.0745 -0.3371
 3194SOL    HW115418  10.072   6.884  10.738  0.8288  1.6423 -2.5876
 3194SOL    HW215419   9.923   6.856  10.735  1.0616 -2.1020  3.4490
 3195SOL     OW15420   0.375   4.141   5.199  0.2456  0.2775 -0.1788
 3195SOL    HW115421   0.314   4.168   5.130 -1.9035 -0.0849  1.4530
 3195SOL    HW215422   0.334   4.065   5.239  0.2828  1.6552  2.8101
 3196SOL     OW15423   8.184   0.301   9.388  0.3718  0.1577 -0.8484
 3196SOL    HW115424   8.161   0.392   9.366  0.9207  0.9401  1.4557
 3196SOL    HW215425   8.121   0.248   9.340  0.4915  1.6989 -2.8489
 3197SOL     OW15426   9.170   2.946   8.566  0.2129  0.0072  0.1263
 3197SOL    HW115427   9.206   3.030   8.539  0.4315 -0.2505 -0.4158
 3197SOL    HW215428   9.236   2.909   8.624  0.5903 -0.2301 -0.4415
 3198SOL     OW15429   5.328   6.001   9.281 -0.6170  0.0359  0.3965
 3198SOL    HW115430   5.288   6.088   9.285 -1.2585 -0.0963 -1.8098
 3198SOL    HW215431   5.332   5.973   9.372  0.7953  2.8636  1.3281
 3199SOL     OW15432   0.895   0.122  10.245  0.4742  0.3226 -0.0396
 3199SOL    HW115433   0.931   0.094  10.161 -0.2691 -2.7266  0.5561
 3199SOL    HW215434   0.802   0.138  10.227  0.7309  1.7441 -0.1995
 3200SOL     OW15435   4.419   9.149   6.702 -0.1559 -0.4306  0.0587
 3200SOL    HW115436   4.338   9.133   6.653 -1.2301  1.6564  1.0089
 3200SOL    HW215437   4.408   9.098   6.783  0.7283 -2.2695 -0.9137
 3201SOL     OW15438   2.679   2.948   3.203 -0.2897  0.2903  0.3771
 3201SOL    HW115439   2.702   3.030   3.249  2.4394  0.6601 -1.4185
 3201SOL    HW215440   2.617   2.975   3.135 -0.8645  0.5078  0.9755
 3202SOL     OW15441   7.212   3.614   3.630  0.3741 -0.1566 -0.2726
 3202SOL    HW115442   7.202   3.694   3.578  1.3197 -1.2076 -2.2024
 3202SOL    HW215443   7.150   3.552   3.592  1.3422 -1.0701 -0.4192
 3203SOL     OW15444   0.724   5.645   7.958  0.2348  0.0626  1.1854
 3203SOL    HW115445   0.708   5.603   8.043 -0.9755  0.1924  1.0391
 3203SOL    HW215446   0.662   5.718   7.955 -0.1541 -0.2936 -0.0434
 3204SOL     OW15447   2.647   1.673   3.093  0.2495  0.2250 -0.8853
 3204SOL    HW115448   2.556   1.648   3.108  0.2612  1.0007  0.6098
 3204SOL    HW215449   2.697   1.594   3.114  0.0099  0.2164 -0.3391
 3205SOL     OW15450   0.098   0.582   9.757 -0.3060 -0.5338  0.4130
 3205SOL    HW115451   0.157   0.551   9.688  0.0331 -0.2044  0.5544
 3205SOL    HW215452   0.012   0.585   9.715 -0.1399 -0.5418  0.0657
 3206SOL     OW15453   6.515   3.868   6.569 -0.0034 -0.6077  0.0678
 3206SOL    HW115454   6.566   3.949   6.577 -0.7282 -0.0938 -0.4380
 3206SOL    HW215455   6.486   3.850   6.659  1.0520 -0.9067  0.3633
 3207SOL     OW15456   2.987   6.578   2.793  0.9409  0.0900  0.3741
 3207SOL    HW115457   2.963   6.591   2.884  1.3749 -1.5793  0.7760
 3207SOL    HW215458   3.083   6.577   2.793  0.9646 -1.9849  0.2960
 3208SOL     OW15459   5.084   5.771   7.636 -0.2235 -0.3895  0.1588
 3208SOL    HW115460   5.176   5.745   7.626 -0.5864 -1.7314  0.1243
 3208SOL    HW215461   5.084   5.833   7.709  0.5820 -1.1027  0.7841
 3209SOL     OW15462   4.785   3.258   5.953  0.5711 -0.5334  0.5575
 3209SOL    HW115463   4.715   3.214   6.002  1.3006 -1.1906  1.0313
 3209SOL    HW215464   4.811   3.195   5.886 -0.2817  0.2856 -0.5801
 3210SOL     OW15465   1.808   2.837   2.242 -0.1284 -0.4077 -0.4100
 3210SOL    HW115466   1.745   2.848   2.313  0.3129 -1.4752  0.1736
 3210SOL    HW215467   1.893   2.828   2.286  0.3528  0.4169 -1.1548
 3211SOL     OW15468   4.383   8.635   0.027 -0.0236  0.0431 -0.0483
 3211SOL    HW115469   4.303   8.615   0.077 -1.0143  1.7933 -0.8599
 3211SOL    HW215470   4.437   8.557   0.038 -2.0913 -1.4817  0.0507
 3212SOL     OW15471   5.939   1.895   3.616 -0.1868 -0.3968  0.0162
 3212SOL    HW115472   5.854   1.853   3.632 -0.7213 -0.6449 -2.8366
 3212SOL    HW215473   5.958   1.942   3.697 -2.4021 -1.4051  1.2265
 3213SOL     OW15474   5.128   4.984   8.029 -0.2150 -0.2047  0.1498
 3213SOL    HW115475   5.159   4.946   7.947 -0.5951 -0.2437  0.0223
 3213SOL    HW215476   5.139   4.915   8.094  0.2824 -0.1041  0.1764
 3214SOL     OW15477   1.994   0.986   8.827  0.0939  0.1265  0.0177
 3214SOL    HW115478   2.089   0.996   8.824 -0.0958  2.4684 -2.8343
 3214SOL    HW215479   1.961   1.058   8.774 -3.2639 -1.3220 -0.1016
 3215SOL     OW15480   4.489   0.666   1.835  0.9490 -0.3899 -0.4630
 3215SOL    HW115481   4.537   0.727   1.779  1.5538 -0.0925  0.3694
 3215SOL    HW215482   4.490   0.583   1.786 -0.5231  0.4153 -1.9403
 3216SOL     OW15483   7.800   0.722  10.307 -0.3766 -0.0157 -0.0829
 3216SOL    HW115484   7.775   0.721  10.215  0.8165  0.7790 -0.4378
 3216SOL    HW215485   7.876   0.781  10.311 -0.3589 -0.0986  1.3901
 3217SOL     OW15486   7.438   1.586   5.956 -0.5454 -0.5230  0.2369
 3217SOL    HW115487   7.516   1.548   5.994 -1.3071 -1.4047  0.9625
 3217SOL    HW215488   7.438   1.555   5.865  0.1883 -0.1149  0.0909
 3218SOL     OW15489   0.016   5.726   8.151  0.0734  0.4032 -0.0040
 3218SOL    HW115490   0.031   5.790   8.221  1.1199  0.6022 -0.3871
 3218SOL    HW215491   0.099   5.723   8.103 -0.1689 -0.7746 -0.3857
 3219SOL     OW15492   0.352   5.431   0.554  0.6988  0.4252  0.3919
 3219SOL    HW115493   0.381   5.371   0.622 -1.9594 -0.2700  1.0270
 3219SOL    HW215494   0.393   5.398   0.474 -0.8427 -2.5260  0.6638
 3220SOL     OW15495   4.022   6.934   7.137  0.2071 -0.2348  0.1952
 3220SOL    HW115496   3.979   6.990   7.202  1.7425  1.5358 -0.2292
 3220SOL    HW215497   4.043   6.994   7.065  0.1479 -1.7927 -1.1592
 3221SOL     OW15498   3.020   9.080   9.318 -0.4715 -0.5846  0.2406
 3221SOL    HW115499   2.963   9.124   9.381  2.2035 -0.0895  2.5400
 3221SOL    HW215500   3.085   9.146   9.293  0.2183 -1.5995 -0.7899
 3222SOL     OW15501   2.308   9.902   6.576  0.6870  0.4888 -0.0618
 3222SOL    HW115502   2.377   9.867   6.633 -0.4071  1.6292  2.1020
 3222SOL    HW215503   2.290   9.831   6.515  2.0486 -0.7745  0.9156
 3223SOL     OW15504   1.816   6.320   9.919 -0.0732 -0.6530 -0.2069
 3223SOL    HW115505   1.745   6.305   9.981 -0.1238 -1.1439 -0.3748
 3223SOL    HW215506   1.774   6.316   9.833 -0.2185  1.2445 -0.2549
 3224SOL     OW15507   7.970   4.624   4.482 -0.4698  0.0412  0.1722
 3224SOL    HW115508   7.972   4.568   4.560 -0.7920 -0.0471  0.1140
 3224SOL    HW215509   8.052   4.604   4.437 -0.1624  0.2718  0.6166
 3225SOL     OW15510   6.885  10.803   0.895 -0.0951  0.4781  0.2517
 3225SOL    HW115511   6.955  10.846   0.847  0.6195 -1.1907 -0.2699
 3225SOL    HW215512   6.889  10.712   0.867 -2.3184  0.2639  0.3868
 3226SOL     OW15513   6.845   9.946   6.475 -0.6546  0.0729  0.0281
 3226SOL    HW115514   6.869   9.907   6.391  2.1018 -0.9212  1.1855
 3226SOL    HW215515   6.912  10.012   6.492 -2.0958  1.4308  0.7319
 3227SOL     OW15516   6.944  10.178   5.195 -0.2895  0.2558 -0.1556
 3227SOL    HW115517   6.875  10.243   5.202  0.6531  1.1721  0.8937
 3227SOL    HW215518   7.008  10.217   5.135 -0.2358 -0.1914 -0.3962
 3228SOL     OW15519  10.548   8.541   3.429 -0.2286  0.4748 -0.2456
 3228SOL    HW115520  10.572   8.581   3.346 -0.0754  1.0295  0.0598
 3228SOL    HW215521  10.606   8.583   3.493 -0.4913  0.2064  0.1707
 3229SOL     OW15522   5.739   1.146   1.318  0.0293 -0.1474 -0.6195
 3229SOL    HW115523   5.787   1.075   1.277  0.1744 -0.0354 -0.6469
 3229SOL    HW215524   5.805   1.192   1.370 -0.1846 -0.3798 -0.1378
 3230SOL     OW15525   9.779   4.709   7.409  0.2020  0.0840  0.0274
 3230SOL    HW115526   9.727   4.748   7.339 -0.8219  1.5634  1.5413
 3230SOL    HW215527   9.806   4.624   7.374 -2.7689 -0.5377 -1.0640
 3231SOL     OW15528   6.396   6.917   4.369  0.3130 -0.5268  0.1351
 3231SOL    HW115529   6.370   6.858   4.440 -0.2796  1.0305  1.2687
 3231SOL    HW215530   6.475   6.960   4.402 -0.3943  0.7631  0.1885
 3232SOL     OW15531   6.104   6.406   8.782 -0.4056 -0.1456  0.2633
 3232SOL    HW115532   6.176   6.429   8.722 -0.0076 -0.2985  0.6750
 3232SOL    HW215533   6.131   6.443   8.866 -0.6166 -0.5571  0.5123
 3233SOL     OW15534   6.614   8.479  10.645 -0.3034  0.3181  0.5500
 3233SOL    HW115535   6.650   8.405  10.597 -3.7383 -1.1599  0.0137
 3233SOL    HW215536   6.652   8.471  10.733  1.1942 -0.6218 -0.1366
 3234SOL     OW15537   9.692   7.543   6.190  0.3571 -0.0034  0.0109
 3234SOL    HW115538   9.666   7.635   6.189 -0.7676 -0.3104 -0.7996
 3234SOL    HW215539   9.692   7.519   6.282 -1.3145  0.2880  0.1172
 3235SOL     OW15540   7.932   2.278   6.634 -0.3888  0.2529  0.1948
 3235SOL    HW115541   7.862   2.220   6.606 -0.2481  0.5027 -0.7151
 3235SOL    HW215542   7.938   2.344   6.564  2.3413 -1.1244 -1.0500
 3236SOL     OW15543   2.725   0.460  10.139  0.8357  0.3833  0.0773
 3236SOL    HW115544   2.753   0.498  10.222 -0.6730  1.4366  0.1448
 3236SOL    HW215545   2.655   0.519  10.108  1.1223 -0.1838 -1.7561
 3237SOL     OW15546   4.996   2.381   9.868 -0.5912  0.1620 -0.2954
 3237SOL    HW115547   4.912   2.335   9.879 -0.8674  0.4909 -0.9815
 3237SOL    HW215548   5.058   2.329   9.920 -1.3512  0.3229  0.8043
 3238SOL     OW15549   9.840   7.653   9.074  0.1868  0.5219 -0.0949
 3238SOL    HW115550   9.892   7.711   9.130 -1.7169  0.8655  1.4211
 3238SOL    HW215551   9.764   7.631   9.127 -0.7249 -0.7949 -1.8514
 3239SOL     OW15552   0.054   5.498   2.260  0.0455 -0.3584  0.0169
 3239SOL    HW115553   0.120   5.564   2.238 -1.2980  0.6460 -1.1754
 3239SOL    HW215554   0.044   5.505   2.355  0.6456  0.4459  0.0319
 3240SOL     OW15555   7.093   7.091   5.004  0.0191  0.0616 -0.0243
 3240SOL    HW115556   7.095   7.141   4.922  0.6748 -0.8682 -0.5902
 3240SOL    HW215557   7.163   7.130   5.057 -1.1976  1.4876  0.6311
 3241SOL     OW15558   9.259   7.883   5.905  0.6421  0.2063 -0.1727
 3241SOL    HW115559   9.164   7.877   5.894  0.6052 -1.1186  0.6307
 3241SOL    HW215560   9.293   7.902   5.817 -0.3074  0.0346 -0.5844
 3242SOL     OW15561   7.067   4.260   7.868  0.0109  0.0128  0.3633
 3242SOL    HW115562   7.058   4.235   7.776  0.8290 -2.2776  0.8494
 3242SOL    HW215563   7.161   4.271   7.881 -0.0737  0.0082  1.0114
 3243SOL     OW15564   5.314   1.194   1.785  0.0213 -0.0086 -0.4152
 3243SOL    HW115565   5.252   1.121   1.786  1.0837 -0.9817 -1.8482
 3243SOL    HW215566   5.280   1.254   1.719 -0.1625  0.1872 -0.1478
 3244SOL     OW15567   6.974   4.388   3.328  0.7281  0.0342 -0.0418
 3244SOL    HW115568   6.982   4.352   3.417 -1.0174 -3.5668 -1.1343
 3244SOL    HW215569   6.888   4.430   3.328  0.0502 -1.3142 -0.3877
 3245SOL     OW15570   7.442   1.828   5.744 -1.0510 -0.5080  0.3134
 3245SOL    HW115571   7.531   1.849   5.771 -0.8922 -1.4807  0.5478
 3245SOL    HW215572   7.423   1.743   5.783 -2.6175  0.3264  1.4978
 3246SOL     OW15573   2.546   8.311   2.857 -0.7272  0.1030  0.0232
 3246SOL    HW115574   2.585   8.236   2.814 -0.4882  0.1511  0.1497
 3246SOL    HW215575   2.488   8.350   2.792  0.1304  0.5666 -0.4900
 3247SOL     OW15576  10.051   6.724   4.712  0.1999 -0.1502  0.1532
 3247SOL    HW115577  10.050   6.806   4.761 -0.0081  2.3306 -3.5378
 3247SOL    HW215578   9.982   6.671   4.752 -1.5876  2.6219  1.0587
 3248SOL     OW15579   4.443   8.592   7.835 -0.0450 -0.2897  0.0389
 3248SOL    HW115580   4.371   8.638   7.793 -0.0326 -0.8291 -0.5871
 3248SOL    HW215581   4.472   8.651   7.905 -1.1317 -0.0973  0.3385
 3249SOL     OW15582  10.213   2.279   9.267  0.1032  0.7781  0.1361
 3249SOL    HW115583  10.171   2.355   9.228 -0.1160  0.9350  0.6775
 3249SOL    HW215584  10.287   2.315   9.316 -0.5490  0.7419  1.1654
 3250SOL     OW15585   5.204   4.424   1.409 -0.2805  0.5778  0.0262
 3250SOL    HW115586   5.204   4.397   1.317 -0.5323  0.9129 -0.0703
 3250SOL    HW215587   5.116   4.405   1.440  0.1868 -0.8584  0.5911
 3251SOL     OW15588   3.943   8.811   4.226  0.1986 -0.7050 -0.4620
 3251SOL    HW115589   3.991   8.843   4.149 -0.7629  2.8753  0.2464
 3251SOL    HW215590   4.011   8.773   4.282  1.3482 -0.7577 -1.8233
 3252SOL     OW15591   6.334   2.460   3.404 -0.2296  0.4202  0.5678
 3252SOL    HW115592   6.410   2.516   3.416 -0.7411  0.8865  1.7984
 3252SOL    HW215593   6.334   2.403   3.481 -1.0670  0.3706  0.5436
 3253SOL     OW15594   2.437   0.519   1.979  0.3358 -0.1473 -0.9374
 3253SOL    HW115595   2.494   0.596   1.973  0.2450 -0.1353 -1.6833
 3253SOL    HW215596   2.443   0.478   1.893 -0.9890 -0.0039 -1.1149
 3254SOL     OW15597   5.058   4.916   5.423 -0.4636 -0.2879  0.4747
 3254SOL    HW115598   5.047   4.839   5.368  1.7266  0.3735 -1.0207
 3254SOL    HW215599   4.982   4.971   5.403  0.8470  0.5157 -3.0027
 3255SOL     OW15600   7.879   7.764   5.631  0.1341  0.3830  0.3646
 3255SOL    HW115601   7.945   7.794   5.694 -0.7109  3.4000 -0.0366
 3255SOL    HW215602   7.927   7.753   5.549  1.2866 -3.7667  1.3098
 3256SOL     OW15603   0.790   0.165   4.940 -0.4417 -0.6047  0.5818
 3256SOL    HW115604   0.776   0.070   4.934  0.1385 -0.7493  1.4130
 3256SOL    HW215605   0.861   0.175   5.003 -0.5235  0.3927  0.5284
 3257SOL     OW15606   2.588   5.591   9.022  0.8407  0.3931 -0.0351
 3257SOL    HW115607   2.656   5.547   8.971  0.9390 -1.0470  1.2538
 3257SOL    HW215608   2.557   5.524   9.083  0.0949  1.7792  1.1686
 3258SOL     OW15609   1.498   2.307   3.577 -0.3388 -0.3205 -0.1048
 3258SOL    HW115610   1.436   2.348   3.636 -0.9316 -0.1163 -0.8594
 3258SOL    HW215611   1.506   2.217   3.609 -0.3130 -0.0921  0.5418
 3259SOL     OW15612  10.399   0.132   0.507 -0.0284  0.3576  0.3283
 3259SOL    HW115613  10.444   0.114   0.590 -0.3797  0.3516  0.5227
 3259SOL    HW215614  10.466   0.123   0.440  0.5872  1.7389  0.7254
 3260SOL     OW15615   9.033  10.760   4.034 -0.0301 -0.0128 -0.0793
 3260SOL    HW115616   9.009  10.798   3.949  0.6762  0.0808 -0.2445
 3260SOL    HW215617   9.035  10.835   4.094 -0.2668 -0.0413 -0.0333
 3261SOL     OW15618   9.731   3.628   6.326 -0.0511  0.5763  0.1907
 3261SOL    HW115619   9.660   3.589   6.376 -0.0440  1.8518  1.2524
 3261SOL    HW215620   9.708   3.612   6.235 -0.9286 -0.3331  0.5586
 3262SOL     OW15621  10.874   3.968   1.984  0.9036  0.1950 -0.2901
 3262SOL    HW115622  10.806   3.908   2.012  0.7947 -0.6346 -2.1365
 3262SOL    HW215623  10.941   3.912   1.943  0.6370  1.2833 -2.3878
 3263SOL     OW15624   6.324   7.909  10.375  0.1575  0.3351 -0.0595
 3263SOL    HW115625   6.279   7.988  10.407 -0.4650 -0.5587  1.3704
 3263SOL    HW215626   6.416   7.934  10.371  0.0956  0.8755  1.3201
 3264SOL     OW15627   7.269   7.588   4.609  0.0899  0.1985  0.3252
 3264SOL    HW115628   7.190   7.560   4.655  0.8771 -2.1935  0.3713
 3264SOL    HW215629   7.335   7.596   4.678  0.9430 -2.1452 -0.0978
 3265SOL     OW15630   4.473   1.866   3.996  0.2395 -0.0007 -0.3986
 3265SOL    HW115631   4.553   1.848   3.947  0.2644  1.2553 -0.8528
 3265SOL    HW215632   4.405   1.874   3.929  0.1929  1.3040 -0.2238
 3266SOL     OW15633   1.423   7.401   1.679 -0.0981  0.1050 -0.3033
 3266SOL    HW115634   1.482   7.469   1.711 -1.7067  1.1350  0.6526
 3266SOL    HW215635   1.442   7.324   1.733  1.4121 -0.0885 -1.0782
 3267SOL     OW15636   1.799   9.027   1.654 -0.4087 -0.4521 -0.4456
 3267SOL    HW115637   1.737   9.057   1.588 -0.8890 -2.8101 -1.1717
 3267SOL    HW215638   1.885   9.046   1.617 -0.6647 -2.0217 -1.9627
 3268SOL     OW15639   4.557   3.492   2.987  0.0988 -0.1443 -0.1281
 3268SOL    HW115640   4.549   3.585   3.009 -2.4505 -0.6959  1.7680
 3268SOL    HW215641   4.600   3.453   3.064  1.2329 -0.5666 -0.9445
 3269SOL     OW15642   3.037   5.742   3.819  0.4287 -0.0188  0.3891
 3269SOL    HW115643   3.025   5.680   3.891 -0.9408  1.0123  1.1015
 3269SOL    HW215644   3.124   5.722   3.784  2.0518  0.7342  3.6008
 3270SOL     OW15645   2.724   3.221   9.112 -0.1266 -0.1890  0.4700
 3270SOL    HW115646   2.638   3.226   9.153  0.4270 -1.0993  1.8278
 3270SOL    HW215647   2.715   3.154   9.044 -0.9578  1.0666 -0.7151
 3271SOL     OW15648   0.902   9.180   0.633  0.1960  0.3231  0.1976
 3271SOL    HW115649   0.807   9.167   0.636  0.3251 -0.5336  0.9841
 3271SOL    HW215650   0.917   9.227   0.551 -1.1069  2.2752  1.0119
 3272SOL     OW15651   5.750   9.808   3.173  0.0676  0.2602  0.3881
 3272SOL    HW115652   5.803   9.853   3.107 -0.0497  0.0144  0.1197
 3272SOL    HW215653   5.666   9.855   3.173 -0.1863 -0.1758 -0.1586
 3273SOL     OW15654   7.971   3.760  10.821 -0.0307 -0.2697  0.4699
 3273SOL    HW115655   8.055   3.729  10.788 -0.6993 -0.7577 -0.8634
 3273SOL    HW215656   7.993   3.814  10.897  1.4406 -0.7392  0.4063
 3274SOL     OW15657   5.924   2.828   5.958  0.3181  0.3010  0.3168
 3274SOL    HW115658   5.988   2.888   5.921 -0.2198  0.4005 -0.4673
 3274SOL    HW215659   5.869   2.802   5.884  1.2026 -2.0334  0.4026
 3275SOL     OW15660   6.219   2.268   0.246  0.2780  0.0980  0.4465
 3275SOL    HW115661   6.287   2.329   0.216 -1.0671  0.6697 -1.6265
 3275SOL    HW215662   6.146   2.324   0.272 -0.5044 -0.5703 -0.2554
 3276SOL     OW15663   9.630   9.576   9.989  0.3831  0.8747  0.1286
 3276SOL    HW115664   9.561   9.570  10.056  0.7697  0.3181  0.4891
 3276SOL    HW215665   9.584   9.606   9.911 -0.3356  0.2571  0.2912
 3277SOL     OW15666   4.256   7.585   2.203 -0.0471  0.1831 -0.1903
 3277SOL    HW115667   4.277   7.494   2.225 -0.9063 -0.1492 -0.6908
 3277SOL    HW215668   4.342   7.628   2.197  0.3914 -0.6753 -0.2907
 3278SOL     OW15669   3.607   0.233   8.186  0.1535 -0.4628 -0.4253
 3278SOL    HW115670   3.652   0.223   8.270 -0.9381  0.4201  0.2913
 3278SOL    HW215671   3.674   0.213   8.121  1.7905  1.3249  0.5800
 3279SOL     OW15672   9.253   9.884   4.683 -0.5357 -0.4382  0.4060
 3279SOL    HW115673   9.287   9.889   4.593 -1.7081  0.5344 -0.0053
 3279SOL    HW215674   9.214   9.970   4.699  0.0561 -0.4375  2.0300
 3280SOL     OW15675   2.030  10.820   3.246  0.0223 -0.1316  0.0338
 3280SOL    HW115676   1.955  10.873   3.274  0.1017 -0.3150  0.6021
 3280SOL    HW215677   2.067  10.787   3.327  2.0506  1.7469 -0.0419
 3281SOL     OW15678  10.722   4.513   8.084  0.4314  0.1449  0.2476
 3281SOL    HW115679  10.814   4.497   8.104  0.1148 -0.9131  0.8979
 3281SOL    HW215680  10.700   4.448   8.017  0.2291  0.6129 -0.1533
 3282SOL     OW15681  10.171   5.193   5.035 -0.1040 -0.4187 -0.5713
 3282SOL    HW115682  10.209   5.253   4.970  0.6785 -2.0182 -1.6593
 3282SOL    HW215683  10.079   5.188   5.011 -0.2655  0.6545 -0.2108
 3283SOL     OW15684   0.827   0.584   7.399  0.1281 -0.7670  0.1660
 3283SOL    HW115685   0.800   0.571   7.490  1.9462 -1.0927  0.7013
 3283SOL    HW215686   0.821   0.679   7.386 -1.6547 -0.8535  0.0838
 3284SOL     OW15687   6.782   2.332   9.151 -0.8898  0.0490 -0.1393
 3284SOL    HW115688   6.710   2.313   9.211  0.8287 -1.8018  1.4946
 3284SOL    HW215689   6.805   2.424   9.169 -1.7929  0.1629  0.4767
 3285SOL     OW15690   5.160   3.282   3.584  0.1264  0.3712  0.0153
 3285SOL    HW115691   5.188   3.294   3.493  0.2560 -0.3323 -0.0396
 3285SOL    HW215692   5.105   3.204   3.583  1.1666 -0.3921  0.7558
 3286SOL     OW15693  10.674   5.097   6.178  0.0740 -0.2488  0.0053
 3286SOL    HW115694  10.636   5.058   6.257 -0.6148 -0.5429 -0.4602
 3286SOL    HW215695  10.643   5.041   6.107  0.5561  0.1071 -0.4876
 3287SOL     OW15696   7.417   5.835   1.365  0.1965 -0.6070  0.1423
 3287SOL    HW115697   7.325   5.810   1.378 -0.8255  2.3621 -0.6726
 3287SOL    HW215698   7.425   5.920   1.408  1.8042  0.5038 -2.1811
 3288SOL     OW15699   2.680   1.791   1.948 -0.2827  0.3142 -0.4358
 3288SOL    HW115700   2.741   1.769   1.878 -0.3906 -1.1076 -0.1190
 3288SOL    HW215701   2.595   1.801   1.904 -0.4374 -1.0147 -0.4854
 3289SOL     OW15702   8.123   1.957   6.562 -0.2219  0.5169  0.2103
 3289SOL    HW115703   8.198   1.900   6.545  0.3257  0.8450  1.3692
 3289SOL    HW215704   8.131   2.027   6.498  0.4504  0.5220  0.2885
 3290SOL     OW15705   6.992   9.514   3.013 -0.2712 -0.1481  1.0513
 3290SOL    HW115706   6.912   9.463   3.016 -0.0444 -0.6198 -0.2818
 3290SOL    HW215707   6.989   9.559   2.929  0.7377  0.0290  1.0904
 3291SOL     OW15708   4.760   0.754   8.680  0.1589 -0.3658  0.0587
 3291SOL    HW115709   4.698   0.824   8.702 -0.1434 -0.2070 -1.2101
 3291SOL    HW215710   4.802   0.784   8.599 -0.0562 -1.7014 -0.5667
 3292SOL     OW15711   4.979   3.946  10.905  0.1664  0.2634 -0.6826
 3292SOL    HW115712   4.886   3.966  10.895  0.5849  1.3951 -2.9949
 3292SOL    HW215713   5.001   3.894  10.827  1.3925 -0.4273  0.0834
 3293SOL     OW15714   1.416   2.782   6.180 -0.3084  0.0234 -0.0477
 3293SOL    HW115715   1.359   2.812   6.110 -0.2805 -0.5934 -0.3401
 3293SOL    HW215716   1.356   2.754   6.250 -0.3944 -1.0333 -0.5215
 3294SOL     OW15717   4.271   1.100   1.803  0.8424  0.1392 -0.1296
 3294SOL    HW115718   4.226   1.016   1.788 -2.5123  1.7608 -0.2253
 3294SOL    HW215719   4.262   1.115   1.897  3.9933 -0.7980  0.4358
 3295SOL     OW15720   7.937   0.292   6.920  0.3478 -0.4257 -0.0020
 3295SOL    HW115721   7.897   0.369   6.961 -0.5314 -0.0805 -1.4103
 3295SOL    HW215722   8.031   0.309   6.924  0.1754  0.6492 -0.1295
 3296SOL     OW15723   2.319   4.632   6.160  0.7595 -0.1734  0.1078
 3296SOL    HW115724   2.245   4.664   6.108  0.6944 -0.8766 -0.2462
 3296SOL    HW215725   2.292   4.646   6.251 -0.1055 -1.0504  0.0002
 3297SOL     OW15726   3.246   2.711   0.895 -0.1379 -0.0622 -0.8623
 3297SOL    HW115727   3.156   2.681   0.907 -0.0313  0.2313  0.8592
 3297SOL    HW215728   3.250   2.795   0.941  1.0937 -0.2397 -0.6100
 3298SOL     OW15729   0.772   1.436   1.515 -0.4829  0.1490 -0.5320
 3298SOL    HW115730   0.862   1.441   1.483 -0.3479 -0.8483 -0.3224
 3298SOL    HW215731   0.731   1.369   1.460 -1.4116  1.3342 -1.3364
 3299SOL     OW15732   9.472   3.471   7.397  0.8330  0.0199 -0.7734
 3299SOL    HW115733   9.513   3.417   7.464  1.0971  0.3372 -0.6759
 3299SOL    HW215734   9.453   3.410   7.325 -1.3572 -0.7700  0.3692
 3300SOL     OW15735   2.628   9.350   3.085  1.0670  0.3186  0.1738
 3300SOL    HW115736   2.715   9.316   3.063  0.5541 -1.0732  0.1915
 3300SOL    HW215737   2.581   9.350   3.002  0.9362  0.6166  0.2486
 3301SOL     OW15738  10.670   4.960   8.000 -0.0541  0.1743 -0.2090
 3301SOL    HW115739  10.663   5.043   8.047 -2.0900 -0.4420  0.6717
 3301SOL    HW215740  10.600   4.963   7.935  2.4377  0.8441 -3.1424
 3302SOL     OW15741   9.971   2.761   8.053 -0.4317  0.1024 -0.1720
 3302SOL    HW115742  10.041   2.757   7.988 -2.4056 -1.2924 -2.3471
 3302SOL    HW215743   9.898   2.803   8.007 -1.6303 -0.1715  1.4004
 3303SOL     OW15744   8.801   7.898   7.392  0.4160  0.7847  0.2680
 3303SOL    HW115745   8.715   7.936   7.409 -0.2030  0.1511 -1.2489
 3303SOL    HW215746   8.789   7.803   7.405  0.5900  0.5744 -0.9917
 3304SOL     OW15747   0.568   9.200  10.426 -0.4141  0.8967  0.0969
 3304SOL    HW115748   0.480   9.195  10.390 -0.6018 -0.6344  0.6953
 3304SOL    HW215749   0.621   9.147  10.366 -0.4219 -0.3274  1.1296
 3305SOL     OW15750  10.354  10.333   5.775 -0.0716  0.2853 -0.0349
 3305SOL    HW115751  10.432  10.285   5.746  0.1027  0.4800  0.1012
 3305SOL    HW215752  10.283  10.300   5.720 -0.1583 -0.8381  0.7166
 3306SOL     OW15753  10.471   7.378   9.310  0.0921 -0.1398  0.2221
 3306SOL    HW115754  10.494   7.298   9.358  2.5348  0.7603  0.6903
 3306SOL    HW215755  10.457   7.444   9.379  0.8786  0.4933 -0.2077
 3307SOL     OW15756   2.951   6.367   4.802 -0.3752  0.6006  0.0386
 3307SOL    HW115757   3.041   6.347   4.825 -0.2804 -0.7224 -1.3360
 3307SOL    HW215758   2.905   6.283   4.808 -1.2126  0.9987 -0.5731
 3308SOL     OW15759   5.356   4.588   8.082  0.4172 -0.6803  0.1500
 3308SOL    HW115760   5.287   4.522   8.070 -2.1575  1.8687 -0.0930
 3308SOL    HW215761   5.374   4.586   8.176 -1.8483  0.2131  0.6812
 3309SOL     OW15762   8.569   9.748   4.393  0.1862  0.0575 -0.0634
 3309SOL    HW115763   8.487   9.793   4.372  0.2884  0.7078  0.8801
 3309SOL    HW215764   8.545   9.683   4.459  0.2112 -0.6406 -0.7322
 3310SOL     OW15765   2.320   1.111   8.338  0.1277  0.5479 -0.6029
 3310SOL    HW115766   2.340   1.145   8.425  0.1382  1.1014 -0.8173
 3310SOL    HW215767   2.351   1.179   8.278  1.0568 -0.2806 -1.0824
 3311SOL     OW15768  10.610   0.806   0.417 -0.0528 -0.5432 -0.8001
 3311SOL    HW115769  10.559   0.885   0.437  0.0300 -0.7080  0.0908
 3311SOL    HW215770  10.625   0.811   0.323 -0.4451  0.2703 -0.8309
 3312SOL     OW15771  10.879   9.164   8.469  0.0447  0.2676  0.1393
 3312SOL    HW115772  10.790   9.132   8.454  0.5218  0.1232 -3.1224
 3312SOL    HW215773  10.933   9.085   8.465  0.6013  0.6793 -1.6364
 3313SOL     OW15774   0.145   3.004  10.901  0.0866  0.4155 -0.3544
 3313SOL    HW115775   0.218   3.062  10.924  0.5380  0.1225 -1.0243
 3313SOL    HW215776   0.153   2.992  10.806  0.0545 -0.8175 -0.2145
 3314SOL     OW15777  10.574   0.769   8.485 -0.3571  0.2127 -0.4047
 3314SOL    HW115778  10.562   0.752   8.578  0.2480 -0.1775 -0.3917
 3314SOL    HW215779  10.631   0.846   8.481  0.3698 -0.3127 -0.4370
 3315SOL     OW15780   5.603   0.630   4.690  0.7696  0.0404 -0.3656
 3315SOL    HW115781   5.560   0.596   4.612  0.0276 -0.8126  0.3955
 3315SOL    HW215782   5.656   0.703   4.658 -3.2472  3.0209 -1.0979
 3316SOL     OW15783   7.912   5.699   3.907 -0.5355 -0.5024 -0.1115
 3316SOL    HW115784   7.820   5.699   3.880 -0.8764 -1.4412  0.9539
 3316SOL    HW215785   7.940   5.608   3.895  0.1237 -0.3250  0.0342
 3317SOL     OW15786   8.764   2.623   9.034  0.6873  0.3622  0.6295
 3317SOL    HW115787   8.852   2.621   8.998  1.7849  3.1414  2.7713
 3317SOL    HW215788   8.724   2.701   8.997  0.0170  0.4465  1.4910
 3318SOL     OW15789   6.867   9.318   6.159 -0.0339 -0.3563 -0.1275
 3318SOL    HW115790   6.782   9.309   6.202 -0.7407  0.5122 -1.2671
 3318SOL    HW215791   6.869   9.249   6.094  0.1205 -0.3429 -0.1380
 3319SOL     OW15792   3.721   2.081   8.175  0.1416  0.1737 -1.1717
 3319SOL    HW115793   3.688   2.158   8.221 -1.5247  0.4805 -2.7621
 3319SOL    HW215794   3.652   2.015   8.185  0.7174 -0.4846 -1.4199
 3320SOL     OW15795   4.397   3.317   4.086 -0.1987 -0.2657  0.4842
 3320SOL    HW115796   4.416   3.379   4.156 -1.6712  1.0539 -0.1989
 3320SOL    HW215797   4.482   3.293   4.051  0.4547  1.0254  1.0955
 3321SOL     OW15798   1.286   3.079   6.247  0.3740 -0.1136 -0.7604
 3321SOL    HW115799   1.201   3.087   6.292  0.3199 -0.5029 -0.7861
 3321SOL    HW215800   1.286   2.990   6.212  0.4545  0.1638 -1.4684
 3322SOL     OW15801   5.999   2.214   8.619  0.1736  0.1257 -0.9946
 3322SOL    HW115802   6.048   2.249   8.694 -0.4923 -2.6433  0.8944
 3322SOL    HW215803   6.027   2.268   8.545  3.7493  0.6341  0.4998
 3323SOL     OW15804   7.570  10.464   4.584 -0.2790  0.1831  0.4592
 3323SOL    HW115805   7.657  10.475   4.623  0.3503  0.4529 -0.9462
 3323SOL    HW215806   7.582  10.393   4.521 -1.4131 -0.6362  1.1273
 3324SOL     OW15807   1.478   3.300   0.668 -0.7115 -0.0599 -0.0053
 3324SOL    HW115808   1.457   3.236   0.600 -1.4137 -0.9176  0.9864
 3324SOL    HW215809   1.519   3.373   0.621 -0.7280 -0.8445 -1.2702
 3325SOL     OW15810   1.794   8.376  10.010  0.7119 -1.0870 -0.0131
 3325SOL    HW115811   1.777   8.465   9.979  0.4323 -0.8534  0.7853
 3325SOL    HW215812   1.853   8.388  10.084  1.2298 -1.6239 -0.3316
 3326SOL     OW15813   8.839   1.930   6.258  0.3994 -0.1352  0.6105
 3326SOL    HW115814   8.895   1.956   6.331  0.1868  0.0281  0.7143
 3326SOL    HW215815   8.824   2.011   6.209 -0.3039 -0.0426  0.9615
 3327SOL     OW15816   8.762   9.107   5.372  0.5149  0.2124  0.3680
 3327SOL    HW115817   8.687   9.166   5.379 -0.8843 -1.5298  0.6068
 3327SOL    HW215818   8.820   9.150   5.309 -1.7009  0.5438 -1.5796
 3328SOL     OW15819   6.392   4.904   0.825  0.7212 -0.2117 -0.2232
 3328SOL    HW115820   6.305   4.870   0.801  0.3416  1.3621 -1.2490
 3328SOL    HW215821   6.374   4.990   0.863  1.9173  1.0308 -2.2908
 3329SOL     OW15822   6.227   8.124   0.574 -0.7419  0.2232 -0.0663
 3329SOL    HW115823   6.297   8.136   0.510 -0.4639  2.2011  0.5444
 3329SOL    HW215824   6.228   8.030   0.593  0.3817 -0.1152 -1.5574
 3330SOL     OW15825   5.156  10.790   4.148  0.3824  0.4777 -0.2082
 3330SOL    HW115826   5.188  10.851   4.214 -2.1421  0.1213  1.5065
 3330SOL    HW215827   5.107  10.725   4.198  1.3744 -1.9108 -2.1579
 3331SOL     OW15828   5.201   1.831   9.237  0.0255 -0.2230  0.5387
 3331SOL    HW115829   5.235   1.921   9.240  1.0733 -0.5728 -0.5537
 3331SOL    HW215830   5.166   1.822   9.148  0.5327 -1.1166  0.4272
 3332SOL     OW15831   4.664   2.815   4.901  0.2903  0.3490  0.1576
 3332SOL    HW115832   4.733   2.826   4.966 -0.4648  1.7640  0.7600
 3332SOL    HW215833   4.623   2.730   4.922  0.2193  0.6702  1.3771
 3333SOL     OW15834  10.549  10.093   3.912 -0.6592 -0.4101  0.7758
 3333SOL    HW115835  10.522  10.127   3.827 -1.0693 -0.0025  1.0696
 3333SOL    HW215836  10.577  10.170   3.961 -2.5619 -0.3329  1.8133
 3334SOL     OW15837   3.347   7.241   3.410 -0.4386  0.2373 -0.8217
 3334SOL    HW115838   3.255   7.215   3.418 -0.3742 -0.1783 -1.3409
 3334SOL    HW215839   3.394   7.183   3.469 -0.1210 -1.8967 -3.0130
 3335SOL     OW15840   0.105   1.171   4.428  0.2243  0.0553  0.1637
 3335SOL    HW115841   0.061   1.197   4.347 -1.8203  1.3423  1.5894
 3335SOL    HW215842   0.082   1.078   4.438  0.6180 -0.1613 -0.7537
 3336SOL     OW15843   1.064   0.671   1.105 -0.3133  0.1621 -0.4172
 3336SOL    HW115844   0.987   0.727   1.107 -1.6160 -1.5602  1.0982
 3336SOL    HW215845   1.128   0.718   1.159 -0.2781  1.5715 -1.6297
 3337SOL     OW15846   5.604   5.930   7.091 -0.0485 -0.3050 -0.0165
 3337SOL    HW115847   5.625   6.021   7.074 -0.0561 -0.4064 -0.5990
 3337SOL    HW215848   5.513   5.931   7.121 -0.9225 -0.3332 -2.4288
 3338SOL     OW15849   1.575   7.386   9.057  0.5685 -0.1237 -0.7564
 3338SOL    HW115850   1.621   7.323   9.113 -2.1249  0.7637  2.7845
 3338SOL    HW215851   1.575   7.346   8.971  1.4969 -3.5781  0.6896
 3339SOL     OW15852   9.069   4.608   4.925 -0.1571 -0.1670  0.6478
 3339SOL    HW115853   9.019   4.544   4.874  1.4116  0.5399 -1.9611
 3339SOL    HW215854   9.013   4.685   4.928 -0.8368 -0.6690  1.2471
 3340SOL     OW15855   0.675   5.872   0.552  0.0337  1.0468  0.1100
 3340SOL    HW115856   0.620   5.948   0.535  0.1345  1.2597  0.7241
 3340SOL    HW215857   0.643   5.837   0.635 -0.6193 -0.1330 -0.5949
 3341SOL     OW15858   2.753   1.244  10.670  0.4713  0.5605 -0.7144
 3341SOL    HW115859   2.840   1.232  10.709 -0.4471  1.2357  1.7109
 3341SOL    HW215860   2.698   1.181  10.717 -0.5468  0.7986 -1.5658
 3342SOL     OW15861   1.663   6.374   2.574  0.0494  0.5148 -0.2562
 3342SOL    HW115862   1.634   6.286   2.598 -1.0363  0.5518 -1.3396
 3342SOL    HW215863   1.735   6.359   2.512  1.9098  0.4248  1.8074
 3343SOL     OW15864   7.225   6.589   9.366  0.8332 -0.6338  0.0710
 3343SOL    HW115865   7.304   6.589   9.419 -0.2265  0.4817  1.7367
 3343SOL    HW215866   7.253   6.556   9.280  2.9202 -0.9478  0.8292
 3344SOL     OW15867   6.335   3.266   1.735  0.1425  0.4221  0.2791
 3344SOL    HW115868   6.364   3.209   1.663  0.7155 -0.3215  1.0690
 3344SOL    HW215869   6.387   3.345   1.725  0.4106  0.2188  0.0277
 3345SOL     OW15870   9.467   3.425   3.172  0.2926  0.4921  0.1919
 3345SOL    HW115871   9.513   3.495   3.219  0.3444  0.9049 -0.4613
 3345SOL    HW215872   9.522   3.348   3.184  1.4953  1.1199 -1.0954
 3346SOL     OW15873   9.927   1.403   4.452 -0.0169 -0.2228 -0.1899
 3346SOL    HW115874   9.921   1.350   4.532 -1.5167  1.2109  0.7134
 3346SOL    HW215875   9.891   1.347   4.384  0.4093 -1.1330  0.3116
 3347SOL     OW15876   0.963   8.431  10.696  0.0901 -0.4090 -0.6021
 3347SOL    HW115877   0.900   8.369  10.659 -0.5874 -0.9581  1.3573
 3347SOL    HW215878   1.007   8.382  10.765 -0.2451  1.1802  0.8026
 3348SOL     OW15879   3.892   2.385  10.312  0.8439  0.5932 -0.5396
 3348SOL    HW115880   3.883   2.300  10.356 -0.8125  1.0243  0.0066
 3348SOL    HW215881   3.872   2.367  10.220  0.1887  0.4486 -0.3702
 3349SOL     OW15882   6.354   6.218   6.547  0.2074  0.0435  0.1876
 3349SOL    HW115883   6.354   6.225   6.643 -0.3841  0.6444  0.1493
 3349SOL    HW215884   6.396   6.133   6.529 -1.3996 -0.9850  1.0474
 3350SOL     OW15885   7.737   5.606   6.884  0.1682  0.3674 -0.1866
 3350SOL    HW115886   7.746   5.520   6.924 -1.6210  0.4785  0.5372
 3350SOL    HW215887   7.726   5.666   6.958 -3.0799  0.5874 -0.7030
 3351SOL     OW15888   4.008   0.568   1.769 -0.1573  0.3659 -0.0941
 3351SOL    HW115889   4.043   0.631   1.832  0.7925  0.6780 -0.9073
 3351SOL    HW215890   4.074   0.564   1.700 -0.1647 -1.5583 -0.0412
 3352SOL     OW15891   7.103   4.641   1.977  0.2035 -0.0769 -0.2292
 3352SOL    HW115892   7.050   4.562   1.962  0.4746  0.0893 -2.2952
 3352SOL    HW215893   7.171   4.638   1.909 -1.1279  3.0696 -1.9128
 3353SOL     OW15894   1.446   0.835   4.766  0.0012  0.1682  0.1387
 3353SOL    HW115895   1.458   0.780   4.689  1.7152 -1.1565  1.2670
 3353SOL    HW215896   1.405   0.915   4.732  1.9768  0.2418 -2.3964
 3354SOL     OW15897   2.061   8.418   1.118  0.5738 -0.1305 -0.2241
 3354SOL    HW115898   1.983   8.371   1.147  0.8974 -0.6523 -0.1770
 3354SOL    HW215899   2.035   8.510   1.116  0.1117 -0.2477  0.2883
 3355SOL     OW15900   6.033   2.290  10.581 -0.4328  0.2030  0.3138
 3355SOL    HW115901   6.032   2.212  10.636 -0.7344  0.2480  0.3736
 3355SOL    HW215902   6.123   2.323  10.587  0.3265 -1.3523 -1.4532
 3356SOL     OW15903   8.852   9.434  10.609  0.5125 -0.3728  0.3151
 3356SOL    HW115904   8.759   9.433  10.586  1.4095 -0.4273 -4.1306
 3356SOL    HW215905   8.868   9.524  10.638 -0.3951  0.6047 -1.9789
 3357SOL     OW15906   0.294   8.058  10.060 -0.2073 -0.6721 -0.0102
 3357SOL    HW115907   0.358   8.042  10.130  0.6224  1.3556 -0.2560
 3357SOL    HW215908   0.209   8.045  10.103  0.2915  0.3383  1.3521
 3358SOL     OW15909   2.074   0.250   7.023  0.2235 -0.1677 -0.5406
 3358SOL    HW115910   2.033   0.172   7.059 -2.3244  1.0789 -0.4656
 3358SOL    HW215911   2.154   0.219   6.981  0.6084 -2.4078  1.6271
 3359SOL     OW15912   7.904   8.275   6.435  0.2891 -0.2570  0.4702
 3359SOL    HW115913   7.846   8.351   6.425  1.1961  0.4831  0.6964
 3359SOL    HW215914   7.852   8.201   6.405 -0.7269  0.4099  0.5314
 3360SOL     OW15915   3.482   1.603   3.748  0.1032 -0.8623  0.1049
 3360SOL    HW115916   3.536   1.569   3.676  0.6782 -0.5203  0.3714
 3360SOL    HW215917   3.528   1.577   3.827  0.0130 -0.3421  0.3317
 3361SOL     OW15918   3.459   0.806   2.364  0.0381 -0.4093  0.8676
 3361SOL    HW115919   3.509   0.784   2.286  0.0833  1.4812  0.2986
 3361SOL    HW215920   3.370   0.821   2.332 -0.2658 -0.9967  1.4192
 3362SOL     OW15921   5.575   1.372   9.340  0.5776  0.5131  0.0447
 3362SOL    HW115922   5.669   1.375   9.358  0.5408 -0.7568  0.5560
 3362SOL    HW215923   5.540   1.315   9.408 -0.4476  0.3140 -0.6399
 3363SOL     OW15924   1.362   2.550   4.691  0.5272  0.3487  0.2310
 3363SOL    HW115925   1.433   2.526   4.752 -0.2969 -3.4278 -0.0421
 3363SOL    HW215926   1.283   2.516   4.733 -0.3261 -0.5718 -1.9958
 3364SOL     OW15927   2.725   8.657   0.672  0.2671 -0.7593  0.5384
 3364SOL    HW115928   2.776   8.735   0.650  0.8038 -0.7714  1.6633
 3364SOL    HW215929   2.723   8.606   0.591  0.0089  0.3635 -0.1677
 3365SOL     OW15930   0.299   0.059   8.797  0.1001  0.4048  0.1199
 3365SOL    HW115931   0.321  -0.007   8.731  1.9256  2.2706 -1.2885
 3365SOL    HW215932   0.369   0.053   8.862 -2.5052 -2.5295  3.0420
 3366SOL     OW15933   0.895   1.623   9.582  0.0033  0.8152  0.4809
 3366SOL    HW115934   0.925   1.685   9.649  0.3875 -0.4784  1.5390
 3366SOL    HW215935   0.941   1.542   9.602 -0.2748  0.2542 -1.0594
 3367SOL     OW15936   7.342   7.203   8.584 -0.4176  0.3611  0.3735
 3367SOL    HW115937   7.281   7.206   8.511  1.5996 -2.3332 -1.6071
 3367SOL    HW215938   7.425   7.234   8.547  0.4472 -0.2126  1.7668
 3368SOL     OW15939   5.663   9.354   2.364 -0.0296 -0.3227  0.5356
 3368SOL    HW115940   5.698   9.278   2.317  1.2379  1.7652 -2.1609
 3368SOL    HW215941   5.698   9.430   2.316 -4.2348  2.0229  0.7650
 3369SOL     OW15942  10.294   0.102   8.560 -0.3308  0.2044  0.2921
 3369SOL    HW115943  10.371   0.142   8.520 -0.4069 -0.5283 -0.6381
 3369SOL    HW215944  10.304   0.118   8.654  1.9381 -1.4981  0.4120
 3370SOL     OW15945   9.574   1.440   5.370 -0.2697 -0.1098  0.3223
 3370SOL    HW115946   9.486   1.477   5.357 -1.6260 -2.5790  1.6650
 3370SOL    HW215947   9.619   1.454   5.287 -2.4567 -0.0867 -0.9323
 3371SOL     OW15948   0.522   9.135   8.576 -0.3138 -0.4507  0.2676
 3371SOL    HW115949   0.457   9.071   8.545 -0.7123 -0.1334  0.4323
 3371SOL    HW215950   0.604   9.086   8.581 -0.0878 -0.3718 -1.8584
 3372SOL     OW15951   7.786  10.320   3.449 -0.6464 -0.0025 -0.1006
 3372SOL    HW115952   7.815  10.405   3.416  0.0606  0.1503  0.8838
 3372SOL    HW215953   7.788  10.330   3.544 -1.9358 -0.6672  0.0246
 3373SOL     OW15954   9.613   4.093   7.527 -0.1681 -0.3007  0.3388
 3373SOL    HW115955   9.645   4.170   7.481 -0.7660 -0.4719 -0.3842
 3373SOL    HW215956   9.565   4.129   7.602 -2.0242  0.1496 -0.9814
 3374SOL     OW15957   0.501   7.082   8.570  0.7082 -0.2550 -0.2495
 3374SOL    HW115958   0.430   7.100   8.632  0.6289 -0.6163 -0.2337
 3374SOL    HW215959   0.464   7.101   8.484  0.5873 -0.4504 -0.2421
 3375SOL     OW15960   9.750   5.910   4.642  0.0748  0.0655 -0.5523
 3375SOL    HW115961   9.712   5.924   4.728  1.1497  0.2659 -0.0962
 3375SOL    HW215962   9.821   5.848   4.657  0.5246  0.4056 -1.2262
 3376SOL     OW15963   5.194   2.063   9.054 -0.0223  0.1539 -0.5879
 3376SOL    HW115964   5.200   2.042   8.961  0.9642  1.4993 -0.8482
 3376SOL    HW215965   5.165   2.154   9.056 -0.4436  0.0069  0.4357
 3377SOL     OW15966   5.339   8.452   1.075 -0.3918 -0.1255 -0.1506
 3377SOL    HW115967   5.354   8.360   1.051 -1.0402 -0.2669 -0.0372
 3377SOL    HW215968   5.245   8.457   1.091 -0.1491  0.1964  1.3602
 3378SOL     OW15969   9.936   7.353   9.939  0.0947 -0.1097  0.2920
 3378SOL    HW115970   9.944   7.448   9.934  0.7352 -0.0305  2.1443
 3378SOL    HW215971   9.891   7.336  10.022  1.0386 -1.4556  0.5635
 3379SOL     OW15972   0.969  10.879  10.756 -0.3073 -0.1632  0.5929
 3379SOL    HW115973   0.893  10.867  10.812 -0.5918  0.9400  0.4780
 3379SOL    HW215974   1.040  10.900  10.817 -0.3006 -0.3271  0.6406
 3380SOL     OW15975  10.714   8.261   7.570  0.1034  0.0845  0.1246
 3380SOL    HW115976  10.738   8.209   7.647 -1.7345  0.8938  1.3316
 3380SOL    HW215977  10.644   8.210   7.528  0.2639  0.2291 -0.3273
 3381SOL     OW15978   3.987   6.294   0.848  0.3967  0.1769 -0.1517
 3381SOL    HW115979   4.019   6.313   0.937 -0.4135 -1.8381  0.6316
 3381SOL    HW215980   4.065   6.301   0.793  0.8023  2.1046  0.5773
 3382SOL     OW15981   2.033   4.676   1.436 -0.2840  0.3486 -0.1319
 3382SOL    HW115982   2.074   4.757   1.407  0.8920 -0.7743 -1.7636
 3382SOL    HW215983   2.016   4.690   1.529 -0.0515  2.4149 -0.3574
 3383SOL     OW15984   1.848   5.383   1.313  0.1110  0.1379 -0.2829
 3383SOL    HW115985   1.799   5.462   1.292 -0.7058 -0.0023  1.0074
 3383SOL    HW215986   1.893   5.360   1.231 -1.3089  0.7485 -1.2652
 3384SOL     OW15987   0.194   4.785   9.929  0.4245  0.3421  0.1003
 3384SOL    HW115988   0.212   4.706   9.981  0.4997  0.1423 -0.2257
 3384SOL    HW215989   0.250   4.852   9.968  0.8638  0.0650 -0.0350
 3385SOL     OW15990   9.163   7.343   1.061  0.3121 -0.5798  0.2564
 3385SOL    HW115991   9.088   7.385   1.018  0.3933  1.2384  1.7754
 3385SOL    HW215992   9.212   7.415   1.099  1.8556 -1.8974  0.8611
 3386SOL     OW15993   2.032   8.980   4.572 -0.3777  0.0779  0.4687
 3386SOL    HW115994   1.965   8.970   4.640 -1.6016  0.3461 -0.6642
 3386SOL    HW215995   1.984   8.976   4.489  1.1957 -1.2664 -0.4472
 3387SOL     OW15996   4.637   3.853   7.639  0.5718  0.3087  0.2122
 3387SOL    HW115997   4.684   3.774   7.667  0.7714  0.1544 -0.5398
 3387SOL    HW215998   4.547   3.823   7.623 -0.0880  0.7860  2.5727
 3388SOL     OW15999   9.071   2.955   1.794  0.5405 -0.4904  0.3535
 3388SOL    HW116000   9.156   3.000   1.794 -0.4443  1.7162 -2.7919
 3388SOL    HW216001   9.013   3.014   1.841  0.2616 -0.8858  0.5055
 3389SOL     OW16002   4.583   4.020   1.087 -0.7092 -0.2688 -0.3375
 3389SOL    HW116003   4.549   3.959   1.152  1.6027  0.5066  1.7622
 3389SOL    HW216004   4.550   4.106   1.114  2.3428  0.4475  1.5461
 3390SOL     OW16005   0.434   1.867   7.934 -0.3826 -0.5371 -0.4345
 3390SOL    HW116006   0.412   1.848   8.025  0.8664 -0.4618 -0.1074
 3390SOL    HW216007   0.455   1.781   7.896  1.9452 -0.2708  0.1437
 3391SOL     OW16008   7.838  10.268   8.459  0.4249 -0.0759  0.2751
 3391SOL    HW116009   7.776  10.217   8.512  1.5834 -2.0239 -0.1577
 3391SOL    HW216010   7.790  10.348   8.437 -1.2730 -0.7096  1.4642
 3392SOL     OW16011   1.859   8.585   7.853  0.6816 -0.0098  0.5132
 3392SOL    HW116012   1.768   8.564   7.828  0.7737  0.3860 -0.1936
 3392SOL    HW216013   1.903   8.500   7.855  0.4654 -0.1376  0.1303
 3393SOL     OW16014   5.692   4.119   5.515  0.0808  0.4453  0.2503
 3393SOL    HW116015   5.661   4.031   5.536 -2.4361  0.9524 -0.9473
 3393SOL    HW216016   5.684   4.125   5.419 -0.0635  2.0510  0.3385
 3394SOL     OW16017   0.011   6.211   9.274  0.0782  0.1761  0.0048
 3394SOL    HW116018   0.093   6.190   9.229  0.3345  1.0457  0.0591
 3394SOL    HW216019  -0.007   6.302   9.251 -0.6566  0.1220  0.3359
 3395SOL     OW16020   6.760   8.839  10.477 -0.0586 -0.2089 -0.1036
 3395SOL    HW116021   6.675   8.795  10.481 -0.8256  1.2588  0.6417
 3395SOL    HW216022   6.762   8.894  10.556  0.8146  1.1249 -1.0078
 3396SOL     OW16023   2.317  10.500   3.110 -0.3551  0.0755 -0.2841
 3396SOL    HW116024   2.404  10.461   3.100 -1.1939 -1.5861 -1.7588
 3396SOL    HW216025   2.260  10.425   3.130 -1.7184  0.8427 -1.1689
 3397SOL     OW16026   6.705   2.314   0.894 -0.1424 -0.2263  0.8889
 3397SOL    HW116027   6.770   2.269   0.839 -0.4105  0.2288  0.1821
 3397SOL    HW216028   6.731   2.292   0.984  0.6590 -0.5052  0.6045
 3398SOL     OW16029   7.868   5.322   9.112  0.0626  0.4170 -0.2358
 3398SOL    HW116030   7.877   5.237   9.070 -0.9972 -0.3922  1.0691
 3398SOL    HW216031   7.953   5.365   9.100 -0.0425  0.0718 -2.7280
 3399SOL     OW16032   0.981  10.699   0.828 -0.8597  0.0545  0.2758
 3399SOL    HW116033   1.056  10.731   0.779 -2.2620  0.7465 -1.5351
 3399SOL    HW216034   0.912  10.689   0.763 -2.3298 -0.6231  1.8591
 3400SOL     OW16035   3.624   5.964   7.478  0.1257  0.0557 -0.0462
 3400SOL    HW116036   3.645   5.910   7.402  1.1330 -3.2025  2.3462
 3400SOL    HW216037   3.709   5.985   7.517 -0.3772  1.6238  0.3011
 3401SOL     OW16038   9.148   3.498   1.326 -0.4639 -0.0145  0.0326
 3401SOL    HW116039   9.089   3.574   1.330 -1.5357 -0.7828 -0.4975
 3401SOL    HW216040   9.232   3.533   1.297 -1.2857  0.7989 -1.4535
 3402SOL     OW16041   1.121   5.816   1.107  0.2251  0.0755 -0.2373
 3402SOL    HW116042   1.095   5.900   1.068 -0.9734 -0.5294 -0.7898
 3402SOL    HW216043   1.171   5.772   1.038  0.5883  0.1947 -0.0552
 3403SOL     OW16044   1.256   3.893   2.403  0.0331 -0.3681 -0.0397
 3403SOL    HW116045   1.195   3.927   2.337 -1.6195 -1.3604  0.9048
 3403SOL    HW216046   1.287   3.811   2.366 -0.9681 -0.9724  0.4281
 3404SOL     OW16047   0.630   8.028   1.940  0.1807  0.0666 -0.4697
 3404SOL    HW116048   0.676   7.962   1.887 -1.5519 -1.1840 -0.4818
 3404SOL    HW216049   0.567   8.067   1.879 -1.4561 -1.0014  0.4646
 3405SOL     OW16050   4.171   4.608   3.425 -0.0938 -0.5512 -0.0125
 3405SOL    HW116051   4.265   4.622   3.412 -0.0165 -1.0331  0.0159
 3405SOL    HW216052   4.141   4.568   3.344 -0.3772  0.0575 -0.2159
 3406SOL     OW16053   5.993   1.202  10.760  0.0279 -0.1106 -0.1962
 3406SOL    HW116054   5.934   1.231  10.691  0.8629 -0.5336 -1.1079
 3406SOL    HW216055   6.062   1.154  10.714  0.7717 -0.1200  0.8957
 3407SOL     OW16056   7.477   6.116   0.326  0.1351  0.6194 -0.3046
 3407SOL    HW116057   7.455   6.119   0.419 -3.0103  1.9304 -0.9811
 3407SOL    HW216058   7.529   6.196   0.312  0.3230  0.6023  0.2357
 3408SOL     OW16059   1.404   3.445   0.137 -0.5623  0.2872  0.2804
 3408SOL    HW116060   1.456   3.368   0.115 -1.6770 -0.3963 -0.0415
 3408SOL    HW216061   1.415   3.503   0.061  0.2625  0.4498  0.5156
 3409SOL     OW16062   7.490   3.572   8.516 -0.0193  0.3538 -0.1619
 3409SOL    HW116063   7.478   3.503   8.451 -2.2527  0.4778  0.0518
 3409SOL    HW216064   7.408   3.574   8.565  0.0671  2.9598  0.0192
 3410SOL     OW16065   6.727   7.784   2.734  0.4603 -0.3171 -0.0912
 3410SOL    HW116066   6.806   7.780   2.681 -0.1386  1.3482 -1.1849
 3410SOL    HW216067   6.755   7.756   2.821  2.2689  0.3456 -0.4172
 3411SOL     OW16068   9.917  10.440   4.432 -0.1592 -0.8732  0.1208
 3411SOL    HW116069   9.861  10.363   4.426  0.5077 -1.4114  0.5813
 3411SOL    HW216070   9.884  10.500   4.366 -0.3770 -1.7605 -0.5901
 3412SOL     OW16071   5.096   8.442   4.561  0.0318  0.8521 -0.3069
 3412SOL    HW116072   5.188   8.436   4.584 -0.1592  0.1342  0.3333
 3412SOL    HW216073   5.092   8.508   4.493  1.0317  0.8166 -0.4111
 3413SOL     OW16074  10.072   1.067   5.622 -0.0520 -0.0216  0.2727
 3413SOL    HW116075  10.064   0.971   5.629 -2.1622 -0.0681 -1.6092
 3413SOL    HW216076  10.110   1.081   5.535 -0.7713  0.8297  0.0760
 3414SOL     OW16077   2.465   5.180   5.043 -0.4657 -0.3816 -0.2212
 3414SOL    HW116078   2.529   5.133   5.097 -0.1272  0.2737 -0.0359
 3414SOL    HW216079   2.403   5.216   5.106 -0.5929 -0.3905 -0.3420
 3415SOL     OW16080   8.851   5.984   7.138  0.0345  0.3978 -0.0353
 3415SOL    HW116081   8.892   5.909   7.182 -3.7192 -1.5252  0.6430
 3415SOL    HW216082   8.900   5.995   7.057  1.1273 -2.4480  0.1386
 3416SOL     OW16083   5.830   5.271   3.601  0.3200 -0.3363  0.2464
 3416SOL    HW116084   5.735   5.268   3.610  0.3973 -1.4991  0.7912
 3416SOL    HW216085   5.845   5.262   3.507 -0.0795 -1.7632  0.2913
 3417SOL     OW16086   6.588   6.462   6.387 -0.2957 -0.3684 -0.4340
 3417SOL    HW116087   6.644   6.454   6.464  0.8278  0.5672 -1.1199
 3417SOL    HW216088   6.642   6.508   6.322 -1.8012  0.4503 -1.1766
 3418SOL     OW16089   4.164   6.737   6.405  0.0749 -0.0816 -0.2158
 3418SOL    HW116090   4.226   6.740   6.477 -1.1642 -0.1256  0.8883
 3418SOL    HW216091   4.124   6.824   6.403 -3.8532 -1.5187  2.8475
 3419SOL     OW16092   6.693   6.377   6.635  0.1985  0.4639  0.4318
 3419SOL    HW116093   6.653   6.292   6.621  0.1647  0.4631  0.5299
 3419SOL    HW216094   6.783   6.358   6.660  0.0291  0.4309  1.0409
 3420SOL     OW16095   0.687   2.801   9.748  0.0972 -0.3542  0.3465
 3420SOL    HW116096   0.655   2.804   9.838  0.7243 -1.5702  0.6177
 3420SOL    HW216097   0.616   2.758   9.699  0.4836 -1.2815  0.5891
 3421SOL     OW16098   9.239   5.606   4.030  0.0410 -0.1447 -0.2930
 3421SOL    HW116099   9.332   5.623   4.043 -0.0678 -0.0732  0.4144
 3421SOL    HW216100   9.198   5.629   4.113 -0.5166 -0.8442 -0.3607
 3422SOL     OW16101   0.075   6.773   2.879  0.0800 -0.0219 -0.2840
 3422SOL    HW116102  -0.020   6.768   2.894  0.2176 -0.6009  0.4481
 3422SOL    HW216103   0.104   6.843   2.937 -0.1179  1.3344 -1.7412
 3423SOL     OW16104   9.799   1.895   9.040  0.4577 -0.2164 -0.2905
 3423SOL    HW116105   9.853   1.940   9.106  0.1561  0.0019 -0.1881
 3423SOL    HW216106   9.736   1.845   9.091  0.6619 -0.6010 -0.4084
 3424SOL     OW16107   2.376   5.693   4.027  0.5133 -0.0249 -0.5057
 3424SOL    HW116108   2.442   5.624   4.026  1.6496  1.0232 -0.5898
 3424SOL    HW216109   2.403   5.753   3.958 -0.0219  0.8917  0.0613
 3425SOL     OW16110   4.161   4.947   2.792  0.1670 -0.5189 -0.1891
 3425SOL    HW116111   4.089   4.914   2.737 -0.1796 -0.9993  0.5388
 3425SOL    HW216112   4.120   4.965   2.876  1.2613 -2.7531  0.8948
 3426SOL     OW16113   1.376  10.400   1.291 -0.4594 -0.6113  0.5684
 3426SOL    HW116114   1.304  10.385   1.231  0.0711  1.5662 -0.7215
 3426SOL    HW216115   1.426  10.319   1.290  0.4640 -0.1877 -3.3098
 3427SOL     OW16116   6.093   3.738   8.786 -0.2894 -0.8247  0.3807
 3427SOL    HW116117   6.092   3.679   8.862 -0.3592  0.8027  1.7121
 3427SOL    HW216118   6.021   3.799   8.803  1.7290  1.6098  0.7430
 3428SOL     OW16119   2.421   5.151  10.873  0.4952 -0.2234 -0.0443
 3428SOL    HW116120   2.413   5.221  10.938  0.3506  0.0358 -0.3386
 3428SOL    HW216121   2.503   5.106  10.895 -0.0647 -0.7825  0.9422
 3429SOL     OW16122   0.950   1.984   9.437 -0.1000 -0.3511  0.2452
 3429SOL    HW116123   0.934   2.076   9.459  0.3735 -0.2884  0.3224
 3429SOL    HW216124   0.863   1.949   9.416 -0.2389  0.1857 -0.0696
 3430SOL     OW16125   1.879   8.979   4.817  0.1332 -0.3161  0.0336
 3430SOL    HW116126   1.961   8.987   4.867  0.0864  0.4679  0.0019
 3430SOL    HW216127   1.848   8.890   4.835  0.7565 -0.4651  0.4066
 3431SOL     OW16128   0.506  10.007   6.394 -0.3709 -0.1353 -0.3225
 3431SOL    HW116129   0.444   9.948   6.349  1.0407 -2.1033  0.1874
 3431SOL    HW216130   0.585   9.954   6.405  0.9324  1.8557  0.3050
 3432SOL     OW16131   0.396   4.843   5.300  0.1073  0.0885 -0.3219
 3432SOL    HW116132   0.474   4.893   5.277  0.0324  0.5769  0.4480
 3432SOL    HW216133   0.428   4.775   5.361 -0.1454  0.6406  0.4386
 3433SOL     OW16134  10.323   3.499   4.563 -0.6021  0.2119 -0.3373
 3433SOL    HW116135  10.390   3.510   4.495  0.0200 -0.0765  0.2237
 3433SOL    HW216136  10.339   3.571   4.624  1.2032 -1.5541  1.4460
 3434SOL     OW16137   0.628   7.377   7.375  0.6310 -0.0463 -0.4150
 3434SOL    HW116138   0.554   7.318   7.360  0.4788 -0.5102  1.8007
 3434SOL    HW216139   0.588   7.460   7.399  0.8518  0.4594 -1.7381
 3435SOL     OW16140   8.062   7.981   2.049 -0.5206 -0.3427 -0.1691
 3435SOL    HW116141   8.065   7.897   2.094  0.1830 -0.8161 -1.0644
 3435SOL    HW216142   7.970   7.993   2.024 -1.4277  0.9980  3.2731
 3436SOL     OW16143   0.960   8.429   8.366  0.5229  0.5042  0.8006
 3436SOL    HW116144   0.998   8.362   8.423 -0.0522 -1.4593 -0.9870
 3436SOL    HW216145   1.031   8.452   8.306  0.3334  0.5373  0.5905
 3437SOL     OW16146   7.534   0.115   5.113  0.1848  0.0890  0.1709
 3437SOL    HW116147   7.528   0.197   5.063 -1.0955  0.2449  0.5322
 3437SOL    HW216148   7.494   0.050   5.056  0.5286 -0.1375  0.1868
 3438SOL     OW16149   0.094   6.314   0.020  0.4988 -0.2961  0.2227
 3438SOL    HW116150   0.163   6.371   0.055 -0.4718  0.5763  0.7707
 3438SOL    HW216151   0.032   6.304   0.093  1.2554 -3.1553  0.6190
 3439SOL     OW16152   2.602   2.950   4.101  0.1450 -0.0414 -0.1419
 3439SOL    HW116153   2.538   3.013   4.069  0.5317 -0.3796 -1.6304
 3439SOL    HW216154   2.562   2.864   4.087  0.2229 -0.1954  0.5304
 3440SOL     OW16155   3.462   8.742   4.793 -0.1120 -0.1666 -0.1293
 3440SOL    HW116156   3.453   8.657   4.751 -1.2903 -0.0097 -0.2277
 3440SOL    HW216157   3.468   8.723   4.886 -0.1328 -0.3604 -0.1685
 3441SOL     OW16158   3.284   6.417   2.774 -0.1250 -0.2096 -0.1661
 3441SOL    HW116159   3.379   6.410   2.787 -0.3083 -3.3562  0.2593
 3441SOL    HW216160   3.272   6.399   2.681 -0.3643 -1.0100  0.0151
 3442SOL     OW16161   1.432  10.677   0.884 -0.9461  0.5438  0.3403
 3442SOL    HW116162   1.495  10.719   0.943 -1.0877 -0.9762  1.6207
 3442SOL    HW216163   1.439  10.727   0.803  1.9466  0.4256  0.4180
 3443SOL     OW16164   4.983   9.582   5.083 -0.5628  0.2073 -0.4555
 3443SOL    HW116165   4.910   9.643   5.083  0.6868  1.7651 -0.7235
 3443SOL    HW216166   5.061   9.637   5.095  0.6232 -1.3197 -0.7628
 3444SOL     OW16167   2.092   3.668   8.510 -0.1283  0.5052  0.2268
 3444SOL    HW116168   2.096   3.637   8.420 -2.6194 -1.8968  0.7932
 3444SOL    HW216169   2.161   3.619   8.556 -0.3904 -0.0226  0.0587
 3445SOL     OW16170   2.559   3.639   9.826  0.0463 -0.0430  0.3815
 3445SOL    HW116171   2.616   3.716   9.830  1.9946 -1.2991 -1.1906
 3445SOL    HW216172   2.602   3.576   9.884  0.7668 -1.2571 -1.3756
 3446SOL     OW16173   1.547   7.649  10.563 -0.3734 -0.0972 -0.4962
 3446SOL    HW116174   1.594   7.586  10.618  0.0055  1.2443  0.7803
 3446SOL    HW216175   1.615   7.693  10.512 -0.5545 -0.1262 -0.7717
 3447SOL     OW16176   0.351   6.107   8.697  0.2391  1.1175 -0.3837
 3447SOL    HW116177   0.355   6.151   8.782  0.9684  3.1161 -1.3884
 3447SOL    HW216178   0.295   6.164   8.644 -1.2748 -0.7743 -0.9143
 3448SOL     OW16179   4.998   5.147   6.464  0.3211  0.4784  0.4494
 3448SOL    HW116180   4.951   5.224   6.432 -1.8878 -1.0883 -0.3279
 3448SOL    HW216181   5.061   5.127   6.395 -1.2417 -0.1662 -0.8524
 3449SOL     OW16182   3.332   4.891   0.467  0.4646 -0.2553  0.1922
 3449SOL    HW116183   3.323   4.987   0.464  0.1703 -0.3065 -1.8993
 3449SOL    HW216184   3.422   4.875   0.436 -0.1541 -0.7023 -1.4740
 3450SOL     OW16185  10.797   4.904   4.351  0.6580 -0.3234  0.3620
 3450SOL    HW116186  10.740   4.878   4.423  0.4762 -1.0716 -0.0422
 3450SOL    HW216187  10.873   4.846   4.358  1.3507  0.6050  0.8484
 3451SOL     OW16188   1.106   4.220   7.132  0.6022 -0.5200 -0.1738
 3451SOL    HW116189   1.202   4.222   7.129  0.6254 -1.8250 -1.9407
 3451SOL    HW216190   1.084   4.254   7.219  2.7606 -2.1602  1.1431
 3452SOL     OW16191   0.342   6.207  10.049  0.1221 -0.1077 -0.5461
 3452SOL    HW116192   0.329   6.154  10.127  2.0460  2.0593  1.4142
 3452SOL    HW216193   0.255   6.219  10.012 -1.7932  2.7260  4.0785
 3453SOL     OW16194   5.013   3.104   2.362 -0.1949  0.5471  0.8950
 3453SOL    HW116195   4.919   3.097   2.383 -0.1496 -0.2102  0.8830
 3453SOL    HW216196   5.027   3.197   2.347 -1.7609  0.3670 -2.7859
 3454SOL     OW16197   1.895   0.719   1.259  0.2229  0.1571 -0.4274
 3454SOL    HW116198   1.849   0.747   1.180  0.1186  0.6595 -0.1953
 3454SOL    HW216199   1.890   0.795   1.318  0.5214 -0.1191 -0.0377
 3455SOL     OW16200   1.827  10.215   5.982  0.0706 -0.0036 -0.3091
 3455SOL    HW116201   1.823  10.182   5.892 -1.6003 -1.2227  0.1451
 3455SOL    HW216202   1.739  10.197   6.017  0.0647  2.2075  0.9777
 3456SOL     OW16203  10.103   4.815   0.224 -0.1630  0.3357 -0.0861
 3456SOL    HW116204  10.126   4.767   0.303 -0.8932  1.7188  0.9978
 3456SOL    HW216205  10.131   4.757   0.152 -0.0278 -1.2005  1.1528
 3457SOL     OW16206   6.142   3.785   9.129 -0.6470  0.0576 -0.3199
 3457SOL    HW116207   6.149   3.819   9.218  1.4374 -2.3036  0.5267
 3457SOL    HW216208   6.223   3.813   9.086  0.5140 -2.5083  0.0086
 3458SOL     OW16209   1.449   1.577   7.673  0.2457 -0.6145 -0.5127
 3458SOL    HW116210   1.531   1.555   7.628 -0.2571 -2.1266 -0.7681
 3458SOL    HW216211   1.468   1.657   7.722  2.4044 -1.7994  0.7501
 3459SOL     OW16212   5.201   2.603   7.275  0.7242 -0.4109  0.1702
 3459SOL    HW116213   5.162   2.676   7.323  1.1562  0.4927 -0.7908
 3459SOL    HW216214   5.230   2.643   7.192 -0.5115 -1.9955 -1.0949
 3460SOL     OW16215   6.905   4.958   9.127  0.6029 -0.4697  0.3452
 3460SOL    HW116216   6.851   4.924   9.198 -1.3132  0.2453 -0.6888
 3460SOL    HW216217   6.882   4.904   9.051 -0.6579  1.4586 -0.7236
 3461SOL     OW16218   2.653   4.750   4.581 -0.4593 -0.3801 -0.1012
 3461SOL    HW116219   2.617   4.806   4.512 -0.1391 -0.3687 -0.2632
 3461SOL    HW216220   2.577   4.724   4.633 -0.7438 -0.6262 -0.6253
 3462SOL     OW16221   6.296   8.158   9.932  0.4859  0.3470  0.3153
 3462SOL    HW116222   6.306   8.074   9.977 -1.4087 -0.4969 -0.7295
 3462SOL    HW216223   6.386   8.185   9.912  1.1217 -1.6643  0.2374
 3463SOL     OW16224   4.802   6.690   8.339  0.2099  0.3572  0.2184
 3463SOL    HW116225   4.757   6.628   8.280  2.6643 -0.3279 -1.0509
 3463SOL    HW216226   4.733   6.752   8.364 -1.7856 -1.4564 -0.4153
 3464SOL     OW16227   6.344   6.588   6.535 -0.3445  0.2415 -0.0271
 3464SOL    HW116228   6.302   6.509   6.569 -0.7471  0.4937  0.0619
 3464SOL    HW216229   6.423   6.556   6.492  0.2207 -0.0730  1.2041
 3465SOL     OW16230   9.347   2.547   6.417 -0.0238  0.2437 -0.1694
 3465SOL    HW116231   9.407   2.620   6.432  0.2123 -0.0086  0.1400
 3465SOL    HW216232   9.321   2.555   6.326 -1.5434  1.8814  0.3444
 3466SOL     OW16233   5.619   7.831   8.536 -0.0862  0.2175 -0.1341
 3466SOL    HW116234   5.636   7.799   8.448  0.3604 -0.7786  0.2951
 3466SOL    HW216235   5.574   7.758   8.580 -1.0207  0.9905  0.2292
 3467SOL     OW16236   4.574   7.722   6.374  0.6490  0.0349  0.1928
 3467SOL    HW116237   4.585   7.813   6.347  2.0907 -0.6440 -1.7228
 3467SOL    HW216238   4.565   7.727   6.469  0.1014  2.2033  0.0862
 3468SOL     OW16239   4.771   0.943   0.100 -0.1873 -0.7222  0.1135
 3468SOL    HW116240   4.724   0.863   0.076 -0.7890 -0.0887 -0.8934
 3468SOL    HW216241   4.702   1.004   0.126 -0.0267  0.3997 -1.8987
 3469SOL     OW16242   1.015   6.932   4.488 -0.4752  0.1681  0.1421
 3469SOL    HW116243   1.054   6.911   4.404 -0.2277  2.7749 -0.4652
 3469SOL    HW216244   1.075   6.994   4.528 -2.6746  2.3416  0.2757
 3470SOL     OW16245   4.932   8.864   8.369 -0.1852  0.2127 -0.2807
 3470SOL    HW116246   4.978   8.910   8.299  1.6909  0.1913  0.9031
 3470SOL    HW216247   4.998   8.846   8.435 -1.8737  0.1280  1.4876
 3471SOL     OW16248   8.949   5.958   9.936 -0.0262 -0.4468 -0.7222
 3471SOL    HW116249   8.887   6.006   9.991  2.1986  0.8457  0.8024
 3471SOL    HW216250   8.943   5.867   9.966 -0.0410 -0.0444  0.5384
 3472SOL     OW16251   6.766   3.719   9.237  0.7164  0.0053  0.2349
 3472SOL    HW116252   6.813   3.778   9.295 -1.0069  0.5333  1.1678
 3472SOL    HW216253   6.830   3.652   9.214  2.7777  2.2233 -0.9603
 3473SOL     OW16254   6.363   7.946   6.465  0.4205  0.2575  0.3118
 3473SOL    HW116255   6.337   7.855   6.480  0.8014  0.2586  1.0393
 3473SOL    HW216256   6.437   7.940   6.405  1.5310 -0.0463  1.6527
 3474SOL     OW16257   4.753  10.615   3.221  0.7075 -0.1027 -0.5699
 3474SOL    HW116258   4.746  10.690   3.281  2.9681 -1.1264  1.1312
 3474SOL    HW216259   4.671  10.568   3.232  1.2085 -0.5158  2.2278
 3475SOL     OW16260   6.103   1.983   1.671 -0.0951  0.5721 -0.0274
 3475SOL    HW116261   6.048   1.963   1.595  0.9087  0.6314 -0.7900
 3475SOL    HW216262   6.147   1.901   1.691  0.0821  0.7074  0.1363
 3476SOL     OW16263   3.812   6.905  10.245  0.6350 -0.0414  0.0285
 3476SOL    HW116264   3.887   6.850  10.222  0.1250 -0.0117 -1.9283
 3476SOL    HW216265   3.743   6.877  10.186 -0.5091  0.8071  0.9203
 3477SOL     OW16266   3.239   9.677   4.596 -0.5817  0.2590 -0.9087
 3477SOL    HW116267   3.243   9.648   4.687 -3.1398  0.0406 -0.8059
 3477SOL    HW216268   3.207   9.602   4.548 -1.6830  1.1229 -1.5665
 3478SOL     OW16269   5.259   3.567   5.581 -0.0690 -0.0803  0.5394
 3478SOL    HW116270   5.251   3.512   5.659 -1.7107 -0.2078  0.3109
 3478SOL    HW216271   5.233   3.654   5.611  0.1371  0.0480  0.3408
 3479SOL     OW16272   7.082   8.421   9.812 -0.1339 -0.4483 -0.3936
 3479SOL    HW116273   7.057   8.335   9.844  0.4170  0.0416  1.4771
 3479SOL    HW216274   7.168   8.408   9.772 -0.8583 -1.0811 -1.8152
 3480SOL     OW16275   1.999   9.990   2.914 -0.5024  0.5387 -0.3429
 3480SOL    HW116276   2.026   9.958   3.000 -2.6178 -0.1941  0.1023
 3480SOL    HW216277   1.986  10.084   2.927  1.3546  0.8533 -0.4852
 3481SOL     OW16278   6.688  10.498   0.672 -0.5551  0.2654  0.1571
 3481SOL    HW116279   6.692  10.404   0.689  0.1102  0.3807  0.6538
 3481SOL    HW216280   6.639  10.535   0.746 -1.9240  0.1703 -0.6623
 3482SOL     OW16281   6.110   7.634   6.581  0.0486  0.4466 -0.1006
 3482SOL    HW116282   6.158   7.591   6.511  1.1257 -0.0380  0.9118
 3482SOL    HW216283   6.018   7.628   6.554  0.1318 -2.5801  0.0314
 3483SOL     OW16284   4.852  10.211   3.541  0.2529  0.2444  0.0611
 3483SOL    HW116285   4.806  10.239   3.620 -0.7279  0.1969 -0.4803
 3483SOL    HW216286   4.855  10.115   3.548 -1.3699  0.1039 -0.7629
 3484SOL     OW16287   2.569   9.170   6.138 -0.5639  0.7191  0.6136
 3484SOL    HW116288   2.634   9.186   6.206 -1.2037 -1.0923  1.7280
 3484SOL    HW216289   2.604   9.096   6.088 -2.5753 -1.6683  2.4975
 3485SOL     OW16290   4.159   3.381   4.414 -0.3603  0.0987 -0.7385
 3485SOL    HW116291   4.097   3.376   4.487 -1.1965  0.3811 -1.4207
 3485SOL    HW216292   4.224   3.313   4.433  0.1113  0.9382  0.8897
 3486SOL     OW16293   8.044   2.568   6.925  0.0272  0.0321  0.0366
 3486SOL    HW116294   8.003   2.523   6.999  0.2956 -0.1881  0.0512
 3486SOL    HW216295   8.070   2.498   6.865 -0.4062  0.2254 -0.3800
 3487SOL     OW16296   1.208   9.050   2.705 -0.1838 -0.6439  0.3706
 3487SOL    HW116297   1.239   8.960   2.693 -0.1941 -0.4898 -0.9145
 3487SOL    HW216298   1.276   9.092   2.757  0.5209 -1.0056 -0.2532
 3488SOL     OW16299   4.697   6.158  10.319  0.7923 -0.0379  0.5340
 3488SOL    HW116300   4.610   6.126  10.296  2.4492 -2.4722 -3.1570
 3488SOL    HW216301   4.707   6.239  10.268  0.2963  0.9948  2.0072
 3489SOL     OW16302   9.452   2.194   9.021 -0.2526  0.6577  0.2178
 3489SOL    HW116303   9.471   2.253   9.094  0.8084  2.2005 -1.2338
 3489SOL    HW216304   9.531   2.196   8.967 -0.4575 -1.5741 -0.2689
 3490SOL     OW16305   5.908   8.130   4.884  0.2049  0.3155 -0.1878
 3490SOL    HW116306   5.910   8.163   4.974  1.5664  0.9709 -0.4308
 3490SOL    HW216307   5.863   8.198   4.835 -1.1127 -0.3348  0.0898
 3491SOL     OW16308   9.230   5.155   2.555  0.1117 -0.1538  0.2046
 3491SOL    HW116309   9.224   5.250   2.562  0.7272 -0.1279  0.4101
 3491SOL    HW216310   9.324   5.136   2.553 -0.0022 -0.7742  0.4339
 3492SOL     OW16311  10.277   0.019   9.637 -0.0832  0.1954 -0.3533
 3492SOL    HW116312  10.254   0.032   9.729 -0.5343  0.0841 -0.4491
 3492SOL    HW216313  10.258  -0.074   9.620 -1.2094  0.5065 -0.8930
 3493SOL     OW16314   5.537   0.363   7.435 -0.5198  0.3707  0.2710
 3493SOL    HW116315   5.547   0.419   7.358 -0.7025 -2.5994 -2.0912
 3493SOL    HW216316   5.625   0.332   7.454 -0.7457 -0.5785 -0.1524
 3494SOL     OW16317  10.167   9.495   5.128  0.0159  0.0459  0.0417
 3494SOL    HW116318  10.162   9.449   5.044 -0.9395  2.0876 -1.0935
 3494SOL    HW216319  10.151   9.426   5.193 -1.0404 -1.2978 -1.5299
 3495SOL     OW16320   7.970  10.084   6.866 -0.4713  0.0109  0.3382
 3495SOL    HW116321   8.034  10.016   6.842 -0.4943  0.0170  0.2579
 3495SOL    HW216322   7.896  10.036   6.901 -0.5805 -0.0187  0.0674
 3496SOL     OW16323  10.017   4.957   1.775 -0.5204 -0.6832 -0.0567
 3496SOL    HW116324  10.016   5.048   1.805 -0.2862 -0.8071  0.3436
 3496SOL    HW216325  10.110   4.935   1.771 -0.4699 -0.3012 -2.0596
 3497SOL     OW16326   6.066  10.106   8.710  0.0356 -0.1391 -0.5114
 3497SOL    HW116327   5.991  10.069   8.756  1.0671  0.0847  1.4322
 3497SOL    HW216328   6.070  10.197   8.739  0.8952 -0.0671 -0.8213
 3498SOL     OW16329   6.838   2.068   5.241  0.3032 -0.1600 -0.3968
 3498SOL    HW116330   6.810   2.141   5.296  1.9593  0.7028 -0.6386
 3498SOL    HW216331   6.918   2.036   5.282  0.5571 -0.7058 -1.2821
 3499SOL     OW16332   2.584   4.079   0.173  0.4690 -0.3490  0.5592
 3499SOL    HW116333   2.489   4.090   0.171  0.5833  0.9406 -2.4690
 3499SOL    HW216334   2.601   4.001   0.120  1.1629  0.5520 -0.5917
 3500SOL     OW16335   3.058   0.226   3.689  0.0252 -0.4768 -0.2408
 3500SOL    HW116336   3.107   0.300   3.724 -0.0847 -0.9886  1.0393
 3500SOL    HW216337   3.030   0.255   3.602  2.4234 -0.0979 -0.9757
 3501SOL     OW16338   5.111   8.302   8.725 -0.3418  0.0302  0.3439
 3501SOL    HW116339   5.027   8.301   8.771 -0.5111 -2.6155  0.1296
 3501SOL    HW216340   5.089   8.278   8.635  0.7173 -2.2403  0.6160
 3502SOL     OW16341   3.579   7.186   4.545  0.3978 -0.3041 -0.2833
 3502SOL    HW116342   3.551   7.277   4.555  3.6179  1.0745 -2.2710
 3502SOL    HW216343   3.536   7.140   4.617  0.3882  3.2003  2.2033
 3503SOL     OW16344   9.585   0.266   0.521  0.4172 -0.1122  0.6553
 3503SOL    HW116345   9.624   0.202   0.462 -0.3206 -0.7061  0.7918
 3503SOL    HW216346   9.495   0.235   0.533  0.1774  0.7198  1.0613
 3504SOL     OW16347   2.541   4.334   6.882  0.0973 -0.0854 -0.7489
 3504SOL    HW116348   2.470   4.389   6.916  0.1089 -0.4181 -0.1758
 3504SOL    HW216349   2.603   4.327   6.955  0.4822 -0.2069 -1.0824
 3505SOL     OW16350   6.364   1.886   5.387 -0.3229  0.1940  0.1678
 3505SOL    HW116351   6.418   1.957   5.422 -0.1073  0.2552 -0.2882
 3505SOL    HW216352   6.418   1.807   5.399  0.5756  0.4641 -1.7740
 3506SOL     OW16353   3.875   0.812   3.822 -0.4616  0.0920  0.9024
 3506SOL    HW116354   3.869   0.905   3.843 -0.2405  0.1715  0.6178
 3506SOL    HW216355   3.804   0.797   3.759  0.0468  0.2639  0.2705
 3507SOL     OW16356   2.107   8.796   2.871 -0.0331 -0.2072  0.5985
 3507SOL    HW116357   2.186   8.745   2.859  0.0520 -0.1175  0.7669
 3507SOL    HW216358   2.100   8.808   2.966  0.3495  0.7070  0.5281
 3508SOL     OW16359   7.824   6.807   5.054 -0.2447  0.2201  0.7186
 3508SOL    HW116360   7.915   6.837   5.061 -0.3303  0.3833  1.1513
 3508SOL    HW216361   7.773   6.872   5.103 -0.5981  0.1405  0.4622
 3509SOL     OW16362   3.562   0.957   3.819 -0.2229 -0.3070  0.3941
 3509SOL    HW116363   3.632   1.022   3.831  1.2174 -1.1320 -2.6026
 3509SOL    HW216364   3.482   1.009   3.813  0.6702  1.0680 -0.1766
 3510SOL     OW16365   5.222   7.140   5.021  0.5155  0.3216 -0.0593
 3510SOL    HW116366   5.134   7.139   4.982 -1.2024  1.0473  3.3631
 3510SOL    HW216367   5.233   7.053   5.058  1.4488  0.1061 -0.8131
 3511SOL     OW16368   7.166   7.579   0.611 -0.1823  0.3215  0.5359
 3511SOL    HW116369   7.197   7.532   0.534 -1.0809  0.3846  0.1268
 3511SOL    HW216370   7.231   7.648   0.624  1.1458 -0.9802  1.1406
 3512SOL     OW16371   9.219   4.817   8.061  0.1782 -0.9994 -0.2706
 3512SOL    HW116372   9.276   4.891   8.082 -0.6905 -0.6439  0.9046
 3512SOL    HW216373   9.146   4.855   8.013  0.0686 -1.1885 -0.2547
 3513SOL     OW16374   1.775   8.260   3.493  0.2101 -0.4085  0.1490
 3513SOL    HW116375   1.741   8.197   3.430 -0.0798  1.3491 -1.5571
 3513SOL    HW216376   1.698   8.308   3.522  0.6068  0.1781  0.2364
 3514SOL     OW16377   5.561   2.464   1.660  0.4302 -0.1099 -0.1081
 3514SOL    HW116378   5.565   2.465   1.564 -3.1056 -1.8711 -0.4545
 3514SOL    HW216379   5.482   2.514   1.680  1.7809  1.2828  2.0540
 3515SOL     OW16380   1.581   1.656   2.932  0.2240  0.4642 -0.1787
 3515SOL    HW116381   1.488   1.643   2.951  0.4236 -0.7135  0.0340
 3515SOL    HW216382   1.605   1.733   2.983 -0.6380  0.8149 -0.2769
 3516SOL     OW16383   5.960   3.697   3.162 -0.1067  0.1202 -0.1098
 3516SOL    HW116384   5.917   3.732   3.240 -1.1642  1.2552 -1.1588
 3516SOL    HW216385   6.043   3.744   3.158 -0.9077  1.5369 -0.7259
 3517SOL     OW16386   3.376   5.558  10.517 -0.0207  0.1492  0.1367
 3517SOL    HW116387   3.414   5.471  10.528 -4.9605 -2.4278 -0.3313
 3517SOL    HW216388   3.396   5.581  10.427 -0.0070 -1.3475 -0.2760
 3518SOL     OW16389   3.524   8.431   4.077 -0.4775 -0.1469  0.3576
 3518SOL    HW116390   3.491   8.454   4.164 -1.4253  0.5361 -0.1674
 3518SOL    HW216391   3.519   8.513   4.027  2.8096  0.2499  0.4488
 3519SOL     OW16392   2.212   5.416   3.587 -0.3739 -0.6709  0.0472
 3519SOL    HW116393   2.239   5.507   3.598  0.3227 -0.8901  0.1697
 3519SOL    HW216394   2.192   5.386   3.675  1.3582 -1.2306  0.2891
 3520SOL     OW16395   5.862   0.933   3.265 -0.5244  0.2054 -0.8209
 3520SOL    HW116396   5.880   0.957   3.173 -0.8610 -1.1960 -1.2720
 3520SOL    HW216397   5.948   0.914   3.302 -0.4246  0.3922 -0.9503
 3521SOL     OW16398   7.223   3.538   8.922 -0.0424 -0.1218  0.1645
 3521SOL    HW116399   7.222   3.553   8.828 -1.0024 -0.6600  0.0788
 3521SOL    HW216400   7.241   3.624   8.960 -0.3680  0.2373 -0.4886
 3522SOL     OW16401   1.250   2.022   4.227  0.5364  0.0827 -0.5734
 3522SOL    HW116402   1.232   1.931   4.248 -1.6871  0.4408 -0.6886
 3522SOL    HW216403   1.336   2.039   4.266  0.5169 -1.7361  0.3748
 3523SOL     OW16404   4.805   5.367   2.604  0.7040 -0.2343  0.8624
 3523SOL    HW116405   4.844   5.452   2.583 -0.0865 -0.1140 -0.2263
 3523SOL    HW216406   4.844   5.306   2.541 -1.3588  0.0424 -0.8106
 3524SOL     OW16407   5.964  10.731   3.811 -0.1301 -0.2163  0.0193
 3524SOL    HW116408   6.013  10.649   3.808  0.0997 -0.1589  1.4942
 3524SOL    HW216409   5.989  10.777   3.731  2.4006 -0.1176  0.7616
 3525SOL     OW16410   8.363   9.232   9.855 -0.9362 -0.0823 -0.3541
 3525SOL    HW116411   8.267   9.224   9.852 -0.8941 -0.3719 -1.2733
 3525SOL    HW216412   8.393   9.144   9.878 -0.8561 -0.2578 -1.1046
 3526SOL     OW16413   2.161   6.120  10.723  0.6347  0.5335 -0.3865
 3526SOL    HW116414   2.174   6.102  10.816  2.2885 -0.3780 -0.7402
 3526SOL    HW216415   2.189   6.039  10.679  0.6161  1.2156 -1.7070
 3527SOL     OW16416   9.577   0.536   9.672  0.1540 -0.3149  0.2945
 3527SOL    HW116417   9.494   0.500   9.704  0.2524 -0.9258 -0.1317
 3527SOL    HW216418   9.644   0.493   9.725  0.1345  1.5744  1.9727
 3528SOL     OW16419   7.273   2.596   7.241 -0.0933  0.4742  0.4254
 3528SOL    HW116420   7.339   2.577   7.175 -0.0141 -0.1091  0.6626
 3528SOL    HW216421   7.190   2.588   7.194 -0.1161 -1.4906  0.7204
 3529SOL     OW16422   5.782   6.586   7.840 -0.0061  0.6415 -0.0795
 3529SOL    HW116423   5.815   6.512   7.892  0.3858 -0.1851 -1.4382
 3529SOL    HW216424   5.687   6.581   7.849 -0.2994 -2.3163 -2.9470
 3530SOL     OW16425   9.886   1.286   6.185  0.0106 -0.3024  0.2232
 3530SOL    HW116426   9.867   1.223   6.116  1.2841 -1.7477  1.0930
 3530SOL    HW216427   9.831   1.258   6.258  0.5013 -0.3640  0.5775
 3531SOL     OW16428   7.646   2.558   7.400  0.0003  0.2461  0.0602
 3531SOL    HW116429   7.674   2.612   7.473  0.7536 -2.1223  1.6350
 3531SOL    HW216430   7.554   2.538   7.417  0.2969 -0.6796  0.6568
 3532SOL     OW16431   2.198   2.522   5.266 -0.5253 -0.2579 -0.4082
 3532SOL    HW116432   2.225   2.488   5.351 -0.3069  0.9711  0.0259
 3532SOL    HW216433   2.279   2.556   5.227 -0.9355  0.8300 -0.3268
 3533SOL     OW16434   2.758   8.987   9.521 -0.2323  0.5741 -0.2454
 3533SOL    HW116435   2.682   9.007   9.576  0.1443  0.0308  0.4948
 3533SOL    HW216436   2.797   9.073   9.501 -0.2147  0.7653  0.5821
 3534SOL     OW16437   2.144   5.703   1.521 -0.3427  0.1459 -0.5540
 3534SOL    HW116438   2.143   5.750   1.437 -1.8118  0.7111 -0.2466
 3534SOL    HW216439   2.157   5.771   1.586  0.1548 -0.2188 -0.2630
 3535SOL     OW16440   8.358   4.483   0.356 -0.1727  0.5048  0.2036
 3535SOL    HW116441   8.370   4.573   0.387 -0.0144  0.9496 -1.0528
 3535SOL    HW216442   8.371   4.428   0.433  1.5785  1.4472  0.6310
 3536SOL     OW16443   0.722   5.423   1.282 -0.2105 -0.3254  0.1930
 3536SOL    HW116444   0.655   5.491   1.291 -0.6023 -0.5675 -0.7983
 3536SOL    HW216445   0.722   5.401   1.189  0.1733 -1.4277  0.4399
 3537SOL     OW16446   6.799   8.490   5.252  0.3720  0.3939 -0.2320
 3537SOL    HW116447   6.728   8.436   5.218 -0.8349  2.1862 -0.6811
 3537SOL    HW216448   6.827   8.445   5.332 -0.1650 -1.1920 -0.8900
 3538SOL     OW16449   1.350   2.895  10.248 -0.2666 -0.3041  0.7863
 3538SOL    HW116450   1.275   2.910  10.305 -1.3398  3.3013 -1.2939
 3538SOL    HW216451   1.424   2.931  10.296 -0.9103  1.3755  0.5727
 3539SOL     OW16452   6.935  10.873   6.886 -0.2482 -0.2369  0.0882
 3539SOL    HW116453   6.920  10.967   6.877  1.3581  0.0710  0.3870
 3539SOL    HW216454   6.924  10.837   6.798  1.3270  0.5860 -0.4707
 3540SOL     OW16455   5.611   8.558   1.123  0.7006 -0.1428 -0.2896
 3540SOL    HW116456   5.529   8.539   1.169  0.1506 -0.1308 -1.2330
 3540SOL    HW216457   5.679   8.523   1.180  0.0392 -0.1658  0.5051
 3541SOL     OW16458   9.831   7.091   6.059 -0.1844  0.0393  0.4613
 3541SOL    HW116459   9.757   7.137   6.018 -0.6543 -1.1477 -0.0711
 3541SOL    HW216460   9.849   7.017   6.001  2.3528  1.0441 -0.1598
 3542SOL     OW16461   5.569   6.637  10.070 -0.4572  0.5903 -0.0918
 3542SOL    HW116462   5.626   6.560  10.076  0.0277  0.8753 -0.9631
 3542SOL    HW216463   5.617   6.699  10.016 -1.0811  1.3052  0.1504
 3543SOL     OW16464  10.838   1.085   3.261  0.3225 -0.8775 -0.0719
 3543SOL    HW116465  10.846   1.164   3.207  1.5686 -0.6001  0.4860
 3543SOL    HW216466  10.785   1.026   3.208 -0.8165  0.3912 -0.4261
 3544SOL     OW16467   1.136  10.061   6.517 -0.1063 -0.4358  0.3657
 3544SOL    HW116468   1.112   9.976   6.555 -0.7984  0.0618  1.0725
 3544SOL    HW216469   1.130  10.123   6.590  0.0136  0.2858 -0.2241
 3545SOL     OW16470   4.908   3.004   6.752  0.2631 -0.3474  0.2501
 3545SOL    HW116471   4.834   2.948   6.774  1.0741 -0.6847  2.3745
 3545SOL    HW216472   4.908   3.072   6.819 -0.5285  2.1417 -2.0964
 3546SOL     OW16473   1.394   8.017   4.886 -0.0085 -0.3304 -0.3432
 3546SOL    HW116474   1.410   7.943   4.944 -0.7400 -1.3975 -1.4422
 3546SOL    HW216475   1.397   7.979   4.798 -0.1112  1.0056 -0.9514
 3547SOL     OW16476   1.694   1.488   9.546  0.0158 -0.7489  0.3515
 3547SOL    HW116477   1.725   1.443   9.467 -0.7583  2.4909 -2.0508
 3547SOL    HW216478   1.763   1.551   9.566 -0.6006 -0.2978  1.1132
 3548SOL     OW16479   0.254   0.215   4.836  0.4513  0.5477  0.5600
 3548SOL    HW116480   0.249   0.269   4.914 -0.7951 -0.6808  1.3685
 3548SOL    HW216481   0.176   0.237   4.786 -0.4561 -0.9850  1.2480
 3549SOL     OW16482  10.851   8.264   0.520  0.0883 -0.1883 -0.2834
 3549SOL    HW116483  10.910   8.233   0.452  1.3138  0.5887  0.3936
 3549SOL    HW216484  10.785   8.315   0.473  1.3666  1.0086 -0.8592
 3550SOL     OW16485   8.571   6.329   4.886 -0.4599 -0.2111  0.1072
 3550SOL    HW116486   8.544   6.407   4.935 -0.9927 -0.2917 -0.0507
 3550SOL    HW216487   8.641   6.290   4.940  0.7078  1.0590 -0.4393
 3551SOL     OW16488   7.968   4.098   8.829  0.2450  0.0851 -0.1126
 3551SOL    HW116489   7.923   4.047   8.896  0.3887 -1.6299 -1.2572
 3551SOL    HW216490   7.897   4.139   8.779  0.0479 -0.5408 -0.3483
 3552SOL     OW16491  10.440   3.139   3.221 -0.0332 -0.5712 -0.1440
 3552SOL    HW116492  10.444   3.066   3.283 -0.3073 -0.4073  0.0675
 3552SOL    HW216493  10.474   3.214   3.270 -0.9351 -0.2741  0.0628
 3553SOL     OW16494  10.545   3.596   2.280  0.2505 -0.1475  0.3536
 3553SOL    HW116495  10.488   3.541   2.227 -0.1261  0.3168  0.2743
 3553SOL    HW216496  10.627   3.600   2.231  0.1841 -0.4069  0.2207
 3554SOL     OW16497  10.288   0.966   4.278 -0.1535  0.0222 -0.4422
 3554SOL    HW116498  10.292   1.056   4.245 -0.0002  0.1684 -0.0417
 3554SOL    HW216499  10.247   0.916   4.208 -1.4259  0.6528 -0.1630
 3555SOL     OW16500   5.145   9.864   7.689  0.5302 -0.0022  0.0320
 3555SOL    HW116501   5.142   9.776   7.651  0.4715 -0.2706  0.6430
 3555SOL    HW216502   5.159   9.922   7.614 -0.2192 -0.4576 -0.4736
 3556SOL     OW16503   9.547   1.039   8.161  0.3896  0.2603 -0.1610
 3556SOL    HW116504   9.471   0.987   8.187  0.7983 -1.4715 -2.1659
 3556SOL    HW216505   9.598   0.981   8.105  0.8878  2.8091 -2.6025
 3557SOL     OW16506   3.944   0.024   8.887  0.6813  0.4049 -0.7847
 3557SOL    HW116507   3.950  -0.044   8.820 -2.4684 -0.0489 -0.7633
 3557SOL    HW216508   3.922   0.103   8.838  1.0236  0.6724 -0.5117
 3558SOL     OW16509   2.778   7.223   4.434 -0.0244 -0.0665 -0.2964
 3558SOL    HW116510   2.716   7.292   4.458 -1.0775 -0.1994 -2.4270
 3558SOL    HW216511   2.752   7.148   4.489  0.9971  1.0795  1.8760
 3559SOL     OW16512   4.794   8.360   1.729 -0.1431 -0.5356  0.2574
 3559SOL    HW116513   4.828   8.378   1.642  1.8027 -1.8887  0.6666
 3559SOL    HW216514   4.714   8.309   1.715 -0.9085  0.8715 -0.7119
 3560SOL     OW16515   3.064   2.126   6.378 -0.2471 -0.2185  0.1580
 3560SOL    HW116516   2.982   2.170   6.357 -0.0054  0.9922  1.6021
 3560SOL    HW216517   3.131   2.193   6.370  0.4451 -0.8873  0.2174
 3561SOL     OW16518   8.419   6.287  10.622  0.2165  0.1673  1.4752
 3561SOL    HW116519   8.501   6.297  10.671  1.0484 -0.4173  0.2784
 3561SOL    HW216520   8.448   6.261  10.534 -1.2090  1.3224  0.6306
 3562SOL     OW16521   4.130   9.859   6.406  0.3170 -0.0720 -0.1805
 3562SOL    HW116522   4.222   9.863   6.432  0.4661 -0.4311 -0.6454
 3562SOL    HW216523   4.100   9.774   6.438  0.1233  0.0778  0.0385
 3563SOL     OW16524   8.544   6.370   0.478  0.4716  0.1969 -0.3640
 3563SOL    HW116525   8.614   6.334   0.423  0.1222 -1.1426  0.0306
 3563SOL    HW216526   8.522   6.454   0.437  0.5214 -0.5531 -1.9946
 3564SOL     OW16527   9.081   4.928   8.385  0.2210 -0.0531  0.1288
 3564SOL    HW116528   9.147   4.965   8.443  1.0637 -1.6105  0.2058
 3564SOL    HW216529   9.084   4.983   8.307  0.2728  1.0212  0.8617
 3565SOL     OW16530   7.727   7.602   6.595 -0.4197  0.2276  0.6642
 3565SOL    HW116531   7.789   7.538   6.631 -1.3735 -1.0063  0.1775
 3565SOL    HW216532   7.643   7.557   6.597 -0.8952  0.9817 -0.8979
 3566SOL     OW16533   7.634   9.292   9.882 -0.2868 -0.1879 -0.1102
 3566SOL    HW116534   7.675   9.257   9.802 -1.1852  0.6616 -0.9695
 3566SOL    HW216535   7.549   9.323   9.853  0.2146  2.1638  0.7080
 3567SOL     OW16536  10.821   6.584   5.251 -0.0884 -0.9922  0.2539
 3567SOL    HW116537  10.779   6.585   5.165 -1.5392 -1.0023  0.9267
 3567SOL    HW216538  10.861   6.671   5.259 -1.8258 -0.1587  0.4159
 3568SOL     OW16539   5.178   4.434   9.464 -0.0395  0.3556  0.5798
 3568SOL    HW116540   5.195   4.442   9.558 -1.1098 -2.7031  1.1822
 3568SOL    HW216541   5.195   4.341   9.445 -2.1167  0.3331 -1.7130
 3569SOL     OW16542   9.199   1.535   1.976 -0.4221  0.6285  0.5393
 3569SOL    HW116543   9.244   1.452   1.986  1.1434  1.2572 -0.8517
 3569SOL    HW216544   9.269   1.601   1.972 -1.5392  1.8468  0.1312
 3570SOL     OW16545   1.048   2.634   6.097  0.2814  0.4117 -0.1720
 3570SOL    HW116546   1.070   2.557   6.149 -2.6730 -1.6949 -1.7383
 3570SOL    HW216547   0.982   2.681   6.150  0.8211  0.9526  0.0337
 3571SOL     OW16548   0.635   1.642   2.534  0.4777  0.1681 -0.0753
 3571SOL    HW116549   0.672   1.706   2.596 -1.1959  0.7743  0.3515
 3571SOL    HW216550   0.552   1.681   2.507 -0.1565 -1.4257 -0.5027
 3572SOL     OW16551   2.958   5.561  10.774 -0.7211 -0.3558  0.3729
 3572SOL    HW116552   2.948   5.510  10.854  1.4658  0.1353  1.0294
 3572SOL    HW216553   2.950   5.497  10.704  1.1420 -1.5531  1.1474
 3573SOL     OW16554   7.570   0.863   5.529 -0.2182  0.3380 -0.0024
 3573SOL    HW116555   7.485   0.818   5.533  0.5942 -1.6827 -2.3615
 3573SOL    HW216556   7.559   0.929   5.461 -0.0623  0.4688  0.0991
 3574SOL     OW16557  10.828   0.081   1.430 -0.3978 -1.1734  0.3072
 3574SOL    HW116558  10.798   0.128   1.507  2.7829 -1.3844  1.8340
 3574SOL    HW216559  10.865  -0.000   1.463  1.6607 -0.9910 -1.2615
 3575SOL     OW16560   0.929   8.115   2.275 -0.4971  0.0580  0.1087
 3575SOL    HW116561   0.971   8.138   2.192 -0.6106 -0.4059 -0.0819
 3575SOL    HW216562   0.904   8.023   2.264 -0.0718 -0.1553  0.8395
 3576SOL     OW16563   5.627   7.069   4.990 -0.0890  0.7448  0.0080
 3576SOL    HW116564   5.596   7.005   4.926  1.9909  0.5708 -0.9304
 3576SOL    HW216565   5.606   7.031   5.075  2.3136 -2.0098 -0.4626
 3577SOL     OW16566   4.360   3.720   3.488 -0.1316 -0.0846  0.4076
 3577SOL    HW116567   4.456   3.720   3.483 -0.1446 -1.6135 -0.5133
 3577SOL    HW216568   4.333   3.783   3.422  0.2349  1.3814  1.6073
 3578SOL     OW16569   9.049   5.375   1.471  0.2044  0.4614 -0.4049
 3578SOL    HW116570   9.019   5.284   1.472 -1.4305  0.9661 -0.5552
 3578SOL    HW216571   9.127   5.375   1.527 -0.2768 -0.8710  0.3137
 3579SOL     OW16572  10.187   9.501   1.737  0.7521  0.2903 -0.4944
 3579SOL    HW116573  10.146   9.418   1.711 -0.2155  0.8781 -0.8997
 3579SOL    HW216574  10.203   9.546   1.654  0.0707  1.0539 -0.2223
 3580SOL     OW16575   2.480   6.384   0.070  0.1283 -0.0731  0.2516
 3580SOL    HW116576   2.426   6.448   0.025  0.4288 -0.2202 -0.3224
 3580SOL    HW216577   2.466   6.402   0.163  0.6284  1.1843  0.1022
 3581SOL     OW16578   5.364   0.259   9.196  0.5867 -0.4215 -0.6979
 3581SOL    HW116579   5.272   0.232   9.200  0.4235  0.0971 -0.9253
 3581SOL    HW216580   5.365   0.336   9.139  0.9843  0.3330  0.2930
 3582SOL     OW16581   3.843   5.564  10.714 -0.3958  0.2205 -0.1502
 3582SOL    HW116582   3.817   5.650  10.681 -0.4127 -0.2924 -1.5542
 3582SOL    HW216583   3.777   5.543  10.781 -1.3996  0.5730 -1.0039
 3583SOL     OW16584   1.563   1.442   9.178  0.4091 -0.1519 -0.3056
 3583SOL    HW116585   1.537   1.352   9.162 -0.2942 -0.0652  0.2938
 3583SOL    HW216586   1.649   1.435   9.219  0.3477 -0.5521 -0.2416
 3584SOL     OW16587  10.672   7.366   4.511 -0.1919 -0.2839 -0.3713
 3584SOL    HW116588  10.660   7.395   4.420 -1.5601  0.4939  0.0399
 3584SOL    HW216589  10.721   7.437   4.553 -3.0570  1.3293  0.4905
 3585SOL     OW16590   0.523  10.226   6.536  0.2380  0.0984 -0.0528
 3585SOL    HW116591   0.618  10.238   6.541  0.2953 -0.7639  1.6994
 3585SOL    HW216592   0.511  10.149   6.481  0.5413  0.1862 -0.2458
 3586SOL     OW16593   2.823  10.290   5.878  0.1258 -0.3890 -1.1250
 3586SOL    HW116594   2.881  10.362   5.901 -0.4013 -0.9377  2.5295
 3586SOL    HW216595   2.850  10.264   5.790  1.8277  2.7464 -1.6479
 3587SOL     OW16596   6.745   2.196   7.419  0.2766 -0.1461 -0.3436
 3587SOL    HW116597   6.819   2.243   7.380  0.4238 -0.0875 -0.0001
 3587SOL    HW216598   6.715   2.253   7.490 -0.1702 -0.1212 -0.5516
 3588SOL     OW16599   6.640   6.229  10.345  0.4948 -0.6597 -0.6847
 3588SOL    HW116600   6.657   6.255  10.254  1.3868  1.5841  0.0568
 3588SOL    HW216601   6.710   6.167  10.365  1.4034  0.2336 -1.0051
 3589SOL     OW16602   8.662   9.330  10.328  0.4885  0.2427  0.3231
 3589SOL    HW116603   8.679   9.368  10.414 -1.8656  0.0429  0.9550
 3589SOL    HW216604   8.710   9.247  10.328  2.4354  1.3093  0.4644
 3590SOL     OW16605   2.155   7.182   1.150 -0.2181  0.1506 -0.3374
 3590SOL    HW116606   2.060   7.190   1.145 -0.4130 -1.3799  0.4374
 3590SOL    HW216607   2.178   7.215   1.236  0.3165  3.0842 -1.4924
 3591SOL     OW16608   2.158   8.184  10.622  0.7221 -0.4568 -0.0410
 3591SOL    HW116609   2.130   8.262  10.670  1.3690  0.0907 -0.5252
 3591SOL    HW216610   2.222   8.141  10.680  0.3415 -0.6480  0.2401
 3592SOL     OW16611   2.235   8.162   9.135  0.4258 -0.0067  0.5081
 3592SOL    HW116612   2.228   8.092   9.071 -1.9087  1.0602 -0.5242
 3592SOL    HW216613   2.253   8.240   9.083 -0.6421  0.7327  1.2007
 3593SOL     OW16614   0.559  10.468   1.316 -0.2021  0.3094 -1.0695
 3593SOL    HW116615   0.489  10.404   1.330  0.0185  0.0333 -1.2192
 3593SOL    HW216616   0.553  10.490   1.223  0.2286 -0.0983 -1.1997
 3594SOL     OW16617   5.802   8.735   9.181 -0.6542 -0.0465  0.3171
 3594SOL    HW116618   5.731   8.699   9.234  0.0031  0.7155  1.7582
 3594SOL    HW216619   5.761   8.802   9.127 -1.5401 -1.5822 -1.0185
 3595SOL     OW16620   4.977   8.729   0.941  0.7106  0.4036 -0.2044
 3595SOL    HW116621   4.900   8.750   0.888  0.9625  1.1052 -0.3110
 3595SOL    HW216622   4.964   8.778   1.023 -0.4933 -1.9671  1.1248
 3596SOL     OW16623   2.593  10.269   3.423 -0.0564 -0.3418 -0.0822
 3596SOL    HW116624   2.665  10.275   3.360  1.0534 -0.2909  1.1392
 3596SOL    HW216625   2.592  10.354   3.466 -1.1570 -0.1892 -0.3741
 3597SOL     OW16626   2.928   2.684   1.367 -0.4942 -0.1523 -0.4069
 3597SOL    HW116627   2.995   2.616   1.359 -1.0624 -0.8377  0.4905
 3597SOL    HW216628   2.932   2.710   1.459 -1.5503 -0.3127 -0.3075
 3598SOL     OW16629   4.768   7.926   4.355 -0.0965 -0.2625 -0.6512
 3598SOL    HW116630   4.683   7.908   4.396  0.1144  1.1958  0.5039
 3598SOL    HW216631   4.829   7.866   4.399 -0.1930  0.0585 -0.0644
 3599SOL     OW16632   9.103   9.432   4.957 -0.1655  0.2792 -0.5443
 3599SOL    HW116633   9.168   9.427   4.886  0.7520  3.0534 -0.0227
 3599SOL    HW216634   9.129   9.509   5.008 -0.4912 -1.8192  3.1573
 3600SOL     OW16635   3.688   6.526  10.411 -0.2894 -0.2977  0.2421
 3600SOL    HW116636   3.622   6.515  10.479  1.0336 -2.7926  1.2965
 3600SOL    HW216637   3.757   6.578  10.453 -0.7729  0.7416 -0.2358
 3601SOL     OW16638   4.064   9.019   4.480  0.4868  0.1080  0.0602
 3601SOL    HW116639   3.984   8.966   4.480 -0.6660  1.5542  3.3092
 3601SOL    HW216640   4.056   9.073   4.402 -1.2218 -0.5054 -0.2447
 3602SOL     OW16641   7.119   2.726   9.895  0.1945 -0.5751  0.4905
 3602SOL    HW116642   7.066   2.797   9.930  1.3272  1.2632 -1.3193
 3602SOL    HW216643   7.167   2.692   9.971 -0.5536  0.4308  1.4260
 3603SOL     OW16644   0.967   5.476   1.407 -0.9324 -0.4744 -0.1293
 3603SOL    HW116645   0.945   5.452   1.497  0.8913 -2.0175 -0.0291
 3603SOL    HW216646   0.893   5.446   1.355 -1.1100 -1.4565  0.6553
 3604SOL     OW16647   7.888   1.147   7.006  0.3918 -0.3160  0.4645
 3604SOL    HW116648   7.922   1.128   7.094 -0.6853  1.2159  1.2563
 3604SOL    HW216649   7.862   1.239   7.010  2.6329  0.5585 -2.2494
 3605SOL     OW16650   0.381   4.208   9.867 -0.8215  0.5669 -0.1709
 3605SOL    HW116651   0.448   4.233   9.804 -1.0587  1.1651 -0.1938
 3605SOL    HW216652   0.343   4.291   9.896  0.4429  0.4507  2.0424
 3606SOL     OW16653   4.771   4.406   8.878 -0.2661 -0.4430 -0.1893
 3606SOL    HW116654   4.747   4.400   8.970 -0.2746  0.6767 -0.1058
 3606SOL    HW216655   4.724   4.333   8.836 -0.8174 -0.5355  0.5783
 3607SOL     OW16656   7.751   6.781   2.276 -0.2459 -0.0624  0.2786
 3607SOL    HW116657   7.663   6.787   2.315  0.2039  0.6101  1.2350
 3607SOL    HW216658   7.749   6.845   2.204 -0.3374  0.4471  0.7230
 3608SOL     OW16659   0.211   3.386   7.380 -0.6017  0.2330  0.2643
 3608SOL    HW116660   0.208   3.482   7.371 -1.4452  0.0359 -2.5185
 3608SOL    HW216661   0.148   3.354   7.315  1.2348 -2.2542 -0.4567
 3609SOL     OW16662   7.855   5.248   1.672 -0.1190  0.7081  0.0423
 3609SOL    HW116663   7.847   5.159   1.705  2.4237 -0.3307 -1.7252
 3609SOL    HW216664   7.767   5.284   1.676 -0.9443 -1.3345  2.2360
 3610SOL     OW16665   5.218   1.074   0.316  0.4591  0.3134 -0.1452
 3610SOL    HW116666   5.232   1.026   0.235  0.3506  0.0907 -0.0322
 3610SOL    HW216667   5.289   1.048   0.374 -0.4249 -0.8648  0.4478
 3611SOL     OW16668   9.176   2.276  10.325 -0.2931  0.1735  0.5494
 3611SOL    HW116669   9.204   2.365  10.306  0.8176 -0.3900 -0.6284
 3611SOL    HW216670   9.148   2.240  10.241 -1.7930 -0.2677  1.1885
 3612SOL     OW16671   5.290   2.418   9.216  0.0007  0.2273 -0.7204
 3612SOL    HW116672   5.334   2.389   9.296 -1.2084 -0.1773 -0.1695
 3612SOL    HW216673   5.344   2.383   9.145 -0.4159 -1.8994 -0.0720
 3613SOL     OW16674   9.818   2.235   6.972 -0.4571 -0.0985 -0.1089
 3613SOL    HW116675   9.851   2.313   7.016 -0.5978  0.5606 -1.1320
 3613SOL    HW216676   9.723   2.240   6.983 -0.5916  0.6502 -1.3586
 3614SOL     OW16677   7.274   6.382   1.721 -0.3753 -0.6210 -0.5537
 3614SOL    HW116678   7.364   6.401   1.695 -0.8849 -0.4547 -2.3036
 3614SOL    HW216679   7.226   6.378   1.639 -1.6822 -2.2964  0.2494
 3615SOL     OW16680   0.534   3.881  10.124 -0.0189 -0.1300  0.6432
 3615SOL    HW116681   0.623   3.845  10.127 -0.5704 -1.9773 -2.0330
 3615SOL    HW216682   0.480   3.816  10.168 -0.3113  0.0337  0.5277
 3616SOL     OW16683  10.207   5.767   3.380 -0.5049 -0.3718 -0.0655
 3616SOL    HW116684  10.271   5.748   3.312 -0.6900  0.1459 -0.3926
 3616SOL    HW216685  10.139   5.700   3.369  0.0741 -1.0520  0.4202
 3617SOL     OW16686  10.416   0.439   3.623  0.1015 -0.6500  0.6551
 3617SOL    HW116687  10.446   0.377   3.557 -0.9191  2.4876 -3.0899
 3617SOL    HW216688  10.496   0.468   3.667  1.4001 -0.1874 -1.8182
 3618SOL     OW16689   1.976   7.704   4.781 -0.2607 -0.7191  0.1410
 3618SOL    HW116690   1.899   7.648   4.771 -0.1486 -0.8231 -0.1488
 3618SOL    HW216691   1.966   7.771   4.713  0.1275 -0.9928 -0.1929
 3619SOL     OW16692   0.779  10.925   2.025  0.5747  0.2026 -0.1368
 3619SOL    HW116693   0.706  10.892   2.077  1.6778 -0.9088  0.7660
 3619SOL    HW216694   0.747  10.926   1.935 -0.6514  0.0720  0.2851
 3620SOL     OW16695   6.113   1.970   3.360 -0.5386  0.0325  0.7223
 3620SOL    HW116696   6.031   1.962   3.407 -0.2488  0.0484  1.2330
 3620SOL    HW216697   6.090   2.012   3.277 -0.8491  1.2304  1.3952
 3621SOL     OW16698   7.989   1.506   3.068 -0.0806  0.4551 -0.1983
 3621SOL    HW116699   7.956   1.484   3.156 -0.0270  0.4322 -0.1839
 3621SOL    HW216700   7.937   1.453   3.009 -0.5407  0.9229 -0.2241
 3622SOL     OW16701   0.738   2.794   3.834 -0.3949  0.4472  0.4145
 3622SOL    HW116702   0.696   2.858   3.777 -0.7675 -0.7460 -0.6986
 3622SOL    HW216703   0.758   2.843   3.914  0.5221  2.2935 -0.8503
 3623SOL     OW16704   2.089   9.794   6.872  0.1003 -0.6405  0.2027
 3623SOL    HW116705   2.003   9.774   6.909 -0.1578 -0.4382 -0.2815
 3623SOL    HW216706   2.102   9.887   6.890 -1.3153  0.2196 -2.7228
 3624SOL     OW16707   7.025   4.159   3.630  0.0105  0.5926  0.1950
 3624SOL    HW116708   7.039   4.148   3.724  0.9960  0.3016  0.0274
 3624SOL    HW216709   6.931   4.145   3.618 -0.1430  0.7418  1.1475
 3625SOL     OW16710   3.454   4.663   1.683 -0.2306  0.4410  0.8924
 3625SOL    HW116711   3.359   4.657   1.676 -0.1758  0.1118  0.3441
 3625SOL    HW216712   3.470   4.746   1.729 -0.7671  0.7377  0.5562
 3626SOL     OW16713   5.008   0.235   5.267  0.4985 -0.3793  0.3322
 3626SOL    HW116714   5.061   0.158   5.287  0.7941 -0.4682 -0.7314
 3626SOL    HW216715   5.062   0.309   5.294  0.9893 -0.4856 -0.3464
 3627SOL     OW16716   4.295   1.138   6.003 -0.3286  0.0311  0.5190
 3627SOL    HW116717   4.334   1.131   5.916 -0.2325  1.9737  0.3491
 3627SOL    HW216718   4.368   1.162   6.060 -0.6109 -0.0192  0.9029
 3628SOL     OW16719   0.467   4.667   8.129  0.2287 -0.3897  0.1395
 3628SOL    HW116720   0.419   4.597   8.173 -1.1068  0.1229 -0.4618
 3628SOL    HW216721   0.542   4.622   8.089 -0.0445 -1.3012  0.6180
 3629SOL     OW16722   1.469   8.131   2.681  0.1488 -0.2336  0.4895
 3629SOL    HW116723   1.516   8.172   2.608  0.5998 -0.9937  0.3402
 3629SOL    HW216724   1.521   8.154   2.759 -0.4834  0.8073  0.6179
 3630SOL     OW16725   5.216   5.243   8.099  0.3248  0.0491  0.2998
 3630SOL    HW116726   5.202   5.150   8.081  1.1528  0.2918 -2.0318
 3630SOL    HW216727   5.191   5.255   8.190  0.5383 -2.5243  0.7514
 3631SOL     OW16728   1.395   9.314   3.215 -0.0789 -0.5056 -0.2194
 3631SOL    HW116729   1.472   9.351   3.171 -0.1501  2.2063  1.7346
 3631SOL    HW216730   1.320   9.355   3.173 -0.6693 -3.5485 -2.4951
 3632SOL     OW16731   1.400   3.713   9.722  0.2045 -0.4757 -0.2205
 3632SOL    HW116732   1.420   3.796   9.677  1.1331  0.6221  2.0629
 3632SOL    HW216733   1.443   3.646   9.668  0.6161  0.6667 -1.3653
 3633SOL     OW16734   3.028   1.800   2.306 -0.2152 -0.4745 -0.2055
 3633SOL    HW116735   3.075   1.882   2.288 -0.7643 -0.0723  0.1744
 3633SOL    HW216736   3.009   1.804   2.399  0.5894 -1.4837  0.0206
 3634SOL     OW16737   9.044   9.783   7.522  0.1439  0.0017  0.0783
 3634SOL    HW116738   9.129   9.777   7.479  0.4465  0.5411  0.5881
 3634SOL    HW216739   9.029   9.877   7.532 -1.1829 -0.0080 -1.3052
 3635SOL     OW16740   3.860   7.469   8.752 -0.3989  0.0687  0.5040
 3635SOL    HW116741   3.871   7.400   8.817 -0.4740  0.5025  0.9843
 3635SOL    HW216742   3.947   7.508   8.742 -0.2613 -0.3964 -0.1069
 3636SOL     OW16743   2.337   3.363   3.054  0.2420 -0.3575  0.0895
 3636SOL    HW116744   2.393   3.377   2.977  1.2613 -1.8316  0.5342
 3636SOL    HW216745   2.397   3.368   3.128 -0.3765 -1.0335  0.6416
 3637SOL     OW16746   6.175   5.757  10.830  0.5798 -0.0094  0.0992
 3637SOL    HW116747   6.103   5.756  10.768  0.7350  0.6815 -0.1095
 3637SOL    HW216748   6.224   5.677  10.813 -0.0283 -0.3842  0.1130
 3638SOL     OW16749   1.409   5.159   6.521 -0.0206 -0.4160 -0.4334
 3638SOL    HW116750   1.494   5.188   6.556 -0.5497 -0.2804  0.7964
 3638SOL    HW216751   1.422   5.066   6.501  1.3438  0.2938 -3.3139
 3639SOL     OW16752   8.071   6.132   1.732  0.1723 -0.4133  0.7064
 3639SOL    HW116753   8.019   6.062   1.694 -1.9193  1.3653  0.1020
 3639SOL    HW216754   8.132   6.158   1.662  0.8545 -1.4794  0.8856
 3640SOL     OW16755   3.012   8.454   5.706  0.2188 -0.2971 -0.5520
 3640SOL    HW116756   2.937   8.419   5.657 -0.4730 -1.4974  1.2594
 3640SOL    HW216757   3.082   8.390   5.691  0.7661  0.5623 -1.8326
 3641SOL     OW16758   2.804   3.353   6.242  0.1500  0.9736  0.3138
 3641SOL    HW116759   2.875   3.328   6.183 -1.1448 -0.3683 -0.7719
 3641SOL    HW216760   2.752   3.416   6.192 -1.9251 -1.4332 -0.8205
 3642SOL     OW16761   6.021   7.290   1.749 -0.1237 -0.5106 -0.0982
 3642SOL    HW116762   6.003   7.288   1.655 -2.1223 -0.7555  0.2376
 3642SOL    HW216763   6.059   7.205   1.768 -1.7003 -1.3192 -0.3829
 3643SOL     OW16764   1.005   7.345   9.321 -0.3525  0.3438  0.2918
 3643SOL    HW116765   0.915   7.313   9.334 -0.3534 -0.0453 -0.5940
 3643SOL    HW216766   1.053   7.268   9.292 -0.1532  0.9453 -1.0441
 3644SOL     OW16767   2.333   5.313   1.718 -1.0543 -0.3263  0.1172
 3644SOL    HW116768   2.353   5.233   1.766  1.5251 -0.0231 -0.3033
 3644SOL    HW216769   2.363   5.384   1.775 -1.8677  0.2845 -0.1796
 3645SOL     OW16770  10.513   0.010  10.773  0.4810 -0.1330  0.2006
 3645SOL    HW116771  10.574   0.035  10.842 -0.0342 -0.8440  0.9366
 3645SOL    HW216772  10.508  -0.086  10.779  0.2111 -0.1788 -0.6370
 3646SOL     OW16773   8.974   7.651   6.689 -0.2464  0.0091  0.1770
 3646SOL    HW116774   8.969   7.682   6.780  0.4529 -0.5431  0.4155
 3646SOL    HW216775   8.946   7.726   6.636  0.2316  0.6344  0.8000
 3647SOL     OW16776   0.053  10.071   5.753  0.8968 -0.4448 -0.6768
 3647SOL    HW116777   0.144  10.079   5.779  0.3572 -0.9234  1.4951
 3647SOL    HW216778   0.033   9.978   5.761 -0.3071 -0.0846  0.8443
 3648SOL     OW16779   7.033   5.077   6.474  0.1725 -0.0499  0.2216
 3648SOL    HW116780   6.988   5.032   6.403  0.8698 -0.4924  0.0586
 3648SOL    HW216781   6.962   5.110   6.530 -0.3631 -0.2879 -0.3101
 3649SOL     OW16782   4.132  10.630   5.073  0.4963  0.1821  0.3389
 3649SOL    HW116783   4.070  10.605   5.141  0.7611  0.7117  0.7886
 3649SOL    HW216784   4.140  10.725   5.082  1.3611  0.1236  0.2912
 3650SOL     OW16785   4.202   0.341   2.646  0.1449  0.0196  0.4334
 3650SOL    HW116786   4.232   0.413   2.590 -1.5586 -0.4555 -1.1729
 3650SOL    HW216787   4.280   0.287   2.659  0.7794  0.6227 -0.7499
 3651SOL     OW16788   8.170   9.789   2.831 -0.7450 -0.1759  0.7354
 3651SOL    HW116789   8.249   9.786   2.777 -0.6286 -1.4985  0.9535
 3651SOL    HW216790   8.176   9.872   2.878  0.9854 -0.6662  1.4546
 3652SOL     OW16791   4.832   0.274  10.739 -0.1194 -0.0149  0.7662
 3652SOL    HW116792   4.751   0.324  10.726 -1.9275 -2.1853  2.7301
 3652SOL    HW216793   4.802   0.187  10.764  2.8547 -2.2478 -2.5625
 3653SOL     OW16794   1.955   0.067   4.120 -0.5414  0.4007  0.3902
 3653SOL    HW116795   1.873   0.114   4.101 -1.2297 -0.7238  0.4847
 3653SOL    HW216796   2.022   0.117   4.074 -1.4723  0.6049 -0.8052
 3654SOL     OW16797   2.745   1.480   1.792 -0.9564  0.4271  0.0257
 3654SOL    HW116798   2.833   1.447   1.773 -0.7100  0.2310  1.3599
 3654SOL    HW216799   2.711   1.508   1.708 -0.3450 -1.2527 -0.8274
 3655SOL     OW16800   4.898   3.501   9.381 -0.6290 -0.1679  0.1469
 3655SOL    HW116801   4.986   3.539   9.379 -0.2533 -1.0203 -0.0397
 3655SOL    HW216802   4.847   3.562   9.433  0.7810 -1.1218  2.8392
 3656SOL     OW16803   0.571   4.565   3.883  0.0253 -0.9747 -0.0551
 3656SOL    HW116804   0.627   4.493   3.855 -0.1172 -1.4595  0.8701
 3656SOL    HW216805   0.607   4.592   3.967 -0.3990 -0.4882 -0.0279
 3657SOL     OW16806   6.551   4.302   8.043 -0.1838  0.5528  0.5273
 3657SOL    HW116807   6.633   4.351   8.050 -0.5014  1.3890 -1.1498
 3657SOL    HW216808   6.513   4.307   8.131  2.1331 -0.9611  1.7078
 3658SOL     OW16809   6.869   2.379   7.923  0.5926  0.3741 -0.1591
 3658SOL    HW116810   6.774   2.366   7.934  0.4984  2.0613  1.5809
 3658SOL    HW216811   6.908   2.318   7.985  0.5255  1.0260  0.5539
 3659SOL     OW16812  10.375   3.871   7.741 -0.8043 -0.1374  0.1947
 3659SOL    HW116813  10.323   3.871   7.661 -2.3109  1.9953  1.0722
 3659SOL    HW216814  10.411   3.959   7.747  0.8681 -0.8179  0.9339
 3660SOL     OW16815   3.631   7.251   8.389  0.0516 -0.1099 -0.0752
 3660SOL    HW116816   3.562   7.186   8.403  0.8832 -0.9980  0.0047
 3660SOL    HW216817   3.650   7.246   8.295 -0.3139  0.4721 -0.1842
 3661SOL     OW16818   2.705   8.969   2.919  0.0105  0.7592  0.1550
 3661SOL    HW116819   2.787   8.924   2.899  0.0606  1.9993 -3.1235
 3661SOL    HW216820   2.681   8.939   3.007  3.1654 -0.7825  0.6248
 3662SOL     OW16821   4.346   3.993   0.582 -0.1539 -0.4422 -0.4559
 3662SOL    HW116822   4.296   3.911   0.590 -0.9547  0.1252  0.5643
 3662SOL    HW216823   4.358   4.022   0.672 -1.1214  1.3155 -0.8720
 3663SOL     OW16824   5.527   2.314   0.077  0.8415 -0.3261  0.6668
 3663SOL    HW116825   5.513   2.383   0.141  0.1927 -0.1522  0.3419
 3663SOL    HW216826   5.451   2.319   0.019  0.4752 -1.6818  0.9843
 3664SOL     OW16827   3.482   6.997   2.796 -0.0451  0.6537  0.0679
 3664SOL    HW116828   3.523   7.070   2.843 -1.8557  2.2500 -0.6432
 3664SOL    HW216829   3.533   6.988   2.716  0.2435  1.1413  0.1914
 3665SOL     OW16830   4.285   1.975   6.469 -0.4264  0.5796 -0.2481
 3665SOL    HW116831   4.218   1.929   6.520  0.5498 -0.4995  0.1166
 3665SOL    HW216832   4.288   2.063   6.507 -0.1563 -0.0182  1.1924
 3666SOL     OW16833   1.334   4.023   6.921  0.0423  0.0185  0.5823
 3666SOL    HW116834   1.289   4.093   6.874  0.0028  1.5279  2.7330
 3666SOL    HW216835   1.423   4.056   6.934  0.9627 -1.6375 -0.9072
 3667SOL     OW16836   1.074   4.800  10.534  0.6496 -0.3396  0.0418
 3667SOL    HW116837   1.148   4.783  10.591  0.8136 -0.1999 -0.1297
 3667SOL    HW216838   1.086   4.890  10.504  0.3681 -0.2872  0.0792
 3668SOL     OW16839   2.791   7.999   4.994 -0.3001  0.0915  0.2751
 3668SOL    HW116840   2.848   8.076   4.994  1.4393 -1.1065  2.4264
 3668SOL    HW216841   2.732   8.013   5.068 -1.7868  0.5285 -0.9284
 3669SOL     OW16842   2.807   7.137   9.865  0.0493  0.6759  0.4827
 3669SOL    HW116843   2.811   7.095   9.951 -1.1233 -0.3676  0.0652
 3669SOL    HW216844   2.878   7.097   9.815 -1.3486 -1.3167 -0.0704
 3670SOL     OW16845   7.734   9.275   9.103  0.4796  0.5227 -0.3416
 3670SOL    HW116846   7.773   9.334   9.168 -2.1350  2.4772 -0.3737
 3670SOL    HW216847   7.659   9.324   9.069 -0.9079 -2.2562 -1.5623
 3671SOL     OW16848   9.787   3.561   3.942 -0.0355 -0.2771 -0.5630
 3671SOL    HW116849   9.729   3.632   3.915  1.2879  2.5387  3.1586
 3671SOL    HW216850   9.865   3.572   3.888 -1.3941 -1.8510 -3.0603
 3672SOL     OW16851   0.643  10.076   2.903  0.2476 -0.1363 -0.0971
 3672SOL    HW116852   0.709  10.145   2.898  1.4938 -1.2740  0.3876
 3672SOL    HW216853   0.561  10.123   2.919  1.0412  1.2348  0.0795
 3673SOL     OW16854   5.168  10.239   4.978  0.3195  0.0868 -0.2623
 3673SOL    HW116855   5.240  10.231   5.041 -0.5932  0.3172  0.8392
 3673SOL    HW216856   5.107  10.169   5.002  0.0803  0.0128 -1.0572
 3674SOL     OW16857   5.183   8.051   6.184  0.4690  0.1245 -0.4023
 3674SOL    HW116858   5.271   8.046   6.146  0.1662 -1.2940 -0.9803
 3674SOL    HW216859   5.125   8.028   6.112 -0.2698 -0.4249  0.3544
 3675SOL     OW16860   4.980   5.849   4.301 -0.1938  0.2288  0.1062
 3675SOL    HW116861   5.019   5.774   4.257 -1.4098 -1.3662  1.6338
 3675SOL    HW216862   5.009   5.925   4.250  1.5737 -1.2053 -1.1138
 3676SOL     OW16863   4.766   3.485  10.053 -0.1403 -0.4076 -0.5503
 3676SOL    HW116864   4.797   3.527  10.133  1.6317  0.1526 -1.4677
 3676SOL    HW216865   4.708   3.549  10.012  0.9459  0.3585 -0.9307
 3677SOL     OW16866   7.663   5.054   4.352  0.0408 -0.7421  0.1503
 3677SOL    HW116867   7.702   5.089   4.272 -3.4872 -1.8680 -2.3018
 3677SOL    HW216868   7.617   5.129   4.391 -1.4001 -0.9404 -1.0727
 3678SOL     OW16869   2.027   6.632   6.176  0.0012  0.3152 -0.0307
 3678SOL    HW116870   1.949   6.591   6.213  1.4479 -0.6051  2.1981
 3678SOL    HW216871   2.039   6.712   6.227  1.3220 -0.3212  0.7071
 3679SOL     OW16872  10.860   3.279   5.023  0.0440  0.0029 -0.3798
 3679SOL    HW116873  10.922   3.341   5.062  1.1927 -0.5783 -1.2066
 3679SOL    HW216874  10.854   3.208   5.086  1.2283 -0.5296 -0.8377
 3680SOL     OW16875  10.155   3.363   3.073  0.2008  0.4914  0.1808
 3680SOL    HW116876  10.248   3.346   3.084  0.3729  1.9625  1.3936
 3680SOL    HW216877  10.112   3.302   3.133  0.4049  0.1521 -0.0145
 3681SOL     OW16878   3.285   4.979   5.031 -0.4369  0.1011 -0.4976
 3681SOL    HW116879   3.328   5.034   4.966 -2.7823  0.8047 -1.5526
 3681SOL    HW216880   3.237   5.041   5.086 -0.0117 -0.6400  0.7491
 3682SOL     OW16881   6.367   4.217   6.781 -0.1542  0.3755  0.8703
 3682SOL    HW116882   6.394   4.302   6.815  0.8884  0.1988  0.5278
 3682SOL    HW216883   6.287   4.196   6.829  0.5445  0.7424  2.2427
 3683SOL     OW16884   5.326   7.812   8.549  0.1771 -0.3515 -0.1108
 3683SOL    HW116885   5.377   7.892   8.534  1.2118 -1.3839 -2.8295
 3683SOL    HW216886   5.372   7.767   8.620  0.6655  0.5904  0.1905
 3684SOL     OW16887   7.276   9.790   7.533  0.4405 -0.4122 -0.0311
 3684SOL    HW116888   7.209   9.855   7.513  0.6128 -0.1749  0.1604
 3684SOL    HW216889   7.267   9.724   7.464 -0.1704 -0.5191  0.1450
 3685SOL     OW16890   8.460   0.669   3.066 -0.0157  0.0382 -0.0873
 3685SOL    HW116891   8.515   0.592   3.079 -0.4159 -0.2712 -0.1681
 3685SOL    HW216892   8.420   0.655   2.980  1.5224  1.3698 -1.0605
 3686SOL     OW16893   4.997   5.891   7.369 -0.1154  0.1032 -0.1422
 3686SOL    HW116894   5.019   5.800   7.387 -0.9490 -0.5574 -2.1830
 3686SOL    HW216895   5.018   5.937   7.450 -0.0801 -1.9517  1.0909
 3687SOL     OW16896   8.169   3.307   5.268  0.2326 -0.4192 -0.2924
 3687SOL    HW116897   8.180   3.242   5.338 -1.4973 -1.3370 -0.8120
 3687SOL    HW216898   8.223   3.381   5.296 -0.0603 -0.9218  1.8142
 3688SOL     OW16899   0.935   7.956   8.660 -0.1615 -0.0474 -0.3048
 3688SOL    HW116900   0.853   7.976   8.707 -0.4821 -1.6447 -0.1078
 3688SOL    HW216901   0.995   7.927   8.729  0.3274  0.3836 -0.5447
 3689SOL     OW16902   3.161   1.174   9.106  0.0124 -0.2689 -0.2368
 3689SOL    HW116903   3.160   1.266   9.081  2.1876  0.0355  0.6070
 3689SOL    HW216904   3.177   1.127   9.024  0.3109  0.2029 -0.4519
 3690SOL     OW16905   4.674   9.388   0.095 -0.1352  0.0217 -0.4561
 3690SOL    HW116906   4.636   9.328   0.031  0.8289 -0.9850 -0.1118
 3690SOL    HW216907   4.674   9.339   0.178 -0.2759  0.8724  0.0622
 3691SOL     OW16908  10.597   7.135   1.115 -0.7391  0.1654  0.0677
 3691SOL    HW116909  10.510   7.161   1.085 -0.5302 -0.2443 -0.9252
 3691SOL    HW216910  10.616   7.054   1.068  0.1425  0.2030  0.3421
 3692SOL     OW16911   4.439   0.070   8.263  0.0011  0.1630  0.0589
 3692SOL    HW116912   4.532   0.078   8.244  0.2712 -0.3847  1.0644
 3692SOL    HW216913   4.435   0.023   8.346 -1.2380 -1.8017 -1.0307
 3693SOL     OW16914   3.143   8.724   2.144 -0.0934 -0.7662 -0.1701
 3693SOL    HW116915   3.089   8.758   2.072  0.4524  1.3928  0.3518
 3693SOL    HW216916   3.189   8.649   2.107  0.3046  0.3841 -2.1738
 3694SOL     OW16917  10.619   7.258   6.490  0.2411 -0.2287  0.1254
 3694SOL    HW116918  10.567   7.264   6.571 -2.2799  0.7920 -1.4668
 3694SOL    HW216919  10.569   7.198   6.435  1.0366  0.3802 -1.2960
 3695SOL     OW16920   4.081  10.464   1.824 -0.4023  0.4552 -0.3577
 3695SOL    HW116921   4.104  10.448   1.916  0.5445  0.2070 -0.6303
 3695SOL    HW216922   4.035  10.548   1.826  0.7769  1.1154  0.1841
 3696SOL     OW16923   2.559   5.177   9.315  0.7969  0.1405  0.0343
 3696SOL    HW116924   2.550   5.118   9.240 -1.4271  0.2456  0.1619
 3696SOL    HW216925   2.652   5.170   9.339  0.9762 -1.9921 -0.9921
 3697SOL     OW16926   5.783   8.058   9.017 -0.4008 -0.7218 -0.2263
 3697SOL    HW116927   5.836   7.988   8.978  0.4784  1.0384 -2.4589
 3697SOL    HW216928   5.844   8.104   9.074  0.1279  0.3521 -1.5863
 3698SOL     OW16929   4.632   0.066   4.085  0.3520 -0.4482  0.1385
 3698SOL    HW116930   4.647   0.000   4.017 -0.4790 -0.3097 -0.1867
 3698SOL    HW216931   4.601   0.143   4.038 -2.3593 -1.0193  0.7992
 3699SOL     OW16932   1.082   7.328   3.562 -0.5980  0.2721  0.1566
 3699SOL    HW116933   1.164   7.373   3.542 -1.2148  0.5196 -2.1709
 3699SOL    HW216934   1.020   7.398   3.583 -0.1615  0.0566  2.4451
 3700SOL     OW16935   3.406   5.423   6.280  0.4347  0.4058  0.4884
 3700SOL    HW116936   3.479   5.385   6.329  1.5615  0.6510 -0.8941
 3700SOL    HW216937   3.433   5.514   6.264 -0.4972  0.7019  0.5512
 3701SOL     OW16938   8.578   4.993   3.818 -0.4600  0.1812  0.5639
 3701SOL    HW116939   8.560   5.085   3.834 -0.4174  0.4868 -0.9859
 3701SOL    HW216940   8.513   4.966   3.753 -1.0358 -1.1356  1.6272
 3702SOL     OW16941   5.647   7.084   3.253  0.4112 -0.5183 -0.2579
 3702SOL    HW116942   5.671   6.994   3.231 -0.3809 -0.6039 -0.7898
 3702SOL    HW216943   5.696   7.103   3.333  2.9325 -0.3901 -1.7326
 3703SOL     OW16944   8.088   2.809   4.429 -0.3936  0.4649 -0.1841
 3703SOL    HW116945   8.073   2.715   4.425  1.3598  0.1065  0.5261
 3703SOL    HW216946   8.074   2.832   4.520  0.0962  0.6953 -0.1592
 3704SOL     OW16947  10.878   4.740  10.163  0.1182  0.5062  0.0174
 3704SOL    HW116948  10.842   4.651  10.162  0.1097  0.4852 -1.6670
 3704SOL    HW216949  10.967   4.729  10.129 -0.1085  1.1978 -0.8408
 3705SOL     OW16950   7.762  10.563   9.835 -0.2270  0.0745 -0.1453
 3705SOL    HW116951   7.830  10.615   9.792  0.4205 -0.6942 -0.0651
 3705SOL    HW216952   7.693  10.627   9.855  0.4765  0.8731 -0.1978
 3706SOL     OW16953   2.494   5.868   1.255 -0.0733  0.0862  0.5095
 3706SOL    HW116954   2.434   5.918   1.199  2.1980  1.3174 -1.0127
 3706SOL    HW216955   2.462   5.778   1.251 -1.2213  0.5157 -1.0622
 3707SOL     OW16956   6.093   3.242   4.967  0.0779  0.1463 -0.4438
 3707SOL    HW116957   6.132   3.322   4.931  0.2253 -0.2559 -1.1922
 3707SOL    HW216958   6.108   3.175   4.900  0.6871 -0.7189  0.5131
 3708SOL     OW16959  10.229   6.032   4.093  0.3881  0.3911 -0.8867
 3708SOL    HW116960  10.140   6.033   4.057 -0.7166 -1.4490  1.5619
 3708SOL    HW216961  10.247   6.123   4.116 -1.7308  0.5005  0.5157
 3709SOL     OW16962   5.298   3.006   4.439  0.2271  0.0390  0.3441
 3709SOL    HW116963   5.383   3.031   4.402 -0.4527  0.4304 -1.0068
 3709SOL    HW216964   5.317   2.926   4.488  1.2113 -0.4257 -0.7369
 3710SOL     OW16965   0.395   7.527   4.423 -0.1288 -0.6351  0.4741
 3710SOL    HW116966   0.434   7.544   4.508 -0.1568 -0.3708  0.4364
 3710SOL    HW216967   0.468   7.536   4.361 -0.1054 -0.8408  0.4725
 3711SOL     OW16968   6.657   3.806   4.750  0.1185  0.4243 -0.2977
 3711SOL    HW116969   6.666   3.804   4.655  1.0201  0.1255 -0.2170
 3711SOL    HW216970   6.735   3.762   4.783 -1.1572 -1.3308  0.5400
 3712SOL     OW16971   6.219   4.665   6.434  0.2261  0.4926  0.4241
 3712SOL    HW116972   6.157   4.620   6.376 -0.2782 -0.0733  1.3748
 3712SOL    HW216973   6.280   4.708   6.375  0.3310 -0.9032 -0.5428
 3713SOL     OW16974   7.725   9.877   3.810 -0.6483  0.4083 -0.2353
 3713SOL    HW116975   7.773   9.899   3.890 -0.0595  1.1446 -0.7673
 3713SOL    HW216976   7.742   9.951   3.751 -0.2502 -0.5639 -1.3918
 3714SOL     OW16977   7.453   1.406  10.624 -0.1390  0.0995  0.1346
 3714SOL    HW116978   7.504   1.345  10.676  1.1217  0.0116 -1.1383
 3714SOL    HW216979   7.510   1.482  10.612 -0.7699  0.5167 -0.3017
 3715SOL     OW16980   7.888   0.800   7.282  0.3216 -0.1271  0.1482
 3715SOL    HW116981   7.811   0.762   7.323 -0.6886  0.4485 -1.1243
 3715SOL    HW216982   7.869   0.894   7.276  1.0190 -0.0049 -0.3610
 3716SOL     OW16983   1.740   2.610   2.120  0.0777  0.6789 -0.1371
 3716SOL    HW116984   1.738   2.702   2.148  0.6589  0.7053 -0.1576
 3716SOL    HW216985   1.834   2.589   2.116 -0.0566  0.0207  0.0822
 3717SOL     OW16986   8.237   4.426   8.734  0.3235  0.0284 -0.0295
 3717SOL    HW116987   8.323   4.467   8.720  0.5165 -0.1566  0.5933
 3717SOL    HW216988   8.242   4.343   8.685  2.4110 -2.5088  3.9062
 3718SOL     OW16989   8.328   0.934   4.067 -0.9926  0.3834 -0.0349
 3718SOL    HW116990   8.255   0.985   4.102 -0.0015  1.1265  1.0283
 3718SOL    HW216991   8.309   0.844   4.092 -2.9086  0.1133 -2.1661
 3719SOL     OW16992   2.148   8.818   1.807  0.1152  0.0135 -0.4713
 3719SOL    HW116993   2.125   8.829   1.714  2.3465  0.4887 -1.0293
 3719SOL    HW216994   2.096   8.743   1.836 -0.3201 -0.4024 -2.2126
 3720SOL     OW16995   0.673   8.726   9.452  0.2379  0.1731  0.1586
 3720SOL    HW116996   0.733   8.793   9.484 -1.8151  2.8464 -1.2128
 3720SOL    HW216997   0.715   8.691   9.374  0.9987  0.3795  0.4665
 3721SOL     OW16998   7.679   6.315   0.841  0.6452 -0.2215  0.4565
 3721SOL    HW116999   7.691   6.224   0.816 -0.0787 -0.5271  1.1942
 3721SOL    HW217000   7.627   6.312   0.921  1.4407  0.8040  1.0444
 3722SOL     OW17001   2.769   3.442   1.093  0.1963  0.5165 -0.1653
 3722SOL    HW117002   2.834   3.505   1.123  0.2491  0.8641 -0.9607
 3722SOL    HW217003   2.685   3.482   1.116  0.2069  1.2363 -1.2885
 3723SOL     OW17004   6.621  10.137   5.286 -0.5385 -0.0872  0.3808
 3723SOL    HW117005   6.614  10.086   5.205  0.8304  1.4692 -0.8045
 3723SOL    HW217006   6.567  10.215   5.270  1.1014  1.0751  0.1936
 3724SOL     OW17007   8.409   0.164   5.616 -0.2555 -0.4847 -0.3691
 3724SOL    HW117008   8.420   0.240   5.559  1.1721 -0.4358 -0.0497
 3724SOL    HW217009   8.433   0.196   5.703 -0.1200 -1.1754 -0.1501
 3725SOL     OW17010   5.434   5.164   1.766  0.1586 -0.1692 -0.5839
 3725SOL    HW117011   5.512   5.219   1.779  0.1931 -0.2740 -0.3595
 3725SOL    HW217012   5.465   5.075   1.781 -0.0990 -0.1768 -0.0997
 3726SOL     OW17013   6.377   7.221  10.874 -0.3573 -0.1758 -0.2471
 3726SOL    HW117014   6.425   7.157  10.927  0.4708  0.2994 -0.4081
 3726SOL    HW217015   6.350   7.288  10.937  0.3174  0.2085 -0.3613
 3727SOL     OW17016   0.301   7.945   6.291 -0.1505 -0.3737  0.0259
 3727SOL    HW117017   0.360   7.906   6.355  2.5524  1.8261 -0.9603
 3727SOL    HW217018   0.305   7.885   6.216  2.3460  0.6194 -0.7078
 3728SOL     OW17019   8.369   6.086  10.806 -0.0224  0.0552 -0.3261
 3728SOL    HW117020   8.289   6.117  10.849  1.8256  2.3003  1.7784
 3728SOL    HW217021   8.379   6.144  10.730  0.1000  0.4019 -0.0459
 3729SOL     OW17022   3.720   5.299   0.250  0.4479  0.2462  0.5046
 3729SOL    HW117023   3.634   5.277   0.287  0.4248 -1.1040 -0.3184
 3729SOL    HW217024   3.772   5.220   0.261  0.7222  0.1150 -1.5170
 3730SOL     OW17025   7.370   4.602   3.103  0.0254 -0.5250  0.0343
 3730SOL    HW117026   7.382   4.696   3.110  0.4752 -0.6839  1.8100
 3730SOL    HW217027   7.442   4.573   3.047  0.6798  0.0303  0.5759
 3731SOL     OW17028   4.267   1.208   6.687  0.4230  0.1202  0.2725
 3731SOL    HW117029   4.235   1.184   6.600  0.0907 -0.2199  0.4900
 3731SOL    HW217030   4.350   1.253   6.670  0.0446  0.6310 -0.2607
 3732SOL     OW17031   8.299   0.452   6.379 -0.1335 -0.1525 -0.2153
 3732SOL    HW117032   8.237   0.427   6.312  1.6864 -2.7929 -1.0573
 3732SOL    HW217033   8.245   0.489   6.449 -2.2552  0.8554 -2.2451
 3733SOL     OW17034   7.112   7.351   6.937  0.4127  0.4026 -0.1135
 3733SOL    HW117035   7.101   7.340   6.843 -0.3768  1.0995 -0.1184
 3733SOL    HW217036   7.048   7.291   6.976 -0.2263  1.1256 -0.0477
 3734SOL     OW17037   4.746   9.838   3.881  0.7191  0.1633 -0.2067
 3734SOL    HW117038   4.835   9.862   3.904  1.4149 -1.6926 -0.8522
 3734SOL    HW217039   4.696   9.854   3.961  1.9126 -0.2271  0.6437
 3735SOL     OW17040   7.866   4.505   6.009  0.1744 -0.5815 -0.9605
 3735SOL    HW117041   7.940   4.486   6.066 -0.2930  2.2678  0.7709
 3735SOL    HW217042   7.826   4.419   5.993  0.3576 -1.6320  3.0226
 3736SOL     OW17043  10.164   0.058   7.761 -0.0883 -0.0899 -0.5680
 3736SOL    HW117044  10.189   0.026   7.848 -0.1432  0.4052 -0.3674
 3736SOL    HW217045  10.081   0.104   7.776  0.5242  1.0674 -0.6657
 3737SOL     OW17046   1.622   8.343   1.959  0.1770 -0.0143 -0.1059
 3737SOL    HW117047   1.652   8.362   1.871 -0.2145  0.0929 -0.2184
 3737SOL    HW217048   1.605   8.429   1.998  1.0904 -0.0197  0.3453
 3738SOL     OW17049  10.139   4.752   5.620 -0.2139 -0.0528  0.1533
 3738SOL    HW117050  10.070   4.703   5.664 -2.4631  2.7221  0.0469
 3738SOL    HW217051  10.145   4.712   5.533 -1.3668 -0.6511  0.3317
 3739SOL     OW17052   4.651   4.529   9.143  0.3483 -0.0029 -0.1486
 3739SOL    HW117053   4.617   4.597   9.202 -0.1032  0.4896 -0.9545
 3739SOL    HW217054   4.662   4.574   9.059  1.2384 -0.6234 -0.3790
 3740SOL     OW17055   8.261   6.612   3.684  0.1182  0.1946 -0.4097
 3740SOL    HW117056   8.169   6.630   3.661  0.6243  1.6479 -1.4740
 3740SOL    HW217057   8.257   6.533   3.738 -1.6590 -0.4347 -1.3596
 3741SOL     OW17058   9.714   0.046   9.650  0.1251  0.6568  0.1384
 3741SOL    HW117059   9.721   0.087   9.736 -0.5861  0.6273  0.2158
 3741SOL    HW217060   9.640  -0.014   9.658 -2.3964  3.2992 -1.5248
 3742SOL     OW17061   7.677   0.988   3.610  0.2061 -0.1915 -0.6116
 3742SOL    HW117062   7.715   1.034   3.535  2.4546 -0.0595  0.5143
 3742SOL    HW217063   7.705   0.897   3.600 -1.0987 -0.5922 -0.8809
 3743SOL     OW17064   9.049  10.743   8.401  0.5284  0.6081 -0.2506
 3743SOL    HW117065   9.023  10.652   8.387  0.5855  0.4212  0.7563
 3743SOL    HW217066   9.051  10.753   8.497  1.8644  1.2716 -0.3205
 3744SOL     OW17067   4.316   5.505   0.684  0.6214  0.4227 -0.4944
 3744SOL    HW117068   4.294   5.527   0.775 -1.1538 -0.8266 -0.5610
 3744SOL    HW217069   4.409   5.485   0.685  0.5153 -0.1455  1.1850
 3745SOL     OW17070  10.430   6.391   3.903 -0.2899 -0.8435 -0.3424
 3745SOL    HW117071  10.490   6.416   3.974 -1.5373 -1.5343  1.0060
 3745SOL    HW217072  10.466   6.434   3.825  0.3770  1.0680  0.9380
 3746SOL     OW17073   7.293   6.711   4.447  0.0378  0.0257 -0.5102
 3746SOL    HW117074   7.205   6.697   4.483  0.9027 -1.5338  1.1688
 3746SOL    HW217075   7.284   6.690   4.354 -1.5825  0.9637 -0.6070
 3747SOL     OW17076   6.768   3.177  10.126  0.6172  0.0236  0.5204
 3747SOL    HW117077   6.725   3.145  10.204  0.4271 -1.0285  0.0037
 3747SOL    HW217078   6.697   3.212  10.071  0.5293 -0.8066  0.0933
 3748SOL     OW17079  10.078   9.802   5.840 -0.5942 -0.2249 -0.3031
 3748SOL    HW117080  10.047   9.801   5.750  0.9392 -0.1207 -0.8529
 3748SOL    HW217081  10.061   9.714   5.873 -2.5084  0.1487 -0.1866
 3749SOL     OW17082   8.755   2.325   8.805  0.5786 -0.0040 -0.2267
 3749SOL    HW117083   8.783   2.269   8.732  1.3135  0.1866 -0.0949
 3749SOL    HW217084   8.662   2.340   8.788  0.3021 -1.4327 -0.1589
 3750SOL     OW17085   5.828   8.408   7.675  0.1220  0.0597  0.2258
 3750SOL    HW117086   5.735   8.431   7.673  0.5083  1.7779  0.4306
 3750SOL    HW217087   5.832   8.329   7.728 -1.3263 -0.6288 -0.6255
 3751SOL     OW17088   4.627   1.721   7.294  0.6469 -0.0323 -0.2409
 3751SOL    HW117089   4.591   1.805   7.324 -0.6797 -0.4211 -0.6538
 3751SOL    HW217090   4.658   1.679   7.374  0.0375  0.2693  0.1631
 3752SOL     OW17091   1.150   7.848   0.071 -0.6017  0.0948  0.2044
 3752SOL    HW117092   1.089   7.830   0.142  0.4184 -2.9247  0.4544
 3752SOL    HW217093   1.235   7.815   0.102  0.8029  2.3858 -0.8885
 3753SOL     OW17094   3.068   0.558   6.336  0.5287  0.2548 -0.1044
 3753SOL    HW117095   3.094   0.634   6.283 -0.9467  1.6565  1.0803
 3753SOL    HW217096   3.128   0.560   6.411 -0.2590  0.9767  0.5184
 3754SOL     OW17097   2.751   5.293   9.063 -0.2216 -0.5247 -0.2028
 3754SOL    HW117098   2.692   5.311   8.991  1.0711  1.6581 -0.7993
 3754SOL    HW217099   2.757   5.197   9.066 -1.9092 -0.7196 -1.6168
 3755SOL     OW17100   6.996   7.828   6.218 -0.1286  0.1269 -0.3496
 3755SOL    HW117101   7.043   7.822   6.302  1.8664  3.5283 -1.0236
 3755SOL    HW217102   6.921   7.885   6.237 -1.8637 -2.0687 -0.1862
 3756SOL     OW17103   1.622   6.493   9.374 -0.2748  0.7534 -0.3636
 3756SOL    HW117104   1.656   6.481   9.463  1.5493  1.0225 -0.9652
 3756SOL    HW217105   1.610   6.588   9.366 -1.9376  0.6071  0.0716
 3757SOL     OW17106   5.996   2.937   0.584  0.2511 -0.5255  0.2467
 3757SOL    HW117107   5.948   3.007   0.540 -1.0777 -0.4184  1.7864
 3757SOL    HW217108   5.980   2.860   0.530 -1.8808 -0.5335  0.7984
 3758SOL     OW17109   8.278   8.202   7.439 -0.3086 -0.5182  0.3215
 3758SOL    HW117110   8.262   8.246   7.355  1.1450  0.1461  0.3480
 3758SOL    HW217111   8.271   8.272   7.504 -1.0592 -0.9580  0.7296
 3759SOL     OW17112   6.523   7.511   6.873 -0.0648 -0.6048 -0.1827
 3759SOL    HW117113   6.466   7.472   6.807  0.0598  0.1670 -0.7508
 3759SOL    HW217114   6.611   7.505   6.836  0.0207 -0.2769 -0.0403
 3760SOL     OW17115   6.296   0.623   6.328  0.2353  0.1430  0.3391
 3760SOL    HW117116   6.384   0.658   6.311  0.3843  0.5930  1.9419
 3760SOL    HW217117   6.237   0.686   6.286  0.6556 -0.0539 -0.5672
 3761SOL     OW17118   6.152   2.711   5.515  0.1845  0.2920 -0.2927
 3761SOL    HW117119   6.154   2.616   5.509 -1.9582  0.0772  1.2663
 3761SOL    HW217120   6.189   2.730   5.602  3.3058  1.1840 -1.6446
 3762SOL     OW17121   3.988   0.490   3.083 -0.4359 -0.1169  0.0315
 3762SOL    HW117122   4.068   0.446   3.055 -1.0483 -2.5310  1.6915
 3762SOL    HW217123   3.927   0.479   3.010  0.4965  1.0910 -0.9483
 3763SOL     OW17124  10.183   9.558   5.494 -0.0091  0.9901 -0.6830
 3763SOL    HW117125  10.119   9.492   5.467 -0.1832  0.6653  0.4726
 3763SOL    HW217126  10.267   9.524   5.462  0.1419 -0.6605  1.3014
 3764SOL     OW17127   6.228   3.866   8.463 -0.0153 -0.1739  0.1009
 3764SOL    HW117128   6.271   3.897   8.384 -0.9964  0.2676 -0.2748
 3764SOL    HW217129   6.175   3.940   8.492 -1.5292 -1.1136 -0.1772
 3765SOL     OW17130   0.739   6.581   8.969 -0.5131  0.4479 -0.2802
 3765SOL    HW117131   0.701   6.534   8.895 -0.3490  0.2370 -0.2317
 3765SOL    HW217132   0.665   6.598   9.027 -0.7765  1.2898 -0.8490
 3766SOL     OW17133   9.676   3.367   5.454 -0.0213  0.8165  0.3243
 3766SOL    HW117134   9.668   3.462   5.446  0.8903  0.9160  0.4094
 3766SOL    HW217135   9.714   3.340   5.370  0.9499  0.7076  0.7774
 3767SOL     OW17136   8.842   7.438   2.805  0.5046  0.5133 -0.0034
 3767SOL    HW117137   8.845   7.360   2.861 -0.9283  1.0244  0.8657
 3767SOL    HW217138   8.908   7.422   2.738 -0.4153 -1.9113 -0.4522
 3768SOL     OW17139   2.787   1.112   4.069 -0.2458 -0.0148  0.6158
 3768SOL    HW117140   2.733   1.112   4.149  0.8178 -0.9463  1.3707
 3768SOL    HW217141   2.783   1.202   4.038 -1.7034  0.0908  1.0044
 3769SOL     OW17142   0.318   7.773   9.956  0.3134 -0.0050  0.2926
 3769SOL    HW117143   0.326   7.863   9.925  0.4340 -0.2742 -0.4876
 3769SOL    HW217144   0.408   7.742   9.965  0.2785  0.0776  0.9448
 3770SOL     OW17145   2.842   5.382   8.379 -0.7873 -0.2386 -0.3641
 3770SOL    HW117146   2.902   5.381   8.453 -2.0677 -1.6719  0.7219
 3770SOL    HW217147   2.895   5.413   8.305  1.4108 -1.9116  0.4211
 3771SOL     OW17148   6.944   5.239   8.028 -0.2928  0.4007  0.4799
 3771SOL    HW117149   6.997   5.313   8.059 -1.0237  0.7725  0.8553
 3771SOL    HW217150   6.974   5.225   7.938  1.1661 -0.0663  1.0028
 3772SOL     OW17151   0.914   5.706  10.727  0.5176 -0.8831 -0.3483
 3772SOL    HW117152   0.911   5.793  10.766  0.4647 -0.9205 -0.2706
 3772SOL    HW217153   0.983   5.660  10.776 -1.2016 -1.7432  1.3808
 3773SOL     OW17154   4.603   3.159   4.364 -0.1089 -0.1664 -0.6213
 3773SOL    HW117155   4.656   3.080   4.348  0.5575  0.3213 -0.8840
 3773SOL    HW217156   4.662   3.231   4.344 -0.7980  0.4005 -0.6386
 3774SOL     OW17157   4.746   6.743  10.805 -0.2415  0.2467 -0.2550
 3774SOL    HW117158   4.824   6.698  10.839 -1.1708 -0.9923  0.3227
 3774SOL    HW217159   4.688   6.672  10.777 -1.1291  1.1520 -0.7785
 3775SOL     OW17160   7.028   6.026   0.304 -0.2304 -0.2276 -0.5854
 3775SOL    HW117161   6.949   6.024   0.250  0.3495 -0.9309 -1.4477
 3775SOL    HW217162   7.071   5.942   0.286  1.9525  1.1080 -2.0712
 3776SOL     OW17163   5.170   0.901   5.909 -0.0718 -0.3903  0.4525
 3776SOL    HW117164   5.140   0.829   5.854 -1.9072  0.0542  0.7963
 3776SOL    HW217165   5.242   0.940   5.861 -1.2572 -0.3618 -1.3942
 3777SOL     OW17166   0.644  10.681   7.214 -0.0598  0.2377 -0.2876
 3777SOL    HW117167   0.584  10.609   7.235  1.2014 -0.9912 -0.7561
 3777SOL    HW217168   0.683  10.705   7.298 -2.0392  1.8914  0.2408
 3778SOL     OW17169   0.970   4.829   5.345 -0.2866  0.0433 -0.6944
 3778SOL    HW117170   0.895   4.830   5.285  0.2223 -0.3368 -1.3413
 3778SOL    HW217171   1.013   4.913   5.331 -1.0502  0.6229  0.2842
 3779SOL     OW17172   7.530   2.440   2.604 -0.2941 -0.3525  0.3264
 3779SOL    HW117173   7.445   2.398   2.616  0.5212 -2.3535 -0.3547
 3779SOL    HW217174   7.511   2.534   2.603 -2.3062 -0.6808  1.4236
 3780SOL     OW17175   2.100  10.553   6.708 -0.3708 -0.4377  0.1586
 3780SOL    HW117176   2.194  10.570   6.704 -0.4335 -0.1326 -0.0636
 3780SOL    HW217177   2.069  10.568   6.619 -1.0397  1.8683  0.7134
 3781SOL     OW17178   6.195   4.983   2.974 -0.6011  0.4188 -0.2260
 3781SOL    HW117179   6.195   5.039   2.896  2.8040 -0.2868 -0.8549
 3781SOL    HW217180   6.197   4.894   2.940  1.7649  0.1064  0.5920
 3782SOL     OW17181   7.018   2.820   1.936 -0.0890 -0.6982 -0.6910
 3782SOL    HW117182   7.074   2.785   1.867 -0.2519 -0.2833 -1.0317
 3782SOL    HW217183   6.929   2.804   1.905 -0.1743 -1.2358 -0.2104
 3783SOL     OW17184   5.616  10.030   6.292  0.2318  0.0921  0.6021
 3783SOL    HW117185   5.542   9.973   6.313  0.2461  0.2643  1.1362
 3783SOL    HW217186   5.654  10.052   6.377  2.2458 -1.7460  0.2437
 3784SOL     OW17187   4.003   5.247   3.062  0.2665 -0.0140  0.5051
 3784SOL    HW117188   3.979   5.163   3.021  2.5456 -0.5310  0.0587
 3784SOL    HW217189   3.927   5.271   3.115 -1.0746 -1.5488 -0.6203
 3785SOL     OW17190   9.790   0.887   6.286  0.1405 -0.4455 -0.0797
 3785SOL    HW117191   9.868   0.917   6.331 -0.1101  0.5543 -0.2926
 3785SOL    HW217192   9.735   0.965   6.278 -1.3848 -1.3206  1.0696
 3786SOL     OW17193   6.833   1.905   0.635 -0.0347  0.1100  0.4932
 3786SOL    HW117194   6.743   1.881   0.653  0.0746  0.2335  1.2201
 3786SOL    HW217195   6.852   1.866   0.549 -1.1904  1.1915 -0.2917
 3787SOL     OW17196   6.324   4.461  10.632  0.4737  0.2457 -0.6838
 3787SOL    HW117197   6.386   4.447  10.703  0.6656  1.4515 -0.5876
 3787SOL    HW217198   6.239   4.468  10.675  0.7674  2.5146 -0.3504
 3788SOL     OW17199   7.139  10.018   7.870  0.2953 -0.1979  0.3069
 3788SOL    HW117200   7.167   9.966   7.944  0.8477  1.2938  1.2015
 3788SOL    HW217201   7.045  10.030   7.882 -0.0739 -1.9810 -0.5864
 3789SOL     OW17202   5.460  10.756   2.224  0.1004 -0.0807 -0.3455
 3789SOL    HW117203   5.462  10.843   2.183 -0.8521 -0.1305 -0.5172
 3789SOL    HW217204   5.449  10.775   2.318 -0.8833 -0.0192 -0.4639
 3790SOL     OW17205   3.958   8.433   9.750  0.2889 -0.3340 -0.1433
 3790SOL    HW117206   3.988   8.385   9.672  0.3915 -1.2732  0.4582
 3790SOL    HW217207   3.932   8.519   9.717  0.5667 -0.6353 -1.1773
 3791SOL     OW17208   3.884   2.189   7.084  0.5313 -0.3286  0.1633
 3791SOL    HW117209   3.817   2.171   7.018  1.4313 -0.7279 -0.6641
 3791SOL    HW217210   3.959   2.135   7.057  1.7488  1.3023  0.1580
 3792SOL     OW17211   7.076   0.683   6.486  0.0552  0.0647  0.0615
 3792SOL    HW117212   7.143   0.738   6.526  0.0354  0.5532 -0.5559
 3792SOL    HW217213   7.029   0.645   6.560  1.1251 -0.4367  0.5115
 3793SOL     OW17214  10.769   8.543   9.026 -0.1021  0.5219 -0.1464
 3793SOL    HW117215  10.718   8.510   9.100 -1.2299  0.2890 -1.0037
 3793SOL    HW217216  10.725   8.509   8.949  0.1381  2.0108 -0.9817
 3794SOL     OW17217   8.609   7.963   1.715 -0.1688  0.4894  0.3893
 3794SOL    HW117218   8.575   7.961   1.626  0.6292 -1.7975  0.0611
 3794SOL    HW217219   8.697   7.926   1.709 -0.5110 -0.7901  2.2516
 3795SOL     OW17220   2.912   2.098   2.404 -0.3107 -0.7040  0.0846
 3795SOL    HW117221   2.860   2.020   2.427 -1.4231 -0.2268 -0.7166
 3795SOL    HW217222   2.906   2.103   2.308  0.2602  0.0366  0.0808
 3796SOL     OW17223  10.793   3.702   5.538  0.7475 -0.1417 -0.2499
 3796SOL    HW117224  10.722   3.657   5.583 -0.1265  0.8201 -0.6274
 3796SOL    HW217225  10.862   3.713   5.605 -0.0105  0.1267  0.5039
 3797SOL     OW17226   6.347   8.673   7.710 -0.3146 -0.8838  0.3480
 3797SOL    HW117227   6.350   8.589   7.755 -0.4850 -0.1176  1.8572
 3797SOL    HW217228   6.258   8.706   7.726 -0.3322 -0.5294 -0.4341
 3798SOL     OW17229   9.843   6.627   7.444 -0.1803  0.1213 -0.3351
 3798SOL    HW117230   9.814   6.571   7.372  0.9477 -1.3318  0.2700
 3798SOL    HW217231   9.935   6.602   7.458 -0.1362  0.9648  1.0414
 3799SOL     OW17232   0.878   7.148   5.394  0.0996 -0.0732  0.8573
 3799SOL    HW117233   0.804   7.087   5.392  1.0709 -1.2875  0.5193
 3799SOL    HW217234   0.956   7.091   5.388  1.0814  1.1237  1.7648
 3800SOL     OW17235   8.930   4.211   7.455  0.1870  0.0129  0.3137
 3800SOL    HW117236   9.023   4.200   7.436 -0.2651 -1.3698 -1.3638
 3800SOL    HW217237   8.906   4.133   7.506 -0.5360 -0.9715 -1.4327
 3801SOL     OW17238   2.242   9.785  10.428 -0.2480  0.3112 -0.2043
 3801SOL    HW117239   2.185   9.786  10.505 -0.2760  0.6544 -0.2292
 3801SOL    HW217240   2.294   9.864  10.435 -0.5932  0.6010 -0.7916
 3802SOL     OW17241   3.847   2.541   6.572 -0.3901 -0.0649 -1.1966
 3802SOL    HW117242   3.896   2.623   6.575 -1.1577  0.3741  0.0149
 3802SOL    HW217243   3.911   2.476   6.542  1.4722  0.1955  1.7806
 3803SOL     OW17244  10.581   4.538   9.156 -0.4188 -0.0760 -0.2131
 3803SOL    HW117245  10.511   4.487   9.115 -1.3288  1.3809 -0.5625
 3803SOL    HW217246  10.605   4.604   9.091  0.2294  0.3768  0.4623
 3804SOL     OW17247   0.805  10.730   7.414 -0.4339 -0.4366  0.3086
 3804SOL    HW117248   0.834  10.661   7.474 -0.2468  0.1902  0.9524
 3804SOL    HW217249   0.885  10.776   7.389 -0.4782 -0.8432 -0.6288
 3805SOL     OW17250   6.769   9.582  10.784 -0.0435  0.3665  0.4562
 3805SOL    HW117251   6.786   9.566  10.877  1.0225  1.3736  0.4520
 3805SOL    HW217252   6.711   9.658  10.783 -0.1758  0.2637  0.2989
 3806SOL     OW17253   6.869   8.290   9.418  0.0249  0.8966 -0.4880
 3806SOL    HW117254   6.866   8.234   9.340  1.2717  0.1548 -0.0350
 3806SOL    HW217255   6.842   8.376   9.387  0.1747  0.5418 -1.6694
 3807SOL     OW17256  10.553   9.302   4.546  0.3990  0.1652  0.4181
 3807SOL    HW117257  10.476   9.337   4.591  0.4087  2.2270 -1.0410
 3807SOL    HW217258  10.618   9.289   4.615 -0.0609  1.8944  1.2261
 3808SOL     OW17259   3.591   1.905   5.820 -0.0816  0.2575 -0.1002
 3808SOL    HW117260   3.671   1.870   5.782 -1.3628 -2.4911 -0.5705
 3808SOL    HW217261   3.573   1.985   5.771  0.9659 -0.5138 -1.8469
 3809SOL     OW17262   4.440   5.308   6.383 -0.2394 -0.2183  0.2850
 3809SOL    HW117263   4.461   5.218   6.407 -1.0633 -1.0527 -1.8875
 3809SOL    HW217264   4.525   5.350   6.370  0.2903 -1.9202 -2.7697
 3810SOL     OW17265  10.022   9.738  10.109  0.1540 -0.0317  0.1129
 3810SOL    HW117266   9.988   9.667  10.054  3.8076 -3.9853  2.3280
 3810SOL    HW217267   9.950   9.760  10.168 -1.2223 -1.7861 -0.8225
 3811SOL     OW17268   2.385   7.879   0.544  0.1259 -0.6543 -0.6830
 3811SOL    HW117269   2.422   7.885   0.457 -1.0810 -0.7717 -1.2327
 3811SOL    HW217270   2.306   7.826   0.533 -1.2936  1.1830  0.0257
 3812SOL     OW17271   9.501   3.165   5.309  0.0049 -0.2744 -0.3177
 3812SOL    HW117272   9.417   3.189   5.347 -0.5111 -2.1442 -0.1862
 3812SOL    HW217273   9.555   3.138   5.384  0.7976  1.0155 -0.3861
 3813SOL     OW17274   9.988  10.008  10.471  0.1159  0.6359 -0.0978
 3813SOL    HW117275   9.992  10.046  10.559  0.8987  0.0549  0.1282
 3813SOL    HW217276  10.051   9.936  10.473  1.0015  1.3266 -1.4918
 3814SOL     OW17277   6.780   2.679   7.141 -0.1174 -0.3622  0.3750
 3814SOL    HW117278   6.733   2.750   7.097 -1.3278 -2.8356 -2.7795
 3814SOL    HW217279   6.714   2.638   7.197  0.1257  0.0020  0.9341
 3815SOL     OW17280   7.071   7.266   4.070  0.4946 -0.0768 -0.8259
 3815SOL    HW117281   7.098   7.231   3.985  0.3584 -2.2604 -0.0303
 3815SOL    HW217282   7.017   7.197   4.109  1.1188  0.5564  1.3161
 3816SOL     OW17283   3.740   0.848   5.510 -0.3280 -0.6332 -0.6438
 3816SOL    HW117284   3.680   0.774   5.500  0.1467 -0.8259 -2.4631
 3816SOL    HW217285   3.825   0.808   5.526 -0.1924 -0.4677 -0.9378
 3817SOL     OW17286   1.199   4.152   1.692  0.5920 -0.0769 -0.0576
 3817SOL    HW117287   1.115   4.181   1.727 -0.8712 -4.8801  1.1787
 3817SOL    HW217288   1.177   4.117   1.605  1.8145  0.7034 -0.6969
 3818SOL     OW17289   9.813   2.491   7.326  0.4222 -0.5782 -0.3902
 3818SOL    HW117290   9.886   2.473   7.385  0.8993 -0.8990 -1.0691
 3818SOL    HW217291   9.771   2.568   7.363  2.4178  0.9817 -1.1566
 3819SOL     OW17292   1.830   2.642   4.092  0.1319  0.0167  0.1498
 3819SOL    HW117293   1.879   2.560   4.086  0.6618  0.3886 -0.8335
 3819SOL    HW217294   1.898   2.710   4.086 -0.2461  0.5451  1.3911
 3820SOL     OW17295   9.135   3.062   0.537  0.5630 -0.1350  0.3651
 3820SOL    HW117296   9.128   3.158   0.543  0.1978 -0.2119  1.3141
 3820SOL    HW217297   9.109   3.042   0.447  1.0877  0.6936  0.0159
 3821SOL     OW17298   0.730   8.855   8.022  0.0505  0.2633 -0.2158
 3821SOL    HW117299   0.697   8.789   7.961  0.4012 -1.5152  1.4222
 3821SOL    HW217300   0.738   8.809   8.105  0.1280  2.4576  1.0631
 3822SOL     OW17301   7.063   2.262   8.918  0.4808 -0.1769 -0.3094
 3822SOL    HW117302   7.046   2.281   8.826  1.0989  1.0493 -0.1883
 3822SOL    HW217303   6.994   2.200   8.943 -0.9401  1.0324 -1.0606
 3823SOL     OW17304   1.319   7.369   3.833 -0.5977 -0.6560  0.0734
 3823SOL    HW117305   1.330   7.344   3.924  0.3966  0.4540  0.2753
 3823SOL    HW217306   1.226   7.354   3.815 -1.2179  0.7469  1.7857
 3824SOL     OW17307   5.556   0.722  10.886 -0.6411  0.6912  0.1305
 3824SOL    HW117308   5.584   0.633  10.865 -2.6838  0.1341 -0.4624
 3824SOL    HW217309   5.547   0.723  10.982  0.9121  0.7868  0.3064
 3825SOL     OW17310   7.270   1.778   4.199 -0.2608 -0.3998 -0.9262
 3825SOL    HW117311   7.236   1.867   4.192 -1.3334 -0.7741 -0.5789
 3825SOL    HW217312   7.351   1.779   4.147  0.0532  0.9234 -0.4470
 3826SOL     OW17313   8.698   4.961   4.164 -0.0412  0.1773  0.2975
 3826SOL    HW117314   8.628   5.026   4.159 -1.8571 -1.5913  1.2032
 3826SOL    HW217315   8.681   4.900   4.093  1.5652  0.5614 -0.4702
 3827SOL     OW17316   5.083   7.532   5.433  0.2816 -0.1061  0.2815
 3827SOL    HW117317   5.038   7.595   5.490  1.1015 -0.9735  1.9330
 3827SOL    HW217318   5.163   7.509   5.480  2.0514  0.6509 -2.1454
 3828SOL     OW17319   9.251  10.705   9.631 -0.2463  0.3063 -0.4616
 3828SOL    HW117320   9.162  10.670   9.637  0.8200 -2.6054 -0.4913
 3828SOL    HW217321   9.307  10.629   9.623  2.3540  2.0324  0.0844
 3829SOL     OW17322   1.618   5.688   4.710 -0.3338  0.4229  0.4960
 3829SOL    HW117323   1.626   5.670   4.616 -1.3014 -0.0019  0.4803
 3829SOL    HW217324   1.707   5.679   4.744  0.1469  1.2809 -0.4935
 3830SOL     OW17325   0.389   5.078   5.030 -0.0099  0.1310  0.2827
 3830SOL    HW117326   0.337   5.051   4.954 -1.9724  0.4438  1.4524
 3830SOL    HW217327   0.420   5.165   5.007 -0.5845  0.2242 -0.1699
 3831SOL     OW17328   1.338   4.346   2.796  0.0340  0.6458 -0.0295
 3831SOL    HW117329   1.316   4.365   2.705  1.2889 -0.4235 -0.5817
 3831SOL    HW217330   1.432   4.361   2.803 -0.0118  0.5560  1.0531
 3832SOL     OW17331   5.108   4.943  10.075  0.3456  0.3464 -0.4787
 3832SOL    HW117332   5.072   5.010  10.017  0.2844  1.6295  0.9801
 3832SOL    HW217333   5.038   4.926  10.138  0.2848 -1.2753 -0.9189
 3833SOL     OW17334   6.374   2.201   8.741 -0.2680 -0.3474 -0.0936
 3833SOL    HW117335   6.324   2.130   8.701  0.3341 -0.2629 -1.0087
 3833SOL    HW217336   6.438   2.227   8.675 -1.5062  2.1472 -0.4599
 3834SOL     OW17337   8.915   5.422   0.556 -0.2534  0.4904  0.1858
 3834SOL    HW117338   8.961   5.343   0.528 -0.8495  0.0334  0.4818
 3834SOL    HW217339   8.983   5.476   0.597  0.4131  0.7004 -1.1483
 3835SOL     OW17340   1.649   2.305   5.288  0.0537  0.5062 -0.2258
 3835SOL    HW117341   1.730   2.333   5.244  0.0741 -0.6605 -0.9731
 3835SOL    HW217342   1.679   2.268   5.371  0.5302 -1.5027 -1.2079
 3836SOL     OW17343   4.092   5.103   9.533 -0.1548 -0.0200  0.0404
 3836SOL    HW117344   4.175   5.078   9.575  0.5412  2.9061  0.6936
 3836SOL    HW217345   4.053   5.021   9.506  1.5408 -1.7662  2.4147
 3837SOL     OW17346   7.072   0.043   0.760  0.6605 -0.0768 -0.2240
 3837SOL    HW117347   7.029   0.056   0.675  0.0504 -0.3515  0.0330
 3837SOL    HW217348   7.090   0.132   0.791  1.1996  0.0198 -0.7908
 3838SOL     OW17349   3.815  10.124   4.406  0.0321 -0.2973  0.2360
 3838SOL    HW117350   3.729  10.117   4.448  0.2427 -1.6842  0.5049
 3838SOL    HW217351   3.815  10.055   4.340  0.8352 -0.1424  0.0636
 3839SOL     OW17352   2.491   0.090   5.497  0.0912  0.0962 -0.0974
 3839SOL    HW117353   2.586   0.097   5.501  0.1318 -1.0459  1.9116
 3839SOL    HW217354   2.474  -0.002   5.474 -0.5246  0.1392  0.1547
 3840SOL     OW17355   6.639   4.218   5.881 -0.2855  0.1837 -0.5155
 3840SOL    HW117356   6.726   4.185   5.859 -0.4793 -0.6341 -0.1089
 3840SOL    HW217357   6.623   4.289   5.818  0.9259  0.7689 -0.1863
 3841SOL     OW17358   5.170   4.119   8.831 -0.0802 -0.3867  0.2608
 3841SOL    HW117359   5.124   4.044   8.869 -2.1512  0.7891  0.1881
 3841SOL    HW217360   5.164   4.188   8.898 -0.7959  0.6287 -0.8135
 3842SOL     OW17361   1.753   1.776   7.937 -0.1124  0.3920  0.0925
 3842SOL    HW117362   1.849   1.779   7.934 -0.0998 -0.4975 -1.3465
 3842SOL    HW217363   1.726   1.847   7.878 -0.3106  0.0332 -0.2543
 3843SOL     OW17364   1.092   8.122   8.496 -0.4219 -0.6488 -0.0984
 3843SOL    HW117365   1.115   8.195   8.554 -1.3659 -1.1721  0.9766
 3843SOL    HW217366   1.018   8.079   8.540 -0.2350 -1.9249 -0.9870
 3844SOL     OW17367   9.925   0.012   1.715 -0.0407  0.2504 -0.3021
 3844SOL    HW117368  10.020   0.008   1.724  0.2151  1.3487 -2.0106
 3844SOL    HW217369   9.904   0.105   1.721 -0.9783  0.0524 -0.2780
 3845SOL     OW17370   4.893   9.730  10.847 -0.1460  0.3655 -0.2338
 3845SOL    HW117371   4.959   9.684  10.795  0.6325  0.8053  0.3300
 3845SOL    HW217372   4.816   9.732  10.791 -0.0346 -1.1235 -0.4871
 3846SOL     OW17373   9.443   6.494   5.549 -0.1714  0.4873  0.0870
 3846SOL    HW117374   9.425   6.423   5.487  1.5078 -1.3121  1.5280
 3846SOL    HW217375   9.363   6.499   5.602 -0.3746 -0.2159 -0.1410
 3847SOL     OW17376   3.204   4.938  10.019  0.3387  0.0221 -0.4375
 3847SOL    HW117377   3.148   4.960   9.944 -0.2293 -1.8630 -0.6074
 3847SOL    HW217378   3.228   5.023  10.056 -1.3695  0.9292 -1.2840
 3848SOL     OW17379   7.964   4.280  10.311  0.3705  0.0626  0.8002
 3848SOL    HW117380   7.970   4.185  10.308  1.2530  0.1284  0.2164
 3848SOL    HW217381   7.927   4.305  10.226  1.3108  0.3069  0.4466
 3849SOL     OW17382   9.909   1.745   0.356  0.3289 -0.5677  0.2337
 3849SOL    HW117383   9.827   1.789   0.378  0.0764 -0.4606 -0.8736
 3849SOL    HW217384   9.958   1.809   0.306 -0.2284 -1.6396 -1.8001
 3850SOL     OW17385   8.158   2.789   4.170  0.3001 -0.2044 -0.0514
 3850SOL    HW117386   8.077   2.778   4.119  0.5757 -2.5688 -0.1102
 3850SOL    HW217387   8.128   2.813   4.257 -0.4941 -0.9583 -0.0955
 3851SOL     OW17388   6.508   5.406   8.247 -0.2799  0.0970  0.5211
 3851SOL    HW117389   6.554   5.434   8.168 -0.1235 -1.3565  0.0738
 3851SOL    HW217390   6.563   5.439   8.319 -0.7598  1.9954  0.0891
 3852SOL     OW17391   1.530   4.071   4.555 -0.4596  0.3973 -0.4089
 3852SOL    HW117392   1.576   3.989   4.572 -0.4598  0.1775 -1.4334
 3852SOL    HW217393   1.575   4.136   4.610  0.6480  0.0530 -0.8879
 3853SOL     OW17394   1.050  10.762   4.479 -0.1086  0.0964 -0.3178
 3853SOL    HW117395   0.958  10.735   4.484 -0.2400  0.7064  1.3604
 3853SOL    HW217396   1.092  10.717   4.552  0.9981 -0.3347 -1.1875
 3854SOL     OW17397   9.459   6.810   0.422  0.1127 -0.2599 -0.2037
 3854SOL    HW117398   9.371   6.847   0.415  0.6278  1.0348 -0.0588
 3854SOL    HW217399   9.454   6.751   0.497 -0.6516 -0.2624 -0.2469
 3855SOL     OW17400  10.450   9.277   6.198  0.1062  0.3176  0.3111
 3855SOL    HW117401  10.446   9.267   6.293  1.7810  0.1138  0.3920
 3855SOL    HW217402  10.458   9.371   6.184  3.0764  0.1808  0.5928
 3856SOL     OW17403   1.785   2.380  10.088  0.2580  0.0041  0.4166
 3856SOL    HW117404   1.800   2.381  10.183 -0.0319  0.1773  0.4621
 3856SOL    HW217405   1.731   2.303  10.073  3.0135 -1.9673 -0.0420
 3857SOL     OW17406   6.065   2.246   6.955  0.7323 -0.0209  0.1975
 3857SOL    HW117407   6.017   2.172   6.918  0.7260  0.2209 -0.2905
 3857SOL    HW217408   5.999   2.315   6.963  0.9764  0.2894 -0.4081
 3858SOL     OW17409   0.237   3.231   6.933  0.2897  0.2421 -0.1029
 3858SOL    HW117410   0.203   3.319   6.951 -0.4393 -0.1716  0.6537
 3858SOL    HW217411   0.318   3.226   6.984  0.7978  0.7652 -0.8375
 3859SOL     OW17412   9.123   2.806   1.023  0.3777  0.1821 -0.0196
 3859SOL    HW117413   9.079   2.859   0.956  1.2435  1.5071  0.4173
 3859SOL    HW217414   9.121   2.860   1.102  0.1269 -1.0075  0.8059
 3860SOL     OW17415   7.991  10.698   8.240 -0.1508  0.1868 -0.4056
 3860SOL    HW117416   7.900  10.695   8.267 -0.0745  1.2341  0.0221
 3860SOL    HW217417   7.997  10.776   8.184  0.9220  1.5102  1.4197
 3861SOL     OW17418   0.303   7.639   9.514  0.5774 -0.5062  0.3064
 3861SOL    HW117419   0.248   7.638   9.592  2.1239 -0.7491  1.4537
 3861SOL    HW217420   0.325   7.546   9.499  2.0428 -0.3047  0.9466
 3862SOL     OW17421   2.090  10.398   4.994  0.5691 -0.0135  0.4518
 3862SOL    HW117422   2.116  10.415   4.903 -0.9556 -1.7243 -0.3518
 3862SOL    HW217423   2.168  10.358   5.034  0.3238 -2.0433 -0.9800
 3863SOL     OW17424   0.607   6.485   7.910  0.3859  0.1401 -0.1551
 3863SOL    HW117425   0.595   6.525   7.824  1.6276  0.5557 -0.1675
 3863SOL    HW217426   0.519   6.474   7.944 -0.0739  1.2855 -0.8921
 3864SOL     OW17427   1.958   1.739   3.612 -0.0082  0.1613  0.1085
 3864SOL    HW117428   1.952   1.823   3.656 -2.4335  0.3821 -0.5136
 3864SOL    HW217429   1.898   1.682   3.660 -2.4628  0.3119 -2.4903
 3865SOL     OW17430   4.061   5.565   8.858 -0.1588 -0.1145 -0.0072
 3865SOL    HW117431   4.145   5.560   8.903  0.0380 -0.5305 -0.4102
 3865SOL    HW217432   4.014   5.487   8.887 -0.2789 -0.0544 -0.0387
 3866SOL     OW17433   0.263   9.349   0.485 -0.3776  0.0596  0.2828
 3866SOL    HW117434   0.188   9.324   0.430 -0.4610 -0.3082  0.5587
 3866SOL    HW217435   0.313   9.410   0.431 -0.0110 -0.9374 -0.5420
 3867SOL     OW17436   8.846  10.498   3.388  0.6847 -0.2750  0.1804
 3867SOL    HW117437   8.850  10.582   3.342 -1.5660  0.2852  0.8899
 3867SOL    HW217438   8.772  10.452   3.347  0.9790 -1.3059  0.7835
 3868SOL     OW17439   1.041   6.088   8.858 -0.2373 -1.1042 -0.7890
 3868SOL    HW117440   1.037   6.179   8.888  1.7846 -1.4380  0.6708
 3868SOL    HW217441   1.014   6.093   8.766 -2.5422  0.5681 -0.1382
 3869SOL     OW17442   6.932   3.690   8.702 -0.6421 -0.1264 -0.0802
 3869SOL    HW117443   6.914   3.766   8.648 -2.1290  0.4175  1.0841
 3869SOL    HW217444   6.933   3.724   8.792 -0.4015 -1.3212  0.3928
 3870SOL     OW17445   2.407   6.240   0.589 -0.4414 -0.0132  0.3201
 3870SOL    HW117446   2.477   6.296   0.622  1.9374 -2.4155 -0.2861
 3870SOL    HW217447   2.446   6.153   0.585 -3.3794 -1.4241 -0.4740
 3871SOL     OW17448   9.465   7.216   7.526 -0.3552 -0.1167  0.0438
 3871SOL    HW117449   9.541   7.173   7.486 -1.2196 -2.7422  0.9844
 3871SOL    HW217450   9.416   7.251   7.452  0.3230 -0.9230 -0.8164
 3872SOL     OW17451   3.303   9.859   0.486  0.6113  0.1975 -0.1930
 3872SOL    HW117452   3.234   9.800   0.516  2.5109 -2.2861 -0.4551
 3872SOL    HW217453   3.327   9.825   0.400  2.8918  0.2866  0.3519
 3873SOL     OW17454   7.173   2.411  10.306  0.2042 -0.6152 -0.5006
 3873SOL    HW117455   7.259   2.419  10.347 -0.0728  2.4619 -0.2915
 3873SOL    HW217456   7.116   2.380  10.377  0.9612 -2.1305 -0.5009
 3874SOL     OW17457   4.836   6.031   3.554 -0.1819  0.3428  0.1613
 3874SOL    HW117458   4.833   6.110   3.500 -1.6661  0.5841  0.5586
 3874SOL    HW217459   4.746   6.019   3.584 -0.2719 -2.2449 -0.9121
 3875SOL     OW17460   0.229   0.081  10.471 -0.2663  0.0706  0.3967
 3875SOL    HW117461   0.251   0.158  10.523  0.5161 -0.6887  1.2447
 3875SOL    HW217462   0.250   0.007  10.529 -0.9898 -0.7730 -0.3923
 3876SOL     OW17463   8.412   8.247   8.219  0.6538  0.4807  0.2956
 3876SOL    HW117464   8.453   8.198   8.147  0.1455  1.5383 -0.7603
 3876SOL    HW217465   8.472   8.319   8.236  0.8954  0.0881  1.1257
 3877SOL     OW17466   9.504   5.395   5.078  0.7587 -0.5327 -0.1620
 3877SOL    HW117467   9.567   5.467   5.082  1.0784 -0.7974 -0.3481
 3877SOL    HW217468   9.514   5.350   5.162 -0.5286  0.5286  0.5970
 3878SOL     OW17469   0.154   2.703   0.376 -0.6230 -0.1689  0.6340
 3878SOL    HW117470   0.163   2.781   0.430 -0.0199 -0.4184  0.9008
 3878SOL    HW217471   0.115   2.735   0.294 -1.1429  0.2733  1.0520
 3879SOL     OW17472   5.393   8.900   4.910  0.2573 -0.4365 -0.5889
 3879SOL    HW117473   5.469   8.942   4.870 -0.3976  0.3294 -1.0382
 3879SOL    HW217474   5.424   8.871   4.996  1.8640 -2.6443 -1.8167
 3880SOL     OW17475   8.337   2.878   5.829 -0.0613  0.7592 -0.3244
 3880SOL    HW117476   8.431   2.867   5.836  0.0322  1.1842 -0.8411
 3880SOL    HW217477   8.317   2.855   5.738 -0.8135 -1.7346  0.3871
 3881SOL     OW17478   2.605   3.975   7.713  0.0266 -0.5271  0.3442
 3881SOL    HW117479   2.630   3.949   7.624  0.6475  1.0683  0.0027
 3881SOL    HW217480   2.682   4.021   7.746 -0.3594 -0.7234  1.5613
 3882SOL     OW17481  10.918   5.756   2.032  0.2987 -0.2122  0.0970
 3882SOL    HW117482  10.883   5.741   1.944  0.4345 -1.4840  0.2510
 3882SOL    HW217483  11.008   5.786   2.017  0.7857 -1.7344 -0.1880
 3883SOL     OW17484   3.090   5.576   2.946  0.5779  0.7676  0.1129
 3883SOL    HW117485   3.115   5.491   2.982 -1.6537  0.8651  2.1041
 3883SOL    HW217486   3.158   5.636   2.976 -0.0806  0.4325  2.4544
 3884SOL     OW17487   2.017   3.145   0.234  0.8619  0.5257  0.2559
 3884SOL    HW117488   1.935   3.097   0.219  0.5681  0.9368  0.5372
 3884SOL    HW217489   2.010   3.177   0.324  0.2361  2.6579 -0.5049
 3885SOL     OW17490   4.251   8.656   6.937  0.4086  0.4604  0.0828
 3885SOL    HW117491   4.342   8.673   6.916  0.5331  0.2070  0.4200
 3885SOL    HW217492   4.232   8.714   7.012  0.2006  0.7519 -0.1921
 3886SOL     OW17493   5.207   1.824  10.824  0.1059  0.0541  0.2321
 3886SOL    HW117494   5.126   1.831  10.773 -0.2719  1.0248  0.9212
 3886SOL    HW217495   5.272   1.791  10.762 -0.3020  1.3127 -0.9134
 3887SOL     OW17496   0.996   3.771   2.251 -0.3249  0.1699 -0.3171
 3887SOL    HW117497   0.920   3.724   2.215  0.9023 -0.2809 -2.4821
 3887SOL    HW217498   0.960   3.854   2.281 -1.9086 -0.6105  0.0629
 3888SOL     OW17499   3.801   7.203   6.259  0.3475  0.0276  0.1610
 3888SOL    HW117500   3.774   7.290   6.228 -1.1823 -0.9057 -1.3342
 3888SOL    HW217501   3.882   7.185   6.212 -0.1277  0.0624 -0.6964
 3889SOL     OW17502   1.294   1.774   5.697 -0.2846  0.2062 -0.2241
 3889SOL    HW117503   1.251   1.709   5.642  0.5115 -0.5814  0.0628
 3889SOL    HW217504   1.387   1.751   5.694 -0.0968  0.7881  0.5988
 3890SOL     OW17505   3.394   6.570   7.887 -0.2370  0.3434 -0.9389
 3890SOL    HW117506   3.489   6.565   7.894 -0.4251 -2.0773  1.4818
 3890SOL    HW217507   3.377   6.565   7.792  1.9983 -0.5260 -1.3616
 3891SOL     OW17508   4.987   0.102   6.991 -0.0469  0.0305 -0.3824
 3891SOL    HW117509   5.059   0.054   6.950 -0.6495 -1.1228 -0.1473
 3891SOL    HW217510   4.991   0.189   6.951  2.0277  0.3080  0.3148
 3892SOL     OW17511   4.469   9.518   9.836  0.1637 -0.1254 -0.1133
 3892SOL    HW117512   4.563   9.519   9.853  0.2589 -0.9463 -0.5768
 3892SOL    HW217513   4.446   9.611   9.824  1.3027 -0.0565 -2.1757
 3893SOL     OW17514   4.335   2.367   3.267  0.3319  0.5493 -0.1040
 3893SOL    HW117515   4.301   2.424   3.336 -0.9420 -2.0310  1.5726
 3893SOL    HW217516   4.415   2.330   3.305  1.0209  0.9797 -1.0842
 3894SOL     OW17517   4.973   9.922   1.558 -0.0481  0.5031  0.2658
 3894SOL    HW117518   4.946   9.894   1.645  1.9481 -1.0420  0.4498
 3894SOL    HW217519   5.020   9.846   1.522 -0.0389  1.4257 -1.7988
 3895SOL     OW17520   5.682   1.425  10.094  0.2897 -0.0287 -0.3865
 3895SOL    HW117521   5.660   1.456  10.006  0.8398 -0.3539 -0.6425
 3895SOL    HW217522   5.712   1.335  10.081  0.2354 -0.1324  0.1546
 3896SOL     OW17523   7.555  10.476  10.596 -0.1319  0.0151  0.1924
 3896SOL    HW117524   7.497  10.407  10.566 -1.1411  1.1076 -0.4290
 3896SOL    HW217525   7.643  10.444  10.575 -0.3901 -2.0200  1.8757
 3897SOL     OW17526   0.954   4.978   6.770 -0.0075 -0.0188  0.0287
 3897SOL    HW117527   1.046   4.998   6.751 -0.2501  1.0170 -0.1124
 3897SOL    HW217528   0.958   4.917   6.844  0.7575  1.7728  1.5664
 3898SOL     OW17529  10.225   4.717   8.544 -0.0750  0.4328  0.0970
 3898SOL    HW117530  10.137   4.745   8.570  0.5751  2.3309  0.4532
 3898SOL    HW217531  10.257   4.667   8.618 -0.4884  0.6084  0.4027
 3899SOL     OW17532   3.614  10.426   2.758  0.3240 -0.3345  0.1124
 3899SOL    HW117533   3.706  10.400   2.751  0.3158 -0.1164 -0.8496
 3899SOL    HW217534   3.582  10.378   2.834  1.4038  0.1024  0.8744
 3900SOL     OW17535   5.199   0.372   4.268  0.4146  0.2930 -0.1735
 3900SOL    HW117536   5.278   0.386   4.215 -0.0490 -0.2099 -1.0299
 3900SOL    HW217537   5.129   0.365   4.203 -0.0107 -1.5311  0.4164
 3901SOL     OW17538   7.188   9.518   4.661 -0.5838 -0.0404  0.5690
 3901SOL    HW117539   7.105   9.514   4.613 -0.4707 -0.6839  0.4253
 3901SOL    HW217540   7.212   9.427   4.677  0.7961  0.0662 -0.6233
 3902SOL     OW17541   1.520   5.817   7.529 -0.5935 -0.4685  0.2654
 3902SOL    HW117542   1.613   5.810   7.509 -0.6435 -2.8581  0.6649
 3902SOL    HW217543   1.516   5.843   7.621 -0.3146 -1.5220  0.5767
 3903SOL     OW17544   7.487   8.379   4.274  0.1938  0.1977 -0.4497
 3903SOL    HW117545   7.565   8.409   4.227  0.7832 -1.5803 -0.6804
 3903SOL    HW217546   7.442   8.460   4.300  2.8492  1.3372  0.9671
 3904SOL     OW17547   4.332   9.459   1.374  0.3482  0.1226  0.1934
 3904SOL    HW117548   4.251   9.425   1.336  0.6164  0.5409 -0.7861
 3904SOL    HW217549   4.323   9.555   1.368 -0.2428  0.2880  2.5787
 3905SOL     OW17550   3.429   2.938  10.277  0.2957 -0.2289 -0.2452
 3905SOL    HW117551   3.380   2.873  10.327  1.0485 -0.1411  0.6274
 3905SOL    HW217552   3.440   2.898  10.190  1.9836 -1.9439  0.6711
 3906SOL     OW17553   7.752   5.178   0.504 -0.8243 -0.0513  0.0306
 3906SOL    HW117554   7.798   5.260   0.487 -0.7523 -0.3287 -1.1826
 3906SOL    HW217555   7.689   5.170   0.432 -1.6656 -0.4711  0.7963
 3907SOL     OW17556   5.587   2.982   7.246  0.2770 -0.1425 -0.4366
 3907SOL    HW117557   5.525   2.919   7.209 -0.2871  0.4839 -0.5855
 3907SOL    HW217558   5.534   3.036   7.304  1.0988 -0.9090  1.0668
 3908SOL     OW17559   0.975   9.528   4.096  0.1273 -0.0663 -0.8987
 3908SOL    HW117560   0.983   9.537   4.191  0.7760 -0.9794 -0.8542
 3908SOL    HW217561   0.881   9.539   4.078 -0.0503 -0.2558 -0.1080
 3909SOL     OW17562  10.415   1.035   5.408 -0.0954 -0.2574 -0.0016
 3909SOL    HW117563  10.374   0.951   5.386  0.0112 -1.0491  2.4458
 3909SOL    HW217564  10.341   1.095   5.421 -0.2927 -0.5777  0.3731
 3910SOL     OW17565   2.767   4.167   8.138  0.7247 -0.2214 -0.0754
 3910SOL    HW117566   2.762   4.179   8.233  0.6464 -0.5740 -0.0346
 3910SOL    HW217567   2.772   4.073   8.126  0.4604 -0.1923 -0.4337
 3911SOL     OW17568   7.481   4.806   2.861 -0.5943  0.1727 -0.4409
 3911SOL    HW117569   7.417   4.829   2.928  0.0257  0.3982  0.0700
 3911SOL    HW217570   7.504   4.890   2.820 -0.9403  0.0417 -0.9145
 3912SOL     OW17571  10.679   6.273   0.442  0.6356  0.1040 -0.0035
 3912SOL    HW117572  10.615   6.267   0.371  2.1086  0.3999 -1.4177
 3912SOL    HW217573  10.626   6.271   0.522 -1.2598  1.7783 -1.1080
 3913SOL     OW17574   8.600   3.672   3.021 -0.4827 -0.4210 -0.1062
 3913SOL    HW117575   8.601   3.719   3.105  0.7134  0.1125 -0.4024
 3913SOL    HW217576   8.537   3.601   3.035 -0.6128 -0.1050  1.1077
 3914SOL     OW17577   1.220   0.546   8.047  0.4933  0.0181 -0.0067
 3914SOL    HW117578   1.176   0.571   8.128 -0.8074 -0.0016 -0.6657
 3914SOL    HW217579   1.260   0.626   8.015  1.0950  0.0040  0.6980
 3915SOL     OW17580   1.956  10.586   6.100 -0.0246 -0.2568  0.1134
 3915SOL    HW117581   1.916  10.550   6.021 -0.9861 -0.7731  0.8234
 3915SOL    HW217582   1.926  10.529   6.171  0.9446  0.1056  0.8432
 3916SOL     OW17583   4.157   7.365   0.798 -0.4041 -0.2581  0.0431
 3916SOL    HW117584   4.155   7.269   0.791  1.7924 -0.6580  2.8312
 3916SOL    HW217585   4.109   7.384   0.879 -0.6486  0.9901 -0.3789
 3917SOL     OW17586   0.227   0.408   5.062 -0.0877  0.1731 -0.0974
 3917SOL    HW117587   0.242   0.476   4.996  1.0380 -0.7492 -0.8538
 3917SOL    HW217588   0.132   0.406   5.074 -0.3849  0.1200 -2.0203
 3918SOL     OW17589   4.857   7.570  10.239  0.5644  0.2573  0.5589
 3918SOL    HW117590   4.902   7.490  10.266  1.4013  0.7781  0.7543
 3918SOL    HW217591   4.800   7.592  10.312  0.1086 -0.3157  0.3816
 3919SOL     OW17592   9.260   9.482   7.729 -0.0246  0.1746  0.6249
 3919SOL    HW117593   9.167   9.502   7.734  0.2227  1.5267  0.1880
 3919SOL    HW217594   9.263   9.395   7.688 -1.0865 -0.0991  1.0727
 3920SOL     OW17595   7.067   5.656   1.035 -0.2270  0.3208 -0.0304
 3920SOL    HW117596   7.026   5.629   0.953 -0.2131  0.9748 -0.2633
 3920SOL    HW217597   7.000   5.640   1.102 -0.1720 -0.3854 -0.1385
 3921SOL     OW17598   5.106   3.661   9.841  0.5655  0.0394  0.2708
 3921SOL    HW117599   5.164   3.667   9.765  1.1415 -1.6591  0.5220
 3921SOL    HW217600   5.027   3.708   9.815  0.3498 -1.3308 -1.7954
 3922SOL     OW17601   1.332   8.207   9.473 -0.3512 -0.5033 -0.1875
 3922SOL    HW117602   1.289   8.156   9.541 -1.4663 -0.7434 -1.0416
 3922SOL    HW217603   1.266   8.218   9.405 -0.8275  3.6989  0.7008
 3923SOL     OW17604   8.731   9.847   8.307 -0.1267  0.6161 -0.1859
 3923SOL    HW117605   8.644   9.856   8.347 -0.4251 -1.1218 -0.3785
 3923SOL    HW217606   8.713   9.833   8.214  0.2908 -0.6701 -0.0905
 3924SOL     OW17607   2.924   9.471   9.043  0.0246 -0.1974 -0.0175
 3924SOL    HW117608   2.955   9.561   9.038 -1.2102  0.2228 -0.4248
 3924SOL    HW217609   2.932   9.448   9.136 -1.6123  1.0814  0.4957
 3925SOL     OW17610   9.982   5.321   5.826  0.0499  0.5368  0.2496
 3925SOL    HW117611  10.015   5.334   5.738  0.8905  0.5616  0.5568
 3925SOL    HW217612   9.980   5.226   5.837  1.8287  0.5278  0.8618
 3926SOL     OW17613   3.565   9.172   5.406 -0.2970  0.2627  0.1195
 3926SOL    HW117614   3.561   9.252   5.459 -3.0574 -0.5182  1.2432
 3926SOL    HW217615   3.656   9.168   5.376  0.5308  2.5211  2.0196
 3927SOL     OW17616   3.763   5.444   4.355  0.1426 -0.8540  0.2452
 3927SOL    HW117617   3.857   5.460   4.349  0.3045 -1.7573  0.3130
 3927SOL    HW217618   3.735   5.435   4.264 -0.1562  0.8549  0.1280
 3928SOL     OW17619   3.086   7.344   9.486 -0.9118  0.2359  0.3229
 3928SOL    HW117620   3.140   7.422   9.495  0.6358 -0.7564  0.1677
 3928SOL    HW217621   3.043   7.353   9.402 -0.3225  0.6777  0.0666
 3929SOL     OW17622  10.585   3.856   2.612  0.4960  0.0236  0.4436
 3929SOL    HW117623  10.677   3.870   2.588  0.8820 -1.1832  1.1702
 3929SOL    HW217624  10.575   3.899   2.697 -0.9007  4.3854 -1.6131
 3930SOL     OW17625   7.864   2.191   3.347  0.2172 -0.0685 -0.1271
 3930SOL    HW117626   7.785   2.152   3.309  0.8693 -1.6243  0.0643
 3930SOL    HW217627   7.854   2.285   3.329 -0.0921 -0.5512 -3.0822
 3931SOL     OW17628   5.204   4.572   6.614 -0.0234 -0.0288 -0.5342
 3931SOL    HW117629   5.249   4.525   6.544 -1.3689 -0.3065 -1.2552
 3931SOL    HW217630   5.132   4.514   6.639 -0.0876  0.4666  0.4631
 3932SOL     OW17631   2.359   9.974   2.496 -0.4022  0.3048 -0.4948
 3932SOL    HW117632   2.387   9.974   2.588  2.0799  0.6331 -1.1638
 3932SOL    HW217633   2.437   9.945   2.448 -1.7548 -0.2266 -2.4901
 3933SOL     OW17634   6.079   5.766   5.263 -0.5683 -0.3526  0.4639
 3933SOL    HW117635   6.125   5.735   5.342  1.1491 -0.5768 -0.5642
 3933SOL    HW217636   6.113   5.855   5.249 -1.1151 -0.1872  0.1579
 3934SOL     OW17637   0.548   6.778   9.308  0.4412  0.3986  0.2460
 3934SOL    HW117638   0.638   6.810   9.299  0.5577  0.3076  1.0227
 3934SOL    HW217639   0.544   6.702   9.250  0.2036  1.6737 -1.5180
 3935SOL     OW17640   4.861   9.338   9.485  1.3031  0.2812  0.2933
 3935SOL    HW117641   4.777   9.349   9.529  0.6635  1.5183 -1.1282
 3935SOL    HW217642   4.873   9.244   9.477 -0.5976  0.0601 -0.5813
 3936SOL     OW17643   6.286   7.439   7.327 -1.1066  1.0343 -0.2313
 3936SOL    HW117644   6.368   7.430   7.376 -0.9937 -0.6516 -0.6671
 3936SOL    HW217645   6.311   7.483   7.246 -0.5898  0.3848 -0.4324
 3937SOL     OW17646   7.105   5.424   8.127 -0.0980 -0.7238 -0.0531
 3937SOL    HW117647   7.193   5.390   8.113  0.4304  0.8895 -1.0035
 3937SOL    HW217648   7.107   5.511   8.087 -1.6733 -0.0328  1.2604
 3938SOL     OW17649   0.893   2.238   7.986  0.1983  0.0512  0.3319
 3938SOL    HW117650   0.956   2.248   7.915  0.5207 -0.1990  0.5854
 3938SOL    HW217651   0.887   2.143   8.000  0.1294  0.1013  0.6388
 3939SOL     OW17652   2.699   9.550   6.043  0.1561  0.4833 -0.0951
 3939SOL    HW117653   2.656   9.635   6.048  0.6389  0.7772 -0.8059
 3939SOL    HW217654   2.716   9.537   5.950 -0.4075 -0.6461 -0.0562
 3940SOL     OW17655   3.623   1.317   4.460 -0.0139  0.0180  0.3749
 3940SOL    HW117656   3.710   1.329   4.423 -0.1328 -0.9387 -0.2718
 3940SOL    HW217657   3.579   1.401   4.447 -0.2566 -0.4271 -2.3196
 3941SOL     OW17658   9.734   8.341   8.724 -0.3580  0.7473 -0.1116
 3941SOL    HW117659   9.811   8.362   8.778 -0.0916  3.5691 -1.3847
 3941SOL    HW217660   9.662   8.332   8.786  0.8014 -1.1254  1.0441
 3942SOL     OW17661   0.029   8.382   5.332  0.2656  0.0303 -0.5605
 3942SOL    HW117662   0.122   8.391   5.354  1.1371 -2.2555 -2.8157
 3942SOL    HW217663   0.025   8.395   5.237 -1.7366  0.0352 -0.5181
 3943SOL     OW17664   3.348   4.549   2.449 -0.2768  0.3771 -0.2828
 3943SOL    HW117665   3.435   4.535   2.412 -0.7842 -1.4828 -0.9046
 3943SOL    HW217666   3.288   4.514   2.383 -1.2164 -3.5654  2.2840
 3944SOL     OW17667   4.436   9.014   3.400  0.3931 -0.6916  0.1483
 3944SOL    HW117668   4.518   9.019   3.351  1.3955 -0.2625  1.8006
 3944SOL    HW217669   4.455   8.954   3.473 -0.1243  0.9123  1.6662
 3945SOL     OW17670   8.965  10.896   9.639 -0.5378  0.1000 -0.2246
 3945SOL    HW117671   9.028  10.968   9.625  0.2530 -0.5346 -0.0118
 3945SOL    HW217672   8.947  10.862   9.552 -1.7218  1.2091 -0.4386
 3946SOL     OW17673   5.186   7.833   7.330 -0.1973  0.3912 -0.5111
 3946SOL    HW117674   5.192   7.777   7.407 -1.1501  1.1696  0.1641
 3946SOL    HW217675   5.271   7.827   7.288 -0.0746 -1.0339 -0.0950
 3947SOL     OW17676   8.460   3.197   5.343 -0.5548  0.2613  0.4377
 3947SOL    HW117677   8.427   3.287   5.341  1.7976  1.2089  0.9084
 3947SOL    HW217678   8.535   3.200   5.402  1.1403 -1.4210 -1.4607
 3948SOL     OW17679   6.094   8.458   0.384  0.2824  0.5474  0.2969
 3948SOL    HW117680   6.083   8.400   0.460 -1.4900 -0.3166 -0.5710
 3948SOL    HW217681   6.186   8.484   0.388  0.4420 -0.1079  2.2840
 3949SOL     OW17682   6.385   1.312   1.274  0.0346 -0.3093 -0.0172
 3949SOL    HW117683   6.457   1.376   1.270 -0.5849  0.4614  0.8600
 3949SOL    HW217684   6.429   1.227   1.270  1.0404  0.1470  0.8456
 3950SOL     OW17685   0.001   5.837   4.972 -0.7368 -0.1298  0.0396
 3950SOL    HW117686   0.075   5.878   5.016 -2.1022  0.7583  1.6200
 3950SOL    HW217687  -0.029   5.769   5.033  0.0680 -1.9982 -1.5395
 3951SOL     OW17688   2.095   1.834   6.723 -0.2252  0.1015  0.1187
 3951SOL    HW117689   2.052   1.785   6.653  0.6026 -1.4568  0.6472
 3951SOL    HW217690   2.167   1.777   6.751  2.3434  2.6425 -0.8320
 3952SOL     OW17691  10.816   0.520   8.851  0.1791  0.0103  0.5482
 3952SOL    HW117692  10.907   0.521   8.878  0.2591  2.0556  0.3666
 3952SOL    HW217693  10.818   0.497   8.758  0.7638  2.2003 -0.0393
 3953SOL     OW17694   2.126   9.367   9.661  0.4388 -0.2304 -0.0671
 3953SOL    HW117695   2.189   9.300   9.687 -1.1311 -1.8469 -0.2131
 3953SOL    HW217696   2.043   9.320   9.654 -0.9783  1.9575  0.9247
 3954SOL     OW17697   8.326   0.427   5.493 -0.0012 -0.0266  0.4137
 3954SOL    HW117698   8.287   0.492   5.552  1.5936  1.4516 -0.0921
 3954SOL    HW217699   8.264   0.355   5.493 -0.8499  0.6114  2.6306
 3955SOL     OW17700   4.810   6.994   3.597 -0.2516 -0.1209  0.5170
 3955SOL    HW117701   4.749   6.957   3.533 -0.1280  1.3993 -0.5245
 3955SOL    HW217702   4.895   6.956   3.574 -0.1387  0.6888 -0.5047
 3956SOL     OW17703   6.340   6.656   1.055 -0.9622 -0.0403 -0.3888
 3956SOL    HW117704   6.368   6.748   1.061  0.1195 -0.2881 -1.3658
 3956SOL    HW217705   6.420   6.606   1.071 -0.9981 -0.7820 -2.3055
 3957SOL     OW17706   4.784  10.064   1.347  0.6889  0.3070 -0.0509
 3957SOL    HW117707   4.711  10.110   1.305  1.7403 -0.3506 -2.8017
 3957SOL    HW217708   4.770  10.078   1.441 -1.8819  1.8051 -0.5561
 3958SOL     OW17709  10.085   1.939   3.655  0.0692 -0.0850 -0.0962
 3958SOL    HW117710  10.179   1.924   3.645 -0.0016 -0.4409 -0.2645
 3958SOL    HW217711  10.050   1.853   3.679 -0.0597  0.2836  1.1171
 3959SOL     OW17712   7.440  10.588   3.457  0.6088 -0.2543 -0.0011
 3959SOL    HW117713   7.424  10.628   3.543 -0.3859  0.9285 -0.7014
 3959SOL    HW217714   7.536  10.584   3.450  0.7271  1.1222  0.5223
 3960SOL     OW17715  10.378   9.918   4.034  0.7648 -0.2946  0.1408
 3960SOL    HW117716  10.384   9.953   4.123  1.0222 -0.3729  0.1521
 3960SOL    HW217717  10.435   9.974   3.982 -0.7895  0.9422 -0.3385
 3961SOL     OW17718  10.093   1.576   6.523 -0.8935  0.4013 -0.3828
 3961SOL    HW117719  10.009   1.540   6.553 -0.5541  0.6074  0.8805
 3961SOL    HW217720  10.078   1.600   6.432 -1.8644 -0.6277 -0.5138
 3962SOL     OW17721   3.008   1.761   6.820  0.3906 -0.1516  0.4808
 3962SOL    HW117722   3.067   1.836   6.828 -2.2165  1.8198  4.1632
 3962SOL    HW217723   2.974   1.767   6.731  0.6029  2.8448  0.5064
 3963SOL     OW17724   6.859   3.288   8.974 -0.7560 -0.2868 -0.4232
 3963SOL    HW117725   6.792   3.336   8.926 -0.9650  0.4660  0.5787
 3963SOL    HW217726   6.829   3.197   8.973 -2.2523  0.1560  0.7144
 3964SOL     OW17727   2.428   9.997  10.430 -0.3454  0.2748 -0.0819
 3964SOL    HW117728   2.521   9.976  10.439 -0.4308 -1.8115 -2.9900
 3964SOL    HW217729   2.419  10.027  10.340 -2.0626  3.5039  1.0097
 3965SOL     OW17730   8.346   2.447  10.230  0.6585 -0.0100  0.2345
 3965SOL    HW117731   8.291   2.484  10.161  1.4696 -1.5303 -1.2826
 3965SOL    HW217732   8.393   2.522  10.266  0.9688  0.7006 -1.5533
 3966SOL     OW17733  10.074  10.018   8.152 -0.5212  0.0644  0.2582
 3966SOL    HW117734  10.106  10.066   8.229 -1.0985 -1.5743  1.5639
 3966SOL    HW217735  10.079  10.082   8.081 -0.7288  1.8885  1.8055
 3967SOL     OW17736   3.767   3.375   8.467 -0.4826 -0.0229  0.0469
 3967SOL    HW117737   3.822   3.341   8.538  0.5795 -1.1943 -1.2809
 3967SOL    HW217738   3.678   3.353   8.493  0.0502 -2.5563 -0.0087
 3968SOL     OW17739   1.750   5.702   7.141  0.3706  0.0287 -0.6193
 3968SOL    HW117740   1.675   5.743   7.097 -0.1663 -0.1855  0.0839
 3968SOL    HW217741   1.718   5.616   7.168  0.5292  0.3504  0.6301
 3969SOL     OW17742   5.440   7.571   9.710 -0.0007  0.3768  0.5150
 3969SOL    HW117743   5.408   7.623   9.784 -2.1565 -0.9514  0.6207
 3969SOL    HW217744   5.380   7.592   9.638  0.4849 -0.2596 -0.0917
 3970SOL     OW17745   7.457   2.141   1.069 -0.4612 -0.7702 -0.4270
 3970SOL    HW117746   7.401   2.080   1.021 -0.8234  1.5893 -3.2519
 3970SOL    HW217747   7.532   2.155   1.012 -0.1079  0.9465  0.4130
 3971SOL     OW17748   4.592   0.815  10.283 -0.1315  0.9442 -0.2780
 3971SOL    HW117749   4.661   0.773  10.232  1.3896  0.9015  1.6974
 3971SOL    HW217750   4.515   0.811  10.227  0.5727 -2.1746 -1.2233
 3972SOL     OW17751   9.151   7.853   3.226 -0.1362  0.4947  0.1357
 3972SOL    HW117752   9.168   7.765   3.260  0.4069 -0.3590 -2.1157
 3972SOL    HW217753   9.069   7.845   3.178  0.4276  0.9025 -0.9490
 3973SOL     OW17754   3.879   9.397   9.272 -0.0114  0.1264 -0.1905
 3973SOL    HW117755   3.842   9.363   9.354  0.0177 -1.6192 -0.8636
 3973SOL    HW217756   3.951   9.337   9.252  0.6765  1.1670 -0.9605
 3974SOL     OW17757   0.749   0.196   7.426  0.2999  0.0274  0.2077
 3974SOL    HW117758   0.696   0.139   7.371 -0.1655 -0.0321  0.7091
 3974SOL    HW217759   0.835   0.155   7.427  0.6655  0.6817 -1.4629
 3975SOL     OW17760   1.330   6.959   5.785 -0.2765 -0.8079  0.2564
 3975SOL    HW117761   1.260   6.982   5.724 -1.1019 -4.2370 -0.2482
 3975SOL    HW217762   1.405   6.941   5.729 -0.1803 -1.0959  0.4775
 3976SOL     OW17763   5.024   8.815   2.268  0.2130 -0.0479  0.3208
 3976SOL    HW117764   5.045   8.792   2.359 -0.4300  2.2632  1.1051
 3976SOL    HW217765   5.084   8.887   2.247  0.7456 -0.9193 -1.3140
 3977SOL     OW17766   9.943  10.913   2.591 -0.9226 -0.6178  0.4415
 3977SOL    HW117767   9.894  10.831   2.577 -1.8173 -0.0512  0.1666
 3977SOL    HW217768   9.926  10.965   2.513  1.9891 -1.2613 -0.7338
 3978SOL     OW17769  10.627   7.315   4.900  0.3367 -0.1666  0.0218
 3978SOL    HW117770  10.607   7.406   4.923 -1.1715 -0.4325 -0.1693
 3978SOL    HW217771  10.576   7.263   4.962  1.3505 -0.9125  0.2646
 3979SOL     OW17772  10.013   0.490   4.331 -0.4128  0.4283 -0.1096
 3979SOL    HW117773   9.971   0.469   4.248 -0.8649  0.9016 -0.0127
 3979SOL    HW217774  10.106   0.500   4.310 -0.4819  0.2590 -0.5018
 3980SOL     OW17775   3.203   9.194  10.602 -0.5421 -0.4472 -0.0391
 3980SOL    HW117776   3.269   9.184  10.670  1.3641  3.5335 -1.0101
 3980SOL    HW217777   3.119   9.187  10.648  0.6535  0.3256  2.4227
 3981SOL     OW17778   0.463   1.398   4.283 -0.7922  0.0240  0.2827
 3981SOL    HW117779   0.506   1.378   4.366  1.4681 -1.5285 -1.1551
 3981SOL    HW217780   0.373   1.367   4.294  0.3563 -3.4435  1.0399
 3982SOL     OW17781   5.448   4.059   1.640 -0.4599 -0.5475 -0.3291
 3982SOL    HW117782   5.377   4.094   1.587 -0.5786  1.2305  0.9014
 3982SOL    HW217783   5.522   4.117   1.622 -0.2997 -0.3433  0.8830
 3983SOL     OW17784   5.919   9.647   4.778  0.2169 -0.4004  0.3282
 3983SOL    HW117785   5.905   9.628   4.871 -0.9571 -1.6844 -0.0856
 3983SOL    HW217786   5.875   9.731   4.765  2.8566  1.3187  1.5048
 3984SOL     OW17787   8.681   5.899   4.868 -0.1522  0.2467  0.4483
 3984SOL    HW117788   8.615   5.832   4.848  0.7648 -0.6084  0.2189
 3984SOL    HW217789   8.725   5.914   4.784  0.5602  0.1375  0.8053
 3985SOL     OW17790  10.418   2.401   9.484 -0.4155  0.2793  0.1850
 3985SOL    HW117791  10.483   2.358   9.430  0.3540  2.7239 -0.9852
 3985SOL    HW217792  10.451   2.393   9.573 -2.0459 -4.4240  0.6486
 3986SOL     OW17793   9.220   6.166  10.817  0.0588  0.2562 -0.9423
 3986SOL    HW117794   9.164   6.226  10.866  0.8559  0.1210  0.1663
 3986SOL    HW217795   9.180   6.080  10.831 -0.4240  0.3712 -1.5763
 3987SOL     OW17796   6.333   7.488  10.465 -0.3969  0.3896 -0.2026
 3987SOL    HW117797   6.393   7.414  10.451  1.3003  1.9095 -1.3084
 3987SOL    HW217798   6.248   7.455  10.436  0.3040 -1.1328 -0.6479
 3988SOL     OW17799   1.533   0.388  10.922 -0.4056 -0.0258 -0.2770
 3988SOL    HW117800   1.606   0.442  10.890 -2.7839  3.6064 -0.2023
 3988SOL    HW217801   1.508   0.334  10.848  0.5237  0.8556 -1.2683
 3989SOL     OW17802   4.379   3.253   4.508 -0.5047 -0.5136 -0.2304
 3989SOL    HW117803   4.410   3.314   4.575 -0.4122 -1.3720  0.5282
 3989SOL    HW217804   4.453   3.195   4.492 -0.4853 -0.2566 -1.1751
 3990SOL     OW17805   3.163   8.409   8.592  0.0165 -0.1337  0.6551
 3990SOL    HW117806   3.168   8.473   8.520 -1.3345  0.1419  0.7641
 3990SOL    HW217807   3.248   8.366   8.592  0.4951  0.7522 -0.2866
 3991SOL     OW17808   9.134   0.622   9.861 -0.2072 -0.4561 -0.2171
 3991SOL    HW117809   9.167   0.676   9.789 -2.0571  0.0878 -0.7207
 3991SOL    HW217810   9.141   0.679   9.938 -1.1701  0.1428 -0.5572
 3992SOL     OW17811   5.601   3.165   6.063 -0.5550  0.3313  0.3010
 3992SOL    HW117812   5.695   3.184   6.064 -0.5585  0.3593 -0.0072
 3992SOL    HW217813   5.596   3.070   6.072 -0.4495  0.1566 -1.3151
 3993SOL     OW17814   2.280   3.552   8.708 -0.3393 -0.5319 -0.2041
 3993SOL    HW117815   2.191   3.525   8.727 -0.0470 -1.5847 -0.2677
 3993SOL    HW217816   2.321   3.561   8.794 -1.0238  1.9340 -0.0544
 3994SOL     OW17817   6.373   1.943   4.831  0.1929  0.6107  0.0508
 3994SOL    HW117818   6.391   1.855   4.799  1.2754  0.8746 -0.1179
 3994SOL    HW217819   6.399   1.941   4.924  1.4330  1.0719 -0.2636
 3995SOL     OW17820   3.068   4.952   2.653  1.0963 -0.5653  0.3355
 3995SOL    HW117821   3.155   4.914   2.641  1.2570  0.0382 -0.5085
 3995SOL    HW217822   3.009   4.876   2.656  1.1820 -0.9519 -3.1103
 3996SOL     OW17823   0.937   9.055  10.423  0.0197 -0.0164 -0.2025
 3996SOL    HW117824   0.874   8.995  10.463  0.1471  0.5396  0.8530
 3996SOL    HW217825   0.977   9.102  10.497  0.8601  0.4410 -0.9269
 3997SOL     OW17826   6.396   9.731   8.212 -0.0633  0.4372 -0.0916
 3997SOL    HW117827   6.313   9.757   8.172 -1.0849  0.6906  2.0434
 3997SOL    HW217828   6.424   9.655   8.161 -2.7344 -1.0165  0.4261
 3998SOL     OW17829   3.592   2.038  10.534 -0.3990 -0.0874 -0.2526
 3998SOL    HW117830   3.660   1.979  10.565 -0.9515 -0.7656 -0.3047
 3998SOL    HW217831   3.522   1.980  10.502 -0.2285  0.5736 -1.9234
 3999SOL     OW17832   3.397   8.953   7.525 -0.3897  0.0569  0.6195
 3999SOL    HW117833   3.406   8.889   7.596  1.2380 -1.9340 -1.2176
 3999SOL    HW217834   3.318   8.926   7.478  0.8730 -1.4137 -0.7896
 4000SOL     OW17835   7.564   3.289   9.111 -0.0576  0.0395 -0.0406
 4000SOL    HW117836   7.568   3.206   9.064 -0.3823  0.6443 -1.1526
 4000SOL    HW217837   7.474   3.320   9.099 -0.2385  0.0774  1.2239
 4001SOL     OW17838   8.752   2.719  10.441 -0.0411 -0.1684  0.2571
 4001SOL    HW117839   8.819   2.696  10.506  0.7438  1.8071  0.2062
 4001SOL    HW217840   8.799   2.771  10.376 -1.3434  0.0009 -0.5699
 4002SOL     OW17841   3.358   9.330   5.820  0.6929 -0.2149 -0.0137
 4002SOL    HW117842   3.352   9.273   5.744  1.5386 -0.1146 -0.1613
 4002SOL    HW217843   3.333   9.417   5.787  1.3291 -0.1158 -0.2484
 4003SOL     OW17844  10.719  10.670   0.749  0.1439  0.7121 -0.1672
 4003SOL    HW117845  10.637  10.704   0.785 -0.8891  0.2843 -1.9821
 4003SOL    HW217846  10.733  10.587   0.794 -1.5370 -0.1982 -1.2160
 4004SOL     OW17847   3.225   9.903   9.612 -0.0534 -0.3351 -0.0236
 4004SOL    HW117848   3.305   9.946   9.643 -0.4182  0.3913 -0.0784
 4004SOL    HW217849   3.229   9.911   9.517 -1.1914  1.5868  0.0317
 4005SOL     OW17850   6.795   5.783   4.969 -0.1373 -0.7304 -0.2389
 4005SOL    HW117851   6.837   5.751   4.889  0.5944  0.6072 -0.4246
 4005SOL    HW217852   6.747   5.860   4.942 -0.3642 -0.6014  0.5136
 4006SOL     OW17853   2.195   2.626   6.297 -0.0310  0.2481  0.2538
 4006SOL    HW117854   2.172   2.695   6.235  0.1404  0.2566  0.2001
 4006SOL    HW217855   2.184   2.667   6.383  0.5116  0.4845  0.2160
 4007SOL     OW17856   7.441   2.253   0.120  0.2522  0.1074  0.0574
 4007SOL    HW117857   7.413   2.293   0.202 -0.2267 -1.4077  0.6703
 4007SOL    HW217858   7.392   2.300   0.052 -0.2204  0.6191  0.7388
 4008SOL     OW17859   1.991   7.363   2.406  0.4738  0.1579 -0.7458
 4008SOL    HW117860   1.958   7.323   2.325 -0.3019  0.2107 -0.4655
 4008SOL    HW217861   2.086   7.357   2.398  0.4674  1.4741 -2.3128
 4009SOL     OW17862   9.536   0.980   9.320 -0.2389 -0.0262  0.2500
 4009SOL    HW117863   9.543   1.076   9.322 -0.7775  0.0157  0.6308
 4009SOL    HW217864   9.546   0.956   9.228  0.7242  0.3274  0.2620
 4010SOL     OW17865   4.285   8.086   1.051  0.2621  0.2202 -0.4161
 4010SOL    HW117866   4.250   8.002   1.022  0.1406 -0.1624  0.7967
 4010SOL    HW217867   4.347   8.111   0.982 -0.7452 -0.1522 -1.4928
 4011SOL     OW17868   1.276   2.150   5.414 -0.2792 -0.0641 -0.2882
 4011SOL    HW117869   1.307   2.157   5.324 -2.0426 -0.1511 -0.9406
 4011SOL    HW217870   1.184   2.175   5.410 -0.0807  1.2366  1.7355
 4012SOL     OW17871   3.687   6.704   7.758  0.0110  0.1149 -0.1737
 4012SOL    HW117872   3.723   6.764   7.823 -1.1548  0.2350  0.3905
 4012SOL    HW217873   3.669   6.624   7.807  0.3708 -0.2616 -0.6488
 4013SOL     OW17874   8.548   5.012   1.209  0.2010 -0.3313 -0.0893
 4013SOL    HW117875   8.518   4.977   1.125  0.8096 -0.9567 -0.0604
 4013SOL    HW217876   8.631   5.054   1.190  0.2337 -0.2777  0.1612
 4014SOL     OW17877   5.727   1.754   6.647  0.4232  0.3486  0.1313
 4014SOL    HW117878   5.686   1.760   6.733  3.4709 -0.5212  1.8194
 4014SOL    HW217879   5.699   1.670   6.612  2.5851 -1.4631  2.4062
 4015SOL     OW17880   1.291  10.389   8.903 -0.1141  1.2610 -0.0500
 4015SOL    HW117881   1.223  10.340   8.857  2.6958 -0.9092 -2.2381
 4015SOL    HW217882   1.309  10.464   8.846 -0.1026  1.3963  0.1287
 4016SOL     OW17883   4.649   7.910   1.994  0.3119 -0.1792  0.0106
 4016SOL    HW117884   4.685   7.994   1.966  1.6680 -0.9898 -0.7648
 4016SOL    HW217885   4.701   7.886   2.071 -0.2973 -0.1729  0.4370
 4017SOL     OW17886   9.607  10.782   6.987  0.2433  0.4683  0.0501
 4017SOL    HW117887   9.627  10.862   7.037  0.1147  1.5666 -1.5900
 4017SOL    HW217888   9.530  10.805   6.935 -0.3632 -1.0517  0.2334
 4018SOL     OW17889   3.255   9.929   5.370  0.4210 -0.5581 -0.0974
 4018SOL    HW117890   3.281  10.007   5.322  1.9219 -0.6388  0.5015
 4018SOL    HW217891   3.203   9.878   5.309 -1.1879  1.2084 -0.2748
 4019SOL     OW17892   0.455   1.405   0.141  0.0155  0.0118 -0.4280
 4019SOL    HW117893   0.474   1.423   0.233 -2.5143 -1.6805  0.5360
 4019SOL    HW217894   0.530   1.355   0.110  0.8576  0.5215  0.7171
 4020SOL     OW17895   6.643   0.426   4.336 -0.4741  0.1209  0.1062
 4020SOL    HW117896   6.611   0.394   4.252  0.6376  1.1053 -0.7141
 4020SOL    HW217897   6.705   0.495   4.314  1.4431 -0.9879  1.6472
 4021SOL     OW17898   2.623   9.815   2.235  0.5327  0.7935 -0.0792
 4021SOL    HW117899   2.635   9.774   2.320  0.0115  0.1921 -0.2798
 4021SOL    HW217900   2.528   9.812   2.221  0.5378  1.6504 -0.3061
 4022SOL     OW17901   7.245   2.427   6.745  0.5412  0.4854  0.7770
 4022SOL    HW117902   7.163   2.453   6.786  1.2102  1.0944  1.7810
 4022SOL    HW217903   7.272   2.505   6.696  1.4917  0.9954  2.0646
 4023SOL     OW17904   3.720   9.315   8.258 -0.3193  0.1267 -0.5990
 4023SOL    HW117905   3.714   9.292   8.165  1.2000 -0.0950 -0.6736
 4023SOL    HW217906   3.631   9.303   8.291 -0.6463 -0.9646 -1.7633
 4024SOL     OW17907   4.165   4.083   4.264 -0.3318 -0.0064 -0.4101
 4024SOL    HW117908   4.249   4.082   4.309 -0.2160  2.6067 -0.3822
 4024SOL    HW217909   4.188   4.096   4.172 -0.6947 -0.5299 -0.5803
 4025SOL     OW17910   2.990   8.204   6.415  0.1859  0.5566  0.4358
 4025SOL    HW117911   3.007   8.178   6.324  0.5705 -0.9115  0.9047
 4025SOL    HW217912   3.077   8.221   6.452  0.1090  0.1721  0.8025
 4026SOL     OW17913   0.851   8.824   4.233  0.7090  0.6817  0.4054
 4026SOL    HW117914   0.795   8.790   4.304  1.0372  0.8120  0.7310
 4026SOL    HW217915   0.896   8.746   4.199  1.1243  0.7143  0.8557
 4027SOL     OW17916  10.757   6.939   1.891  0.0143  0.1070  0.6258
 4027SOL    HW117917  10.725   6.895   1.812  0.7621  1.3844 -0.4351
 4027SOL    HW217918  10.680   6.985   1.925  0.0283  0.8410 -0.2881
 4028SOL     OW17919   1.617   3.709   2.688 -0.2767 -0.3531 -0.2844
 4028SOL    HW117920   1.526   3.730   2.669 -0.0821  0.2256 -0.6109
 4028SOL    HW217921   1.622   3.614   2.680 -0.3026 -0.2123 -2.8547
 4029SOL     OW17922   0.020  10.183   4.256 -0.0629 -0.2383 -0.2912
 4029SOL    HW117923   0.087  10.135   4.304 -0.4706  0.1679  0.6957
 4029SOL    HW217924  -0.006  10.254   4.314 -0.0105  0.7430 -1.4319
 4030SOL     OW17925  10.457   2.571   5.492 -0.5589 -0.1407 -0.3067
 4030SOL    HW117926  10.454   2.577   5.397 -1.2715 -0.3978 -0.3088
 4030SOL    HW217927  10.397   2.639   5.522 -0.4575 -0.1639 -0.0515
 4031SOL     OW17928   0.714   4.863   1.875 -0.2408  0.0310 -0.1057
 4031SOL    HW117929   0.757   4.905   1.950 -0.8748  0.1382  0.1993
 4031SOL    HW217930   0.734   4.919   1.801 -0.9570  0.7987  0.2720
 4032SOL     OW17931   4.013  10.332   9.021  0.0581  0.2337  0.2340
 4032SOL    HW117932   4.105  10.318   8.999  0.3600 -2.5880  2.7698
 4032SOL    HW217933   4.010  10.422   9.053  1.6807  0.7231 -0.8476
 4033SOL     OW17934   8.175   1.695   8.775 -0.3342  0.1698 -0.0343
 4033SOL    HW117935   8.099   1.640   8.755  0.1317 -0.4405 -0.1385
 4033SOL    HW217936   8.248   1.653   8.729  0.2585  0.1740  0.8747
 4034SOL     OW17937   5.645   2.596   1.067  0.3855  0.2139 -0.6730
 4034SOL    HW117938   5.708   2.527   1.048  0.3823 -0.3919  1.3109
 4034SOL    HW217939   5.617   2.627   0.980  1.3936 -1.3191 -1.6016
 4035SOL     OW17940   0.521   4.157   2.939 -0.2335  0.0206  0.1584
 4035SOL    HW117941   0.483   4.243   2.955  0.4257  0.0426  1.7775
 4035SOL    HW217942   0.514   4.112   3.023 -0.2936 -1.4042 -0.5811
 4036SOL     OW17943   2.786   4.544   0.367 -0.1706 -0.2870  0.0751
 4036SOL    HW117944   2.843   4.591   0.428 -1.1390 -0.3087  1.0163
 4036SOL    HW217945   2.767   4.608   0.299 -1.0179  0.5254  1.0523
 4037SOL     OW17946   3.810   4.091   9.520  0.4686  0.4770  0.2663
 4037SOL    HW117947   3.743   4.087   9.588  0.1761 -1.5692 -0.0679
 4037SOL    HW217948   3.778   4.156   9.457 -0.8636  0.0285  0.4643
 4038SOL     OW17949   7.360   8.292   9.425 -0.2295  0.2388  0.0898
 4038SOL    HW117950   7.454   8.274   9.426 -0.0799  0.4568 -2.5160
 4038SOL    HW217951   7.320   8.205   9.418 -0.3692  0.0394  2.4582
 4039SOL     OW17952   5.772   1.938   4.600  0.5146  0.1531 -0.5169
 4039SOL    HW117953   5.684   1.910   4.576  1.4257 -0.9301 -2.9099
 4039SOL    HW217954   5.759   2.021   4.646 -1.6474  0.9587 -2.4053
 4040SOL     OW17955   1.061   9.424   4.703 -0.0183  0.2115 -0.1056
 4040SOL    HW117956   1.148   9.385   4.696  0.2918  1.0095 -0.8222
 4040SOL    HW217957   1.001   9.350   4.703  0.6843 -0.3985  1.1603
 4041SOL     OW17958   2.036   0.656   7.017 -0.0143 -0.0168  0.4300
 4041SOL    HW117959   2.112   0.638   6.962 -1.4217 -1.3384 -1.1999
 4041SOL    HW217960   2.042   0.591   7.087 -0.8806 -1.8368 -1.0765
 4042SOL     OW17961  10.899   8.816   6.225  0.7452  0.4627 -0.1453
 4042SOL    HW117962  10.871   8.731   6.192 -3.2492  1.7542 -0.6405
 4042SOL    HW217963  10.914   8.803   6.319 -0.1739 -0.7106 -0.1501
 4043SOL     OW17964   3.893  10.662   5.256 -0.6670 -0.4564  0.1454
 4043SOL    HW117965   3.854  10.578   5.232 -1.6837 -0.3804  1.4165
 4043SOL    HW217966   3.854  10.725   5.195 -1.2126 -0.6512  0.2901
 4044SOL     OW17967   9.282   5.339   1.644  0.0772  0.0055 -0.0891
 4044SOL    HW117968   9.339   5.295   1.581 -1.4295 -2.9539  0.4505
 4044SOL    HW217969   9.333   5.340   1.726  0.7346  0.7769 -0.4964
 4045SOL     OW17970   8.442   1.534   6.588 -0.2613  0.3433 -0.1776
 4045SOL    HW117971   8.459   1.483   6.667  1.5568 -1.3593 -1.5782
 4045SOL    HW217972   8.526   1.538   6.543 -1.8352 -1.8136 -3.7348
 4046SOL     OW17973   0.871   4.932   4.909  0.1947  0.0218  0.3106
 4046SOL    HW117974   0.949   4.983   4.930  0.2972  0.0945 -0.2229
 4046SOL    HW217975   0.811   4.995   4.870  0.5672 -0.3630 -0.9453
 4047SOL     OW17976   6.054   2.724   9.588 -0.0750  0.5749 -0.3366
 4047SOL    HW117977   6.005   2.768   9.519 -1.2389  1.6477  1.1226
 4047SOL    HW217978   6.014   2.637   9.593 -0.7413  0.8815 -0.2531
 4048SOL     OW17979   6.983   9.051   5.787 -0.1503 -0.7549  0.3029
 4048SOL    HW117980   7.066   9.023   5.827 -0.2534  0.8191  1.7087
 4048SOL    HW217981   6.998   9.141   5.759 -0.7497 -1.1494 -1.3880
 4049SOL     OW17982   5.621   2.068   4.000  0.2424  0.1508  0.2244
 4049SOL    HW117983   5.654   2.003   3.938  0.9435  0.0855  0.6623
 4049SOL    HW217984   5.672   2.055   4.079 -0.1129  0.7524  0.5640
 4050SOL     OW17985   3.665   6.952   0.069 -0.3842 -0.1807  0.3092
 4050SOL    HW117986   3.753   6.952   0.031 -0.7055 -0.8509 -0.4406
 4050SOL    HW217987   3.618   7.019   0.021 -0.1610  0.5158  1.0344
 4051SOL     OW17988   7.057   5.655   8.508 -0.0773 -0.0479  0.0525
 4051SOL    HW117989   7.092   5.744   8.510 -1.7622  0.6753  2.5065
 4051SOL    HW217990   6.969   5.665   8.471  0.2945 -0.9736 -1.1346
 4052SOL     OW17991   4.351   7.796   7.886  0.8950 -0.3950  0.3399
 4052SOL    HW117992   4.295   7.843   7.948 -0.9633 -2.2854  0.2335
 4052SOL    HW217993   4.349   7.849   7.806  2.5525  1.5790  1.5138
 4053SOL     OW17994   1.642   3.199   7.304 -0.3948  0.3841 -0.2175
 4053SOL    HW117995   1.589   3.270   7.268  0.6306  0.8353 -0.8816
 4053SOL    HW217996   1.622   3.123   7.249  0.0484  0.6898 -0.8017
 4054SOL     OW17997   7.529   0.123   1.983 -0.9175 -0.3536  0.1967
 4054SOL    HW117998   7.555   0.215   1.971 -2.0038  0.0195  0.5620
 4054SOL    HW217999   7.433   0.124   1.972 -0.8262 -1.6484 -1.0110
 4055SOL     OW18000   2.147  10.271   4.313 -0.0820  0.3856  0.1389
 4055SOL    HW118001   2.229  10.319   4.306  1.5177 -1.4642  3.6260
 4055SOL    HW218002   2.083  10.336   4.343 -0.0562  1.8577 -2.6612
 4056SOL     OW18003   0.567   3.983   2.728  0.9596  0.0335  0.0901
 4056SOL    HW118004   0.553   4.062   2.779 -0.1290  0.2669 -0.5411
 4056SOL    HW218005   0.536   4.005   2.640 -0.1988 -1.3534  0.1137
 4057SOL     OW18006   0.985   3.873   4.278 -0.5053  0.0529 -0.6826
 4057SOL    HW118007   0.929   3.837   4.347  1.5877 -1.8936  0.1166
 4057SOL    HW218008   0.924   3.916   4.218 -2.5926  0.0480  1.3061
 4058SOL     OW18009   5.214   2.176   2.983  0.1184 -0.3678  0.0195
 4058SOL    HW118010   5.153   2.248   2.998  1.7766  1.1948 -0.4443
 4058SOL    HW218011   5.183   2.106   3.040 -0.4772  1.3483  1.9097
 4059SOL     OW18012   9.046   1.421   4.192 -0.0164 -0.1514  0.3994
 4059SOL    HW118013   9.125   1.389   4.235  0.3858  0.6798  0.2890
 4059SOL    HW218014   9.018   1.496   4.245  0.6315  1.0620 -0.8970
 4060SOL     OW18015  10.106   0.497   0.186  0.5955  0.2257  0.0246
 4060SOL    HW118016  10.200   0.489   0.202  0.8271 -1.6966 -1.7769
 4060SOL    HW218017  10.072   0.408   0.198 -0.7405  0.6021 -0.6958
 4061SOL     OW18018   0.477   2.700   1.945  0.1322  0.1639  0.2280
 4061SOL    HW118019   0.507   2.679   2.033  0.1843 -0.2992  0.1022
 4061SOL    HW218020   0.467   2.615   1.902  2.5705  0.4190 -1.0305
 4062SOL     OW18021   3.691   9.154   6.563  0.1509 -0.0762  0.1263
 4062SOL    HW118022   3.666   9.171   6.654  1.0929  0.8409  0.2341
 4062SOL    HW218023   3.618   9.105   6.527 -0.5249  0.1067  1.1998
 4063SOL     OW18024   2.677   4.473   3.495 -0.3257  0.4902 -0.0273
 4063SOL    HW118025   2.736   4.522   3.553  0.4091 -0.5433  0.1245
 4063SOL    HW218026   2.606   4.535   3.476 -1.2602  0.4920  2.9445
 4064SOL     OW18027   3.789   1.220   1.029  0.1352 -0.0665 -0.1669
 4064SOL    HW118028   3.735   1.266   1.094  0.4663 -0.2539  0.2442
 4064SOL    HW218029   3.878   1.225   1.064  0.5514  1.1117 -1.3285
 4065SOL     OW18030   5.723   7.929  10.633  0.5891 -0.2355  0.0021
 4065SOL    HW118031   5.714   7.857  10.696  2.2399  0.1545  0.7547
 4065SOL    HW218032   5.731   8.007  10.688  0.9487  0.2484 -0.7268
 4066SOL     OW18033   5.645   7.699  10.405  0.4368 -0.3966 -0.7171
 4066SOL    HW118034   5.562   7.714  10.451  0.8833 -0.4002  0.1010
 4066SOL    HW218035   5.622   7.702  10.312 -0.2819  0.7891 -0.5157
 4067SOL     OW18036   1.918   6.835   3.138  0.2283 -0.6251  0.2976
 4067SOL    HW118037   1.967   6.880   3.069  0.7727 -2.1692 -0.3679
 4067SOL    HW218038   1.831   6.875   3.135  0.3383 -0.4353 -1.0845
 4068SOL     OW18039   2.612   8.383   9.058 -0.2176 -0.3742 -0.1871
 4068SOL    HW118040   2.630   8.301   9.014  0.2514 -0.7800  0.7281
 4068SOL    HW218041   2.626   8.450   8.991 -1.2072 -1.0630 -1.1042
 4069SOL     OW18042   8.123  10.000   0.802 -0.2635 -0.5173 -0.2559
 4069SOL    HW118043   8.083   9.914   0.791  1.9664 -1.6531  0.0498
 4069SOL    HW218044   8.158  10.022   0.716 -0.9957  0.1950 -0.3809
 4070SOL     OW18045   7.700   9.049   5.502  0.5439  0.1209  0.2276
 4070SOL    HW118046   7.731   9.048   5.592  1.8902  0.3526 -0.2105
 4070SOL    HW218047   7.655   9.133   5.492 -0.5370 -0.3448  0.9517
 4071SOL     OW18048   9.215   2.667   3.329  0.2386 -0.8727  0.1688
 4071SOL    HW118049   9.241   2.759   3.339  0.7006 -1.1509  1.8536
 4071SOL    HW218050   9.287   2.617   3.366 -0.8893 -1.8241  1.1650
 4072SOL     OW18051   4.298   0.436  10.756  0.1968 -0.0436  0.1417
 4072SOL    HW118052   4.354   0.438  10.834 -0.5242  0.5304  0.6676
 4072SOL    HW218053   4.254   0.351  10.759  0.0233  0.0560  0.4767
 4073SOL     OW18054   7.693   0.474   5.054 -0.3791 -0.2433  0.2123
 4073SOL    HW118055   7.687   0.570   5.063  1.8191 -0.1449  1.1589
 4073SOL    HW218056   7.613   0.450   5.006 -0.4295  2.1944 -1.1034
 4074SOL     OW18057   0.976   9.804   7.526  0.0177  0.2161 -0.1580
 4074SOL    HW118058   1.040   9.858   7.574  0.0860 -1.0043  1.1874
 4074SOL    HW218059   0.940   9.863   7.460  0.5490  1.7311  0.8532
 4075SOL     OW18060   0.726   2.371   3.436 -0.1313  0.3729  0.0524
 4075SOL    HW118061   0.656   2.436   3.436  0.4022  0.9660 -0.4449
 4075SOL    HW218062   0.760   2.373   3.346 -0.1774 -0.6740 -0.0002
 4076SOL     OW18063   9.042   3.079   8.286 -0.3670 -0.7373 -0.4481
 4076SOL    HW118064   8.974   3.061   8.220  0.8275 -1.4127 -1.5371
 4076SOL    HW218065   9.090   2.997   8.293 -2.2135 -1.7114  3.5012
 4077SOL     OW18066   2.394   5.231   8.299  0.1905 -0.0527  0.0108
 4077SOL    HW118067   2.317   5.212   8.353  0.7107 -1.9278  0.1443
 4077SOL    HW218068   2.367   5.306   8.245 -1.3770 -0.0520  0.7323
 4078SOL     OW18069   8.376   5.644   4.281  0.4227  0.0226 -0.0725
 4078SOL    HW118070   8.422   5.564   4.308  1.9150  0.9426  0.2278
 4078SOL    HW218071   8.323   5.617   4.206  2.7445 -0.7878 -1.5366
 4079SOL     OW18072   3.187   2.326   8.958 -0.2366  0.1893  0.0896
 4079SOL    HW118073   3.240   2.395   8.998 -0.1994  0.5012 -0.4880
 4079SOL    HW218074   3.207   2.248   9.009 -0.2849  0.6025  0.7628
 4080SOL     OW18075   8.240  10.034   6.722 -0.3699  0.1503 -0.3865
 4080SOL    HW118076   8.233   9.961   6.784 -0.2274  1.6828  1.5191
 4080SOL    HW218077   8.200  10.001   6.642 -1.8345 -1.4720  0.9385
 4081SOL     OW18078   7.585   5.322   5.089 -0.5879  0.4051 -0.3047
 4081SOL    HW118079   7.572   5.276   5.172  1.2137  3.2817  1.7838
 4081SOL    HW218080   7.501   5.367   5.073 -0.5060  0.9844  0.8001
 4082SOL     OW18081   3.887   6.249   2.733 -0.2695  0.4898 -0.9551
 4082SOL    HW118082   3.857   6.188   2.665 -1.6051  0.4299 -0.3486
 4082SOL    HW218083   3.959   6.204   2.777 -2.0410 -1.2447  0.3301
 4083SOL     OW18084   6.999   9.683   5.250  0.0621  0.5392 -0.6615
 4083SOL    HW118085   6.991   9.590   5.231  0.8762  0.9155 -3.2431
 4083SOL    HW218086   6.936   9.699   5.321  0.7217 -2.1376  0.6611
 4084SOL     OW18087   2.962   3.761   4.716  0.3554 -0.0348  0.1502
 4084SOL    HW118088   2.962   3.733   4.624  0.0355  0.1285  0.0987
 4084SOL    HW218089   2.893   3.827   4.721  0.8677  0.4936  0.3513
 4085SOL     OW18090   4.195   9.918   1.792 -0.1424  0.4212  0.3046
 4085SOL    HW118091   4.183   9.823   1.784  0.9185  0.1007  2.1084
 4085SOL    HW218092   4.275   9.928   1.842  0.1126  2.3095 -0.4090
 4086SOL     OW18093  10.022   3.441   2.270 -0.2994 -0.3188 -0.3623
 4086SOL    HW118094  10.028   3.347   2.286  2.1496 -0.2413 -0.3673
 4086SOL    HW218095  10.023   3.481   2.357 -0.0334 -0.2802 -0.3806
 4087SOL     OW18096   3.229   3.750   1.886 -0.2645  0.5309  0.0372
 4087SOL    HW118097   3.274   3.708   1.959 -2.1934 -1.1400  0.3363
 4087SOL    HW218098   3.139   3.762   1.917 -1.0919 -0.0683 -1.9858
 4088SOL     OW18099   1.514   2.720   1.741  0.0776 -0.2700  0.5823
 4088SOL    HW118100   1.605   2.736   1.714 -0.3738 -1.4954 -2.0396
 4088SOL    HW218101   1.521   2.673   1.824  1.8282 -0.2120  0.5083
 4089SOL     OW18102   8.318   2.463   3.951 -0.5860 -0.2719  0.0958
 4089SOL    HW118103   8.314   2.558   3.939 -4.8637 -0.1173  1.0351
 4089SOL    HW218104   8.304   2.427   3.863 -2.0431  0.1169  0.1399
 4090SOL     OW18105   3.723   5.582   7.735  0.3337  0.2044 -0.0781
 4090SOL    HW118106   3.632   5.609   7.721  0.1558  0.1218  0.8511
 4090SOL    HW218107   3.725   5.490   7.707 -0.4732 -0.5285  2.1237
 4091SOL     OW18108   3.753   8.928   7.786  0.4380 -0.5205  0.1116
 4091SOL    HW118109   3.713   8.864   7.728 -0.0749 -0.1849  0.0869
 4091SOL    HW218110   3.697   9.005   7.779  0.7741 -0.2351  0.5076
 4092SOL     OW18111   5.326   3.061   2.646  0.8667  0.2646  0.1153
 4092SOL    HW118112   5.406   3.075   2.596  0.2456  2.0888 -0.4465
 4092SOL    HW218113   5.354   3.066   2.738  1.6743 -1.0374 -0.0394
 4093SOL     OW18114   3.467   1.704   5.395  0.1848 -0.1710 -0.1106
 4093SOL    HW118115   3.499   1.794   5.404 -0.5856  0.2947 -1.6443
 4093SOL    HW218116   3.417   1.688   5.475  4.1835 -1.0032  2.4945
 4094SOL     OW18117   6.941   0.599   6.703 -0.3184 -0.0474  0.1152
 4094SOL    HW118118   7.013   0.599   6.766  0.7473  0.2041 -1.0338
 4094SOL    HW218119   6.877   0.659   6.740  0.8016  1.0152  0.4194
 4095SOL     OW18120   6.134   3.795   4.797 -0.3680 -0.1984 -0.0226
 4095SOL    HW118121   6.106   3.884   4.777  1.9501  0.3302 -1.2903
 4095SOL    HW218122   6.096   3.741   4.728  0.2793  0.2350 -0.7305
 4096SOL     OW18123   1.128   5.611   7.194  0.2722  0.1568  0.2708
 4096SOL    HW118124   1.092   5.691   7.233  3.0825  1.1986  0.9350
 4096SOL    HW218125   1.147   5.554   7.269  0.9572  0.0682  0.0359
 4097SOL     OW18126   1.711   4.061   2.922 -0.1463  0.1228 -0.0666
 4097SOL    HW118127   1.760   4.142   2.937 -1.4230  1.2464 -1.6319
 4097SOL    HW218128   1.739   4.003   2.993  1.3894  1.6441  0.6512
 4098SOL     OW18129   8.057   8.065   7.406 -0.1110  0.1805  0.0634
 4098SOL    HW118130   8.066   7.999   7.337  0.4700  3.2805 -3.1081
 4098SOL    HW218131   8.143   8.106   7.413 -1.2346  2.9134 -0.7505
 4099SOL     OW18132   7.751  10.757   8.348  0.3243 -0.0666 -0.0014
 4099SOL    HW118133   7.699  10.801   8.281 -1.8296 -1.7414  0.4779
 4099SOL    HW218134   7.737  10.664   8.333  2.3051 -0.5676  0.8851
 4100SOL     OW18135   3.417   1.715   0.559  0.1625 -0.2148 -0.0184
 4100SOL    HW118136   3.429   1.797   0.606 -0.7050 -0.3557  0.4833
 4100SOL    HW218137   3.491   1.710   0.499 -0.1748  1.2957 -0.5866
 4101SOL     OW18138   7.359   6.855   4.038 -0.3966  0.2107  0.3514
 4101SOL    HW118139   7.270   6.828   4.018 -0.3593 -0.3587  0.9335
 4101SOL    HW218140   7.352   6.908   4.117 -0.4026  1.5080 -0.4903
 4102SOL     OW18141  10.145   9.545   7.240  0.0000 -0.3878 -0.7203
 4102SOL    HW118142  10.075   9.504   7.189  0.1565 -0.7368 -0.6530
 4102SOL    HW218143  10.222   9.541   7.182  0.8858 -3.1580  0.4636
 4103SOL     OW18144   9.739   0.862   3.751 -0.0921  0.3147 -0.3001
 4103SOL    HW118145   9.648   0.839   3.734 -0.3173 -0.1531  1.2927
 4103SOL    HW218146   9.790   0.796   3.704 -0.6955 -1.9885  2.0029
 4104SOL     OW18147  10.076   7.529   0.686 -0.0370 -0.7712  0.5014
 4104SOL    HW118148  10.130   7.589   0.634  0.8540 -0.3750  1.8332
 4104SOL    HW218149  10.029   7.586   0.747 -0.2593 -1.3091  0.8376
 4105SOL     OW18150  10.254   5.323  10.338 -0.1751 -0.2061 -0.0404
 4105SOL    HW118151  10.212   5.266  10.274 -2.3797  1.8738 -0.5859
 4105SOL    HW218152  10.309   5.381  10.286 -1.2371  0.8667 -0.0146
 4106SOL     OW18153   9.162   2.399   6.867  0.7504 -0.0743  0.0779
 4106SOL    HW118154   9.187   2.459   6.937  1.9570 -0.6261  0.1431
 4106SOL    HW218155   9.228   2.413   6.799 -1.1963  1.4867 -1.6187
 4107SOL     OW18156   9.991   2.454   0.548  0.2210  0.4935 -0.0608
 4107SOL    HW118157  10.017   2.539   0.584 -0.8772  1.1808 -0.8529
 4107SOL    HW218158  10.040   2.446   0.467 -1.5818  1.5948 -1.3328
 4108SOL     OW18159   9.999   1.492   0.873  0.4132  0.2053 -0.2746
 4108SOL    HW118160  10.093   1.507   0.861  0.5692 -1.1474 -0.8564
 4108SOL    HW218161   9.960   1.511   0.788  0.2148  0.2658 -0.1713
 4109SOL     OW18162   4.881   8.339   1.079  0.3176  0.1074  0.0614
 4109SOL    HW118163   4.924   8.268   1.033 -0.7369 -0.9818  0.6957
 4109SOL    HW218164   4.891   8.317   1.172  0.4285  1.0631  0.2875
 4110SOL     OW18165   6.799   7.032   0.408 -0.1771  0.1812 -0.4192
 4110SOL    HW118166   6.819   7.086   0.484 -1.9480  0.2802  0.0364
 4110SOL    HW218167   6.776   7.095   0.339 -0.7248  0.0667 -0.3512
 4111SOL     OW18168   8.010   6.266   2.875 -0.1094  0.0467  0.1825
 4111SOL    HW118169   8.056   6.230   2.951  2.0752 -0.1619 -1.1562
 4111SOL    HW218170   8.079   6.288   2.812 -1.7743  0.9450 -1.4588
 4112SOL     OW18171   7.289  10.056   9.391  0.3352  0.7805 -0.1178
 4112SOL    HW118172   7.361  10.107   9.428  0.2733 -0.0947  1.3165
 4112SOL    HW218173   7.238  10.029   9.467  0.2053 -1.1431 -0.8283
 4113SOL     OW18174   0.435   2.368   3.701  0.0520  0.0837 -0.5426
 4113SOL    HW118175   0.432   2.428   3.626  1.5091 -0.1547 -0.8108
 4113SOL    HW218176   0.527   2.362   3.724 -0.2034 -1.1307  0.2487
 4114SOL     OW18177   2.765   5.693   6.643 -0.1775  0.1230 -0.4144
 4114SOL    HW118178   2.690   5.753   6.636 -1.0242 -1.1140 -3.9841
 4114SOL    HW218179   2.727   5.606   6.628  1.9090 -0.5895 -1.9460
 4115SOL     OW18180   2.074  10.385   4.720  1.2675  0.0741  0.2581
 4115SOL    HW118181   2.116  10.299   4.724  0.0343 -0.5521  0.2683
 4115SOL    HW218182   1.988  10.367   4.683  1.5369  1.5241 -1.1853
 4116SOL     OW18183   3.934   0.296   3.332 -0.0097  0.2834  0.5729
 4116SOL    HW118184   3.953   0.339   3.248 -0.1292 -1.2736 -0.2842
 4116SOL    HW218185   4.019   0.265   3.363 -0.1317 -0.2562  0.3810
 4117SOL     OW18186   2.924  10.277   0.647  0.5935 -0.0917  0.0991
 4117SOL    HW118187   2.876  10.311   0.572 -0.3802 -0.3121  0.5993
 4117SOL    HW218188   2.974  10.202   0.613  0.7872  0.2980 -0.4806
 4118SOL     OW18189  10.255   9.755   8.873  0.1256  0.1526  0.7876
 4118SOL    HW118190  10.206   9.691   8.822 -0.6433 -0.2039  1.9213
 4118SOL    HW218191  10.250   9.722   8.963 -0.4052  1.8802  1.4158
 4119SOL     OW18192   2.542   3.036   1.117  0.3409 -0.4920  0.0644
 4119SOL    HW118193   2.496   3.118   1.101 -0.3721 -0.6219  1.3333
 4119SOL    HW218194   2.550   3.031   1.213  3.8492 -0.0109 -0.0577
 4120SOL     OW18195   9.155   6.465   6.289  0.0032 -0.4055  0.0162
 4120SOL    HW118196   9.180   6.495   6.376  0.0503 -1.0189  0.2176
 4120SOL    HW218197   9.154   6.370   6.296  0.2459 -0.4694 -0.7172
 4121SOL     OW18198   7.856   5.446   4.997 -0.0936 -0.9783 -0.5972
 4121SOL    HW118199   7.783   5.401   5.041 -0.0587 -0.1003  0.3992
 4121SOL    HW218200   7.876   5.520   5.054  1.2507 -0.9110 -1.1251
 4122SOL     OW18201   2.071   9.467   7.716 -0.0700  0.1764  0.1174
 4122SOL    HW118202   2.157   9.505   7.696 -0.1727 -0.2842 -1.3629
 4122SOL    HW218203   2.015   9.542   7.735  0.5023  0.5295  0.4221
 4123SOL     OW18204   6.734   0.082   3.457  0.1200 -0.4999  0.7744
 4123SOL    HW118205   6.810   0.042   3.414  1.1997  0.9656  1.1997
 4123SOL    HW218206   6.757   0.083   3.550 -0.5553 -0.3129  0.9439
 4124SOL     OW18207   6.590   1.485   1.257  0.1518 -0.5159 -0.1740
 4124SOL    HW118208   6.641   1.518   1.331  0.8799 -0.2204 -0.7998
 4124SOL    HW218209   6.651   1.485   1.184 -0.2582 -1.8199 -0.5386
 4125SOL     OW18210   9.100   1.769   7.662 -0.5259  0.2507 -0.1534
 4125SOL    HW118211   9.039   1.730   7.725  0.7125 -1.9500 -0.2031
 4125SOL    HW218212   9.070   1.738   7.577  0.9319 -1.3948 -0.1304
 4126SOL     OW18213   7.435   9.480   7.775  0.3605  0.1191 -0.0453
 4126SOL    HW118214   7.473   9.394   7.790 -1.4880 -0.8738 -0.6440
 4126SOL    HW218215   7.389   9.471   7.692 -0.3727  1.5085  0.1795
 4127SOL     OW18216   3.747  10.510   0.554  0.2993 -0.1565 -0.3955
 4127SOL    HW118217   3.713  10.423   0.533 -0.3969  0.5456 -2.4480
 4127SOL    HW218218   3.669  10.562   0.577  0.6555  0.0515  0.3735
 4128SOL     OW18219   0.273   8.458   2.442  0.4690  0.2683 -0.1367
 4128SOL    HW118220   0.309   8.492   2.523  2.5005 -0.6222 -0.5949
 4128SOL    HW218221   0.242   8.535   2.395  0.8073  0.9745  0.7665
 4129SOL     OW18222   7.164   3.270   0.776  0.4778 -0.1318 -0.1119
 4129SOL    HW118223   7.242   3.322   0.793 -0.1050  0.6701  0.1549
 4129SOL    HW218224   7.107   3.327   0.725 -0.8950  0.1693  1.6400
 4130SOL     OW18225   0.585   3.991   7.625  0.0704 -0.2144  0.1076
 4130SOL    HW118226   0.494   4.015   7.610  0.4276  0.5125 -1.0807
 4130SOL    HW218227   0.624   3.988   7.537  1.3528  0.1845  0.6344
 4131SOL     OW18228   9.977   9.275   2.870 -0.2142  0.2410 -0.5029
 4131SOL    HW118229  10.048   9.263   2.933  0.8490  1.2130 -1.4653
 4131SOL    HW218230   9.901   9.299   2.923  0.6921  1.2306  0.3999
 4132SOL     OW18231   2.195   1.571   0.102 -0.7077 -0.2273 -0.0060
 4132SOL    HW118232   2.236   1.491   0.069 -2.5750 -0.4853 -1.9179
 4132SOL    HW218233   2.114   1.579   0.051 -1.4754  1.9097  1.4212
 4133SOL     OW18234   1.222   2.720   5.049 -0.1617 -0.7734  0.1949
 4133SOL    HW118235   1.166   2.669   5.107  0.5045 -0.7964  0.8287
 4133SOL    HW218236   1.162   2.757   4.984 -1.1179  0.4494  1.7211
 4134SOL     OW18237   6.111   4.813   8.885  0.0334  0.3370  0.6593
 4134SOL    HW118238   6.140   4.903   8.900 -0.4539  0.5045  0.5941
 4134SOL    HW218239   6.056   4.792   8.961  1.3178 -0.4226  1.4414
 4135SOL     OW18240   7.984   2.998   9.933 -0.6843  0.8496  0.5393
 4135SOL    HW118241   8.029   3.059   9.991  1.0322  0.7814 -0.6486
 4135SOL    HW218242   8.012   3.023   9.845 -0.2901 -1.3360 -0.0190
 4136SOL     OW18243   1.395   3.541   1.297 -0.0767 -0.2393 -0.2158
 4136SOL    HW118244   1.417   3.520   1.388 -0.7430  1.6351  0.4169
 4136SOL    HW218245   1.474   3.582   1.262 -0.3912  0.6436  0.0817
 4137SOL     OW18246   8.714   2.747   5.452  0.3324  0.1215 -0.3016
 4137SOL    HW118247   8.783   2.788   5.504  1.4575 -0.8719 -0.9510
 4137SOL    HW218248   8.698   2.664   5.496 -1.7278  1.0486  0.8426
 4138SOL     OW18249   9.989   5.194   2.812  0.0752  0.5878 -0.0939
 4138SOL    HW118250   9.920   5.153   2.760 -0.8981  0.6139  1.1092
 4138SOL    HW218251  10.071   5.160   2.776 -0.4965  1.3041 -2.1996
 4139SOL     OW18252   7.686   1.739   3.177 -0.1193  0.1678 -0.0371
 4139SOL    HW118253   7.716   1.807   3.116 -1.9759  1.9082  0.8585
 4139SOL    HW218254   7.743   1.750   3.254 -0.4294  0.7715  0.1160
 4140SOL     OW18255   1.980   7.907   7.295 -0.6730  0.1215 -0.1899
 4140SOL    HW118256   1.997   7.813   7.297  0.6458  0.3288  2.3357
 4140SOL    HW218257   1.911   7.918   7.229  0.8153 -2.2854 -2.3404
 4141SOL     OW18258   2.183   7.529   9.455  0.0310  0.2850 -0.2537
 4141SOL    HW118259   2.256   7.475   9.485 -0.1602  0.3329  0.2968
 4141SOL    HW218260   2.108   7.500   9.508 -0.6460 -0.6028 -1.6143
 4142SOL     OW18261   4.459   5.601   3.113  0.5365 -0.1851  0.3983
 4142SOL    HW118262   4.424   5.646   3.190  2.4789  3.3832 -0.5708
 4142SOL    HW218263   4.410   5.639   3.039  1.3029 -0.7160 -0.4016
 4143SOL     OW18264   3.194   0.789   6.996 -0.1827 -0.1776  0.1400
 4143SOL    HW118265   3.144   0.867   6.975  1.9685  1.2264 -0.0783
 4143SOL    HW218266   3.257   0.780   6.925  1.3712 -0.5071  1.4883
 4144SOL     OW18267  10.060   6.795   1.889  0.2378 -0.3738  0.2432
 4144SOL    HW118268   9.977   6.773   1.847  1.3236 -1.4372 -1.4725
 4144SOL    HW218269  10.101   6.711   1.909  0.7489  0.1239  1.4642
 4145SOL     OW18270   0.981   0.149   5.928 -0.3721  0.6951  0.1428
 4145SOL    HW118271   0.960   0.240   5.908  0.0754  0.3130 -2.4521
 4145SOL    HW218272   0.915   0.098   5.879  0.9830 -0.3632 -0.6817
 4146SOL     OW18273   7.911   6.452   1.435 -0.0300 -0.3079  0.1899
 4146SOL    HW118274   7.900   6.547   1.429  0.0479 -0.2597  0.7419
 4146SOL    HW218275   7.866   6.418   1.358 -3.6882 -0.0908  2.0136
 4147SOL     OW18276   1.737   3.271   6.046  0.2746  0.0201 -0.0712
 4147SOL    HW118277   1.657   3.323   6.059 -0.5858 -1.1750 -0.4520
 4147SOL    HW218278   1.759   3.285   5.954 -0.9814 -1.6442 -0.6715
 4148SOL     OW18279   5.944   5.221   6.032  0.1821  0.2061 -0.0215
 4148SOL    HW118280   5.951   5.300   6.085  1.4636  0.7910 -0.9961
 4148SOL    HW218281   6.013   5.164   6.066 -0.4752 -0.3572  0.4090
 4149SOL     OW18282   0.964   1.542   2.195 -0.2917 -0.4281 -0.0190
 4149SOL    HW118283   1.057   1.564   2.186 -0.7411  1.3340 -0.8835
 4149SOL    HW218284   0.939   1.579   2.280 -0.7435  1.4112 -0.8991
 4150SOL     OW18285   1.652   0.079   5.714 -0.0786  0.4503 -0.4183
 4150SOL    HW118286   1.582   0.020   5.685 -1.6665  1.2192  1.6152
 4150SOL    HW218287   1.618   0.167   5.697  0.8779  0.8253 -0.4402
 4151SOL     OW18288  10.241   2.690   6.419 -0.4223  0.4858  0.1760
 4151SOL    HW118289  10.226   2.776   6.380 -0.2692  0.0208 -0.9717
 4151SOL    HW218290  10.164   2.674   6.473 -0.1330  1.6233  0.9564
 4152SOL     OW18291   0.418   9.021   2.023 -0.4235 -0.4259  0.5796
 4152SOL    HW118292   0.396   9.001   1.932 -1.1907  0.0658  0.6475
 4152SOL    HW218293   0.377   8.951   2.074 -2.5972  0.8913  0.7686
 4153SOL     OW18294   9.452   7.984   6.486 -0.1869  0.0794 -0.1905
 4153SOL    HW118295   9.437   8.045   6.559 -0.4818  1.4771 -1.3584
 4153SOL    HW218296   9.462   7.899   6.528 -0.8611  0.7470  1.4499
 4154SOL     OW18297   8.951  10.701   7.715  0.1990 -0.3909 -0.3236
 4154SOL    HW118298   8.907  10.676   7.634 -1.9467  1.5312  0.1398
 4154SOL    HW218299   9.044  10.698   7.693  0.0187 -4.5608 -1.3626
 4155SOL     OW18300   1.897   8.973  10.457  0.4919  0.0535 -0.0514
 4155SOL    HW118301   1.804   8.970  10.480  0.1824  2.0968 -0.8421
 4155SOL    HW218302   1.942   8.953  10.539 -0.6376  0.9725  0.8368
 4156SOL     OW18303   0.015   6.685   1.908 -0.3440  0.0630  0.2001
 4156SOL    HW118304  -0.016   6.682   1.817 -0.9260  0.6233  0.3736
 4156SOL    HW218305   0.100   6.641   1.906 -0.5391 -0.2874 -0.5408
 4157SOL     OW18306  10.613   7.923   4.288  0.4347 -0.3996 -0.4063
 4157SOL    HW118307  10.528   7.963   4.303  1.3188  1.3652  0.1886
 4157SOL    HW218308  10.658   7.929   4.373  1.0077 -1.7348 -0.5805
 4158SOL     OW18309   1.290   8.587   3.881 -0.1678 -0.3500 -0.3499
 4158SOL    HW118310   1.326   8.667   3.842  0.8109 -0.8767 -0.5454
 4158SOL    HW218311   1.305   8.520   3.815  2.0822 -1.3996  1.1040
 4159SOL     OW18312   5.609   1.707   3.032  0.2015  0.3434  0.2693
 4159SOL    HW118313   5.550   1.729   2.960 -0.4486 -0.1834  0.6356
 4159SOL    HW218314   5.658   1.787   3.048 -3.2031  2.1968  2.6610
 4160SOL     OW18315   2.898   2.440   0.420 -0.1530  0.0489 -0.8744
 4160SOL    HW118316   2.819   2.389   0.399  0.3679 -1.2025  0.1036
 4160SOL    HW218317   2.914   2.492   0.341 -2.1130  0.5616 -0.9867
 4161SOL     OW18318   5.649   9.255  10.318  0.4301  0.3258  0.1948
 4161SOL    HW118319   5.680   9.322  10.257  2.0211  0.0342  0.6621
 4161SOL    HW218320   5.706   9.180  10.304 -2.1433 -1.5313 -1.2831
 4162SOL     OW18321   6.923   6.079   6.898 -0.3659  0.0963  0.1333
 4162SOL    HW118322   6.943   6.073   6.805 -0.4780 -0.9296  0.1600
 4162SOL    HW218323   7.000   6.043   6.942 -0.5430  0.0443  0.4113
 4163SOL     OW18324   5.857  10.665   9.871 -0.2837  1.2561  0.5120
 4163SOL    HW118325   5.814  10.701   9.794 -2.5891 -0.8610  0.6560
 4163SOL    HW218326   5.912  10.594   9.838  1.0668  2.2430  0.5841
 4164SOL     OW18327   6.271   2.003   0.342  0.1919  0.4958  0.1922
 4164SOL    HW118328   6.273   2.093   0.310 -2.3496  0.3259 -0.6862
 4164SOL    HW218329   6.189   1.997   0.391 -0.6516 -1.8203 -1.3379
 4165SOL     OW18330   9.217   7.573  10.465  0.1975  0.3580  0.4312
 4165SOL    HW118331   9.250   7.654  10.503  1.9184  0.0162 -0.2592
 4165SOL    HW218332   9.280   7.506  10.491 -1.7305 -1.0206  1.8566
 4166SOL     OW18333   3.255   8.112   5.226  0.2458  0.3658 -0.4836
 4166SOL    HW118334   3.228   8.064   5.148 -0.4382  0.6641 -0.4320
 4166SOL    HW218335   3.325   8.170   5.195  1.5785 -1.1261 -0.4103
 4167SOL     OW18336   7.800   6.050   6.793 -0.0118  0.4895  0.4716
 4167SOL    HW118337   7.854   5.988   6.842 -0.9525  0.2489  1.2384
 4167SOL    HW218338   7.759   6.105   6.860  0.0963  1.3620 -0.1511
 4168SOL     OW18339   3.375  10.757   2.068  0.1194 -0.5625  0.4860
 4168SOL    HW118340   3.461  10.728   2.036 -0.7068 -0.0217 -2.5413
 4168SOL    HW218341   3.395  10.821   2.136  2.0328 -2.3347  1.7038
 4169SOL     OW18342   4.197   0.092   8.135 -0.3112  0.1970 -0.2302
 4169SOL    HW118343   4.287   0.088   8.168 -0.2801 -0.1409 -0.3501
 4169SOL    HW218344   4.206   0.117   8.043 -0.3840  0.9045 -0.0485
 4170SOL     OW18345   0.113   2.002   2.099  0.1789 -0.0275  0.5005
 4170SOL    HW118346   0.089   2.008   2.006  1.9209  1.5703  0.0989
 4170SOL    HW218347   0.088   1.912   2.124 -0.0710 -0.5900 -1.5818
 4171SOL     OW18348   2.903   1.440   5.560  0.3539 -0.8525  0.4858
 4171SOL    HW118349   2.978   1.385   5.537  0.2336 -0.5228 -0.8029
 4171SOL    HW218350   2.836   1.378   5.590  1.2957 -1.0988  2.1861
 4172SOL     OW18351   3.555   0.908   6.327  0.5169  0.3472 -0.0370
 4172SOL    HW118352   3.557   0.904   6.423  2.2904  0.9073 -0.0204
 4172SOL    HW218353   3.527   0.821   6.300 -0.0617  0.1972  0.9767
 4173SOL     OW18354   5.630   4.968   1.165  0.3253  0.2946 -0.3944
 4173SOL    HW118355   5.717   4.998   1.192  0.4949 -0.4793 -0.0274
 4173SOL    HW218356   5.591   4.933   1.245 -0.1050  0.1418 -0.6691
 4174SOL     OW18357   6.938   3.902   1.762  0.2453  0.0361 -0.0506
 4174SOL    HW118358   7.031   3.881   1.773  0.1080 -0.5637  0.0120
 4174SOL    HW218359   6.892   3.838   1.816 -0.3427 -1.7074 -2.4111
 4175SOL     OW18360   9.203   8.042   8.335 -0.2338 -0.2710  0.3566
 4175SOL    HW118361   9.133   8.107   8.341  0.6553  0.5879  2.5347
 4175SOL    HW218362   9.284   8.093   8.345  0.6562 -1.3955 -0.8181
 4176SOL     OW18363  10.550   7.557   1.616  0.8140 -0.4983  0.7035
 4176SOL    HW118364  10.471   7.605   1.589  1.4968  0.3375  0.1069
 4176SOL    HW218365  10.519   7.496   1.683 -0.2798  0.0467  0.7324
 4177SOL     OW18366   4.078   7.111   6.900 -0.3687 -0.5040 -0.3217
 4177SOL    HW118367   4.126   7.167   6.961  0.6809 -0.6909 -0.9344
 4177SOL    HW218368   4.004   7.164   6.871  1.2731  1.0912 -1.8298
 4178SOL     OW18369   3.716   7.181   1.350 -0.0177  0.4204 -0.6886
 4178SOL    HW118370   3.672   7.126   1.285 -0.0204 -1.7622  1.0591
 4178SOL    HW218371   3.808   7.153   1.348  0.4722  1.9116 -1.2511
 4179SOL     OW18372   2.954   5.180   0.466  0.3737 -0.8237 -0.4542
 4179SOL    HW118373   2.892   5.242   0.428  1.1161 -0.3758 -0.9630
 4179SOL    HW218374   3.028   5.234   0.493  0.3710 -1.2998  0.5289
 4180SOL     OW18375   3.354   9.497   8.186  0.2158  0.2862 -0.0254
 4180SOL    HW118376   3.269   9.461   8.163  0.2569  0.1139  0.0923
 4180SOL    HW218377   3.393   9.521   8.102 -0.0476  0.5897 -0.0624
 4181SOL     OW18378   4.835   9.436   3.305 -0.0789 -0.0240 -0.2059
 4181SOL    HW118379   4.761   9.381   3.331  0.3305 -0.7247 -0.5012
 4181SOL    HW218380   4.842   9.425   3.210  0.1033  0.4150 -0.2468
 4182SOL     OW18381   0.878   1.519   6.966 -0.0208 -0.1129 -0.2969
 4182SOL    HW118382   0.815   1.511   6.895 -0.8819  1.4943  0.2296
 4182SOL    HW218383   0.957   1.556   6.925  0.0952 -0.7796 -0.6944
 4183SOL     OW18384  10.349   1.444   6.865 -0.2077  0.6199 -0.2861
 4183SOL    HW118385  10.340   1.482   6.777  2.6400  1.1310 -0.4604
 4183SOL    HW218386  10.313   1.356   6.857 -2.7914  1.6545 -1.0947
 4184SOL     OW18387   3.382   7.827   9.686  0.0486 -0.0244  0.0130
 4184SOL    HW118388   3.460   7.874   9.657  0.0669 -0.6794 -1.0219
 4184SOL    HW218389   3.309   7.879   9.653  0.0546 -0.0325 -0.0124
 4185SOL     OW18390   8.183  10.753   8.981  0.2649  0.4871 -0.0784
 4185SOL    HW118391   8.178  10.708   8.897 -0.1954 -0.2688  0.3455
 4185SOL    HW218392   8.092  10.768   9.006  0.3421 -0.7442  1.0399
 4186SOL     OW18393   6.583   0.188   4.554 -0.2526  0.3430 -0.0010
 4186SOL    HW118394   6.645   0.115   4.543  2.1006  1.9169  1.8380
 4186SOL    HW218395   6.594   0.241   4.475 -1.7634 -1.0234 -1.2119
 4187SOL     OW18396   1.604   2.376   2.168 -0.1549 -0.5324  0.2787
 4187SOL    HW118397   1.678   2.436   2.162  0.1197 -0.7253  1.4714
 4187SOL    HW218398   1.593   2.342   2.079  1.8423 -1.2751  0.2856
 4188SOL     OW18399   2.527   2.444   4.258 -0.0968  0.0041  0.4442
 4188SOL    HW118400   2.463   2.500   4.302  1.4677  0.1017  2.7450
 4188SOL    HW218401   2.485   2.358   4.255 -0.3179  0.0298  2.0533
 4189SOL     OW18402   8.849   5.678   0.723  0.1421 -0.5967 -0.1294
 4189SOL    HW118403   8.813   5.596   0.758 -1.1484 -0.1934 -0.4851
 4189SOL    HW218404   8.925   5.650   0.671  0.1032 -1.4968  0.2715
 4190SOL     OW18405  10.452   7.116   9.986 -0.6695 -0.0526 -0.0802
 4190SOL    HW118406  10.475   7.189  10.043 -1.1353 -1.5509  2.1650
 4190SOL    HW218407  10.518   7.117   9.917  1.7124  0.1683  2.0590
 4191SOL     OW18408   6.443   5.959   8.633 -0.2077 -0.1572 -0.3157
 4191SOL    HW118409   6.470   6.006   8.713 -1.7057  0.9575 -0.4326
 4191SOL    HW218410   6.500   5.881   8.632  1.1520  0.7509  0.8150
 4192SOL     OW18411  10.085   5.679   5.235 -0.1790 -0.3096 -0.5288
 4192SOL    HW118412  10.080   5.769   5.268  1.3158 -0.3007 -0.2507
 4192SOL    HW218413  10.047   5.683   5.148  0.9372  0.8669 -1.0003
 4193SOL     OW18414   6.857   4.360   8.039 -0.4410 -0.2089 -0.1634
 4193SOL    HW118415   6.883   4.450   8.061  1.1352 -0.6932  0.0711
 4193SOL    HW218416   6.911   4.337   7.964 -2.7444 -0.0753 -1.9773
 4194SOL     OW18417   5.840   2.889   4.720  0.1455  0.4414  0.0543
 4194SOL    HW118418   5.876   2.930   4.641 -0.5482 -2.5625 -1.9794
 4194SOL    HW218419   5.907   2.826   4.747 -0.7601 -0.4446  0.2646
 4195SOL     OW18420   5.682   7.021   6.221 -0.2092 -0.2860 -0.1784
 4195SOL    HW118421   5.706   6.955   6.156 -1.9153 -0.5421 -0.6185
 4195SOL    HW218422   5.661   7.098   6.169 -0.7719 -0.2362  0.1098
 4196SOL     OW18423   8.832   9.303   4.221  0.5985  0.0239 -0.5536
 4196SOL    HW118424   8.751   9.257   4.199  0.0964  1.1777 -1.2134
 4196SOL    HW218425   8.830   9.310   4.317 -0.7920  1.2290 -0.6321
 4197SOL     OW18426   1.390   8.926   7.452 -0.0678 -0.7083 -0.2855
 4197SOL    HW118427   1.481   8.896   7.449  0.6016  1.1672  0.1398
 4197SOL    HW218428   1.391   9.004   7.507 -1.2899  1.3808 -2.9614
 4198SOL     OW18429   5.591  10.070   7.607  0.1059  0.2390 -0.4284
 4198SOL    HW118430   5.575  10.020   7.527 -0.0785 -0.3425 -0.0313
 4198SOL    HW218431   5.631  10.008   7.667 -2.3328 -0.1516  0.9437
 4199SOL     OW18432   5.196   8.039   4.904 -0.3097 -0.0595 -0.3784
 4199SOL    HW118433   5.235   8.024   4.817  0.0517  0.0744 -0.2390
 4199SOL    HW218434   5.107   8.003   4.896  0.3442 -1.7683 -0.2344
 4200SOL     OW18435   1.749   4.396  10.837  0.0165  0.3821  0.1545
 4200SOL    HW118436   1.800   4.448  10.775  1.2814  0.5485  1.2667
 4200SOL    HW218437   1.706   4.329  10.784 -1.6834  2.5268 -1.3289
 4201SOL     OW18438   9.055   2.990   0.835 -0.3482 -0.2917  0.2620
 4201SOL    HW118439   9.042   2.991   0.741 -0.1542  0.4720  0.2412
 4201SOL    HW218440   9.096   3.074   0.855  2.9809 -1.8312  0.5551
 4202SOL     OW18441   1.703   0.402   6.301  0.0485  0.1017  0.5761
 4202SOL    HW118442   1.675   0.486   6.339 -0.7145 -0.1114  0.4861
 4202SOL    HW218443   1.718   0.346   6.377  2.1261  0.7667  0.7399
 4203SOL     OW18444   1.932   3.284  10.451  0.5693 -0.2313 -0.5027
 4203SOL    HW118445   1.859   3.298  10.512  2.6446  3.8996  1.4305
 4203SOL    HW218446   1.996   3.236  10.503  1.3046  0.9734 -0.2664
 4204SOL     OW18447   9.893   2.359  10.575  0.0600 -0.1416  0.3596
 4204SOL    HW118448   9.965   2.354  10.638 -0.4007 -0.5081  0.8572
 4204SOL    HW218449   9.857   2.270  10.573  0.0837 -0.1406 -0.4398
 4205SOL     OW18450   3.524   5.500   4.938 -0.6008 -0.9751  0.2287
 4205SOL    HW118451   3.589   5.441   4.899 -0.1669 -0.0342 -0.5170
 4205SOL    HW218452   3.540   5.495   5.032  1.8885  0.7012 -0.0206
 4206SOL     OW18453   2.295   5.629   7.477  0.3821  0.7566  0.4206
 4206SOL    HW118454   2.218   5.685   7.480  0.4793  1.3685 -3.0894
 4206SOL    HW218455   2.261   5.540   7.473 -0.0737  0.9361  0.2879
 4207SOL     OW18456   5.738   0.123   9.108 -0.2201 -0.3196  0.5005
 4207SOL    HW118457   5.782   0.209   9.108 -0.6213 -0.1017 -0.3127
 4207SOL    HW218458   5.687   0.123   9.028 -0.2855 -1.3029  0.5342
 4208SOL     OW18459   3.410   5.247   7.546  0.0404 -0.5754  0.0112
 4208SOL    HW118460   3.416   5.314   7.478 -0.9693 -0.6121 -0.1354
 4208SOL    HW218461   3.417   5.295   7.628  1.1347 -0.5146 -0.1046
 4209SOL     OW18462   3.473   9.128   1.264 -0.2131 -0.2798  0.1505
 4209SOL    HW118463   3.511   9.189   1.200 -3.5662  0.1423 -1.6399
 4209SOL    HW218464   3.462   9.046   1.216 -0.3437 -0.7812  1.0218
 4210SOL     OW18465   4.619   8.046   0.925 -0.3249 -0.2571  0.2831
 4210SOL    HW118466   4.708   8.011   0.914 -0.7121 -0.6378 -2.4996
 4210SOL    HW218467   4.562   7.981   0.884 -1.5734  1.3085 -0.5904
 4211SOL     OW18468   8.521   9.289   1.083  0.4398 -0.4211  0.6137
 4211SOL    HW118469   8.433   9.266   1.113  0.3043  0.5034  0.9346
 4211SOL    HW218470   8.571   9.207   1.093 -0.1698 -0.7366  1.2067
 4212SOL     OW18471   1.717   3.629   9.704  0.2315 -0.6275  0.6954
 4212SOL    HW118472   1.648   3.605   9.642 -3.7595  4.1162  2.5821
 4212SOL    HW218473   1.761   3.704   9.664  0.8090 -0.4146  1.6825
 4213SOL     OW18474   5.718   0.494   8.804 -0.0564  0.6034 -0.1111
 4213SOL    HW118475   5.772   0.425   8.765  0.1323  0.0755  1.0600
 4213SOL    HW218476   5.771   0.574   8.796  0.1547  0.4237 -0.5440
 4214SOL     OW18477  10.251   3.806  10.363  0.2688  0.4394  0.3824
 4214SOL    HW118478  10.224   3.724  10.321  1.3521  0.6951 -0.9182
 4214SOL    HW218479  10.209   3.805  10.448 -1.2182 -0.6145 -0.3215
 4215SOL     OW18480  10.372   1.765   4.005 -0.3268  0.3849 -0.5239
 4215SOL    HW118481  10.303   1.829   3.989 -0.0252  1.7688  2.8347
 4215SOL    HW218482  10.453   1.813   3.987 -0.0023 -1.3944 -5.0109
 4216SOL     OW18483   1.567   6.553   9.025 -0.7224  0.2734  0.0837
 4216SOL    HW118484   1.639   6.494   9.046  0.0083  0.7814 -0.8918
 4216SOL    HW218485   1.594   6.638   9.060 -1.0671  0.3578  0.1475
 4217SOL     OW18486   5.520   6.617   5.321 -0.3798 -0.1279 -0.1662
 4217SOL    HW118487   5.488   6.700   5.355  0.8759  0.2046  0.2668
 4217SOL    HW218488   5.483   6.551   5.380 -0.2787  0.2459  0.3275
 4218SOL     OW18489   5.059   1.433   5.973  0.4033  0.0757 -0.3474
 4218SOL    HW118490   4.977   1.477   5.992  0.6289  0.6367 -0.6551
 4218SOL    HW218491   5.120   1.504   5.950  1.3415 -0.2004  1.1617
 4219SOL     OW18492   5.147   1.482   1.928 -0.4769  0.1918  0.2028
 4219SOL    HW118493   5.233   1.483   1.887 -0.4277  0.4086  0.3074
 4219SOL    HW218494   5.154   1.547   1.998 -0.5019 -0.2965  0.6650
 4220SOL     OW18495   1.624   9.153   4.897 -0.0362 -0.0678  0.4313
 4220SOL    HW118496   1.662   9.079   4.944 -1.4226  0.4301  2.4849
 4220SOL    HW218497   1.692   9.220   4.897  1.0662 -1.1323 -1.0576
 4221SOL     OW18498   6.143   2.588   3.860 -0.6678  0.2774  0.3423
 4221SOL    HW118499   6.147   2.513   3.919  1.7830 -0.7911 -1.0233
 4221SOL    HW218500   6.077   2.564   3.795 -1.0159  0.0111  0.7894
 4222SOL     OW18501   5.773   9.352   3.229  0.3549 -0.0575 -0.3012
 4222SOL    HW118502   5.814   9.273   3.194  0.8412  0.7605 -1.6219
 4222SOL    HW218503   5.724   9.321   3.306  0.7247 -1.5968 -0.6514
 4223SOL     OW18504   0.669   8.491   6.090  0.2722  0.4287  0.3252
 4223SOL    HW118505   0.672   8.433   6.013 -1.1851  0.8328 -0.0646
 4223SOL    HW218506   0.579   8.483   6.122  0.0360  2.4582  0.2690
 4224SOL     OW18507   3.658   1.813   9.495 -0.3881  0.1131 -0.6737
 4224SOL    HW118508   3.751   1.829   9.506 -0.3531 -0.0376 -0.7596
 4224SOL    HW218509   3.642   1.731   9.541 -1.0355  1.6101  2.0125
 4225SOL     OW18510   0.251  10.156   9.352  0.0518  0.0806  0.0216
 4225SOL    HW118511   0.228  10.065   9.334  1.2953 -0.0831 -0.8451
 4225SOL    HW218512   0.231  10.167   9.445 -0.8665 -0.8330 -0.0429
 4226SOL     OW18513   6.791   0.539   8.402  0.7885  0.3939 -0.3673
 4226SOL    HW118514   6.759   0.615   8.354  0.7870  0.1915 -0.6925
 4226SOL    HW218515   6.743   0.465   8.364 -0.8778  0.4725  1.4635
 4227SOL     OW18516   8.939   8.987   5.050  0.6165 -0.1485 -0.4348
 4227SOL    HW118517   8.978   9.054   5.106 -0.6479  1.3017 -1.2138
 4227SOL    HW218518   8.889   9.036   4.985 -1.7514 -1.8732 -0.0516
 4228SOL     OW18519   1.523   7.690   0.105 -0.4957  0.9419 -0.2167
 4228SOL    HW118520   1.610   7.655   0.087 -0.2765  1.1504  0.4050
 4228SOL    HW218521   1.488   7.712   0.019  0.3455  1.5174 -0.4281
 4229SOL     OW18522   9.496   4.671   7.732 -0.3035 -0.0860  0.3189
 4229SOL    HW118523   9.414   4.650   7.688 -0.4855 -1.6232  1.3087
 4229SOL    HW218524   9.542   4.587   7.739  1.6574  0.8123 -0.7447
 4230SOL     OW18525  10.345  10.527   5.998 -0.1735  0.4156 -0.0881
 4230SOL    HW118526  10.281  10.557   5.933  0.2593  0.8939 -0.2988
 4230SOL    HW218527  10.357  10.434   5.978  0.3792  0.6806 -1.0690
 4231SOL     OW18528   5.060   3.204   9.825  0.2096 -0.0076 -0.1437
 4231SOL    HW118529   5.002   3.238   9.757 -0.9006 -0.5143  0.5204
 4231SOL    HW218530   5.075   3.279   9.883  1.7690  0.6370 -1.2979
 4232SOL     OW18531   7.861   6.115  10.550 -0.2734  0.2597  0.4601
 4232SOL    HW118532   7.798   6.184  10.529 -0.2695 -0.5151 -2.6335
 4232SOL    HW218533   7.946   6.158  10.541 -0.2896  0.1049 -0.5064
 4233SOL     OW18534   5.751   5.304   3.111 -0.0306 -0.1790 -0.0331
 4233SOL    HW118535   5.711   5.220   3.137 -0.5302  0.3221  0.9046
 4233SOL    HW218536   5.794   5.335   3.191 -1.4412  1.3295  0.1879
 4234SOL     OW18537   1.660   5.918   5.726  0.4216  0.3835  0.2261
 4234SOL    HW118538   1.640   5.866   5.648  0.1766  1.2822 -0.3351
 4234SOL    HW218539   1.737   5.876   5.764  0.9628  0.3043 -0.8874
 4235SOL     OW18540   7.851   1.773   4.922  0.3043 -0.4812 -0.2762
 4235SOL    HW118541   7.795   1.788   4.845 -1.0900 -0.4926  0.6992
 4235SOL    HW218542   7.838   1.681   4.942 -1.5092  0.0909  1.5491
 4236SOL     OW18543   5.459   8.268   1.665 -0.6716 -0.1258 -0.0842
 4236SOL    HW118544   5.401   8.262   1.741 -0.3401  0.2732  0.2045
 4236SOL    HW218545   5.538   8.310   1.698 -0.3250 -0.4036 -0.5403
 4237SOL     OW18546   2.009   1.208   2.214  0.1953 -0.3780  0.1108
 4237SOL    HW118547   2.069   1.141   2.247  1.1806  0.6364  0.4480
 4237SOL    HW218548   1.951   1.161   2.154  1.0601 -1.4669  0.1016
 4238SOL     OW18549  10.012   2.514   9.442 -0.2623 -0.8793  0.0632
 4238SOL    HW118550   9.960   2.440   9.475 -0.3670 -0.5566  0.6386
 4238SOL    HW218551   9.969   2.592   9.477 -0.2771 -0.5247 -0.7172
 4239SOL     OW18552   0.489   3.418   4.100  0.4670 -0.1434  0.2610
 4239SOL    HW118553   0.398   3.405   4.075  0.4855 -0.8120  0.5396
 4239SOL    HW218554   0.488   3.498   4.153 -0.1039 -0.6816  1.0776
 4240SOL     OW18555   6.772   0.356   2.215 -0.0908  0.3777 -0.0457
 4240SOL    HW118556   6.867   0.345   2.221 -0.2841 -0.7252  1.9741
 4240SOL    HW218557   6.757   0.448   2.234  0.6922  1.3038 -3.2857
 4241SOL     OW18558   2.500   0.870   3.068  0.5904  0.4745 -0.2504
 4241SOL    HW118559   2.449   0.885   3.148  0.5311 -0.8264 -0.0173
 4241SOL    HW218560   2.448   0.807   3.018  1.2070  0.3542 -0.7499
 4242SOL     OW18561  10.274   4.554   2.791 -0.7557 -0.3047  0.0253
 4242SOL    HW118562  10.189   4.593   2.770 -0.7393 -0.1579  0.2353
 4242SOL    HW218563  10.335   4.599   2.733 -0.6117  0.5591  0.8332
 4243SOL     OW18564   2.718   7.060   0.338  0.2998  0.7265  0.4129
 4243SOL    HW118565   2.623   7.057   0.343  0.3602  0.6108  1.8493
 4243SOL    HW218566   2.745   7.107   0.417  1.4479  0.4480  0.2089
 4244SOL     OW18567   2.580   9.461   4.123 -0.4388  0.0021  0.0375
 4244SOL    HW118568   2.549   9.524   4.188 -3.1310 -2.0700  0.9574
 4244SOL    HW218569   2.502   9.438   4.073  0.6396 -1.7951 -0.9273
 4245SOL     OW18570   8.122   5.878  10.656  0.0481 -0.0900 -0.2265
 4245SOL    HW118571   8.203   5.929  10.659 -0.5332  0.7986  1.6364
 4245SOL    HW218572   8.072   5.907  10.732 -1.2373 -1.9411 -0.2957
 4246SOL     OW18573   7.887   6.587  10.884  0.3775  0.1816  0.3590
 4246SOL    HW118574   7.812   6.643  10.861 -0.6101 -0.8027  1.0710
 4246SOL    HW218575   7.864   6.550  10.969  1.4593 -0.5331  0.3559
 4247SOL     OW18576   9.462   0.599   8.298 -0.4892 -0.4763 -0.0401
 4247SOL    HW118577   9.408   0.553   8.362  0.3191 -1.5498 -0.1116
 4247SOL    HW218578   9.510   0.664   8.350 -0.3965 -0.8327  0.3266
 4248SOL     OW18579   6.985   6.654   8.556  0.4286 -0.4414  0.1682
 4248SOL    HW118580   7.033   6.736   8.558  0.2403 -0.3392  0.7511
 4248SOL    HW218581   6.994   6.623   8.466 -1.2845  1.2619 -0.6423
 4249SOL     OW18582   5.595   7.124   5.859 -0.2723 -0.0050  0.3821
 4249SOL    HW118583   5.670   7.119   5.917 -1.3167  0.7783  1.8706
 4249SOL    HW218584   5.584   7.217   5.840 -1.5894  0.0468  1.2308
 4250SOL     OW18585   0.944   1.768   5.056 -0.4669 -0.0522  0.3456
 4250SOL    HW118586   0.857   1.780   5.094 -0.4324 -0.3242  0.5153
 4250SOL    HW218587   0.992   1.846   5.082 -1.4814  1.4910 -2.1341
 4251SOL     OW18588   3.000   6.365   3.246  0.2274  0.2185  0.4654
 4251SOL    HW118589   2.943   6.427   3.291 -0.8991  0.0109 -0.6223
 4251SOL    HW218590   3.070   6.347   3.309 -1.4713 -0.3733  2.3195
 4252SOL     OW18591   8.344   1.997   8.795  0.1133  0.5355 -0.1645
 4252SOL    HW118592   8.404   2.007   8.721 -0.1110  1.6170 -0.2133
 4252SOL    HW218593   8.392   2.032   8.869 -0.5409  1.6943 -0.2578
 4253SOL     OW18594   0.584  10.288   1.983 -0.4558  0.4440  0.0952
 4253SOL    HW118595   0.595  10.349   2.056 -0.5938  1.9339 -1.0817
 4253SOL    HW218596   0.647  10.218   2.000 -1.5667 -0.1014  2.4505
 4254SOL     OW18597   1.442   8.556  10.474 -0.3388  0.0372  0.2596
 4254SOL    HW118598   1.383   8.622  10.437 -1.0359 -0.1873  0.9411
 4254SOL    HW218599   1.385   8.480  10.490  0.7193 -1.3056 -1.8998
 4255SOL     OW18600   1.169   5.917  10.778  0.1270  0.6756  0.1531
 4255SOL    HW118601   1.218   5.999  10.766  0.8475  0.3820  1.0413
 4255SOL    HW218602   1.088   5.944  10.820 -0.7408  1.2276 -1.7436
 4256SOL     OW18603   1.846   9.169   5.099 -0.3098 -0.2528 -0.4509
 4256SOL    HW118604   1.927   9.138   5.058 -0.2409  0.9616 -1.2863
 4256SOL    HW218605   1.875   9.212   5.180 -0.1708 -0.3160 -0.4668
 4257SOL     OW18606  10.247   6.961   2.946  0.0629 -0.1740  0.1593
 4257SOL    HW118607  10.174   6.901   2.930  1.4002 -2.1393  1.0421
 4257SOL    HW218608  10.235   7.032   2.883 -2.8440 -0.1612  0.6027
 4258SOL     OW18609   0.283   8.671   1.805  0.6605 -0.2696  0.6069
 4258SOL    HW118610   0.304   8.729   1.732  1.7054 -0.2950  0.8715
 4258SOL    HW218611   0.357   8.681   1.866  0.5835 -1.4572  0.9132
 4259SOL     OW18612   4.286   7.119   0.121  0.3338 -0.2474  0.4474
 4259SOL    HW118613   4.276   7.189   0.057 -1.6542 -0.1633  0.7831
 4259SOL    HW218614   4.374   7.132   0.157  0.9082  0.6138 -1.1587
 4260SOL     OW18615  10.254   8.015   6.629 -0.0934  0.0487  0.9200
 4260SOL    HW118616  10.247   7.922   6.648 -0.2637 -0.0422  0.4201
 4260SOL    HW218617  10.175   8.035   6.578  0.0703  0.4067  0.8059
 4261SOL     OW18618   6.027   6.772   0.999  0.0542 -0.3246  0.1388
 4261SOL    HW118619   6.097   6.755   0.936 -0.6959 -1.2547 -0.4642
 4261SOL    HW218620   6.059   6.735   1.081  0.2188 -0.8706 -0.1678
 4262SOL     OW18621   0.826   8.935   9.597  0.6328  0.1760  0.9069
 4262SOL    HW118622   0.904   8.895   9.635  0.8659  0.4509  0.7204
 4262SOL    HW218623   0.840   9.029   9.607  0.9916  0.2859 -0.4395
 4263SOL     OW18624   8.422   6.405   4.190 -0.3004 -0.4008 -0.4720
 4263SOL    HW118625   8.368   6.379   4.265  1.5815 -2.8031  0.1563
 4263SOL    HW218626   8.440   6.498   4.205 -0.6197 -0.6299  1.6297
 4264SOL     OW18627   8.815   4.556   6.674 -0.0122  0.2385  0.2131
 4264SOL    HW118628   8.896   4.602   6.694 -0.0629 -0.6088  2.7647
 4264SOL    HW218629   8.841   4.486   6.613  0.5624  1.7847 -1.3849
 4265SOL     OW18630   1.175   1.213  10.698 -0.2321 -0.2656  0.0849
 4265SOL    HW118631   1.100   1.185  10.751 -1.2132  2.8449  0.5621
 4265SOL    HW218632   1.138   1.231  10.612 -0.0345  0.9975  0.2404
 4266SOL     OW18633   8.547   7.157   6.384  0.6131  0.1389 -0.5393
 4266SOL    HW118634   8.578   7.120   6.302  1.3354 -0.5026  0.0065
 4266SOL    HW218635   8.489   7.229   6.358  1.3331  0.3592 -1.6018
 4267SOL     OW18636   4.262   7.843   5.539  0.2591  0.6499 -0.0907
 4267SOL    HW118637   4.225   7.812   5.622 -0.4199 -1.1567 -1.0052
 4267SOL    HW218638   4.356   7.827   5.548  0.2591  0.9537  0.5145
 4268SOL     OW18639   0.661   7.531   4.310 -0.4228  0.4806  0.2227
 4268SOL    HW118640   0.653   7.543   4.215 -0.9223 -0.7003  0.0995
 4268SOL    HW218641   0.723   7.598   4.337 -1.0533  1.5089 -0.7851
 4269SOL     OW18642   9.704   6.309   8.090 -0.3275  0.1385  0.0440
 4269SOL    HW118643   9.753   6.376   8.136  0.2954 -0.4823  0.3023
 4269SOL    HW218644   9.770   6.247   8.060 -0.6488  0.7447 -2.0929
 4270SOL     OW18645   7.185   9.906   8.345 -0.2109  0.0174  0.1087
 4270SOL    HW118646   7.112   9.902   8.406  0.2408 -1.0120  0.5963
 4270SOL    HW218647   7.223   9.993   8.359  0.5365 -0.5902  2.0873
 4271SOL     OW18648   5.568   1.708   3.296 -0.7590  0.4125  1.1186
 4271SOL    HW118649   5.573   1.715   3.201 -1.4579  1.6913  1.1498
 4271SOL    HW218650   5.586   1.616   3.315  0.2564  0.3290 -0.1750
 4272SOL     OW18651  10.745   7.389   2.606 -0.1555 -0.1368  0.3597
 4272SOL    HW118652  10.655   7.421   2.604 -0.1426 -0.1200 -0.3739
 4272SOL    HW218653  10.773   7.392   2.514 -0.0040 -1.8440  0.3225
 4273SOL     OW18654  10.234   5.660   0.030 -0.1264  0.5378 -0.1777
 4273SOL    HW118655  10.205   5.631  -0.056  0.0754  0.5258 -0.2420
 4273SOL    HW218656  10.154   5.660   0.083 -0.2200  0.3690 -0.3158
 4274SOL     OW18657   9.873   5.836   0.404 -0.0579 -0.2574  0.4913
 4274SOL    HW118658   9.860   5.894   0.479 -0.0835 -0.9203  1.0217
 4274SOL    HW218659   9.791   5.843   0.354  0.4230  1.1010 -0.1468
 4275SOL     OW18660   0.062   0.364  10.454 -0.3295 -0.2110  0.0320
 4275SOL    HW118661   0.132   0.326  10.401  2.3736  1.4480  2.1375
 4275SOL    HW218662   0.075   0.459  10.445  0.1919  0.1622  3.3685
 4276SOL     OW18663   5.741   3.483   2.075  0.3212  0.4930 -0.3447
 4276SOL    HW118664   5.781   3.558   2.119  1.8929  1.0821 -2.6430
 4276SOL    HW218665   5.815   3.425   2.055 -0.7407 -1.2055  0.4254
 4277SOL     OW18666   3.116   6.769   9.767  0.2149  0.1665  0.6976
 4277SOL    HW118667   3.053   6.700   9.787 -0.2252  0.6434  1.0038
 4277SOL    HW218668   3.193   6.748   9.820 -0.0780  0.1380  1.1224
 4278SOL     OW18669   8.224   6.593   8.687 -0.0266  0.7535 -0.6459
 4278SOL    HW118670   8.176   6.634   8.759 -2.0847 -1.7117 -0.4672
 4278SOL    HW218671   8.313   6.579   8.722 -1.0929 -0.8625  1.7463
 4279SOL     OW18672   5.341   6.893   9.497  0.2146  0.1845  0.4982
 4279SOL    HW118673   5.390   6.829   9.445 -0.1869 -1.6847  2.2728
 4279SOL    HW218674   5.261   6.908   9.446  0.4474 -0.4975 -0.0886
 4280SOL     OW18675   6.268   7.177   4.419  0.6521  0.3035 -0.1258
 4280SOL    HW118676   6.345   7.126   4.392 -0.8078 -1.0955 -1.8779
 4280SOL    HW218677   6.304   7.244   4.478  3.3515  0.3143 -1.6006
 4281SOL     OW18678   4.614   7.803   4.727  0.5634 -0.0923 -0.0041
 4281SOL    HW118679   4.598   7.810   4.633  1.7522  1.7118 -0.1297
 4281SOL    HW218680   4.554   7.865   4.767  0.7719 -0.1051  0.3376
 4282SOL     OW18681   8.965   0.217   6.026  0.1126  0.0935  0.0664
 4282SOL    HW118682   8.996   0.141   6.075  2.3045  1.3440  0.8076
 4282SOL    HW218683   8.978   0.194   5.934 -0.5530 -0.9240  0.2205
 4283SOL     OW18684   0.413   0.650   1.027  0.2568 -0.2142  0.3203
 4283SOL    HW118685   0.454   0.564   1.031 -0.6177 -0.8597 -2.3081
 4283SOL    HW218686   0.328   0.638   1.071  0.3157 -0.5797  0.3358
 4284SOL     OW18687   1.225   7.182   8.169  0.4549  0.0985  0.2597
 4284SOL    HW118688   1.256   7.108   8.117  0.5936  1.1959 -1.3080
 4284SOL    HW218689   1.301   7.211   8.218  0.4916 -0.5636  0.6014
 4285SOL     OW18690   0.076   8.787   3.733 -0.1819 -0.5236  0.1290
 4285SOL    HW118691   0.128   8.760   3.657  0.9369  1.0274  0.3048
 4285SOL    HW218692  -0.013   8.798   3.700  0.2672  0.0027 -0.9337
 4286SOL     OW18693   2.728   9.749   1.553 -0.3461 -0.1678 -0.0141
 4286SOL    HW118694   2.769   9.835   1.545  0.3216 -0.5446 -1.0249
 4286SOL    HW218695   2.651   9.753   1.496  0.3857 -0.6053 -1.0773
 4287SOL     OW18696  10.017   4.605   3.826  0.2617  0.1292  0.3533
 4287SOL    HW118697   9.940   4.553   3.851 -0.0156 -0.1444 -1.0055
 4287SOL    HW218698  10.090   4.563   3.871 -0.2829  0.0145  1.1608
 4288SOL     OW18699   6.290   8.403   9.499 -0.1818 -0.3152  0.3300
 4288SOL    HW118700   6.348   8.342   9.545  1.2834  1.1549  0.5005
 4288SOL    HW218701   6.300   8.380   9.406 -0.4444 -0.9912  0.4605
 4289SOL     OW18702   6.290   5.408   6.781  0.6126 -0.1471  0.2509
 4289SOL    HW118703   6.283   5.468   6.706  1.7246 -1.6397 -1.0922
 4289SOL    HW218704   6.341   5.457   6.846  2.4518  0.0044 -1.2486
 4290SOL     OW18705   5.231   8.927   7.473 -0.2304  0.1229 -0.4399
 4290SOL    HW118706   5.221   8.858   7.407 -0.6644  0.6933 -0.9765
 4290SOL    HW218707   5.249   8.879   7.555  2.8146 -0.5335 -1.3693
 4291SOL     OW18708   3.106   8.063   0.534 -0.3835 -0.1941 -0.7345
 4291SOL    HW118709   3.091   7.973   0.563 -0.2133 -0.2667 -0.8765
 4291SOL    HW218710   3.198   8.066   0.509 -0.1724  0.2360  0.0525
 4292SOL     OW18711   9.203   7.905   6.781 -0.1100 -0.1897 -0.4579
 4292SOL    HW118712   9.177   7.874   6.867  1.1010 -2.8053 -0.9138
 4292SOL    HW218713   9.145   7.978   6.762 -1.4037 -0.5170  1.9229
 4293SOL     OW18714   5.533  10.280   0.077  0.3195  0.0191  0.4265
 4293SOL    HW118715   5.575  10.331   0.146 -1.0265  1.4013  0.2832
 4293SOL    HW218716   5.602  10.265   0.013  1.4000 -0.6281  1.6817
 4294SOL     OW18717   1.659   4.802   9.092 -0.2692 -0.6598  0.1477
 4294SOL    HW118718   1.685   4.837   9.177 -0.5430 -0.7833  0.2834
 4294SOL    HW218719   1.741   4.771   9.052 -0.2995 -1.7601  0.8968
 4295SOL     OW18720   5.618   5.609   5.151 -0.4590 -0.3492 -0.1472
 4295SOL    HW118721   5.697   5.615   5.098  1.9199  0.9312  3.1976
 4295SOL    HW218722   5.595   5.516   5.150  2.4286 -1.1661  0.4418
 4296SOL     OW18723   4.180   7.602  10.773 -0.4656 -0.0704 -0.7177
 4296SOL    HW118724   4.148   7.667  10.711 -0.1545  1.8455  1.0133
 4296SOL    HW218725   4.115   7.601  10.843  0.4120 -0.3161  0.1200
 4297SOL     OW18726   1.943   3.424   8.652 -0.2768  0.5203  0.2165
 4297SOL    HW118727   1.886   3.476   8.595  0.0393  1.6108  0.8721
 4297SOL    HW218728   1.924   3.455   8.740  0.9616  0.5463  0.4943
 4298SOL     OW18729   6.495   4.139   5.346  0.7398  0.2329 -0.1649
 4298SOL    HW118730   6.485   4.199   5.273  1.9037 -0.9465 -1.3468
 4298SOL    HW218731   6.589   4.129   5.356  0.6262  0.7908  1.8873
 4299SOL     OW18732   5.226   6.906   6.496 -0.9908 -0.1626 -0.1412
 4299SOL    HW118733   5.228   6.815   6.467 -0.5887 -0.1226 -0.2493
 4299SOL    HW218734   5.295   6.949   6.445  0.2059 -0.2421  1.3510
 4300SOL     OW18735  10.736   5.259   4.142  0.9014  0.6238 -0.1434
 4300SOL    HW118736  10.798   5.279   4.072 -0.9693  1.5867 -1.5945
 4300SOL    HW218737  10.695   5.177   4.115 -0.0685  1.1741 -0.3495
 4301SOL     OW18738   5.319   9.095   0.321 -0.1619 -0.3318 -0.2145
 4301SOL    HW118739   5.285   9.058   0.239  1.3181  1.4802 -1.7380
 4301SOL    HW218740   5.404   9.131   0.297  0.7826 -0.6557  2.4125
 4302SOL     OW18741   8.517   2.604   6.130 -0.8657  0.1594  0.0765
 4302SOL    HW118742   8.453   2.645   6.072  0.6020  0.6986 -1.1991
 4302SOL    HW218743   8.493   2.635   6.217 -1.0950  2.0138 -0.6065
 4303SOL     OW18744   2.406   1.366   1.305 -0.4260  0.1566  0.1288
 4303SOL    HW118745   2.423   1.448   1.259 -3.3247  1.2089  0.6959
 4303SOL    HW218746   2.320   1.337   1.272 -1.0414 -0.8232  2.3744
 4304SOL     OW18747   5.559   3.753   1.963 -0.1422 -0.0615  0.3933
 4304SOL    HW118748   5.586   3.790   2.047 -0.1967 -1.7796  1.2014
 4304SOL    HW218749   5.638   3.754   1.910  0.4679 -0.9801  1.2392
 4305SOL     OW18750   7.729  10.492   8.321  0.1318  0.4767 -0.2446
 4305SOL    HW118751   7.777  10.453   8.247  1.0504 -0.7238  0.9238
 4305SOL    HW218752   7.638  10.490   8.294  0.4457  0.0607 -1.3447
 4306SOL     OW18753   3.497   4.613   8.866  0.0753 -0.1289  0.0563
 4306SOL    HW118754   3.492   4.521   8.892  2.7536 -0.3784 -0.0669
 4306SOL    HW218755   3.411   4.632   8.828 -0.5195 -2.5942  0.0167
 4307SOL     OW18756   2.452   4.592  10.810  0.7154  0.3294  0.6629
 4307SOL    HW118757   2.464   4.531  10.737 -0.1201  0.2141  0.6053
 4307SOL    HW218758   2.379   4.555  10.860  2.2309 -0.3826  2.4147
 4308SOL     OW18759   8.556   3.251   7.386  0.6507 -0.5974 -1.0111
 4308SOL    HW118760   8.624   3.185   7.401  3.6525  2.6596  1.2552
 4308SOL    HW218761   8.604   3.327   7.354 -1.9858  1.7931  0.3938
 4309SOL     OW18762   1.910   0.389   0.060 -0.1012 -0.4516 -0.2308
 4309SOL    HW118763   1.905   0.474   0.017 -1.4384  0.3960  1.4520
 4309SOL    HW218764   1.996   0.355   0.038  0.6251  1.5335 -0.6233
 4310SOL     OW18765   9.407   6.770   2.734 -0.0277 -0.5965  0.3918
 4310SOL    HW118766   9.418   6.677   2.755 -1.8122 -1.2891 -1.4617
 4310SOL    HW218767   9.415   6.775   2.639 -0.8855  1.0028  0.3598
 4311SOL     OW18768   3.568   3.282   4.434  0.3465  0.5625  0.2003
 4311SOL    HW118769   3.550   3.286   4.528 -0.4081 -0.4919  0.1188
 4311SOL    HW218770   3.482   3.284   4.392  0.5747 -0.6751 -0.3861
 4312SOL     OW18771   1.836   3.247   7.497  0.0186 -0.0830 -0.5718
 4312SOL    HW118772   1.757   3.225   7.547  0.5001 -0.1410  0.1744
 4312SOL    HW218773   1.805   3.257   7.407 -0.6026 -1.6295 -0.5717
 4313SOL     OW18774   6.604   6.471   4.507 -0.1117  0.1266  0.0404
 4313SOL    HW118775   6.626   6.446   4.418 -0.7041 -1.6744  0.3700
 4313SOL    HW218776   6.510   6.487   4.506 -0.3436 -1.1330  0.5998
 4314SOL     OW18777   6.263   4.531   3.185  0.1668  0.3783 -0.0263
 4314SOL    HW118778   6.264   4.592   3.259  0.4759  2.5720 -1.7294
 4314SOL    HW218779   6.204   4.460   3.213  0.2330  1.1454  2.2659
 4315SOL     OW18780   8.111   6.757   9.206 -0.0367  1.0124  0.2983
 4315SOL    HW118781   8.030   6.779   9.159 -0.8684  0.9212  1.6450
 4315SOL    HW218782   8.081   6.718   9.288  1.3661  2.3968  1.5124
 4316SOL     OW18783   1.101   6.942   5.969  0.1665 -0.0325 -0.1130
 4316SOL    HW118784   1.134   6.866   6.017 -0.8599 -0.5967 -0.2612
 4316SOL    HW218785   1.065   6.904   5.888  3.6366  1.0526 -2.3879
 4317SOL     OW18786   9.247   8.258   5.588  0.3615 -0.2272 -0.2745
 4317SOL    HW118787   9.180   8.190   5.597 -0.6891  0.8489  0.3965
 4317SOL    HW218788   9.207   8.323   5.530  0.5984  0.6869  0.5550
 4318SOL     OW18789   3.206   5.245   2.060 -0.4134 -0.0557  0.1628
 4318SOL    HW118790   3.225   5.210   2.147 -1.1061 -0.3250  0.2072
 4318SOL    HW218791   3.286   5.228   2.010 -0.2499 -0.4785  0.5621
 4319SOL     OW18792   1.231   8.038  10.787 -0.1827 -0.1331 -0.0349
 4319SOL    HW118793   1.208   7.961  10.840 -0.1767  0.0269  0.2043
 4319SOL    HW218794   1.303   8.008  10.731  0.9443  0.1399  1.2086
 4320SOL     OW18795   3.273   0.656   4.598  0.7386  0.1149 -0.2531
 4320SOL    HW118796   3.334   0.709   4.650  0.9607  0.1402 -0.5342
 4320SOL    HW218797   3.278   0.569   4.636  0.0903  0.3773  0.4515
 4321SOL     OW18798   4.318   7.420   6.028  0.1753 -0.0743 -0.4258
 4321SOL    HW118799   4.331   7.494   6.088 -0.5114 -0.2313 -0.0730
 4321SOL    HW218800   4.405   7.402   5.993  0.5642  0.1043  0.4248
 4322SOL     OW18801   8.706   8.159   5.289 -0.2806  0.6111 -0.0814
 4322SOL    HW118802   8.675   8.120   5.371 -1.0700 -0.5081 -0.8924
 4322SOL    HW218803   8.799   8.138   5.287 -0.9212 -2.6323 -1.1787
 4323SOL     OW18804   3.677   5.915  10.120  0.0162  0.5179  0.2975
 4323SOL    HW118805   3.736   5.987  10.140  0.1012  0.6177 -0.2950
 4323SOL    HW218806   3.591   5.957  10.110 -0.0664  0.4390  0.6655
 4324SOL     OW18807   0.631   8.706   8.231 -0.3727 -0.0029 -0.2198
 4324SOL    HW118808   0.596   8.691   8.318  0.4994 -0.3025  0.0792
 4324SOL    HW218809   0.557   8.743   8.182  0.1494  4.2174  1.7515
 4325SOL     OW18810   2.055   7.212   8.776 -0.8698 -0.2909 -0.3297
 4325SOL    HW118811   2.096   7.291   8.739 -1.6102  0.0064 -0.5163
 4325SOL    HW218812   2.018   7.166   8.700 -2.7697  0.5357  0.0539
 4326SOL     OW18813   2.791   1.457   0.746 -0.4407  0.2518 -0.1917
 4326SOL    HW118814   2.764   1.441   0.837 -2.7711 -0.7516 -0.9754
 4326SOL    HW218815   2.876   1.414   0.739 -0.5905 -0.3589  1.3152
 4327SOL     OW18816   4.091   4.257   7.935  0.1901  0.3176  0.0340
 4327SOL    HW118817   4.062   4.223   7.850  0.1121  0.3943  0.0297
 4327SOL    HW218818   4.017   4.308   7.967 -0.3407 -0.9017  0.8176
 4328SOL     OW18819   8.804   8.620   9.836 -0.5850  0.3113  0.0219
 4328SOL    HW118820   8.711   8.642   9.833 -1.5116 -3.2130 -1.3523
 4328SOL    HW218821   8.837   8.644   9.750 -0.3596  0.8707  0.2570
 4329SOL     OW18822   8.632   9.800  10.535  0.2993 -0.6013  0.0206
 4329SOL    HW118823   8.570   9.772  10.602 -1.5874 -1.3180 -1.9069
 4329SOL    HW218824   8.580   9.857  10.478  1.1847 -1.7893 -2.0632
 4330SOL     OW18825   4.638   7.809   7.665 -0.1873  0.0476  0.3155
 4330SOL    HW118826   4.651   7.815   7.570 -2.7353  1.1270 -0.0431
 4330SOL    HW218827   4.545   7.788   7.675  0.0450 -0.1289  2.5989
 4331SOL     OW18828   7.009   4.408   6.276  0.3871  0.2232 -0.3380
 4331SOL    HW118829   7.035   4.415   6.368  0.4449 -1.5340 -0.1805
 4331SOL    HW218830   7.040   4.321   6.250 -0.9045  0.1203 -1.6069
 4332SOL     OW18831   8.294   6.612   6.470 -0.3800 -0.1640 -0.7593
 4332SOL    HW118832   8.338   6.664   6.537  0.7887 -0.7174 -1.0782
 4332SOL    HW218833   8.201   6.621   6.491 -0.0913  0.4027  0.3951
 4333SOL     OW18834   8.338   9.734   0.968 -0.1491  0.7307 -0.4778
 4333SOL    HW118835   8.269   9.719   1.033 -0.3093 -0.1353 -0.8393
 4333SOL    HW218836   8.413   9.684   1.000  0.2088  1.4016 -0.2590
 4334SOL     OW18837   6.590   9.421  10.146  0.0035 -0.5048  0.8938
 4334SOL    HW118838   6.567   9.385  10.232  0.0304 -0.2333  1.0166
 4334SOL    HW218839   6.624   9.509  10.165  0.2816 -0.5556  0.6300
 4335SOL     OW18840   5.117   7.839   1.837 -0.1985  0.3251 -0.1808
 4335SOL    HW118841   5.031   7.805   1.813  0.6367 -1.2924 -1.0376
 4335SOL    HW218842   5.125   7.921   1.789 -0.2607 -0.7783 -2.1646
 4336SOL     OW18843   3.760  10.863   5.137 -0.6071  0.2891 -0.0550
 4336SOL    HW118844   3.786  10.892   5.224 -0.2969 -0.9857  0.2960
 4336SOL    HW218845   3.670  10.833   5.148 -0.1122 -1.1783  0.1634
 4337SOL     OW18846   3.320   9.008   3.220  0.7093  0.3918  0.6030
 4337SOL    HW118847   3.229   9.018   3.190  1.5955  0.8750 -2.2327
 4337SOL    HW218848   3.368   9.076   3.173  3.2211 -2.4924 -1.3866
 4338SOL     OW18849   4.660   3.698   0.335  0.2150 -0.6496  0.1572
 4338SOL    HW118850   4.681   3.788   0.309  1.1581 -0.7359  0.5711
 4338SOL    HW218851   4.621   3.707   0.422  0.4719 -0.6459  0.2744
 4339SOL     OW18852   4.382   0.108   8.599 -0.0165 -0.2958  0.1741
 4339SOL    HW118853   4.406   0.017   8.581  0.7412  0.0309 -0.5739
 4339SOL    HW218854   4.294   0.118   8.562  0.1011 -0.5951 -0.1944
 4340SOL     OW18855   2.648   8.001   8.655 -0.3318 -0.1420  0.2071
 4340SOL    HW118856   2.718   7.957   8.606  0.6224  0.7125  0.7612
 4340SOL    HW218857   2.653   7.962   8.743  1.3566  1.8479  1.0820
 4341SOL     OW18858   5.753   5.250   0.978  0.3479 -0.3431 -0.1568
 4341SOL    HW118859   5.834   5.278   1.019  0.7528 -0.2544 -0.9877
 4341SOL    HW218860   5.738   5.315   0.909  0.7437 -1.5494 -1.4380
 4342SOL     OW18861   6.171   5.803   1.984  0.0814 -0.0312  0.3859
 4342SOL    HW118862   6.239   5.804   2.051 -0.0960  1.7669  0.5988
 4342SOL    HW218863   6.218   5.786   1.902  0.6423  0.1489  0.6681
 4343SOL     OW18864  10.911   6.820   0.956  0.1492 -0.2560  0.1105
 4343SOL    HW118865  10.891   6.771   1.036  0.3632  1.2395  1.1384
 4343SOL    HW218866  10.866   6.904   0.968 -0.3593 -0.2470 -1.6584
 4344SOL     OW18867   3.311   5.496   9.311 -0.4047  0.2383  0.0085
 4344SOL    HW118868   3.225   5.539   9.314 -0.0956  1.1116 -1.9719
 4344SOL    HW218869   3.364   5.545   9.374 -1.3113 -0.3030  1.2504
 4345SOL     OW18870   6.986   6.697   0.783 -0.0034  0.5536  0.2843
 4345SOL    HW118871   7.050   6.756   0.744  1.2010 -0.0314  1.3132
 4345SOL    HW218872   7.018   6.609   0.762 -0.4949  0.2506  0.7647
 4346SOL     OW18873  10.350   4.390   5.698 -0.3320 -0.3026 -0.0560
 4346SOL    HW118874  10.274   4.376   5.755  0.0546 -2.6884 -0.0090
 4346SOL    HW218875  10.424   4.354   5.747  0.5482  0.4175 -0.8126
 4347SOL     OW18876   6.932   7.099   5.769  0.3352  0.4733 -0.2129
 4347SOL    HW118877   6.854   7.147   5.796 -0.0619  0.0248 -0.5472
 4347SOL    HW218878   6.927   7.097   5.673  0.5770  0.1481 -0.2215
 4348SOL     OW18879   8.679   3.918   8.489 -0.8467 -0.2877 -0.3978
 4348SOL    HW118880   8.636   3.838   8.520 -0.9446  0.2130  0.8177
 4348SOL    HW218881   8.772   3.904   8.508 -0.6646 -0.6834 -1.5013
 4349SOL     OW18882   1.846   7.594   9.997  0.6114 -0.1530  0.2228
 4349SOL    HW118883   1.925   7.551  10.029  1.3015 -0.9179 -2.2799
 4349SOL    HW218884   1.779   7.526  10.000  1.2453 -0.9540 -1.9721
 4350SOL     OW18885   4.198  10.013   9.832 -0.2636  0.1564  0.2812
 4350SOL    HW118886   4.189  10.037   9.740 -0.5151 -2.4082 -0.4184
 4350SOL    HW218887   4.291   9.992   9.842 -0.7568 -2.5251 -0.2285
 4351SOL     OW18888   4.890   2.081   3.086 -0.6437 -0.2038 -1.1245
 4351SOL    HW118889   4.914   2.161   3.039 -0.2918  0.9913  0.9317
 4351SOL    HW218890   4.973   2.036   3.101 -0.4702  0.4480  0.0283
 4352SOL     OW18891   5.780   0.060   3.366 -0.5402 -0.0683  0.1764
 4352SOL    HW118892   5.743   0.095   3.284 -0.1943  2.3886  0.9660
 4352SOL    HW218893   5.791   0.138   3.421  1.5668 -1.3128  1.6407
 4353SOL     OW18894   8.987   8.207   9.302  0.0356 -0.1947  0.5320
 4353SOL    HW118895   9.056   8.149   9.335  0.8861  0.8389  0.6075
 4353SOL    HW218896   9.017   8.295   9.323 -0.2796  0.3966 -1.3459
 4354SOL     OW18897   3.237   7.508   3.344 -0.4825  0.1364  0.2800
 4354SOL    HW118898   3.229   7.413   3.350 -2.3378 -0.1544 -3.6541
 4354SOL    HW218899   3.329   7.525   3.364 -0.0390 -2.4679  0.8702
 4355SOL     OW18900   3.197   0.414   5.910  0.4155 -0.3660  0.3331
 4355SOL    HW118901   3.159   0.367   5.984  0.3228 -1.1469 -0.2067
 4355SOL    HW218902   3.122   0.455   5.867  0.1614 -1.8227 -0.6722
 4356SOL     OW18903   8.044   3.696   5.284  0.1844  0.1561 -0.3687
 4356SOL    HW118904   8.066   3.666   5.372  1.4680  1.1913 -0.3103
 4356SOL    HW218905   7.949   3.686   5.279  0.3416 -2.4434  0.1455
 4357SOL     OW18906   5.909   2.342  10.168  0.4608 -0.0069 -0.0406
 4357SOL    HW118907   5.953   2.399  10.231 -1.2050  1.4254 -0.0679
 4357SOL    HW218908   5.830   2.312  10.213  0.1358 -0.3877 -0.8329
 4358SOL     OW18909   2.572   2.131   3.987  0.1154 -0.1736 -0.1935
 4358SOL    HW118910   2.554   2.161   3.898 -0.3957  0.0355 -0.0233
 4358SOL    HW218911   2.627   2.054   3.976 -2.2741 -1.8723 -0.8095
 4359SOL     OW18912   5.342   9.116   9.716  0.0604 -0.4247  0.7043
 4359SOL    HW118913   5.348   9.021   9.709 -2.3367 -0.6619  1.0475
 4359SOL    HW218914   5.286   9.142   9.643 -0.3468  0.5720  1.3553
 4360SOL     OW18915  10.506   1.869   7.837 -0.2551 -0.3031  0.3081
 4360SOL    HW118916  10.416   1.883   7.864 -1.5106 -2.9463 -2.0279
 4360SOL    HW218917  10.529   1.783   7.872  0.7043 -0.4505 -0.6284
 4361SOL     OW18918   9.298   2.888   2.389  0.0041  0.3617 -0.3084
 4361SOL    HW118919   9.301   2.967   2.335 -2.2256  0.4189 -0.4222
 4361SOL    HW218920   9.348   2.911   2.468 -0.9421  2.0403 -0.1627
 4362SOL     OW18921  10.534   1.876   2.724 -0.2248  0.5122 -0.4275
 4362SOL    HW118922  10.487   1.796   2.702  0.2895 -0.0548  0.4585
 4362SOL    HW218923  10.584   1.898   2.645  0.2545 -0.4954 -0.4176
 4363SOL     OW18924   3.553   2.585  10.422 -0.2064 -0.3188  0.7110
 4363SOL    HW118925   3.637   2.556  10.458 -0.5899  0.1214  2.0136
 4363SOL    HW218926   3.533   2.666  10.469 -0.1740  0.9692 -1.3557
 4364SOL     OW18927   9.732   2.483   0.843 -0.3161  0.2338  0.0379
 4364SOL    HW118928   9.762   2.571   0.822  1.0272 -0.0611  0.5933
 4364SOL    HW218929   9.647   2.496   0.885 -0.1674  1.2643  0.0447
 4365SOL     OW18930   7.539   7.233   7.328  0.3308 -0.1446 -0.0994
 4365SOL    HW118931   7.450   7.269   7.326  0.1944 -0.4894 -0.6201
 4365SOL    HW218932   7.553   7.209   7.419 -0.1090 -0.0792 -0.0115
 4366SOL     OW18933   8.131   9.185   8.561 -0.4183  0.0317 -0.4884
 4366SOL    HW118934   8.113   9.219   8.473  0.4243 -3.2645 -2.1027
 4366SOL    HW218935   8.056   9.213   8.613 -2.1076  0.1981 -2.8440
 4367SOL     OW18936   0.424   7.394   0.396 -0.5087  0.6037  0.3206
 4367SOL    HW118937   0.457   7.348   0.319  2.0310  1.2889  0.9011
 4367SOL    HW218938   0.375   7.327   0.444  0.2848 -0.6052 -0.4845
 4368SOL     OW18939   5.110   6.092  10.901 -0.1071  0.1781  0.1352
 4368SOL    HW118940   5.089   6.058  10.988  0.9519 -0.6300  0.0929
 4368SOL    HW218941   5.187   6.042  10.873  1.0100  2.0227 -0.2928
 4369SOL     OW18942   4.226  10.467   2.810 -0.4455 -0.2055 -0.1524
 4369SOL    HW118943   4.297  10.446   2.750  1.1628 -0.3816  1.7122
 4369SOL    HW218944   4.177  10.537   2.766  0.9698  0.0373 -1.4212
 4370SOL     OW18945  10.830   4.459   6.824 -0.1574 -0.9817  0.3599
 4370SOL    HW118946  10.846   4.526   6.891 -0.7045 -2.1070  1.6711
 4370SOL    HW218947  10.751   4.489   6.779 -0.3832 -0.7250  0.9139
 4371SOL     OW18948   9.185   4.600   7.667 -0.5830 -0.4743 -0.1638
 4371SOL    HW118949   9.227   4.527   7.713 -2.8103 -1.1683  0.9402
 4371SOL    HW218950   9.102   4.564   7.635 -1.1416  1.2255 -0.7591
 4372SOL     OW18951   2.767   0.558   1.778  0.1231 -0.1413  0.1448
 4372SOL    HW118952   2.715   0.515   1.710 -1.0353  0.1718  0.8233
 4372SOL    HW218953   2.763   0.499   1.853  0.0977  0.2481  0.4544
 4373SOL     OW18954   2.017   6.127   9.972 -0.3916 -0.2452  0.1213
 4373SOL    HW118955   2.028   6.117  10.067 -0.1160  1.2056  0.2654
 4373SOL    HW218956   1.956   6.200   9.963 -2.8346 -2.2408 -0.8196
 4374SOL     OW18957   0.802   0.119   2.992 -0.5021  0.0492  0.1037
 4374SOL    HW118958   0.811   0.162   2.907  0.7648 -0.5232 -0.0741
 4374SOL    HW218959   0.852   0.037   2.983  0.8204  0.6033  1.7954
 4375SOL     OW18960   3.650   6.037   8.918  0.0371  0.1533 -0.2952
 4375SOL    HW118961   3.675   6.117   8.964 -2.0537  1.2279 -0.9197
 4375SOL    HW218962   3.722   5.976   8.937 -1.1719 -0.0995  5.6443
 4376SOL     OW18963   5.329  10.468   7.111 -0.1526 -0.6368  0.3376
 4376SOL    HW118964   5.258  10.532   7.107 -0.3283 -0.8612 -0.1814
 4376SOL    HW218965   5.348  10.460   7.205 -0.4746 -0.2078  0.4446
 4377SOL     OW18966   7.040   2.542   0.946  0.0334 -0.9157  1.1499
 4377SOL    HW118967   7.053   2.447   0.945  2.5532 -0.6387  0.6648
 4377SOL    HW218968   7.113   2.576   0.998 -1.1232  0.7517  1.7646
 4378SOL     OW18969   0.518   5.968   6.361  0.3953  0.3665 -0.0260
 4378SOL    HW118970   0.450   5.952   6.426 -0.2353 -1.8754 -1.1206
 4378SOL    HW218971   0.588   6.012   6.409 -0.1165 -1.0091  2.1298
 4379SOL     OW18972   0.982   9.831   0.083 -0.2478 -0.2030 -0.0484
 4379SOL    HW118973   0.939   9.912   0.111 -1.2349 -0.4796 -0.7242
 4379SOL    HW218974   1.072   9.840   0.116 -0.5771  0.7666  0.6543
 4380SOL     OW18975   7.164  10.037   6.923 -0.0149 -0.2365  0.0192
 4380SOL    HW118976   7.219  10.093   6.978  1.1795 -2.1438  0.8524
 4380SOL    HW218977   7.226   9.988   6.869 -1.1057  0.2716 -1.7711
 4381SOL     OW18978   5.811   9.017  10.480  0.3825  0.5727 -1.2097
 4381SOL    HW118979   5.863   8.983  10.407  0.2787 -1.2741 -0.4779
 4381SOL    HW218980   5.723   8.982  10.465  0.2629  0.5209 -0.4306
 4382SOL     OW18981   0.741   0.694   5.041  0.1904 -0.5359  0.6394
 4382SOL    HW118982   0.719   0.677   4.949  1.2781 -1.8192  0.5886
 4382SOL    HW218983   0.674   0.645   5.090  1.2682 -2.2395  0.4919
 4383SOL     OW18984   6.884   7.649   5.067  0.0302 -0.2431  0.0202
 4383SOL    HW118985   6.790   7.666   5.075  0.0317 -1.0933  3.2808
 4383SOL    HW218986   6.925   7.735   5.072 -0.5069 -0.0460  1.3019
 4384SOL     OW18987   4.012   5.770   8.139  0.4523  0.4018  0.0400
 4384SOL    HW118988   3.990   5.781   8.046  1.4392  0.8034 -0.1646
 4384SOL    HW218989   4.060   5.688   8.143 -3.4163 -2.0619  0.9462
 4385SOL     OW18990   9.709   1.406   3.120 -0.0772 -0.0433  0.8521
 4385SOL    HW118991   9.797   1.400   3.081 -1.2648  0.6042 -2.2466
 4385SOL    HW218992   9.698   1.499   3.140  0.4831 -0.3580  2.8030
 4386SOL     OW18993   4.103   8.492   7.646  0.4258  0.1068  0.3321
 4386SOL    HW118994   4.020   8.531   7.677  0.4805  0.1102  0.4735
 4386SOL    HW218995   4.083   8.463   7.557 -0.3020 -1.6571  1.0300
 4387SOL     OW18996   6.009   6.335   5.765  0.2037 -0.3032 -0.1559
 4387SOL    HW118997   6.083   6.396   5.762  0.7218 -0.9464 -2.4104
 4387SOL    HW218998   5.985   6.323   5.674 -0.6631 -2.5518  0.3083
 4388SOL     OW18999   1.147   3.894   7.056  0.3708 -0.5747 -0.1318
 4388SOL    HW119000   1.152   3.803   7.025  2.1724 -1.0213  1.3137
 4388SOL    HW219001   1.209   3.941   7.002 -0.1045 -0.3170 -0.4605
 4389SOL     OW19002   3.340   1.072   6.918 -0.0982  0.2142  0.0538
 4389SOL    HW119003   3.251   1.065   6.952 -0.2423 -0.7777 -0.4788
 4389SOL    HW219004   3.372   1.156   6.951 -1.8958  1.5437 -1.3352
 4390SOL     OW19005   0.477   4.731   9.455  0.2217 -0.1636 -0.2015
 4390SOL    HW119006   0.448   4.731   9.546  0.6683 -0.1699 -0.0580
 4390SOL    HW219007   0.440   4.650   9.418 -0.8709  0.3730 -0.3264
 4391SOL     OW19008   3.942   5.089   6.171  0.8023 -0.7950 -0.6641
 4391SOL    HW119009   3.977   5.035   6.100 -0.0913 -1.1170 -0.8691
 4391SOL    HW219010   3.876   5.035   6.213  1.2708 -0.5820  0.3962
 4392SOL     OW19011   3.258   6.336   7.054  0.0934  0.1741  0.3400
 4392SOL    HW119012   3.297   6.337   7.141 -0.2519  0.1451  0.4972
 4392SOL    HW219013   3.328   6.306   6.996  1.1841  2.7067  0.1912
 4393SOL     OW19014   3.579   0.592   5.041  0.2528  0.0486 -0.5566
 4393SOL    HW119015   3.623   0.666   5.000 -0.5217 -0.2324 -1.9965
 4393SOL    HW219016   3.636   0.517   5.022  0.1972  0.0143 -0.5891
 4394SOL     OW19017   0.210   0.305   9.903  0.5197  0.5574  0.1085
 4394SOL    HW119018   0.121   0.333   9.881  0.6327  0.9694  0.1842
 4394SOL    HW219019   0.209   0.297   9.999  0.4698  0.2356  0.0839
 4395SOL     OW19020   1.322   4.294   8.895 -0.0442 -0.5971  0.5455
 4395SOL    HW119021   1.260   4.355   8.933 -1.7101 -1.5622 -0.5246
 4395SOL    HW219022   1.312   4.214   8.947  0.3294 -0.7643  0.3686
 4396SOL     OW19023  10.742   4.307   6.415 -0.3675  0.1383  0.6288
 4396SOL    HW119024  10.830   4.310   6.453  0.1048  0.0813 -0.4065
 4396SOL    HW219025  10.748   4.240   6.347 -0.8425  1.0039 -0.3020
 4397SOL     OW19026   5.330   1.683   7.356 -0.2791  0.4494 -0.3358
 4397SOL    HW119027   5.372   1.769   7.360  0.1937  0.1667  1.3496
 4397SOL    HW219028   5.394   1.623   7.392 -1.2869 -0.3410  0.1872
 4398SOL     OW19029   4.810  10.793   2.366  0.4254 -0.8449 -1.1157
 4398SOL    HW119030   4.775  10.773   2.453 -0.4625  2.2834 -0.5981
 4398SOL    HW219031   4.900  10.819   2.382  0.1060  0.2607 -0.9739
 4399SOL     OW19032   9.464   6.783   8.011 -0.1095  0.3309 -0.1935
 4399SOL    HW119033   9.427   6.720   8.073 -1.6512  2.2782  1.0021
 4399SOL    HW219034   9.528   6.833   8.063 -0.6153  1.2637 -0.4332
 4400SOL     OW19035   1.720   4.197   1.974 -0.3241  0.1319 -0.6696
 4400SOL    HW119036   1.677   4.253   1.909 -1.0676 -0.6573 -0.8758
 4400SOL    HW219037   1.650   4.139   2.005  0.1645  0.0901  0.3862
 4401SOL     OW19038   6.603   3.008   1.111 -0.0492 -0.6277 -0.2874
 4401SOL    HW119039   6.668   2.977   1.174 -0.2003 -0.1809  0.0983
 4401SOL    HW219040   6.531   2.945   1.118 -0.1401 -0.4843  0.1220
 4402SOL     OW19041   1.801   0.238   6.107  0.2554  0.2757 -0.4857
 4402SOL    HW119042   1.754   0.304   6.159 -2.1007 -1.1591 -0.6179
 4402SOL    HW219043   1.867   0.203   6.166  0.8465  1.9785 -0.0767
 4403SOL     OW19044  10.353   9.768   6.684 -0.4589  0.3902 -0.5004
 4403SOL    HW119045  10.266   9.730   6.695 -1.1481  1.4424 -2.1014
 4403SOL    HW219046  10.346   9.855   6.724  0.3916 -0.1518  0.9101
 4404SOL     OW19047  10.447   0.221   4.936  0.1103 -0.1790  1.1056
 4404SOL    HW119048  10.481   0.304   4.969  1.5647 -0.0284 -0.6129
 4404SOL    HW219049  10.422   0.241   4.845  1.4297 -1.8253  0.3310
 4405SOL     OW19050   2.218   0.605   8.622 -0.6659 -0.1935  0.2543
 4405SOL    HW119051   2.215   0.570   8.533  1.3865  0.9351 -0.3167
 4405SOL    HW219052   2.141   0.661   8.629 -0.4533  0.2970 -1.0916
 4406SOL     OW19053   8.939   6.981   5.155  0.5010  0.1343 -0.4975
 4406SOL    HW119054   8.851   7.017   5.169  0.4763  0.4654 -1.4153
 4406SOL    HW219055   8.939   6.952   5.064  0.5445 -2.2025  0.2042
 4407SOL     OW19056   6.309   4.939  10.625  0.0511  0.2772 -0.4055
 4407SOL    HW119057   6.358   4.899  10.553  0.3138  0.9863 -0.6277
 4407SOL    HW219058   6.249   5.000  10.581 -1.0681 -0.5940 -0.1445
 4408SOL     OW19059   8.888   9.267   1.601 -0.2116  0.0054 -0.1042
 4408SOL    HW119060   8.896   9.359   1.626 -1.1191 -0.3952  1.8226
 4408SOL    HW219061   8.805   9.263   1.552 -0.2699  0.1800 -0.0227
 4409SOL     OW19062   1.176   1.897   5.916 -0.1186 -0.2692  0.0509
 4409SOL    HW119063   1.091   1.872   5.881  0.0700  0.1376 -0.7201
 4409SOL    HW219064   1.239   1.861   5.853  0.3112 -1.0724  0.9134
 4410SOL     OW19065   2.685   5.096   0.255  0.1320 -0.2327 -0.1379
 4410SOL    HW119066   2.637   5.073   0.335  0.5280 -0.7011 -0.0285
 4410SOL    HW219067   2.722   5.183   0.273  1.3651 -0.9010  0.7375
 4411SOL     OW19068   1.666   3.977   8.154 -0.2586 -0.6508 -0.0066
 4411SOL    HW119069   1.666   3.891   8.113  0.4499  0.0136 -1.4941
 4411SOL    HW219070   1.573   4.001   8.158 -0.3190 -0.1583 -2.6338
 4412SOL     OW19071   7.018   5.634   2.756  0.0198 -0.1997  0.3515
 4412SOL    HW119072   6.974   5.550   2.771  1.2363 -0.9133  0.0185
 4412SOL    HW219073   7.026   5.640   2.661 -2.5795  1.6655  0.1150
 4413SOL     OW19074   8.786   2.306   5.207 -0.2833  0.4843 -0.5012
 4413SOL    HW119075   8.736   2.370   5.257 -1.9317 -1.7485  0.8856
 4413SOL    HW219076   8.831   2.254   5.273 -2.7382 -2.7255 -1.0927
 4414SOL     OW19077   2.109  10.623   2.465 -0.3516 -0.0294 -0.2810
 4414SOL    HW119078   2.149  10.554   2.518 -1.6074 -0.2220  0.4704
 4414SOL    HW219079   2.034  10.652   2.517 -0.8006  0.7654 -1.3340
 4415SOL     OW19080   1.413   7.125   7.810  0.2182  0.5751 -0.5089
 4415SOL    HW119081   1.387   7.215   7.791  1.6817  1.1119 -0.0962
 4415SOL    HW219082   1.490   7.110   7.754  1.3594  0.3722  1.0605
 4416SOL     OW19083  10.793   7.117  10.155 -0.6105 -0.1727  0.0899
 4416SOL    HW119084  10.804   7.134  10.061 -0.4446  0.2428  0.1825
 4416SOL    HW219085  10.797   7.021  10.162 -1.1420 -0.2329 -0.3891
 4417SOL     OW19086   3.104   1.340   9.758  0.1251  0.5027  0.3014
 4417SOL    HW119087   3.068   1.305   9.839 -0.0295 -3.1624 -1.1375
 4417SOL    HW219088   3.194   1.307   9.756 -0.8005 -2.3262 -2.3236
 4418SOL     OW19089   7.804   5.099   3.162 -0.2871 -0.0978 -0.2234
 4418SOL    HW119090   7.811   5.104   3.257  1.4731 -1.5531 -0.2313
 4418SOL    HW219091   7.842   5.015   3.139 -2.2901 -0.5740 -2.1143
 4419SOL     OW19092   1.904   2.393   3.995  0.1966  0.9820  0.1448
 4419SOL    HW119093   1.822   2.349   4.017 -0.4775  2.4729  0.7077
 4419SOL    HW219094   1.972   2.333   4.025 -0.6441 -0.6093 -0.9748
 4420SOL     OW19095   2.718   6.700   4.314 -0.3443 -0.2633 -0.0414
 4420SOL    HW119096   2.644   6.715   4.372 -0.5995  1.4174 -0.7334
 4420SOL    HW219097   2.714   6.771   4.251  2.0839  0.1379  0.1307
 4421SOL     OW19098   5.376   8.727   6.254  0.2617  0.4905  0.0164
 4421SOL    HW119099   5.380   8.647   6.202  2.5714 -0.4853  1.5008
 4421SOL    HW219100   5.425   8.792   6.204 -2.0813  1.2313 -1.4519
 4422SOL     OW19101   6.894   5.413   5.773 -0.2089  0.2826  0.4843
 4422SOL    HW119102   6.944   5.397   5.853 -1.5674 -0.2993  1.2619
 4422SOL    HW219103   6.823   5.471   5.800  0.0383  1.1181 -0.5974
 4423SOL     OW19104   9.483   2.877   8.003  0.0673 -0.4949  0.5307
 4423SOL    HW119105   9.497   2.964   8.042  0.5779  0.2691 -1.2568
 4423SOL    HW219106   9.406   2.888   7.947 -0.1420 -1.3346  0.6380
 4424SOL     OW19107   0.580   4.320  10.399 -0.4567 -0.3870 -0.1737
 4424SOL    HW119108   0.640   4.298  10.471 -1.1831 -0.5764  0.3943
 4424SOL    HW219109   0.587   4.247  10.338 -0.5829 -0.7246  0.2087
 4425SOL     OW19110   4.449   3.819   6.862 -0.6139 -0.8026 -0.2206
 4425SOL    HW119111   4.419   3.728   6.861  0.5340 -1.2091  0.4274
 4425SOL    HW219112   4.423   3.852   6.948 -1.5912 -0.3031 -0.6906
 4426SOL     OW19113   6.022   7.971   8.779 -0.5472  0.3333  0.0159
 4426SOL    HW119114   5.927   7.965   8.774 -0.4350 -1.1670 -0.8094
 4426SOL    HW219115   6.045   8.039   8.715 -0.9159 -1.1064 -1.7131
 4427SOL     OW19116   8.705   5.404   0.396  0.1857  0.5088  0.4640
 4427SOL    HW119117   8.677   5.494   0.376 -0.0383  0.4779  0.6429
 4427SOL    HW219118   8.785   5.416   0.447  0.6370  0.5925 -0.2364
 4428SOL     OW19119   6.113   3.651   1.682  0.7646 -0.3242  0.3357
 4428SOL    HW119120   6.100   3.557   1.694 -0.7035 -0.0479  1.0982
 4428SOL    HW219121   6.119   3.663   1.587  1.0675 -1.1928  0.2405
 4429SOL     OW19122   2.304   8.383   8.215 -0.3555 -0.2712 -0.0893
 4429SOL    HW119123   2.345   8.301   8.190  0.1376 -0.2908  0.7313
 4429SOL    HW219124   2.302   8.381   8.311  0.3558  0.9975 -0.0174
 4430SOL     OW19125   4.104  10.815   1.431 -0.1876  0.2711 -0.0167
 4430SOL    HW119126   4.118  10.782   1.520  1.2023 -0.7914 -0.5828
 4430SOL    HW219127   4.185  10.793   1.384 -1.7362 -1.3153 -2.1612
 4431SOL     OW19128   4.471   6.454   9.683 -0.4456 -0.1757 -0.1780
 4431SOL    HW119129   4.451   6.497   9.600 -1.6782  0.3411  0.3656
 4431SOL    HW219130   4.426   6.370   9.678 -0.9255  0.0596  0.1593
 4432SOL     OW19131   3.719   3.692   7.906 -0.3186 -0.2389  0.0121
 4432SOL    HW119132   3.758   3.733   7.983 -0.4703  1.1429 -0.6196
 4432SOL    HW219133   3.627   3.717   7.910 -0.2687  0.0866 -0.7677
 4433SOL     OW19134   3.731   6.059   9.594  0.1607 -1.1174 -0.2565
 4433SOL    HW119135   3.762   5.968   9.584  1.3242 -0.7862  0.1658
 4433SOL    HW219136   3.708   6.085   9.505 -0.5262 -1.9413 -0.3324
 4434SOL     OW19137   5.380   1.762  10.617 -0.0004  0.1873 -0.6923
 4434SOL    HW119138   5.388   1.682  10.566 -0.5911  1.3185 -2.6889
 4434SOL    HW219139   5.470   1.787  10.638  0.2185 -0.6448 -0.6386
 4435SOL     OW19140   6.911   4.987   6.237 -0.1157 -0.0705 -0.6637
 4435SOL    HW119141   6.830   4.938   6.219 -0.0615  0.1677 -1.5811
 4435SOL    HW219142   6.942   5.016   6.151  1.7500 -1.3883 -0.4941
 4436SOL     OW19143   0.267   3.352   8.327 -0.2074  0.0308 -0.3275
 4436SOL    HW119144   0.260   3.279   8.388  0.4896 -0.0919 -0.3868
 4436SOL    HW219145   0.325   3.415   8.370 -0.5231  0.3975 -0.4259
 4437SOL     OW19146   9.063   3.927   1.242 -0.8066 -0.7175  0.4043
 4437SOL    HW119147   9.057   3.904   1.150  0.4123  3.5779 -0.9432
 4437SOL    HW219148   9.156   3.918   1.263 -0.9784 -1.0575  1.0623
 4438SOL     OW19149  10.423   8.731   2.618 -0.1464  0.4835 -0.2432
 4438SOL    HW119150  10.361   8.660   2.632  1.1637 -0.7382 -0.3452
 4438SOL    HW219151  10.369   8.808   2.599 -1.5899 -0.7408 -1.2705
 4439SOL     OW19152   5.632   3.057   6.602 -0.1048  0.0333  0.1272
 4439SOL    HW119153   5.539   3.039   6.617 -0.3774 -1.2831 -2.4307
 4439SOL    HW219154   5.638   3.071   6.507  2.5262 -1.7694 -0.0896
 4440SOL     OW19155   2.525   2.840   7.253  0.3678 -0.0549 -0.2343
 4440SOL    HW119156   2.531   2.930   7.284 -4.4326  0.3812  0.1220
 4440SOL    HW219157   2.582   2.838   7.175 -0.3784  3.7028 -1.0656
 4441SOL     OW19158   4.902   5.563   7.661  0.3739  0.2976 -0.5436
 4441SOL    HW119159   4.947   5.503   7.601  1.1251  0.4773 -0.1788
 4441SOL    HW219160   4.952   5.644   7.655  0.1715  0.4628 -0.0269
 4442SOL     OW19161   1.710   1.225   6.818 -0.2122  0.3103 -0.5112
 4442SOL    HW119162   1.634   1.235   6.759 -2.5972 -0.5937  2.1830
 4442SOL    HW219163   1.713   1.131   6.836  0.2482  0.6040  1.0166
 4443SOL     OW19164   2.375  10.912   8.157  0.5525  0.1865 -0.2492
 4443SOL    HW119165   2.334  10.905   8.243  0.7150 -1.1834 -0.2537
 4443SOL    HW219166   2.468  10.921   8.175  0.6010 -0.2415 -0.2810
 4444SOL     OW19167   3.100   1.228  10.166 -0.4129 -0.1872  0.7064
 4444SOL    HW119168   3.105   1.138  10.134 -1.4570  0.3030 -0.9076
 4444SOL    HW219169   3.158   1.229  10.242 -0.6985 -2.3215  1.0122
 4445SOL     OW19170   3.100   9.511   6.793 -0.2060 -0.2814  0.6122
 4445SOL    HW119171   3.179   9.519   6.740 -1.3880  3.9805 -0.9107
 4445SOL    HW219172   3.055   9.434   6.757  1.6576 -0.7801 -0.7806
 4446SOL     OW19173   5.289   4.538   5.708  0.7353 -0.1909 -0.7002
 4446SOL    HW119174   5.369   4.487   5.700  0.8408 -0.3456  0.9865
 4446SOL    HW219175   5.319   4.626   5.731  0.4641 -0.9864  3.4513
 4447SOL     OW19176   1.835   6.154   1.652  0.1225  0.1570 -0.2435
 4447SOL    HW119177   1.864   6.119   1.736  0.7403 -0.4804 -0.7059
 4447SOL    HW219178   1.823   6.076   1.597  0.3305  0.6018 -0.9322
 4448SOL     OW19179   8.813   2.904   2.244 -0.1172 -0.3268  0.1039
 4448SOL    HW119180   8.723   2.899   2.274 -0.0252 -1.5604  0.2461
 4448SOL    HW219181   8.817   2.844   2.170  0.7669 -0.9365  0.6244
 4449SOL     OW19182   7.559   5.957   6.205  0.3648  0.0907 -0.4831
 4449SOL    HW119183   7.547   6.035   6.149 -2.5335 -0.8737 -1.4226
 4449SOL    HW219184   7.478   5.952   6.256  0.1073 -2.6833 -1.0037
 4450SOL     OW19185   1.354   3.695   3.314  0.5694  0.3639  0.2771
 4450SOL    HW119186   1.336   3.742   3.396 -3.0322  1.8734 -1.1626
 4450SOL    HW219187   1.381   3.763   3.253  0.1753 -0.2386 -0.5795
 4451SOL     OW19188   2.497   2.316   0.908 -0.4055  0.3468  0.3782
 4451SOL    HW119189   2.433   2.349   0.845  0.8281  0.2519 -0.9785
 4451SOL    HW219190   2.515   2.227   0.880  1.0471  0.6991  0.1041
 4452SOL     OW19191   5.737   3.603  10.812 -0.1432  0.5233  0.1154
 4452SOL    HW119192   5.690   3.537  10.864  0.6802 -0.5054 -0.4000
 4452SOL    HW219193   5.702   3.593  10.724  0.3513  0.4035 -0.0726
 4453SOL     OW19194   2.909   7.213   3.085  0.3949  0.3591 -0.1041
 4453SOL    HW119195   2.980   7.172   3.132  1.2092  1.7005 -0.0983
 4453SOL    HW219196   2.886   7.290   3.138  0.5041  1.2100 -1.2505
 4454SOL     OW19197   3.176   3.077   3.004 -0.7513 -0.0521  0.1353
 4454SOL    HW119198   3.188   3.165   2.968  0.8244 -0.3773 -0.2168
 4454SOL    HW219199   3.088   3.078   3.042 -0.2243  2.1232  1.4381
 4455SOL     OW19200   5.130   7.027   5.747 -0.2321  0.2963 -0.7722
 4455SOL    HW119201   5.214   7.005   5.789 -0.8439  1.0097  0.8942
 4455SOL    HW219202   5.122   6.963   5.676  1.6377  0.1037 -0.8590
 4456SOL     OW19203   4.387   9.676   8.754  0.0113 -0.7329  0.2899
 4456SOL    HW119204   4.406   9.702   8.664 -0.3737  1.8120  0.8884
 4456SOL    HW219205   4.421   9.748   8.808 -1.6460 -1.1865  2.0494
 4457SOL     OW19206   3.514   7.678   1.060  0.1361  0.0914 -0.0382
 4457SOL    HW119207   3.437   7.694   1.006 -1.2767  1.1913  2.1366
 4457SOL    HW219208   3.481   7.628   1.134  1.3311  1.2052  1.3040
 4458SOL     OW19209   7.815   4.046   2.848  0.2507 -0.3948  0.2265
 4458SOL    HW119210   7.857   4.010   2.926  1.2614 -1.4533 -0.7604
 4458SOL    HW219211   7.726   4.067   2.875  0.9431  0.4729  1.9827
 4459SOL     OW19212   5.638   2.873   6.157  0.1356 -0.4372 -0.2323
 4459SOL    HW119213   5.580   2.824   6.214 -0.1843  0.0824 -0.1108
 4459SOL    HW219214   5.650   2.816   6.081 -0.0203 -0.8141  0.0225
 4460SOL     OW19215   9.752   3.270  10.819 -1.0225  0.3166  0.1843
 4460SOL    HW119216   9.719   3.349  10.775 -0.7836  0.0288 -0.5173
 4460SOL    HW219217   9.846   3.271  10.804 -0.9816  0.0447  0.4173
 4461SOL     OW19218   5.190   7.254   2.214 -0.1938 -0.3463 -0.9423
 4461SOL    HW119219   5.285   7.249   2.228 -0.3569  1.4786  1.5591
 4461SOL    HW219220   5.181   7.283   2.123  1.5046 -2.8029 -2.0042
 4462SOL     OW19221   3.840   1.772   5.750 -0.1606  0.0241 -0.4297
 4462SOL    HW119222   3.879   1.761   5.663 -0.4032  0.0408 -0.5414
 4462SOL    HW219223   3.856   1.689   5.794  2.8510  1.0676  0.6776
 4463SOL     OW19224   6.287   8.103   8.744 -0.2777 -0.2443  0.3788
 4463SOL    HW119225   6.204   8.119   8.699 -1.3384 -2.6201  1.3250
 4463SOL    HW219226   6.328   8.033   8.695  0.3872 -0.1990  0.8604
 4464SOL     OW19227   2.517   5.701   1.741 -0.5209  0.1548 -0.1218
 4464SOL    HW119228   2.611   5.713   1.727 -0.8679  2.1539 -1.0478
 4464SOL    HW219229   2.479   5.700   1.653 -1.6174  1.9019  0.2857
 4465SOL     OW19230   0.757   9.304   4.357  0.0638  0.1505  0.3216
 4465SOL    HW119231   0.779   9.370   4.423 -0.4777  0.7588 -0.0923
 4465SOL    HW219232   0.829   9.241   4.362  1.5127  1.6418 -0.4236
 4466SOL     OW19233   2.710   6.091   1.288  0.6035 -0.1354  0.0126
 4466SOL    HW119234   2.743   6.168   1.242  0.7489  0.4369  1.0572
 4466SOL    HW219235   2.616   6.091   1.271  0.6397  0.1334 -0.1863
 4467SOL     OW19236   1.260   1.378   2.979  0.0432 -0.1460  0.1495
 4467SOL    HW119237   1.167   1.362   2.994 -0.2993  1.6591  0.2352
 4467SOL    HW219238   1.272   1.470   3.000  1.8556 -0.3290  0.0845
 4468SOL     OW19239   1.058   4.691   3.243  0.2017 -0.1360  0.0436
 4468SOL    HW119240   1.113   4.690   3.165 -3.3157 -2.3659 -2.7813
 4468SOL    HW219241   1.027   4.781   3.250  1.9661  0.4990  0.0501
 4469SOL     OW19242   3.087   6.259   7.346  0.4252 -0.5204 -0.1987
 4469SOL    HW119243   3.180   6.236   7.335  0.4800 -0.0583 -0.7362
 4469SOL    HW219244   3.086   6.321   7.419  0.3767 -1.5082  0.6786
 4470SOL     OW19245   2.747   6.121   3.621  0.0164  0.0310 -0.0991
 4470SOL    HW119246   2.808   6.051   3.646  0.6552 -0.0428 -1.7551
 4470SOL    HW219247   2.758   6.129   3.526 -0.7929  1.6946 -0.0754
 4471SOL     OW19248   5.460   8.005   1.522 -0.2538 -0.1981 -0.1131
 4471SOL    HW119249   5.498   8.008   1.434 -1.5292 -0.4344 -0.7026
 4471SOL    HW219250   5.477   8.092   1.558 -0.3130  0.1369 -0.8700
 4472SOL     OW19251   1.379   8.629   6.740  0.2033  0.5324  0.1339
 4472SOL    HW119252   1.412   8.540   6.743 -1.4674 -0.1060  2.2630
 4472SOL    HW219253   1.384   8.659   6.831 -0.5739  2.0910 -0.3030
 4473SOL     OW19254   5.162   1.672   6.242 -0.5012 -0.2219 -0.2043
 4473SOL    HW119255   5.088   1.631   6.286 -1.0795 -0.6228 -1.4958
 4473SOL    HW219256   5.226   1.601   6.232 -0.4210 -0.1607 -0.1312
 4474SOL     OW19257   5.299   1.564   2.510 -0.1670 -0.0049 -0.1123
 4474SOL    HW119258   5.302   1.470   2.529  1.4019  0.3627  1.7182
 4474SOL    HW219259   5.209   1.589   2.531 -0.1764 -0.8303  0.9589
 4475SOL     OW19260   0.111   7.417   6.344 -0.0753 -0.1222 -0.0459
 4475SOL    HW119261   0.017   7.408   6.357 -0.0312 -0.9379 -0.2942
 4475SOL    HW219262   0.150   7.382   6.425  0.0323 -0.3333 -0.1882
 4476SOL     OW19263   5.926   9.768   0.508 -0.1629 -0.0494  0.7669
 4476SOL    HW119264   5.907   9.675   0.495 -1.0315  0.1544  0.4977
 4476SOL    HW219265   6.005   9.769   0.561  0.3741 -0.9386  0.0255
 4477SOL     OW19266   2.248   9.803   0.339  0.3549 -0.6499 -0.4885
 4477SOL    HW119267   2.245   9.860   0.415 -1.4824 -3.0647  1.4332
 4477SOL    HW219268   2.335   9.762   0.343  0.5024 -0.2993 -0.0387
 4478SOL     OW19269   0.470   2.611   0.799 -0.2601  0.1537  0.5104
 4478SOL    HW119270   0.520   2.653   0.730  0.5060  0.5769  1.2926
 4478SOL    HW219271   0.480   2.670   0.874 -2.4306  0.5452  0.5357
 4479SOL     OW19272   8.957   4.004   2.859  0.6046  0.0830  0.2731
 4479SOL    HW119273   9.002   3.936   2.809  1.6998  1.0527 -0.1041
 4479SOL    HW219274   8.868   3.971   2.869  0.6096 -0.5782 -1.4811
 4480SOL     OW19275   3.032   1.092   6.636 -0.3996  0.0019 -0.6261
 4480SOL    HW119276   3.018   1.120   6.545  0.0078 -2.0965 -1.4038
 4480SOL    HW219277   3.127   1.080   6.643 -0.1527  2.2145  0.8016
 4481SOL     OW19278   3.983   0.697   2.528  0.2403  0.1196  0.3686
 4481SOL    HW119279   4.040   0.697   2.606 -0.0933 -0.6960  0.6199
 4481SOL    HW219280   3.958   0.605   2.517 -0.3393  0.3500 -0.2523
 4482SOL     OW19281   8.872   6.639  10.086  0.5505  0.1578 -0.5098
 4482SOL    HW119282   8.866   6.556  10.039 -1.5060 -0.5657  0.9206
 4482SOL    HW219283   8.805   6.694  10.047 -0.3877 -0.0490  0.7586
 4483SOL     OW19284   8.661   4.461   0.454  0.7049  0.9840  0.2474
 4483SOL    HW119285   8.695   4.483   0.368 -2.1271  0.4366 -1.1129
 4483SOL    HW219286   8.679   4.367   0.464  1.4422  1.1422  0.4944
 4484SOL     OW19287   4.563   0.685   4.893  0.0653  0.0101  0.1042
 4484SOL    HW119288   4.538   0.660   4.805 -0.3031 -0.5451  0.3622
 4484SOL    HW219289   4.651   0.650   4.904  0.1290  0.1174 -0.0514
 4485SOL     OW19290   8.850   6.489   2.284  0.1580  0.3277  0.5182
 4485SOL    HW119291   8.884   6.577   2.268 -1.2315  0.4746 -2.3914
 4485SOL    HW219292   8.896   6.434   2.221  1.6530 -1.3250  2.8728
 4486SOL     OW19293   3.042   3.367   8.974 -0.5554 -0.3589 -0.4766
 4486SOL    HW119294   2.952   3.360   8.943 -0.6686 -0.8999 -0.0388
 4486SOL    HW219295   3.048   3.305   9.047 -0.1918  0.6226  0.3527
 4487SOL     OW19296   8.017   2.073   2.950 -0.0217 -0.6027  0.2297
 4487SOL    HW119297   8.083   2.114   2.894  0.7846 -0.6006  1.1465
 4487SOL    HW219298   8.044   2.095   3.039  0.2714 -2.8084  0.7581
 4488SOL     OW19299   2.807   7.220   0.545  0.2452  0.0305  0.1895
 4488SOL    HW119300   2.791   7.181   0.631 -0.8768 -0.2581 -0.1354
 4488SOL    HW219301   2.899   7.248   0.548  0.0109  0.7011  1.7355
 4489SOL     OW19302   8.249   0.532   9.644 -0.2326  0.6837 -0.3879
 4489SOL    HW119303   8.208   0.618   9.647  0.8704  1.2728 -1.2150
 4489SOL    HW219304   8.256   0.512   9.550 -0.7083 -0.4376 -0.2029
 4490SOL     OW19305   0.287   1.215   3.599 -0.0794  0.3538 -0.4835
 4490SOL    HW119306   0.379   1.197   3.579 -0.1638 -0.6204 -0.0448
 4490SOL    HW219307   0.242   1.206   3.515 -0.0844 -1.3479 -0.3293
 4491SOL     OW19308   3.719   3.290   1.633  0.0444 -0.3491  0.2333
 4491SOL    HW119309   3.717   3.237   1.713  0.1939 -0.1280  0.3843
 4491SOL    HW219310   3.763   3.235   1.568 -1.4230 -1.1470 -0.1459
 4492SOL     OW19311   0.110   6.043   1.320  0.2769 -0.0647  0.0625
 4492SOL    HW119312   0.195   6.086   1.308  0.5269 -0.8751 -1.2841
 4492SOL    HW219313   0.111   6.011   1.410  0.5221  1.7643  0.7549
 4493SOL     OW19314   8.571   2.562   2.823 -0.6012 -0.2165  0.4336
 4493SOL    HW119315   8.666   2.574   2.823 -0.3635 -1.9620 -0.0449
 4493SOL    HW219316   8.543   2.584   2.734 -0.3028 -1.9693 -0.1304
 4494SOL     OW19317   2.691  10.031   0.027 -0.0591  0.2726 -0.4011
 4494SOL    HW119318   2.764  10.076  -0.015 -0.0447  1.1991  0.5685
 4494SOL    HW219319   2.613  10.075  -0.008 -0.0995  0.1209 -0.4997
 4495SOL     OW19320   3.970   6.893   4.501  0.3630 -0.3253  0.2734
 4495SOL    HW119321   3.928   6.895   4.415  0.1608  1.6755  0.3550
 4495SOL    HW219322   3.958   6.803   4.532 -1.1771 -0.6128 -1.0096
 4496SOL     OW19323   0.933   2.987   0.383 -0.4377 -0.3261 -0.1006
 4496SOL    HW119324   0.876   3.042   0.436  0.7052  1.0041 -0.1964
 4496SOL    HW219325   0.885   2.975   0.301 -1.2150 -0.4663  0.3676
 4497SOL     OW19326   5.009  10.907   5.945 -0.2995  0.1829 -0.1658
 4497SOL    HW119327   4.980  10.875   5.860 -0.0443 -1.1425  0.2347
 4497SOL    HW219328   5.043  10.995   5.927  0.7206 -0.4753 -1.6122
 4498SOL     OW19329   9.978   5.032   3.463 -0.1224  0.0523  0.2133
 4498SOL    HW119330  10.046   4.966   3.474  0.2694  0.1227 -1.4690
 4498SOL    HW219331   9.896   4.986   3.479  0.2296 -0.4874  0.4711
 4499SOL     OW19332   0.190   9.926   6.541 -0.0356 -0.1741  0.1753
 4499SOL    HW119333   0.199   9.930   6.636  1.3584 -0.4603  0.0787
 4499SOL    HW219334   0.221   9.839   6.517 -0.8139 -0.2787 -0.5080
 4500SOL     OW19335   5.336   9.396   8.149 -0.3612  0.1398 -0.0209
 4500SOL    HW119336   5.379   9.352   8.076 -0.0479  0.0389  0.2198
 4500SOL    HW219337   5.408   9.431   8.201 -0.5815  0.1719  0.2653
 4501SOL     OW19338   9.193   5.957   8.864 -0.0227 -0.8058  0.3043
 4501SOL    HW119339   9.153   5.931   8.946  0.2435  0.6643  0.9317
 4501SOL    HW219340   9.119   5.978   8.806 -0.2144  0.1296  0.8592
 4502SOL     OW19341  10.876   9.892   9.479  0.0111 -0.0297 -0.1632
 4502SOL    HW119342  10.966   9.924   9.480  0.5410 -1.1298 -2.8687
 4502SOL    HW219343  10.884   9.797   9.480 -1.1282 -0.1416 -0.1071
 4503SOL     OW19344   8.377   0.097   1.113 -0.7085  0.0630 -0.1141
 4503SOL    HW119345   8.340   0.127   1.196 -1.1264  0.4277 -0.4246
 4503SOL    HW219346   8.352   0.165   1.050 -3.7452 -1.9953 -1.3685
 4504SOL     OW19347   9.393   4.585   1.836 -0.0335 -0.0473  0.0047
 4504SOL    HW119348   9.431   4.654   1.890 -0.9297 -0.5733  1.3722
 4504SOL    HW219349   9.333   4.539   1.894 -0.1199 -1.4410 -1.1119
 4505SOL     OW19350   1.063   3.787   3.282  0.1388 -0.2575  0.1962
 4505SOL    HW119351   1.071   3.744   3.367  1.6345  0.3972  0.4195
 4505SOL    HW219352   1.130   3.855   3.283  1.7258 -1.6113 -2.3142
 4506SOL     OW19353   4.027   2.005   1.622  0.1984  0.0065 -0.0208
 4506SOL    HW119354   4.103   2.058   1.647 -0.0321  0.2916  0.0823
 4506SOL    HW219355   4.065   1.928   1.579  0.5258  0.4173 -0.4865
 4507SOL     OW19356   8.708   3.888   2.892 -0.4247 -0.2963 -0.0403
 4507SOL    HW119357   8.712   3.813   2.952  0.1954 -0.1549  0.1079
 4507SOL    HW219358   8.621   3.925   2.905 -1.2680 -1.7833 -1.0896
 4508SOL     OW19359   3.245   2.146  10.137  0.1244 -0.3077 -0.0741
 4508SOL    HW119360   3.265   2.234  10.106 -0.5936 -0.0925  0.0569
 4508SOL    HW219361   3.270   2.147  10.229 -2.2869  0.5938  0.6356
 4509SOL     OW19362   5.264   4.716  10.301  0.6822  0.2617 -0.2813
 4509SOL    HW119363   5.213   4.777  10.247  0.5170 -0.0531 -0.4805
 4509SOL    HW219364   5.205   4.694  10.373  0.4335 -0.3161 -0.6572
 4510SOL     OW19365   0.860   9.342   7.707  0.0860  0.1695 -0.0863
 4510SOL    HW119366   0.922   9.410   7.679 -0.0560  0.3853  0.1262
 4510SOL    HW219367   0.883   9.266   7.653 -0.1077  0.5444 -0.7138
 4511SOL     OW19368   2.630   3.691   9.480  0.7310  0.1848  0.4550
 4511SOL    HW119369   2.677   3.690   9.563  0.8252  0.1827  0.4015
 4511SOL    HW219370   2.696   3.712   9.415  0.7350 -0.2049  0.3323
 4512SOL     OW19371   7.222   3.879   3.517 -0.1954 -0.1903 -0.2220
 4512SOL    HW119372   7.312   3.853   3.537  0.0151  0.3559 -0.4263
 4512SOL    HW219373   7.217   3.970   3.545 -0.5959 -0.1290 -0.4874
 4513SOL     OW19374   7.492   9.193   8.594  0.0176  0.2246 -0.4830
 4513SOL    HW119375   7.495   9.288   8.602  0.5894  0.1193  0.8708
 4513SOL    HW219376   7.564   9.172   8.535 -0.4430  0.6602 -1.2130
 4514SOL     OW19377   1.153   1.994   0.711 -0.5492  0.2433 -0.9076
 4514SOL    HW119378   1.228   1.943   0.742  0.6345  1.7107 -1.2403
 4514SOL    HW219379   1.080   1.966   0.766  0.3467 -0.8611 -0.2344
 4515SOL     OW19380   0.073   7.492   5.785 -0.1204  0.2542 -0.4031
 4515SOL    HW119381  -0.008   7.543   5.793 -1.0870 -1.4492  1.3934
 4515SOL    HW219382   0.138   7.544   5.833 -0.1551  1.5144 -1.6491
 4516SOL     OW19383   4.446   0.820   1.414  0.3308  0.1177 -1.0986
 4516SOL    HW119384   4.380   0.888   1.421 -0.2795 -0.4773 -1.0009
 4516SOL    HW219385   4.480   0.810   1.502  0.4224  0.2936 -1.1134
 4517SOL     OW19386   1.633   9.689   1.132  0.0150 -0.5843 -0.0495
 4517SOL    HW119387   1.628   9.611   1.078 -0.0715 -1.5120  1.2534
 4517SOL    HW219388   1.630   9.762   1.070 -0.4549 -1.5968 -1.2443
 4518SOL     OW19389   2.410   6.196   1.293  0.1586 -0.0923 -0.1615
 4518SOL    HW119390   2.325   6.226   1.261 -0.3463 -0.3843  0.8404
 4518SOL    HW219391   2.390   6.159   1.380  1.3982  0.3680  0.3300
 4519SOL     OW19392   3.267   3.164  10.199 -0.7829 -0.1069 -0.0012
 4519SOL    HW119393   3.282   3.129  10.111  0.4729  0.4901 -0.0483
 4519SOL    HW219394   3.187   3.121  10.229  0.2050 -2.3450 -0.3871
 4520SOL     OW19395   1.039   9.858   0.453  0.4756  0.0049 -0.5831
 4520SOL    HW119396   1.039   9.763   0.440 -0.0629  0.1684 -1.9987
 4520SOL    HW219397   0.952   9.877   0.488  0.5204 -0.0030 -0.4672
 4521SOL     OW19398   5.937   3.543   5.981 -0.2783 -0.0969  0.2040
 4521SOL    HW119399   5.961   3.604   6.051 -0.1386 -1.3667  1.2950
 4521SOL    HW219400   6.015   3.538   5.926  0.6541 -1.2137  1.5496
 4522SOL     OW19401   2.500   2.803   3.685  0.1335 -0.0327 -0.5909
 4522SOL    HW119402   2.457   2.743   3.747 -0.4316  0.4906 -0.4726
 4522SOL    HW219403   2.434   2.870   3.667  0.2664 -0.2151 -1.8193
 4523SOL     OW19404   2.984   4.215   6.159  0.1623  0.2888 -0.1983
 4523SOL    HW119405   2.915   4.262   6.205 -1.0055  0.0936 -1.6799
 4523SOL    HW219406   3.002   4.267   6.081 -0.8964 -1.4302 -1.6885
 4524SOL     OW19407   4.027   2.041   5.614  0.1852  0.3066  0.4230
 4524SOL    HW119408   4.047   2.128   5.650 -0.1557 -0.1548  1.8101
 4524SOL    HW219409   4.112   2.002   5.596  0.4151  0.3172  1.3890
 4525SOL     OW19410   5.229   9.196   9.493  0.1098 -0.3760 -0.0918
 4525SOL    HW119411   5.134   9.190   9.482 -0.1079  0.6241  1.0886
 4525SOL    HW219412   5.252   9.282   9.456  0.7472 -1.0917 -1.4362
 4526SOL     OW19413   5.931   9.252   5.943 -0.0917 -0.1899  0.2895
 4526SOL    HW119414   5.985   9.178   5.970 -0.7352 -0.5530  0.6265
 4526SOL    HW219415   5.941   9.316   6.013  2.9914  1.4613 -1.4553
 4527SOL     OW19416   3.449   0.381   6.993  0.2601  0.4115 -0.3751
 4527SOL    HW119417   3.421   0.386   6.901 -0.9446  1.5642  0.0246
 4527SOL    HW219418   3.420   0.464   7.031 -1.9209 -1.1938  1.7759
 4528SOL     OW19419   5.051  10.641  10.418  0.2866  0.5235  0.1828
 4528SOL    HW119420   4.993  10.654  10.343  0.7349  0.4344 -0.1840
 4528SOL    HW219421   4.992  10.616  10.489 -0.0609 -0.2936 -0.3708
 4529SOL     OW19422   1.756   5.500   6.510 -0.0021  1.2155  0.2841
 4529SOL    HW119423   1.851   5.508   6.505  0.2149 -1.2643 -3.0534
 4529SOL    HW219424   1.724   5.560   6.442 -0.7422  1.0664  0.4906
 4530SOL     OW19425   3.246   4.795   8.933 -0.1017 -0.3021 -0.1582
 4530SOL    HW119426   3.269   4.885   8.957 -3.6611  1.0833 -1.3086
 4530SOL    HW219427   3.238   4.749   9.017 -0.8641  1.2235  0.6335
 4531SOL     OW19428   5.891   7.963   7.041  0.3945 -0.2124  0.1993
 4531SOL    HW119429   5.863   8.053   7.025 -2.4620 -0.9153  0.7952
 4531SOL    HW219430   5.853   7.912   6.969 -0.0920 -1.2782  1.1790
 4532SOL     OW19431   9.595   8.514   0.822 -0.7936  0.3954  0.5294
 4532SOL    HW119432   9.502   8.532   0.832 -0.6831  1.0499  0.4089
 4532SOL    HW219433   9.616   8.541   0.733 -0.6701 -0.5818  0.2464
 4533SOL     OW19434   2.688   0.463   0.979  0.1096  0.1707 -0.5754
 4533SOL    HW119435   2.658   0.509   1.057 -0.0024  0.5858 -0.8602
 4533SOL    HW219436   2.710   0.532   0.916 -1.6490 -0.1535 -1.6135
 4534SOL     OW19437   1.038   0.083  10.484  0.7443  0.4803  0.5609
 4534SOL    HW119438   0.992   0.052  10.562 -0.2597  1.3780  0.3517
 4534SOL    HW219439   0.975   0.070  10.413  1.5795 -0.1587 -0.0784
 4535SOL     OW19440   7.210   5.786  10.587 -0.5151  0.1044  0.4638
 4535SOL    HW119441   7.256   5.703  10.598  1.5145  1.1750  0.5683
 4535SOL    HW219442   7.129   5.763  10.542  0.7028 -1.7631 -0.9164
 4536SOL     OW19443   3.406   4.445   9.782  0.2578  0.4202  0.7648
 4536SOL    HW119444   3.323   4.444   9.732  0.9196  1.8321 -0.4379
 4536SOL    HW219445   3.401   4.525   9.835  1.6067  1.5754 -0.7524
 4537SOL     OW19446   6.850   9.190   9.322  0.0475 -0.3072 -0.1440
 4537SOL    HW119447   6.860   9.280   9.291 -3.6937 -0.0854 -1.1908
 4537SOL    HW219448   6.879   9.192   9.413  1.3923  1.5641 -0.5582
 4538SOL     OW19449   1.634   5.056   4.682  0.8238 -0.1168  0.1331
 4538SOL    HW119450   1.639   4.968   4.646  1.0469 -0.5603  1.2075
 4538SOL    HW219451   1.575   5.103   4.624  0.6757 -0.9859 -0.4264
 4539SOL     OW19452   5.682   5.527   4.631 -0.5018  0.1588 -0.0705
 4539SOL    HW119453   5.607   5.467   4.639  0.2019 -0.7029  0.1708
 4539SOL    HW219454   5.711   5.518   4.541  0.2687 -0.6909  0.2479
 4540SOL     OW19455  10.181   3.530   9.949  0.1911  0.1903  0.0699
 4540SOL    HW119456  10.181   3.568  10.037  0.3375  1.0740 -0.2996
 4540SOL    HW219457  10.261   3.564   9.909  0.8909 -1.3867  0.0823
 4541SOL     OW19458   3.856  10.433   5.841  0.5199 -0.2871 -0.4605
 4541SOL    HW119459   3.943  10.448   5.804  1.2607 -1.4494  0.7019
 4541SOL    HW219460   3.854  10.339   5.859 -1.6475 -0.6071 -2.0316
 4542SOL     OW19461   4.144   5.419   1.494  0.2224 -0.1000 -0.6407
 4542SOL    HW119462   4.138   5.385   1.405 -0.2755 -1.1744 -0.2308
 4542SOL    HW219463   4.072   5.375   1.540  0.1638  0.8190  0.1654
 4543SOL     OW19464   4.504   8.260   8.966  0.0199 -0.1248 -0.4599
 4543SOL    HW119465   4.463   8.208   9.035  0.1788  0.6355  0.2308
 4543SOL    HW219466   4.437   8.322   8.939  0.4120  0.5421  0.0550
 4544SOL     OW19467   0.692   5.766  10.484  0.6779 -0.0022  0.3387
 4544SOL    HW119468   0.768   5.774  10.541  0.1776  0.2632  0.9867
 4544SOL    HW219469   0.618   5.754  10.545 -0.1950  2.5624 -0.1132
 4545SOL     OW19470   8.824   3.895   7.730 -0.3504  0.4639  0.5571
 4545SOL    HW119471   8.918   3.876   7.731 -0.4203 -0.2617 -1.3620
 4545SOL    HW219472   8.801   3.907   7.822  1.4540 -0.2000  1.1504
 4546SOL     OW19473   9.990   4.774   2.810 -0.0379 -0.1006 -1.0277
 4546SOL    HW119474  10.000   4.838   2.880 -1.0699  0.5589 -1.4522
 4546SOL    HW219475   9.897   4.776   2.789 -0.3503 -2.7090 -0.1754
 4547SOL     OW19476   3.252  10.001   2.412  0.1060  0.4526 -0.6712
 4547SOL    HW119477   3.259  10.020   2.506  1.5706  2.1252 -1.0542
 4547SOL    HW219478   3.198   9.922   2.407 -1.7393  1.4841  1.4433
 4548SOL     OW19479   5.985   9.716   5.753  0.5344 -0.0860 -0.2151
 4548SOL    HW119480   6.005   9.664   5.675  0.1888 -0.6558  0.0713
 4548SOL    HW219481   6.047   9.684   5.819  1.1401  0.7123 -0.3721
 4549SOL     OW19482   7.373   2.184   1.487  0.0115  0.1099  0.4274
 4549SOL    HW119483   7.344   2.235   1.411  0.0653  0.6143  0.7338
 4549SOL    HW219484   7.431   2.117   1.450 -1.2795 -0.7244 -0.1549
 4550SOL     OW19485   4.189   2.698   8.454 -0.9204  0.1779  0.3076
 4550SOL    HW119486   4.204   2.789   8.481  0.5563  0.3477 -0.9414
 4550SOL    HW219487   4.120   2.704   8.388 -1.7427  0.2184  1.1504
 4551SOL     OW19488   9.727   8.608   8.624 -0.2563 -0.0458  0.0598
 4551SOL    HW119489   9.708   8.529   8.674  0.1089  0.3053  0.7711
 4551SOL    HW219490   9.781   8.579   8.550 -0.6247 -0.5366 -0.0186
 4552SOL     OW19491   7.169   8.372   2.239  0.1118  0.0806  0.5607
 4552SOL    HW119492   7.245   8.333   2.281  1.1780  1.4362 -0.0447
 4552SOL    HW219493   7.192   8.374   2.146 -1.4615 -1.2023  0.0944
 4553SOL     OW19494   1.860   5.773   3.879  0.2475 -0.8744  0.3551
 4553SOL    HW119495   1.896   5.755   3.792 -0.3168 -0.8299  0.1015
 4553SOL    HW219496   1.869   5.691   3.927 -1.8926 -1.7750 -0.6430
 4554SOL     OW19497   3.950   7.614   4.383 -0.4826 -0.5282 -0.3614
 4554SOL    HW119498   3.927   7.700   4.345 -1.1891 -0.2375  0.6869
 4554SOL    HW219499   3.922   7.620   4.474  1.8131 -0.9710  0.4346
 4555SOL     OW19500   9.584   4.300   8.618  0.1060  0.5843 -0.3036
 4555SOL    HW119501   9.502   4.270   8.655 -0.5731  2.9635  0.2896
 4555SOL    HW219502   9.561   4.331   8.530  0.2620  1.6392  0.0156
 4556SOL     OW19503   0.470   0.095   3.303  0.1338 -0.7099 -0.2495
 4556SOL    HW119504   0.463   0.158   3.231  2.0250 -1.5112 -1.2233
 4556SOL    HW219505   0.519   0.142   3.371  0.5954 -0.7644 -0.5381
 4557SOL     OW19506   3.771   8.339   0.780  0.1782  0.6457 -0.2424
 4557SOL    HW119507   3.808   8.251   0.772  0.8572  0.9900 -1.0684
 4557SOL    HW219508   3.812   8.388   0.710 -2.6538  0.8067 -1.9274
 4558SOL     OW19509   4.887   3.818   9.773 -0.3968 -0.2026  0.1831
 4558SOL    HW119510   4.799   3.858   9.775 -1.2425 -1.9928  0.5271
 4558SOL    HW219511   4.939   3.875   9.830 -1.8084 -0.1115  1.4601
 4559SOL     OW19512  10.548   9.911   5.052 -0.4528 -0.2988 -0.1328
 4559SOL    HW119513  10.642   9.915   5.037 -0.4711 -1.3730 -0.6775
 4559SOL    HW219514  10.522  10.001   5.073  0.8354 -0.1573  0.9540
 4560SOL     OW19515   9.609   3.850   2.480  0.0078  0.2669  0.2327
 4560SOL    HW119516   9.628   3.789   2.551  0.2498 -0.1597 -0.1988
 4560SOL    HW219517   9.678   3.834   2.415 -0.3435  0.4942 -0.1995
 4561SOL     OW19518   0.024   1.813   2.721  0.0307  0.2613  0.2967
 4561SOL    HW119519  -0.026   1.800   2.802 -0.4494  1.4502  0.2176
 4561SOL    HW219520   0.038   1.725   2.687  0.3190 -0.2720  1.7141
 4562SOL     OW19521   7.491   1.990   3.941  0.5820  0.2151  0.6646
 4562SOL    HW119522   7.454   2.076   3.923  2.3546  0.7702 -0.6750
 4562SOL    HW219523   7.418   1.929   3.930 -0.3707  1.4056  0.1622
 4563SOL     OW19524   1.773   0.579   3.050  0.0466  0.6696 -0.5778
 4563SOL    HW119525   1.750   0.500   3.001 -4.1003 -0.2316  2.2471
 4563SOL    HW219526   1.703   0.641   3.030  1.1429  2.2048  0.1507
 4564SOL     OW19527   9.365   2.795   4.870 -0.6993  0.0181 -0.2274
 4564SOL    HW119528   9.312   2.815   4.947 -0.5253 -4.0089  1.1693
 4564SOL    HW219529   9.311   2.736   4.818  1.2155 -1.8908 -0.1985
 4565SOL     OW19530   5.070   8.186  10.592 -0.4268  0.9047 -0.2330
 4565SOL    HW119531   5.008   8.231  10.649  0.1924  1.9836 -0.3755
 4565SOL    HW219532   5.156   8.203  10.632 -0.1761 -0.2171 -0.2612
 4566SOL     OW19533   2.601   6.039   6.477 -0.3196  0.2425 -0.0927
 4566SOL    HW119534   2.527   6.052   6.536 -0.0883  0.3087  0.1879
 4566SOL    HW219535   2.565   5.992   6.402 -0.5255 -0.2796  0.3238
 4567SOL     OW19536   2.155   2.283   3.523 -0.6116 -0.2349  0.5001
 4567SOL    HW119537   2.134   2.191   3.512 -1.6505  0.0609 -0.1401
 4567SOL    HW219538   2.174   2.314   3.435  0.4729 -0.0011  0.8070
 4568SOL     OW19539   0.989   3.752   8.062 -0.6840 -0.3207  0.1725
 4568SOL    HW119540   1.065   3.695   8.054 -0.6855 -0.2645 -0.2888
 4568SOL    HW219541   1.000   3.797   8.145 -1.2722 -1.8520  1.1163
 4569SOL     OW19542   5.497   4.483   8.567  0.4223  0.7469 -1.2124
 4569SOL    HW119543   5.535   4.571   8.564 -0.2671  1.1739  1.0039
 4569SOL    HW219544   5.494   4.461   8.660 -3.1990  0.0931 -1.3438
 4570SOL     OW19545   7.664   4.717   5.558  0.3432  0.5281  0.0359
 4570SOL    HW119546   7.643   4.776   5.631 -1.1702  2.4055 -1.7990
 4570SOL    HW219547   7.660   4.630   5.597  0.1868  1.4649  2.3198
 4571SOL     OW19548   0.134   1.114   2.989 -0.1164  0.0516  0.4138
 4571SOL    HW119549   0.073   1.113   2.915  0.1788  2.4334  0.0674
 4571SOL    HW219550   0.199   1.047   2.967 -1.8769 -1.7110  0.2236
 4572SOL     OW19551   7.827   3.104   3.107  0.3404  0.1113 -0.1402
 4572SOL    HW119552   7.905   3.149   3.137  0.6963 -0.8744  0.4380
 4572SOL    HW219553   7.859   3.029   3.057 -0.1964 -0.8887  0.9585
 4573SOL     OW19554   6.718   1.594   6.986  0.3311  0.1822 -0.3426
 4573SOL    HW119555   6.692   1.502   6.976  0.3207  0.0827  0.5136
 4573SOL    HW219556   6.659   1.628   7.053  0.3969  0.7926 -0.5907
 4574SOL     OW19557   8.270   3.630   6.955 -0.2021 -0.2809  0.0188
 4574SOL    HW119558   8.297   3.720   6.942 -0.4737 -0.2338 -0.2610
 4574SOL    HW219559   8.328   3.596   7.023  1.0627 -0.4160 -1.0899
 4575SOL     OW19560   1.798   2.963   0.495  0.1185  0.5020 -0.5222
 4575SOL    HW119561   1.747   2.914   0.559 -2.3470  2.4783 -0.8354
 4575SOL    HW219562   1.836   3.036   0.544  0.9725  0.1900 -0.7023
 4576SOL     OW19563   7.697   5.692   2.448 -0.0153 -0.0867 -0.5310
 4576SOL    HW119564   7.710   5.684   2.543  1.8387 -0.5368 -0.7833
 4576SOL    HW219565   7.640   5.768   2.438 -0.8412 -0.4604  0.9726
 4577SOL     OW19566  10.770   7.628   5.556  0.4223  0.2571 -0.0266
 4577SOL    HW119567  10.718   7.605   5.634 -1.0478 -0.4717 -1.1678
 4577SOL    HW219568  10.839   7.685   5.589 -1.7191  2.1557  1.4457
 4578SOL     OW19569   4.318   4.777   3.238  0.6602  0.1056  0.2972
 4578SOL    HW119570   4.338   4.691   3.200  1.3465  0.1879  0.4476
 4578SOL    HW219571   4.245   4.810   3.187  0.9388 -0.2064 -0.3112
 4579SOL     OW19572   5.485   1.448   3.006  0.3878  0.0059  0.5100
 4579SOL    HW119573   5.395   1.464   3.034 -0.0189  0.5022 -0.9977
 4579SOL    HW219574   5.528   1.533   3.013  1.4951 -0.6672  3.5690
 4580SOL     OW19575  10.726   2.145   2.684 -0.1196 -0.1962  0.4541
 4580SOL    HW119576  10.699   2.086   2.613 -2.0939  0.7844  0.3384
 4580SOL    HW219577  10.785   2.208   2.641 -0.4534 -0.2523 -0.0982
 4581SOL     OW19578   4.779  10.208   2.934 -0.4907 -0.0697  0.4638
 4581SOL    HW119579   4.855  10.164   2.896 -2.7242 -1.3884 -2.9370
 4581SOL    HW219580   4.718  10.137   2.954 -1.4320  1.0530  1.7343
 4582SOL     OW19581   0.984  10.089   3.431  0.0287 -0.4207  0.2334
 4582SOL    HW119582   1.062  10.128   3.471  0.8184 -0.1981 -1.4169
 4582SOL    HW219583   0.934  10.164   3.400  1.2574 -0.5685 -2.4135
 4583SOL     OW19584   3.926   2.241   5.809 -0.2690 -0.4563 -0.7647
 4583SOL    HW119585   3.851   2.287   5.846  0.9867 -1.2238  3.3685
 4583SOL    HW219586   3.888   2.171   5.757 -2.5502 -1.1526  1.6080
 4584SOL     OW19587   5.331   5.695   9.997  0.6558 -0.6491  0.3111
 4584SOL    HW119588   5.272   5.694  10.072  0.1662  0.9938 -0.0286
 4584SOL    HW219589   5.381   5.614  10.005 -0.7979 -1.4927  1.2774
 4585SOL     OW19590   1.558   7.601   1.916  0.3221  0.0918  0.2384
 4585SOL    HW119591   1.501   7.664   1.959  0.3851 -0.1164  0.6338
 4585SOL    HW219592   1.646   7.636   1.928  0.3427  0.0148  0.3138
 4586SOL     OW19593   4.813   0.871   7.033  0.0833  0.6409 -0.1857
 4586SOL    HW119594   4.861   0.927   7.094 -0.8775  0.8274  0.4085
 4586SOL    HW219595   4.869   0.869   6.954  1.8245 -0.4084  1.0089
 4587SOL     OW19596  10.799   2.259   0.521  0.1783 -0.0841  0.0716
 4587SOL    HW119597  10.858   2.199   0.567  0.5923 -0.1684 -0.5566
 4587SOL    HW219598  10.767   2.209   0.446 -1.5939 -0.4194  1.0163
 4588SOL     OW19599   7.559   1.388   7.772 -0.0467  0.2631  0.0617
 4588SOL    HW119600   7.558   1.452   7.843  0.3979  0.2749  0.0622
 4588SOL    HW219601   7.508   1.428   7.703 -0.9193  0.0321  0.5591
 4589SOL     OW19602   7.598   5.663   4.454 -0.0929  0.4845  0.1817
 4589SOL    HW119603   7.511   5.670   4.416  0.8265  2.0573 -1.8889
 4589SOL    HW219604   7.655   5.641   4.380  1.7356  3.2246  0.6115
 4590SOL     OW19605   1.251   8.790   8.554 -0.2018  0.2088  0.0739
 4590SOL    HW119606   1.304   8.722   8.512 -0.4525 -0.6342  1.0786
 4590SOL    HW219607   1.311   8.865   8.563  0.6837 -0.5357  0.6796
 4591SOL     OW19608   7.170   4.542   3.548  0.1468  0.4540  0.0308
 4591SOL    HW119609   7.259   4.561   3.520  0.6363  0.2626  1.3605
 4591SOL    HW219610   7.118   4.613   3.511  0.8024  0.4219 -0.9840
 4592SOL     OW19611  10.271   9.485   9.396  0.3741  0.0590 -0.3833
 4592SOL    HW119612  10.353   9.526   9.369 -0.4584  0.8030 -1.9114
 4592SOL    HW219613  10.211   9.558   9.410  0.1917 -0.4264  1.6188
 4593SOL     OW19614   4.879   9.423   2.245  1.0506  0.3472 -0.1495
 4593SOL    HW119615   4.923   9.342   2.221  0.3986 -0.1968  0.4452
 4593SOL    HW219616   4.868   9.471   2.163 -0.0172 -0.9046 -0.7744
 4594SOL     OW19617   4.284   0.631   0.276  0.3138  0.6199  0.0414
 4594SOL    HW119618   4.200   0.656   0.315  0.8919  2.4380  0.2234
 4594SOL    HW219619   4.321   0.713   0.244  1.3005 -0.3764 -1.5035
 4595SOL     OW19620  10.334   6.057   6.293 -0.3261 -0.1230  0.0880
 4595SOL    HW119621  10.319   5.991   6.360  1.2038 -0.3541  0.2381
 4595SOL    HW219622  10.284   6.027   6.218 -1.0718 -0.5002  0.7216
 4596SOL     OW19623  10.701   9.157   7.478  0.4954 -0.7192 -0.2445
 4596SOL    HW119624  10.695   9.063   7.461  0.2449 -0.6901 -0.3166
 4596SOL    HW219625  10.718   9.164   7.572  1.1447 -0.8572 -0.3469
 4597SOL     OW19626  10.386  10.866   4.429  0.0875 -0.7259  0.2261
 4597SOL    HW119627  10.457  10.844   4.369  0.9875  0.1581  0.9246
 4597SOL    HW219628  10.310  10.878   4.373  0.2479 -2.5381 -0.4681
 4598SOL     OW19629   2.851   0.880   8.219 -0.1523 -0.9101 -0.7154
 4598SOL    HW119630   2.848   0.960   8.271 -0.8840 -1.4041  0.0356
 4598SOL    HW219631   2.944   0.856   8.216 -0.0955 -0.8567  0.3513
 4599SOL     OW19632  10.294   2.404   7.790 -0.4266  0.4909 -0.2832
 4599SOL    HW119633  10.361   2.440   7.732 -0.1370  2.4235  1.1575
 4599SOL    HW219634  10.343   2.343   7.846 -0.4164 -0.1587 -0.9708
 4600SOL     OW19635   0.188   9.887   2.164 -0.1386  1.0171 -0.0400
 4600SOL    HW119636   0.132   9.884   2.241  0.3899 -0.3500  0.3134
 4600SOL    HW219637   0.277   9.880   2.199  0.1026  0.2214 -0.7738
 4601SOL     OW19638   5.887   1.863   1.974  0.2739 -0.1583  0.5974
 4601SOL    HW119639   5.956   1.909   2.020  1.3621 -0.8886 -0.2635
 4601SOL    HW219640   5.837   1.931   1.928  1.5123  0.2269 -0.2085
 4602SOL     OW19641   0.363   8.495   0.976 -0.6140 -0.4701 -0.4418
 4602SOL    HW119642   0.343   8.571   1.030  0.5942  0.6818 -1.5280
 4602SOL    HW219643   0.458   8.485   0.984 -0.6112 -1.1520 -1.2274
 4603SOL     OW19644   6.765   0.442   6.548 -0.0881 -0.5163  0.5817
 4603SOL    HW119645   6.704   0.376   6.583  0.6740 -1.5083  0.0955
 4603SOL    HW219646   6.825   0.459   6.621  2.6675 -3.9770 -0.5572
 4604SOL     OW19647   8.751   3.087   7.614  0.2435 -0.1152  0.0811
 4604SOL    HW119648   8.810   3.162   7.608  0.4780 -0.2791  0.3360
 4604SOL    HW219649   8.677   3.118   7.666  0.4638 -0.1351  0.4121
 4605SOL     OW19650   5.251   8.749   3.310  0.2353 -0.2616  0.4764
 4605SOL    HW119651   5.160   8.758   3.283  0.6488  0.6214 -0.6848
 4605SOL    HW219652   5.295   8.827   3.276  1.1211  0.1483  2.4019
 4606SOL     OW19653   4.917   2.380   7.385 -0.1307  0.7381  0.5065
 4606SOL    HW119654   4.945   2.305   7.437 -1.1364 -1.8306 -2.3741
 4606SOL    HW219655   4.987   2.393   7.322 -1.4181 -0.1223 -1.2000
 4607SOL     OW19656   2.385   3.745   1.500 -0.5353 -0.0680 -0.2762
 4607SOL    HW119657   2.428   3.663   1.525 -0.1777  0.3827  0.6582
 4607SOL    HW219658   2.291   3.726   1.508 -0.4447 -0.2130  0.5592
 4608SOL     OW19659   1.428   2.358   0.456 -0.5886 -0.3718 -0.1338
 4608SOL    HW119660   1.377   2.395   0.383 -1.1462 -0.4569  0.2063
 4608SOL    HW219661   1.363   2.345   0.525 -0.1402 -0.7121  0.2206
 4609SOL     OW19662   1.481   3.913   3.175  0.0292 -1.0237 -0.5258
 4609SOL    HW119663   1.488   3.906   3.080  1.1467 -0.5742 -0.4879
 4609SOL    HW219664   1.556   3.966   3.202  0.3246 -2.0209  0.7229
 4610SOL     OW19665   1.929  10.742   3.917  0.6259  0.1523 -0.3649
 4610SOL    HW119666   2.012  10.778   3.950  1.2441 -1.6199  0.1510
 4610SOL    HW219667   1.869  10.750   3.991  1.1255 -0.9924  0.1853
 4611SOL     OW19668   2.751   2.255   6.754  0.0684  0.5795  0.1621
 4611SOL    HW119669   2.839   2.241   6.788 -0.3249  0.0715  0.9910
 4611SOL    HW219670   2.737   2.181   6.694  1.0149  1.8292 -1.7129
 4612SOL     OW19671   5.049   4.035   3.720 -0.3596 -0.2635  0.3583
 4612SOL    HW119672   5.082   4.086   3.795  2.2774  0.1430 -0.9444
 4612SOL    HW219673   4.980   4.090   3.683 -0.2748  0.4978  1.2824
 4613SOL     OW19674   8.375   8.015   7.730  0.2339  0.4840  0.0087
 4613SOL    HW119675   8.429   8.029   7.808  0.2775  1.2153 -0.1459
 4613SOL    HW219676   8.362   8.103   7.694 -0.5030  0.2426 -0.3292
 4614SOL     OW19677   1.190   2.965   9.981  0.2999  0.5268 -0.4683
 4614SOL    HW119678   1.274   2.977  10.025  0.6412  1.7609 -1.3743
 4614SOL    HW219679   1.135   2.919  10.044  0.9543  1.6688  0.9835
 4615SOL     OW19680   2.574   3.892   2.563  0.0531  0.3313  0.2171
 4615SOL    HW119681   2.641   3.960   2.571 -0.3128  0.6149  0.9473
 4615SOL    HW219682   2.491   3.940   2.562 -0.1244  0.1289 -2.4317
 4616SOL     OW19683   6.727   5.932  10.639 -0.3896  0.1267  0.7338
 4616SOL    HW119684   6.706   5.980  10.719 -1.4521  1.1084 -0.0977
 4616SOL    HW219685   6.773   5.854  10.669 -2.7449 -0.7064  2.5399
 4617SOL     OW19686   7.642   8.494   1.548  0.0003  0.1509 -0.3415
 4617SOL    HW119687   7.556   8.526   1.574 -0.1039 -0.8111  0.5836
 4617SOL    HW219688   7.697   8.572   1.546  0.0699  0.3749  3.1137
 4618SOL     OW19689   7.282   7.454   0.400 -1.0380  0.1788  0.7896
 4618SOL    HW119690   7.338   7.508   0.344 -0.3077  0.0002  1.3329
 4618SOL    HW219691   7.343   7.411   0.460 -1.5485 -1.6006  0.0943
 4619SOL     OW19692   1.354   2.904   9.436  0.1434  0.1176  0.8009
 4619SOL    HW119693   1.287   2.853   9.390  2.1443 -0.9390 -1.1148
 4619SOL    HW219694   1.325   2.903   9.528 -1.7940 -1.3338  0.2511
 4620SOL     OW19695  10.059  10.285   7.668  0.0484 -0.2495 -0.2668
 4620SOL    HW119696   9.976  10.312   7.707  1.4513  0.9630  2.1320
 4620SOL    HW219697  10.077  10.351   7.602 -0.3266  0.1733  0.0448
 4621SOL     OW19698   6.780   1.000   1.730  0.0999  0.4608  0.3567
 4621SOL    HW119699   6.856   1.057   1.745  1.1761 -1.0365  0.8482
 4621SOL    HW219700   6.722   1.017   1.804 -0.3581  2.0408 -0.3211
 4622SOL     OW19701  10.181   1.664   2.519  0.8200  0.0655  0.2672
 4622SOL    HW119702  10.251   1.692   2.460 -0.4629  0.2726 -1.1907
 4622SOL    HW219703  10.124   1.740   2.526  0.0842 -0.4942  0.4586
 4623SOL     OW19704   0.034   4.047   0.878 -0.0032 -0.2703 -0.0012
 4623SOL    HW119705   0.103   3.983   0.896  0.8664  0.0517 -1.9078
 4623SOL    HW219706  -0.047   3.998   0.890  0.6058 -1.2622  0.2062
 4624SOL     OW19707   8.894   3.647   6.890  0.2093  0.6978 -0.0969
 4624SOL    HW119708   8.956   3.652   6.963 -0.5574  1.2630  0.5395
 4624SOL    HW219709   8.897   3.556   6.862  1.4030  0.7438 -0.1518
 4625SOL     OW19710   9.009   1.833   5.943 -0.3108  0.2395  0.9881
 4625SOL    HW119711   9.020   1.800   6.032  1.4310 -1.2721  0.2736
 4625SOL    HW219712   8.927   1.796   5.913  1.0163 -2.6560  0.6201
 4626SOL     OW19713   4.214   4.180   9.557 -0.2244  0.6532 -0.4208
 4626SOL    HW119714   4.271   4.242   9.601 -0.3337 -0.0489  0.7475
 4626SOL    HW219715   4.171   4.231   9.488  2.0287  1.1424 -1.5817
 4627SOL     OW19716   0.517   9.389   0.625  0.3412 -0.0945 -1.0367
 4627SOL    HW119717   0.434   9.373   0.580  0.8193 -0.3245 -1.8506
 4627SOL    HW219718   0.561   9.304   0.626 -0.2799 -0.4706  1.2124
 4628SOL     OW19719   7.537   5.067   2.758  0.5619 -0.5623 -0.1736
 4628SOL    HW119720   7.526   5.082   2.664 -0.3828 -0.6460 -0.0805
 4628SOL    HW219721   7.622   5.107   2.778  1.0230 -0.9802 -1.1550
 4629SOL     OW19722   4.651  10.396  10.475  0.2151  0.5862 -0.0283
 4629SOL    HW119723   4.583  10.456  10.446  1.3398  0.6679 -2.8484
 4629SOL    HW219724   4.623  10.310  10.443  0.6925  0.3480  0.1801
 4630SOL     OW19725   9.517   3.085   4.313  0.1736 -0.2068 -0.0565
 4630SOL    HW119726   9.585   3.021   4.290 -1.0693 -0.9446 -1.8982
 4630SOL    HW219727   9.476   3.107   4.230 -1.6173  0.5043  0.9587
 4631SOL     OW19728   0.733   2.937   5.492 -0.2886 -0.4858  0.4618
 4631SOL    HW119729   0.778   3.019   5.513 -1.2551  0.5640 -1.3213
 4631SOL    HW219730   0.646   2.946   5.531 -1.2485  0.4529 -1.7150
 4632SOL     OW19731  10.404   7.912   6.976  0.3246 -0.4317 -0.5389
 4632SOL    HW119732  10.473   7.846   6.970  0.1916 -0.7216  0.6999
 4632SOL    HW219733  10.327   7.864   7.008 -0.1968  0.0491 -1.0494
 4633SOL     OW19734   4.875   1.081   9.371 -0.5026 -0.3299  0.3179
 4633SOL    HW119735   4.839   1.015   9.311  1.5744 -1.0383 -0.2415
 4633SOL    HW219736   4.861   1.164   9.327  1.0652 -0.8419 -1.2750
 4634SOL     OW19737   8.588   6.518   8.563  0.0966 -0.3753  0.4586
 4634SOL    HW119738   8.549   6.606   8.559 -1.9218 -1.2341 -0.2143
 4634SOL    HW219739   8.679   6.533   8.587  0.5442  2.0895 -2.2388
 4635SOL     OW19740   5.384   8.313   3.481 -0.1354  0.7288  0.1344
 4635SOL    HW119741   5.421   8.313   3.569  0.2273  0.1697 -0.0111
 4635SOL    HW219742   5.364   8.221   3.463  0.2196  0.7709 -0.5373
 4636SOL     OW19743   1.947   7.662   0.241  0.1266  0.2891  0.2024
 4636SOL    HW119744   1.856   7.676   0.268  0.3499  1.3701  0.4515
 4636SOL    HW219745   1.965   7.736   0.182  0.5783 -0.3959 -0.5383
 4637SOL     OW19746   8.876   1.164   5.455 -0.5927 -0.6267  0.5144
 4637SOL    HW119747   8.893   1.096   5.390 -1.9205 -0.9892  0.5333
 4637SOL    HW219748   8.952   1.222   5.448 -2.0555  1.1272 -3.5818
 4638SOL     OW19749   0.283   0.583   7.254 -0.1009 -0.2041  0.3756
 4638SOL    HW119750   0.348   0.635   7.206  0.7352 -0.4856  1.1609
 4638SOL    HW219751   0.335   0.515   7.298 -0.8413 -0.0109  1.6018
 4639SOL     OW19752  10.220   0.368   6.900 -0.1122 -0.2621  0.3104
 4639SOL    HW119753  10.261   0.446   6.937 -0.7514 -0.1446  0.7671
 4639SOL    HW219754  10.221   0.383   6.805 -0.7805  0.5781  0.4273
 4640SOL     OW19755   3.242   6.907   6.246  0.3789 -0.5491 -0.0088
 4640SOL    HW119756   3.182   6.932   6.315 -0.2998 -0.6821 -0.5454
 4640SOL    HW219757   3.186   6.879   6.174  1.0478  0.3663 -0.9189
 4641SOL     OW19758  10.431   8.014  10.601  0.1055 -0.1691  0.2602
 4641SOL    HW119759  10.477   8.057  10.673 -0.6462  1.6201 -0.2685
 4641SOL    HW219760  10.489   8.023  10.526 -0.8868  1.8356 -0.3385
 4642SOL     OW19761   2.286   1.252   9.777 -0.1823  0.1985  0.5940
 4642SOL    HW119762   2.310   1.342   9.797 -1.2516  0.1479  2.3033
 4642SOL    HW219763   2.333   1.232   9.696 -0.8165  2.6548 -0.4651
 4643SOL     OW19764   1.766   6.616   2.154  0.3885  0.2533  0.0227
 4643SOL    HW119765   1.719   6.546   2.198  1.5388 -1.3041 -1.1109
 4643SOL    HW219766   1.699   6.682   2.135 -0.9653 -1.0693  0.0660
 4644SOL     OW19767   0.938   7.626  10.291  0.6980 -0.2795  0.0485
 4644SOL    HW119768   0.919   7.669  10.207 -0.3787  0.5622  0.6930
 4644SOL    HW219769   0.960   7.536  10.268  1.3836  0.1891 -1.2137
 4645SOL     OW19770   6.301   2.173   3.503  0.0487  0.2429  0.8479
 4645SOL    HW119771   6.217   2.211   3.530 -1.1919 -1.2817 -0.6787
 4645SOL    HW219772   6.277   2.099   3.448  2.4115  0.3019 -0.3722
 4646SOL     OW19773   4.257   4.996   3.379  0.0423 -0.8939 -0.2290
 4646SOL    HW119774   4.341   5.033   3.405 -1.1452  2.6776 -0.9721
 4646SOL    HW219775   4.278   4.906   3.352  3.4482 -0.3889  0.2913
 4647SOL     OW19776   0.409  10.543  10.351 -0.2397 -0.0000 -0.3589
 4647SOL    HW119777   0.391  10.623  10.302 -2.5496 -0.5883 -0.5845
 4647SOL    HW219778   0.353  10.477  10.311  1.4322 -1.7112 -0.0257
 4648SOL     OW19779  10.670   3.218   0.908 -0.3764 -0.4737 -0.0449
 4648SOL    HW119780  10.641   3.305   0.881  0.2513 -0.2532 -0.0274
 4648SOL    HW219781  10.591   3.164   0.906 -1.2204  0.5828  2.0533
 4649SOL     OW19782   6.674   5.471   8.049 -0.3232  0.0144 -0.3059
 4649SOL    HW119783   6.745   5.467   7.985 -0.6263 -2.5272 -0.5608
 4649SOL    HW219784   6.654   5.564   8.056  1.5329  0.5958 -1.8766
 4650SOL     OW19785   0.614   8.436   7.628 -0.0592  0.4981 -0.0304
 4650SOL    HW119786   0.567   8.442   7.711 -2.7621 -2.3829 -1.1534
 4650SOL    HW219787   0.553   8.473   7.563  0.0606 -1.3341 -1.2522
 4651SOL     OW19788   5.398   5.088   7.072 -0.4711  0.0486  0.2102
 4651SOL    HW119789   5.480   5.093   7.120 -0.6012  0.2985  0.4095
 4651SOL    HW219790   5.331   5.081   7.140 -0.3885 -4.7254  0.1052
 4652SOL     OW19791   6.161   9.018   4.679 -0.1724  0.1809  0.3279
 4652SOL    HW119792   6.099   8.947   4.694 -0.6065  0.0533 -1.7523
 4652SOL    HW219793   6.120   9.095   4.719 -1.4811 -0.0022 -0.6204
 4653SOL     OW19794   6.772   0.598   2.997  0.1504 -0.2823 -0.3883
 4653SOL    HW119795   6.857   0.557   2.980  0.3016  0.4902 -1.5970
 4653SOL    HW219796   6.727   0.596   2.913 -0.8868 -0.3372  0.1573
 4654SOL     OW19797   1.758   7.361   2.261  0.0868  0.2974 -0.3522
 4654SOL    HW119798   1.744   7.281   2.312 -0.8789  0.3564 -0.4991
 4654SOL    HW219799   1.722   7.340   2.174 -1.2855  1.2680 -0.0478
 4655SOL     OW19800   5.361   7.891   6.484 -0.0009  0.2781  0.4055
 4655SOL    HW119801   5.378   7.867   6.393 -0.4763 -0.6141  0.5420
 4655SOL    HW219802   5.326   7.980   6.480  1.2015  0.7429 -0.1715
 4656SOL     OW19803   2.999   7.144   7.585 -0.7350  0.5377 -0.5830
 4656SOL    HW119804   3.085   7.108   7.604 -0.9764  0.6948  0.9526
 4656SOL    HW219805   2.943   7.068   7.570 -0.0711  0.4432 -3.1445
 4657SOL     OW19806   3.354   5.963   6.866  0.6105  0.5164  0.0726
 4657SOL    HW119807   3.401   5.892   6.911 -1.0777 -0.5713  0.1920
 4657SOL    HW219808   3.284   5.987   6.926  0.9548  2.1143 -0.1096
 4658SOL     OW19809   7.261   6.693   2.297  0.3432  0.3387 -0.3395
 4658SOL    HW119810   7.282   6.601   2.317  1.2638  0.6837  0.3305
 4658SOL    HW219811   7.167   6.692   2.281  0.1979 -0.5988  0.4432
 4659SOL     OW19812   3.613   2.749   6.506 -0.0584  0.1700  0.0793
 4659SOL    HW119813   3.583   2.834   6.474  0.9631  0.5976  0.2030
 4659SOL    HW219814   3.693   2.769   6.555 -1.3633 -0.4695  2.6520
 4660SOL     OW19815   4.302   1.571   7.339 -0.5772 -0.1911  0.2109
 4660SOL    HW119816   4.249   1.590   7.262  0.1149 -0.0964 -0.2543
 4660SOL    HW219817   4.390   1.602   7.316 -0.7070  1.4172  1.6730
 4661SOL     OW19818   2.337   0.314   5.250  0.0894 -0.5924 -0.5920
 4661SOL    HW119819   2.355   0.407   5.259 -1.1651 -0.3998  0.2138
 4661SOL    HW219820   2.336   0.281   5.340 -0.9937 -1.0662 -0.7596
 4662SOL     OW19821   5.833   5.335   0.574 -0.0985 -0.0074 -0.1373
 4662SOL    HW119822   5.849   5.393   0.500 -0.1882  0.8320  0.4983
 4662SOL    HW219823   5.917   5.329   0.619  0.3167 -1.5736 -1.0205
 4663SOL     OW19824   0.352   4.383   7.483 -0.3255 -0.6334 -0.1503
 4663SOL    HW119825   0.293   4.359   7.555 -0.9536  0.0319 -0.4340
 4663SOL    HW219826   0.297   4.376   7.404  0.3921 -1.5056 -0.5921
 4664SOL     OW19827   1.918   9.427   3.191  0.6619 -0.7145 -0.0287
 4664SOL    HW119828   1.862   9.503   3.179  1.0527 -0.5081 -0.6074
 4664SOL    HW219829   1.942   9.401   3.102  0.8782 -1.2528  0.1836
 4665SOL     OW19830  10.383   1.115   9.984  0.1566  0.0613  0.5917
 4665SOL    HW119831  10.423   1.087   9.901 -1.8845 -0.5273 -0.2547
 4665SOL    HW219832  10.441   1.185  10.016  0.2863  1.2959 -2.0587
 4666SOL     OW19833   3.083   6.740   6.107  0.1155  0.2078  0.6093
 4666SOL    HW119834   3.128   6.695   6.035 -3.0340 -1.8362 -0.3075
 4666SOL    HW219835   3.091   6.680   6.181 -1.4846 -0.5153  0.2485
 4667SOL     OW19836   3.107   5.109   6.435 -0.1910  0.3164 -0.4458
 4667SOL    HW119837   3.033   5.053   6.459  0.9732 -1.0102  0.1861
 4667SOL    HW219838   3.085   5.195   6.471 -1.3987 -0.0561 -0.2458
 4668SOL     OW19839   6.256   6.403  10.327 -0.1607 -0.4263  0.1738
 4668SOL    HW119840   6.230   6.494  10.311 -0.4781 -0.6833 -0.8768
 4668SOL    HW219841   6.349   6.408  10.349  0.3299  0.0099 -1.8002
 4669SOL     OW19842  10.895   5.668   8.880  0.0323  0.1596  0.0623
 4669SOL    HW119843  10.876   5.575   8.880  0.7602  0.0001  0.0372
 4669SOL    HW219844  10.814   5.710   8.853 -0.4274 -0.4347  0.4963
 4670SOL     OW19845   4.014   7.222   5.048  0.0989  0.3317  0.0506
 4670SOL    HW119846   4.005   7.225   5.143 -1.8170  2.3963 -0.1146
 4670SOL    HW219847   4.042   7.133   5.029  2.2504  0.3346  2.6453
 4671SOL     OW19848   6.679   1.919   1.278  0.8921  0.3004  0.2952
 4671SOL    HW119849   6.671   1.899   1.185 -0.1758 -3.1431  0.9906
 4671SOL    HW219850   6.772   1.906   1.297  1.3393  2.1338 -0.4293
 4672SOL     OW19851  10.123   1.797  10.436 -0.1461  0.0724 -0.3949
 4672SOL    HW119852  10.204   1.745  10.432 -0.1316  0.0987 -0.4363
 4672SOL    HW219853  10.067   1.749  10.497 -0.3091 -0.2380 -0.7866
 4673SOL     OW19854   6.488   1.464  10.078 -0.4198  0.7867 -0.6989
 4673SOL    HW119855   6.511   1.552  10.049  1.6586 -0.1142 -1.9953
 4673SOL    HW219856   6.475   1.473  10.173  1.4312  2.2032 -0.5268
 4674SOL     OW19857   9.243   0.836   4.663 -0.4028  0.1186 -0.0060
 4674SOL    HW119858   9.290   0.752   4.664  1.9448  1.3622  1.5237
 4674SOL    HW219859   9.200   0.837   4.577  0.8144 -1.9472 -0.7275
 4675SOL     OW19860   6.493   9.023   0.130 -0.8489 -0.9412 -0.0068
 4675SOL    HW119861   6.586   9.003   0.120 -0.7684 -1.0265  0.8104
 4675SOL    HW219862   6.471   9.076   0.053 -0.0825 -0.7662 -0.1136
 4676SOL     OW19863   6.667   8.672   7.479  0.5086 -0.5247  0.6126
 4676SOL    HW119864   6.708   8.729   7.544  0.2672  0.1804  0.1606
 4676SOL    HW219865   6.590   8.637   7.523 -0.3880  0.9703  0.3199
 4677SOL     OW19866   4.035   2.595   5.046 -0.5458  0.3366  0.8413
 4677SOL    HW119867   4.114   2.542   5.040 -2.2208 -2.2541 -0.3716
 4677SOL    HW219868   4.064   2.678   5.083  2.8706 -0.1164 -0.4750
 4678SOL     OW19869   6.792   1.539   4.513 -0.3208 -0.4870 -0.1055
 4678SOL    HW119870   6.813   1.452   4.482  1.4828  0.2575 -1.0851
 4678SOL    HW219871   6.836   1.599   4.453 -0.4686  1.0919  1.2533
 4679SOL     OW19872  10.283   2.889   2.016  0.2301 -0.2888 -0.7442
 4679SOL    HW119873  10.199   2.930   2.038  0.5423  0.5478 -1.0712
 4679SOL    HW219874  10.347   2.960   2.021  0.9355 -0.9286 -0.4479
 4680SOL     OW19875   5.457  10.831   3.394 -0.2684 -0.3651 -0.1322
 4680SOL    HW119876   5.530  10.783   3.355  0.4284 -0.0604  0.7629
 4680SOL    HW219877   5.461  10.809   3.487 -0.5066  0.7003  0.1392
 4681SOL     OW19878   2.412  10.422   1.719  0.0698 -0.2280  0.2848
 4681SOL    HW119879   2.335  10.365   1.715  0.8193 -1.2370 -0.3782
 4681SOL    HW219880   2.469  10.389   1.650  0.5559  1.3156 -0.0789
 4682SOL     OW19881  10.149   0.254  10.161  0.8716  0.4464  0.4127
 4682SOL    HW119882  10.060   0.225  10.181  0.5927  0.5594 -0.6010
 4682SOL    HW219883  10.193   0.258  10.246 -0.0501  0.2676  0.9085
 4683SOL     OW19884   7.818   2.458   7.072 -0.1479 -0.5665  0.1762
 4683SOL    HW119885   7.784   2.432   6.987  3.1022 -1.4613 -0.9805
 4683SOL    HW219886   7.848   2.377   7.113 -3.8217 -0.6073  3.4780
 4684SOL     OW19887  10.796   8.664   2.168  0.2909 -0.2033  0.5170
 4684SOL    HW119888  10.749   8.748   2.171 -0.5849 -0.5914 -0.9837
 4684SOL    HW219889  10.819   8.653   2.075  0.7820 -1.4140  0.7647
 4685SOL     OW19890   8.337   4.380   9.394 -0.6284  0.1018 -0.4056
 4685SOL    HW119891   8.428   4.349   9.396 -0.3424  0.8536 -1.3902
 4685SOL    HW219892   8.287   4.307   9.430  0.4544  0.0334  1.0944
 4686SOL     OW19893   1.568   9.671  10.686 -0.5247  0.4510  0.2514
 4686SOL    HW119894   1.558   9.685  10.780 -0.5785  0.1847  0.2868
 4686SOL    HW219895   1.493   9.714  10.647  0.2573  1.8366  0.2124
 4687SOL     OW19896  10.713   3.512   7.229 -0.4384  0.0536 -0.4393
 4687SOL    HW119897  10.645   3.577   7.210 -0.8437 -0.4288 -0.6496
 4687SOL    HW219898  10.794   3.553   7.196 -0.6959  0.4263 -0.6222
 4688SOL     OW19899   0.745   0.761   5.638  0.0736 -0.3299  0.0838
 4688SOL    HW119900   0.744   0.826   5.708  0.7953 -0.7514  0.4939
 4688SOL    HW219901   0.659   0.719   5.643 -0.1180  0.0856  0.2958
 4689SOL     OW19902   8.860  10.658   0.559 -0.0267  0.6122  0.1123
 4689SOL    HW119903   8.854  10.719   0.632 -0.0351  2.1112 -1.0769
 4689SOL    HW219904   8.794  10.689   0.497  0.0068 -0.5936 -0.5568
 4690SOL     OW19905   3.467  10.369   0.842 -0.0940  0.1566  0.7451
 4690SOL    HW119906   3.470  10.388   0.936  1.1863 -1.8962  1.1765
 4690SOL    HW219907   3.415  10.288   0.836  0.5853 -0.2179 -0.2104
 4691SOL     OW19908   1.512   2.073   1.941  0.0541  0.3888  0.3898
 4691SOL    HW119909   1.420   2.080   1.915  0.0305  1.1806  0.6713
 4691SOL    HW219910   1.545   2.163   1.938  0.5945  0.2242  1.1154
 4692SOL     OW19911   2.274   6.361   1.079 -0.0445  0.2240  0.0349
 4692SOL    HW119912   2.352   6.362   1.025 -0.4614  1.5447 -0.5983
 4692SOL    HW219913   2.224   6.285   1.050  0.0099  0.5907 -1.0407
 4693SOL     OW19914   7.803   5.136  10.596  0.2001  0.1449 -0.2230
 4693SOL    HW119915   7.827   5.173  10.681  0.8344 -1.3932  0.3056
 4693SOL    HW219916   7.742   5.199  10.559  1.6849  2.0280  0.3394
 4694SOL     OW19917   9.463   0.281   9.876 -0.3935 -0.2561  0.1892
 4694SOL    HW119918   9.513   0.343   9.929  0.1663 -1.3882  1.0200
 4694SOL    HW219919   9.479   0.196   9.917  0.2724 -1.2213 -1.9586
 4695SOL     OW19920  10.027   5.660   0.233  0.3826 -0.1148  0.0464
 4695SOL    HW119921  10.017   5.746   0.275  0.5221 -0.8371  1.6521
 4695SOL    HW219922   9.988   5.599   0.295  1.9635 -1.4039 -0.1665
 4696SOL     OW19923   5.234   8.149   7.777 -0.7771  0.2313 -0.2214
 4696SOL    HW119924   5.212   8.058   7.757  1.4276 -0.4090  0.0721
 4696SOL    HW219925   5.232   8.193   7.692 -1.8928 -0.0567 -0.3610
 4697SOL     OW19926   3.325   0.650   9.889 -0.2590 -0.0685 -0.3875
 4697SOL    HW119927   3.417   0.654   9.866  0.3066 -0.2916  1.6414
 4697SOL    HW219928   3.291   0.737   9.867  1.1464  1.0219  1.3910
 4698SOL     OW19929   5.406   4.987   2.103 -0.3200  0.0113  0.2979
 4698SOL    HW119930   5.349   5.029   2.166  0.8185  0.1068  1.3080
 4698SOL    HW219931   5.348   4.955   2.034 -1.6828 -0.8621  1.8149
 4699SOL     OW19932   4.223   7.035   7.790  0.5480 -0.1925  0.2438
 4699SOL    HW119933   4.230   7.129   7.777 -0.8545 -0.3791 -2.8629
 4699SOL    HW219934   4.159   7.025   7.861 -1.0588  1.2795 -0.8940
 4700SOL     OW19935   2.969   4.334  10.787  0.0724  0.3044 -0.2822
 4700SOL    HW119936   2.907   4.405  10.806 -2.0172 -1.2859 -0.7209
 4700SOL    HW219937   2.927   4.256  10.823  2.5479 -0.6811  0.6588
 4701SOL     OW19938   5.273   7.350   7.700  0.1960  0.6151 -0.6428
 4701SOL    HW119939   5.316   7.377   7.782 -1.8704 -0.6595  0.9846
 4701SOL    HW219940   5.339   7.298   7.654  1.3096  1.0562  0.4026
 4702SOL     OW19941   9.458   5.249   9.615  0.8359 -0.2411  0.2623
 4702SOL    HW119942   9.396   5.317   9.642  1.9740  0.5360  1.0219
 4702SOL    HW219943   9.460   5.189   9.689  1.0286 -0.2248  0.2710
 4703SOL     OW19944   9.963   1.728   8.402 -0.0813 -0.0367  0.5666
 4703SOL    HW119945   9.978   1.641   8.438  0.2096 -0.2657 -0.0896
 4703SOL    HW219946  10.034   1.782   8.437  1.1205 -0.6245 -0.8649
 4704SOL     OW19947   2.480   9.047   2.651  0.2562  0.3476 -0.2838
 4704SOL    HW119948   2.388   9.070   2.665  0.5325  0.3309  1.7866
 4704SOL    HW219949   2.489   8.959   2.688  1.0922  0.3136 -0.5389
 4705SOL     OW19950   6.408   1.176  10.775  0.2271  0.1627 -0.4631
 4705SOL    HW119951   6.374   1.239  10.838 -0.8492 -0.5893 -0.2684
 4705SOL    HW219952   6.402   1.092  10.820  1.7518 -0.0968 -0.6732
 4706SOL     OW19953   9.577   3.846   6.939  0.7175  0.8051 -0.5926
 4706SOL    HW119954   9.566   3.812   6.850  1.4511 -0.7223 -0.1426
 4706SOL    HW219955   9.530   3.783   6.995  1.2431  1.0900  0.1855
 4707SOL     OW19956   3.094   3.361   1.393 -0.0747  0.6833 -0.0598
 4707SOL    HW119957   3.171   3.406   1.427  1.2935  2.0191 -4.3243
 4707SOL    HW219958   3.026   3.428   1.390 -0.8079  0.0695  1.6444
 4708SOL     OW19959   5.853   8.505   1.238 -0.3437  0.1338 -0.2456
 4708SOL    HW119960   5.805   8.467   1.312 -1.6163  0.4228 -0.8884
 4708SOL    HW219961   5.910   8.435   1.207  0.1375 -0.0276  0.9270
 4709SOL     OW19962   9.475   5.727   5.558 -0.0346  0.4120  0.1574
 4709SOL    HW119963   9.429   5.689   5.633 -0.3490 -1.5943 -0.9883
 4709SOL    HW219964   9.407   5.736   5.491  0.4998  0.9647 -0.3166
 4710SOL     OW19965   6.778   6.612   4.250 -0.3223  0.0859  0.3426
 4710SOL    HW119966   6.690   6.646   4.264 -0.4248 -0.2611  0.5644
 4710SOL    HW219967   6.834   6.670   4.302 -0.5042 -0.1195  0.7801
 4711SOL     OW19968   6.558   9.894   2.015 -0.2714  0.7936  0.0056
 4711SOL    HW119969   6.576   9.862   1.927  1.1796  0.7867  0.2843
 4711SOL    HW219970   6.577   9.988   2.011  0.3688  0.6890  0.4441
 4712SOL     OW19971   6.994   4.703   4.104  0.2741  0.3337  0.3016
 4712SOL    HW119972   6.909   4.671   4.073  0.2310 -0.1593  0.8943
 4712SOL    HW219973   7.030   4.629   4.154  0.3593  1.0621  1.3549
 4713SOL     OW19974   0.354   6.381   1.553 -0.0689 -0.5326 -0.1569
 4713SOL    HW119975   0.432   6.407   1.602  1.1371 -2.4511 -0.9342
 4713SOL    HW219976   0.377   6.397   1.461 -0.6189 -0.9844 -0.3809
 4714SOL     OW19977   6.107  10.342   7.286 -0.1478  0.3836  0.0082
 4714SOL    HW119978   6.096  10.432   7.318  1.9332  0.8016 -0.3554
 4714SOL    HW219979   6.177  10.347   7.222 -2.5223 -0.8620 -2.9448
 4715SOL     OW19980   5.929   0.088   4.243 -0.1693  0.1550 -0.2428
 4715SOL    HW119981   6.015   0.123   4.267  0.3585 -0.3509 -1.3185
 4715SOL    HW219982   5.922   0.106   4.150 -0.8754 -0.5519 -0.3282
 4716SOL     OW19983   5.580   2.637   9.886 -0.2036 -0.5272 -0.0836
 4716SOL    HW119984   5.597   2.559   9.832  0.6486 -0.8797  0.6592
 4716SOL    HW219985   5.662   2.651   9.934  0.1342  1.6205 -1.1749
 4717SOL     OW19986   7.892   3.639   8.240  0.7240  0.5789  0.3846
 4717SOL    HW119987   7.943   3.667   8.316  2.1848 -0.2670 -0.2334
 4717SOL    HW219988   7.891   3.715   8.183 -0.3950  1.2244  1.2278
 4718SOL     OW19989   7.431   2.847   5.428 -0.3864 -0.1552  0.1933
 4718SOL    HW119990   7.389   2.860   5.343  1.4298  1.0116 -0.5963
 4718SOL    HW219991   7.483   2.926   5.442 -0.8433 -0.1938  2.5508
 4719SOL     OW19992   0.572   1.398  10.098 -0.1172  0.1305 -0.0585
 4719SOL    HW119993   0.584   1.320  10.045  0.3529 -0.7928  1.3503
 4719SOL    HW219994   0.661   1.432  10.112 -0.1203 -0.2913  1.0662
 4720SOL     OW19995   8.519   8.257   1.770 -0.4476 -0.8736  0.1048
 4720SOL    HW119996   8.514   8.167   1.737 -2.9894 -0.3793 -1.1566
 4720SOL    HW219997   8.476   8.253   1.856 -3.2219 -0.5106 -1.1344
 4721SOL     OW19998   6.927   3.374   2.044 -0.1692  0.2577 -0.2422
 4721SOL    HW119999   6.838   3.405   2.032 -0.6263 -1.3181 -1.1723
 4721SOL    HW220000   6.943   3.314   1.971  1.2852 -0.2789  0.4571
 4722SOL     OW20001   4.461   5.778   7.725  0.1823 -0.1092 -0.3086
 4722SOL    HW120002   4.518   5.707   7.694  0.0092  0.3044 -1.6081
 4722SOL    HW220003   4.515   5.856   7.721 -0.2368  0.1568 -0.7914
 4723SOL     OW20004   0.207   8.145   6.559  0.9031 -0.1942  0.4562
 4723SOL    HW120005   0.115   8.126   6.544  1.1441 -1.2922  0.2427
 4723SOL    HW220006   0.229   8.213   6.496 -0.0898  1.1151  1.4696
 4724SOL     OW20007   2.790   1.570   8.755 -0.1670  0.3871  0.0935
 4724SOL    HW120008   2.770   1.502   8.690 -1.5971 -1.0225  1.9025
 4724SOL    HW220009   2.712   1.626   8.756 -0.6720 -0.2910  1.3572
 4725SOL     OW20010  10.454   5.075   7.368  0.3840 -0.4418  0.5256
 4725SOL    HW120011  10.410   5.013   7.426 -2.4144  0.6647 -0.2759
 4725SOL    HW220012  10.466   5.026   7.286 -0.7516 -0.2932  0.2655
 4726SOL     OW20013   0.836  10.545   0.999 -0.4510 -0.3574  0.3940
 4726SOL    HW120014   0.884  10.555   1.081  0.4201  2.7792 -0.3662
 4726SOL    HW220015   0.893  10.584   0.932 -1.5823 -1.8457 -1.5780
 4727SOL     OW20016  10.109   0.746   2.051 -0.1983 -0.2204  0.4769
 4727SOL    HW120017  10.088   0.819   2.110  2.5469  1.1274 -0.0660
 4727SOL    HW220018  10.192   0.711   2.084  1.1639  0.2393 -2.2082
 4728SOL     OW20019   8.867   8.958   3.827  0.0245  0.2074  0.6703
 4728SOL    HW120020   8.895   8.984   3.739 -3.3243  1.8177 -0.0888
 4728SOL    HW220021   8.892   9.032   3.882 -1.5064  1.0977  0.2239
 4729SOL     OW20022   1.628   5.269   6.621  0.0229  0.0948  0.4124
 4729SOL    HW120023   1.618   5.281   6.715  0.3090  0.2556  0.4275
 4729SOL    HW220024   1.673   5.349   6.592 -0.6800  0.3630  0.0293
 4730SOL     OW20025   1.284   4.625   1.013  0.2017  0.3682 -0.2420
 4730SOL    HW120026   1.243   4.616   1.099  1.7270 -0.2411  0.4465
 4730SOL    HW220027   1.303   4.535   0.986  0.4842  0.6047 -0.8377
 4731SOL     OW20028   7.617   9.787   4.768 -0.0197  0.1943 -0.3091
 4731SOL    HW120029   7.710   9.761   4.770 -0.1010 -0.2789 -1.7289
 4731SOL    HW220030   7.574   9.726   4.829  0.6737  0.8547  0.8924
 4732SOL     OW20031   0.422   8.148   6.105 -0.4227  0.4070 -0.6810
 4732SOL    HW120032   0.402   8.097   6.183 -0.1315  0.1762 -0.7562
 4732SOL    HW220033   0.517   8.141   6.095 -0.7494 -3.2043 -3.4742
 4733SOL     OW20034   2.870   0.048   3.411 -0.3544  0.1672 -0.3504
 4733SOL    HW120035   2.778   0.020   3.418 -0.0748 -1.2101 -1.6652
 4733SOL    HW220036   2.920  -0.029   3.438  0.4443  0.8621  0.2060
 4734SOL     OW20037   5.978   3.677   6.421 -0.5635 -0.3966 -0.1480
 4734SOL    HW120038   6.059   3.717   6.453 -1.4364 -0.4611  2.3314
 4734SOL    HW220039   5.934   3.747   6.373 -0.1510  0.3904  0.5954
 4735SOL     OW20040   7.525  10.179   5.949 -0.5101 -0.3244 -0.1012
 4735SOL    HW120041   7.528  10.251   5.886  1.5061  1.5392  1.9436
 4735SOL    HW220042   7.448  10.198   6.003  0.2497  0.5745  0.6907
 4736SOL     OW20043   8.062   3.276   3.132 -0.0585  0.1102 -0.0327
 4736SOL    HW120044   8.018   3.350   3.090  0.3127 -0.0079 -0.6448
 4736SOL    HW220045   8.036   3.281   3.224 -0.1152  0.9471 -0.0885
 4737SOL     OW20046   7.514   6.178   3.168  0.1288  0.4271 -0.3216
 4737SOL    HW120047   7.603   6.208   3.190  0.2278 -1.4239  2.0756
 4737SOL    HW220048   7.521   6.151   3.076  0.9096  4.1428 -1.5315
 4738SOL     OW20049   2.717   6.126   5.121  0.0356 -0.3317 -0.2355
 4738SOL    HW120050   2.632   6.085   5.106 -0.9171  1.2864  0.4874
 4738SOL    HW220051   2.730   6.119   5.216  0.0813  0.5749 -0.1667
 4739SOL     OW20052  10.892   5.641   7.135  0.3768 -0.1071  0.4837
 4739SOL    HW120053  10.904   5.624   7.041  0.3366  0.1714  0.4278
 4739SOL    HW220054  10.968   5.601   7.176  2.3595  2.8500  0.0169
 4740SOL     OW20055   7.128   8.034   5.576  0.0286 -0.6001  0.5151
 4740SOL    HW120056   7.196   8.007   5.514 -0.5844  1.6819 -1.2791
 4740SOL    HW220057   7.166   8.109   5.622 -1.2162  0.7286 -0.5378
 4741SOL     OW20058   4.978   4.198  10.636  0.1271  0.2203  0.2560
 4741SOL    HW120059   4.915   4.134  10.601  2.3013 -1.3337 -1.1284
 4741SOL    HW220060   4.935   4.236  10.712 -1.4286 -2.7404  0.9974
 4742SOL     OW20061  10.332   9.977   7.958  0.0260 -0.4310 -0.4451
 4742SOL    HW120062  10.390   9.982   8.035 -0.3904 -0.5864 -0.1210
 4742SOL    HW220063  10.256  10.031   7.982  0.3931  0.4523 -1.1895
 4743SOL     OW20064   8.886   4.453   4.785 -0.2545 -0.3225 -0.4110
 4743SOL    HW120065   8.839   4.503   4.851  2.1858  0.2244  1.0173
 4743SOL    HW220066   8.870   4.361   4.808  0.0771 -0.1397  0.5476
 4744SOL     OW20067   7.686   3.237   8.004 -0.1083 -0.6416 -0.0117
 4744SOL    HW120068   7.713   3.326   7.981  0.5208 -0.3889  1.5560
 4744SOL    HW220069   7.766   3.196   8.037 -0.6733 -1.3581  0.4959
 4745SOL     OW20070   7.291   9.877   6.439  0.0429 -0.0360  0.4879
 4745SOL    HW120071   7.342   9.894   6.359 -0.6096  0.0957  0.0910
 4745SOL    HW220072   7.335   9.928   6.507  1.7218 -1.5910  0.6499
 4746SOL     OW20073  10.608   6.840  10.213  0.1205  0.6716 -0.1373
 4746SOL    HW120074  10.603   6.851  10.118  0.0584 -0.4810 -0.2784
 4746SOL    HW220075  10.700   6.822  10.231 -0.1577 -1.0054 -0.2233
 4747SOL     OW20076   5.493   4.859   5.290 -0.4554 -0.1491  0.0252
 4747SOL    HW120077   5.504   4.916   5.214  2.7351  2.3188  2.0716
 4747SOL    HW220078   5.419   4.896   5.338  0.2271  0.9761  0.2383
 4748SOL     OW20079   8.768   1.381  10.147 -0.0694  0.5946  0.3602
 4748SOL    HW120080   8.857   1.379  10.112 -0.4477  0.7448 -0.6620
 4748SOL    HW220081   8.712   1.376  10.069 -0.9659 -0.7777  1.0610
 4749SOL     OW20082   9.927   7.720   0.815 -0.9018  0.5677 -0.2360
 4749SOL    HW120083   9.999   7.777   0.842 -1.2263  0.3365  1.1711
 4749SOL    HW220084   9.871   7.776   0.761 -0.6001  1.2418  0.1474
 4750SOL     OW20085   4.723   4.999  10.690  0.4314 -0.2506  0.2869
 4750SOL    HW120086   4.643   5.046  10.666  0.1507 -0.0449  1.5727
 4750SOL    HW220087   4.692   4.924  10.742  0.9154 -1.5266 -1.1643
 4751SOL     OW20088   6.689   2.364  10.163  0.1311 -0.1903 -0.1543
 4751SOL    HW120089   6.688   2.325  10.250  0.4801 -0.0203 -0.0710
 4751SOL    HW220090   6.778   2.397  10.153 -0.5030  1.8044  0.3259
 4752SOL     OW20091   4.793  10.368   6.481 -0.1585  0.1104 -0.4045
 4752SOL    HW120092   4.864  10.374   6.416 -0.6629  1.9887 -0.8322
 4752SOL    HW220093   4.750  10.285   6.461  2.3868 -1.5173  0.3926
 4753SOL     OW20094   3.624   1.337   0.225  0.5139 -0.5396  0.0621
 4753SOL    HW120095   3.698   1.299   0.272  1.0141  0.4272  0.0832
 4753SOL    HW220096   3.662   1.410   0.176 -0.2552 -0.6564 -0.7205
 4754SOL     OW20097   4.539   9.523   5.023  0.2243  0.1834 -0.2995
 4754SOL    HW120098   4.470   9.462   4.995  0.8441 -0.6659 -0.0054
 4754SOL    HW220099   4.615   9.468   5.040  0.8710  1.0687 -0.2360
 4755SOL     OW20100   7.046   5.575   8.767  0.0470  0.3444  0.3928
 4755SOL    HW120101   7.065   5.481   8.761 -1.4359  0.0654 -0.2356
 4755SOL    HW220102   7.040   5.604   8.676 -0.7012  0.7938  0.5763
 4756SOL     OW20103  10.569   9.595   3.036  0.1214 -0.0490  0.2473
 4756SOL    HW120104  10.609   9.644   2.964 -0.5786 -1.0697 -0.8724
 4756SOL    HW220105  10.490   9.644   3.058  0.4003  0.3318  0.4104
 4757SOL     OW20106   0.185   7.224   8.063  0.4260  0.0165  0.6110
 4757SOL    HW120107   0.229   7.289   8.118  1.9765  0.2805 -0.8562
 4757SOL    HW220108   0.171   7.270   7.980 -3.0029  0.0521  1.0822
 4758SOL     OW20109   5.220   2.600  10.633  0.1312  0.0014  0.1076
 4758SOL    HW120110   5.180   2.674  10.586 -0.3902 -1.1032 -1.2774
 4758SOL    HW220111   5.239   2.634  10.720 -1.1029  1.4453 -0.1414
 4759SOL     OW20112   0.748  10.303   0.023 -0.5724  0.4786  0.1432
 4759SOL    HW120113   0.804  10.327  -0.050 -0.7125  1.2481  0.2751
 4759SOL    HW220114   0.659  10.318  -0.009 -0.6315  0.8791  0.4825
 4760SOL     OW20115   8.008   1.513   8.994 -0.4791  0.4732  0.3139
 4760SOL    HW120116   8.087   1.567   9.001 -0.1659  0.7455 -3.4137
 4760SOL    HW220117   7.940   1.575   8.968 -1.8768  0.1168  2.8077
 4761SOL     OW20118   7.834   3.756   7.832  0.6289  0.0011 -0.6120
 4761SOL    HW120119   7.921   3.731   7.864 -0.5381 -0.6325  2.4360
 4761SOL    HW220120   7.833   3.851   7.840  1.6512  0.2466 -2.6356
 4762SOL     OW20121   7.886   4.884  10.029 -0.1611 -0.3663 -0.0106
 4762SOL    HW120122   7.828   4.932  10.089 -0.5342 -0.6857 -0.1089
 4762SOL    HW220123   7.966   4.870  10.080 -0.5434 -0.7978  0.4871
 4763SOL     OW20124   6.397   3.354   5.122  0.2631 -0.3736 -0.1208
 4763SOL    HW120125   6.470   3.300   5.092  1.2961  0.7170  0.3583
 4763SOL    HW220126   6.430   3.400   5.198 -1.7146 -1.6533  1.6334
 4764SOL     OW20127   3.395   8.384   0.647  0.2534  0.4475 -0.6711
 4764SOL    HW120128   3.323   8.339   0.691  0.5390 -0.1058 -0.7578
 4764SOL    HW220129   3.453   8.313   0.618  0.3246  0.8335 -1.4973
 4765SOL     OW20130   1.222   7.956   2.104 -0.2165 -0.3416  0.6148
 4765SOL    HW120131   1.283   7.985   2.172  0.2992 -0.4167  0.1941
 4765SOL    HW220132   1.191   8.037   2.064 -0.5662 -0.2959  0.9796
 4766SOL     OW20133   4.479   3.173   7.572 -0.4572  0.3618 -0.3299
 4766SOL    HW120134   4.499   3.107   7.506  0.3163  0.6550 -0.4075
 4766SOL    HW220135   4.386   3.162   7.590 -0.2968 -0.8896 -0.1801
 4767SOL     OW20136   9.813   3.739   2.281 -0.3508 -0.2900  0.5591
 4767SOL    HW120137   9.882   3.676   2.300 -0.0163  0.3577  1.6099
 4767SOL    HW220138   9.757   3.696   2.217  0.6630 -1.0815  0.1880
 4768SOL     OW20139   2.153   2.340   9.100  0.5769  0.4054 -0.3448
 4768SOL    HW120140   2.216   2.292   9.047  1.7077  0.7763  0.6296
 4768SOL    HW220141   2.150   2.292   9.183  0.0498  0.7536 -0.1569
 4769SOL     OW20142   1.394   8.756   2.364  0.1241 -0.3048 -0.3792
 4769SOL    HW120143   1.324   8.696   2.389 -0.2342  0.2451 -0.0459
 4769SOL    HW220144   1.421   8.797   2.446  1.4998 -1.2055 -0.3526
 4770SOL     OW20145   6.009   8.036  10.005 -0.0485  0.6915  0.1270
 4770SOL    HW120146   5.923   8.055  10.043 -0.1900  0.0922  0.1274
 4770SOL    HW220147   6.071   8.076  10.065 -0.3262  1.1122  0.1385
 4771SOL     OW20148   0.480   2.030   6.683  0.3223  0.2928  0.2480
 4771SOL    HW120149   0.477   2.061   6.774 -0.4000  1.0269 -0.0183
 4771SOL    HW220150   0.564   2.062   6.650  1.3108 -1.2683  1.0850
 4772SOL     OW20151   4.494   5.370   0.094 -0.5574 -0.3241 -0.6643
 4772SOL    HW120152   4.480   5.352   0.187 -0.3824 -0.9977 -0.7600
 4772SOL    HW220153   4.410   5.403   0.063 -0.7028 -0.3717 -0.3274
 4773SOL     OW20154   1.443   5.169   8.641  0.1733  0.8308 -0.5467
 4773SOL    HW120155   1.355   5.208   8.638 -0.2164  0.2206  1.2842
 4773SOL    HW220156   1.443   5.104   8.572 -0.7069  1.0717 -0.7859
 4774SOL     OW20157  10.359   1.614  10.425  0.2457  0.7030 -0.8834
 4774SOL    HW120158  10.344   1.539  10.368 -0.5886 -0.3457  0.6385
 4774SOL    HW220159  10.433   1.588  10.480  0.3382  1.2436 -0.7460
 4775SOL     OW20160   5.426   7.252   6.364 -0.3172 -0.8985  0.3564
 4775SOL    HW120161   5.511   7.220   6.335 -0.2676  0.0932 -0.6326
 4775SOL    HW220162   5.445   7.299   6.446  0.9193  3.1394 -1.9683
 4776SOL     OW20163   4.292   4.100   1.378 -0.1480 -0.1550  0.0742
 4776SOL    HW120164   4.244   4.114   1.297 -1.1494 -0.5079  0.5859
 4776SOL    HW220165   4.237   4.140   1.446  1.1191  0.9780  0.4838
 4777SOL     OW20166   9.897   1.302   8.886  0.2697  0.0841 -0.2332
 4777SOL    HW120167   9.863   1.356   8.957  2.2319  0.6298  0.3356
 4777SOL    HW220168   9.873   1.213   8.910  0.1615  0.3475  0.6532
 4778SOL     OW20169   9.463   4.194   7.715  0.7620 -0.6925 -0.4318
 4778SOL    HW120170   9.445   4.283   7.745  2.2719 -0.8714  1.1960
 4778SOL    HW220171   9.403   4.140   7.765  0.5149 -0.6758 -0.7077
 4779SOL     OW20172   2.239   2.368   6.710  0.3441 -0.0404 -0.2133
 4779SOL    HW120173   2.190   2.286   6.719  0.2728 -0.0837 -0.9414
 4779SOL    HW220174   2.244   2.383   6.615  2.4059 -0.4425 -0.2173
 4780SOL     OW20175   2.813   0.881   0.562 -0.1763 -0.1849 -0.1308
 4780SOL    HW120176   2.854   0.861   0.646  1.0296  1.6096 -0.2264
 4780SOL    HW220177   2.779   0.969   0.572 -0.8402 -0.2940 -1.2515
 4781SOL     OW20178   7.668   6.318  10.541 -0.2821  0.0904 -0.6222
 4781SOL    HW120179   7.659   6.412  10.559 -0.4381 -0.2054  1.0860
 4781SOL    HW220180   7.647   6.308  10.449 -0.4781  1.7124 -0.7759
 4782SOL     OW20181   9.671   0.645   6.254 -0.3041 -0.3810 -0.6233
 4782SOL    HW120182   9.615   0.698   6.312  0.6338 -0.7082  0.6248
 4782SOL    HW220183   9.748   0.700   6.238  0.9258 -1.5089  1.1179
 4783SOL     OW20184  10.026   0.194   9.782 -0.0578 -0.1541 -0.3328
 4783SOL    HW120185   9.957   0.161   9.839 -0.8792  0.9158 -0.6677
 4783SOL    HW220186  10.018   0.143   9.702  1.8463 -2.4789  0.8374
 4784SOL     OW20187   3.438  10.693   1.386 -0.1880 -0.0488  0.5841
 4784SOL    HW120188   3.442  10.609   1.433  0.0597  0.9382  2.4157
 4784SOL    HW220189   3.446  10.759   1.455  0.8494  1.4848 -0.9391
 4785SOL     OW20190   8.440   7.303   5.508  0.1511 -0.0109 -0.2116
 4785SOL    HW120191   8.489   7.222   5.495 -0.9937 -1.0141  1.4143
 4785SOL    HW220192   8.500   7.359   5.559  0.9050  0.1725 -1.2578
 4786SOL     OW20193   0.498   8.910   4.100  0.1133  0.1630  0.1318
 4786SOL    HW120194   0.414   8.941   4.067  0.3173 -0.9257 -1.5654
 4786SOL    HW220195   0.561   8.976   4.071 -0.0351  0.5484  0.6707
 4787SOL     OW20196   0.439   8.097   8.396 -0.4564 -0.3401  0.0343
 4787SOL    HW120197   0.411   8.083   8.306  0.2687 -1.4233 -0.0398
 4787SOL    HW220198   0.359   8.123   8.442 -0.8983 -0.1046 -0.8479
 4788SOL     OW20199   4.430   8.064   9.117  0.2256 -0.2148  0.1190
 4788SOL    HW120200   4.429   7.976   9.080  0.0483  0.9235 -2.8258
 4788SOL    HW220201   4.496   8.059   9.186 -0.0246 -2.7063  0.2912
 4789SOL     OW20202   3.540   0.177   4.707 -0.1553 -0.0282 -0.3209
 4789SOL    HW120203   3.618   0.141   4.748 -0.2552  2.3061  2.1113
 4789SOL    HW220204   3.567   0.261   4.670 -1.5500  1.0522  0.9898
 4790SOL     OW20205   8.828  10.342   8.779  0.0545  0.8016  0.5750
 4790SOL    HW120206   8.835  10.251   8.749 -0.5713  1.1893 -0.8155
 4790SOL    HW220207   8.875  10.393   8.712  0.1445  1.5352  1.1871
 4791SOL     OW20208  10.596   4.188   0.003 -0.0853  0.1777  0.1707
 4791SOL    HW120209  10.544   4.217   0.078  0.1965 -2.0116  1.3269
 4791SOL    HW220210  10.531   4.160  -0.062 -0.3355  2.3391 -0.5709
 4792SOL     OW20211   3.430   5.048   8.046 -0.4125 -0.2855  0.6630
 4792SOL    HW120212   3.373   4.974   8.070 -1.7044  0.2453 -0.6326
 4792SOL    HW220213   3.420   5.110   8.118  0.3634 -1.1887  1.5650
 4793SOL     OW20214   6.701   6.714   4.604 -0.6385 -0.1490  0.3329
 4793SOL    HW120215   6.649   6.634   4.592  2.3636 -2.1007 -0.8396
 4793SOL    HW220216   6.716   6.719   4.699 -0.4452 -1.3148  0.3771
 4794SOL     OW20217   0.638   0.215  10.672  0.6026 -0.5897 -0.2868
 4794SOL    HW120218   0.603   0.209  10.761  2.6437 -1.3408  0.5298
 4794SOL    HW220219   0.727   0.247  10.683  0.2781  1.2542 -2.2597
 4795SOL     OW20220   8.419   6.805   7.907  0.3841  0.4116 -0.7725
 4795SOL    HW120221   8.466   6.823   7.825  0.1287  0.6654 -0.8634
 4795SOL    HW220222   8.355   6.876   7.914  0.7412  0.6754 -0.0942
 4796SOL     OW20223   3.882   9.577   7.311 -0.4192  0.2862 -0.1717
 4796SOL    HW120224   3.972   9.554   7.337  0.8234  2.8892 -1.7210
 4796SOL    HW220225   3.863   9.657   7.359 -0.1989  2.0890 -2.8595
 4797SOL     OW20226   5.573   2.499   9.603 -0.3970  0.2924  0.3770
 4797SOL    HW120227   5.514   2.568   9.633 -0.5891 -0.6135  2.2167
 4797SOL    HW220228   5.516   2.434   9.562 -0.5661 -0.0683  1.1673
 4798SOL     OW20229   3.015   8.884   2.570  0.1147 -0.1848  0.8626
 4798SOL    HW120230   3.057   8.851   2.491  0.4967 -1.0916  1.4215
 4798SOL    HW220231   3.048   8.973   2.580  0.2686 -0.1595  0.1495
 4799SOL     OW20232   0.848   9.049   3.848 -0.1379  0.5535 -0.8951
 4799SOL    HW120233   0.896   9.077   3.770  2.9927  1.6526  1.2028
 4799SOL    HW220234   0.914   9.049   3.918 -2.6040 -0.9819  1.6627
 4800SOL     OW20235   7.319   7.659   2.659  0.1842  0.0418 -0.2646
 4800SOL    HW120236   7.399   7.645   2.711  0.2486  0.2077 -0.3189
 4800SOL    HW220237   7.284   7.742   2.691 -1.4529 -1.3077  1.6821
 4801SOL     OW20238   5.347   6.777   8.350  0.4342  0.3445  0.5842
 4801SOL    HW120239   5.253   6.796   8.354  0.4052  0.0331  2.7681
 4801SOL    HW220240   5.387   6.861   8.330 -0.3534  0.1247 -2.4029
 4802SOL     OW20241   1.233   3.824   8.832 -0.0392  0.0042  0.3701
 4802SOL    HW120242   1.137   3.821   8.840 -0.4701  0.2908 -3.2479
 4802SOL    HW220243   1.261   3.734   8.843 -0.8147 -0.2295  0.5121
 4803SOL     OW20244   8.021   1.186   6.609  0.2727 -0.0004  0.0054
 4803SOL    HW120245   8.004   1.114   6.670 -1.1501 -0.2358 -0.6367
 4803SOL    HW220246   8.050   1.142   6.529 -2.9654 -0.1122 -1.2288
 4804SOL     OW20247   0.329   1.393  10.584  0.8371 -0.4332 -0.4136
 4804SOL    HW120248   0.406   1.354  10.625  1.4050 -0.5718 -1.5811
 4804SOL    HW220249   0.255   1.343  10.619  1.1875  0.2325  1.3424
 4805SOL     OW20250   9.312   2.507   9.253  0.4747 -0.1791  0.0768
 4805SOL    HW120251   9.317   2.581   9.193 -0.0517 -3.4664 -4.5838
 4805SOL    HW220252   9.402   2.476   9.260  0.5382  0.2076  1.1296
 4806SOL     OW20253   5.346   7.072   0.385 -0.1517 -0.0774 -0.2761
 4806SOL    HW120254   5.287   7.099   0.315 -1.5067 -0.8775  0.5084
 4806SOL    HW220255   5.291   7.019   0.443  0.6329  1.3996  1.9453
 4807SOL     OW20256   7.166   6.879   2.948 -0.1417  0.1401 -0.0537
 4807SOL    HW120257   7.114   6.897   2.870 -2.1197  0.2985  1.2359
 4807SOL    HW220258   7.251   6.850   2.914 -1.3466 -1.0373 -2.2750
 4808SOL     OW20259   4.031   9.545   2.652 -0.4714  0.0033 -0.1919
 4808SOL    HW120260   4.071   9.507   2.573 -2.2706  0.6151 -1.4747
 4808SOL    HW220261   4.100   9.544   2.718  0.7684 -1.5678 -1.4484
 4809SOL     OW20262   9.587   2.046   9.684 -0.0084 -0.2261  0.5995
 4809SOL    HW120263   9.530   1.970   9.670  1.0269 -1.1963  1.4739
 4809SOL    HW220264   9.541   2.118   9.642 -2.6142 -0.6327  2.4951
 4810SOL     OW20265  10.550   9.008   7.867 -0.3633  0.0474  0.0938
 4810SOL    HW120266  10.472   9.032   7.818 -0.1778  0.6587  0.0929
 4810SOL    HW220267  10.584   9.091   7.900  0.9439 -0.0843 -0.8786
 4811SOL     OW20268   2.061   6.567   4.235  0.0664  0.3133  0.4937
 4811SOL    HW120269   2.012   6.486   4.218 -2.5533  1.5901  1.4698
 4811SOL    HW220270   2.099   6.554   4.322  1.7061 -0.7554 -0.3381
 4812SOL     OW20271   6.628   0.611   8.153  0.4981  0.0891  0.1494
 4812SOL    HW120272   6.536   0.614   8.181  0.0915  1.5142 -1.2066
 4812SOL    HW220273   6.667   0.691   8.188  0.6554  0.5541 -1.0257
 4813SOL     OW20274   5.160   0.851   7.749 -0.9058 -0.2656  0.3364
 4813SOL    HW120275   5.207   0.828   7.829  0.2339  1.2312  0.1428
 4813SOL    HW220276   5.090   0.910   7.777 -2.6025 -2.3054  0.5939
 4814SOL     OW20277   3.284  10.517   6.781  0.0130  0.7352  0.2986
 4814SOL    HW120278   3.323  10.484   6.700  1.2404 -1.7239  1.7767
 4814SOL    HW220279   3.312  10.608   6.785  3.2643 -0.1227 -0.1812
 4815SOL     OW20280   5.806   3.694   4.853 -0.0528 -0.1531 -0.1083
 4815SOL    HW120281   5.864   3.631   4.898 -0.0232 -0.0419  0.0104
 4815SOL    HW220282   5.769   3.644   4.780 -0.9666 -0.6800  0.6882
 4816SOL     OW20283   6.744   2.955   4.715 -0.1404  0.4172 -0.1162
 4816SOL    HW120284   6.801   2.967   4.638  0.4208 -2.7329 -0.3225
 4816SOL    HW220285   6.744   2.861   4.730 -2.2812  0.6983  2.2672
 4817SOL     OW20286   9.258   3.263  10.522  0.4048 -0.2694 -0.2853
 4817SOL    HW120287   9.180   3.245  10.470  0.1067  0.6641 -0.1816
 4817SOL    HW220288   9.252   3.202  10.596 -0.8095  0.5287  0.3057
 4818SOL     OW20289   2.053  10.016   4.085 -0.8847  0.0652  0.3429
 4818SOL    HW120290   1.972   9.981   4.121 -0.6678 -0.8013  0.0034
 4818SOL    HW220291   2.095   9.942   4.042 -0.2842  0.6793 -0.1617
 4819SOL     OW20292   5.759   3.098   1.236  1.0350 -0.1091 -0.6050
 4819SOL    HW120293   5.769   3.193   1.223 -0.8016  0.2378  0.2194
 4819SOL    HW220294   5.717   3.090   1.322  0.0797 -1.6078 -1.1820
 4820SOL     OW20295   9.802   7.098   3.739  0.0862  0.1032  0.6302
 4820SOL    HW120296   9.724   7.042   3.747  1.6450 -1.9488  3.1053
 4820SOL    HW220297   9.865   7.045   3.690  0.7656  0.6843  0.8515
 4821SOL     OW20298   8.403   0.372   9.076  0.2037 -0.0095 -0.1956
 4821SOL    HW120299   8.398   0.296   9.018  0.5512 -0.7084  0.6831
 4821SOL    HW220300   8.312   0.396   9.093  0.0833 -0.6149  0.0214
 4822SOL     OW20301   3.034   2.276   5.049  0.2457  0.2492  0.0251
 4822SOL    HW120302   3.076   2.308   4.969 -1.2974  0.2407 -0.8210
 4822SOL    HW220303   3.024   2.354   5.103 -0.0925  0.5329 -0.4384
 4823SOL     OW20304   2.975   2.592   6.020 -0.2350 -0.1767  0.2846
 4823SOL    HW120305   3.014   2.571   6.105 -0.0905 -0.0515  0.2481
 4823SOL    HW220306   2.882   2.574   6.032 -0.0724 -1.2031  0.1485
 4824SOL     OW20307   6.502   4.168   6.547  0.4490 -0.1846 -0.2623
 4824SOL    HW120308   6.445   4.176   6.624 -0.2891  0.2997 -0.8443
 4824SOL    HW220309   6.590   4.176   6.582  0.0901  1.2458  0.4079
 4825SOL     OW20310   3.090   5.576   8.832  0.2495 -0.1741 -0.6872
 4825SOL    HW120311   3.135   5.497   8.864  0.0901 -0.4988 -1.2467
 4825SOL    HW220312   3.141   5.604   8.757 -0.0124 -0.0691 -0.8274
 4826SOL     OW20313   8.432   2.472   0.755  0.3583 -0.1035  0.1182
 4826SOL    HW120314   8.459   2.448   0.666 -2.4485  0.3814 -0.9658
 4826SOL    HW220315   8.403   2.391   0.795  2.3022 -0.4494  0.9164
 4827SOL     OW20316   8.349   5.959   8.932 -0.0737  0.0750  0.0383
 4827SOL    HW120317   8.401   6.038   8.917 -0.3134  0.1845 -0.2396
 4827SOL    HW220318   8.412   5.887   8.928 -0.0217  0.1591 -0.8461
 4828SOL     OW20319   7.378   3.277   8.046  0.2528 -0.1102  0.2633
 4828SOL    HW120320   7.470   3.275   8.020 -0.3141 -1.4469 -1.9112
 4828SOL    HW220321   7.333   3.317   7.972 -1.2752 -2.5628 -0.2225
 4829SOL     OW20322   5.109   5.621   2.010 -0.1866 -0.5828 -0.3232
 4829SOL    HW120323   5.109   5.705   2.057 -2.2997 -1.0190  0.5388
 4829SOL    HW220324   5.158   5.562   2.067 -0.9945 -0.5966  0.3699
 4830SOL     OW20325   8.962   0.924   2.088  0.0505  0.2634  0.1516
 4830SOL    HW120326   8.946   0.897   2.178 -1.1461 -1.3499 -0.4869
 4830SOL    HW220327   8.976   0.842   2.040 -1.4274  0.9001 -1.4858
 4831SOL     OW20328   3.302   4.526   8.163 -0.3453  0.1448 -0.2693
 4831SOL    HW120329   3.373   4.474   8.126 -0.2974  0.3992 -0.5413
 4831SOL    HW220330   3.331   4.617   8.153 -0.7511  0.2544 -0.4819
 4832SOL     OW20331   1.833   6.505   4.597 -0.6070 -0.0045 -0.4443
 4832SOL    HW120332   1.871   6.592   4.592  3.6582 -1.5868  0.0817
 4832SOL    HW220333   1.805   6.496   4.688 -3.9532  1.6706 -1.1498
 4833SOL     OW20334   1.494   4.246   3.780  0.3235  0.7801  0.6923
 4833SOL    HW120335   1.443   4.322   3.810 -0.4700  0.0204  1.3443
 4833SOL    HW220336   1.582   4.279   3.767 -0.0981  1.9011  0.5975
 4834SOL     OW20337  10.842   0.754   5.598  0.0815  0.0807  0.0816
 4834SOL    HW120338  10.771   0.815   5.580 -0.2850 -0.0632  1.0113
 4834SOL    HW220339  10.844   0.746   5.693 -0.6479 -2.2250 -0.0133
 4835SOL     OW20340  10.679   9.835   8.430  0.1933  0.0519  0.4435
 4835SOL    HW120341  10.715   9.782   8.501 -1.1140  0.1894  1.2418
 4835SOL    HW220342  10.753   9.849   8.371  1.0712 -0.8934  1.2707
 4836SOL     OW20343   0.216   5.568   4.484 -0.0546 -0.6917 -0.2284
 4836SOL    HW120344   0.212   5.482   4.527 -0.8950  0.4961  2.2339
 4836SOL    HW220345   0.294   5.610   4.521 -0.7654  0.3540  0.1241
 4837SOL     OW20346   6.922  10.584   8.717  0.0184 -0.2771  0.7816
 4837SOL    HW120347   6.879  10.655   8.765  0.2693  1.0458 -0.8577
 4837SOL    HW220348   6.849  10.528   8.688 -0.3648  0.3457  0.5112
 4838SOL     OW20349   7.149   7.483  10.046  0.1661  0.6130 -0.5056
 4838SOL    HW120350   7.102   7.558  10.082  1.5706  2.2083 -1.8610
 4838SOL    HW220351   7.217   7.521   9.990  0.9872 -1.6689 -1.1727
 4839SOL     OW20352   7.662   6.201   7.008 -0.3779 -0.3400 -0.5890
 4839SOL    HW120353   7.676   6.207   7.103 -1.2979  1.9899 -0.5426
 4839SOL    HW220354   7.592   6.136   6.999 -1.5368  0.6841  0.5196
 4840SOL     OW20355   1.304   7.192   2.006  0.4082 -0.1355 -0.4368
 4840SOL    HW120356   1.228   7.250   1.997 -1.4818 -2.3223  0.3588
 4840SOL    HW220357   1.378   7.251   2.017 -1.0921  2.1230 -1.6066
 4841SOL     OW20358   0.196   0.681   3.753 -0.1810  0.2598  0.3888
 4841SOL    HW120359   0.162   0.768   3.772 -1.0086  0.3503 -1.3522
 4841SOL    HW220360   0.231   0.687   3.665  1.3905 -0.7300  0.8967
 4842SOL     OW20361   1.339   7.459  10.164 -0.3239 -0.7572 -0.8080
 4842SOL    HW120362   1.269   7.464  10.098  0.0343 -0.7369 -1.1909
 4842SOL    HW220363   1.293   7.443  10.246 -0.6600 -2.6183 -1.3295
 4843SOL     OW20364   3.038  10.908   8.005  0.3628 -0.5518  0.4311
 4843SOL    HW120365   2.990  10.959   7.940  1.7154  1.9832  1.2866
 4843SOL    HW220366   2.971  10.875   8.064 -0.5160  2.0484  1.0323
 4844SOL     OW20367   7.130   4.673   7.312  0.3188 -0.0505 -0.4517
 4844SOL    HW120368   7.084   4.755   7.330  0.3907 -0.1888  0.4165
 4844SOL    HW220369   7.222   4.698   7.305  0.3051 -0.0104 -0.4865
 4845SOL     OW20370   4.645   0.810   9.701 -0.7800  0.7520 -0.3717
 4845SOL    HW120371   4.628   0.716   9.699 -1.0806  0.8152 -1.2303
 4845SOL    HW220372   4.621   0.837   9.790 -1.6967  0.2013 -0.4354
 4846SOL     OW20373   1.951   6.473  10.553  0.1201  0.1538  0.1713
 4846SOL    HW120374   1.856   6.480  10.549  0.1559  0.3976 -0.3388
 4846SOL    HW220375   1.969   6.435  10.639 -0.3028  2.6169  1.4358
 4847SOL     OW20376   8.279   7.184   4.617  0.0317 -0.5169 -0.1954
 4847SOL    HW120377   8.271   7.258   4.677  1.3784 -0.2895 -0.2694
 4847SOL    HW220378   8.190   7.147   4.612 -0.2712 -0.0441  1.2746
 4848SOL     OW20379   8.009   5.364   6.662 -0.3638 -0.0440 -0.0159
 4848SOL    HW120380   8.007   5.318   6.578  1.8670  0.4924 -0.4444
 4848SOL    HW220381   7.969   5.449   6.644  0.6085  0.2826 -0.7129
 4849SOL     OW20382   5.762  10.044   1.700  0.4313  0.1219 -0.2478
 4849SOL    HW120383   5.788  10.136   1.697 -2.0418  0.9615  1.3757
 4849SOL    HW220384   5.718  10.034   1.784 -2.0015 -1.7902 -1.6141
 4850SOL     OW20385   4.724   6.505   5.028 -0.7941  0.2508  0.1401
 4850SOL    HW120386   4.696   6.502   4.937 -2.1177  1.5970  0.4664
 4850SOL    HW220387   4.675   6.578   5.066  1.0499  0.8614  1.5003
 4851SOL     OW20388   8.937   4.130   5.734 -0.2400 -0.2033  0.1741
 4851SOL    HW120389   8.898   4.210   5.768  0.2460  0.1434 -0.0801
 4851SOL    HW220390   9.023   4.156   5.702 -0.1968 -0.7672 -0.1915
 4852SOL     OW20391   7.354   4.843   1.567  0.4418  0.0859 -0.4046
 4852SOL    HW120392   7.326   4.867   1.478  0.1448  0.1163 -0.3025
 4852SOL    HW220393   7.347   4.924   1.617  0.7979  0.1138 -0.3995
 4853SOL     OW20394   9.145   5.697   4.556 -0.1415  0.2042  0.1883
 4853SOL    HW120395   9.088   5.654   4.621  0.5445 -0.4356  0.3753
 4853SOL    HW220396   9.165   5.783   4.595 -0.3405  0.1189  0.4808
 4854SOL     OW20397   5.991   8.246   6.630  0.2500 -0.1131  0.2032
 4854SOL    HW120398   5.917   8.198   6.669 -0.2473  0.9113  0.5628
 4854SOL    HW220399   5.993   8.329   6.678  3.1319 -1.0080  1.8844
 4855SOL     OW20400   5.166  10.191   8.314  0.1489  0.4482  0.0865
 4855SOL    HW120401   5.191  10.164   8.402  0.2588  1.7175  0.4626
 4855SOL    HW220402   5.172  10.286   8.315  0.9536  0.4650 -1.5340
 4856SOL     OW20403   5.386   4.842   4.171 -0.6688 -0.0915  0.3798
 4856SOL    HW120404   5.322   4.900   4.131 -0.0914  0.2468 -0.0542
 4856SOL    HW220405   5.338   4.800   4.243 -1.2827  0.3925  0.2589
 4857SOL     OW20406   0.328   8.014   5.871  0.5912 -0.2724  0.6306
 4857SOL    HW120407   0.232   8.014   5.869  0.5663 -1.7663  0.2110
 4857SOL    HW220408   0.351   8.084   5.932 -0.8494 -1.5439  2.7779
 4858SOL     OW20409   5.672  10.430   6.402 -0.2361 -0.0618 -0.1615
 4858SOL    HW120410   5.589  10.397   6.436 -0.7210  1.7926  0.5723
 4858SOL    HW220411   5.650  10.470   6.318  0.1878 -0.7221 -0.6066
 4859SOL     OW20412   9.577   6.644   3.759 -0.0164 -0.1737  0.5816
 4859SOL    HW120413   9.506   6.581   3.751 -1.1227  0.7760  2.3444
 4859SOL    HW220414   9.609   6.656   3.669 -2.5958 -0.0759 -0.4031
 4860SOL     OW20415   7.165   5.607   9.168  0.2099  0.4840  0.1933
 4860SOL    HW120416   7.179   5.668   9.240  0.3421  0.5818  0.0856
 4860SOL    HW220417   7.074   5.577   9.178  0.7796 -0.9248  1.4821
 4861SOL     OW20418   0.951   0.943   2.463 -0.4161  0.3292  0.3370
 4861SOL    HW120419   1.030   0.953   2.409 -0.9716 -0.0923 -0.5918
 4861SOL    HW220420   0.941   1.027   2.508 -0.8037  1.3133 -1.4629
 4862SOL     OW20421  10.738   8.163   9.550  0.0030  0.5119 -0.4612
 4862SOL    HW120422  10.784   8.134   9.472  1.7636  1.9848 -0.0477
 4862SOL    HW220423  10.791   8.132   9.623 -0.8804  0.3376  0.1307
 4863SOL     OW20424   5.130   5.389   0.686  0.1151  0.6214 -0.0503
 4863SOL    HW120425   5.145   5.465   0.742  1.4648 -0.1243  0.6384
 4863SOL    HW220426   5.216   5.366   0.651  0.0341 -1.4993  0.9745
 4864SOL     OW20427   1.361   7.653   0.367  0.2032  0.0748  0.2838
 4864SOL    HW120428   1.423   7.582   0.352 -0.3738 -0.7493  1.6278
 4864SOL    HW220429   1.280   7.624   0.324  0.7601  1.2488 -1.6681
 4865SOL     OW20430  10.856   0.144   8.520 -0.2735  0.0771  0.0969
 4865SOL    HW120431  10.872   0.112   8.608  0.3485  0.6459  0.2003
 4865SOL    HW220432  10.834   0.066   8.469  2.1572 -0.7083  0.0995
 4866SOL     OW20433  10.506   5.285   7.611 -0.3092  0.4480  0.1227
 4866SOL    HW120434  10.509   5.373   7.649 -0.3144 -0.7185  3.1840
 4866SOL    HW220435  10.443   5.238   7.665 -0.1090 -1.5201 -1.2507
 4867SOL     OW20436   5.098   8.075   1.670 -0.2195  0.0830  0.6929
 4867SOL    HW120437   5.060   8.022   1.600  1.7002  0.0785 -0.4219
 4867SOL    HW220438   5.116   8.160   1.629  1.1762 -0.0042  1.0709
 4868SOL     OW20439   8.170   1.496   6.563 -0.2860 -0.1194 -0.0746
 4868SOL    HW120440   8.256   1.526   6.591 -0.4292  1.7119 -1.4089
 4868SOL    HW220441   8.187   1.442   6.486 -0.3047  0.0091 -0.1694
 4869SOL     OW20442   4.280   2.014   3.822  0.2276 -0.2150  0.1248
 4869SOL    HW120443   4.278   2.066   3.741 -0.5244 -1.2580 -0.5417
 4869SOL    HW220444   4.191   2.019   3.856 -0.5125 -2.8110 -1.1302
 4870SOL     OW20445   2.804   4.101   5.465  0.4283 -0.3872 -0.6261
 4870SOL    HW120446   2.867   4.170   5.482 -1.1831  1.2782 -1.0758
 4870SOL    HW220447   2.753   4.133   5.390 -0.5786 -1.9233 -0.6412
 4871SOL     OW20448   6.743   2.130   5.954 -0.1839 -0.1280  0.1767
 4871SOL    HW120449   6.657   2.154   5.988 -0.2458  0.7112 -0.5197
 4871SOL    HW220450   6.796   2.209   5.966  0.2928 -0.4121 -0.0186
 4872SOL     OW20451  10.773   6.460   5.495 -0.8636 -0.0382 -0.5754
 4872SOL    HW120452  10.802   6.496   5.411  2.1934  1.1354  0.8676
 4872SOL    HW220453  10.776   6.534   5.556 -1.6012 -1.1738  0.9098
 4873SOL     OW20454   4.773   2.183   2.310 -0.0377  0.3836 -0.7692
 4873SOL    HW120455   4.804   2.148   2.394  0.2252 -1.5773 -1.6337
 4873SOL    HW220456   4.827   2.139   2.244 -2.0600 -0.2299 -2.1209
 4874SOL     OW20457   6.754   6.521   0.879  0.1407 -0.2323 -0.3104
 4874SOL    HW120458   6.828   6.579   0.861  1.4430 -1.4864  0.7197
 4874SOL    HW220459   6.738   6.531   0.973 -0.8458 -0.1790 -0.4722
 4875SOL     OW20460   1.865   5.751   9.879  0.1782 -0.9799 -0.4006
 4875SOL    HW120461   1.953   5.721   9.857  1.3086  0.6725  1.5395
 4875SOL    HW220462   1.853   5.830   9.826 -0.1083 -1.1243 -0.5574
 4876SOL     OW20463   4.103   9.619   7.475 -0.2911 -0.1769  0.0853
 4876SOL    HW120464   4.128   9.557   7.543  0.2950  0.7906  0.7721
 4876SOL    HW220465   4.083   9.700   7.522 -2.6209 -0.2598 -0.6355
 4877SOL     OW20466   2.519   1.136   6.820  0.0652 -0.1434 -0.2260
 4877SOL    HW120467   2.613   1.153   6.813  0.0033  0.5179  0.4224
 4877SOL    HW220468   2.488   1.138   6.730  1.1466 -3.3760 -0.7848
 4878SOL     OW20469   8.049  10.385   3.704  0.5601  0.1349  0.1563
 4878SOL    HW120470   8.142  10.409   3.711  0.5376  0.0358  0.8607
 4878SOL    HW220471   8.024  10.413   3.616  1.3456 -0.1332 -0.1647
 4879SOL     OW20472   2.504   0.856   9.275 -0.6537  0.0636  0.3965
 4879SOL    HW120473   2.584   0.842   9.325 -0.8645  0.7895  0.9588
 4879SOL    HW220474   2.436   0.810   9.324 -0.5145 -0.9154 -0.3114
 4880SOL     OW20475   2.471   1.899   2.555 -0.9902  0.9204  0.1388
 4880SOL    HW120476   2.421   1.978   2.575 -0.2339  1.6534 -0.7763
 4880SOL    HW220477   2.561   1.929   2.544 -0.1786 -0.4443  2.3008
 4881SOL     OW20478   0.679   4.828   2.282 -0.2730  0.2727 -0.0537
 4881SOL    HW120479   0.634   4.901   2.239  0.2940  0.3162 -0.5769
 4881SOL    HW220480   0.620   4.754   2.271 -0.0667  0.2439 -1.0565
 4882SOL     OW20481   9.641   8.376  10.317  0.1218  0.3811  0.5780
 4882SOL    HW120482   9.633   8.286  10.285 -0.3254  0.4966  0.3583
 4882SOL    HW220483   9.578   8.381  10.389 -1.9876  1.3221 -1.2210
 4883SOL     OW20484   8.985   0.957   5.322 -0.3025  1.0273 -0.5891
 4883SOL    HW120485   8.965   0.866   5.343 -1.0234  0.9124 -1.6844
 4883SOL    HW220486   9.080   0.963   5.331 -0.4621  0.7899  1.7675
 4884SOL     OW20487   1.245   3.509   6.760  0.0140 -0.0116  0.1854
 4884SOL    HW120488   1.210   3.565   6.691  0.5573  0.7532  0.5174
 4884SOL    HW220489   1.334   3.542   6.775 -0.2801  0.2093  1.6332
 4885SOL     OW20490   3.178   5.094   2.869 -0.1977 -0.1008 -0.1206
 4885SOL    HW120491   3.185   5.036   2.944  0.0059 -0.6031 -0.5239
 4885SOL    HW220492   3.139   5.041   2.800  1.8642 -0.4123 -1.1320
 4886SOL     OW20493   2.520   0.685   4.632  0.3743  0.0785  0.5033
 4886SOL    HW120494   2.500   0.691   4.538  1.0357  0.7412  0.3960
 4886SOL    HW220495   2.597   0.629   4.636 -0.6756 -1.4002  0.8113
 4887SOL     OW20496   7.978  10.747   9.828  0.0155 -0.2175  0.3411
 4887SOL    HW120497   8.024  10.829   9.810  0.6281 -0.6805 -0.2413
 4887SOL    HW220498   8.045  10.679   9.819 -1.1803 -1.1522 -2.7290
 4888SOL     OW20499  10.241  10.575   0.422  0.0571  0.4673 -0.0646
 4888SOL    HW120500  10.288  10.648   0.381  1.0453  0.7326  1.4611
 4888SOL    HW220501  10.151  10.605   0.428  0.4749  1.6437  0.6686
 4889SOL     OW20502   2.158   0.850   6.708  0.4607 -0.2402  0.3285
 4889SOL    HW120503   2.062   0.841   6.704  0.3157  0.4242  1.8301
 4889SOL    HW220504   2.181   0.896   6.627 -0.4505 -0.6498 -0.1807
 4890SOL     OW20505   0.494   9.641   4.322  0.0486 -0.0673  0.3494
 4890SOL    HW120506   0.478   9.735   4.326 -0.1752 -0.1216  0.8906
 4890SOL    HW220507   0.434   9.604   4.388  0.5281 -0.5350  0.5289
 4891SOL     OW20508   1.264   0.778  10.163  0.2156 -0.3482 -0.2119
 4891SOL    HW120509   1.231   0.791  10.252  0.2916  0.9722 -0.3537
 4891SOL    HW220510   1.260   0.865  10.123 -0.2717 -1.0032 -1.6617
 4892SOL     OW20511   4.818   7.594   0.516 -0.4388  0.0013  0.0224
 4892SOL    HW120512   4.881   7.644   0.464  0.3445  0.3617  1.2674
 4892SOL    HW220513   4.844   7.503   0.504 -0.5123  0.0516 -0.5244
 4893SOL     OW20514   2.705   6.053   2.845 -0.2132 -0.3804  0.2211
 4893SOL    HW120515   2.611   6.040   2.834 -0.3908  1.1813 -0.3719
 4893SOL    HW220516   2.713   6.123   2.909  0.4941  0.3621 -0.6396
 4894SOL     OW20517   7.141   8.713   6.592 -0.3575 -0.5051  0.4243
 4894SOL    HW120518   7.061   8.663   6.608 -0.7989 -0.0268 -0.2442
 4894SOL    HW220519   7.187   8.663   6.524 -0.7724 -0.0444 -0.2043
 4895SOL     OW20520   1.521  10.006   6.739 -0.1841 -0.0833 -0.7504
 4895SOL    HW120521   1.463  10.040   6.671 -0.7116 -0.3428 -0.4350
 4895SOL    HW220522   1.542  10.083   6.793  0.0209  0.0698 -1.0434
 4896SOL     OW20523   9.587   7.131   5.444  0.4716  0.0765 -0.2056
 4896SOL    HW120524   9.512   7.074   5.458  0.1336  0.7777  1.0705
 4896SOL    HW220525   9.654   7.097   5.503  1.1905 -0.5638 -1.3600
 4897SOL     OW20526   0.950   2.620   2.583 -0.0773  0.4306  0.1085
 4897SOL    HW120527   0.951   2.650   2.674  0.7127  0.0976  0.2169
 4897SOL    HW220528   0.979   2.529   2.587  1.5999  0.8995 -0.6316
 4898SOL     OW20529   6.209   8.188   0.098 -0.0368  0.4423  0.2955
 4898SOL    HW120530   6.249   8.259   0.147 -1.0164  1.7210 -0.6690
 4898SOL    HW220531   6.159   8.138   0.163  2.1056 -0.4949  1.2937
 4899SOL     OW20532   1.496   9.409   8.457 -0.0441 -0.7667  0.1181
 4899SOL    HW120533   1.481   9.458   8.376 -0.9084 -1.3703 -0.0947
 4899SOL    HW220534   1.453   9.462   8.525  0.8603 -0.1517  0.2346
 4900SOL     OW20535   6.025   4.417   1.060  0.6436 -0.2250 -0.0264
 4900SOL    HW120536   6.095   4.460   1.010 -0.6094  0.0158 -1.6640
 4900SOL    HW220537   5.984   4.489   1.109  0.6564 -0.1290 -0.1558
 4901SOL     OW20538   7.992   3.114   9.432  0.7018 -0.4477 -0.0155
 4901SOL    HW120539   8.085   3.091   9.427  1.2811  1.6605  0.0376
 4901SOL    HW220540   7.969   3.143   9.344  0.5893  0.6410  0.3487
 4902SOL     OW20541   8.991   2.124   1.027  0.1615  0.2429 -0.9899
 4902SOL    HW120542   8.938   2.202   1.041  0.4984  0.1626  1.0239
 4902SOL    HW220543   9.081   2.155   1.035  0.3448 -0.1239 -1.5701
 4903SOL     OW20544  10.229   9.654  10.263  0.4958  0.5173  0.2484
 4903SOL    HW120545  10.213   9.561  10.278  0.0721  0.3957 -0.8606
 4903SOL    HW220546  10.180   9.674  10.184  2.2882  1.1864 -0.7470
 4904SOL     OW20547   5.997   5.072   5.253  0.2972  0.0007  0.2654
 4904SOL    HW120548   5.979   4.981   5.273  0.5496 -0.0937  0.0780
 4904SOL    HW220549   5.974   5.120   5.332  0.9512 -0.3242  0.6613
 4905SOL     OW20550  10.878   2.297   7.819  0.3360  0.0131 -0.7161
 4905SOL    HW120551  10.828   2.275   7.740 -1.2443 -0.6387  0.4054
 4905SOL    HW220552  10.812   2.330   7.880  1.4479  0.0464  0.5036
 4906SOL     OW20553   0.733   2.790  10.258 -0.0414  0.2621  0.8340
 4906SOL    HW120554   0.827   2.774  10.263 -0.1611 -0.8781 -0.0991
 4906SOL    HW220555   0.695   2.734  10.326 -0.4137 -3.4020 -2.0810
 4907SOL     OW20556  10.725   8.641   7.820 -0.0430  0.1224 -0.2205
 4907SOL    HW120557  10.646   8.690   7.795 -0.7595  1.0860  3.4461
 4907SOL    HW220558  10.760   8.609   7.736 -3.8855  0.2132 -2.0728
 4908SOL     OW20559   9.294   4.046   7.224  0.1189 -0.1921  0.0423
 4908SOL    HW120560   9.210   4.021   7.185 -0.1905  0.2689  0.4102
 4908SOL    HW220561   9.324   4.120   7.170 -0.6127  0.8629  1.0320
 4909SOL     OW20562   6.919   1.023   9.506  0.4437 -0.0865 -0.0689
 4909SOL    HW120563   6.825   1.011   9.513  0.6343 -1.4971  0.4886
 4909SOL    HW220564   6.949   1.035   9.597  0.8102  0.3078 -0.2354
 4910SOL     OW20565   1.193   0.749   3.924 -0.3832 -0.2724 -0.1723
 4910SOL    HW120566   1.210   0.787   3.838  0.3031  0.0363  0.0924
 4910SOL    HW220567   1.256   0.792   3.982  0.4429 -1.8143  0.1369
 4911SOL     OW20568   1.350   9.854   8.233  0.1378  0.3028 -0.1031
 4911SOL    HW120569   1.370   9.942   8.265  2.0166 -0.0487 -0.2256
 4911SOL    HW220570   1.270   9.865   8.181 -1.2365  1.4368  2.0648
 4912SOL     OW20571   6.540   6.354   8.730 -0.3657 -0.4002 -0.0053
 4912SOL    HW120572   6.478   6.351   8.657  1.4694 -1.3723 -1.6157
 4912SOL    HW220573   6.541   6.446   8.756 -3.0021 -0.4554  0.6161
 4913SOL     OW20574   8.704   8.913   8.196 -0.1052 -0.2519 -0.2291
 4913SOL    HW120575   8.702   8.906   8.100 -0.6630  0.9913 -0.3325
 4913SOL    HW220576   8.785   8.960   8.215 -0.1275 -0.2546 -0.1240
 4914SOL     OW20577   9.575   7.322   1.399  0.1105 -0.1905  0.3470
 4914SOL    HW120578   9.655   7.311   1.347 -1.4138  1.0342 -2.4946
 4914SOL    HW220579   9.606   7.343   1.487  2.8971 -5.1941  0.8917
 4915SOL     OW20580   4.749   2.641   5.424 -0.2295  0.1101  0.3228
 4915SOL    HW120581   4.673   2.610   5.375 -0.7411 -2.4221  2.5252
 4915SOL    HW220582   4.805   2.682   5.357 -1.9129 -1.0578 -1.9433
 4916SOL     OW20583   5.563   5.150   3.489  0.1419  0.1312  0.0522
 4916SOL    HW120584   5.482   5.151   3.438  0.0997 -0.2157  0.1091
 4916SOL    HW220585   5.622   5.093   3.438  0.7723  1.3468 -0.6324
 4917SOL     OW20586   6.346   7.510   1.021 -0.7688 -0.5117 -0.8134
 4917SOL    HW120587   6.272   7.498   1.081  0.5615  0.7946  1.1809
 4917SOL    HW220588   6.424   7.496   1.074  0.4765 -1.2375 -2.7169
 4918SOL     OW20589  10.584   3.344   3.376 -0.2938 -0.0073 -0.1278
 4918SOL    HW120590  10.527   3.372   3.447  0.4478  2.2438 -0.3534
 4918SOL    HW220591  10.663   3.311   3.421 -0.9072 -1.2321  0.1157
 4919SOL     OW20592   5.730   0.638  10.493  0.2271 -0.5961 -0.2831
 4919SOL    HW120593   5.799   0.645  10.558 -0.4051 -1.3631  0.4848
 4919SOL    HW220594   5.749   0.708  10.430  0.1103  1.0289  1.4167
 4920SOL     OW20595   5.587   0.408   3.681 -0.1820 -0.2103 -0.1755
 4920SOL    HW120596   5.547   0.430   3.765  0.4076 -0.7736  0.2708
 4920SOL    HW220597   5.536   0.456   3.616 -1.3301 -0.6086  0.4081
 4921SOL     OW20598   4.808  10.173   1.834 -0.2228 -0.3573  0.4494
 4921SOL    HW120599   4.882  10.198   1.890 -0.2349 -1.7500  1.1241
 4921SOL    HW220600   4.769  10.257   1.809  1.9196  0.4569 -0.4424
 4922SOL     OW20601   0.989   2.429   6.877 -0.3577  0.4049  0.5317
 4922SOL    HW120602   1.048   2.492   6.919 -0.7134  1.6265 -0.7328
 4922SOL    HW220603   0.943   2.480   6.811 -0.6755 -1.2002 -0.5316
 4923SOL     OW20604   0.005   3.643   7.153  0.1982  0.1982  0.1459
 4923SOL    HW120605   0.041   3.585   7.085 -0.4531  0.3758 -0.3613
 4923SOL    HW220606   0.081   3.669   7.205  0.4988 -1.0887  0.3647
 4924SOL     OW20607   5.043   4.185   9.716  0.0538 -0.7503 -0.2763
 4924SOL    HW120608   5.066   4.098   9.749  1.2767 -0.6042 -0.6868
 4924SOL    HW220609   5.100   4.197   9.640 -0.8181  0.0081 -0.8195
 4925SOL     OW20610   2.838   1.556   2.502 -0.2852 -0.2621  1.0611
 4925SOL    HW120611   2.832   1.471   2.545 -1.0709 -1.0033 -0.4520
 4925SOL    HW220612   2.752   1.596   2.515 -0.5627 -0.5355  0.1115
 4926SOL     OW20613   6.801   9.098   5.992  0.0873  0.6263 -0.2660
 4926SOL    HW120614   6.874   9.065   5.940  0.2392 -3.2211  2.0088
 4926SOL    HW220615   6.728   9.103   5.930  0.9756 -0.8305 -1.5226
 4927SOL     OW20616   1.899   8.380   0.718  0.6758  0.5387 -0.2746
 4927SOL    HW120617   1.977   8.363   0.770  0.8865  1.0784 -0.4102
 4927SOL    HW220618   1.878   8.296   0.678  0.3570  0.0378  0.8808
 4928SOL     OW20619   7.975   3.287   7.456  0.3214  0.1401  0.1721
 4928SOL    HW120620   7.959   3.337   7.536 -0.9956 -0.7006  0.4757
 4928SOL    HW220621   8.010   3.204   7.486 -3.0862 -1.4489  0.2454
 4929SOL     OW20622   5.999  10.768   7.833 -0.3000  0.2203  0.8121
 4929SOL    HW120623   5.907  10.751   7.814  0.1395 -0.3788 -0.9441
 4929SOL    HW220624   6.045  10.691   7.802  0.8663  0.7625  1.1374
 4930SOL     OW20625   6.023   4.791   0.330  0.4786 -0.0890  0.1604
 4930SOL    HW120626   6.016   4.798   0.234  0.3981 -2.1807 -0.0496
 4930SOL    HW220627   6.085   4.860   0.355  0.1722  0.7715 -1.3421
 4931SOL     OW20628  10.327   4.503   2.370  0.0271  0.4820  0.1819
 4931SOL    HW120629  10.258   4.510   2.436 -1.6173  1.1090 -1.5094
 4931SOL    HW220630  10.365   4.416   2.384 -1.0485  0.1439  1.2197
 4932SOL     OW20631   5.437   8.105   4.092  0.4140 -0.2389  0.2441
 4932SOL    HW120632   5.466   8.069   4.008  0.1834 -0.3524  0.2125
 4932SOL    HW220633   5.367   8.166   4.070  1.0440  0.5087  0.2692
 4933SOL     OW20634   6.963  10.347   9.983 -0.2254 -0.0795 -0.2493
 4933SOL    HW120635   7.018  10.288  10.035 -0.8728  0.2767  0.8745
 4933SOL    HW220636   7.007  10.432   9.989  0.1800 -0.2205 -1.0553
 4934SOL     OW20637   2.326   7.958   1.891  0.5352  0.5796  0.0040
 4934SOL    HW120638   2.294   7.873   1.858  0.5085  0.4161  0.4375
 4934SOL    HW220639   2.416   7.941   1.916  0.5909  0.7324 -0.0951
 4935SOL     OW20640   9.105   5.229   3.180  0.7185  0.2643  0.1092
 4935SOL    HW120641   9.029   5.260   3.230 -0.8369 -3.2893  0.2542
 4935SOL    HW220642   9.104   5.283   3.100 -1.5353  0.8393  0.4423
 4936SOL     OW20643   5.577   4.729   8.601 -0.2999 -0.4419 -0.0697
 4936SOL    HW120644   5.508   4.785   8.637 -0.4977 -0.4882 -0.3719
 4936SOL    HW220645   5.655   4.750   8.652 -0.9813 -1.7990  1.6116
 4937SOL     OW20646   0.933   2.439   0.212 -0.0162 -0.0959  0.2993
 4937SOL    HW120647   0.875   2.510   0.183 -2.4156 -1.6109  1.0961
 4937SOL    HW220648   0.885   2.397   0.283  1.6752 -2.0531  0.3547
 4938SOL     OW20649   6.092   4.470  10.779 -0.2585  0.2995 -0.1667
 4938SOL    HW120650   6.046   4.478  10.863 -1.9324 -0.5819 -0.9473
 4938SOL    HW220651   6.028   4.430  10.721  0.8639  0.9032 -1.8880
 4939SOL     OW20652   5.574   4.892  10.236  0.7154 -0.6052 -0.0595
 4939SOL    HW120653   5.650   4.942  10.205  0.4337  0.5343  1.0072
 4939SOL    HW220654   5.611   4.809  10.267  1.4754 -0.2107  0.1209
 4940SOL     OW20655  10.206   2.551   9.712 -0.0237  0.1501 -0.1519
 4940SOL    HW120656  10.175   2.531   9.623 -0.5743 -0.7452  0.2308
 4940SOL    HW220657  10.234   2.467   9.747 -0.3871  0.3950  0.7442
 4941SOL     OW20658  10.682   4.846   9.997  0.3611 -0.3897  0.2163
 4941SOL    HW120659  10.656   4.924  10.045 -0.2139 -0.2917 -0.2451
 4941SOL    HW220660  10.757   4.812  10.045  2.3004  1.8604 -1.0098
 4942SOL     OW20661   6.290   1.799   3.730  0.2555 -0.5687 -0.0877
 4942SOL    HW120662   6.222   1.761   3.674 -0.6960  1.8429 -0.7149
 4942SOL    HW220663   6.364   1.813   3.671  0.9778 -2.2991  0.3726
 4943SOL     OW20664  10.503   9.769   9.897 -0.0213 -0.0194 -0.1390
 4943SOL    HW120665  10.421   9.812   9.872  0.3033  0.6111 -0.1430
 4943SOL    HW220666  10.532   9.816   9.975  0.7118  0.2595 -0.5645
 4944SOL     OW20667   3.400   2.641   7.127  0.3020  0.2224 -0.4210
 4944SOL    HW120668   3.336   2.645   7.198  1.5016  1.2782  0.6374
 4944SOL    HW220669   3.375   2.713   7.069  1.3076  1.5087  0.7004
 4945SOL     OW20670   4.255   7.777   5.252 -0.5967 -0.0045  0.2246
 4945SOL    HW120671   4.243   7.795   5.346  0.8817  3.1717 -0.0581
 4945SOL    HW220672   4.227   7.858   5.209  1.3124 -0.3677 -1.8541
 4946SOL     OW20673   7.739   8.962   6.768  0.1871  0.0216 -0.0508
 4946SOL    HW120674   7.729   8.910   6.689  1.4874  0.7654 -0.7356
 4946SOL    HW220675   7.771   9.047   6.737  1.6557  0.0251  1.3102
 4947SOL     OW20676   2.235   2.941  10.887 -0.0274 -0.2268 -0.2339
 4947SOL    HW120677   2.267   2.863  10.932  2.5918 -1.2710 -3.5612
 4947SOL    HW220678   2.313   2.995  10.873 -1.1620  1.2370 -1.2363
 4948SOL     OW20679   8.275   4.584   2.292  0.1950  0.0306 -0.3984
 4948SOL    HW120680   8.252   4.676   2.284  0.5373  0.2352  0.7410
 4948SOL    HW220681   8.367   4.584   2.319  1.0815 -0.7422 -3.0981
 4949SOL     OW20682   7.653   5.817   1.642 -0.1491  0.6062  0.6105
 4949SOL    HW120683   7.599   5.861   1.708  1.7971  1.4774  1.7051
 4949SOL    HW220684   7.678   5.887   1.582 -1.0204  0.0144 -0.4866
 4950SOL     OW20685   8.141   4.428   3.985  0.1022  0.0996 -0.2012
 4950SOL    HW120686   8.209   4.364   4.006  0.7609  0.9552  0.3197
 4950SOL    HW220687   8.095   4.389   3.911  0.5089 -0.9626  0.0771
 4951SOL     OW20688  10.644   3.126   4.743 -0.3532  0.2166  0.4492
 4951SOL    HW120689  10.673   3.064   4.810  1.2408  1.0954  0.6097
 4951SOL    HW220690  10.705   3.200   4.750 -1.0933  1.0014 -0.9556
 4952SOL     OW20691   6.771   6.613   2.467  0.1493 -0.1095  0.0359
 4952SOL    HW120692   6.682   6.630   2.436  0.0188  0.0442  0.4862
 4952SOL    HW220693   6.793   6.527   2.430  0.2332  0.3343 -0.9860
 4953SOL     OW20694   2.825   7.867   2.378 -0.3027  0.8109 -0.0454
 4953SOL    HW120695   2.843   7.880   2.285 -0.5816 -2.3989 -0.6900
 4953SOL    HW220696   2.840   7.773   2.392  0.4176  1.3118  3.3400
 4954SOL     OW20697   5.543   5.026   7.513 -0.2192 -0.0627  0.0092
 4954SOL    HW120698   5.610   5.027   7.582 -0.3547 -2.3951  0.2458
 4954SOL    HW220699   5.550   4.939   7.474  1.1444  1.7144 -4.2998
 4955SOL     OW20700   3.616   9.409   5.940  0.4289 -0.0555  0.2476
 4955SOL    HW120701   3.524   9.407   5.916  0.6870  1.3109 -0.9496
 4955SOL    HW220702   3.618   9.374   6.029 -1.2840  0.2635  0.4440
 4956SOL     OW20703   3.294   9.470   3.984  0.1439  0.3238 -0.5329
 4956SOL    HW120704   3.362   9.409   4.012  1.5011  1.0849 -1.9704
 4956SOL    HW220705   3.282   9.451   3.891 -0.8201  0.9360 -0.5429
 4957SOL     OW20706   6.413   6.205   4.412  0.4874 -0.3022  0.0689
 4957SOL    HW120707   6.450   6.153   4.340  1.4513  0.1699  0.2144
 4957SOL    HW220708   6.462   6.178   4.489  0.5469  0.3547  0.2634
 4958SOL     OW20709   4.012   1.098   8.031 -0.1092  0.1523 -0.6627
 4958SOL    HW120710   4.054   1.183   8.043 -1.7382  1.2534 -2.2706
 4958SOL    HW220711   3.927   1.106   8.073  0.1195 -1.0581  0.0705
 4959SOL     OW20712   4.533   7.650   2.267 -0.3584  0.5592 -0.3730
 4959SOL    HW120713   4.488   7.611   2.342  1.4982 -1.1317 -0.0312
 4959SOL    HW220714   4.597   7.709   2.307  0.4682 -0.1632 -0.5780
 4960SOL     OW20715   6.425   7.504   5.092  0.4309  0.0458 -0.0046
 4960SOL    HW120716   6.488   7.444   5.130 -0.2172 -1.1066 -0.6852
 4960SOL    HW220717   6.341   7.460   5.103 -0.0688  0.8746 -0.4423
 4961SOL     OW20718   2.456  10.030   1.093 -0.5482 -0.1280  0.5381
 4961SOL    HW120719   2.544  10.023   1.131 -0.1000  1.3370 -0.1442
 4961SOL    HW220720   2.431   9.940   1.075  0.8688 -0.5822  0.6570
 4962SOL     OW20721   7.061   2.008   4.929  0.7754 -0.0311 -0.5816
 4962SOL    HW120722   7.009   2.033   4.853  2.5047 -0.1401 -1.8665
 4962SOL    HW220723   7.029   2.064   5.000 -0.0566  0.9439 -1.6984
 4963SOL     OW20724   0.993   6.735   4.919 -0.2963  0.0929  0.3997
 4963SOL    HW120725   0.967   6.750   4.829 -0.2585 -2.4714 -0.1206
 4963SOL    HW220726   1.082   6.699   4.913  0.0666  0.7334  1.5438
 4964SOL     OW20727   9.842   1.502   0.590 -0.1521 -0.2287  0.7837
 4964SOL    HW120728   9.793   1.441   0.536 -1.0968  0.7725  0.4878
 4964SOL    HW220729   9.863   1.575   0.532  1.7126 -0.6047  0.8959
 4965SOL     OW20730   2.403   4.746   2.961  0.1423 -0.1420 -0.1820
 4965SOL    HW120731   2.340   4.725   3.031 -1.2497  1.1871 -0.9722
 4965SOL    HW220732   2.433   4.834   2.982  1.0732 -0.4170 -0.3225
 4966SOL     OW20733   4.057   7.675   4.058 -0.1611 -0.3738  0.3399
 4966SOL    HW120734   3.981   7.709   4.106 -0.9965 -1.2677 -0.3043
 4966SOL    HW220735   4.047   7.580   4.061  0.6985 -0.4900 -0.1370
 4967SOL     OW20736   0.712   7.211   1.675  0.5373 -0.2509 -0.5025
 4967SOL    HW120737   0.752   7.128   1.700  0.0581 -1.0110 -2.1717
 4967SOL    HW220738   0.717   7.213   1.580  0.6638  1.7128 -0.4902
 4968SOL     OW20739   4.067   9.328   1.440  0.3422  0.6670  0.3645
 4968SOL    HW120740   3.979   9.315   1.405  0.9188  1.0869 -1.3457
 4968SOL    HW220741   4.068   9.419   1.468  0.2258  0.6472  0.4364
 4969SOL     OW20742   7.544   2.985   5.877  0.5008  0.6626 -0.1694
 4969SOL    HW120743   7.484   3.005   5.806  0.4519  0.7341 -0.1081
 4969SOL    HW220744   7.550   2.889   5.877  0.4272  0.6578 -0.2092
 4970SOL     OW20745   6.646   5.931   4.368 -0.1684  0.1152  0.1685
 4970SOL    HW120746   6.595   5.948   4.289  0.7660 -0.8020 -0.6660
 4970SOL    HW220747   6.685   6.015   4.391  0.4970  0.1628 -1.0516
 4971SOL     OW20748   4.067   0.473   0.155  0.8164 -0.0598 -0.7510
 4971SOL    HW120749   4.039   0.500   0.067  0.2704  0.6941 -0.3610
 4971SOL    HW220750   4.152   0.517   0.167  1.3783 -0.9667 -1.2722
 4972SOL     OW20751   5.791   7.994  10.911 -0.8041 -0.1484 -0.2416
 4972SOL    HW120752   5.869   7.939  10.925 -0.5658  0.1730 -0.2914
 4972SOL    HW220753   5.733   7.972  10.983 -0.4423 -0.0053  0.0969
 4973SOL     OW20754   2.664   8.752   0.185  0.2358 -0.4406 -0.7826
 4973SOL    HW120755   2.661   8.781   0.094 -0.0694 -0.6324 -0.8329
 4973SOL    HW220756   2.732   8.807   0.225 -2.7068  3.0321  0.0179
 4974SOL     OW20757   4.260   2.980   6.971  0.4447  0.5184  0.1742
 4974SOL    HW120758   4.352   2.984   6.945  0.3314  0.3751 -0.2490
 4974SOL    HW220759   4.212   2.967   6.889  0.0527  0.5100  0.4025
 4975SOL     OW20760   6.058   8.126   8.550  0.4885 -0.2528 -0.1299
 4975SOL    HW120761   6.120   8.137   8.478 -0.0818 -0.1052 -0.6138
 4975SOL    HW220762   5.975   8.104   8.507  0.1191 -0.0829  0.4772
 4976SOL     OW20763   4.443  10.617   7.512 -0.4171 -0.1511 -0.0229
 4976SOL    HW120764   4.414  10.604   7.422 -1.3106  0.6196  0.1448
 4976SOL    HW220765   4.451  10.711   7.522  0.5273 -0.2731  0.4500
 4977SOL     OW20766   3.983   7.301   5.592 -0.5560 -0.4625 -0.2961
 4977SOL    HW120767   3.950   7.385   5.625  1.5576 -0.0583  0.9559
 4977SOL    HW220768   4.076   7.301   5.614 -0.5547 -3.3230  0.1307
 4978SOL     OW20769   0.272   2.446   9.996  0.1002 -0.1120  0.0756
 4978SOL    HW120770   0.307   2.366   9.956 -1.0348  0.0337 -1.2723
 4978SOL    HW220771   0.250   2.420  10.085  0.0046 -1.2437 -0.2617
 4979SOL     OW20772   7.192   7.344   6.057 -0.0060  0.2534  0.0458
 4979SOL    HW120773   7.278   7.362   6.094 -0.5733 -0.2590  1.7176
 4979SOL    HW220774   7.207   7.270   5.997  0.3386 -1.7778  2.4505
 4980SOL     OW20775   6.975   4.240   2.396  0.2451  0.4688 -0.1132
 4980SOL    HW120776   6.895   4.290   2.408 -0.2305 -0.6431  1.8625
 4980SOL    HW220777   7.040   4.286   2.450 -0.1115 -0.7716  1.4495
 4981SOL     OW20778   3.260   3.758   5.399 -0.6694 -0.4297  0.4316
 4981SOL    HW120779   3.183   3.776   5.346  0.2445  1.1017 -0.4393
 4981SOL    HW220780   3.331   3.746   5.335  0.0138 -0.8727  1.2459
 4982SOL     OW20781   9.861   4.749   5.995 -0.7456  0.6232  0.1539
 4982SOL    HW120782   9.907   4.665   5.998 -1.8611  0.0211  1.4091
 4982SOL    HW220783   9.838   4.761   5.903 -0.0614 -0.1453 -0.1321
 4983SOL     OW20784   0.959  10.727   8.659  0.0686 -0.6463 -0.5777
 4983SOL    HW120785   0.926  10.759   8.575 -0.1375 -0.7404 -0.5318
 4983SOL    HW220786   0.894  10.757   8.723  1.0807  0.9352 -0.2206
 4984SOL     OW20787   4.876   9.262  10.228  0.2324  0.4615 -0.0985
 4984SOL    HW120788   4.939   9.239  10.296 -0.5162 -0.4927  0.2992
 4984SOL    HW220789   4.862   9.356  10.238 -0.2535  0.2557  1.4154
 4985SOL     OW20790   5.371  10.444  10.190  0.3455  0.2984 -0.3759
 4985SOL    HW120791   5.377  10.440  10.285  1.2781  1.5710 -0.3484
 4985SOL    HW220792   5.444  10.501  10.164  0.0498  0.0506 -1.8422
 4986SOL     OW20793   9.217   9.593   5.389  0.4260  0.2544 -0.6225
 4986SOL    HW120794   9.248   9.511   5.426  0.2894  0.2605 -0.4896
 4986SOL    HW220795   9.294   9.650   5.388  0.5264  0.1138 -0.7431
 4987SOL     OW20796  10.430   7.647   3.965  0.0210 -0.2462 -0.1867
 4987SOL    HW120797  10.493   7.669   4.033 -0.0943 -1.7090  0.4244
 4987SOL    HW220798  10.364   7.594   4.010 -0.9816  0.2096 -1.0797
 4988SOL     OW20799   1.931   2.797   9.982  0.3648 -0.1155  0.6253
 4988SOL    HW120800   1.866   2.742  10.026  1.4454 -0.6189  1.6624
 4988SOL    HW220801   1.967   2.852  10.052  1.2906 -0.0917  0.1483
 4989SOL     OW20802   5.225   0.536   0.804 -0.1453 -0.0547 -0.0352
 4989SOL    HW120803   5.238   0.613   0.749 -0.1552 -0.5721 -0.7778
 4989SOL    HW220804   5.188   0.571   0.885  0.0720  0.7462 -0.2660
 4990SOL     OW20805   9.976   5.320   7.281 -0.3563 -0.5091  0.3665
 4990SOL    HW120806  10.062   5.295   7.313  0.6470  1.5085 -0.5661
 4990SOL    HW220807   9.935   5.364   7.355  0.0862 -0.0159  0.3232
 4991SOL     OW20808   8.114   3.454   0.419 -0.3844 -0.6745 -0.0323
 4991SOL    HW120809   8.172   3.378   0.417  0.8427  0.2397 -0.1293
 4991SOL    HW220810   8.143   3.505   0.495 -0.3789  0.3070 -0.6771
 4992SOL     OW20811   5.959   9.638  10.345  0.4117 -0.5120 -0.3598
 4992SOL    HW120812   5.935   9.612  10.256  1.9054 -0.3822 -0.8275
 4992SOL    HW220813   5.876   9.644  10.392 -0.3589 -1.0572 -1.6157
 4993SOL     OW20814   0.166  10.266   3.499 -0.3724 -0.4068 -0.2265
 4993SOL    HW120815   0.077  10.298   3.514 -0.3572 -1.4361  2.6291
 4993SOL    HW220816   0.180  10.201   3.567  1.3656 -2.8729 -2.7195
 4994SOL     OW20817   6.065   4.348   5.368  0.1525 -0.1590 -0.0861
 4994SOL    HW120818   6.084   4.256   5.384 -1.3951  0.0297  4.0513
 4994SOL    HW220819   6.150   4.392   5.380  0.5384 -0.8589 -0.1946
 4995SOL     OW20820   0.398   3.797   2.099 -0.2629 -0.2702 -0.8301
 4995SOL    HW120821   0.303   3.800   2.095 -0.4875 -0.3007  2.1982
 4995SOL    HW220822   0.417   3.748   2.179  2.3116  0.3588 -0.9639
 4996SOL     OW20823   0.162   4.492   6.659 -0.6722 -0.1602 -0.0436
 4996SOL    HW120824   0.200   4.441   6.731 -0.1375  1.8085  1.1652
 4996SOL    HW220825   0.112   4.561   6.703 -3.1671 -0.8551 -1.6117
 4997SOL     OW20826   8.936   6.835   0.111  0.2822 -0.0763 -0.7953
 4997SOL    HW120827   8.929   6.878   0.026 -0.9037  0.0791 -0.6446
 4997SOL    HW220828   8.856   6.782   0.117  0.5559 -0.4036  0.0423
 4998SOL     OW20829   3.948   2.492  10.021 -0.0469 -0.2351 -0.2748
 4998SOL    HW120830   3.924   2.400  10.030 -0.8275 -0.1129 -0.9840
 4998SOL    HW220831   4.023   2.503  10.079 -0.7506 -1.0100  0.8177
 4999SOL     OW20832  10.128  10.557   2.415  0.0508  0.2070 -0.1742
 4999SOL    HW120833  10.211  10.532   2.376 -0.2965 -2.0562  0.3947
 4999SOL    HW220834  10.097  10.477   2.458 -1.4463  1.5327  1.3532
 5000SOL     OW20835  10.446   4.768   5.485 -0.6132  0.0373  0.2394
 5000SOL    HW120836  10.446   4.839   5.422  0.6626 -0.4402 -0.3240
 5000SOL    HW220837  10.375   4.710   5.456  0.7891 -0.8675 -1.6067
 5001SOL     OW20838   6.535   2.688   2.928 -0.0537  0.5499 -0.1421
 5001SOL    HW120839   6.504   2.639   2.852  1.4989  1.7752 -1.6739
 5001SOL    HW220840   6.474   2.666   2.998 -1.1529 -1.1671 -1.5523
 5002SOL     OW20841   3.185   7.614  10.871  0.1282  0.4215  0.0708
 5002SOL    HW120842   3.194   7.649  10.959 -0.5998 -0.4609  0.5160
 5002SOL    HW220843   3.230   7.676  10.815  2.6145 -0.1618  1.3063
 5003SOL     OW20844   7.007  10.701   6.079  0.5543 -0.2801  0.3250
 5003SOL    HW120845   7.022  10.667   6.167  1.2780  1.9362  1.1315
 5003SOL    HW220846   6.965  10.786   6.093  0.4047 -0.0153 -1.4825
 5004SOL     OW20847   1.331   8.622   9.759 -0.4031  0.0254  0.6817
 5004SOL    HW120848   1.283   8.615   9.677 -1.1365  2.0183  0.8895
 5004SOL    HW220849   1.294   8.554   9.815 -1.3270 -0.0225  0.0318
 5005SOL     OW20850   3.687   2.856   1.734 -0.2673  0.3533  0.0356
 5005SOL    HW120851   3.720   2.880   1.820 -0.8592  1.0224  0.0826
 5005SOL    HW220852   3.649   2.937   1.699 -0.0957  0.0744 -0.8230
 5006SOL     OW20853   8.758   8.198  10.118 -0.4227 -0.4946 -0.1861
 5006SOL    HW120854   8.752   8.233  10.029  0.5283 -1.3218 -0.5993
 5006SOL    HW220855   8.773   8.104  10.105  0.0385 -0.5695  0.8399
 5007SOL     OW20856   4.610   5.070   6.689 -0.3067 -0.1089 -0.1179
 5007SOL    HW120857   4.553   5.033   6.757 -0.4401  2.2717  1.1806
 5007SOL    HW220858   4.575   5.037   6.607 -1.1767 -1.7401  0.8559
 5008SOL     OW20859   9.459  10.451   4.126 -0.3592 -0.2168 -0.9890
 5008SOL    HW120860   9.425  10.362   4.126 -1.5732  0.1073  2.1526
 5008SOL    HW220861   9.382  10.507   4.131  0.4053  0.7706  1.1248
 5009SOL     OW20862   3.504   3.502   1.709 -0.3771 -0.2820 -0.1231
 5009SOL    HW120863   3.433   3.449   1.745  1.8680 -1.5946  2.8241
 5009SOL    HW220864   3.557   3.440   1.659  0.5217 -0.1137  0.6037
 5010SOL     OW20865   5.075   7.907  10.560 -0.2725 -0.3542  0.3573
 5010SOL    HW120866   5.084   7.998  10.589 -0.3149 -0.0921 -0.4084
 5010SOL    HW220867   5.144   7.860  10.605  0.2208  0.2089  0.2020
 5011SOL     OW20868   1.241   1.589   3.850  0.5582  0.0062 -0.2534
 5011SOL    HW120869   1.190   1.559   3.775 -0.4013 -0.3967  0.5389
 5011SOL    HW220870   1.271   1.508   3.893 -0.2676  0.1902  0.7026
 5012SOL     OW20871   0.820   6.528   7.389 -0.6253  0.5074  0.7894
 5012SOL    HW120872   0.747   6.514   7.329 -0.8791  0.8371  1.0153
 5012SOL    HW220873   0.897   6.534   7.333 -0.7279 -0.1605  0.5733
 5013SOL     OW20874   3.340   3.931   0.153 -0.4419 -0.4713 -0.1149
 5013SOL    HW120875   3.427   3.963   0.127 -0.4604  0.6784  1.1191
 5013SOL    HW220876   3.307   3.999   0.212 -1.8291 -1.3119  0.0974
 5014SOL     OW20877   0.798   6.957   6.689 -0.3004 -0.3618 -0.1424
 5014SOL    HW120878   0.790   6.897   6.763 -0.2987 -0.0176  0.1386
 5014SOL    HW220879   0.843   7.034   6.725  0.7286 -0.6599 -0.7731
 5015SOL     OW20880   5.375   3.612   3.510 -0.2442 -0.1268  0.3829
 5015SOL    HW120881   5.467   3.625   3.534 -0.3965 -0.5849  1.2272
 5015SOL    HW220882   5.326   3.671   3.567 -0.4609  0.3357 -0.2712
 5016SOL     OW20883  10.464   1.741   5.648  0.2719  0.3451  0.0324
 5016SOL    HW120884  10.528   1.742   5.577 -1.2766 -0.5005 -1.4260
 5016SOL    HW220885  10.431   1.651   5.650 -0.2016  0.5241  1.4026
 5017SOL     OW20886   4.524   2.898   7.515  0.3591  0.5053 -0.4956
 5017SOL    HW120887   4.518   2.902   7.419  2.0756 -0.5926 -0.6841
 5017SOL    HW220888   4.617   2.885   7.533  0.1253  1.0562  1.3599
 5018SOL     OW20889   8.621   8.424   8.682 -0.0385 -0.2540  0.0213
 5018SOL    HW120890   8.623   8.357   8.614  3.7343  0.0674 -0.4097
 5018SOL    HW220891   8.710   8.460   8.682 -1.2127  3.0167  1.9674
 5019SOL     OW20892   7.916   4.012  10.273 -0.3074  0.2739 -0.5241
 5019SOL    HW120893   7.856   4.033  10.201 -0.1404 -0.0626 -0.7639
 5019SOL    HW220894   7.952   3.926  10.250  0.9770  0.8676 -0.8641
 5020SOL     OW20895   2.729   4.953   7.127 -0.6508  0.8274 -0.1948
 5020SOL    HW120896   2.698   5.006   7.200  0.6328 -0.8703  1.6914
 5020SOL    HW220897   2.650   4.918   7.087 -1.3515  0.5606  1.3641
 5021SOL     OW20898   7.707   1.795  10.354  0.4580 -0.5463 -0.1799
 5021SOL    HW120899   7.716   1.886  10.384  0.7129 -0.2117 -1.2283
 5021SOL    HW220900   7.636   1.759  10.408  0.2187  0.3346  0.1135
 5022SOL     OW20901   6.191   2.578   2.718  0.0156 -0.2665 -1.1223
 5022SOL    HW120902   6.157   2.524   2.647  1.6968 -1.0867 -1.3656
 5022SOL    HW220903   6.272   2.535   2.745  1.1390  1.8033 -0.9167
 5023SOL     OW20904   2.219   3.318   9.414  0.5465  0.0354  0.2781
 5023SOL    HW120905   2.275   3.301   9.489 -0.8245 -1.4493  1.0337
 5023SOL    HW220906   2.143   3.364   9.451 -0.1679 -0.7513 -0.1637
 5024SOL     OW20907   2.225   8.258   2.511 -0.5509 -0.1742 -0.2635
 5024SOL    HW120908   2.282   8.306   2.571 -0.6957  0.0054 -0.2707
 5024SOL    HW220909   2.168   8.324   2.474 -1.2459 -0.4506  0.2814
 5025SOL     OW20910   1.304   1.729   3.281 -0.0379 -0.3616  0.1245
 5025SOL    HW120911   1.377   1.785   3.256 -1.4129  0.8148 -1.4693
 5025SOL    HW220912   1.281   1.758   3.370  0.8710 -0.1683  0.3005
 5026SOL     OW20913   5.276   6.438   1.969 -0.7414 -0.3735 -0.1902
 5026SOL    HW120914   5.192   6.470   1.937  0.3108  1.7305 -1.0224
 5026SOL    HW220915   5.281   6.470   2.059 -0.1830  0.8770 -0.6511
 5027SOL     OW20916   8.686  10.486   7.675 -0.1696 -0.2975 -0.0631
 5027SOL    HW120917   8.742  10.417   7.710  0.3869  1.5036  3.0141
 5027SOL    HW220918   8.604  10.478   7.725  0.0521  1.4077  0.6681
 5028SOL     OW20919   3.990   4.740   7.392 -0.2618  0.1356  0.2947
 5028SOL    HW120920   4.056   4.684   7.352  0.4161  1.1643 -0.0511
 5028SOL    HW220921   4.033   4.825   7.404 -0.8802  0.2598  1.9528
 5029SOL     OW20922   1.787   7.840   5.229 -0.7981 -0.2969  0.1452
 5029SOL    HW120923   1.878   7.819   5.248  0.0426  2.7920  0.0660
 5029SOL    HW220924   1.739   7.813   5.307  0.5233  0.0724  1.1131
 5030SOL     OW20925   9.530   7.147  10.502  0.2824 -0.3527 -0.3580
 5030SOL    HW120926   9.493   7.130  10.415 -0.0166  0.0851 -0.3163
 5030SOL    HW220927   9.470   7.210  10.542  0.3940 -0.5841  0.1837
 5031SOL     OW20928   7.962   0.446   3.781  0.5581  0.1887  0.4873
 5031SOL    HW120929   7.891   0.397   3.739  0.8733  0.7220 -0.7137
 5031SOL    HW220930   8.037   0.387   3.776  0.9783  0.7980 -1.1007
 5032SOL     OW20931   3.632   5.016   4.104  0.0238 -0.4868  0.2410
 5032SOL    HW120932   3.562   5.081   4.103  0.2377 -0.1366  2.3933
 5032SOL    HW220933   3.703   5.058   4.152  1.0503 -1.4746 -0.3810
 5033SOL     OW20934   1.217   4.969   5.596  0.0109 -0.2465 -0.5693
 5033SOL    HW120935   1.126   4.956   5.621 -0.0373 -1.1257 -1.1799
 5033SOL    HW220936   1.237   4.897   5.536  1.3492 -0.5635  0.1922
 5034SOL     OW20937   3.395   7.082   4.091  0.3551 -0.5312  0.2774
 5034SOL    HW120938   3.351   7.160   4.123  3.3153  0.1895  3.0833
 5034SOL    HW220939   3.373   7.014   4.155  0.3084 -1.1511 -0.3894
 5035SOL     OW20940   7.889   0.761   4.878 -0.0861  0.1821  0.2279
 5035SOL    HW120941   7.835   0.838   4.897  0.9153  0.3591  2.7532
 5035SOL    HW220942   7.967   0.772   4.931  0.8212 -1.8217 -0.5737
 5036SOL     OW20943   4.197   9.786   8.335 -0.5388 -0.6091 -0.1857
 5036SOL    HW120944   4.151   9.734   8.400 -0.8968 -0.7163 -0.5169
 5036SOL    HW220945   4.220   9.724   8.266  1.2142 -0.8046  0.5314
 5037SOL     OW20946   4.335   7.469   4.678 -0.0303 -0.4695 -0.1634
 5037SOL    HW120947   4.338   7.407   4.751  2.6423  0.4805  0.6626
 5037SOL    HW220948   4.306   7.551   4.717 -0.2424 -0.3687 -0.5269
 5038SOL     OW20949   1.022   2.115   2.738 -0.2618  0.0912 -0.2475
 5038SOL    HW120950   0.938   2.152   2.712  0.2953  1.5457 -0.0944
 5038SOL    HW220951   1.025   2.129   2.833  1.2127  2.4905 -0.5623
 5039SOL     OW20952   4.352  10.578   5.921  0.1064  0.1653  0.3756
 5039SOL    HW120953   4.290  10.534   5.863 -0.5857  0.7065  0.6810
 5039SOL    HW220954   4.296  10.618   5.988  0.9167 -0.7826  1.6432
 5040SOL     OW20955   0.510   0.095   9.674  0.3160  0.1540 -0.4713
 5040SOL    HW120956   0.456   0.051   9.739  0.0903 -1.8403 -1.9192
 5040SOL    HW220957   0.453   0.162   9.636  0.4060  1.2416  1.2015
 5041SOL     OW20958   4.861   5.335   7.936  0.4548 -0.1073 -0.2543
 5041SOL    HW120959   4.869   5.240   7.944  0.7531 -0.1150 -0.6366
 5041SOL    HW220960   4.849   5.351   7.843 -1.1821  0.1233 -0.0297
 5042SOL     OW20961   5.197   8.692   4.470 -0.1065 -0.5623 -1.0322
 5042SOL    HW120962   5.133   8.759   4.447 -0.8648 -0.3903  1.3655
 5042SOL    HW220963   5.275   8.741   4.495 -0.6560 -0.5214  0.7049
 5043SOL     OW20964  10.038   8.503   9.443  0.2283 -0.4631 -0.0457
 5043SOL    HW120965  10.007   8.451   9.517  0.1153 -0.6071 -0.1949
 5043SOL    HW220966  10.019   8.450   9.366  1.6978 -0.9655 -0.0863
 5044SOL     OW20967   4.467   8.146   2.514  0.0527  0.1079 -0.8581
 5044SOL    HW120968   4.433   8.060   2.536  1.2937 -0.1036  0.3992
 5044SOL    HW220969   4.557   8.129   2.485  0.2251  0.9620 -0.8454
 5045SOL     OW20970   7.822   8.526   6.351 -0.2635  0.2441  0.3793
 5045SOL    HW120971   7.882   8.600   6.362  2.2459 -1.3477 -1.3648
 5045SOL    HW220972   7.847   8.487   6.268 -1.9140 -2.1932  0.9095
 5046SOL     OW20973   2.735   6.833   5.747  0.5509 -0.2662 -0.2558
 5046SOL    HW120974   2.696   6.919   5.732  1.5779  0.2877  0.1704
 5046SOL    HW220975   2.779   6.841   5.832  0.2575 -1.3654  0.0201
 5047SOL     OW20976   9.442   4.295   5.384  0.4608  0.5482 -0.1464
 5047SOL    HW120977   9.525   4.261   5.417  0.4247  1.6252  1.1526
 5047SOL    HW220978   9.442   4.274   5.291  1.0577 -1.6906  0.3051
 5048SOL     OW20979   6.255   4.330   0.366  0.3832 -0.2897 -0.5978
 5048SOL    HW120980   6.278   4.327   0.273  1.4878 -1.2392 -0.3102
 5048SOL    HW220981   6.159   4.324   0.366  0.3096  0.5226 -1.6941
 5049SOL     OW20982   6.776   7.585   6.093  0.3477  0.4477  0.5239
 5049SOL    HW120983   6.725   7.524   6.147  0.5978  0.1793  0.4647
 5049SOL    HW220984   6.820   7.528   6.029 -1.2088  0.8963 -1.0183
 5050SOL     OW20985   0.626   7.042  10.387 -0.0790  0.5279 -0.4429
 5050SOL    HW120986   0.674   6.976  10.438  2.1235  1.8814 -0.6017
 5050SOL    HW220987   0.586   6.992  10.316  0.8229 -0.7655 -0.0964
 5051SOL     OW20988   5.257   5.003   3.946  0.0436  0.4910 -0.0728
 5051SOL    HW120989   5.181   5.058   3.929 -0.0667  0.3669  0.0119
 5051SOL    HW220990   5.229   4.915   3.919  0.1714  0.4527 -0.0821
 5052SOL     OW20991  10.338   4.060   6.569 -0.0127 -0.1804  0.3296
 5052SOL    HW120992  10.397   3.989   6.594  1.2367  0.7430  0.1112
 5052SOL    HW220993  10.332   4.053   6.473  0.2965  0.1288  0.2841
 5053SOL     OW20994   3.933   5.241   1.236 -0.1989  0.1562  0.3001
 5053SOL    HW120995   4.000   5.188   1.279 -0.0894  0.9142  1.0981
 5053SOL    HW220996   3.860   5.181   1.221  1.0708 -0.9988 -1.6798
 5054SOL     OW20997   8.597   8.353   9.072  0.0358 -0.0663  0.0644
 5054SOL    HW120998   8.565   8.359   8.982  0.6260 -1.1489 -0.2320
 5054SOL    HW220999   8.528   8.307   9.120 -0.7449  1.4189  0.4275
 5055SOL     OW21000   1.324   0.541   0.088  0.5077 -0.6124  0.0473
 5055SOL    HW121001   1.384   0.471   0.059 -0.2539 -1.3796  0.2956
 5055SOL    HW221002   1.381   0.602   0.135  1.4204 -0.3756 -1.2878
 5056SOL     OW21003   9.980   5.336  10.892 -0.1965 -0.5066  0.4196
 5056SOL    HW121004   9.901   5.389  10.899 -0.2584 -0.4845 -0.3806
 5056SOL    HW221005  10.050   5.393  10.925 -0.2874  0.0173 -0.2797
 5057SOL     OW21006   0.422   3.638   8.348 -0.1323 -0.2234  0.5370
 5057SOL    HW121007   0.465   3.569   8.398  1.9512 -0.3551 -1.2790
 5057SOL    HW221008   0.483   3.712   8.350 -1.2847  0.7812  0.5241
 5058SOL     OW21009   7.502   8.319   8.244  0.5247  0.1592  0.0272
 5058SOL    HW121010   7.449   8.271   8.180 -0.5836  1.8466 -0.3683
 5058SOL    HW221011   7.440   8.346   8.312  0.9293  1.8111 -0.2250
 5059SOL     OW21012   7.690   1.908   8.963 -0.3921  0.3689 -0.0051
 5059SOL    HW121013   7.770   1.930   9.012  0.3972  1.2532 -1.5995
 5059SOL    HW221014   7.641   1.991   8.959 -1.3849 -0.1543  0.9098
 5060SOL     OW21015  10.021   5.320   6.208 -0.2913  0.4604  0.1382
 5060SOL    HW121016  10.089   5.255   6.189 -1.2517 -0.4179 -0.3783
 5060SOL    HW221017  10.019   5.375   6.130  1.5405  2.0732  1.1593
 5061SOL     OW21018   9.031   2.072   7.967 -0.0873 -0.4861  0.3743
 5061SOL    HW121019   9.055   2.048   8.057 -0.8376 -0.0547  0.7046
 5061SOL    HW221020   9.066   2.001   7.913  2.0546  0.2013  0.7754
 5062SOL     OW21021   8.709   8.625   4.866 -0.2236  0.2014 -0.5018
 5062SOL    HW121022   8.728   8.719   4.858 -0.5364  0.3628  0.4891
 5062SOL    HW221023   8.615   8.618   4.853  0.0154 -0.2145 -2.3099
 5063SOL     OW21024   6.299   9.556   9.743 -0.1880 -0.2492  0.1288
 5063SOL    HW121025   6.351   9.562   9.823  1.0273 -0.9194 -0.5908
 5063SOL    HW221026   6.262   9.468   9.744  1.3340 -0.9395 -0.9158
 5064SOL     OW21027   3.094   8.932   5.330  0.6648  0.0263  0.3190
 5064SOL    HW121028   3.000   8.949   5.322  0.1983 -2.1803  0.4249
 5064SOL    HW221029   3.109   8.928   5.424  1.0649  1.2281  0.3185
 5065SOL     OW21030   3.197   9.832   7.567 -0.0809  0.3469 -0.6230
 5065SOL    HW121031   3.251   9.904   7.602  0.6114 -0.7024  0.5554
 5065SOL    HW221032   3.107   9.862   7.579  0.2014  1.2049 -0.5562
 5066SOL     OW21033   6.515   4.023   0.704  0.4920  0.1061 -0.6786
 5066SOL    HW121034   6.479   4.064   0.625  1.8374  1.0315 -0.8587
 5066SOL    HW221035   6.562   4.094   0.748  0.0229 -0.4727  0.8109
 5067SOL     OW21036   3.774   5.679   5.199  0.4684 -0.2287 -0.1793
 5067SOL    HW121037   3.857   5.690   5.244  0.4924  1.0667 -0.5004
 5067SOL    HW221038   3.713   5.652   5.267  0.4035  2.1391  0.7798
 5068SOL     OW21039   8.078   0.566   7.333  0.1197 -0.1785  0.7592
 5068SOL    HW121040   8.133   0.530   7.264  0.1092  0.8669  0.1788
 5068SOL    HW221041   8.012   0.498   7.350  0.2468 -0.5254 -0.1233
 5069SOL     OW21042   8.647   4.864   5.315  0.4190 -0.7899 -0.1042
 5069SOL    HW121043   8.557   4.870   5.348  0.4239  1.0361 -0.3646
 5069SOL    HW221044   8.701   4.890   5.389  0.4984  1.9541 -1.0369
 5070SOL     OW21045   2.224   9.504   0.525 -0.0872  0.0058  0.8204
 5070SOL    HW121046   2.283   9.519   0.599  0.3354 -1.0576  0.7240
 5070SOL    HW221047   2.257   9.561   0.456  0.2043  0.1777  1.1007
 5071SOL     OW21048   5.200  10.490   8.713 -0.6091 -0.3323 -0.1388
 5071SOL    HW121049   5.148  10.570   8.715 -1.0166 -0.4816 -2.3145
 5071SOL    HW221050   5.193  10.459   8.623  0.9748 -1.8841  0.2148
 5072SOL     OW21051  10.036   5.945   2.206 -0.4103  0.5878  0.5206
 5072SOL    HW121052  10.048   5.868   2.150  0.0245 -0.1149  1.5397
 5072SOL    HW221053   9.950   5.933   2.246  0.0796  0.1114  1.4447
 5073SOL     OW21054   0.962   1.145   2.102  0.0854  0.1859 -0.2118
 5073SOL    HW121055   0.956   1.241   2.093 -0.8016  0.1959  0.3870
 5073SOL    HW221056   0.871   1.116   2.104  0.3485 -0.6167  0.2318
 5074SOL     OW21057   2.253   2.564  10.336 -0.3953  0.2344 -0.2207
 5074SOL    HW121058   2.287   2.475  10.325 -0.8162  0.0886 -0.3897
 5074SOL    HW221059   2.163   2.559  10.301 -0.1714  0.8990 -0.9131
 5075SOL     OW21060   7.640  10.490   0.114  0.1902 -0.1992  0.4904
 5075SOL    HW121061   7.722  10.445   0.097  0.6771  1.1600 -1.0758
 5075SOL    HW221062   7.645  10.570   0.062 -1.4712  0.6888  1.5901
 5076SOL     OW21063   7.844   6.479   3.598 -0.2729  0.0267  0.1536
 5076SOL    HW121064   7.753   6.451   3.602 -0.5433  0.9998  1.5297
 5076SOL    HW221065   7.895   6.402   3.623 -0.8660  0.0877  1.6283
 5077SOL     OW21066   0.956   8.383   7.899  0.0617  0.1420  0.1151
 5077SOL    HW121067   0.934   8.415   7.812 -0.0485  0.5741  0.2971
 5077SOL    HW221068   0.884   8.413   7.955  0.3726  0.2960  0.4431
 5078SOL     OW21069   4.701   7.014   2.839 -0.3801  0.0578 -0.4361
 5078SOL    HW121070   4.737   6.935   2.879  0.3184  0.4263 -0.3257
 5078SOL    HW221071   4.774   7.075   2.837 -0.7340  0.4685 -1.1518
 5079SOL     OW21072   8.341   4.511   7.980  0.0177  0.1815 -0.6176
 5079SOL    HW121073   8.408   4.520   8.049  0.5425  2.1696 -1.3072
 5079SOL    HW221074   8.328   4.601   7.949 -0.6366 -0.6012 -2.7088
 5080SOL     OW21075   9.926   3.252   0.437  0.3726 -0.0361 -0.1225
 5080SOL    HW121076   9.862   3.319   0.412 -0.0684 -0.9749 -1.6667
 5080SOL    HW221077   9.944   3.268   0.529 -0.2017  1.8020 -0.3030
 5081SOL     OW21078  10.069   4.308   6.198  0.1697 -0.6069  0.1980
 5081SOL    HW121079  10.005   4.343   6.260  0.0327  0.1702 -0.3663
 5081SOL    HW221080  10.150   4.299   6.249 -0.3605 -1.5347  0.8981
 5082SOL     OW21081   3.624   1.233   6.888 -0.0800  0.1660 -0.0010
 5082SOL    HW121082   3.688   1.287   6.841 -0.6212  1.0211  0.2320
 5082SOL    HW221083   3.555   1.217   6.824  0.5194 -1.0764 -0.3716
 5083SOL     OW21084   0.766   4.629   7.552  0.2073 -0.2784 -0.2675
 5083SOL    HW121085   0.716   4.547   7.549  0.5181 -0.4809  0.0343
 5083SOL    HW221086   0.857   4.601   7.546  0.3443  0.0031  0.4538
 5084SOL     OW21087   0.719  10.038   2.527 -0.1233 -0.0866  0.2474
 5084SOL    HW121088   0.656  10.091   2.577 -0.9975 -0.1683 -0.7514
 5084SOL    HW221089   0.678  10.025   2.442  1.6396  0.6395 -0.7722
 5085SOL     OW21090   2.744  10.801   2.412  0.2547 -0.1860  0.2920
 5085SOL    HW121091   2.730  10.746   2.335  0.7624  0.2836 -0.1399
 5085SOL    HW221092   2.769  10.886   2.376  0.8067 -0.0538  0.9868
 5086SOL     OW21093   3.139   5.440   0.952 -0.2615  0.4186 -0.0611
 5086SOL    HW121094   3.207   5.373   0.938  0.5299  0.9138  1.2157
 5086SOL    HW221095   3.183   5.523   0.932 -0.6584  0.7008  0.2236
 5087SOL     OW21096   1.552   1.634   8.978  0.4465  0.0921  0.2209
 5087SOL    HW121097   1.475   1.620   8.923  0.1624  0.6762  0.4556
 5087SOL    HW221098   1.540   1.573   9.051  0.2782  0.0750  0.1809
 5088SOL     OW21099   6.815   2.194   3.599 -0.7089  0.0078  0.2000
 5088SOL    HW121100   6.854   2.282   3.597 -1.0564  0.1922  1.0776
 5088SOL    HW221101   6.736   2.203   3.546 -0.2836 -0.0121 -0.4502
 5089SOL     OW21102   7.714   2.057   2.467 -0.3760  0.4310  0.1206
 5089SOL    HW121103   7.738   1.964   2.473 -1.9229 -0.0777 -0.9861
 5089SOL    HW221104   7.776   2.101   2.525  1.9996 -0.9652 -1.1964
 5090SOL     OW21105   0.251   9.188   7.692  0.1414  0.7040 -0.0550
 5090SOL    HW121106   0.318   9.232   7.640  0.0234  1.0564  0.0869
 5090SOL    HW221107   0.192   9.149   7.628 -0.7480  2.2616 -0.2120
 5091SOL     OW21108   7.332   2.725   3.329 -0.0613 -0.5535  0.3236
 5091SOL    HW121109   7.269   2.774   3.277 -0.4167 -1.2119  0.1278
 5091SOL    HW221110   7.401   2.701   3.267 -0.6613 -1.6488  0.0592
 5092SOL     OW21111   9.121   7.926   1.147 -0.2120 -0.0785  0.0339
 5092SOL    HW121112   9.134   8.016   1.117  0.4919  0.6079  2.1966
 5092SOL    HW221113   9.029   7.909   1.130 -0.5308  1.3130  0.1768
 5093SOL     OW21114   1.846   5.347   8.784  0.0369 -0.7485  0.0980
 5093SOL    HW121115   1.920   5.403   8.760  0.0274 -0.3263  1.0050
 5093SOL    HW221116   1.835   5.288   8.710 -0.0185  0.5138 -0.9275
 5094SOL     OW21117   2.848   4.163   5.832 -0.0994  0.1904 -0.1794
 5094SOL    HW121118   2.822   4.091   5.890 -0.1085  0.3682  0.0379
 5094SOL    HW221119   2.881   4.231   5.892 -1.4957  0.9812 -0.2659
 5095SOL     OW21120   6.975   4.552   1.132  0.7179 -0.0353 -0.4102
 5095SOL    HW121121   7.039   4.576   1.065 -0.9882  0.0167 -2.1208
 5095SOL    HW221122   6.937   4.635   1.160 -0.1253 -0.1945 -1.0364
 5096SOL     OW21123   7.807   2.314   0.625  0.0205  0.8039 -0.1905
 5096SOL    HW121124   7.763   2.375   0.566 -0.4892  0.2442 -0.3915
 5096SOL    HW221125   7.803   2.358   0.711  0.4139  1.4350 -0.4888
 5097SOL     OW21126   7.400  10.394   3.254  0.0817 -0.1869  0.1288
 5097SOL    HW121127   7.416  10.476   3.299  1.4467 -0.5255  0.3223
 5097SOL    HW221128   7.457  10.331   3.298 -3.8236 -2.2919  2.7476
 5098SOL     OW21129  10.738   2.025   6.516  0.6192 -0.1760 -0.1790
 5098SOL    HW121130  10.688   1.978   6.450  0.2394  0.3565 -0.2748
 5098SOL    HW221131  10.793   2.085   6.467 -1.4774  2.0292  0.0331
 5099SOL     OW21132   5.854   8.640   2.964  0.1044 -0.3252 -0.2304
 5099SOL    HW121133   5.772   8.653   3.013 -0.9005 -1.4435 -1.5375
 5099SOL    HW221134   5.862   8.545   2.956  2.2431 -0.3139  0.9526
 5100SOL     OW21135   0.382   1.279   2.384  0.2258  0.6888 -0.1494
 5100SOL    HW121136   0.337   1.336   2.321 -1.9976  1.5367  2.0127
 5100SOL    HW221137   0.424   1.340   2.444 -0.6991  0.0342  1.1987
 5101SOL     OW21138   1.181   4.616   8.179  0.1882  0.5514 -0.0028
 5101SOL    HW121139   1.182   4.711   8.193  0.4645  0.4951  0.3842
 5101SOL    HW221140   1.245   4.583   8.241 -1.9477 -0.1728  1.9219
 5102SOL     OW21141   6.754   9.732   9.048 -0.3337  0.1456 -0.3242
 5102SOL    HW121142   6.733   9.742   9.141 -0.0906 -0.3131 -0.2132
 5102SOL    HW221143   6.737   9.818   9.010  1.9893  1.0921  0.6206
 5103SOL     OW21144   2.296   8.998   6.475 -0.2696  0.1454  0.4436
 5103SOL    HW121145   2.285   8.975   6.383  0.9207 -1.0826  0.5803
 5103SOL    HW221146   2.373   8.948   6.504  1.0706  2.5658  1.3842
 5104SOL     OW21147   3.259   2.105   5.084 -0.1898  0.2178  0.0009
 5104SOL    HW121148   3.180   2.159   5.082 -0.8531 -0.6823  0.9451
 5104SOL    HW221149   3.274   2.081   4.993 -1.2633  0.0376 -0.1425
 5105SOL     OW21150   8.287  10.049   3.370  0.2647  0.5939  0.1109
 5105SOL    HW121151   8.326  10.077   3.287 -0.3928 -1.0660 -0.8250
 5105SOL    HW221152   8.361  10.019   3.422  0.5154 -0.2169 -0.6810
 5106SOL     OW21153   7.160   0.514   3.359 -0.6868 -0.1126 -0.3207
 5106SOL    HW121154   7.071   0.517   3.394 -1.1434  1.4251 -1.5016
 5106SOL    HW221155   7.150   0.481   3.270 -0.2672  1.3070 -0.9232
 5107SOL     OW21156   3.646   5.672   3.456 -0.1535  0.2237 -0.0611
 5107SOL    HW121157   3.614   5.685   3.367  1.3863 -2.5153 -1.0936
 5107SOL    HW221158   3.741   5.681   3.450 -0.1418  2.8455  1.9371
 5108SOL     OW21159   1.557  10.871  10.114  0.2690 -0.3862 -0.4061
 5108SOL    HW121160   1.531  10.930  10.185 -2.0879 -0.2652 -1.3038
 5108SOL    HW221161   1.653  10.872  10.117  0.2669  1.2874  1.3768
 5109SOL     OW21162   8.332   5.146   7.875 -0.2612 -0.5757  0.1462
 5109SOL    HW121163   8.410   5.091   7.882 -0.9600 -1.6072 -0.0395
 5109SOL    HW221164   8.313   5.171   7.965  0.0183 -0.6794  0.2371
 5110SOL     OW21165   4.284   5.410  10.418  0.4339 -0.2708  0.2767
 5110SOL    HW121166   4.377   5.410  10.397  0.4623  0.7517  0.3310
 5110SOL    HW221167   4.280   5.378  10.509  0.6746 -0.8385  0.0894
 5111SOL     OW21168   8.796   8.080   5.662  0.3789  0.0840  0.2519
 5111SOL    HW121169   8.769   8.170   5.679 -0.1523 -0.0881  0.3429
 5111SOL    HW221170   8.847   8.085   5.581  0.7793  0.5380  0.5277
 5112SOL     OW21171   8.997   8.049   2.389 -0.5046  0.2498  0.4353
 5112SOL    HW121172   8.950   8.116   2.340  0.2542  0.4086 -0.0893
 5112SOL    HW221173   9.009   7.977   2.328  1.4805  0.9111 -0.0336
 5113SOL     OW21174   9.248   5.441   9.684 -0.1646 -0.0808 -0.1810
 5113SOL    HW121175   9.159   5.445   9.651 -0.8166 -2.6330  1.0031
 5113SOL    HW221176   9.239   5.457   9.778  0.4917 -1.1484  0.0798
 5114SOL     OW21177   8.293   5.412   0.431 -0.6050 -0.2810 -0.6066
 5114SOL    HW121178   8.234   5.364   0.489  1.5853 -3.6811 -0.9263
 5114SOL    HW221179   8.351   5.460   0.489 -0.1491 -1.4836 -0.0364
 5115SOL     OW21180  10.658   1.385   9.438 -0.4683  0.4901 -0.4447
 5115SOL    HW121181  10.730   1.393   9.376 -0.7472  0.6028 -0.7550
 5115SOL    HW221182  10.658   1.468   9.486  0.0219  0.2353  0.0112
 5116SOL     OW21183   6.310   2.707   8.114 -0.1584  0.3381 -0.0936
 5116SOL    HW121184   6.391   2.755   8.127 -0.2843  0.1652  1.5987
 5116SOL    HW221185   6.312   2.680   8.023  2.2213 -0.6280  0.1770
 5117SOL     OW21186  10.491   6.075   6.855  0.6175 -0.1360  0.2680
 5117SOL    HW121187  10.403   6.037   6.856  0.8654 -0.7795 -1.1072
 5117SOL    HW221188  10.533   6.038   6.777  1.5782  1.3616  0.0374
 5118SOL     OW21189   9.800   6.724  10.678 -0.0828  0.1962 -0.1602
 5118SOL    HW121190   9.729   6.764  10.627 -1.4891 -1.0216  0.7510
 5118SOL    HW221191   9.759   6.701  10.761  1.1871 -1.2180  0.1098
 5119SOL     OW21192   6.253   3.500   9.940  0.5146 -0.1335  0.5881
 5119SOL    HW121193   6.323   3.445   9.903  1.7203  0.1868  2.2418
 5119SOL    HW221194   6.262   3.584   9.894  0.1177 -0.6107 -0.3818
 5120SOL     OW21195   2.150   6.780   4.775 -0.1311 -0.0261  0.4139
 5120SOL    HW121196   2.240   6.778   4.807  0.2430 -1.2303 -0.6344
 5120SOL    HW221197   2.124   6.688   4.771 -1.5338  0.3199  0.9955
 5121SOL     OW21198   3.996  10.281  10.521 -0.2440 -0.2960 -0.3256
 5121SOL    HW121199   4.033  10.203  10.481  0.7729  0.9571 -1.9456
 5121SOL    HW221200   4.067  10.318  10.574 -0.6129 -0.2688  0.1685
 5122SOL     OW21201   0.561   7.841   7.908  0.4741  0.2979  0.1761
 5122SOL    HW121202   0.548   7.746   7.909  0.5274  0.2601 -1.0173
 5122SOL    HW221203   0.553   7.868   8.000 -0.9784 -0.6696  0.3665
 5123SOL     OW21204   3.903   4.532   6.936  0.2874 -0.3877  0.3158
 5123SOL    HW121205   3.849   4.464   6.976 -2.6215  0.6755 -1.4588
 5123SOL    HW221206   3.868   4.614   6.972  1.2677  0.3338 -0.3198
 5124SOL     OW21207   0.854   0.742   2.279 -0.3616 -0.6956 -0.2521
 5124SOL    HW121208   0.776   0.708   2.322 -1.4381 -0.3234 -1.8160
 5124SOL    HW221209   0.888   0.809   2.339 -1.6961 -0.3144  0.1018
 5125SOL     OW21210   8.852   6.711   1.470 -0.2529 -0.0566  0.3898
 5125SOL    HW121211   8.908   6.785   1.493 -0.5658  1.0643 -2.1442
 5125SOL    HW221212   8.901   6.663   1.403 -1.6625  0.1555 -0.8588
 5126SOL     OW21213   6.086   6.884   9.920 -0.2189 -0.1003 -0.4597
 5126SOL    HW121214   6.019   6.930   9.868 -0.9319 -1.6149 -0.9304
 5126SOL    HW221215   6.038   6.850   9.995  0.4180  0.3767  0.1767
 5127SOL     OW21216   7.163   9.406   8.412 -0.1409 -0.2433  0.2980
 5127SOL    HW121217   7.150   9.493   8.372  0.9889 -0.6608 -1.0727
 5127SOL    HW221218   7.253   9.384   8.390  1.1463  0.1287  4.5063
 5128SOL     OW21219  10.034   5.413   5.296  0.3445 -0.4741 -0.2323
 5128SOL    HW121220   9.962   5.402   5.233  0.5161 -0.8926 -0.3591
 5128SOL    HW221221  10.077   5.494   5.269 -0.1940 -0.1205 -0.0404
 5129SOL     OW21222   0.310   6.983   3.005 -0.4871  0.1285  0.2845
 5129SOL    HW121223   0.315   7.037   2.927  0.2161  0.8604  0.8226
 5129SOL    HW221224   0.271   7.039   3.072 -1.6374 -0.6745  0.3257
 5130SOL     OW21225   4.718   2.041   2.785 -0.2287  0.3459 -0.3079
 5130SOL    HW121226   4.758   2.106   2.726 -0.9431  0.7772 -0.3196
 5130SOL    HW221227   4.625   2.061   2.783 -0.1986  0.8320  1.5264
 5131SOL     OW21228   4.563   0.606   6.991  0.1209 -0.2188  0.2623
 5131SOL    HW121229   4.469   0.620   6.991  0.4542  2.8449  0.5969
 5131SOL    HW221230   4.587   0.603   6.898 -0.3337 -1.6332  0.1723
 5132SOL     OW21231   8.223   8.911   7.937 -0.0324 -0.1177 -0.5057
 5132SOL    HW121232   8.281   8.946   8.005  0.2773  0.7130 -1.1923
 5132SOL    HW221233   8.271   8.924   7.855  0.0681 -2.0583 -0.8227
 5133SOL     OW21234   3.930   2.019   9.412  0.4981 -0.1746  0.4713
 5133SOL    HW121235   3.918   1.984   9.324 -0.2669  1.8844 -0.3005
 5133SOL    HW221236   3.853   2.074   9.427  2.0148  1.8759  1.2087
 5134SOL     OW21237   0.196   1.990   0.416  0.2023  0.0373 -0.3870
 5134SOL    HW121238   0.168   2.045   0.489  1.8551  1.7169 -0.9325
 5134SOL    HW221239   0.126   1.998   0.351  0.1837  1.1026 -0.2497
 5135SOL     OW21240   5.861   5.017   2.005  0.3949 -0.3201  0.1082
 5135SOL    HW121241   5.846   5.110   1.986  0.6598 -0.2115  0.4240
 5135SOL    HW221242   5.813   5.001   2.086  1.0518 -0.2440  0.5209
 5136SOL     OW21243  10.165   0.925  10.513 -0.3761 -0.1791  0.2981
 5136SOL    HW121244  10.143   0.877  10.432  0.7977  2.7764 -1.9719
 5136SOL    HW221245  10.081   0.933  10.559 -2.1323  1.5681 -2.7905
 5137SOL     OW21246  10.283   4.876   9.113 -0.2505  0.3694  0.7536
 5137SOL    HW121247  10.340   4.931   9.167 -0.7873 -0.7615  2.5707
 5137SOL    HW221248  10.214   4.847   9.173 -1.4786 -0.1126 -0.8277
 5138SOL     OW21249   9.909   7.621   5.568  0.0121 -0.2180  0.4502
 5138SOL    HW121250   9.994   7.662   5.549 -0.9736  0.6842 -2.6061
 5138SOL    HW221251   9.854   7.693   5.598 -0.1097 -0.5067  0.9270
 5139SOL     OW21252   5.535   4.344  10.013  0.1971 -0.5778  0.2823
 5139SOL    HW121253   5.472   4.393  10.065  0.0045  0.3265 -0.7413
 5139SOL    HW221254   5.601   4.315  10.076 -0.6020 -0.4938  1.1804
 5140SOL     OW21255   8.935   7.388   6.698 -0.6550  0.3071 -0.3417
 5140SOL    HW121256   9.003   7.394   6.764 -0.7883  0.1429 -0.1880
 5140SOL    HW221257   8.920   7.478   6.671 -0.3782  0.3425 -0.3752
 5141SOL     OW21258   3.996   6.794   3.965 -0.2220  0.1586 -0.6981
 5141SOL    HW121259   4.079   6.828   3.930 -0.5819  0.2135 -1.4993
 5141SOL    HW221260   3.978   6.716   3.914 -1.2387  0.7713 -1.2881
 5142SOL     OW21261   7.114   2.806   3.851  0.2589  0.2256  0.1366
 5142SOL    HW121262   7.110   2.715   3.879  2.7987  0.1200  0.3774
 5142SOL    HW221263   7.199   2.815   3.807 -0.8326  1.9644 -1.8641
 5143SOL     OW21264   9.650   3.786   3.841 -0.6995  0.3589  0.4224
 5143SOL    HW121265   9.720   3.848   3.822 -0.9024  0.3028 -0.5311
 5143SOL    HW221266   9.616   3.814   3.927  2.3436 -1.3547  2.3558
 5144SOL     OW21267   2.548   3.882   5.038 -0.0768 -0.1989 -0.1010
 5144SOL    HW121268   2.487   3.859   5.108  0.0863  1.3412  0.5930
 5144SOL    HW221269   2.498   3.941   4.981 -0.0381 -1.0119 -0.9902
 5145SOL     OW21270  10.518   5.259   9.810 -0.9127 -0.1244 -0.4456
 5145SOL    HW121271  10.488   5.295   9.727 -3.2131 -1.3686 -0.2346
 5145SOL    HW221272  10.545   5.169   9.789  0.0881  0.0872 -0.1209
 5146SOL     OW21273   3.354   9.348   0.348  0.2515 -0.3076  0.1363
 5146SOL    HW121274   3.423   9.392   0.299  0.3096 -0.0011  0.4880
 5146SOL    HW221275   3.399   9.281   0.399  0.5682  1.0494  1.7507
 5147SOL     OW21276   8.826  10.485   1.039  0.5772 -0.3101 -0.2978
 5147SOL    HW121277   8.900  10.431   1.065  0.7814  0.3541  0.5835
 5147SOL    HW221278   8.750  10.440   1.074  0.5559 -0.9662 -1.1576
 5148SOL     OW21279   9.551  10.484   1.423 -0.3559 -0.1100  0.0341
 5148SOL    HW121280   9.594  10.399   1.415  2.0906  0.8302  1.6381
 5148SOL    HW221281   9.495  10.475   1.500 -0.9775 -0.5850 -0.4696
 5149SOL     OW21282   0.878   5.316   0.819 -0.1151  1.0954  0.4834
 5149SOL    HW121283   0.905   5.383   0.755  1.5063  2.2321  2.2526
 5149SOL    HW221284   0.957   5.266   0.836 -1.2059 -1.0819 -0.4540
 5150SOL     OW21285   0.285   6.545   5.937 -0.2378 -0.7352 -0.4304
 5150SOL    HW121286   0.316   6.613   5.877  0.8270 -1.6239 -0.9253
 5150SOL    HW221287   0.203   6.579   5.971  0.4076  0.9277 -0.4447
 5151SOL     OW21288   3.035   0.347   8.465 -0.3540  0.1754 -0.6009
 5151SOL    HW121289   2.994   0.273   8.420 -2.9953  0.9691  0.2856
 5151SOL    HW221290   3.024   0.421   8.406 -1.3616  0.6412  0.1263
 5152SOL     OW21291   4.756  10.688   8.857 -0.3394  0.5430 -0.3167
 5152SOL    HW121292   4.722  10.762   8.807  0.1960  1.1995  0.2747
 5152SOL    HW221293   4.801  10.633   8.791 -0.5292  0.8615 -0.7146
 5153SOL     OW21294  10.137  10.764   4.277 -0.2976 -0.1199  0.3250
 5153SOL    HW121295  10.078  10.793   4.207 -0.6830  0.7357  0.9895
 5153SOL    HW221296  10.086  10.771   4.357  0.2409 -0.7891  0.7423
 5154SOL     OW21297   0.565   7.153   0.190 -0.2191 -0.3402 -0.4329
 5154SOL    HW121298   0.511   7.185   0.118  0.9233 -0.0376 -1.1730
 5154SOL    HW221299   0.534   7.063   0.204 -0.5593 -0.3514 -1.1960
 5155SOL     OW21300   9.853   2.153   9.212  0.1941  0.7790  0.1443
 5155SOL    HW121301   9.778   2.191   9.259 -0.6698  0.0285 -0.5872
 5155SOL    HW221302   9.854   2.199   9.128 -1.2637 -1.1610 -1.0171
 5156SOL     OW21303   7.946   7.861   1.428 -0.0743  0.3541 -0.5504
 5156SOL    HW121304   7.921   7.806   1.354 -1.5886  0.8033 -0.4121
 5156SOL    HW221305   8.038   7.881   1.413 -0.1045 -0.3256 -1.8165
 5157SOL     OW21306   5.320   0.176   7.422  0.3230  0.0647 -0.2495
 5157SOL    HW121307   5.293   0.217   7.340 -0.7234  1.8738  0.9295
 5157SOL    HW221308   5.415   0.183   7.422  0.3906 -0.4467 -1.5041
 5158SOL     OW21309   2.634   9.937   3.053  0.2348  0.1725 -0.3257
 5158SOL    HW121310   2.723   9.944   3.019 -0.2678 -1.3594 -2.1495
 5158SOL    HW221311   2.589  10.015   3.020  0.6776  0.5676 -0.0217
 5159SOL     OW21312   6.046   9.774   9.859  0.2821  0.2215 -0.5031
 5159SOL    HW121313   6.122   9.804   9.809  1.1352 -0.6345  0.2630
 5159SOL    HW221314   5.988   9.735   9.793  0.2640  1.2979 -1.1552
 5160SOL     OW21315   4.973   0.210   2.125  0.5536  0.5275  0.1041
 5160SOL    HW121316   5.006   0.140   2.069  0.0208 -0.1812  0.6440
 5160SOL    HW221317   5.010   0.191   2.211  1.6409  1.7942 -0.0621
 5161SOL     OW21318   4.147   1.161   4.016 -0.3666  0.1744 -0.5690
 5161SOL    HW121319   4.226   1.106   4.018 -0.6392 -0.2512 -1.2361
 5161SOL    HW221320   4.178   1.247   3.988  0.1898  0.6063  1.1941
 5162SOL     OW21321   3.011  10.661   5.995 -0.3035 -0.0496  0.0260
 5162SOL    HW121322   2.993  10.736   5.939 -1.3219  0.0307  0.4405
 5162SOL    HW221323   3.008  10.586   5.936 -1.2631  0.0442 -0.0595
 5163SOL     OW21324   3.796   7.703   7.356 -0.2438 -0.6436 -0.0830
 5163SOL    HW121325   3.852   7.772   7.393 -1.5468  0.7238 -0.5603
 5163SOL    HW221326   3.774   7.648   7.431 -0.8662  0.6719  0.7487
 5164SOL     OW21327   4.680   0.328   6.987 -0.3039  0.0500 -0.0540
 5164SOL    HW121328   4.704   0.351   6.897 -1.0036  1.5988  0.1208
 5164SOL    HW221329   4.627   0.401   7.017 -1.5073 -1.2250  1.0698
 5165SOL     OW21330   7.646   0.542   1.260 -0.7773  0.2162 -0.3021
 5165SOL    HW121331   7.636   0.554   1.354  0.5555  2.3295 -0.3563
 5165SOL    HW221332   7.608   0.456   1.242 -0.4877 -0.5153  2.2425
 5166SOL     OW21333   6.756   6.773   4.872  0.2979 -0.2331  0.1639
 5166SOL    HW121334   6.768   6.700   4.933  3.3496  0.2686  0.3144
 5166SOL    HW221335   6.756   6.851   4.928  3.3488  0.2460 -0.3423
 5167SOL     OW21336   7.129  10.280   8.188  0.2344  0.0497 -0.5200
 5167SOL    HW121337   7.062  10.211   8.187  0.1234  0.1621 -1.1044
 5167SOL    HW221338   7.099  10.342   8.254 -0.7144  0.5535 -1.3999
 5168SOL     OW21339   3.493   1.213   0.680  0.1988 -0.5705  0.4300
 5168SOL    HW121340   3.479   1.220   0.774 -0.4482  0.8146  0.2570
 5168SOL    HW221341   3.437   1.281   0.642 -1.1432 -2.4478 -1.1061
 5169SOL     OW21342   9.674   1.535   6.451  0.4308 -0.9778  0.1115
 5169SOL    HW121343   9.604   1.520   6.388  0.4461 -0.1925 -0.1021
 5169SOL    HW221344   9.712   1.448   6.466  0.1937 -1.2254 -0.6885
 5170SOL     OW21345  10.742   9.344   4.349  0.4483 -0.1496  0.1183
 5170SOL    HW121346  10.666   9.354   4.406 -0.7167  0.6820 -1.5092
 5170SOL    HW221347  10.707   9.308   4.268  1.0981  3.2529 -1.8863
 5171SOL     OW21348   5.477   6.685   5.711 -0.6178 -0.0482 -0.2455
 5171SOL    HW121349   5.527   6.621   5.762  0.3837  1.0758  0.2219
 5171SOL    HW221350   5.469   6.761   5.769 -0.0205  1.0195 -1.5142
 5172SOL     OW21351   2.032   3.519   6.935  0.7129  0.0928 -0.3624
 5172SOL    HW121352   2.037   3.447   6.998 -0.6841  0.5447  0.2960
 5172SOL    HW221353   2.098   3.582   6.965  0.5931 -0.0414  0.1891
 5173SOL     OW21354   9.597  10.904   4.375 -0.0069  0.2996  0.3892
 5173SOL    HW121355   9.622  10.860   4.457  3.4549 -1.4315 -1.3775
 5173SOL    HW221356   9.636  10.991   4.383  2.1635 -0.5598 -0.1250
 5174SOL     OW21357   3.208   1.120   8.844 -0.3328  0.0695  0.5712
 5174SOL    HW121358   3.222   1.028   8.819  1.2703 -0.6864  3.7762
 5174SOL    HW221359   3.124   1.142   8.804 -0.5698 -2.6247 -0.6769
 5175SOL     OW21360   8.811   7.026   1.468  0.6642  0.2632  0.0672
 5175SOL    HW121361   8.741   6.984   1.519 -0.3967  1.0688 -0.6963
 5175SOL    HW221362   8.765   7.082   1.405  1.9109 -1.0008 -2.0791
 5176SOL     OW21363   3.910   6.349   1.338 -0.3669  1.1479 -0.0901
 5176SOL    HW121364   3.953   6.344   1.423  0.2146  1.8997 -0.3328
 5176SOL    HW221365   3.838   6.411   1.352 -1.2336  0.1163  0.2367
 5177SOL     OW21366   6.795   3.035   3.098 -0.6699 -0.2505 -0.6751
 5177SOL    HW121367   6.883   3.069   3.083 -0.8330  0.1852 -0.6500
 5177SOL    HW221368   6.794   2.949   3.055 -0.4810  0.0820 -1.3431
 5178SOL     OW21369   9.606   6.901  10.544 -0.3149 -0.3605 -0.3946
 5178SOL    HW121370   9.615   6.868  10.455  1.1650 -0.9538 -0.0557
 5178SOL    HW221371   9.589   6.994  10.534 -1.3084 -0.6237 -1.3037
 5179SOL     OW21372   7.543   3.353   6.715  0.3688 -0.0562 -0.0902
 5179SOL    HW121373   7.629   3.345   6.675 -0.1307 -1.4203 -0.9553
 5179SOL    HW221374   7.553   3.315   6.802  0.4724 -0.9038 -0.4642
 5180SOL     OW21375   4.251   9.280  10.798 -0.2585  0.3147  0.0522
 5180SOL    HW121376   4.334   9.298  10.755  1.2413 -0.7026  2.3042
 5180SOL    HW221377   4.225   9.194  10.766  1.0583 -0.6214  1.3279
 5181SOL     OW21378   1.470   0.642   8.314 -0.4563 -0.2734 -0.6112
 5181SOL    HW121379   1.534   0.705   8.347  0.2398 -1.1189 -0.3005
 5181SOL    HW221380   1.511   0.557   8.329 -2.0925 -0.9038  0.5922
 5182SOL     OW21381   3.860   4.573   5.530 -0.4748  0.1309  0.6109
 5182SOL    HW121382   3.877   4.485   5.496  1.4788  0.5718  0.3259
 5182SOL    HW221383   3.893   4.632   5.462  0.4420  1.0470  1.7931
 5183SOL     OW21384   3.542   2.091   9.907  0.5689 -0.2990 -0.4858
 5183SOL    HW121385   3.613   2.053   9.856  1.7174 -0.5628  1.2021
 5183SOL    HW221386   3.508   2.019   9.960  1.2743  0.4862  1.1093
 5184SOL     OW21387  10.690   6.781   3.854 -0.5170 -0.2596 -0.2644
 5184SOL    HW121388  10.727   6.865   3.825 -0.6426 -0.6699 -1.7072
 5184SOL    HW221389  10.695   6.784   3.950  1.1041  0.6585 -0.3378
 5185SOL     OW21390   5.764   5.950   6.276  0.3912 -0.0246 -0.3269
 5185SOL    HW121391   5.712   5.975   6.199  0.1075 -0.6955 -0.3565
 5185SOL    HW221392   5.853   5.938   6.241  0.5034  0.7786 -0.3387
 5186SOL     OW21393   5.855   7.764   7.600  0.1549 -0.3370  0.8020
 5186SOL    HW121394   5.927   7.789   7.657 -0.2335  0.2706  1.0433
 5186SOL    HW221395   5.877   7.676   7.569  0.9226 -0.2078  0.9785
 5187SOL     OW21396   3.092   9.650   0.900  0.0362 -0.1092 -0.1098
 5187SOL    HW121397   3.184   9.672   0.883  0.5731 -0.5385  1.9129
 5187SOL    HW221398   3.094   9.559   0.929 -0.5388  0.7134  2.8754
 5188SOL     OW21399   2.691   2.141   3.010  0.2661  0.0309 -0.3989
 5188SOL    HW121400   2.770   2.181   2.974 -0.1290 -0.0583 -1.3997
 5188SOL    HW221401   2.720   2.098   3.090  1.2730 -0.1919 -0.8711
 5189SOL     OW21402   2.818   8.557   8.916  0.2753 -0.4854 -0.5373
 5189SOL    HW121403   2.826   8.601   8.831  0.3853  0.2996 -0.1366
 5189SOL    HW221404   2.804   8.629   8.978 -0.2315 -1.0817  0.0530
 5190SOL     OW21405   4.060   1.909   8.539 -0.5877 -0.0897 -0.0372
 5190SOL    HW121406   4.140   1.963   8.540 -0.0890 -0.8284  0.3372
 5190SOL    HW221407   3.995   1.966   8.498  0.2225  0.3965 -0.7098
 5191SOL     OW21408   5.653   2.231   5.531 -0.2125  0.0971  0.0756
 5191SOL    HW121409   5.649   2.313   5.482  2.5615  0.3609  0.1737
 5191SOL    HW221410   5.582   2.238   5.596 -0.0491  2.3886  0.0639
 5192SOL     OW21411   7.355   3.771   9.588  0.2934  0.4361 -0.0727
 5192SOL    HW121412   7.422   3.703   9.573 -0.0379 -0.1418  0.9698
 5192SOL    HW221413   7.303   3.771   9.508  1.7476  1.1596 -1.0605
 5193SOL     OW21414   2.003   6.454   6.600  0.1886  0.0641 -0.0199
 5193SOL    HW121415   2.017   6.485   6.510  0.1100 -0.8222 -0.3416
 5193SOL    HW221416   1.932   6.390   6.593  1.2934 -1.2335  0.4157
 5194SOL     OW21417   1.104   9.474   9.743  0.4612 -0.3976  0.0423
 5194SOL    HW121418   1.192   9.441   9.725  0.4213  0.2292 -1.4968
 5194SOL    HW221419   1.116   9.542   9.809  0.8440 -1.7496  1.3955
 5195SOL     OW21420   7.999   5.178   0.324  0.5365 -0.8120  0.0102
 5195SOL    HW121421   7.950   5.128   0.389  0.5151 -0.2726  0.4203
 5195SOL    HW221422   8.061   5.230   0.375  0.7324 -0.6117 -0.4215
 5196SOL     OW21423   3.471   3.887   8.697 -0.1029  0.0922 -0.3171
 5196SOL    HW121424   3.395   3.872   8.640 -0.6146  0.1458  0.3406
 5196SOL    HW221425   3.452   3.970   8.740  0.9003  0.7195 -1.0337
 5197SOL     OW21426  10.531   0.012   4.656  0.2847  0.7737 -0.1052
 5197SOL    HW121427  10.468   0.044   4.721 -0.2901  0.9883 -0.7572
 5197SOL    HW221428  10.478  -0.011   4.580  0.7247 -1.4113  0.1920
 5198SOL     OW21429   5.693   7.842   4.103 -0.1624  0.0515 -0.7643
 5198SOL    HW121430   5.613   7.828   4.152 -0.0049  0.3751 -0.4146
 5198SOL    HW221431   5.667   7.832   4.011 -0.3892 -0.8606 -0.6060
 5199SOL     OW21432   1.851   5.483   0.183 -0.0779 -0.4801 -0.0552
 5199SOL    HW121433   1.838   5.534   0.263  0.3971  1.0745 -0.9274
 5199SOL    HW221434   1.943   5.457   0.186  0.1863  0.3601 -0.5080
 5200SOL     OW21435   7.737   2.171   7.963 -0.3475 -0.0781  0.5483
 5200SOL    HW121436   7.704   2.092   8.006  0.4014 -1.1463 -0.7553
 5200SOL    HW221437   7.691   2.172   7.878  1.0582 -0.1894 -0.2355
 5201SOL     OW21438   7.091   1.113  10.727  0.4423  0.3024 -0.1608
 5201SOL    HW121439   7.120   1.025  10.702 -0.8088  0.4214 -2.2732
 5201SOL    HW221440   7.079   1.109  10.822  0.9166 -1.6531 -0.1543
 5202SOL     OW21441   6.194  10.568   7.826  0.0241  0.7951 -0.0495
 5202SOL    HW121442   6.166  10.551   7.916  1.1366  0.7400  0.2995
 5202SOL    HW221443   6.137  10.514   7.772  0.2373 -0.2140  0.7154
 5203SOL     OW21444   6.083   4.973   1.428  0.2566  0.3440  0.2246
 5203SOL    HW121445   6.049   4.961   1.517 -0.1942  2.5182  0.3959
 5203SOL    HW221446   6.169   4.931   1.429  0.7422  1.2956  2.0356
 5204SOL     OW21447  10.779  10.462   0.214  0.2747  0.1546 -0.1957
 5204SOL    HW121448  10.864  10.455   0.169  0.1090  2.3887 -0.9791
 5204SOL    HW221449  10.783  10.546   0.259 -1.1082 -0.2511  0.7403
 5205SOL     OW21450   2.009   0.036   6.500 -0.3800 -0.8210 -0.2997
 5205SOL    HW121451   1.983   0.003   6.586 -0.3956  0.0047  0.0245
 5205SOL    HW221452   2.103   0.019   6.495 -0.6776 -2.4546 -0.8542
 5206SOL     OW21453   9.361   3.981   3.036  0.1734  0.2878 -0.5208
 5206SOL    HW121454   9.307   4.009   3.109  1.1737  1.4240 -0.1918
 5206SOL    HW221455   9.302   3.980   2.961 -0.1668  2.2121 -0.3133
 5207SOL     OW21456   2.459   1.091   4.540  0.2848  0.4804  0.1232
 5207SOL    HW121457   2.439   1.174   4.582 -0.2085  0.1863  0.4825
 5207SOL    HW221458   2.375   1.060   4.505  0.4008 -0.0192  0.2775
 5208SOL     OW21459   8.506   1.351   8.695  0.2672 -0.0316  0.4973
 5208SOL    HW121460   8.545   1.437   8.680 -2.7263  1.8113  2.3407
 5208SOL    HW221461   8.490   1.348   8.790 -0.8684 -2.1244  0.3090
 5209SOL     OW21462   0.519   5.858   1.580 -0.5511 -0.1223 -0.3961
 5209SOL    HW121463   0.467   5.780   1.600  1.2575 -1.3874 -0.3447
 5209SOL    HW221464   0.557   5.883   1.664 -0.4261  0.2911 -0.5741
 5210SOL     OW21465   9.059   2.967   2.633  0.4133 -0.2999 -0.2404
 5210SOL    HW121466   9.030   3.057   2.644  0.7211 -0.3453  1.1282
 5210SOL    HW221467   9.062   2.954   2.538 -0.6770  0.7813 -0.4469
 5211SOL     OW21468  10.853   7.541   6.991 -0.3132  0.5345 -0.7744
 5211SOL    HW121469  10.859   7.579   6.904 -2.2964  0.3970 -1.0290
 5211SOL    HW221470  10.861   7.446   6.976 -0.4662  0.5235 -0.7856
 5212SOL     OW21471   3.078   7.827   0.636 -0.1681 -0.1735 -0.6582
 5212SOL    HW121472   3.042   7.809   0.723  0.3387  1.3687 -0.0929
 5212SOL    HW221473   3.161   7.779   0.634 -0.8299 -1.3384 -0.8386
 5213SOL     OW21474   9.093   5.588  10.650  0.1168 -0.0725 -0.3581
 5213SOL    HW121475   9.182   5.617  10.672  0.5877 -0.7805 -1.2479
 5213SOL    HW221476   9.057   5.658  10.597  0.2708  0.0732 -0.2712
 5214SOL     OW21477   7.757   9.735  10.000  0.2637  1.3468  0.5621
 5214SOL    HW121478   7.839   9.755   9.954  0.2950  1.4325  0.6558
 5214SOL    HW221479   7.763   9.783  10.082  0.1862  1.2319  0.6352
 5215SOL     OW21480   0.419   2.372   0.453 -0.7974 -0.2672  0.2070
 5215SOL    HW121481   0.412   2.461   0.420  0.1631 -0.6250 -0.9997
 5215SOL    HW221482   0.393   2.316   0.380  2.7258 -1.1334 -0.5316
 5216SOL     OW21483   0.354   0.048   3.818  0.0529  0.6208 -0.1480
 5216SOL    HW121484   0.336   0.125   3.765  2.2068  0.3837 -1.3261
 5216SOL    HW221485   0.319  -0.025   3.768 -2.3476  0.7716  1.1514
 5217SOL     OW21486   7.618   7.184   4.795  0.7982  0.4494 -0.0781
 5217SOL    HW121487   7.615   7.249   4.725  0.9641  2.0624  1.3475
 5217SOL    HW221488   7.704   7.142   4.785  0.1004 -0.6680 -1.9138
 5218SOL     OW21489   4.702   9.027   4.257 -0.3022 -0.7136 -0.3370
 5218SOL    HW121490   4.767   8.957   4.269  1.1375  0.5634 -0.2734
 5218SOL    HW221491   4.678   9.052   4.346 -2.6131 -2.6419 -0.3403
 5219SOL     OW21492  10.662   8.437  10.366  0.0356  0.0007 -0.0065
 5219SOL    HW121493  10.748   8.475  10.384  0.8590 -1.4288 -0.6604
 5219SOL    HW221494  10.643   8.460  10.275 -0.0317 -0.0929 -0.0174
 5220SOL     OW21495   9.530   1.796   3.744  0.2507 -0.2369 -0.2707
 5220SOL    HW121496   9.475   1.866   3.709 -0.3742 -1.8641 -2.8709
 5220SOL    HW221497   9.619   1.819   3.716  0.3184  0.3444  0.3896
 5221SOL     OW21498   4.971   5.636   1.776  0.6075 -0.4679  0.4054
 5221SOL    HW121499   4.982   5.653   1.683  0.3247 -2.2842 -0.0019
 5221SOL    HW221500   5.060   5.625   1.810  0.6682 -2.1152 -0.1743
 5222SOL     OW21501   2.584   0.789   6.051 -0.4246  0.4297  0.0824
 5222SOL    HW121502   2.579   0.838   6.133 -0.4580 -1.3609  1.2075
 5222SOL    HW221503   2.652   0.723   6.066 -1.5267 -0.9618 -0.7205
 5223SOL     OW21504   1.977   4.690   7.982 -0.0773  0.0345  0.4666
 5223SOL    HW121505   2.026   4.618   7.941 -0.1648 -0.2722  0.8948
 5223SOL    HW221506   2.025   4.710   8.062 -0.2657  0.1954  0.5396
 5224SOL     OW21507   1.512   2.629   4.119 -0.4066 -0.0807  0.0317
 5224SOL    HW121508   1.605   2.625   4.098 -0.1325 -0.2593  1.2427
 5224SOL    HW221509   1.498   2.718   4.151 -0.4020 -0.3927  0.9313
 5225SOL     OW21510   9.845   8.508   1.383 -0.1619 -0.2654  0.1344
 5225SOL    HW121511   9.911   8.543   1.443 -0.7788 -0.3483  0.8736
 5225SOL    HW221512   9.867   8.416   1.373 -1.3540 -0.8120  2.0457
 5226SOL     OW21513   7.603   4.322   7.788  0.0936 -0.5838 -0.2064
 5226SOL    HW121514   7.617   4.288   7.877 -0.4243  0.7227  0.4133
 5226SOL    HW221515   7.514   4.296   7.765 -1.0445  1.8041  1.0448
 5227SOL     OW21516   4.310   1.463   0.339  0.3176 -0.0055  0.3155
 5227SOL    HW121517   4.404   1.480   0.334 -0.0069  1.9070  0.2266
 5227SOL    HW221518   4.268   1.543   0.308 -1.3622 -0.9135  0.0803
 5228SOL     OW21519   6.560   5.179   4.183 -0.4514  0.3319 -0.1761
 5228SOL    HW121520   6.576   5.235   4.107 -1.1390  0.5631 -0.1581
 5228SOL    HW221521   6.639   5.188   4.236 -0.2256  0.6607 -0.5566
 5229SOL     OW21522   1.286   6.528   3.170  0.1914 -0.0592  0.1353
 5229SOL    HW121523   1.250   6.535   3.082 -0.4426  0.5047  0.4364
 5229SOL    HW221524   1.286   6.433   3.187 -0.0602 -0.1465 -0.3114
 5230SOL     OW21525   9.980   6.998   8.778  0.3375 -0.1545  0.3536
 5230SOL    HW121526  10.039   7.036   8.843  1.1014 -0.1015 -0.3652
 5230SOL    HW221527  10.005   6.905   8.775 -1.1276 -0.6418  1.6712
 5231SOL     OW21528   0.499   3.881   3.803  0.2542  0.0725 -0.2769
 5231SOL    HW121529   0.560   3.867   3.875  2.0329  0.9930 -1.5183
 5231SOL    HW221530   0.555   3.891   3.726 -1.4908  0.7389 -1.5291
 5232SOL     OW21531   9.627   5.065   7.665 -0.0399  0.3724 -0.0219
 5232SOL    HW121532   9.579   5.004   7.722 -0.1696  0.7187  0.2378
 5232SOL    HW221533   9.685   5.008   7.614 -0.5891 -0.0365 -0.2117
 5233SOL     OW21534   1.655  10.704   5.962 -0.3100  0.1294  0.1027
 5233SOL    HW121535   1.711  10.633   5.932  0.3105  0.4825  0.4084
 5233SOL    HW221536   1.577  10.660   5.997  0.2988 -0.4330  0.7706
 5234SOL     OW21537   4.178   8.132   8.854  0.6838 -0.3152 -0.1742
 5234SOL    HW121538   4.121   8.056   8.840 -0.9096  0.6454  0.8616
 5234SOL    HW221539   4.261   8.107   8.812 -0.4129 -1.8220 -1.5993
 5235SOL     OW21540   5.392   8.201   0.982  0.3414 -0.2538  0.2970
 5235SOL    HW121541   5.470   8.226   0.932 -0.4164  1.3390 -0.1544
 5235SOL    HW221542   5.343   8.144   0.922  0.3742  0.0584 -0.0291
 5236SOL     OW21543   4.546   3.170   7.215 -0.6861  1.0029 -0.1978
 5236SOL    HW121544   4.553   3.126   7.131 -0.1566  0.0939  0.2999
 5236SOL    HW221545   4.631   3.213   7.227 -0.7004  0.9961 -0.0613
 5237SOL     OW21546   1.076   4.888   4.692 -0.3616 -0.0273  0.3714
 5237SOL    HW121547   1.107   4.876   4.782 -0.3595 -1.2377  0.2203
 5237SOL    HW221548   1.015   4.816   4.678 -0.1662  0.0032 -0.6910
 5238SOL     OW21549   1.899   4.015   6.566 -0.3127  0.0784 -0.0418
 5238SOL    HW121550   1.969   4.037   6.505 -0.8906 -0.3144 -0.8537
 5238SOL    HW221551   1.891   4.092   6.622  0.0407  0.5405 -0.6208
 5239SOL     OW21552   0.395   6.951   5.597  0.6423  0.6142 -0.4075
 5239SOL    HW121553   0.458   6.999   5.651  1.3867 -0.3814 -0.3605
 5239SOL    HW221554   0.393   6.999   5.514  0.0966  1.6916  0.2197
 5240SOL     OW21555   0.403   3.356   6.160 -0.0033 -0.6693 -0.0204
 5240SOL    HW121556   0.316   3.331   6.129 -0.1293 -2.6587  1.7227
 5240SOL    HW221557   0.421   3.295   6.232  1.7962  1.3013  1.2995
 5241SOL     OW21558   4.907   1.795   6.014  0.5325 -0.7125 -0.2410
 5241SOL    HW121559   5.002   1.791   6.027  0.4889 -0.8092  0.0551
 5241SOL    HW221560   4.875   1.711   6.046  0.6394 -1.9253 -3.0924
 5242SOL     OW21561   5.120   1.856   5.074  0.6487  0.4348  0.0415
 5242SOL    HW121562   5.208   1.850   5.110  0.1523 -1.8860  1.0940
 5242SOL    HW221563   5.063   1.863   5.151 -0.2692 -1.9328 -0.3339
 5243SOL     OW21564   9.471   9.312   5.144  0.0179  0.1556  0.1273
 5243SOL    HW121565   9.464   9.408   5.139  0.4174  0.1536 -0.6608
 5243SOL    HW221566   9.393   9.280   5.098  0.6559  0.1182 -0.9671
 5244SOL     OW21567   4.171   6.204   4.645  0.2004 -0.3587 -0.2120
 5244SOL    HW121568   4.185   6.182   4.737 -0.4460  0.2923  0.0517
 5244SOL    HW221569   4.111   6.137   4.613 -0.2612 -0.0895  0.0789
 5245SOL     OW21570   8.613   6.816   1.343 -0.2715  0.1750  0.0185
 5245SOL    HW121571   8.560   6.742   1.314 -0.9797  1.2224 -1.5428
 5245SOL    HW221572   8.685   6.777   1.391 -1.8626 -1.3749  1.2879
 5246SOL     OW21573   0.290   8.256   2.244 -0.2973  0.2962 -0.2539
 5246SOL    HW121574   0.278   8.318   2.316  0.8737  1.4364 -0.9956
 5246SOL    HW221575   0.284   8.310   2.165  1.6601 -0.3505 -0.8960
 5247SOL     OW21576   6.479   2.541   9.041  0.3236 -0.6049 -0.1776
 5247SOL    HW121577   6.474   2.556   8.947  2.4466 -1.0460 -0.4016
 5247SOL    HW221578   6.433   2.616   9.080 -2.2881 -1.3611 -1.5255
 5248SOL     OW21579   9.313   2.371   8.838  0.2418  0.2281 -0.5241
 5248SOL    HW121580   9.375   2.443   8.826  0.7825 -0.3463 -1.3382
 5248SOL    HW221581   9.363   2.303   8.881 -0.6355  0.7972  1.5193
 5249SOL     OW21582   7.605   1.361   5.503  0.7433 -0.3995  0.9144
 5249SOL    HW121583   7.623   1.289   5.443  0.2736  0.6025 -0.4981
 5249SOL    HW221584   7.691   1.398   5.522  0.9390 -1.0132  1.2450
 5250SOL     OW21585  10.755   3.179   1.717  0.0542  0.5845  0.1475
 5250SOL    HW121586  10.748   3.210   1.626 -1.3079  0.5521  0.2313
 5250SOL    HW221587  10.754   3.083   1.709  3.4941  0.4292 -0.0479
 5251SOL     OW21588  10.279   3.112   9.054  0.4788  0.0441 -0.3662
 5251SOL    HW121589  10.224   3.044   9.092  2.3526 -1.7469 -0.6626
 5251SOL    HW221590  10.301   3.169   9.128  0.9439 -1.1798  0.4786
 5252SOL     OW21591   5.111   4.623   4.872  0.1632  0.0589  0.0519
 5252SOL    HW121592   5.122   4.535   4.908 -0.3583 -0.1654 -0.3194
 5252SOL    HW221593   5.164   4.622   4.792 -1.0204 -0.4152 -0.7478
 5253SOL     OW21594   9.102   1.098   8.761 -0.2152 -0.3684 -0.3830
 5253SOL    HW121595   9.110   1.037   8.688  2.4614 -0.3777 -0.1866
 5253SOL    HW221596   9.016   1.139   8.749 -0.6569 -1.7496 -2.4147
 5254SOL     OW21597   3.084   8.625   0.917  0.4328  0.4397 -0.5477
 5254SOL    HW121598   3.148   8.696   0.924  1.0633 -0.0632 -1.1055
 5254SOL    HW221599   3.087   8.599   0.825 -0.9189  0.7049 -0.6858
 5255SOL     OW21600   0.545   1.944   3.440 -0.4069 -0.3476 -0.0736
 5255SOL    HW121601   0.485   1.880   3.402 -0.8575  0.3764 -0.5974
 5255SOL    HW221602   0.493   2.024   3.449  0.6381  0.4813 -1.1352
 5256SOL     OW21603   0.825   9.420   0.179 -0.2468  0.5656 -0.1035
 5256SOL    HW121604   0.818   9.469   0.260 -0.6319  0.7995 -0.2714
 5256SOL    HW221605   0.918   9.417   0.159 -0.2577  1.7620 -0.4071
 5257SOL     OW21606   5.753   4.992   5.891  0.0339  0.0897  0.1400
 5257SOL    HW121607   5.802   4.915   5.863  0.3615  0.3310  0.0489
 5257SOL    HW221608   5.701   4.961   5.965 -0.6765 -0.5012 -0.5829
 5258SOL     OW21609   1.695   2.228   6.604  0.7327  0.2397  0.6467
 5258SOL    HW121610   1.777   2.193   6.568 -0.4029 -0.8969 -0.9365
 5258SOL    HW221611   1.669   2.297   6.543  0.0792  0.0207  0.6723
 5259SOL     OW21612   3.951   4.390   0.767  0.2181 -0.4360  0.0210
 5259SOL    HW121613   4.019   4.439   0.815  1.0643 -1.5718  0.0039
 5259SOL    HW221614   3.873   4.398   0.822  1.3392 -2.2958  2.0220
 5260SOL     OW21615   9.019   5.668   1.675 -0.0711  0.0097  0.0614
 5260SOL    HW121616   9.074   5.744   1.658  0.6035 -0.3583  0.5682
 5260SOL    HW221617   8.955   5.699   1.741  1.5975 -0.4403  1.9937
 5261SOL     OW21618   1.040  10.319   2.469 -0.0977  0.9582 -0.2954
 5261SOL    HW121619   1.046  10.390   2.406  0.3542  0.9736 -0.2419
 5261SOL    HW221620   1.062  10.360   2.553  2.2755  0.3634 -0.5508
 5262SOL     OW21621   7.536   6.796   9.652 -0.4980 -0.1059 -0.0507
 5262SOL    HW121622   7.560   6.836   9.736 -0.1760  0.8713 -0.5986
 5262SOL    HW221623   7.487   6.863   9.606 -0.6341 -0.6192 -0.6671
 5263SOL     OW21624   5.025   7.863   1.030 -0.2699 -0.3438 -0.5031
 5263SOL    HW121625   5.092   7.797   1.012  0.2668  0.0364  0.0622
 5263SOL    HW221626   4.947   7.831   0.984  0.2343 -0.8993 -0.9960
 5264SOL     OW21627   7.365   6.419   6.395 -0.4670 -0.1532  0.2579
 5264SOL    HW121628   7.297   6.406   6.329 -0.7661 -1.7881  0.8317
 5264SOL    HW221629   7.330   6.488   6.452 -1.2629 -0.3673  0.0479
 5265SOL     OW21630   9.706   4.360   6.083  0.8904  0.3555 -0.1295
 5265SOL    HW121631   9.622   4.327   6.051  0.2254  0.0111  1.7874
 5265SOL    HW221632   9.745   4.405   6.009 -0.3153 -0.7648 -1.4934
 5266SOL     OW21633   1.573   2.556   4.836  0.0326 -0.0318  0.2131
 5266SOL    HW121634   1.622   2.480   4.806 -0.3529 -0.7962  1.4371
 5266SOL    HW221635   1.628   2.631   4.814  1.2573 -0.7906  0.6069
 5267SOL     OW21636   5.960   8.069   7.487  0.5343  0.6536  0.4368
 5267SOL    HW121637   5.999   8.048   7.401 -1.2600  0.2687 -0.3379
 5267SOL    HW221638   5.963   8.164   7.492 -1.3134  0.8572 -1.1024
 5268SOL     OW21639  10.885   9.880   7.656  0.2749 -0.1007 -0.8622
 5268SOL    HW121640  10.808   9.837   7.692  1.4022 -0.9077  0.7181
 5268SOL    HW221641  10.855   9.920   7.575 -1.2260 -2.4415 -1.5382
 5269SOL     OW21642   2.337   1.869   8.397  0.3509  0.2634 -0.0465
 5269SOL    HW121643   2.351   1.858   8.303  2.1700  1.3930  0.0370
 5269SOL    HW221644   2.363   1.960   8.415  0.0786  0.0670  1.5441
 5270SOL     OW21645   3.938   4.746   5.322 -0.0084 -0.0186 -0.4973
 5270SOL    HW121646   4.010   4.708   5.271  0.4654  0.6725 -0.3609
 5270SOL    HW221647   3.971   4.831   5.349 -0.6058 -0.0004  0.1952
 5271SOL     OW21648   5.838   6.665   0.792  0.5787 -0.1025  0.2620
 5271SOL    HW121649   5.905   6.676   0.859  1.1414  2.0545 -0.5786
 5271SOL    HW221650   5.876   6.604   0.729  0.8726 -0.5477  0.8649
 5272SOL     OW21651   3.110   9.053   5.662  0.1481  0.1274 -0.0434
 5272SOL    HW121652   3.020   9.083   5.659 -0.7385 -2.2922 -2.9849
 5272SOL    HW221653   3.160   9.121   5.617 -0.9493 -0.3196 -2.0423
 5273SOL     OW21654   8.785   8.773   2.839  0.1854 -0.0234  0.1465
 5273SOL    HW121655   8.739   8.856   2.833  0.1736 -0.0520 -0.1526
 5273SOL    HW221656   8.823   8.759   2.752  0.8817  0.0684  0.4283
 5274SOL     OW21657   5.408   9.028   1.841 -0.6127  0.0445 -0.0629
 5274SOL    HW121658   5.455   8.987   1.914 -0.5764 -1.9450 -1.1502
 5274SOL    HW221659   5.321   8.990   1.843 -1.5548  2.1144  0.6223
 5275SOL     OW21660   3.010   3.119   4.134 -0.2734 -0.5891  0.2143
 5275SOL    HW121661   2.941   3.184   4.150 -0.9273 -0.5599 -2.3281
 5275SOL    HW221662   2.973   3.060   4.069  1.6039 -1.4089 -0.1733
 5276SOL     OW21663   8.993   4.787   4.475 -0.1234  0.0356 -0.0215
 5276SOL    HW121664   8.917   4.746   4.517  1.2968 -0.3461  2.4016
 5276SOL    HW221665   9.000   4.743   4.390 -1.2383 -1.6142  0.6691
 5277SOL     OW21666   7.518   7.580  10.041 -0.3254  0.6765  0.3580
 5277SOL    HW121667   7.505   7.673  10.057 -1.3774  0.4326  1.0304
 5277SOL    HW221668   7.581   7.553  10.108 -1.7172  0.4694  1.6312
 5278SOL     OW21669   4.791   7.169  10.409 -0.2609 -0.5018  0.1810
 5278SOL    HW121670   4.820   7.086  10.447  1.1425 -0.7478 -1.3553
 5278SOL    HW221671   4.832   7.236  10.463  1.4154 -0.8477 -0.6134
 5279SOL     OW21672   9.865   4.029   2.858  0.4914  0.0402  0.1877
 5279SOL    HW121673   9.919   4.107   2.874  0.5421  0.2796 -1.0897
 5279SOL    HW221674   9.825   4.011   2.943 -0.3519  2.0855  0.2975
 5280SOL     OW21675   4.544   1.499   0.629  0.0794  0.3262  0.6930
 5280SOL    HW121676   4.560   1.447   0.708 -1.0184  0.5074  1.0503
 5280SOL    HW221677   4.624   1.488   0.576  0.6260 -0.1876  1.6033
 5281SOL     OW21678   2.210   7.033   2.224  0.2841 -0.3966 -0.2023
 5281SOL    HW121679   2.266   7.095   2.176  1.3479 -0.6536  0.6646
 5281SOL    HW221680   2.271   6.987   2.282 -1.0744  0.7218  2.2647
 5282SOL     OW21681   7.006   8.174   6.920  0.5650 -0.4068  0.2588
 5282SOL    HW121682   6.912   8.185   6.910  0.5374  0.9587  1.6875
 5282SOL    HW221683   7.017   8.083   6.948 -0.3598 -0.4213  0.5978
 5283SOL     OW21684   3.784  10.914   7.144 -0.0353  0.6936 -0.2468
 5283SOL    HW121685   3.842  10.878   7.211  0.1094 -0.1100 -0.7751
 5283SOL    HW221686   3.775  11.006   7.166 -0.6312  0.2912  1.3195
 5284SOL     OW21687   8.214   5.274   2.424 -0.0978 -0.2541  0.1335
 5284SOL    HW121688   8.184   5.364   2.434 -0.3744 -0.4871  1.6069
 5284SOL    HW221689   8.300   5.272   2.466 -0.3113 -0.7945  0.5547
 5285SOL     OW21690   9.602   5.214   4.770  0.0710 -0.3297 -0.2578
 5285SOL    HW121691   9.649   5.164   4.703  0.6186  0.1871 -0.2746
 5285SOL    HW221692   9.648   5.194   4.851  0.5153  0.3998 -0.3167
 5286SOL     OW21693   5.498   1.441   8.732 -0.3388 -0.2527 -0.2739
 5286SOL    HW121694   5.403   1.448   8.740 -0.3934 -0.7311 -0.4367
 5286SOL    HW221695   5.526   1.525   8.696 -0.5607  0.3492  0.9105
 5287SOL     OW21696   4.616   6.859   5.039 -0.0960  0.1197  0.0052
 5287SOL    HW121697   4.537   6.912   5.054  0.1147  0.6978 -0.8565
 5287SOL    HW221698   4.637   6.823   5.125 -1.7650 -0.7335  0.0945
 5288SOL     OW21699   0.501   2.943   0.411  0.2466  0.1401 -0.0386
 5288SOL    HW121700   0.497   3.038   0.400 -0.5021  0.4108  2.1279
 5288SOL    HW221701   0.418   2.920   0.453  0.7644 -1.3609  0.2267
 5289SOL     OW21702   5.397   8.049   2.086 -0.3602  0.4573  0.4279
 5289SOL    HW121703   5.382   8.119   2.023  1.2201  1.3482  1.0025
 5289SOL    HW221704   5.446   7.983   2.037  2.5469  1.9581  1.0829
 5290SOL     OW21705   5.088   3.833   8.740  0.5288  0.3696 -0.3805
 5290SOL    HW121706   5.074   3.884   8.661  1.4544 -0.5299 -1.1572
 5290SOL    HW221707   5.183   3.824   8.747  0.4419  0.0124  0.5512
 5291SOL     OW21708   5.010   7.547   8.084  0.6993 -0.1915  0.1538
 5291SOL    HW121709   5.005   7.640   8.062  0.1914  0.1521  1.6039
 5291SOL    HW221710   5.061   7.544   8.165 -1.0111 -0.9287  1.2645
 5292SOL     OW21711   6.847   6.121   5.894  0.1996 -0.9262 -0.5056
 5292SOL    HW121712   6.763   6.140   5.852  0.1621 -0.1088 -0.0955
 5292SOL    HW221713   6.910   6.178   5.850  0.6285 -1.8395 -1.0933
 5293SOL     OW21714   5.431   8.391   8.354  0.1807 -0.0352  0.4477
 5293SOL    HW121715   5.474   8.477   8.356  0.0490  0.0591 -0.2440
 5293SOL    HW221716   5.487   8.338   8.298 -0.6148  0.1107 -0.5189
 5294SOL     OW21717   9.176   6.856   1.148 -0.5400  0.6146 -0.1845
 5294SOL    HW121718   9.144   6.944   1.167  1.1100  0.8823  1.5964
 5294SOL    HW221719   9.199   6.819   1.233  0.4918 -0.8652 -1.0546
 5295SOL     OW21720   7.714   9.873   2.735  0.1455 -0.2347  0.2544
 5295SOL    HW121721   7.627   9.885   2.774 -0.6105 -0.8685 -1.1629
 5295SOL    HW221722   7.768   9.842   2.807 -1.0925 -0.9290  0.9183
 5296SOL     OW21723   2.316   8.952   4.545  0.0201  0.2462  0.0197
 5296SOL    HW121724   2.316   9.039   4.585 -0.4495  0.4365 -0.3983
 5296SOL    HW221725   2.224   8.925   4.545  0.3753 -1.3306  2.4810
 5297SOL     OW21726  10.451   5.251   0.684  0.5994  0.6047 -0.0796
 5297SOL    HW121727  10.415   5.303   0.756  0.0191 -0.9533  0.7955
 5297SOL    HW221728  10.530   5.210   0.720  0.3023 -0.1984 -0.3116
 5298SOL     OW21729   8.268   4.237   7.155  0.7077 -0.0366 -0.1269
 5298SOL    HW121730   8.323   4.220   7.079  0.5161 -2.5489  0.2124
 5298SOL    HW221731   8.197   4.173   7.147 -0.6078  1.2222  0.9586
 5299SOL     OW21732   3.446   5.648   2.641  0.1873  0.0003 -0.4791
 5299SOL    HW121733   3.467   5.712   2.572 -0.7481 -0.5308 -1.2744
 5299SOL    HW221734   3.526   5.597   2.650  0.0884 -0.4075 -1.7239
 5300SOL     OW21735   6.117   2.977   9.005  0.4288 -0.4356 -0.6035
 5300SOL    HW121736   6.176   2.998   9.077 -0.9120  1.5316  0.0209
 5300SOL    HW221737   6.156   3.019   8.929  0.6211 -0.4299 -0.5018
 5301SOL     OW21738   8.561  10.008   1.005  0.4994  0.2652  0.0986
 5301SOL    HW121739   8.466  10.000   1.011  0.6632 -0.5995  2.4480
 5301SOL    HW221740   8.575  10.080   0.943 -1.7522  2.1321  1.5869
 5302SOL     OW21741   8.743   5.596   4.258  0.3624 -0.2367  0.4940
 5302SOL    HW121742   8.742   5.626   4.349  0.2810 -1.7800  1.0428
 5302SOL    HW221743   8.700   5.666   4.209  0.1722  0.5065  1.6833
 5303SOL     OW21744  10.637  10.028   9.524  0.3590 -0.5406  0.4047
 5303SOL    HW121745  10.714   9.972   9.512  0.6022  0.1602 -1.7355
 5303SOL    HW221746  10.652  10.071   9.608  2.9045  0.4212 -0.4624
 5304SOL     OW21747  10.068   8.011  10.439  0.1397 -0.2179 -0.2288
 5304SOL    HW121748  10.040   7.963  10.517  2.4903 -1.5139 -0.0667
 5304SOL    HW221749  10.128   8.078  10.472  0.8959 -0.5643 -0.8722
 5305SOL     OW21750   7.059   5.221   4.764  0.2114 -0.1472 -0.2473
 5305SOL    HW121751   6.995   5.214   4.694 -0.6374  0.6248  0.4257
 5305SOL    HW221752   7.142   5.196   4.723 -0.3710 -0.3455 -1.3466
 5306SOL     OW21753   4.281   8.580   0.599 -0.3436 -0.3272  0.0611
 5306SOL    HW121754   4.352   8.515   0.595 -0.2077 -0.2910  1.2672
 5306SOL    HW221755   4.325   8.664   0.589 -0.8377 -0.4058 -4.6093
 5307SOL     OW21756   0.251   7.598   3.970 -0.3500  0.0720  0.0639
 5307SOL    HW121757   0.179   7.651   3.936 -0.4257 -0.2743 -0.3161
 5307SOL    HW221758   0.225   7.578   4.060  0.6907  2.5243  0.9924
 5308SOL     OW21759   9.459   0.691   2.835 -0.1054 -0.5082  0.5461
 5308SOL    HW121760   9.383   0.634   2.848 -0.3065 -0.7393 -1.2617
 5308SOL    HW221761   9.496   0.661   2.752  1.7607 -0.1495  1.2060
 5309SOL     OW21762  10.392   4.205   8.023 -0.1696 -0.1900 -0.0028
 5309SOL    HW121763  10.454   4.239   7.958 -1.6988  2.0839 -0.3813
 5309SOL    HW221764  10.411   4.111   8.027  2.0296  0.1190 -1.4511
 5310SOL     OW21765   0.271   2.401   8.764 -0.2852 -0.1089  0.4709
 5310SOL    HW121766   0.182   2.409   8.728 -0.2296  0.8301  0.5048
 5310SOL    HW221767   0.257   2.388   8.857 -0.4127 -1.7336  0.2468
 5311SOL     OW21768   2.261   1.612   7.500 -0.3403  0.4273  0.0275
 5311SOL    HW121769   2.300   1.526   7.518  4.2110  2.2824  0.3736
 5311SOL    HW221770   2.235   1.608   7.408 -0.2385 -1.2794  0.0418
 5312SOL     OW21771   1.975   3.181   5.151 -0.6158 -0.1397 -0.4981
 5312SOL    HW121772   2.013   3.096   5.175  1.3782  0.6626 -0.6360
 5312SOL    HW221773   1.936   3.166   5.065 -0.5533 -0.9973 -0.3851
 5313SOL     OW21774   2.261   7.349  10.456  0.4327 -0.2833  0.2166
 5313SOL    HW121775   2.355   7.366  10.447  0.5902 -1.8337 -1.7576
 5313SOL    HW221776   2.244   7.276  10.397 -2.1256  0.2825  0.1246
 5314SOL     OW21777   7.628   1.742   4.743 -0.2561 -0.2107 -0.3795
 5314SOL    HW121778   7.612   1.781   4.657  0.2291 -0.1145 -0.4266
 5314SOL    HW221779   7.584   1.802   4.804 -0.6760 -0.3240 -0.5611
 5315SOL     OW21780  10.316   2.798   2.395  0.3882 -0.0837 -0.4482
 5315SOL    HW121781  10.289   2.760   2.478  0.6171  0.1609 -0.2624
 5315SOL    HW221782  10.241   2.851   2.367  0.1727 -0.4570 -0.5760
 5316SOL     OW21783   5.907   5.580   2.317  0.4028 -0.2267  0.3901
 5316SOL    HW121784   5.929   5.634   2.242  0.2750  1.1235  1.3004
 5316SOL    HW221785   5.941   5.493   2.295 -0.1291 -0.0007 -1.4488
 5317SOL     OW21786   4.878   4.239   5.796  0.3280  0.5328  0.6618
 5317SOL    HW121787   4.900   4.329   5.771 -0.4116  1.0327  1.7192
 5317SOL    HW221788   4.963   4.197   5.810  0.8390  0.0534 -2.9527
 5318SOL     OW21789   2.742   5.165   1.036  0.1752  0.3195  0.5824
 5318SOL    HW121790   2.786   5.250   1.036  0.4420  0.1889 -0.4732
 5318SOL    HW221791   2.756   5.130   0.948  1.2225 -1.4126  1.3854
 5319SOL     OW21792   7.879   5.725   1.303 -0.2523  0.3144 -0.3447
 5319SOL    HW121793   7.837   5.793   1.251 -1.2875 -0.0785 -0.0362
 5319SOL    HW221794   7.809   5.664   1.325  0.9374 -1.8424 -2.1283
 5320SOL     OW21795   4.480   2.798   6.866 -0.2010  0.0627  0.4274
 5320SOL    HW121796   4.518   2.724   6.913  0.0459  0.1780  0.4088
 5320SOL    HW221797   4.539   2.812   6.791 -2.1032 -1.9663 -1.5833
 5321SOL     OW21798   6.108   3.024   6.868  0.0251  0.3695 -0.0726
 5321SOL    HW121799   6.110   2.940   6.912  2.1341  0.7814  0.7416
 5321SOL    HW221800   6.019   3.057   6.881  0.1607 -0.1740  2.6666
 5322SOL     OW21801   1.705   9.127   7.899 -0.5174  0.9916  0.7947
 5322SOL    HW121802   1.798   9.101   7.904 -0.5996  0.1493 -1.0922
 5322SOL    HW221803   1.707   9.215   7.862 -0.4771 -0.2880 -2.5833
 5323SOL     OW21804   1.413   7.867   0.870  0.0212  0.0382  0.6133
 5323SOL    HW121805   1.381   7.813   0.798  0.3009  0.8897 -0.1707
 5323SOL    HW221806   1.398   7.957   0.841  0.3651  0.3985  1.5126
 5324SOL     OW21807   1.320   6.338  10.668 -0.4718  0.0717  0.0010
 5324SOL    HW121808   1.415   6.344  10.657 -0.3357 -1.7582 -0.0988
 5324SOL    HW221809   1.285   6.373  10.586  0.0353  1.9342  0.5269
 5325SOL     OW21810   1.149   1.364   7.017 -0.2684  0.4747 -0.1443
 5325SOL    HW121811   1.195   1.448   7.018  0.3745  0.2252 -2.5260
 5325SOL    HW221812   1.084   1.371   7.087  2.2158  1.4879  2.2288
 5326SOL     OW21813   1.950   2.210   1.964  0.1236  0.8901  0.1930
 5326SOL    HW121814   1.922   2.149   1.895  1.4003 -0.1633  0.5724
 5326SOL    HW221815   1.973   2.290   1.917 -0.4205  0.6841 -0.4411
 5327SOL     OW21816   2.308   4.963   4.698 -0.1023 -0.0779  0.1710
 5327SOL    HW121817   2.359   4.912   4.760  1.3194  0.7882 -0.2289
 5327SOL    HW221818   2.370   5.027   4.663 -1.6899  1.6157  0.3072
 5328SOL     OW21819   9.335   3.695   9.382 -0.2321  0.3905 -0.2066
 5328SOL    HW121820   9.411   3.680   9.325 -1.3865  0.4034 -1.8257
 5328SOL    HW221821   9.327   3.790   9.388  0.4823  0.4014  0.8517
 5329SOL     OW21822   5.933   0.723   4.802  0.2293 -0.1937 -0.1063
 5329SOL    HW121823   5.960   0.776   4.877 -0.3888  2.0581 -1.3648
 5329SOL    HW221824   5.872   0.659   4.837  0.5019  0.3525  1.4117
 5330SOL     OW21825   3.764   6.281   2.302  0.0014  0.1438 -0.4709
 5330SOL    HW121826   3.708   6.205   2.287 -1.8329  1.1265  1.0371
 5330SOL    HW221827   3.754   6.333   2.223 -1.2226  0.2815 -0.2487
 5331SOL     OW21828   4.668   9.849  10.090  0.1165  0.3548 -0.1850
 5331SOL    HW121829   4.605   9.859  10.161 -0.7994 -0.4849 -0.8426
 5331SOL    HW221830   4.651   9.924  10.032 -0.1617  0.2312 -0.2661
 5332SOL     OW21831   3.791   8.695   9.385  0.2526 -0.4976 -0.4400
 5332SOL    HW121832   3.733   8.711   9.311 -0.0937  1.0547  0.1259
 5332SOL    HW221833   3.742   8.637   9.442 -0.0781 -0.5013 -0.7239
 5333SOL     OW21834   9.975  10.319   6.074  0.0438 -0.1742  0.3369
 5333SOL    HW121835  10.057  10.271   6.065  1.0135  1.2908  1.0343
 5333SOL    HW221836   9.994  10.406   6.039 -0.7881  0.6261  1.7844
 5334SOL     OW21837   0.436   7.584   7.927  0.5695 -0.2985  0.0901
 5334SOL    HW121838   0.491   7.508   7.949 -0.3138 -1.3150 -1.0240
 5334SOL    HW221839   0.372   7.589   7.998  1.2926  0.0935  0.7286
 5335SOL     OW21840   0.691   0.644   0.353 -0.0734 -0.2220  0.3191
 5335SOL    HW121841   0.651   0.646   0.266  0.5683  0.8937  0.0294
 5335SOL    HW221842   0.769   0.591   0.343  2.0079  2.7630 -0.7538
 5336SOL     OW21843   2.252  10.214   2.406  0.5823 -0.0793 -0.5807
 5336SOL    HW121844   2.249  10.136   2.462  1.2720 -0.0642 -0.5139
 5336SOL    HW221845   2.167  10.256   2.418  0.9222  0.2330  0.8934
 5337SOL     OW21846   1.403   1.154   9.697  0.1014 -0.0708 -0.4281
 5337SOL    HW121847   1.332   1.091   9.682  1.0458 -0.9177 -1.5396
 5337SOL    HW221848   1.361   1.228   9.740 -1.4154 -0.6326 -0.8831
 5338SOL     OW21849   7.824   6.309   3.227  0.0935  0.6294 -0.5092
 5338SOL    HW121850   7.889   6.350   3.283 -0.5039  0.8042  0.0667
 5338SOL    HW221851   7.750   6.369   3.227 -0.5769 -0.1686 -0.1011
 5339SOL     OW21852   1.729   5.363   5.215 -0.3593  0.4532  0.4341
 5339SOL    HW121853   1.743   5.335   5.305  1.4665 -0.3460 -0.0483
 5339SOL    HW221854   1.807   5.333   5.168  0.9068  4.5587 -0.5566
 5340SOL     OW21855   0.947   2.279   3.823 -0.1155 -0.0220  0.1769
 5340SOL    HW121856   0.977   2.263   3.733 -1.9519  0.4442 -0.5719
 5340SOL    HW221857   0.966   2.198   3.869  0.6007 -0.3804 -0.7058
 5341SOL     OW21858  10.433   6.789   5.459 -0.2257 -0.2170 -0.3366
 5341SOL    HW121859  10.458   6.865   5.512  0.2323 -1.0116  0.5996
 5341SOL    HW221860  10.499   6.785   5.391 -0.8864  0.8844 -1.0826
 5342SOL     OW21861   6.788   4.479  10.789 -0.6168  0.4665 -0.0040
 5342SOL    HW121862   6.800   4.573  10.801 -1.0915  0.3214  1.9077
 5342SOL    HW221863   6.696   4.464  10.813 -0.1995 -0.6407  1.0068
 5343SOL     OW21864   1.940   4.785   5.000  0.0592 -0.3874 -0.0497
 5343SOL    HW121865   1.917   4.788   4.907  1.7641  1.3516 -0.4783
 5343SOL    HW221866   1.894   4.859   5.039  1.5398  0.6040 -0.1095
 5344SOL     OW21867   0.072   8.129   7.580  0.0347 -0.4090  0.6689
 5344SOL    HW121868  -0.005   8.119   7.636  0.3218 -0.1505  1.1186
 5344SOL    HW221869   0.058   8.211   7.533 -1.6281 -2.0148 -1.9246
 5345SOL     OW21870   8.460   4.697   4.846 -0.6736  0.2521  0.1408
 5345SOL    HW121871   8.493   4.755   4.915 -1.5807  1.2601 -0.2362
 5345SOL    HW221872   8.386   4.745   4.808 -1.0571 -0.8887 -0.6127
 5346SOL     OW21873   3.702   7.581   5.385  0.7692  0.9657 -0.0375
 5346SOL    HW121874   3.748   7.547   5.308  0.4192 -0.6989  0.4500
 5346SOL    HW221875   3.651   7.655   5.351  0.6596  0.3000 -1.4070
 5347SOL     OW21876   1.947   1.037   2.841  0.1001  0.2434 -0.8733
 5347SOL    HW121877   1.854   1.040   2.864  0.4819  0.8654  0.6439
 5347SOL    HW221878   1.962   1.118   2.793  0.1790  0.8604  0.1775
 5348SOL     OW21879   8.428   9.145   7.804 -0.0773  0.4187 -0.4849
 5348SOL    HW121880   8.381   9.166   7.723  0.9399  0.0235 -1.1897
 5348SOL    HW221881   8.361   9.150   7.872 -1.7204 -2.3743 -1.7198
 5349SOL     OW21882   2.004   6.242   5.368 -0.0111  0.0950 -0.1585
 5349SOL    HW121883   1.937   6.211   5.308  1.3863 -2.5601 -0.4885
 5349SOL    HW221884   2.044   6.317   5.323 -1.7402  0.8027 -0.5813
 5350SOL     OW21885   0.090   2.214   9.278 -0.3299  1.0250  0.0834
 5350SOL    HW121886   0.038   2.161   9.338  0.7880  2.0189  2.0309
 5350SOL    HW221887   0.152   2.152   9.239 -0.4373  0.5129  0.7112
 5351SOL     OW21888   2.733   2.967   6.653  0.1086  0.4181  0.0877
 5351SOL    HW121889   2.731   3.023   6.575 -0.1209 -0.3470 -0.4684
 5351SOL    HW221890   2.819   2.984   6.693  1.1996 -0.8502 -1.5939
 5352SOL     OW21891   7.558   6.447   5.495  0.5155 -0.6543 -0.3395
 5352SOL    HW121892   7.502   6.372   5.512 -1.6477  0.5839 -1.6288
 5352SOL    HW221893   7.527   6.514   5.556  1.3557 -0.2885 -0.3006
 5353SOL     OW21894   9.547   0.744   6.005  0.5528 -0.1717  0.9197
 5353SOL    HW121895   9.496   0.770   6.082 -0.8812 -0.7004  0.1768
 5353SOL    HW221896   9.630   0.712   6.041  0.0525 -0.0617  2.2145
 5354SOL     OW21897   5.440   0.705   8.248  0.3342  0.4186 -0.4083
 5354SOL    HW121898   5.482   0.764   8.185  0.0900  0.3853 -0.6019
 5354SOL    HW221899   5.406   0.764   8.315 -2.3884  0.7987 -1.9962
 5355SOL     OW21900   9.755   5.616   6.643 -0.2202  0.2106 -0.0362
 5355SOL    HW121901   9.812   5.555   6.597 -1.6562 -1.6187  0.4278
 5355SOL    HW221902   9.722   5.675   6.576 -0.4081 -0.8886 -0.9447
 5356SOL     OW21903   1.151   3.854   5.361  0.0790  0.0812 -0.0769
 5356SOL    HW121904   1.181   3.763   5.363  0.5101  0.1755 -1.3356
 5356SOL    HW221905   1.227   3.905   5.389 -0.6052 -0.0027  2.1186
 5357SOL     OW21906   8.225   3.876   2.853 -0.4357 -0.2308  0.9278
 5357SOL    HW121907   8.226   3.808   2.920  0.1201 -2.9658 -1.6364
 5357SOL    HW221908   8.304   3.927   2.870  0.1743 -1.4254  1.8301
 5358SOL     OW21909   8.391  10.540   5.521  0.4003 -0.2583 -0.2922
 5358SOL    HW121910   8.298  10.521   5.534  0.6032 -0.3662  1.3215
 5358SOL    HW221911   8.396  10.635   5.518  0.3316 -0.2057  0.7605
 5359SOL     OW21912   3.981  10.867   9.148 -0.4475  0.3310  0.0366
 5359SOL    HW121913   4.016  10.881   9.060  0.1112  1.6315  0.4404
 5359SOL    HW221914   3.985  10.954   9.189 -0.9074 -0.2131  1.2660
 5360SOL     OW21915   1.345   3.585   5.461  0.3658 -0.1786 -0.6374
 5360SOL    HW121916   1.380   3.658   5.512  1.0453 -1.6572  1.1102
 5360SOL    HW221917   1.361   3.508   5.515  0.9179 -1.8309 -3.0240
 5361SOL     OW21918   2.945   5.804   5.478 -0.4286  0.3125 -0.1950
 5361SOL    HW121919   3.020   5.863   5.489  0.8368 -1.0392 -1.0772
 5361SOL    HW221920   2.871   5.862   5.463  0.4084  1.7107  0.8087
 5362SOL     OW21921   1.660   3.809   4.797  0.0705 -0.4190 -0.7845
 5362SOL    HW121922   1.714   3.751   4.850 -0.3416 -0.7873 -0.7612
 5362SOL    HW221923   1.583   3.757   4.775 -0.5444  0.2774 -0.3316
 5363SOL     OW21924   0.235   4.430   4.342 -0.1512 -0.5651  0.2091
 5363SOL    HW121925   0.220   4.339   4.316 -2.3239 -0.0634 -0.4718
 5363SOL    HW221926   0.206   4.433   4.433 -1.6366 -0.2304 -0.2512
 5364SOL     OW21927   7.959   4.292   0.841 -0.2703  0.1534  1.0193
 5364SOL    HW121928   7.868   4.315   0.858 -0.1304  0.3678  1.4758
 5364SOL    HW221929   7.999   4.285   0.927  0.3342  0.8232  0.8023
 5365SOL     OW21930   4.591  10.631  10.870  0.9207 -0.2918 -0.1151
 5365SOL    HW121931   4.577  10.622  10.964 -0.1516 -1.0619 -0.3291
 5365SOL    HW221932   4.578  10.543  10.835 -0.6008  0.3022 -1.1909
 5366SOL     OW21933   4.753   0.275   3.735 -0.1329 -0.3476  0.6645
 5366SOL    HW121934   4.673   0.293   3.783  0.5427  1.0116  1.3357
 5366SOL    HW221935   4.793   0.361   3.720  0.3347 -0.8348 -1.2034
 5367SOL     OW21936  10.021   2.019   3.018 -0.7075  0.3545 -0.4869
 5367SOL    HW121937  10.114   2.037   3.032 -0.6370 -0.7236  0.6594
 5367SOL    HW221938   9.983   2.019   3.106 -1.7977  0.7797 -0.9389
 5368SOL     OW21939   5.557   1.295   2.664 -0.2949  0.1528 -0.1066
 5368SOL    HW121940   5.575   1.287   2.570 -0.8636 -0.6016 -0.1664
 5368SOL    HW221941   5.471   1.254   2.675  0.6096 -1.5494  1.0204
 5369SOL     OW21942   8.553   9.817   2.600 -0.1066  0.0004  0.5007
 5369SOL    HW121943   8.539   9.887   2.664  1.0869  0.8494 -0.1254
 5369SOL    HW221944   8.487   9.832   2.532 -0.3855  0.0172  0.7749
 5370SOL     OW21945  10.719   3.038   6.535  0.0074 -0.1213  0.0287
 5370SOL    HW121946  10.632   3.010   6.562  0.1104 -1.2413 -0.7366
 5370SOL    HW221947  10.703   3.119   6.486 -0.4304  0.4938  1.1537
 5371SOL     OW21948   6.376   3.899   9.046 -0.5418 -0.3114  0.2496
 5371SOL    HW121949   6.457   3.873   9.003 -1.3897  0.5284 -1.9988
 5371SOL    HW221950   6.404   3.945   9.125  1.1105 -1.0329  0.1209
 5372SOL     OW21951   8.760   8.392   2.455  0.5161 -0.0152  0.0119
 5372SOL    HW121952   8.787   8.416   2.543 -0.1486  2.7363 -0.4518
 5372SOL    HW221953   8.839   8.356   2.415  1.2332  0.1489  1.2303
 5373SOL     OW21954   8.380   6.928   1.432 -0.4540  0.1737  0.5485
 5373SOL    HW121955   8.446   6.914   1.364  0.0386  0.8584  0.8692
 5373SOL    HW221956   8.324   6.998   1.397  0.0577  0.8284  1.0138
 5374SOL     OW21957   1.857   4.592   9.552  0.3043  0.3672 -0.5458
 5374SOL    HW121958   1.794   4.599   9.480  1.3714  1.8051 -1.3978
 5374SOL    HW221959   1.892   4.681   9.562  0.4447  0.1377  1.5401
 5375SOL     OW21960   2.597   4.301   4.044  0.3748  0.1519 -0.2835
 5375SOL    HW121961   2.660   4.302   4.116  0.1462  0.2936 -0.0848
 5375SOL    HW221962   2.591   4.209   4.019 -0.0511  0.0081  0.3281
 5376SOL     OW21963   5.848   7.163   6.437  0.0855 -0.0542  0.2793
 5376SOL    HW121964   5.842   7.228   6.366 -0.5026  0.3878  0.7143
 5376SOL    HW221965   5.809   7.084   6.400 -0.0384  0.1151  0.0409
 5377SOL     OW21966   5.670   0.558   6.964  0.3268  0.5302 -0.3727
 5377SOL    HW121967   5.650   0.489   6.900 -1.5772  0.7628 -0.0821
 5377SOL    HW221968   5.728   0.617   6.917  0.7586 -0.4580 -1.1372
 5378SOL     OW21969   8.107   7.475   6.171  0.0326 -0.0301  0.0756
 5378SOL    HW121970   8.068   7.408   6.115  0.4141 -0.2136  0.0254
 5378SOL    HW221971   8.032   7.516   6.215 -0.1342 -1.4681  1.2109
 5379SOL     OW21972   2.325   8.170   0.743 -0.1795  0.0612 -0.3360
 5379SOL    HW121973   2.259   8.142   0.679 -0.5859 -0.1152  0.1584
 5379SOL    HW221974   2.409   8.159   0.697 -0.4713  0.0540 -0.8830
 5380SOL     OW21975   4.774   1.759   3.694  0.6841 -0.1515 -0.6797
 5380SOL    HW121976   4.840   1.785   3.631  0.3393  1.3874 -0.4504
 5380SOL    HW221977   4.719   1.837   3.704  2.0102  0.5020  3.1608
 5381SOL     OW21978   1.143   7.076   6.799  0.4725  0.0431 -0.1906
 5381SOL    HW121979   1.058   7.111   6.773  1.5171  1.2368 -2.2474
 5381SOL    HW221980   1.194   7.073   6.718  1.7520 -2.6734  0.5778
 5382SOL     OW21981   7.358   7.320   9.111  0.1424 -0.1374 -0.2047
 5382SOL    HW121982   7.271   7.295   9.144 -0.4797  1.1744 -0.7491
 5382SOL    HW221983   7.378   7.254   9.045 -1.0751  0.2575 -1.0249
 5383SOL     OW21984   1.549   7.527   1.419 -0.0741  0.3183 -0.1293
 5383SOL    HW121985   1.517   7.500   1.505  2.4570  0.0754  0.8085
 5383SOL    HW221986   1.551   7.623   1.423  0.5115  0.2910  0.2740
 5384SOL     OW21987   3.505  10.842   5.700  0.2594 -0.0176  0.2569
 5384SOL    HW121988   3.564  10.767   5.695  0.6418  0.3065 -0.2160
 5384SOL    HW221989   3.508  10.868   5.792 -0.7114 -1.2299  0.6613
 5385SOL     OW21990   4.872   8.709   7.722  1.3018  0.5062 -0.6048
 5385SOL    HW121991   4.891   8.679   7.633  0.0380 -1.8636 -0.1732
 5385SOL    HW221992   4.785   8.748   7.716  0.3788 -1.3672 -0.1431
 5386SOL     OW21993   9.435   1.506   4.130  0.4499  0.3318 -0.4587
 5386SOL    HW121994   9.513   1.530   4.181  0.1151  2.9459 -0.9934
 5386SOL    HW221995   9.409   1.421   4.163  3.2431 -0.4003  0.0731
 5387SOL     OW21996   6.725   7.182   9.939  0.1317 -0.3200  0.1826
 5387SOL    HW121997   6.752   7.104   9.989  0.5950 -0.2824 -0.0074
 5387SOL    HW221998   6.647   7.154   9.892 -0.0310 -0.5015  0.5573
 5388SOL     OW21999   3.294   8.786   7.890 -0.6519 -0.0528 -0.4948
 5388SOL    HW122000   3.203   8.766   7.867 -1.6687  1.6348  1.7400
 5388SOL    HW222001   3.344   8.760   7.812 -2.9805 -1.2398 -1.7081
 5389SOL     OW22002   5.302  10.762   9.027 -0.2358 -0.0606 -0.4020
 5389SOL    HW122003   5.227  10.804   9.069 -0.2788  0.2949 -0.8371
 5389SOL    HW222004   5.270  10.674   9.004 -0.8029  0.3827 -1.3745
 5390SOL     OW22005   7.023   1.978   3.139 -0.6947  0.4843 -0.0901
 5390SOL    HW122006   7.057   2.007   3.054  0.9215  1.2693  0.7909
 5390SOL    HW222007   7.075   1.901   3.160 -1.4007  0.0276 -0.0012
 5391SOL     OW22008   2.561   8.764   7.549 -0.1162  0.0090 -0.1977
 5391SOL    HW122009   2.603   8.797   7.628  0.2461 -0.5525 -0.1540
 5391SOL    HW222010   2.540   8.673   7.569 -0.9466  0.1479 -0.3804
 5392SOL     OW22011   9.312   1.995   0.732  0.0116  0.5959 -0.4125
 5392SOL    HW122012   9.321   1.929   0.664  0.9544 -0.8614  1.0465
 5392SOL    HW222013   9.395   2.043   0.731 -0.1893  0.9430 -0.6448
 5393SOL     OW22014  10.719   4.279   9.530  0.3722  0.5136 -0.0960
 5393SOL    HW122015  10.771   4.224   9.472  0.4370  0.1726  0.2779
 5393SOL    HW222016  10.753   4.367   9.517  0.3041  0.4546 -0.6602
 5394SOL     OW22017   1.799  10.805  10.325 -0.1641  0.3019  0.2868
 5394SOL    HW122018   1.727  10.754  10.363 -1.0284  0.6224 -0.8568
 5394SOL    HW222019   1.845  10.744  10.268 -0.6235  0.5364 -0.3489
 5395SOL     OW22020   9.931   7.889   6.660 -0.4525 -0.0414  0.1296
 5395SOL    HW122021   9.856   7.832   6.677 -0.0356 -0.0678  2.1304
 5395SOL    HW222022  10.006   7.830   6.657 -0.1509  0.2620  1.1816
 5396SOL     OW22023   6.143   2.436   6.069  0.1572  0.1000  0.1496
 5396SOL    HW122024   6.049   2.444   6.084 -0.0917  0.6680 -1.4571
 5396SOL    HW222025   6.183   2.491   6.136 -0.4845 -2.0429  2.3989
 5397SOL     OW22026   7.843   8.549   7.664  0.3579  0.4186 -0.4110
 5397SOL    HW122027   7.852   8.514   7.753 -0.1303  0.2238 -0.4347
 5397SOL    HW222028   7.853   8.643   7.673  1.7805  0.2831 -0.3526
 5398SOL     OW22029   3.938   5.560   0.434  0.3101 -0.0087 -0.3031
 5398SOL    HW122030   3.968   5.622   0.500 -0.7470  0.9448 -0.6906
 5398SOL    HW222031   3.843   5.566   0.437  0.0898 -2.3938  0.3800
 5399SOL     OW22032  10.145   2.206   1.773 -0.1457  0.4255  0.1470
 5399SOL    HW122033  10.119   2.182   1.685  0.2892 -0.3486  0.2235
 5399SOL    HW222034  10.076   2.172   1.829  0.3823 -0.5187  0.2397
 5400SOL     OW22035   6.616   6.544   0.495  0.5638 -0.0277 -0.4523
 5400SOL    HW122036   6.676   6.607   0.535  0.0848  0.4280 -0.4427
 5400SOL    HW222037   6.543   6.597   0.462 -0.4286 -0.6875  0.6000
 5401SOL     OW22038   6.234   8.151  10.451  0.1435 -0.0194 -0.1221
 5401SOL    HW122039   6.149   8.160  10.496 -0.1065 -1.9871 -0.1280
 5401SOL    HW222040   6.291   8.214  10.496 -1.3483  1.5507 -0.2880
 5402SOL     OW22041   3.435   7.394   9.991  0.0615 -0.5621  0.5029
 5402SOL    HW122042   3.423   7.470   9.935  1.2208 -1.4743 -1.0676
 5402SOL    HW222043   3.354   7.389  10.042 -0.2829  1.3445  0.2328
 5403SOL     OW22044   0.420   6.105   0.812 -0.4664 -0.1229  0.1384
 5403SOL    HW122045   0.404   6.180   0.869 -1.0294 -2.8955  4.0184
 5403SOL    HW222046   0.500   6.066   0.847 -0.2025 -1.3942 -1.7716
 5404SOL     OW22047   6.986   4.187   0.717 -0.3877  0.6060  0.1851
 5404SOL    HW122048   7.042   4.236   0.657 -1.1724 -0.1801 -1.2465
 5404SOL    HW222049   6.931   4.253   0.759  0.3696  1.1965  0.2515
 5405SOL     OW22050   1.663   5.628  10.026 -0.0155  0.4247  0.5807
 5405SOL    HW122051   1.726   5.673   9.970 -1.4031 -1.5770 -2.8996
 5405SOL    HW222052   1.587   5.686  10.028  0.1519  0.6411  0.6194
 5406SOL     OW22053   3.012   0.283   9.318 -0.0294  0.1574 -0.1827
 5406SOL    HW122054   2.955   0.250   9.249  0.7967 -0.2539 -0.6787
 5406SOL    HW222055   3.068   0.209   9.340  1.2474  0.9604 -0.6735
 5407SOL     OW22056   0.530   1.948   8.994  0.1446  0.3111 -0.3760
 5407SOL    HW122057   0.584   1.969   8.918 -1.2805  1.1548 -1.1925
 5407SOL    HW222058   0.508   1.856   8.982  0.0415  0.4029 -0.9075
 5408SOL     OW22059   4.839   9.551   2.020 -0.1037 -0.3188 -0.6399
 5408SOL    HW122060   4.895   9.626   1.999  1.3332 -1.2780 -0.3842
 5408SOL    HW222061   4.871   9.481   1.963 -0.7467 -1.0115 -0.1648
 5409SOL     OW22062   2.444   1.207   2.049  0.1219 -0.0249  0.8042
 5409SOL    HW122063   2.375   1.226   1.986  0.2420 -0.1937  0.6237
 5409SOL    HW222064   2.476   1.293   2.077  1.1653  0.0589 -0.5534
 5410SOL     OW22065   8.184   7.056   1.789  0.1122 -0.4359 -0.1732
 5410SOL    HW122066   8.096   7.093   1.798  0.7515  0.8525  1.0253
 5410SOL    HW222067   8.238   7.129   1.759  0.8988 -1.0672 -0.3163
 5411SOL     OW22068   5.500  10.177   7.236  0.4706  0.0712  0.1972
 5411SOL    HW122069   5.583  10.222   7.221  1.5246 -1.4900  1.0114
 5411SOL    HW222070   5.526  10.093   7.275 -1.3870 -1.2414 -1.2481
 5412SOL     OW22071   5.507   3.449   9.220 -0.2938 -0.0739 -0.2869
 5412SOL    HW122072   5.421   3.422   9.186 -0.8682  1.0980  0.1854
 5412SOL    HW222073   5.511   3.411   9.307 -0.2454 -0.2902 -0.3826
 5413SOL     OW22074   5.377   1.050   4.987  0.5849  1.0470  0.9300
 5413SOL    HW122075   5.409   1.048   5.077 -0.5767  1.1547  1.3638
 5413SOL    HW222076   5.450   1.017   4.934  0.9510  0.0627  2.0175
 5414SOL     OW22077   2.782   2.959   9.423 -0.2311  0.1855  0.0270
 5414SOL    HW122078   2.741   2.952   9.337 -1.3667 -2.1732  0.6942
 5414SOL    HW222079   2.711   2.946   9.485  1.0581 -1.5663  1.2484
 5415SOL     OW22080   7.295   8.888   3.000  0.3916  0.3248  0.1793
 5415SOL    HW122081   7.367   8.879   2.937  0.6737  0.9796  0.4041
 5415SOL    HW222082   7.251   8.803   2.997  1.1968 -0.1095  0.0624
 5416SOL     OW22083   5.676   7.957   7.604  0.0968 -0.2970  0.0587
 5416SOL    HW122084   5.597   7.908   7.580 -0.0490  0.2300 -0.5692
 5416SOL    HW222085   5.748   7.894   7.591 -0.3077 -1.1585  1.7993
 5417SOL     OW22086   4.311   8.114   6.001 -0.2329 -0.0935  1.2547
 5417SOL    HW122087   4.403   8.131   6.022  0.4040  0.0942 -1.4104
 5417SOL    HW222088   4.309   8.023   5.973 -0.8513 -0.0595  1.1769
 5418SOL     OW22089   9.605   2.961   2.256 -0.3355  0.4109 -0.5638
 5418SOL    HW122090   9.522   2.955   2.208 -1.4093  0.4483  1.1968
 5418SOL    HW222091   9.670   2.982   2.189 -1.8160  0.8305 -1.9341
 5419SOL     OW22092   1.979   7.786   3.795  0.0522  0.2248 -0.1389
 5419SOL    HW122093   1.923   7.711   3.817 -0.3719  0.6300  0.1961
 5419SOL    HW222094   1.928   7.863   3.823  0.7289  0.6076  0.0687
 5420SOL     OW22095   3.262   3.198   7.999  0.8553  0.6167 -0.0108
 5420SOL    HW122096   3.201   3.132   8.031  1.8021  0.5002  1.6894
 5420SOL    HW222097   3.330   3.147   7.953  2.0522  0.2502  2.0532
 5421SOL     OW22098   1.346   0.880   8.244  0.1671 -0.0001 -0.3288
 5421SOL    HW122099   1.376   0.858   8.155 -1.1022 -2.0796 -0.3322
 5421SOL    HW222100   1.349   0.796   8.290  0.4341  0.9837  1.5102
 5422SOL     OW22101   3.960   1.588   0.270  0.4000 -1.0382 -0.0747
 5422SOL    HW122102   3.915   1.579   0.186 -0.1866  0.3657  0.0599
 5422SOL    HW222103   4.045   1.627   0.247 -0.4842  1.1242  0.1046
 5423SOL     OW22104   5.666  10.192   9.546 -0.1362 -0.2493 -0.2948
 5423SOL    HW122105   5.721  10.167   9.620 -0.6673 -0.4391  0.0408
 5423SOL    HW222106   5.725  10.241   9.488 -0.4949  3.2092  1.9432
 5424SOL     OW22107  10.236   0.750   5.361 -0.1606 -0.2771  0.0705
 5424SOL    HW122108  10.327   0.723   5.349  0.7526  2.6470 -0.2215
 5424SOL    HW222109  10.209   0.708   5.443  1.0934 -1.9112 -0.2929
 5425SOL     OW22110   5.596   6.283   7.923 -0.1749 -0.3387 -0.2871
 5425SOL    HW122111   5.552   6.358   7.883 -1.6096 -1.1012 -0.2079
 5425SOL    HW222112   5.684   6.315   7.943 -1.4770  2.1482  2.0996
 5426SOL     OW22113   7.800   6.939   3.785  0.5946 -0.0358  0.6194
 5426SOL    HW122114   7.774   6.933   3.693 -0.1350  2.0001  0.6630
 5426SOL    HW222115   7.754   6.867   3.827 -2.1310  1.2637  0.0337
 5427SOL     OW22116   4.160   8.798   0.354 -0.2858  0.3095  0.5501
 5427SOL    HW122117   4.164   8.707   0.326 -1.5261 -0.6019  3.0668
 5427SOL    HW222118   4.089   8.836   0.302 -0.9427 -0.6620  0.7095
 5428SOL     OW22119   2.298   0.614   4.915 -0.0515 -0.3909 -0.0149
 5428SOL    HW122120   2.337   0.677   4.854  1.2666 -0.8597  0.3082
 5428SOL    HW222121   2.371   0.587   4.971 -1.1612 -0.2512  1.5403
 5429SOL     OW22122   2.168   6.573   8.762 -0.3567  0.0677 -0.4869
 5429SOL    HW122123   2.110   6.643   8.732 -1.4832  0.1098  1.6436
 5429SOL    HW222124   2.156   6.570   8.856  0.2777 -2.4663 -0.4070
 5430SOL     OW22125   4.697   8.534   0.117  0.0610 -0.5622  0.0074
 5430SOL    HW122126   4.746   8.613   0.138 -0.8432 -0.1630  0.6914
 5430SOL    HW222127   4.686   8.536   0.022 -0.6313  0.5535  0.0940
 5431SOL     OW22128  10.006   2.606   9.922 -0.1724  0.1865 -0.2486
 5431SOL    HW122129  10.030   2.593   9.830  1.3550  0.8657  0.0224
 5431SOL    HW222130  10.072   2.557   9.971  1.3227  2.8302  0.5622
 5432SOL     OW22131   1.507   0.177   4.268 -0.5114  0.3650 -0.0825
 5432SOL    HW122132   1.481   0.222   4.188  0.6740  2.5617  0.6997
 5432SOL    HW222133   1.440   0.201   4.332 -0.2056  0.5180  0.1824
 5433SOL     OW22134   2.913   6.571   4.629 -0.1165  0.3563  0.5490
 5433SOL    HW122135   2.946   6.513   4.698 -1.6174 -0.5200  0.5629
 5433SOL    HW222136   2.991   6.596   4.579  0.8539  0.1427  1.8953
 5434SOL     OW22137   9.322   2.306   6.537  0.4268  0.3291  0.6513
 5434SOL    HW122138   9.376   2.237   6.499 -0.8548  0.2584 -1.2077
 5434SOL    HW222139   9.351   2.387   6.494 -0.3462  0.4093  0.2489
 5435SOL     OW22140   2.591   3.609   4.711  0.9840 -0.1913 -0.3517
 5435SOL    HW122141   2.498   3.588   4.724  1.1171  0.0712  1.2619
 5435SOL    HW222142   2.609   3.582   4.621 -0.4380 -1.0535 -0.4182
 5436SOL     OW22143   2.051   6.098   7.030 -0.5293  0.0595  0.3173
 5436SOL    HW122144   1.980   6.152   7.063  0.1213  1.3577 -0.3087
 5436SOL    HW222145   2.070   6.037   7.101 -0.5884  1.3587  1.4954
 5437SOL     OW22146   5.886   1.729   8.838  0.4368  0.2680  0.0052
 5437SOL    HW122147   5.878   1.822   8.859  0.1734  0.0393  0.9778
 5437SOL    HW222148   5.873   1.684   8.922  0.4112 -0.6533 -0.4753
 5438SOL     OW22149   1.435   5.551   7.108  0.3334  0.1983  0.6066
 5438SOL    HW122150   1.427   5.525   7.017  0.8197  0.2521  0.5464
 5438SOL    HW222151   1.345   5.566   7.137 -0.0358 -2.2393  0.8734
 5439SOL     OW22152   3.580   4.069   0.090  0.0809  0.0807 -0.5106
 5439SOL    HW122153   3.627   3.985   0.089  1.6150  0.8874 -1.9368
 5439SOL    HW222154   3.594   4.105   0.003 -1.9154  1.1227 -0.4585
 5440SOL     OW22155   6.000   0.622   6.788 -0.0147  0.3427  0.0042
 5440SOL    HW122156   6.022   0.568   6.713 -0.5543 -0.7821  0.6355
 5440SOL    HW222157   5.992   0.560   6.861  2.1309  1.5408  1.3871
 5441SOL     OW22158   2.052   4.683   4.477  0.5617 -0.3004  0.0087
 5441SOL    HW122159   2.046   4.763   4.530  0.1151  0.3406 -0.9823
 5441SOL    HW222160   2.145   4.676   4.456  0.4098  0.8371 -1.1721
 5442SOL     OW22161   5.126   4.313  10.442 -0.1357  0.3032 -0.1240
 5442SOL    HW122162   5.063   4.291  10.510  0.0303 -2.7737 -0.7838
 5442SOL    HW222163   5.203   4.344  10.489 -0.8660  0.5912  0.9157
 5443SOL     OW22164   1.167  10.224   1.695 -0.8032 -0.0483  0.5045
 5443SOL    HW122165   1.189  10.193   1.783  1.6393 -0.8596 -0.3059
 5443SOL    HW222166   1.248  10.212   1.644 -2.2512 -0.0589 -1.9755
 5444SOL     OW22167   8.045   9.020   6.512  0.0029  0.0182  0.0047
 5444SOL    HW122168   8.080   9.033   6.424  1.1345 -1.6390  0.1710
 5444SOL    HW222169   8.000   8.935   6.508  1.1204 -0.6708  1.3181
 5445SOL     OW22170   4.283   2.997   3.833 -0.3958 -0.4889 -0.0051
 5445SOL    HW122171   4.243   2.941   3.900 -0.1708  0.4233  0.9038
 5445SOL    HW222172   4.209   3.045   3.795 -0.5529 -1.1725 -0.5924
 5446SOL     OW22173   6.598   6.246   7.834  0.3828 -0.2203  0.2589
 5446SOL    HW122174   6.610   6.194   7.913 -0.9008  1.1210  1.3829
 5446SOL    HW222175   6.524   6.303   7.853  2.0566  2.4439 -0.6560
 5447SOL     OW22176   8.744   7.351   6.436 -0.2392  0.1411  0.3426
 5447SOL    HW122177   8.670   7.290   6.431 -0.3900  0.4389 -2.5307
 5447SOL    HW222178   8.821   7.299   6.414  0.2276  0.1928  1.7299
 5448SOL     OW22179   0.385   3.152  10.896  0.0082  0.5859  0.5472
 5448SOL    HW122180   0.437   3.196  10.828 -0.4254  1.0944  0.5419
 5448SOL    HW222181   0.375   3.218  10.965  2.4236 -0.6316  2.1930
 5449SOL     OW22182   3.082   0.782   7.549  0.3848 -0.2648 -0.0629
 5449SOL    HW122183   3.118   0.776   7.461  0.5160 -0.6173  0.0140
 5449SOL    HW222184   3.130   0.717   7.600  1.1518  0.7575  0.5625
 5450SOL     OW22185   9.495   2.593   7.914  0.2068 -0.0262 -0.6556
 5450SOL    HW122186   9.411   2.557   7.888  0.3310 -1.0168  0.2442
 5450SOL    HW222187   9.527   2.639   7.836 -0.0877 -1.6275 -1.7653
 5451SOL     OW22188   1.987   9.316   5.804  0.4834 -0.1089 -0.7871
 5451SOL    HW122189   2.005   9.366   5.725 -1.5240 -0.6292 -1.6255
 5451SOL    HW222190   1.991   9.381   5.875  1.3652  0.5342 -1.3957
 5452SOL     OW22191  10.705   0.637   3.394  0.1946 -0.3901  0.0021
 5452SOL    HW122192  10.755   0.587   3.329  0.3776 -1.2353  0.7846
 5452SOL    HW222193  10.688   0.575   3.465 -0.4847  0.3696  0.5216
 5453SOL     OW22194   1.935   2.663   4.976 -0.1573 -0.2749  0.7225
 5453SOL    HW122195   1.905   2.588   5.028  1.3881 -0.1551  1.8362
 5453SOL    HW222196   2.030   2.658   4.978 -0.0228  0.1528 -1.5439
 5454SOL     OW22197   5.060   4.751   9.890 -0.1863  0.1845  0.0622
 5454SOL    HW122198   5.142   4.702   9.881 -0.0797  0.5066 -0.8623
 5454SOL    HW222199   5.078   4.816   9.958  0.9389  1.4229 -1.3528
 5455SOL     OW22200  10.799   2.110   4.250 -0.2308  0.6687  0.1761
 5455SOL    HW122201  10.768   2.020   4.253  0.6609  0.2496 -1.6682
 5455SOL    HW222202  10.720   2.163   4.259 -0.7646 -0.2721  1.2567
 5456SOL     OW22203   9.229   1.004   2.386  0.0133  0.1436 -0.6543
 5456SOL    HW122204   9.302   1.058   2.417 -0.2365  0.3716 -0.4648
 5456SOL    HW222205   9.172   0.993   2.462 -0.7440  0.9367 -1.0865
 5457SOL     OW22206   8.370   7.488   8.995  0.4636  0.9014  0.3647
 5457SOL    HW122207   8.315   7.469   9.071 -0.2657  1.1293 -0.1052
 5457SOL    HW222208   8.391   7.402   8.958 -0.9420  0.8720 -0.4182
 5458SOL     OW22209   1.959   4.648   8.814 -0.3313  0.2201 -0.4138
 5458SOL    HW122210   1.933   4.603   8.894 -1.6499  2.9101  0.8223
 5458SOL    HW222211   1.920   4.596   8.744 -1.1326 -0.9625  0.8566
 5459SOL     OW22212   2.018   6.336  10.785  0.2147 -0.6817  0.1929
 5459SOL    HW122213   2.086   6.274  10.759  0.7662  0.1774 -0.4828
 5459SOL    HW222214   2.061   6.394  10.848 -0.1133 -0.6231  0.3638
 5460SOL     OW22215   3.044   7.411   0.234 -0.4109  0.4830  0.2266
 5460SOL    HW122216   3.136   7.414   0.209 -0.7770 -0.0557 -1.2825
 5460SOL    HW222217   2.997   7.399   0.151 -1.6338 -2.6450  1.2212
 5461SOL     OW22218   9.071   4.272   9.599 -0.2243  0.1603 -0.3017
 5461SOL    HW122219   9.103   4.229   9.678 -0.6118 -1.2621 -0.8919
 5461SOL    HW222220   9.149   4.283   9.544 -0.3704 -1.3840 -0.8608
 5462SOL     OW22221   2.725   9.597   7.295  0.2450  0.1796  0.3481
 5462SOL    HW122222   2.669   9.674   7.299 -1.4001 -0.9978  1.0351
 5462SOL    HW222223   2.797   9.617   7.354 -0.8052  0.7092  1.5008
 5463SOL     OW22224   4.442   0.973   5.496  0.2505 -0.6200 -0.3011
 5463SOL    HW122225   4.418   1.061   5.466  2.5596  0.5616  1.0418
 5463SOL    HW222226   4.520   0.950   5.445  0.4054 -1.3551  0.2480
 5464SOL     OW22227   5.668   0.278   4.257  0.4461 -0.8041  0.3410
 5464SOL    HW122228   5.750   0.272   4.208  1.1175  0.8845  1.1954
 5464SOL    HW222229   5.605   0.231   4.203  1.6923 -1.0907 -0.9321
 5465SOL     OW22230  10.276   8.320   9.509  0.5186 -0.2764 -0.3485
 5465SOL    HW122231  10.231   8.404   9.497  0.1433 -0.5038 -0.5706
 5465SOL    HW222232  10.349   8.323   9.447  0.4410 -0.1570 -0.4337
 5466SOL     OW22233   1.380   8.287  10.261  0.3229  0.3006 -0.5708
 5466SOL    HW122234   1.437   8.364  10.270  0.6348 -0.1574  2.5527
 5466SOL    HW222235   1.432   8.224  10.212  2.1570  0.2869  1.2712
 5467SOL     OW22236   3.183   0.575   7.687 -0.1813  0.7459 -0.0377
 5467SOL    HW122237   3.224   0.623   7.759 -0.9632  0.9234  0.2950
 5467SOL    HW222238   3.220   0.487   7.694  1.0915  1.2079 -0.5198
 5468SOL     OW22239   6.509   9.403   6.037  0.1196 -0.4399  0.0112
 5468SOL    HW122240   6.541   9.429   6.123 -4.0101  2.8480  0.8592
 5468SOL    HW222241   6.447   9.332   6.054 -0.6040  0.1239 -0.2269
 5469SOL     OW22242   3.243   7.910   3.448 -0.6191 -0.0355 -0.2506
 5469SOL    HW122243   3.173   7.845   3.444 -0.2415 -0.4630  0.0351
 5469SOL    HW222244   3.306   7.874   3.510 -0.7919  0.9944  0.5536
 5470SOL     OW22245   8.142   9.566   5.440 -0.1115 -0.2059 -0.1033
 5470SOL    HW122246   8.148   9.482   5.395 -2.5293  0.6910 -2.3645
 5470SOL    HW222247   8.191   9.626   5.383  0.3089  0.2265  0.6965
 5471SOL     OW22248   7.157   2.951   7.683 -0.1292  0.0766  0.1303
 5471SOL    HW122249   7.138   2.938   7.590  1.5899 -0.2791 -0.2008
 5471SOL    HW222250   7.072   2.938   7.726 -0.5848 -1.8962 -1.1899
 5472SOL     OW22251   3.360   8.588   0.494 -0.2515  0.0388 -0.5628
 5472SOL    HW122252   3.367   8.522   0.563 -0.8008  0.3976 -0.1484
 5472SOL    HW222253   3.447   8.627   0.490 -0.2990  0.2402  0.1672
 5473SOL     OW22254   0.727   3.898   2.941  0.4906 -0.6965  0.2663
 5473SOL    HW122255   0.793   3.967   2.937  0.6956 -0.8504  0.8252
 5473SOL    HW222256   0.679   3.906   2.859 -0.2424  0.8604  0.8206
 5474SOL     OW22257   6.165   5.868   4.943 -0.0067  0.3571 -0.2954
 5474SOL    HW122258   6.123   5.801   4.889  1.5093 -0.2257 -0.7900
 5474SOL    HW222259   6.253   5.835   4.959  0.4326  1.7476  0.3453
 5475SOL     OW22260   4.092   8.463   8.536  0.2397  0.2834  0.0235
 5475SOL    HW122261   4.052   8.432   8.617  3.0329 -0.9715  1.0558
 5475SOL    HW222262   4.052   8.409   8.468 -3.0266  2.1388  0.2490
 5476SOL     OW22263   1.913   7.074   8.594 -0.0597  0.1387 -0.1311
 5476SOL    HW122264   1.885   7.014   8.663 -1.2285  0.3763 -0.3742
 5476SOL    HW222265   1.971   7.022   8.539 -0.8214 -0.6863 -0.1705
 5477SOL     OW22266   4.976   9.759   4.003 -0.6054 -0.2088  0.4687
 5477SOL    HW122267   5.071   9.763   4.018 -0.5249  0.4603 -0.1790
 5477SOL    HW222268   4.965   9.691   3.937 -0.4559  0.5735 -0.3689
 5478SOL     OW22269   3.146   3.810   7.924  0.3144  0.0205  0.3024
 5478SOL    HW122270   3.131   3.884   7.983  0.2547 -0.6001  1.0791
 5478SOL    HW222271   3.239   3.815   7.902 -0.2911  2.1946 -2.2264
 5479SOL     OW22272   3.088   9.590   1.512 -0.2565  0.1911 -0.0090
 5479SOL    HW122273   3.091   9.496   1.491  0.8295  0.6006 -1.8573
 5479SOL    HW222274   3.022   9.596   1.582  1.0201 -2.1717  1.5448
 5480SOL     OW22275   2.636   6.136   6.152 -0.7092  0.0564  0.4220
 5480SOL    HW122276   2.645   6.043   6.172  0.1578 -0.4827 -2.1411
 5480SOL    HW222277   2.557   6.163   6.199 -0.9895 -1.9528  1.2064
 5481SOL     OW22278   7.729  10.330   9.680 -0.0060  0.2505 -0.5093
 5481SOL    HW122279   7.640  10.350   9.649 -0.3339 -0.2825  0.0549
 5481SOL    HW222280   7.748  10.398   9.743 -1.7506 -1.9022  2.6166
 5482SOL     OW22281   4.301   4.296  10.477 -0.3617  0.4976  0.1550
 5482SOL    HW122282   4.393   4.271  10.473 -0.5525 -0.0407 -1.2417
 5482SOL    HW222283   4.280   4.326  10.389 -1.4572  0.8662  0.5285
 5483SOL     OW22284   6.547  10.269   6.157 -0.0559 -0.3373 -0.5035
 5483SOL    HW122285   6.527  10.333   6.088  0.5094 -0.4235 -0.7609
 5483SOL    HW222286   6.579  10.322   6.230  0.7922 -0.3364 -0.8584
 5484SOL     OW22287   3.290   4.580   4.358  0.5696  0.5008 -0.3596
 5484SOL    HW122288   3.278   4.489   4.330 -1.2128  1.4146 -2.9468
 5484SOL    HW222289   3.376   4.604   4.323  0.5925  0.1212 -0.5771
 5485SOL     OW22290   3.853  10.735   1.340 -0.5044 -0.4857 -0.6123
 5485SOL    HW122291   3.937  10.747   1.384 -0.0045 -2.1722 -1.0267
 5485SOL    HW222292   3.855  10.798   1.268  0.2437 -0.2225 -0.3722
 5486SOL     OW22293   8.829   5.987   5.181 -0.0842  0.1101  0.1453
 5486SOL    HW122294   8.805   6.020   5.268  1.6062  0.8992  0.3521
 5486SOL    HW222295   8.776   6.040   5.121 -0.9946 -0.1873  0.6610
 5487SOL     OW22296   9.831   0.824   6.608 -0.2026  0.3437 -0.9249
 5487SOL    HW122297   9.812   0.832   6.702 -2.4287  0.6718 -1.3452
 5487SOL    HW222298   9.772   0.887   6.567 -0.5859 -1.0874 -2.6773
 5488SOL     OW22299  10.917   3.392   8.543  0.1274  0.0976 -0.4493
 5488SOL    HW122300  11.010   3.375   8.526 -0.0824 -1.2080 -0.4259
 5488SOL    HW222301  10.874   3.371   8.460 -0.3788 -1.6330  0.2022
 5489SOL     OW22302   5.411   0.282  10.851  0.1031 -0.0731 -0.6857
 5489SOL    HW122303   5.458   0.364  10.841  0.3043  0.0240  0.8542
 5489SOL    HW222304   5.363   0.291  10.933  1.1288 -1.9606  0.1940
 5490SOL     OW22305   9.978   3.316   0.712 -0.0356 -0.7024 -0.5000
 5490SOL    HW122306  10.073   3.321   0.719 -0.0501 -0.3334 -0.5177
 5490SOL    HW222307   9.947   3.317   0.802  0.0297 -2.1951 -0.4475
 5491SOL     OW22308   3.555   4.220   1.318  0.7342 -0.2647  0.0455
 5491SOL    HW122309   3.544   4.243   1.226  4.0991 -0.4371 -0.5265
 5491SOL    HW222310   3.516   4.292   1.367  0.5251  0.7264 -1.5416
 5492SOL     OW22311   8.645   6.107   0.152  0.0222  0.2761  0.0497
 5492SOL    HW122312   8.656   6.175   0.086  0.2888 -0.1424 -0.3421
 5492SOL    HW222313   8.703   6.132   0.224 -0.7792  1.1008  0.4332
 5493SOL     OW22314   9.985   3.640   8.812 -0.2592 -0.2747 -0.1407
 5493SOL    HW122315  10.036   3.559   8.813 -1.0436 -0.8062 -1.3145
 5493SOL    HW222316   9.956   3.650   8.722 -3.4442 -0.7881  0.6989
 5494SOL     OW22317   0.648   6.196   8.823  0.5112  0.5448 -0.4043
 5494SOL    HW122318   0.729   6.196   8.873  0.2967  0.7748 -0.0516
 5494SOL    HW222319   0.624   6.288   8.816 -0.0391  0.4371  0.0162
 5495SOL     OW22320   6.511  10.575   6.472  0.1212  0.5978  0.3667
 5495SOL    HW122321   6.461  10.637   6.420  2.5473  1.7064 -0.8125
 5495SOL    HW222322   6.457  10.560   6.550 -1.9699  1.7102 -0.7927
 5496SOL     OW22323   3.609   0.085   6.763  0.1019 -0.4573  0.5403
 5496SOL    HW122324   3.669   0.016   6.733 -1.1575 -0.6695 -1.6703
 5496SOL    HW222325   3.569   0.119   6.683 -1.9833  0.3833  1.8516
 5497SOL     OW22326  10.847   7.183   7.213  0.0707 -0.1566 -0.4704
 5497SOL    HW122327  10.935   7.150   7.234  0.6251  1.3659 -0.2047
 5497SOL    HW222328  10.848   7.197   7.119  0.2948  0.3014 -0.4052
 5498SOL     OW22329   8.313  10.007   6.293  0.0792  1.4033  0.6499
 5498SOL    HW122330   8.280   9.983   6.207  2.8339  2.4352 -0.7976
 5498SOL    HW222331   8.358   9.929   6.325  0.5338  1.5529  0.3768
 5499SOL     OW22332   2.152   1.376   5.941 -0.3649  0.1509 -0.6856
 5499SOL    HW122333   2.098   1.452   5.919  0.1010  0.2123 -1.6515
 5499SOL    HW222334   2.224   1.412   5.992 -0.7678  0.1894 -0.1387
 5500SOL     OW22335   8.470   6.978   0.549 -0.8945 -0.4892  0.2600
 5500SOL    HW122336   8.513   7.044   0.494 -1.5059  0.1367  0.5257
 5500SOL    HW222337   8.540   6.914   0.568  0.0794  0.7885  1.1311
 5501SOL     OW22338   0.426   5.263   0.863  0.1375 -0.3912  0.2244
 5501SOL    HW122339   0.510   5.233   0.827 -0.3662 -1.9168  0.2435
 5501SOL    HW222340   0.402   5.195   0.926  0.2259  1.4425  2.3385
 5502SOL     OW22341   4.230   0.064  10.145  0.4157  1.0018  0.1738
 5502SOL    HW122342   4.135   0.073  10.147  0.4705  1.6234 -0.0051
 5502SOL    HW222343   4.263   0.139  10.194  0.7920  0.3614  0.9096
 5503SOL     OW22344   1.614   7.159   9.658 -0.1308 -0.0075  0.0754
 5503SOL    HW122345   1.671   7.086   9.635 -0.6954  0.3340 -2.6388
 5503SOL    HW222346   1.529   7.119   9.676  0.0509 -0.1774  0.5801
 5504SOL     OW22347   4.450   3.949   0.124  0.0570 -0.2990 -0.1465
 5504SOL    HW122348   4.512   4.013   0.160  0.5700 -0.0954 -1.3533
 5504SOL    HW222349   4.367   3.970   0.168  0.2615  1.0712 -0.3563
 5505SOL     OW22350   2.726   9.437   6.925 -0.4897 -0.0803 -0.1682
 5505SOL    HW122351   2.677   9.476   6.997 -1.1126  0.3956 -0.8234
 5505SOL    HW222352   2.732   9.508   6.860 -1.8527 -1.1021 -1.4876
 5506SOL     OW22353   3.688   6.613   0.619  0.6264  0.0983 -0.6913
 5506SOL    HW122354   3.622   6.596   0.552  0.7614 -3.4887 -0.1020
 5506SOL    HW222355   3.675   6.705   0.643 -1.5051  0.6111 -3.3415
 5507SOL     OW22356   9.627   0.670   5.650  0.5823 -0.3421  0.2980
 5507SOL    HW122357   9.557   0.734   5.663  0.6056 -0.3477  0.4505
 5507SOL    HW222358   9.604   0.627   5.567  1.2366  0.7228 -0.4644
 5508SOL     OW22359   5.840   4.580   6.786  0.3431  0.1521  0.0227
 5508SOL    HW122360   5.773   4.546   6.844  2.1618  0.0623  2.2178
 5508SOL    HW222361   5.863   4.666   6.822  0.2230  0.9638 -1.7091
 5509SOL     OW22362   2.908   2.630   6.795 -0.4031  0.2645 -0.3034
 5509SOL    HW122363   2.814   2.623   6.783 -0.2762 -3.3515 -0.4496
 5509SOL    HW222364   2.923   2.600   6.885  0.7004 -1.0748 -0.8984
 5510SOL     OW22365   6.016   0.071  10.720 -0.1257 -0.0985  0.4705
 5510SOL    HW122366   6.061  -0.012  10.736  1.9105  0.9262  0.4473
 5510SOL    HW222367   6.020   0.082  10.625  1.3881  0.8943  0.6084
 5511SOL     OW22368   5.109   9.692   2.313 -0.7263  0.5701 -0.6137
 5511SOL    HW122369   5.171   9.764   2.323 -1.9273  1.4215  1.2453
 5511SOL    HW222370   5.164   9.616   2.291  1.1017  1.1150  1.6603
 5512SOL     OW22371   1.957   9.802   0.906 -0.9199 -0.5880 -0.0232
 5512SOL    HW122372   1.891   9.749   0.863 -1.1278  1.2375 -2.1358
 5512SOL    HW222373   2.039   9.756   0.891 -0.9342  0.1568 -2.8103
 5513SOL     OW22374  10.714   3.481   3.631 -0.9826 -0.0878  0.2561
 5513SOL    HW122375  10.779   3.552   3.634 -2.3037  1.2369 -1.0054
 5513SOL    HW222376  10.642   3.517   3.580 -1.5428 -2.5179 -0.7808
 5514SOL     OW22377   7.315   3.239   6.580 -0.0236  0.2404 -0.4261
 5514SOL    HW122378   7.370   3.278   6.648 -0.9508  0.1882  0.3833
 5514SOL    HW222379   7.342   3.147   6.578 -0.8911 -0.0583  0.8232
 5515SOL     OW22380   4.249  10.787   2.017 -0.0195 -0.1470  0.1781
 5515SOL    HW122381   4.316  10.771   2.084  0.4478  2.8619  0.5715
 5515SOL    HW222382   4.166  10.777   2.064  0.2629  0.3766  0.8061
 5516SOL     OW22383   8.835   8.677   0.851  0.7679  0.4536  0.8271
 5516SOL    HW122384   8.809   8.640   0.766  1.0787 -0.4947  1.1344
 5516SOL    HW222385   8.782   8.629   0.915  3.6420 -2.1021  1.5499
 5517SOL     OW22386   8.814   1.094   5.753 -0.3240  0.0658  0.1216
 5517SOL    HW122387   8.794   1.125   5.665 -1.0451 -0.3357  0.1361
 5517SOL    HW222388   8.793   1.001   5.751  0.1413 -0.0533  0.5755
 5518SOL     OW22389   9.744   7.313   5.143 -0.2656 -0.1216 -0.9786
 5518SOL    HW122390   9.739   7.218   5.155 -0.0894 -0.8330 -5.1420
 5518SOL    HW222391   9.667   7.335   5.090  0.1867  1.9149 -0.8905
 5519SOL     OW22392  10.408   4.382   3.932 -0.1651  0.5703  0.4638
 5519SOL    HW122393  10.386   4.390   3.839  1.2529 -0.3725  0.0083
 5519SOL    HW222394  10.503   4.374   3.933 -0.0775  1.5155  2.0913
 5520SOL     OW22395   0.627   0.135  10.283 -0.1680  0.1746  0.1185
 5520SOL    HW122396   0.632   0.217  10.331  1.9058  0.8293 -1.1355
 5520SOL    HW222397   0.617   0.068  10.351  1.6205  1.1734  1.4315
 5521SOL     OW22398   5.578   1.068   2.896 -0.1990 -0.5909  0.3452
 5521SOL    HW122399   5.566   1.017   2.816 -0.3417 -0.4020  0.2465
 5521SOL    HW222400   5.493   1.108   2.912  0.5335  1.6848 -0.9898
 5522SOL     OW22401   0.754   6.491   1.439 -0.3844 -0.2293  0.2699
 5522SOL    HW122402   0.771   6.561   1.375 -0.0876  0.5093  1.1461
 5522SOL    HW222403   0.831   6.492   1.496 -0.1385 -1.6252 -0.0065
 5523SOL     OW22404   0.592   8.940   4.935 -0.0964 -0.0263  0.5150
 5523SOL    HW122405   0.638   8.857   4.945 -1.4082 -0.6479  1.8091
 5523SOL    HW222406   0.579   8.948   4.840  0.5286 -1.0240  0.3261
 5524SOL     OW22407   4.210   6.810   2.203  0.6133  0.1189 -0.6624
 5524SOL    HW122408   4.265   6.782   2.276  0.0474  0.9717  0.1183
 5524SOL    HW222409   4.153   6.735   2.186 -0.4351  0.4919  0.9584
 5525SOL     OW22410   0.753   7.315   9.364 -0.3832 -1.1343 -0.0326
 5525SOL    HW122411   0.708   7.259   9.300 -0.5245 -0.4152 -0.5840
 5525SOL    HW222412   0.704   7.303   9.445 -0.8908 -1.2129 -0.3449
 5526SOL     OW22413   5.497   3.405   5.992  0.0801  0.0288  0.2843
 5526SOL    HW122414   5.531   3.332   6.043  0.0603 -0.7755 -0.8285
 5526SOL    HW222415   5.567   3.428   5.932  0.3341  1.3795  1.0644
 5527SOL     OW22416   4.729   9.418   8.419  0.1938 -0.5125  0.4122
 5527SOL    HW122417   4.657   9.370   8.378 -0.0868 -0.4781  0.8603
 5527SOL    HW222418   4.777   9.352   8.469 -0.1038 -0.3569  0.9065
 5528SOL     OW22419   3.979   6.255   6.691  0.2885  0.3884  1.0091
 5528SOL    HW122420   3.955   6.335   6.644 -0.7889 -1.2729 -1.4436
 5528SOL    HW222421   4.011   6.196   6.623 -0.0245 -1.6853  2.5810
 5529SOL     OW22422   5.716   7.401   4.569 -0.0924 -0.3605  0.0008
 5529SOL    HW122423   5.642   7.437   4.617  1.6425  1.8614  1.2240
 5529SOL    HW222424   5.689   7.405   4.477 -1.3983  0.6284  0.3951
 5530SOL     OW22425   8.611   7.542   8.759  0.4436  0.3483  0.5774
 5530SOL    HW122426   8.548   7.605   8.793  0.5882  0.6469  0.2883
 5530SOL    HW222427   8.629   7.484   8.834  1.8150  1.8351  1.4437
 5531SOL     OW22428   0.228   9.219   6.063 -0.6861 -0.5780  0.2037
 5531SOL    HW122429   0.321   9.202   6.080 -0.4839 -0.4186 -0.6650
 5531SOL    HW222430   0.207   9.162   5.989 -0.8037  0.6712 -0.7581
 5532SOL     OW22431   4.180   3.600   7.686  0.1257 -0.0746  0.4893
 5532SOL    HW122432   4.155   3.630   7.774  1.4919 -2.6390  1.8802
 5532SOL    HW222433   4.102   3.614   7.633 -0.8559  1.2805  2.1700
 5533SOL     OW22434   6.547   2.621   1.848 -0.6517  0.8064  0.4935
 5533SOL    HW122435   6.508   2.534   1.850  0.2131  0.3918 -0.3325
 5533SOL    HW222436   6.498   2.670   1.915 -1.3376 -0.2143  0.7673
 5534SOL     OW22437   5.970   8.738   0.484 -0.2995  0.0218 -0.1794
 5534SOL    HW122438   5.891   8.691   0.511 -0.5874 -0.1137 -1.2501
 5534SOL    HW222439   6.012   8.680   0.421 -0.9895  1.4447 -2.0236
 5535SOL     OW22440   1.265  10.411   9.852  0.0100 -0.6162 -0.0908
 5535SOL    HW122441   1.243  10.370   9.768 -0.9762 -1.1905  0.4317
 5535SOL    HW222442   1.190  10.391   9.909  1.7751 -2.5372  1.7369
 5536SOL     OW22443  10.875   4.225   3.290  0.1731  0.6266 -0.4842
 5536SOL    HW122444  10.788   4.190   3.311  0.2163  1.4059  1.1849
 5536SOL    HW222445  10.930   4.198   3.364  1.2966  0.3733 -1.3872
 5537SOL     OW22446   8.933   9.371   0.061 -0.6628  0.0166  0.3351
 5537SOL    HW122447   8.987   9.328  -0.006 -0.5062 -1.9364  1.6065
 5537SOL    HW222448   8.856   9.401   0.015  0.0242 -0.1174 -0.9508
 5538SOL     OW22449   1.873   9.873   1.151  0.2885 -0.2069 -0.3078
 5538SOL    HW122450   1.800   9.811   1.149 -1.0603  1.3302 -0.1706
 5538SOL    HW222451   1.910   9.869   1.063  0.5056 -1.4871 -0.1839
 5539SOL     OW22452  10.264   4.073   8.273 -0.7924 -0.1605 -0.0100
 5539SOL    HW122453  10.287   4.162   8.299 -0.2703 -0.3810  0.2981
 5539SOL    HW222454  10.315   4.057   8.193  0.9971 -1.0230  1.2488
 5540SOL     OW22455  10.090   6.502  10.822  0.1993 -0.1145 -0.4523
 5540SOL    HW122456  10.108   6.593  10.801  0.0377 -0.5091 -2.4217
 5540SOL    HW222457  10.147   6.452  10.764  1.4867 -1.3172  1.6786
 5541SOL     OW22458   3.773   0.698   3.418  0.1363  0.2482  0.3333
 5541SOL    HW122459   3.865   0.709   3.395  0.0686  0.7484  0.2747
 5541SOL    HW222460   3.747   0.784   3.451  0.0657 -0.2773  1.7124
 5542SOL     OW22461   7.978   2.406   3.118  0.3626  0.2078 -0.5595
 5542SOL    HW122462   8.046   2.341   3.137  0.4360  0.8397  1.6094
 5542SOL    HW222463   8.027   2.484   3.092  0.4209  0.3065 -0.1583
 5543SOL     OW22464   9.693   5.029   2.872 -0.0432 -0.1119  0.2979
 5543SOL    HW122465   9.675   4.941   2.839 -0.2023  0.3991 -1.0430
 5543SOL    HW222466   9.718   5.080   2.794 -1.0439  1.3094  0.8489
 5544SOL     OW22467   6.959   3.415   0.623  0.1196  0.1280  0.0690
 5544SOL    HW122468   7.035   3.432   0.567 -0.8904  2.8624 -0.6693
 5544SOL    HW222469   6.891   3.475   0.590 -2.1100 -1.5961  1.2161
 5545SOL     OW22470   3.415   6.759   4.304 -0.2661  0.1313 -0.3895
 5545SOL    HW122471   3.366   6.682   4.277 -0.3947 -0.0474  0.3378
 5545SOL    HW222472   3.497   6.754   4.255 -1.2494  0.8376 -2.2150
 5546SOL     OW22473   2.714   0.824   9.460  0.6938 -0.1280  0.3110
 5546SOL    HW122474   2.702   0.812   9.554 -1.7722  0.4326  0.1209
 5546SOL    HW222475   2.765   0.904   9.452 -0.9028  1.0229  1.1743
 5547SOL     OW22476   8.576   9.783   7.482 -0.2279  0.7484  0.3543
 5547SOL    HW122477   8.484   9.759   7.491  0.0409 -0.8751 -0.7869
 5547SOL    HW222478   8.598   9.765   7.391  1.6906 -0.7596  1.0251
 5548SOL     OW22479   8.403   0.387   8.697  0.1611  0.1850  0.4771
 5548SOL    HW122480   8.320   0.342   8.681  0.7040 -0.5739 -0.3095
 5548SOL    HW222481   8.401   0.463   8.639  0.0597  0.1055  0.3766
 5549SOL     OW22482   6.425   8.736   6.973  0.1592 -0.0065 -0.0867
 5549SOL    HW122483   6.490   8.773   6.913  0.4375 -1.4030 -0.6777
 5549SOL    HW222484   6.470   8.731   7.057  0.5916 -0.3188 -0.3345
 5550SOL     OW22485   7.575   5.849   4.958 -0.0450 -0.4499 -0.4570
 5550SOL    HW122486   7.513   5.895   4.902 -0.8757 -0.1293  0.6935
 5550SOL    HW222487   7.610   5.917   5.016 -1.6376 -1.2880  1.5858
 5551SOL     OW22488   8.142  10.356   8.412  0.0101 -0.8172 -0.2109
 5551SOL    HW122489   8.233  10.342   8.383  0.0705 -1.9998  0.4783
 5551SOL    HW222490   8.150  10.401   8.496 -0.1516  2.0406 -1.6218
 5552SOL     OW22491   8.455   8.021   2.231 -0.5160  0.3236 -0.2687
 5552SOL    HW122492   8.446   7.929   2.257  0.2723  0.6932  1.4656
 5552SOL    HW222493   8.369   8.059   2.247 -0.2117  0.4052  1.4089
 5553SOL     OW22494   1.423   4.487  10.386  0.0563 -0.2025 -0.1341
 5553SOL    HW122495   1.490   4.470  10.320 -0.3212 -0.1119 -0.5433
 5553SOL    HW222496   1.433   4.580  10.407  0.0780 -0.1949 -0.1767
 5554SOL     OW22497   1.330   2.175   6.227 -0.6258  0.4023  0.4688
 5554SOL    HW122498   1.271   2.100   6.234  0.1738 -0.3746 -0.7055
 5554SOL    HW222499   1.411   2.145   6.267 -0.6760  1.0882  1.1042
 5555SOL     OW22500   0.587   3.592   5.873 -0.4801  0.3697 -0.0317
 5555SOL    HW122501   0.627   3.678   5.863  1.1454 -0.3847 -0.3240
 5555SOL    HW222502   0.507   3.608   5.924 -0.3757  2.0712 -0.3519
 5556SOL     OW22503   4.617   4.134   6.380  0.2297 -0.2173 -0.2254
 5556SOL    HW122504   4.537   4.183   6.365  0.2561 -0.3495 -0.8691
 5556SOL    HW222505   4.597   4.076   6.454 -0.4966 -0.7251 -0.7983
 5557SOL     OW22506   7.038   6.444   9.736  0.1876 -0.6122  0.2124
 5557SOL    HW122507   7.074   6.510   9.795 -0.2880 -1.4390  1.4714
 5557SOL    HW222508   6.965   6.487   9.692 -0.9924 -0.6774  2.0329
 5558SOL     OW22509   3.793   6.145  10.097 -0.5183 -0.1776 -0.2371
 5558SOL    HW122510   3.807   6.225  10.148  0.2131  0.1799 -0.9702
 5558SOL    HW222511   3.757   6.176  10.013  1.6201 -0.3787 -1.3083
 5559SOL     OW22512   4.624   8.468   2.985 -0.4432 -0.3642 -0.5787
 5559SOL    HW122513   4.685   8.540   2.993 -0.2391 -0.3254 -2.1628
 5559SOL    HW222514   4.641   8.412   3.062  0.2124  0.6349  0.0142
 5560SOL     OW22515   0.217   4.868   0.909  0.2526 -0.5880  0.2670
 5560SOL    HW122516   0.144   4.902   0.857  0.3897 -1.8216 -0.8039
 5560SOL    HW222517   0.276   4.830   0.844  1.5790 -0.1141  1.1631
 5561SOL     OW22518   1.642   9.896   0.968  0.2531 -0.0842  0.6651
 5561SOL    HW122519   1.621   9.858   0.883  1.4579  1.1520 -0.2325
 5561SOL    HW222520   1.701   9.970   0.947  1.5104 -0.4609  2.6387
 5562SOL     OW22521   3.497   5.328   5.556  0.5100 -0.2102  0.4724
 5562SOL    HW122522   3.427   5.378   5.515 -0.1668 -0.8791  0.7912
 5562SOL    HW222523   3.531   5.386   5.625  1.1586  0.6224 -0.5114
 5563SOL     OW22524   2.057  10.096   2.172 -0.0522 -0.4485  0.1245
 5563SOL    HW122525   2.067  10.191   2.182 -0.5869 -0.3290 -0.4111
 5563SOL    HW222526   1.967  10.085   2.141 -0.2739 -1.1899  0.9731
 5564SOL     OW22527   1.926   9.364   4.793  0.2013 -0.2230  0.1231
 5564SOL    HW122528   2.015   9.353   4.827  0.7628 -1.9560 -1.7059
 5564SOL    HW222529   1.914   9.291   4.733 -2.7271 -0.4097  0.7648
 5565SOL     OW22530   6.741   8.511   6.120 -0.7961  0.3132  0.1777
 5565SOL    HW122531   6.795   8.490   6.197 -0.7760 -2.0166 -0.3755
 5565SOL    HW222532   6.746   8.432   6.066  0.6895  2.4704 -3.1634
 5566SOL     OW22533   6.133   6.796   3.280 -0.5473 -0.1684  0.4070
 5566SOL    HW122534   6.083   6.876   3.264  0.7871  0.8045  0.9628
 5566SOL    HW222535   6.224   6.820   3.261 -0.0782 -1.4557  0.9298
 5567SOL     OW22536   9.620   3.187   0.102 -0.1729  0.1792  0.0045
 5567SOL    HW122537   9.671   3.220   0.028  1.2258 -2.4826 -0.3359
 5567SOL    HW222538   9.684   3.179   0.173 -1.1410  1.0876  1.0070
 5568SOL     OW22539   4.780   7.772   1.470  0.1854  0.3620 -0.1796
 5568SOL    HW122540   4.709   7.783   1.534 -1.5553 -1.4741 -1.6486
 5568SOL    HW222541   4.818   7.687   1.491 -0.7748 -0.5183 -1.8530
 5569SOL     OW22542   3.117   5.412  10.568 -0.1737 -0.0948 -0.4032
 5569SOL    HW122543   3.177   5.484  10.553 -1.4551  1.5809  1.7790
 5569SOL    HW222544   3.162   5.355  10.630  0.0576 -0.1028 -0.5783
 5570SOL     OW22545   3.188   8.078   9.926 -0.5904 -0.2049  0.4586
 5570SOL    HW122546   3.151   8.014   9.865 -1.8042 -0.0798  1.0317
 5570SOL    HW222547   3.192   8.031  10.010 -2.8022  0.8305  1.2176
 5571SOL     OW22548  10.071   7.674   4.161 -0.3683 -0.3703 -0.3765
 5571SOL    HW122549  10.109   7.589   4.181  2.9536  0.7093 -1.4660
 5571SOL    HW222550  10.123   7.736   4.211 -2.4527  1.1007  0.0785
 5572SOL     OW22551   3.939   3.597   3.565 -0.5994 -0.1881  0.0954
 5572SOL    HW122552   3.998   3.612   3.640 -0.8559 -0.0441  0.2702
 5572SOL    HW222553   3.965   3.663   3.501 -1.1754  0.4834  0.5370
 5573SOL     OW22554   3.146   6.724   0.420  0.0914  0.0218 -0.0260
 5573SOL    HW122555   3.100   6.801   0.388 -0.5733 -0.8196 -1.1451
 5573SOL    HW222556   3.155   6.667   0.344  2.3791 -0.1490  0.3025
 5574SOL     OW22557   4.610   0.637   2.328  0.0525  0.4233  1.1011
 5574SOL    HW122558   4.699   0.670   2.341  0.5907 -1.0441  1.2426
 5574SOL    HW222559   4.593   0.652   2.234 -0.0072  1.7160  1.2905
 5575SOL     OW22560   1.972   9.036   7.576 -0.0975 -0.2746  0.2050
 5575SOL    HW122561   1.952   9.121   7.616 -0.1871 -0.2044  0.0117
 5575SOL    HW222562   1.915   8.974   7.622 -1.4834  0.0631 -0.9732
 5576SOL     OW22563   7.270   1.483   4.170 -0.0280 -0.1069 -0.2302
 5576SOL    HW122564   7.255   1.577   4.176  0.1998 -0.1384  1.2626
 5576SOL    HW222565   7.195   1.450   4.121 -1.1362  0.6332  0.8769
 5577SOL     OW22566   5.615   4.515   6.916  0.3294  0.0507 -0.3912
 5577SOL    HW122567   5.645   4.548   7.000  0.4368 -1.1350  0.0615
 5577SOL    HW222568   5.523   4.541   6.911  0.6559  1.2095 -0.4819
 5578SOL     OW22569  10.573   0.260   7.856  0.6366  0.2839 -0.3141
 5578SOL    HW122570  10.602   0.348   7.834 -1.1515  0.5750 -1.8146
 5578SOL    HW222571  10.594   0.207   7.779 -1.1509  0.1628 -0.7777
 5579SOL     OW22572   9.440   3.985   8.957  0.5667  0.2096 -0.1709
 5579SOL    HW122573   9.521   4.003   8.909  1.5845 -0.7086  1.1288
 5579SOL    HW222574   9.393   4.068   8.956  0.6912  0.3216 -2.4256
 5580SOL     OW22575   3.089   9.341   1.389 -0.1112 -0.3986  0.4641
 5580SOL    HW122576   3.027   9.269   1.401  0.7753 -0.8697  2.4892
 5580SOL    HW222577   3.174   9.303   1.412  0.4346  1.1570  1.0879
 5581SOL     OW22578   9.421   3.069   3.818  0.4729  0.0268  0.7600
 5581SOL    HW122579   9.468   3.044   3.739 -0.6035  0.3161 -0.0017
 5581SOL    HW222580   9.450   3.007   3.885 -0.0064 -1.4333 -0.3460
 5582SOL     OW22581  10.850   6.108   7.961  0.0696  0.6686  0.1021
 5582SOL    HW122582  10.799   6.189   7.959 -0.8258  0.2656 -4.2347
 5582SOL    HW222583  10.941   6.136   7.957 -0.2234  1.5214 -0.9257
 5583SOL     OW22584   8.924   8.360   5.494 -0.2023 -0.1212 -0.5185
 5583SOL    HW122585   9.002   8.412   5.475  1.8394 -2.7540  0.0065
 5583SOL    HW222586   8.943   8.274   5.456 -2.5026 -1.1142  0.3846
 5584SOL     OW22587  10.851   1.452   0.138 -0.1412  0.3422  0.2562
 5584SOL    HW122588  10.835   1.481   0.048  2.3872  1.4744  0.0727
 5584SOL    HW222589  10.787   1.501   0.191  1.2337  3.2326 -0.5289
 5585SOL     OW22590   8.260   4.453   5.503  0.2661  0.4286  0.4850
 5585SOL    HW122591   8.190   4.510   5.473  0.2365  0.1236 -0.0401
 5585SOL    HW222592   8.319   4.446   5.428  0.0096 -0.6271  0.3646
 5586SOL     OW22593   8.849   8.562   8.636 -0.3151 -1.0779 -1.0697
 5586SOL    HW122594   8.810   8.636   8.682  0.3986 -1.5295  0.3133
 5586SOL    HW222595   8.911   8.602   8.575  1.6306 -0.5392  1.1391
 5587SOL     OW22596   6.178   8.453   7.123 -0.1247 -0.2626  0.1285
 5587SOL    HW122597   6.226   8.376   7.153  0.4836  0.0604 -0.0004
 5587SOL    HW222598   6.229   8.486   7.048  0.6758  1.3280  1.3075
 5588SOL     OW22599  10.009   3.871   6.574  0.2165 -0.3757 -0.1689
 5588SOL    HW122600  10.016   3.966   6.584 -0.1621 -0.2621 -0.8569
 5588SOL    HW222601  10.087   3.836   6.616  0.3432  0.2402  0.1192
 5589SOL     OW22602   2.584   2.323   8.273  0.1748 -0.0669  0.2171
 5589SOL    HW122603   2.643   2.329   8.198 -0.7673 -0.3688 -0.5702
 5589SOL    HW222604   2.628   2.261   8.333  0.7764 -0.0762 -0.2233
 5590SOL     OW22605   3.521   8.929   4.585  0.2756  0.6623  0.1227
 5590SOL    HW122606   3.503   8.896   4.497 -1.7420  0.3183  0.6007
 5590SOL    HW222607   3.514   8.852   4.642  0.8925  0.9898  0.6548
 5591SOL     OW22608   1.040   0.082   0.221 -0.2817  0.4674  0.5842
 5591SOL    HW122609   1.121   0.132   0.212 -0.7826  1.3907  1.0943
 5591SOL    HW222610   0.971   0.143   0.192 -0.9668  0.3145  1.8126
 5592SOL     OW22611   2.666   1.784   9.814 -0.5297  0.0602 -0.0097
 5592SOL    HW122612   2.684   1.784   9.908 -1.3210 -0.6007  0.1440
 5592SOL    HW222613   2.717   1.858   9.780 -0.2135  0.2814  0.9282
 5593SOL     OW22614   8.834   5.747   1.904  0.2465  0.3718 -0.7435
 5593SOL    HW122615   8.800   5.833   1.880 -0.8198  0.2944  0.4023
 5593SOL    HW222616   8.900   5.765   1.971  0.4421  0.3269 -0.9209
 5594SOL     OW22617   9.826   2.659  10.622 -0.6897 -0.4067  0.4740
 5594SOL    HW122618   9.902   2.677  10.678  0.2986  0.2575 -1.0054
 5594SOL    HW222619   9.832   2.566  10.602 -1.2615 -0.7256  1.7516
 5595SOL     OW22620   6.976   1.906   2.783 -0.8194  0.0351  0.1245
 5595SOL    HW122621   6.972   1.811   2.792  0.0563  0.1604  2.5819
 5595SOL    HW222622   7.067   1.924   2.758 -0.1821  0.3107  2.4111
 5596SOL     OW22623   7.329   0.658   6.104  0.0138 -0.3613 -0.2713
 5596SOL    HW122624   7.303   0.734   6.157 -2.1999 -1.7224  0.7810
 5596SOL    HW222625   7.349   0.695   6.018  1.2493  1.6463  0.7894
 5597SOL     OW22626   2.052   5.090  10.627 -0.2575 -0.5666  0.1245
 5597SOL    HW122627   2.032   5.007  10.583  2.1470 -0.2848 -1.7207
 5597SOL    HW222628   2.137   5.117  10.591 -1.6244  3.5055 -0.5724
 5598SOL     OW22629  10.615   7.107   3.860  0.1332  0.0404  0.2106
 5598SOL    HW122630  10.705   7.099   3.826  0.1782 -1.2782  0.5681
 5598SOL    HW222631  10.611   7.043   3.931 -0.6502  1.1439  1.2060
 5599SOL     OW22632   1.438   1.426   9.643  0.1804  0.3842  0.4277
 5599SOL    HW122633   1.526   1.457   9.623 -0.1645  1.0142 -0.1864
 5599SOL    HW222634   1.381   1.500   9.621 -0.5741 -0.3160 -0.0605
 5600SOL     OW22635   8.247   1.041  10.145  0.0840  0.3482  0.3093
 5600SOL    HW122636   8.219   0.950  10.129  0.4795  0.2945 -0.0676
 5600SOL    HW222637   8.339   1.043  10.121  0.4692  0.4922  1.6977
 5601SOL     OW22638   1.081   4.924   9.615 -0.4097  0.0844 -0.4009
 5601SOL    HW122639   1.078   4.998   9.675  0.4680  0.7548 -1.1617
 5601SOL    HW222640   1.005   4.936   9.558  0.9379  1.6883 -1.9649
 5602SOL     OW22641   2.803   7.912   0.287 -0.1517  0.5123  0.4611
 5602SOL    HW122642   2.758   7.987   0.324  0.0107  2.0201 -2.1419
 5602SOL    HW222643   2.733   7.851   0.264 -0.5227  1.0251  0.2177
 5603SOL     OW22644   1.579   2.241   1.356  0.1879  0.0669 -0.0524
 5603SOL    HW122645   1.640   2.248   1.282  0.7653 -1.8294  0.1714
 5603SOL    HW222646   1.499   2.204   1.318  0.2154 -0.1815  0.1238
 5604SOL     OW22647   2.507   2.900   0.163 -0.2890  0.6993 -0.0154
 5604SOL    HW122648   2.471   2.916   0.250 -1.1426  2.6691 -0.6537
 5604SOL    HW222649   2.584   2.845   0.178 -0.5709  0.7588  1.9411
 5605SOL     OW22650   0.539   9.533   0.845  0.0090 -0.6924  0.1484
 5605SOL    HW122651   0.533   9.494   0.757  0.7060 -1.0135  0.2391
 5605SOL    HW222652   0.610   9.485   0.887 -0.1684 -0.3740  0.8095
 5606SOL     OW22653   3.539  10.579   7.803  0.2722  0.0164 -0.3645
 5606SOL    HW122654   3.457  10.594   7.756 -1.7145 -0.1442  2.7875
 5606SOL    HW222655   3.529  10.493   7.843  0.8208  0.9907  2.0851
 5607SOL     OW22656   3.278   2.896   7.959 -0.0353  0.7447 -0.3075
 5607SOL    HW122657   3.235   2.834   7.901  0.9573  1.1628 -1.5645
 5607SOL    HW222658   3.368   2.863   7.967  0.5566  2.0454 -1.1341
 5608SOL     OW22659   8.489   6.965   1.847  0.0511 -0.2008 -0.6337
 5608SOL    HW122660   8.407   6.997   1.885  0.1753 -0.7086  0.0830
 5608SOL    HW222661   8.538   6.931   1.922  1.6754  1.6446 -0.7593
 5609SOL     OW22662   8.979   7.024  10.160 -0.5221  0.1185 -0.3208
 5609SOL    HW122663   9.040   6.954  10.134 -1.1857 -0.8120  0.5103
 5609SOL    HW222664   9.032   7.103  10.163  0.1194 -0.2236 -1.9059
 5610SOL     OW22665   9.301   8.154   9.637 -0.2142  0.6434  0.1722
 5610SOL    HW122666   9.217   8.125   9.602 -0.2766  0.2282  0.6602
 5610SOL    HW222667   9.334   8.216   9.571 -1.9413  2.5657  1.0064
 5611SOL     OW22668   1.302   7.951   7.989 -0.1872  0.1138  0.3916
 5611SOL    HW122669   1.393   7.957   7.959 -0.6766  2.0485 -0.9080
 5611SOL    HW222670   1.295   8.018   8.057 -0.9054  0.7759 -0.3196
 5612SOL     OW22671   9.045   7.371   4.872 -0.4300  0.2504 -0.5603
 5612SOL    HW122672   8.976   7.408   4.817  0.5541 -0.1853 -2.1845
 5612SOL    HW222673   9.117   7.434   4.865  0.0450 -0.2848 -0.5752
 5613SOL     OW22674   9.502   8.866   3.807 -0.0620 -0.9731 -0.4472
 5613SOL    HW122675   9.494   8.790   3.865  0.9039 -0.6418  0.1533
 5613SOL    HW222676   9.588   8.854   3.765 -0.2832 -0.6544 -1.0015
 5614SOL     OW22677   9.515   3.424   4.665  0.1670 -0.0948 -0.4318
 5614SOL    HW122678   9.595   3.475   4.675  0.0902  0.6979 -3.0589
 5614SOL    HW222679   9.542   3.346   4.617 -0.3983 -0.5836  0.0265
 5615SOL     OW22680   7.947   8.567   0.770  0.1343  0.4462 -0.2980
 5615SOL    HW122681   7.902   8.576   0.855  0.2389  0.3845 -0.2361
 5615SOL    HW222682   7.956   8.657   0.739 -1.5591  0.3776 -1.1155
 5616SOL     OW22683   9.180   4.209   1.693 -0.0713  0.4108 -0.6242
 5616SOL    HW122684   9.185   4.139   1.628  1.0943 -0.2416  0.1420
 5616SOL    HW222685   9.157   4.166   1.775  1.1293  0.8298 -0.0413
 5617SOL     OW22686   4.025   3.029   0.843 -0.0646  0.6069 -0.5231
 5617SOL    HW122687   3.988   2.942   0.859  0.6145  0.5892  1.1669
 5617SOL    HW222688   4.092   3.015   0.776  1.0479 -0.4836  0.7486
 5618SOL     OW22689   9.085  10.722   6.415  0.2583  0.3286 -0.2002
 5618SOL    HW122690   9.088  10.818   6.406  0.3463  0.4479  0.9213
 5618SOL    HW222691   9.030  10.693   6.342  0.2064  1.2366 -0.5372
 5619SOL     OW22692   3.471  10.295   5.901 -0.4548 -0.2190 -0.6793
 5619SOL    HW122693   3.543  10.286   5.838 -1.0825  0.7138 -1.5678
 5619SOL    HW222694   3.404  10.235   5.868 -1.0495  0.7670 -1.3217
 5620SOL     OW22695   1.635   1.503   0.560  0.2375  0.2180 -0.0853
 5620SOL    HW122696   1.551   1.492   0.604 -0.5401 -0.6958 -1.6791
 5620SOL    HW222697   1.693   1.441   0.605 -0.7075 -1.1810 -0.6914
 5621SOL     OW22698   1.952   7.346   4.857 -0.6955 -0.5964 -0.1490
 5621SOL    HW122699   2.006   7.303   4.791 -0.8840  1.1690 -1.5056
 5621SOL    HW222700   2.000   7.333   4.939  0.7939 -0.7606 -1.0100
 5622SOL     OW22701   0.961  10.442   8.861  0.2104 -0.4158 -0.1408
 5622SOL    HW122702   1.032  10.504   8.877 -1.7212  2.6104 -2.0534
 5622SOL    HW222703   1.002  10.370   8.812  2.0834  0.8561 -0.5435
 5623SOL     OW22704   3.334   7.598   4.720 -0.0067 -0.6052  0.1508
 5623SOL    HW122705   3.314   7.529   4.783 -1.5217  0.2736  0.6830
 5623SOL    HW222706   3.404   7.649   4.761  0.1101 -0.9794  0.4147
 5624SOL     OW22707   6.784   3.405   4.597  0.3199 -0.4278 -0.2224
 5624SOL    HW122708   6.717   3.353   4.643  0.9582 -1.5594 -0.5254
 5624SOL    HW222709   6.867   3.378   4.637  0.7021  0.0399 -0.6896
 5625SOL     OW22710   7.395   2.407   1.892  0.0070 -0.2617  0.1010
 5625SOL    HW122711   7.322   2.391   1.832 -0.7202 -0.1454  0.9303
 5625SOL    HW222712   7.410   2.323   1.934  0.4738 -0.3265 -0.1876
 5626SOL     OW22713   7.255   7.870   9.975  0.6627  0.4905 -0.3163
 5626SOL    HW122714   7.234   7.949   9.925  1.0608  0.4851 -0.4944
 5626SOL    HW222715   7.335   7.893  10.023 -0.7928  1.2210  1.9274
 5627SOL     OW22716   6.761  10.632   9.345  0.0564  0.3866 -0.0586
 5627SOL    HW122717   6.818  10.701   9.378 -0.8020  0.3869  1.4895
 5627SOL    HW222718   6.779  10.557   9.401 -2.0855  0.6608  1.0869
 5628SOL     OW22719   3.567   9.736   5.815  0.3350 -0.1257  1.0608
 5628SOL    HW122720   3.621   9.788   5.754 -1.2762 -0.8507 -1.1144
 5628SOL    HW222721   3.624   9.664   5.841  0.4528 -1.0228 -1.3832
 5629SOL     OW22722   6.396   3.559   3.548 -0.0702 -0.3357  0.2575
 5629SOL    HW122723   6.317   3.588   3.594 -0.7250  1.1079 -1.6560
 5629SOL    HW222724   6.363   3.505   3.476  0.6599  0.3769 -0.6272
 5630SOL     OW22725   2.822   8.866   7.476  0.2533  0.6327  0.8449
 5630SOL    HW122726   2.837   8.792   7.535 -0.6572 -0.8486 -0.6679
 5630SOL    HW222727   2.769   8.829   7.405 -1.3546  3.0587  0.6605
 5631SOL     OW22728   5.783   3.687   2.363 -0.5219  0.4251  0.2441
 5631SOL    HW122729   5.865   3.642   2.344 -1.1826 -0.4622 -0.5826
 5631SOL    HW222730   5.801   3.779   2.340  0.1341  0.1833 -0.2652
 5632SOL     OW22731   3.003   8.960   6.105  0.2240  0.7904 -0.1044
 5632SOL    HW122732   3.004   9.056   6.111 -0.8215  0.9440 -1.7209
 5632SOL    HW222733   2.953   8.932   6.182  0.6520  1.5304  0.4566
 5633SOL     OW22734   9.327   1.560   9.072 -0.0135 -0.7474 -0.2249
 5633SOL    HW122735   9.333   1.580   9.166  0.8328  0.3677 -0.5026
 5633SOL    HW222736   9.416   1.572   9.039 -0.7457  1.2640 -1.6253
 5634SOL     OW22737   5.507   0.340   1.756  0.7736  0.5320 -0.3385
 5634SOL    HW122738   5.431   0.389   1.725  1.2371  1.0313 -0.7075
 5634SOL    HW222739   5.554   0.401   1.812  1.4700  0.6011 -0.9722
 5635SOL     OW22740   5.779   1.824  10.912  0.6846  0.3685 -0.6836
 5635SOL    HW122741   5.844   1.883  10.871  1.1674  0.1240 -0.2798
 5635SOL    HW222742   5.708   1.883  10.939  0.9662  0.7123 -0.6735
 5636SOL     OW22743   0.958   0.939  10.499 -0.2388  0.2552  0.0853
 5636SOL    HW122744   0.919   0.857  10.530  1.1483 -0.3738  0.2714
 5636SOL    HW222745   0.971   0.991  10.578  1.2958 -0.4616  0.3587
 5637SOL     OW22746  10.689   1.275   1.154  0.3596  0.2444  0.0417
 5637SOL    HW122747  10.766   1.231   1.190  0.4135  2.0423  2.3805
 5637SOL    HW222748  10.705   1.280   1.060  3.7893  1.6733  0.5499
 5638SOL     OW22749   0.060   0.525   0.869 -0.0579  0.2336 -0.5597
 5638SOL    HW122750   0.014   0.600   0.907  2.1712  1.5031 -0.2205
 5638SOL    HW222751   0.101   0.559   0.790  1.2773 -0.4915 -0.2181
 5639SOL     OW22752   8.341   0.064  10.488  0.0863  0.0248 -0.4413
 5639SOL    HW122753   8.362   0.025  10.404  0.3665  2.3191 -1.4976
 5639SOL    HW222754   8.410   0.032  10.547  2.8262  2.0836 -2.2581
 5640SOL     OW22755   8.134   4.616   7.343 -0.1428  0.0250  0.2917
 5640SOL    HW122756   8.162   4.649   7.429  0.2772 -1.7073  0.8599
 5640SOL    HW222757   8.041   4.598   7.355 -0.3732  0.9439 -0.0202
 5641SOL     OW22758   1.296   4.017  10.776  0.0158 -0.4046 -0.1118
 5641SOL    HW122759   1.337   3.960  10.710 -0.8602 -1.0478 -0.1170
 5641SOL    HW222760   1.368   4.039  10.836  0.2792 -1.9427  0.1835
 5642SOL     OW22761  10.170   5.167   0.745  0.7876 -0.6918 -0.7848
 5642SOL    HW122762  10.110   5.242   0.736  1.0989 -0.5306 -1.5643
 5642SOL    HW222763  10.247   5.193   0.695  1.2846 -1.1379 -0.2526
 5643SOL     OW22764   5.696   3.459   2.479 -0.5276  0.7438  0.0508
 5643SOL    HW122765   5.711   3.476   2.572 -0.9890  0.9106  0.1011
 5643SOL    HW222766   5.708   3.545   2.437 -1.1366  0.8465  0.0711
 5644SOL     OW22767   3.732   6.871   0.459 -0.3504  0.5895 -0.0835
 5644SOL    HW122768   3.648   6.865   0.414  0.7250  2.3756 -2.5413
 5644SOL    HW222769   3.795   6.894   0.391  1.5692  2.6080  2.1541
 5645SOL     OW22770   1.922  10.024   8.498  0.4783  0.2751 -0.4010
 5645SOL    HW122771   1.987  10.062   8.558  1.1257 -1.0206 -0.2457
 5645SOL    HW222772   1.842  10.073   8.516  0.6768 -0.0100  1.4837
 5646SOL     OW22773   7.860   7.981   4.242 -0.0623 -0.2419  0.1256
 5646SOL    HW122774   7.936   7.931   4.271  1.4118  1.8911  0.1532
 5646SOL    HW222775   7.843   7.950   4.153  0.4618 -1.1673  0.3435
 5647SOL     OW22776   9.913   8.816   5.500 -0.6928 -0.1432  0.2383
 5647SOL    HW122777   9.951   8.733   5.471 -0.9703 -0.9043  1.9370
 5647SOL    HW222778   9.908   8.870   5.421  1.0179 -1.1486 -0.5957
 5648SOL     OW22779   7.254   0.629   4.394  0.8122 -0.0682  0.3660
 5648SOL    HW122780   7.335   0.596   4.355  0.0511 -0.9994 -0.4675
 5648SOL    HW222781   7.236   0.711   4.348  1.6382  0.5184  1.0488
 5649SOL     OW22782   9.494   1.641   2.592 -0.4784  0.1017  0.4260
 5649SOL    HW122783   9.578   1.686   2.587 -0.3875 -0.0206  0.8662
 5649SOL    HW222784   9.459   1.647   2.503 -1.6954  3.4053  0.9971
 5650SOL     OW22785   3.593   6.925   6.748  0.4293  0.0543  0.1218
 5650SOL    HW122786   3.605   6.833   6.724  2.6374  0.1185  0.7456
 5650SOL    HW222787   3.572   6.922   6.841 -1.2659  0.1395 -0.2251
 5651SOL     OW22788   1.929   2.966   0.771  0.5478 -0.1052 -0.0367
 5651SOL    HW122789   1.903   3.052   0.737 -0.4824 -1.2688 -2.3732
 5651SOL    HW222790   1.847   2.924   0.795  0.9197 -0.9180 -0.1424
 5652SOL     OW22791   3.752   0.393   9.784 -0.5767  0.2039  0.2955
 5652SOL    HW122792   3.785   0.396   9.694  0.2877  2.0455  0.6209
 5652SOL    HW222793   3.827   0.365   9.836 -0.6913  0.4003  0.5737
 5653SOL     OW22794   6.636   0.497   9.694 -0.3708  0.1526  0.0503
 5653SOL    HW122795   6.642   0.401   9.698  0.3606  0.1582 -0.6798
 5653SOL    HW222796   6.567   0.519   9.757 -0.2037 -0.8171  0.6014
 5654SOL     OW22797   4.107   4.079   9.089  0.0331  0.4129 -0.0732
 5654SOL    HW122798   4.189   4.102   9.132 -0.5580  1.0447  0.7318
 5654SOL    HW222799   4.119   4.108   8.998  0.2316  1.6739  0.3364
 5655SOL     OW22800   4.787   1.528   5.516 -0.8862  0.1783 -0.2169
 5655SOL    HW122801   4.739   1.603   5.551 -1.2118 -0.0818 -0.0964
 5655SOL    HW222802   4.875   1.535   5.554 -1.0535  0.2437  0.1624
 5656SOL     OW22803   1.347   0.519   4.211  0.1606 -0.1376  0.6290
 5656SOL    HW122804   1.335   0.446   4.272  1.2334  0.5385  1.7021
 5656SOL    HW222805   1.442   0.524   4.198 -0.0168  0.0356 -0.7455
 5657SOL     OW22806   0.509   4.149   2.480 -0.6481  0.6686 -0.0701
 5657SOL    HW122807   0.522   4.217   2.546  1.9558  0.7919 -0.6094
 5657SOL    HW222808   0.422   4.113   2.499 -1.0436  2.4305  1.7768
 5658SOL     OW22809  10.345   3.856   5.216 -0.3891 -0.0011 -0.3183
 5658SOL    HW122810  10.413   3.812   5.165 -0.4852  1.4919 -1.7754
 5658SOL    HW222811  10.388   3.933   5.252 -0.2700 -1.0916  2.1070
 5659SOL     OW22812  10.372   5.347   4.125 -0.1790  0.4788 -0.1778
 5659SOL    HW122813  10.283   5.315   4.134 -0.1749  0.5766  0.2169
 5659SOL    HW222814  10.398   5.320   4.037 -0.5792  0.4083 -0.2784
 5660SOL     OW22815   5.141   3.509   8.694 -0.0769 -0.3081 -0.1250
 5660SOL    HW122816   5.227   3.483   8.726  0.6908  1.0438 -1.0182
 5660SOL    HW222817   5.103   3.428   8.659  1.1885 -0.7553 -0.5215
 5661SOL     OW22818   4.708   5.721   4.282 -0.3379 -0.4985  0.1192
 5661SOL    HW122819   4.795   5.754   4.306  0.8138 -2.0253 -1.6421
 5661SOL    HW222820   4.677   5.782   4.215 -1.2116  0.7180  1.5575
 5662SOL     OW22821   1.956   7.655   5.405 -1.1416  0.8124  0.0923
 5662SOL    HW122822   1.937   7.591   5.337 -0.7567 -1.6066  2.1001
 5662SOL    HW222823   1.886   7.643   5.470  0.1034  0.9121  1.5138
 5663SOL     OW22824  10.307   1.541   7.100  0.4197  0.1875  0.0546
 5663SOL    HW122825  10.323   1.486   7.023  3.4631 -0.2794  0.9089
 5663SOL    HW222826  10.373   1.514   7.163 -1.5199  1.0506  2.6301
 5664SOL     OW22827   2.827   7.569   2.743  0.1881 -0.6769  0.0752
 5664SOL    HW122828   2.847   7.657   2.775 -0.9361 -0.4487  0.1815
 5664SOL    HW222829   2.841   7.574   2.649  1.8891 -0.9004  0.2733
 5665SOL     OW22830   9.907   1.959   4.287 -0.1861 -0.2151  0.5035
 5665SOL    HW122831   9.959   2.039   4.281  0.0447 -0.3170  1.0798
 5665SOL    HW222832   9.845   1.976   4.358 -0.6150 -0.2830  0.1501
 5666SOL     OW22833   1.894   8.085   0.983 -0.3769  0.3187  0.2085
 5666SOL    HW122834   1.949   8.139   0.926 -0.1784 -0.2026 -0.1023
 5666SOL    HW222835   1.804   8.105   0.956 -0.3988  1.7267  1.2144
 5667SOL     OW22836   1.952   5.284   3.938 -0.3736 -0.3611  0.2296
 5667SOL    HW122837   1.977   5.253   3.851  0.2916  0.2566  0.1962
 5667SOL    HW222838   1.918   5.373   3.923 -0.3953 -0.3075  0.5841
 5668SOL     OW22839   2.553  10.550   4.177  0.7635 -0.4002  0.4899
 5668SOL    HW122840   2.471  10.520   4.138 -0.1918  1.9534  0.5455
 5668SOL    HW222841   2.550  10.645   4.170  3.5673 -0.2381  0.4114
 5669SOL     OW22842   7.739  10.049   3.615 -0.2260 -0.6810  0.2193
 5669SOL    HW122843   7.809  10.094   3.663  1.3335 -3.2585  0.5334
 5669SOL    HW222844   7.754  10.073   3.523 -1.9142  2.5374  0.6311
 5670SOL     OW22845   0.862   9.544   6.158 -0.6298  0.1063 -0.0137
 5670SOL    HW122846   0.781   9.536   6.107 -0.4306  1.1605 -0.5330
 5670SOL    HW222847   0.857   9.630   6.198  0.0534  0.0197  0.2760
 5671SOL     OW22848   2.716   2.392   9.314  0.3057 -0.0249 -0.4436
 5671SOL    HW122849   2.806   2.397   9.346  0.0754 -1.9513  0.6300
 5671SOL    HW222850   2.664   2.433   9.384  0.1257 -1.2781  0.1874
 5672SOL     OW22851   1.182   0.259   6.100 -0.3849 -0.1451 -0.2001
 5672SOL    HW122852   1.189   0.344   6.056 -0.5699 -0.4215 -0.7621
 5672SOL    HW222853   1.101   0.221   6.067  0.7808 -1.4977 -1.6327
 5673SOL     OW22854   3.787   1.839   6.699 -0.0784 -0.5090  0.3701
 5673SOL    HW122855   3.727   1.848   6.625 -0.2487  2.3385  0.7332
 5673SOL    HW222856   3.780   1.748   6.725 -1.7780 -1.0335 -1.6382
 5674SOL     OW22857   7.669   3.271   1.812  0.9075  0.2964  0.3364
 5674SOL    HW122858   7.732   3.216   1.766 -1.3817 -0.9021 -1.6035
 5674SOL    HW222859   7.646   3.220   1.890  0.0432 -0.7627 -0.5851
 5675SOL     OW22860   3.115  10.241   2.589 -0.3755 -0.3329  0.5565
 5675SOL    HW122861   3.108  10.237   2.494 -1.1336 -1.1963  0.6422
 5675SOL    HW222862   3.194  10.294   2.604 -0.5704  0.3100 -0.5346
 5676SOL     OW22863   3.168   3.540   7.185 -0.0854  0.0113 -0.3585
 5676SOL    HW122864   3.082   3.580   7.176  0.0862  1.1941  2.3218
 5676SOL    HW222865   3.210   3.553   7.100 -2.8838 -1.6276 -2.1352
 5677SOL     OW22866   8.029   9.513   4.606 -0.2340  0.5381 -0.1976
 5677SOL    HW122867   8.078   9.532   4.526  2.7740 -2.9181  0.5159
 5677SOL    HW222868   7.966   9.445   4.580 -1.7663  1.9060 -0.2268
 5678SOL     OW22869   8.960   1.674   7.418  0.1379 -0.5741 -0.1353
 5678SOL    HW122870   8.969   1.694   7.324  2.4373  1.1977  0.3721
 5678SOL    HW222871   8.903   1.744   7.452  1.6145  0.4893  0.2361
 5679SOL     OW22872   9.753   4.670   6.645  0.1444  0.0264  0.5127
 5679SOL    HW122873   9.743   4.736   6.713 -0.0527 -0.2353  0.7374
 5679SOL    HW222874   9.689   4.694   6.578  1.2586  1.0724 -0.2175
 5680SOL     OW22875   3.169   3.153   2.685 -0.0670 -0.1678  0.3270
 5680SOL    HW122876   3.183   3.246   2.700 -0.8124  0.0460 -0.3144
 5680SOL    HW222877   3.221   3.110   2.754 -0.0589  0.7183  0.8817
 5681SOL     OW22878   6.546   5.777   9.610  0.2533 -0.1429  0.7438
 5681SOL    HW122879   6.511   5.758   9.524  2.0776 -1.1111  0.1569
 5681SOL    HW222880   6.469   5.784   9.667 -0.9182 -0.6184 -0.7277
 5682SOL     OW22881   6.758   9.442   8.287 -0.3484  0.7197 -0.1715
 5682SOL    HW122882   6.833   9.392   8.317 -0.4325  1.2424  0.9735
 5682SOL    HW222883   6.684   9.381   8.292 -0.4753  0.9528  1.3468
 5683SOL     OW22884   5.027   9.101   3.890 -0.3569 -0.1904 -1.0131
 5683SOL    HW122885   5.024   9.191   3.922  0.4453  0.3540 -2.3997
 5683SOL    HW222886   4.941   9.086   3.852 -0.5513 -0.0802 -0.6216
 5684SOL     OW22887   3.486   4.135   3.653  0.6903  0.0818  0.5201
 5684SOL    HW122888   3.419   4.078   3.615 -1.0928  0.7550  2.4724
 5684SOL    HW222889   3.477   4.218   3.606 -1.0153  0.6822  1.8085
 5685SOL     OW22890   3.015   0.295   7.388  0.4169  0.2510  0.2718
 5685SOL    HW122891   2.920   0.300   7.382  0.5283  0.6899 -1.2706
 5685SOL    HW222892   3.032   0.273   7.480 -1.1281  1.0307  0.7635
 5686SOL     OW22893   9.282   1.493   5.413  0.2714 -0.0704 -0.5344
 5686SOL    HW122894   9.329   1.472   5.495  2.0176  2.6836 -0.7144
 5686SOL    HW222895   9.200   1.444   5.420 -0.1790  0.9196  3.4292
 5687SOL     OW22896   6.661   9.648   5.900 -0.0304  0.0774  0.1693
 5687SOL    HW122897   6.636   9.562   5.935  0.7321  0.5282  1.8780
 5687SOL    HW222898   6.646   9.709   5.971 -0.7015  1.4261 -1.0725
 5688SOL     OW22899   3.034   8.835   6.493 -0.2421  0.2649  0.0437
 5688SOL    HW122900   2.974   8.906   6.519  0.7114  0.6599  1.2773
 5688SOL    HW222901   3.001   8.758   6.538 -1.7068 -0.3075 -1.8635
 5689SOL     OW22902   9.303   3.765   3.416 -0.2899  0.4740 -0.2976
 5689SOL    HW122903   9.284   3.856   3.439 -0.3031  0.9039 -1.8487
 5689SOL    HW222904   9.393   3.751   3.447 -0.3554  0.9505  0.1208
 5690SOL     OW22905   3.724   4.736   8.129  0.1402  0.0406 -0.0811
 5690SOL    HW122906   3.774   4.726   8.210 -1.0539  2.3972  1.0577
 5690SOL    HW222907   3.772   4.801   8.078  0.8339 -1.3596 -1.2786
 5691SOL     OW22908   7.799   6.566   2.119 -0.3346  0.1971  0.4105
 5691SOL    HW122909   7.771   6.507   2.189  1.4938 -0.0359  0.9808
 5691SOL    HW222910   7.786   6.654   2.156  1.5682  0.0821  1.5172
 5692SOL     OW22911   4.584   4.574   0.323  0.1502  0.1433 -0.3450
 5692SOL    HW122912   4.625   4.629   0.256 -1.1837 -0.1889 -1.4925
 5692SOL    HW222913   4.540   4.505   0.274  0.8959 -1.3636  1.0198
 5693SOL     OW22914   7.441  10.410   3.808 -0.0063 -0.3977  0.2056
 5693SOL    HW122915   7.408  10.439   3.893 -1.2391 -1.7835  0.2312
 5693SOL    HW222916   7.442  10.490   3.755 -2.0923  0.0022  0.6528
 5694SOL     OW22917   4.233   9.999   3.711  0.3244 -0.3479  0.4720
 5694SOL    HW122918   4.288  10.067   3.749  1.5821 -1.1771  0.1790
 5694SOL    HW222919   4.282   9.918   3.723 -0.5244 -1.0178 -0.4105
 5695SOL     OW22920   4.868   7.239   2.693  0.2850  0.1780  0.1875
 5695SOL    HW122921   4.854   7.315   2.637  2.3725  1.3197  1.1171
 5695SOL    HW222922   4.894   7.169   2.633  1.2947  1.0494 -0.4219
 5696SOL     OW22923   5.897  10.829   9.303 -0.1063 -1.0696 -0.0371
 5696SOL    HW122924   5.910  10.749   9.253  1.2091  0.0977 -1.6552
 5696SOL    HW222925   5.941  10.814   9.386  2.0883 -1.2666 -1.1778
 5697SOL     OW22926   2.959  10.829   8.858 -0.6303  0.2876  0.2194
 5697SOL    HW122927   2.888  10.890   8.878  1.2981  2.0630  2.1772
 5697SOL    HW222928   3.019  10.879   8.803 -0.1739 -0.7101 -0.2126
 5698SOL     OW22929   1.748   6.909   0.773 -0.3307  0.3997 -0.1034
 5698SOL    HW122930   1.721   6.950   0.855 -0.6349 -0.5292  0.2785
 5698SOL    HW222931   1.842   6.927   0.767 -0.3050  0.4667  0.4541
 5699SOL     OW22932   9.843   5.652   0.610  0.5014 -0.4089 -0.7260
 5699SOL    HW122933   9.936   5.631   0.621  0.4883  0.3401  1.3539
 5699SOL    HW222934   9.839   5.702   0.529  1.8813 -0.6519 -0.9682
 5700SOL     OW22935   9.482   3.729   9.844  0.2156  0.5143  0.1042
 5700SOL    HW122936   9.575   3.722   9.824  0.1353 -0.4642 -0.0027
 5700SOL    HW222937   9.439   3.674   9.778 -0.6306  2.4810 -1.0771
 5701SOL     OW22938   4.594   2.296   5.369  0.0017 -0.2293  0.4246
 5701SOL    HW122939   4.677   2.320   5.410 -1.2636  1.2823  2.3138
 5701SOL    HW222940   4.564   2.377   5.327 -0.9298 -0.5068  0.5415
 5702SOL     OW22941   0.781   0.898   5.873  0.1856  0.0152 -0.4373
 5702SOL    HW122942   0.842   0.825   5.865 -1.0037 -1.0819  0.2019
 5702SOL    HW222943   0.825   0.959   5.933  0.6967 -0.6834 -0.0908
 5703SOL     OW22944   3.133   9.747  10.177 -0.2523 -0.1907  0.3391
 5703SOL    HW122945   3.177   9.746  10.262 -1.7486 -0.9068  1.1286
 5703SOL    HW222946   3.091   9.662  10.170 -2.6504  0.9158  0.2536
 5704SOL     OW22947   0.250   0.161   7.476  0.6639  0.7275 -0.8851
 5704SOL    HW122948   0.279   0.129   7.561  0.9836  0.9685 -0.8976
 5704SOL    HW222949   0.235   0.082   7.424  0.5645  0.5822 -0.6343
 5705SOL     OW22950   2.264  10.009   9.505 -0.1082  0.3114  0.1505
 5705SOL    HW122951   2.250  10.063   9.583  0.2918 -1.6659  1.6712
 5705SOL    HW222952   2.234   9.922   9.531 -1.5252 -0.0920 -2.4719
 5706SOL     OW22953   5.442   3.514   7.777  0.1250 -0.0726  0.0560
 5706SOL    HW122954   5.530   3.533   7.812  0.7490 -1.4054 -0.7048
 5706SOL    HW222955   5.445   3.544   7.687 -0.0149 -0.6159 -0.1338
 5707SOL     OW22956   0.295   5.145  10.704  0.1161  0.4193  0.5481
 5707SOL    HW122957   0.229   5.192  10.756 -0.4329  0.0310  0.2024
 5707SOL    HW222958   0.265   5.055  10.702  0.8398  0.1692  0.6681
 5708SOL     OW22959   9.230  10.247  10.318 -0.6639 -0.4721 -0.2861
 5708SOL    HW122960   9.144  10.240  10.359 -0.8062 -2.1255 -0.8056
 5708SOL    HW222961   9.226  10.188  10.243  0.9950 -0.7782 -0.1678
 5709SOL     OW22962   3.206   6.315   1.860  0.0941  0.4537 -0.3141
 5709SOL    HW122963   3.124   6.286   1.819 -0.7893 -0.5390  2.0038
 5709SOL    HW222964   3.178   6.371   1.932  1.6244  2.6589 -1.3231
 5710SOL     OW22965   9.114   5.104   4.796  0.0495 -0.2410  0.0499
 5710SOL    HW122966   9.192   5.150   4.825  0.5970 -0.4276 -1.0831
 5710SOL    HW222967   9.146   5.034   4.739 -0.9924  0.6116 -1.6738
 5711SOL     OW22968   6.906   7.368   4.938  0.3279  0.3991  0.3280
 5711SOL    HW122969   6.934   7.348   5.027  0.8587  2.5385  0.6791
 5711SOL    HW222970   6.851   7.446   4.946 -0.0446  0.3294 -1.1656
 5712SOL     OW22971  10.905   8.480  10.619  0.5723 -0.4566 -0.1241
 5712SOL    HW122972  10.891   8.565  10.578  0.0735 -0.2441  0.4783
 5712SOL    HW222973  10.932   8.423  10.547  2.7555  0.6409 -0.2449
 5713SOL     OW22974   0.196   7.867   3.588  0.0438 -0.2261  0.2235
 5713SOL    HW122975   0.239   7.818   3.518  1.1351 -0.1646  0.8119
 5713SOL    HW222976   0.250   7.946   3.598  0.9512 -0.9962  2.2113
 5714SOL     OW22977   9.722  10.690   6.039 -0.7125  0.3638  0.5916
 5714SOL    HW122978   9.697  10.764   5.983 -1.6473  0.4878  1.1523
 5714SOL    HW222979   9.776  10.730   6.107  2.0899 -0.0585 -1.2162
 5715SOL     OW22980   1.736   9.035   9.311 -0.5088  0.3875 -0.3698
 5715SOL    HW122981   1.675   8.985   9.366  0.6657  2.4616  3.1318
 5715SOL    HW222982   1.681   9.075   9.244 -2.1863 -1.5141 -0.2365
 5716SOL     OW22983   5.614   1.590   1.688  0.0761  0.0486  0.4841
 5716SOL    HW122984   5.707   1.614   1.678 -0.1692  0.4961 -1.0224
 5716SOL    HW222985   5.568   1.674   1.683 -0.4321 -0.2077  0.8702
 5717SOL     OW22986   0.643   5.938   7.407 -0.3552 -0.0545 -0.0619
 5717SOL    HW122987   0.615   5.864   7.352  0.8521 -0.5950  0.0092
 5717SOL    HW222988   0.639   5.904   7.496 -3.5443  1.2224  0.3851
 5718SOL     OW22989   9.720   2.086   3.517  0.6706  0.4105  0.6534
 5718SOL    HW122990   9.810   2.119   3.515  0.9333 -0.3051  0.4300
 5718SOL    HW222991   9.704   2.066   3.609  0.9494 -0.0236  0.6080
 5719SOL     OW22992   3.052   3.413   3.256  0.1159  0.0496 -0.1897
 5719SOL    HW122993   3.019   3.327   3.230 -1.0043  0.0591  1.0604
 5719SOL    HW222994   3.064   3.406   3.351 -0.7509  1.4828  0.0538
 5720SOL     OW22995   3.224   9.412   9.552 -0.0316 -0.0034  0.4209
 5720SOL    HW122996   3.134   9.443   9.557 -0.4219 -1.0542  0.0944
 5720SOL    HW222997   3.230   9.343   9.618  0.4038 -0.2423  0.1392
 5721SOL     OW22998   4.214   2.974   1.898  0.8881 -0.0998 -0.6873
 5721SOL    HW122999   4.184   2.891   1.859  0.5758 -1.2970  1.8967
 5721SOL    HW223000   4.309   2.965   1.904  0.9169  0.0023 -0.9951
 5722SOL     OW23001   2.621   1.854   6.071  0.2077 -0.1662 -0.3570
 5722SOL    HW123002   2.614   1.883   6.161 -0.9028 -1.1152 -0.1171
 5722SOL    HW223003   2.532   1.860   6.036  0.3646 -1.0839 -0.9640
 5723SOL     OW23004   2.598   7.356   0.984 -0.1229 -0.1630 -0.4161
 5723SOL    HW123005   2.520   7.404   1.011 -1.6479 -1.4236 -2.2938
 5723SOL    HW223006   2.595   7.274   1.034  1.3456  0.7475  1.2533
 5724SOL     OW23007  10.528  10.807   8.350  0.3047 -0.1507 -0.5640
 5724SOL    HW123008  10.484  10.753   8.284  0.3822  0.6307 -1.2695
 5724SOL    HW223009  10.484  10.784   8.432  0.7575 -1.7545 -0.7230
 5725SOL     OW23010   1.549   0.567   8.057 -0.0806  0.2016 -0.3190
 5725SOL    HW123011   1.628   0.619   8.075 -0.2982  0.4620 -0.1014
 5725SOL    HW223012   1.484   0.601   8.119 -0.2843 -0.1992 -0.3106
 5726SOL     OW23013   1.917   2.473   9.585  0.9428 -0.7137  0.3591
 5726SOL    HW123014   1.947   2.415   9.655  0.7032 -2.4511 -0.9076
 5726SOL    HW223015   1.911   2.560   9.626 -1.7567 -2.0740  3.2318
 5727SOL     OW23016   2.315   9.277   9.169 -0.0656  0.0895 -0.2109
 5727SOL    HW123017   2.374   9.223   9.222 -0.7790 -0.0150  0.4921
 5727SOL    HW223018   2.353   9.275   9.081  0.3326 -0.9413 -0.0282
 5728SOL     OW23019   6.968  10.050  10.726 -0.3277  0.5992 -0.0878
 5728SOL    HW123020   6.999   9.976  10.778 -0.4994  0.2680 -0.4480
 5728SOL    HW223021   6.873  10.039  10.723 -0.5226  1.7482  1.2208
 5729SOL     OW23022   9.198   3.058   1.148  0.2063  1.0236  0.0173
 5729SOL    HW123023   9.291   3.056   1.169  0.4362  0.8368 -0.9752
 5729SOL    HW223024   9.192   3.108   1.067 -0.6350  1.5807  0.4059
 5730SOL     OW23025   1.860   8.115   2.716  0.2132 -0.3400 -0.5016
 5730SOL    HW123026   1.935   8.167   2.744 -0.1952  0.1235 -0.2469
 5730SOL    HW223027   1.836   8.152   2.631 -0.8339  0.7396  0.2175
 5731SOL     OW23028   7.811   6.305   1.657  0.7409  0.2269  0.2990
 5731SOL    HW123029   7.805   6.361   1.734  0.0239  1.5729 -0.6983
 5731SOL    HW223030   7.857   6.358   1.592 -0.2271 -0.2207 -0.7720
 5732SOL     OW23031   5.240   0.042   4.338  0.3930 -0.1213  0.1336
 5732SOL    HW123032   5.238  -0.004   4.422  2.1722  0.7919  0.7079
 5732SOL    HW223033   5.185   0.119   4.352  0.5745 -0.0433  0.4181
 5733SOL     OW23034   2.555   3.862   0.000 -0.4439 -0.0560 -0.3102
 5733SOL    HW123035   2.526   3.777   0.032 -1.6158  0.1320 -0.8205
 5733SOL    HW223036   2.497   3.882  -0.073 -0.7140  1.5155  0.2746
 5734SOL     OW23037   8.867   9.763   8.786  0.9375 -0.0275  1.1802
 5734SOL    HW123038   8.824   9.683   8.756 -0.1219  1.0936 -0.4416
 5734SOL    HW223039   8.878   9.815   8.706  1.7314  1.4006  2.1838
 5735SOL     OW23040  10.051   5.111   4.387 -0.3880  0.2314  0.1820
 5735SOL    HW123041   9.995   5.033   4.387 -1.8576  1.1574 -2.5711
 5735SOL    HW223042  10.054   5.138   4.478 -0.4743 -2.5597  1.1132
 5736SOL     OW23043   3.464   5.077   9.006  0.4560 -0.0030  0.3335
 5736SOL    HW123044   3.394   5.114   8.951  0.3383 -0.7252 -0.0044
 5736SOL    HW223045   3.423   5.068   9.092 -0.1650 -1.2630 -0.0713
 5737SOL     OW23046   2.507  10.381   8.242 -0.0410 -0.0752  0.4835
 5737SOL    HW123047   2.503  10.302   8.188 -1.4318 -0.3418  0.9301
 5737SOL    HW223048   2.480  10.352   8.329  1.6294  0.4528  1.2275
 5738SOL     OW23049   1.554   3.411   6.397 -0.0452  0.3138  0.0914
 5738SOL    HW123050   1.489   3.362   6.447  0.3813 -1.4293 -0.9806
 5738SOL    HW223051   1.505   3.482   6.357 -0.5774  1.1559  2.1298
 5739SOL     OW23052   8.019   4.663   0.579 -0.1830  0.0481 -0.1760
 5739SOL    HW123053   8.081   4.632   0.644  1.0416  0.6154 -1.0197
 5739SOL    HW223054   8.023   4.598   0.509  0.5582  0.8008 -0.8600
 5740SOL     OW23055   6.579   0.159   7.781 -0.1170 -0.8710 -0.1270
 5740SOL    HW123056   6.537   0.221   7.721  0.0856  0.3012  0.8919
 5740SOL    HW223057   6.528   0.079   7.771  0.0824 -0.8095 -2.0357
 5741SOL     OW23058   9.753   2.358   8.108 -0.1140  0.1660  0.6407
 5741SOL    HW123059   9.837   2.402   8.100 -0.3835  0.5657 -0.0941
 5741SOL    HW223060   9.774   2.269   8.137  0.5036  0.4791  1.1623
 5742SOL     OW23061   7.094   2.522   3.131 -0.1714 -0.6324 -0.5511
 5742SOL    HW123062   7.158   2.593   3.120 -0.6537  0.2377  1.8338
 5742SOL    HW223063   7.099   2.473   3.048  0.2093  2.1271 -2.3079
 5743SOL     OW23064   0.846   5.348   1.609  0.1089  0.2910  0.0462
 5743SOL    HW123065   0.794   5.291   1.552 -0.5631  2.3852 -1.5524
 5743SOL    HW223066   0.806   5.338   1.696 -3.2289  1.9294 -1.1253
 5744SOL     OW23067   7.392   5.898   5.867 -0.4158  0.2846 -0.2880
 5744SOL    HW123068   7.448   5.953   5.922  1.7326 -1.8056 -0.2234
 5744SOL    HW223069   7.387   5.815   5.914 -0.7304 -0.6962 -2.0051
 5745SOL     OW23070   8.481   5.691   3.636  0.1853  0.1845  0.4925
 5745SOL    HW123071   8.512   5.781   3.649  0.4946 -0.1150  1.9643
 5745SOL    HW223072   8.448   5.665   3.722 -1.3668 -0.5702 -0.2972
 5746SOL     OW23073   2.683   6.263   0.295 -0.1015 -0.1021 -0.0114
 5746SOL    HW123074   2.660   6.221   0.213  0.3412 -0.9522  0.2859
 5746SOL    HW223075   2.732   6.341   0.269  2.1799 -1.6240 -0.5614
 5747SOL     OW23076   9.323   0.145   6.106 -0.4995 -0.0025 -0.3356
 5747SOL    HW123077   9.246   0.190   6.072 -0.5750  0.6461  0.6578
 5747SOL    HW223078   9.396   0.181   6.055 -0.9091 -1.4201 -2.0657
 5748SOL     OW23079   7.786   2.604   6.244 -0.1867 -0.3512 -0.2243
 5748SOL    HW123080   7.881   2.593   6.231 -0.3586 -0.4241 -1.6442
 5748SOL    HW223081   7.760   2.665   6.174 -1.0503  0.3862  0.7097
 5749SOL     OW23082   9.480   5.247  10.155 -0.0816  0.1956 -0.1929
 5749SOL    HW123083   9.496   5.230  10.247 -0.5231 -2.7324 -0.5553
 5749SOL    HW223084   9.506   5.166  10.111 -1.5214  0.8574 -2.4403
 5750SOL     OW23085   7.056   5.108   0.435  0.5272  0.1142  0.2908
 5750SOL    HW123086   7.074   5.189   0.386  1.3666  0.5187  1.2350
 5750SOL    HW223087   6.982   5.130   0.492  1.9148  0.8347  1.8942
 5751SOL     OW23088   0.214   0.821   2.725 -0.5053  0.3768 -1.0205
 5751SOL    HW123089   0.132   0.817   2.675 -0.6671  0.4204 -0.7640
 5751SOL    HW223090   0.253   0.905   2.700 -0.8335  0.6298 -0.6955
 5752SOL     OW23091   9.589   9.029   6.611 -0.4768  0.6668  0.0825
 5752SOL    HW123092   9.539   9.110   6.624  0.4189  1.2074  0.2604
 5752SOL    HW223093   9.564   8.973   6.684  0.2996  1.5201  1.0400
 5753SOL     OW23094  10.649   4.953   5.049  0.5578  0.2619  0.2180
 5753SOL    HW123095  10.728   5.007   5.045  0.6916  0.0714 -3.4049
 5753SOL    HW223096  10.578   5.013   5.028  0.2629 -0.2683 -0.3349
 5754SOL     OW23097   0.562   7.000   1.129  0.1499  0.3520 -0.8146
 5754SOL    HW123098   0.562   6.929   1.064  1.2473 -0.0291 -0.4074
 5754SOL    HW223099   0.497   7.062   1.096 -0.5749 -0.6720 -1.3643
 5755SOL     OW23100   6.808   4.089   1.616 -0.1247  0.1410 -0.2637
 5755SOL    HW123101   6.859   4.025   1.664  0.0721 -0.5714 -1.3954
 5755SOL    HW223102   6.843   4.174   1.644  0.5825 -0.2881  0.1755
 5756SOL     OW23103   3.648  10.203  10.027  0.2723  0.7385 -0.1579
 5756SOL    HW123104   3.675  10.241   9.943 -0.3478 -2.0562 -1.7168
 5756SOL    HW223105   3.724  10.152  10.056  0.1515  0.9418  0.5376
 5757SOL     OW23106   0.829   3.557   8.152 -0.1892  0.0051  0.3733
 5757SOL    HW123107   0.881   3.637   8.149 -1.2091  0.8230  2.2766
 5757SOL    HW223108   0.779   3.558   8.071 -0.9609  1.9070  0.8012
 5758SOL     OW23109   1.910   8.797  10.719  0.0157  0.0623  0.0604
 5758SOL    HW123110   1.832   8.852  10.725 -0.3510 -0.6260  3.1598
 5758SOL    HW223111   1.969   8.831  10.786  1.7164 -0.4937 -1.0804
 5759SOL     OW23112   1.064   4.407   2.834 -0.3141 -0.5306 -0.1514
 5759SOL    HW123113   1.048   4.456   2.753 -0.3039 -1.3326 -0.6464
 5759SOL    HW223114   1.154   4.376   2.827 -0.7116 -1.6692 -0.4189
 5760SOL     OW23115  10.798   3.231   4.360  0.3086  0.0574 -0.5325
 5760SOL    HW123116  10.713   3.234   4.403  0.6310 -0.1628  0.1246
 5760SOL    HW223117  10.861   3.258   4.427  0.9425 -1.3947 -0.4965
 5761SOL     OW23118   2.455  10.092   1.406 -0.6162 -0.4539 -0.4977
 5761SOL    HW123119   2.505  10.131   1.478 -2.5028 -0.8537  1.1103
 5761SOL    HW223120   2.438  10.165   1.346  0.8759 -0.0901 -0.5100
 5762SOL     OW23121   2.389   0.419   1.711 -0.1071 -0.1329 -0.3432
 5762SOL    HW123122   2.296   0.407   1.694  0.2288 -1.8325 -1.2957
 5762SOL    HW223123   2.429   0.424   1.624  0.7325  0.1732  0.0460
 5763SOL     OW23124   6.455   0.036   6.469 -0.7328  0.0609  0.1807
 5763SOL    HW123125   6.413  -0.047   6.490 -2.0782  0.8828  0.9431
 5763SOL    HW223126   6.428   0.054   6.378 -1.3053  0.1408  0.3607
 5764SOL     OW23127  10.531   3.681   8.285 -0.1088  0.2611  0.0334
 5764SOL    HW123128  10.547   3.767   8.325 -0.1035  0.6272 -0.7380
 5764SOL    HW223129  10.436   3.678   8.273 -0.1524 -0.0140  0.4321
 5765SOL     OW23130   3.436   0.643   6.291 -0.5362 -0.0537 -0.3009
 5765SOL    HW123131   3.418   0.614   6.201  0.4042  0.3050 -0.6089
 5765SOL    HW223132   3.349   0.657   6.328 -0.9397  0.3888 -1.3532
 5766SOL     OW23133   3.817   4.377   8.393 -0.1700  0.0305  0.2675
 5766SOL    HW123134   3.767   4.437   8.448  0.1659  0.8378 -0.2785
 5766SOL    HW223135   3.753   4.314   8.361 -0.4523 -0.1788  1.2036
 5767SOL     OW23136   4.774   1.943  10.565 -0.8844 -0.3947  0.0435
 5767SOL    HW123137   4.709   1.896  10.618  1.2863 -0.2800  3.0466
 5767SOL    HW223138   4.841   1.878  10.546  0.2842  0.5320  0.9051
 5768SOL     OW23139   7.435   8.440   3.112  0.1741  0.5363 -0.1929
 5768SOL    HW123140   7.501   8.502   3.144 -1.4800  1.6306  1.3221
 5768SOL    HW223141   7.431   8.372   3.180  0.3044  0.0387 -0.6782
 5769SOL     OW23142   0.315   5.587   7.289  0.3407  0.1847 -0.0041
 5769SOL    HW123143   0.384   5.559   7.349  1.0238 -0.7625 -1.1913
 5769SOL    HW223144   0.314   5.521   7.221 -2.7371 -0.6407  0.6925
 5770SOL     OW23145   4.793   4.869   4.077 -0.6142 -0.2864 -0.6176
 5770SOL    HW123146   4.711   4.918   4.066 -0.6545 -0.4605 -1.1543
 5770SOL    HW223147   4.799   4.816   3.997  0.9772  1.1340 -1.5101
 5771SOL     OW23148   9.357   6.166  10.337  0.0999 -0.4562  0.1615
 5771SOL    HW123149   9.323   6.136  10.421  0.9288 -0.4593  0.5015
 5771SOL    HW223150   9.452   6.156  10.344  0.1041 -2.2115 -1.4177
 5772SOL     OW23151   2.972   7.394   9.230 -0.3723 -0.5647  0.0576
 5772SOL    HW123152   3.040   7.428   9.171  1.3079 -2.4795  0.7840
 5772SOL    HW223153   2.916   7.342   9.173  0.3973 -1.2275 -0.1125
 5773SOL     OW23154   6.454   1.983   1.874 -0.3667  0.8189  0.5700
 5773SOL    HW123155   6.393   2.052   1.849 -0.4911  0.9073  1.1147
 5773SOL    HW223156   6.408   1.932   1.941 -1.1439 -1.1401 -1.3451
 5774SOL     OW23157   2.066   9.162   0.667  0.2520 -0.8162  0.2745
 5774SOL    HW123158   2.149   9.206   0.687 -1.1833  1.2657  2.1818
 5774SOL    HW223159   2.050   9.107   0.744 -0.8486  0.0206  0.6661
 5775SOL     OW23160   9.793  10.300   4.801  0.2980  0.1416 -0.0353
 5775SOL    HW123161   9.795  10.214   4.843 -1.0730  0.0778 -0.0297
 5775SOL    HW223162   9.792  10.282   4.707 -2.7266 -0.0428 -0.0633
 5776SOL     OW23163   9.736   4.151  10.457 -0.0362  0.3637  0.0705
 5776SOL    HW123164   9.683   4.075  10.482  0.4865 -0.2281 -0.5827
 5776SOL    HW223165   9.752   4.197  10.539 -0.7220  0.0031  0.4156
 5777SOL     OW23166   4.572   1.638   5.224  0.6168  0.3612 -0.2943
 5777SOL    HW123167   4.654   1.594   5.247  1.3041  0.6673 -2.0505
 5777SOL    HW223168   4.595   1.697   5.153 -1.2829 -0.1674 -1.4157
 5778SOL     OW23169   3.887   5.572   5.447 -0.4166 -0.2212  0.2434
 5778SOL    HW123170   3.938   5.550   5.524  0.2231  2.8036  0.8097
 5778SOL    HW223171   3.832   5.645   5.474  1.6532  2.7163 -2.6648
 5779SOL     OW23172   2.404   2.077   0.357 -0.9933  0.1651  0.0403
 5779SOL    HW123173   2.350   2.010   0.400 -1.7720  0.1644 -0.8886
 5779SOL    HW223174   2.352   2.104   0.281  0.1266  0.5064 -0.6259
 5780SOL     OW23175   6.134   8.920   4.254  0.2791  0.0193 -0.3703
 5780SOL    HW123176   6.193   8.885   4.187  1.0496  1.5039 -0.5069
 5780SOL    HW223177   6.047   8.890   4.228  0.5381  0.6936 -2.1636
 5781SOL     OW23178   8.793   8.054   8.361  0.0346  0.5325  0.1330
 5781SOL    HW123179   8.831   8.084   8.278 -1.2506 -0.5444 -0.8783
 5781SOL    HW223180   8.785   8.134   8.413  0.5847  1.2766 -0.8872
 5782SOL     OW23181   1.902   6.076   3.336 -0.6878 -0.4696  0.6325
 5782SOL    HW123182   1.825   6.022   3.352 -1.5956  0.7282  0.4442
 5782SOL    HW223183   1.956   6.065   3.415 -1.9247  0.0859  1.6040
 5783SOL     OW23184   7.002   3.689   2.490 -0.5326 -0.0141 -0.8887
 5783SOL    HW123185   6.984   3.779   2.462 -1.4540  0.1293  0.1166
 5783SOL    HW223186   7.076   3.697   2.550 -2.0406  0.4250  1.0281
 5784SOL     OW23187   4.739   5.564   9.310 -0.0809  0.1250 -0.4127
 5784SOL    HW123188   4.743   5.658   9.289  3.0972 -0.1795 -1.7094
 5784SOL    HW223189   4.712   5.522   9.229 -1.5318 -0.1298  0.1760
 5785SOL     OW23190   8.074   9.484   4.886  0.3218  0.0245  0.1358
 5785SOL    HW123191   8.090   9.399   4.928  1.0490 -0.0054 -0.1840
 5785SOL    HW223192   8.079   9.466   4.793  0.0387  0.3428  0.0592
 5786SOL     OW23193   0.175   1.296   9.576 -0.2554  0.6285 -0.1368
 5786SOL    HW123194   0.093   1.249   9.557  0.8770 -1.2150 -0.7148
 5786SOL    HW223195   0.210   1.316   9.489 -0.3695  1.9558  0.1115
 5787SOL     OW23196  10.882   8.442   6.594  0.5882  0.3208  0.5004
 5787SOL    HW123197  10.832   8.495   6.533  0.0547 -1.0749 -0.3166
 5787SOL    HW223198  10.828   8.439   6.673 -0.2187 -0.4333 -0.0642
 5788SOL     OW23199   9.135   9.586   6.646 -0.6588  0.6559  0.1112
 5788SOL    HW123200   9.111   9.638   6.569 -1.5354  1.6879  1.0579
 5788SOL    HW223201   9.227   9.564   6.631 -0.0466  3.0338 -0.0428
 5789SOL     OW23202   1.340   6.123  10.829 -0.0518 -0.4243  0.6343
 5789SOL    HW123203   1.298   6.201  10.792  0.9248 -1.3562 -2.7701
 5789SOL    HW223204   1.409   6.159  10.886  0.1794  1.2446 -0.6068
 5790SOL     OW23205   3.220   4.154   7.675 -0.2084 -0.3385  0.0609
 5790SOL    HW123206   3.233   4.130   7.766  0.5308 -2.7468 -0.5906
 5790SOL    HW223207   3.307   4.175   7.642 -0.4512  0.4018 -0.1487
 5791SOL     OW23208   4.119   9.098   2.385 -0.2260 -0.4951  0.2323
 5791SOL    HW123209   4.104   9.181   2.341 -0.0756 -0.7402 -0.2851
 5791SOL    HW223210   4.062   9.036   2.340  0.4592 -0.8943 -0.0995
 5792SOL     OW23211   8.253   0.636   7.558 -0.3673 -0.0461  0.0454
 5792SOL    HW123212   8.267   0.588   7.640 -3.4539 -0.2166  0.6195
 5792SOL    HW223213   8.272   0.573   7.489  1.8813 -0.0266  0.5744
 5793SOL     OW23214   8.539   9.022  10.152 -0.2020  0.1880 -0.3134
 5793SOL    HW123215   8.471   8.956  10.139  0.0193  0.3982 -3.2999
 5793SOL    HW223216   8.491   9.103  10.167 -0.5643 -0.0132 -0.3758
 5794SOL     OW23217   9.561   1.336   3.888 -0.2087 -0.4043 -0.1560
 5794SOL    HW123218   9.602   1.398   3.949 -1.3139  0.0222  0.1615
 5794SOL    HW223219   9.613   1.343   3.808  0.0013  0.5365  0.0559
 5795SOL     OW23220   3.547   1.792   6.212  0.7122  0.0382  0.0424
 5795SOL    HW123221   3.595   1.756   6.137 -0.4114 -0.0866 -0.6466
 5795SOL    HW223222   3.544   1.886   6.196  1.3572  0.1337  0.4679
 5796SOL     OW23223  10.481   1.549   8.722  0.7452 -0.1249  0.1422
 5796SOL    HW123224  10.537   1.472   8.722  0.4134 -0.3750 -0.5315
 5796SOL    HW223225  10.462   1.565   8.814  0.6081 -1.0075  0.2756
 5797SOL     OW23226   0.107   3.457   2.299  0.0982  0.4568 -0.0338
 5797SOL    HW123227   0.079   3.379   2.251  0.8760 -0.2576  0.6388
 5797SOL    HW223228   0.051   3.527   2.266  0.5454 -0.0129 -1.9400
 5798SOL     OW23229   8.219   9.994  10.139  0.6282  0.3741  0.6692
 5798SOL    HW123230   8.218  10.087  10.163  1.3864  0.3994  0.6191
 5798SOL    HW223231   8.311   9.969  10.147  0.3112 -0.5903  1.5043
 5799SOL     OW23232   4.221   3.881   9.415  0.2474 -0.3655 -1.0485
 5799SOL    HW123233   4.197   3.939   9.343 -0.3407 -0.8124 -1.2148
 5799SOL    HW223234   4.157   3.899   9.484 -0.5855 -1.5538 -1.4919
 5800SOL     OW23235   5.989  10.012   9.992 -0.0942  0.6593 -0.5202
 5800SOL    HW123236   5.996   9.919   9.971  0.3944  0.4511  0.4987
 5800SOL    HW223237   5.928  10.015  10.067  0.7172  1.0493  0.1383
 5801SOL     OW23238   1.190   8.446   0.318 -0.8003 -0.5134 -0.0998
 5801SOL    HW123239   1.238   8.459   0.400 -0.6756 -1.6589  0.0290
 5801SOL    HW223240   1.252   8.471   0.249 -0.5323 -0.5746  0.1193
 5802SOL     OW23241   7.327  10.464   6.116 -0.2439  0.6737  0.3071
 5802SOL    HW123242   7.271  10.461   6.038  0.8002 -0.5169 -0.4364
 5802SOL    HW223243   7.348  10.373   6.134  0.2476  1.0028  1.4578
 5803SOL     OW23244   1.686   5.761   9.642  0.7835 -0.0196  0.2022
 5803SOL    HW123245   1.690   5.757   9.546 -1.8178  0.8299 -0.0158
 5803SOL    HW223246   1.610   5.709   9.665  2.8389 -2.3939  2.1116
 5804SOL     OW23247  10.376   6.739   1.187  0.2718 -0.2597  0.1893
 5804SOL    HW123248  10.308   6.702   1.242  0.5652 -0.3166  0.5205
 5804SOL    HW223249  10.336   6.816   1.147 -0.3210 -0.8855 -0.4544
 5805SOL     OW23250   1.960   4.540   8.266  0.1308 -0.1998 -0.4092
 5805SOL    HW123251   2.000   4.469   8.217  0.2839 -2.0061  2.1566
 5805SOL    HW223252   1.867   4.520   8.268 -0.1711  0.9370 -1.5572
 5806SOL     OW23253   1.580  10.464   4.528  0.0556  0.3772  0.2918
 5806SOL    HW123254   1.597  10.530   4.460  1.7996  0.1136  0.4095
 5806SOL    HW223255   1.593  10.512   4.610 -1.5142  0.5603  0.4653
 5807SOL     OW23256   5.866   1.624   3.396  0.0873  0.2079 -0.0709
 5807SOL    HW123257   5.790   1.649   3.344  1.1795  2.5872 -0.6640
 5807SOL    HW223258   5.928   1.587   3.333  0.2429  0.2420  0.0619
 5808SOL     OW23259   2.948   8.847   0.542 -0.0172 -0.0093 -0.1449
 5808SOL    HW123260   3.030   8.896   0.534 -0.3533  0.7961  1.0749
 5808SOL    HW223261   2.882   8.903   0.500 -0.3187  0.3798  0.8283
 5809SOL     OW23262   8.038   7.721   2.145  0.4810  0.1668  0.3780
 5809SOL    HW123263   8.026   7.686   2.056  1.8447 -0.3849  0.3935
 5809SOL    HW223264   8.033   7.645   2.202  0.8120  0.3531  0.6593
 5810SOL     OW23265   6.628   5.495   5.769 -0.1180 -0.4368 -0.2158
 5810SOL    HW123266   6.546   5.512   5.722  1.4091  0.9660 -2.5442
 5810SOL    HW223267   6.620   5.403   5.797 -1.9454 -0.7329 -1.4830
 5811SOL     OW23268   5.008   8.136   0.939 -0.4893  0.4278  0.5402
 5811SOL    HW123269   5.096   8.117   0.908 -1.4909 -1.2952 -1.4956
 5811SOL    HW223270   4.978   8.054   0.978 -1.0893  1.1110  1.5774
 5812SOL     OW23271   8.564   5.694   1.588  0.5955 -0.2234 -0.3489
 5812SOL    HW123272   8.571   5.624   1.522  1.0209 -0.7071  0.2030
 5812SOL    HW223273   8.565   5.648   1.672  0.2732  0.4076  0.0062
 5813SOL     OW23274   6.063   0.547   2.571 -0.2233 -0.2596 -0.5832
 5813SOL    HW123275   6.146   0.503   2.554  0.2004  1.3447 -3.1985
 5813SOL    HW223276   6.075   0.587   2.657  1.1723 -1.1574 -0.3138
 5814SOL     OW23277   5.871   9.693   7.537 -0.2342 -0.0002  0.3660
 5814SOL    HW123278   5.800   9.628   7.539  0.6655 -1.0651 -0.8027
 5814SOL    HW223279   5.863   9.734   7.451 -0.4839  1.1154  0.9053
 5815SOL     OW23280   2.716   0.962   5.080 -0.3295 -0.2577  0.2686
 5815SOL    HW123281   2.707   1.057   5.081 -1.6007 -0.3508  1.1741
 5815SOL    HW223282   2.810   0.946   5.070 -0.0939  1.0840  0.1794
 5816SOL     OW23283   1.534   9.933   6.245  0.0234  0.4627 -0.0723
 5816SOL    HW123284   1.590   9.886   6.183  0.2213 -0.0637  0.4966
 5816SOL    HW223285   1.595   9.986   6.297 -0.1949  1.3690 -0.7020
 5817SOL     OW23286   3.176   5.569   2.671 -0.0411  0.9187  0.1204
 5817SOL    HW123287   3.149   5.549   2.760  1.4321  0.6221  0.5365
 5817SOL    HW223288   3.271   5.577   2.676  0.1187  0.4645 -1.5091
 5818SOL     OW23289   8.930   0.316  10.210  0.0963  0.1837  0.2133
 5818SOL    HW123290   8.888   0.375  10.147  1.2658 -0.9621 -1.7331
 5818SOL    HW223291   8.861   0.298  10.274 -0.8200  2.2439 -0.1085
 5819SOL     OW23292   3.724   0.499  10.808 -1.0351  0.1066  0.1211
 5819SOL    HW123293   3.662   0.520  10.738 -0.3529  3.2111  0.3098
 5819SOL    HW223294   3.680   0.529  10.888 -0.2040  0.2395  0.5346
 5820SOL     OW23295   8.665   5.876   6.653  0.0831  0.2390 -0.1688
 5820SOL    HW123296   8.596   5.817   6.685 -0.0691  0.8597  0.6879
 5820SOL    HW223297   8.746   5.835   6.681  0.0022  0.1895 -0.0071
 5821SOL     OW23298   1.904   1.990   6.070 -0.9309 -0.0067  0.5294
 5821SOL    HW123299   1.904   2.042   5.989  2.4704 -1.2250 -0.4205
 5821SOL    HW223300   1.917   2.055   6.140  1.1292  0.7221 -0.4391
 5822SOL     OW23301   3.282   0.301  10.634 -0.1061 -0.3213  0.2586
 5822SOL    HW123302   3.285   0.372  10.698  0.0039  0.0660 -0.1773
 5822SOL    HW223303   3.285   0.221  10.688  1.5803 -0.0170  0.6889
 5823SOL     OW23304   6.784   7.295   4.695  0.4755  0.0445  0.7657
 5823SOL    HW123305   6.821   7.325   4.778 -2.0506 -1.1970  2.4774
 5823SOL    HW223306   6.797   7.200   4.696  0.6768  0.0442 -0.4365
 5824SOL     OW23307   8.408  10.819   3.873 -0.1029  0.0247 -0.0755
 5824SOL    HW123308   8.433  10.795   3.784 -1.2548  0.2623 -0.4769
 5824SOL    HW223309   8.491  10.833   3.918  0.5429 -1.4241 -0.7331
 5825SOL     OW23310   6.020   9.399   9.450  0.0686  0.2288  0.5110
 5825SOL    HW123311   6.101   9.375   9.496 -1.0429 -3.1047  1.0129
 5825SOL    HW223312   6.050   9.444   9.371  2.4447 -0.8132  0.7222
 5826SOL     OW23313   1.443   8.024   2.311 -0.3641 -0.0590  0.0164
 5826SOL    HW123314   1.483   7.940   2.336 -0.0799 -0.3066 -1.2090
 5826SOL    HW223315   1.367   8.032   2.369 -1.0066 -1.6784 -0.5309
 5827SOL     OW23316   5.243   4.809   3.608  0.0304 -0.4992 -0.2366
 5827SOL    HW123317   5.175   4.753   3.570 -0.7926  1.1764 -1.3945
 5827SOL    HW223318   5.249   4.883   3.548  0.6007  0.9737  1.5390
 5828SOL     OW23319   4.907   0.774   2.733  0.0327  0.0892 -0.1662
 5828SOL    HW123320   4.854   0.824   2.795 -0.4611 -0.8040  0.1535
 5828SOL    HW223321   4.888   0.683   2.754  1.2484 -0.2444 -0.4526
 5829SOL     OW23322   8.596   2.340   0.096 -0.1276 -0.1321 -0.1060
 5829SOL    HW123323   8.590   2.249   0.068  0.5102  0.1687 -1.2821
 5829SOL    HW223324   8.687   2.351   0.124 -0.7078 -0.3862  2.0392
 5830SOL     OW23325   9.832   8.375   5.081  0.0815 -0.7323  0.0062
 5830SOL    HW123326   9.758   8.426   5.113  0.9549 -0.1687  1.2118
 5830SOL    HW223327   9.803   8.284   5.085 -0.3337 -0.5633  1.0665
 5831SOL     OW23328   4.781   3.263   0.136  0.5957  0.1600 -0.0224
 5831SOL    HW123329   4.711   3.197   0.139 -0.3169  1.1392  1.8362
 5831SOL    HW223330   4.759   3.324   0.206  2.5616  1.2971 -0.3378
 5832SOL     OW23331   0.063   8.595   8.530 -0.4016  0.6243  0.8763
 5832SOL    HW123332   0.024   8.528   8.587  0.5491 -0.9854 -0.2863
 5832SOL    HW223333   0.037   8.570   8.442  1.3390  0.8123  0.2712
 5833SOL     OW23334   4.540   3.599   2.571 -1.2926 -0.1003  0.1752
 5833SOL    HW123335   4.574   3.521   2.615 -0.9053 -0.5643 -0.9066
 5833SOL    HW223336   4.465   3.568   2.520 -1.0175  0.1832 -0.4162
 5834SOL     OW23337   8.566  10.859   1.928  0.2127 -0.2482 -0.2841
 5834SOL    HW123338   8.505  10.795   1.967  0.2705  1.3850  2.8241
 5834SOL    HW223339   8.636  10.806   1.891  0.1493 -2.0591  1.9791
 5835SOL     OW23340   7.666   8.037   7.631 -0.6882  0.1090  0.1940
 5835SOL    HW123341   7.605   7.964   7.617 -0.8749  0.1252  0.8916
 5835SOL    HW223342   7.731   8.027   7.562 -1.1773 -0.2293 -0.2296
 5836SOL     OW23343   7.419   7.805   7.322 -0.3421  0.2527 -0.3560
 5836SOL    HW123344   7.392   7.844   7.406 -0.2197  1.0405 -0.6727
 5836SOL    HW223345   7.513   7.790   7.332 -0.6802 -1.6600  0.4187
 5837SOL     OW23346   4.433   1.430   6.876  0.2491  0.6169  0.0092
 5837SOL    HW123347   4.480   1.354   6.841 -0.3027 -0.0732  0.7342
 5837SOL    HW223348   4.502   1.494   6.894  0.9628 -0.4110  1.1559
 5838SOL     OW23349   7.809   1.772   7.873 -0.1483 -0.1275 -0.2475
 5838SOL    HW123350   7.807   1.680   7.846 -0.8983 -0.1025 -0.3217
 5838SOL    HW223351   7.878   1.811   7.820 -1.2264 -0.2000 -1.7968
 5839SOL     OW23352   5.695   5.061   6.752 -0.7826  0.3413  0.2458
 5839SOL    HW123353   5.662   4.988   6.805 -0.2601 -1.3700 -1.6379
 5839SOL    HW223354   5.646   5.055   6.670 -0.0817  1.5547 -0.2835
 5840SOL     OW23355   3.944  10.457   0.359 -0.0718  0.2447 -0.1966
 5840SOL    HW123356   3.853  10.485   0.374 -0.2301  0.3607 -1.2582
 5840SOL    HW223357   3.985  10.460   0.445 -0.5896  1.9929  0.0329
 5841SOL     OW23358   5.890   7.276   8.731  0.4562  0.4669 -0.4123
 5841SOL    HW123359   5.853   7.359   8.762  1.4597  1.1301 -0.9464
 5841SOL    HW223360   5.824   7.240   8.672 -0.9236 -0.1810  1.4432
 5842SOL     OW23361   6.043   4.697   8.628  0.2612 -0.0838  0.1712
 5842SOL    HW123362   6.071   4.691   8.719  1.8325  0.9530 -0.1911
 5842SOL    HW223363   6.046   4.791   8.609 -2.2847 -0.0407 -0.3226
 5843SOL     OW23364   6.427  10.070   3.734  0.2443  0.1917  0.2339
 5843SOL    HW123365   6.519  10.082   3.755 -0.1760  1.5305  1.4516
 5843SOL    HW223366   6.414   9.975   3.736  1.9313 -0.1434 -1.6276
 5844SOL     OW23367   2.990   4.956   4.121  0.0199 -0.1400  0.5476
 5844SOL    HW123368   2.975   4.936   4.214 -0.1823 -1.3393  0.2773
 5844SOL    HW223369   3.022   4.874   4.084 -0.3832  0.1782 -0.5458
 5845SOL     OW23370  10.486   9.557   6.545 -0.0946 -0.6011 -0.1290
 5845SOL    HW123371  10.426   9.617   6.589 -0.8470 -1.9058  0.6883
 5845SOL    HW223372  10.529   9.611   6.478 -2.3331  0.3372 -0.9085
 5846SOL     OW23373  10.489   7.387   8.115 -0.2712  0.3698  0.0673
 5846SOL    HW123374  10.518   7.296   8.111 -1.5453 -0.0188 -1.3118
 5846SOL    HW223375  10.490   7.409   8.208 -3.6042 -2.3177  0.9358
 5847SOL     OW23376   6.050   0.101   3.998  0.1156  0.6687  0.1273
 5847SOL    HW123377   6.050   0.018   3.950  0.6480  0.6552  0.1400
 5847SOL    HW223378   6.143   0.121   4.011 -0.0135  0.9108  0.7370
 5848SOL     OW23379   9.144   8.369   3.358 -0.2499 -0.6999  0.6547
 5848SOL    HW123380   9.223   8.383   3.410  0.4123  1.4717 -0.7595
 5848SOL    HW223381   9.147   8.277   3.334  1.9927 -0.6569  0.5294
 5849SOL     OW23382  10.178   6.715   1.389 -0.1808 -1.0464  0.0877
 5849SOL    HW123383  10.125   6.723   1.469 -0.7910 -0.2921 -0.3708
 5849SOL    HW223384  10.172   6.623   1.365 -2.4794 -0.7490 -0.7207
 5850SOL     OW23385   3.765   5.226   8.099  0.0532  0.1792 -0.5538
 5850SOL    HW123386   3.755   5.154   8.161  0.4846  0.1968 -0.4639
 5850SOL    HW223387   3.735   5.190   8.015 -1.5659  0.4722 -0.1468
 5851SOL     OW23388   0.563   8.793   1.098 -0.5726  0.4416  0.1191
 5851SOL    HW123389   0.598   8.733   1.032 -1.2353 -1.4368  1.3818
 5851SOL    HW223390   0.491   8.745   1.139 -0.4696  1.6939  1.9171
 5852SOL     OW23391   5.722   1.888   8.084 -0.7671 -0.2471  0.1341
 5852SOL    HW123392   5.717   1.793   8.079  1.9890 -0.4645  0.2138
 5852SOL    HW223393   5.747   1.906   8.175 -0.6853  0.5169 -0.0298
 5853SOL     OW23394   3.490   6.807   6.151  0.0301 -0.3535  0.3859
 5853SOL    HW123395   3.463   6.715   6.151  0.6943 -0.5524 -0.0330
 5853SOL    HW223396   3.409   6.855   6.165 -0.3988 -0.9813  0.1154
 5854SOL     OW23397   0.252   2.423   5.838  0.6833  0.1716  0.2510
 5854SOL    HW123398   0.243   2.510   5.799 -0.0065  0.4959  1.0806
 5854SOL    HW223399   0.344   2.416   5.861  0.9870  0.2008 -0.8791
 5855SOL     OW23400  10.444   9.194   7.082 -0.0894 -0.0938  0.1180
 5855SOL    HW123401  10.512   9.212   7.017  0.9890 -0.4150  1.1122
 5855SOL    HW223402  10.413   9.281   7.108  1.4837  0.2110  1.1858
 5856SOL     OW23403   1.009  10.156  10.646 -0.0119 -0.0293 -0.0608
 5856SOL    HW123404   1.005  10.247  10.614  1.3649 -0.2795 -1.0357
 5856SOL    HW223405   1.099  10.129  10.629 -0.5753 -1.8069 -0.3796
 5857SOL     OW23406   3.285   1.860   3.751  0.1740  0.9752  0.1380
 5857SOL    HW123407   3.334   1.930   3.708 -0.6142 -0.0166 -2.5913
 5857SOL    HW223408   3.351   1.797   3.777  0.6437  1.2916 -0.2647
 5858SOL     OW23409   0.665   7.651   3.032 -0.0629  0.1276 -0.1488
 5858SOL    HW123410   0.691   7.563   3.059  0.1463 -0.0026 -0.7738
 5858SOL    HW223411   0.600   7.637   2.963  0.6083  0.4587 -0.8580
 5859SOL     OW23412   0.388   1.026   1.662  0.3838  0.0544 -0.6149
 5859SOL    HW123413   0.379   0.992   1.751 -0.2962  0.8900 -0.3543
 5859SOL    HW223414   0.365   0.952   1.606 -0.4407 -0.1142 -0.0693
 5860SOL     OW23415   4.522   8.240   9.851 -0.2724  0.0621  0.3067
 5860SOL    HW123416   4.531   8.188   9.931 -1.2887 -1.1849 -0.3459
 5860SOL    HW223417   4.553   8.327   9.875  3.3192 -1.1937  1.0052
 5861SOL     OW23418   2.802   2.235   8.702  0.0492 -0.0491  0.2088
 5861SOL    HW123419   2.755   2.312   8.670 -0.5007 -0.6067 -0.3654
 5861SOL    HW223420   2.893   2.262   8.705  0.0695  0.1595 -1.4615
 5862SOL     OW23421   1.709   5.973   5.044  0.1230 -0.1970 -0.0704
 5862SOL    HW123422   1.739   5.889   5.077  2.7214  0.3584 -0.7352
 5862SOL    HW223423   1.638   5.951   4.983 -1.6296 -1.5469  2.2954
 5863SOL     OW23424   5.344   6.914   1.751  0.3409  0.6268 -0.4233
 5863SOL    HW123425   5.307   6.864   1.824  0.4945  1.5203  0.2819
 5863SOL    HW223426   5.277   6.912   1.684 -0.7430  1.6773  0.5917
 5864SOL     OW23427   5.673   1.516   9.847 -0.2386  0.0726  0.1525
 5864SOL    HW123428   5.756   1.508   9.800 -0.2298  0.1731  0.1494
 5864SOL    HW223429   5.606   1.512   9.778 -0.3479 -1.9895  0.3412
 5865SOL     OW23430   7.488   6.948   5.988 -0.6131  0.1936  0.3664
 5865SOL    HW123431   7.548   6.944   5.914 -0.1850 -0.5532  0.7355
 5865SOL    HW223432   7.401   6.958   5.948 -0.5248 -1.4480 -0.3182
 5866SOL     OW23433   4.057   3.964   0.283 -0.6542  0.3712  0.2534
 5866SOL    HW123434   4.123   3.900   0.257 -2.1734 -0.6800 -1.2044
 5866SOL    HW223435   4.031   3.936   0.371 -0.5450 -0.3699  0.0591
 5867SOL     OW23436  10.657   3.723   6.143  0.1643 -0.7334 -0.2337
 5867SOL    HW123437  10.601   3.725   6.066  1.1200  0.2279 -0.9457
 5867SOL    HW223438  10.600   3.748   6.216 -0.1453  1.3592 -1.1040
 5868SOL     OW23439   9.592   9.573   6.173  0.9680 -0.1079  0.2675
 5868SOL    HW123440   9.580   9.481   6.148 -0.7405  0.2079 -0.1846
 5868SOL    HW223441   9.515   9.593   6.226  0.7061  1.4247 -0.6615
 5869SOL     OW23442   2.902   0.312   2.755  0.2487 -0.4180 -0.1178
 5869SOL    HW123443   2.885   0.233   2.703 -1.3630 -0.0273 -0.2526
 5869SOL    HW223444   2.825   0.319   2.811  1.4303 -0.1905  1.5325
 5870SOL     OW23445   6.496  10.052   6.011 -0.1718  0.3537 -0.3306
 5870SOL    HW123446   6.403  10.053   6.032 -0.0427  2.0317  0.2728
 5870SOL    HW223447   6.537  10.105   6.079  0.9637  1.4763 -1.8186
 5871SOL     OW23448   4.393   9.782   7.727 -0.1762 -0.5145  0.3686
 5871SOL    HW123449   4.428   9.733   7.802 -0.4566  1.7494  2.0612
 5871SOL    HW223450   4.448   9.860   7.721 -3.0813  1.7791  1.3654
 5872SOL     OW23451   8.347   3.249   7.569 -0.7491  0.2494  0.3713
 5872SOL    HW123452   8.414   3.254   7.501 -0.8954  1.6654  0.2921
 5872SOL    HW223453   8.353   3.160   7.603  1.9861  0.6445  1.1879
 5873SOL     OW23454   2.941  10.124   0.321  0.0498  0.3538  0.4523
 5873SOL    HW123455   3.006  10.105   0.388 -0.3653  0.9238  1.0205
 5873SOL    HW223456   2.937  10.044   0.268 -0.2596 -0.4252  1.6338
 5874SOL     OW23457  10.256   3.605   0.945 -0.4288  0.5502 -0.0551
 5874SOL    HW123458  10.204   3.609   1.025  1.6717  0.5744  1.4037
 5874SOL    HW223459  10.224   3.678   0.892 -1.9673  0.4389  0.6764
 5875SOL     OW23460   5.860   7.774   9.049  0.3897  0.4048  0.3980
 5875SOL    HW123461   5.773   7.802   9.022  0.4513  2.5292  2.1444
 5875SOL    HW223462   5.849   7.682   9.075 -1.0962  0.3627 -0.2780
 5876SOL     OW23463   2.784  10.841   1.213 -0.0718 -0.6711  0.1410
 5876SOL    HW123464   2.849  10.865   1.278  0.6074  1.4070 -1.2024
 5876SOL    HW223465   2.835  10.821   1.134 -0.9650 -0.7912 -0.4254
 5877SOL     OW23466   5.676   1.641   4.116  0.4071 -0.5580  0.2661
 5877SOL    HW123467   5.619   1.568   4.139 -1.2857  1.6551  3.9068
 5877SOL    HW223468   5.635   1.679   4.038 -0.0160 -2.0625 -0.2789
 5878SOL     OW23469   2.245   8.926   9.761 -0.4729  0.1455 -0.0522
 5878SOL    HW123470   2.156   8.924   9.795 -1.3151  1.2477 -2.0415
 5878SOL    HW223471   2.260   9.017   9.738  1.9154  0.3607  1.9642
 5879SOL     OW23472   2.966   8.508   9.821  0.0061  0.4025 -0.2759
 5879SOL    HW123473   2.987   8.421   9.856 -0.3425 -1.0599 -3.3553
 5879SOL    HW223474   2.891   8.537   9.872  1.4935 -0.0319  2.3251
 5880SOL     OW23475   2.144  10.390   7.298 -0.2407 -0.0337  0.3156
 5880SOL    HW123476   2.091  10.468   7.282  0.2026  0.4635  1.1886
 5880SOL    HW223477   2.185  10.371   7.214 -0.4093  0.6380  0.0748
 5881SOL     OW23478   7.493   5.345   7.099 -0.3574  0.2908  0.2895
 5881SOL    HW123479   7.582   5.370   7.124 -0.3486  0.9093 -0.3492
 5881SOL    HW223480   7.437   5.408   7.145 -0.4132  0.5056 -0.0669
 5882SOL     OW23481   1.682   2.561   8.310  0.2287 -0.4131 -0.2006
 5882SOL    HW123482   1.607   2.577   8.253  2.5334  1.6625 -2.9696
 5882SOL    HW223483   1.658   2.484   8.361 -2.9604 -1.0266 -2.3505
 5883SOL     OW23484   3.332   5.473   4.633  0.3084  0.7317  0.3785
 5883SOL    HW123485   3.282   5.399   4.598  0.5528  1.6732 -2.2123
 5883SOL    HW223486   3.423   5.453   4.609  0.5368  1.3129  0.7340
 5884SOL     OW23487   1.882  10.470  10.182  0.0199 -0.0942  0.0066
 5884SOL    HW123488   1.787  10.476  10.177 -0.0253  0.2780  0.9835
 5884SOL    HW223489   1.901  10.468  10.276  1.1068  2.1569 -0.0856
 5885SOL     OW23490   3.743   3.026   2.391 -0.4276  0.0977 -0.3688
 5885SOL    HW123491   3.806   3.073   2.337  0.2715 -0.1700  0.2098
 5885SOL    HW223492   3.659   3.066   2.369 -0.2295 -0.3072 -1.9978
 5886SOL     OW23493   1.459   3.615   6.251 -0.2813 -0.3261 -0.1641
 5886SOL    HW123494   1.387   3.658   6.298 -1.0237 -1.3599 -0.3355
 5886SOL    HW223495   1.528   3.681   6.249 -0.4317 -0.0319  1.8831
 5887SOL     OW23496   5.302   7.412   5.212  0.5571  0.2108  0.0094
 5887SOL    HW123497   5.294   7.452   5.298 -0.2660  0.8776 -0.3570
 5887SOL    HW223498   5.294   7.318   5.228  0.7554  0.3094  0.6959
 5888SOL     OW23499   3.058  10.731  10.187  0.5943  0.0175  0.0606
 5888SOL    HW123500   3.067  10.638  10.208 -1.0628 -0.2432 -0.2565
 5888SOL    HW223501   3.031  10.733  10.095  0.6097  0.8127  0.0611
 5889SOL     OW23502   4.460   9.630   2.342  0.0453  0.0193  0.3556
 5889SOL    HW123503   4.548   9.607   2.313 -0.2578  0.5217 -1.0346
 5889SOL    HW223504   4.457   9.603   2.434  0.9932 -1.8203 -0.0933
 5890SOL     OW23505   5.367   8.462   2.253  0.2911 -0.5004  0.2341
 5890SOL    HW123506   5.357   8.534   2.315  1.4515  0.0509 -0.1815
 5890SOL    HW223507   5.322   8.388   2.294 -1.3739  0.5697  0.4285
 5891SOL     OW23508   7.432   4.886  10.723  0.1625 -0.4247 -0.1503
 5891SOL    HW123509   7.490   4.835  10.666  2.7591  0.4929  1.5009
 5891SOL    HW223510   7.378   4.936  10.662  2.2015 -0.1392 -1.8537
 5892SOL     OW23511   2.211   8.871   7.212 -0.2643 -0.0710 -0.1197
 5892SOL    HW123512   2.196   8.776   7.212  0.8835 -0.2988  1.4268
 5892SOL    HW223513   2.236   8.891   7.302 -0.7100  1.7621 -0.3594
 5893SOL     OW23514   2.872   1.210  10.380 -0.3968 -0.8302  0.1962
 5893SOL    HW123515   2.925   1.270  10.433 -1.1509 -0.9483  1.1034
 5893SOL    HW223516   2.783   1.222  10.411 -1.0441 -0.1263 -1.8047
 5894SOL     OW23517   3.678   1.139   0.487  0.9253  0.3377  0.0428
 5894SOL    HW123518   3.635   1.060   0.454  1.4546 -0.4513  1.1488
 5894SOL    HW223519   3.627   1.163   0.565  0.5153  1.3515 -0.5176
 5895SOL     OW23520   4.594   6.750   2.058  0.3382  0.3141  0.0172
 5895SOL    HW123521   4.531   6.707   2.000  1.7959  1.5228 -2.6502
 5895SOL    HW223522   4.679   6.737   2.015  1.3731  2.1603  1.3495
 5896SOL     OW23523   5.918   6.788   2.319  0.0011 -0.5574  0.3664
 5896SOL    HW123524   5.866   6.812   2.396 -1.2713  1.5064 -1.0250
 5896SOL    HW223525   5.994   6.846   2.322 -0.2538 -0.1907 -0.1157
 5897SOL     OW23526   0.951   0.324   9.614  0.1887  0.4447 -0.4955
 5897SOL    HW123527   0.934   0.418   9.608  0.7679  0.6031  0.2080
 5897SOL    HW223528   0.910   0.297   9.696 -0.1869  0.0340 -0.8146
 5898SOL     OW23529   5.173   8.105   9.594  0.4652 -0.1538 -0.0958
 5898SOL    HW123530   5.144   8.015   9.608 -0.6312  0.0093 -1.2058
 5898SOL    HW223531   5.231   8.100   9.518  0.6803  0.0322  0.0540
 5899SOL     OW23532   8.118   3.383   5.743  0.0199  0.3185 -0.3423
 5899SOL    HW123533   8.206   3.422   5.743  0.5490 -0.8302 -0.9496
 5899SOL    HW223534   8.132   3.292   5.766 -1.5092  1.0029  4.4416
 5900SOL     OW23535   0.215   0.556  10.346  0.0466 -0.3721  0.3039
 5900SOL    HW123536   0.305   0.572  10.317 -0.1054 -1.0305 -0.5626
 5900SOL    HW223537   0.169   0.638  10.327 -0.0697 -0.8079 -1.4360
 5901SOL     OW23538   9.076   8.100   5.052  0.2536 -0.1711  0.2614
 5901SOL    HW123539   9.004   8.158   5.075  1.1284  1.1242 -0.1682
 5901SOL    HW223540   9.036   8.035   4.994 -0.5782  0.4760  0.0857
 5902SOL     OW23541   3.513   6.548   5.311  0.0556  0.6343 -0.0151
 5902SOL    HW123542   3.422   6.575   5.322 -0.4485 -1.4796  1.7630
 5902SOL    HW223543   3.556   6.576   5.391  0.8478  1.0453 -0.5672
 5903SOL     OW23544   4.911   7.196  10.151  0.0485 -0.5640  0.1923
 5903SOL    HW123545   4.843   7.205  10.217  0.1231 -0.6106  0.2751
 5903SOL    HW223546   4.990   7.176  10.200  0.1005 -0.6182  0.0878
 5904SOL     OW23547   5.594   9.360   9.882  0.5966 -0.3630  0.1510
 5904SOL    HW123548   5.562   9.299   9.815  2.7636 -0.7184 -0.6398
 5904SOL    HW223549   5.517   9.378   9.937 -1.0388 -0.7526 -1.8857
 5905SOL     OW23550   6.483   5.130  10.739  0.4250  0.0740  0.2328
 5905SOL    HW123551   6.426   5.054  10.727 -1.7868  1.7393 -0.4362
 5905SOL    HW223552   6.560   5.111  10.686 -0.2273 -1.5741 -0.1779
 5906SOL     OW23553   0.480   1.396   3.770  0.5870  0.3582 -0.1536
 5906SOL    HW123554   0.563   1.444   3.759 -0.2054  1.9715  0.5663
 5906SOL    HW223555   0.492   1.317   3.717  2.0078  1.2916 -1.3391
 5907SOL     OW23556   6.897  10.011   6.994  0.3921 -0.4298  0.0886
 5907SOL    HW123557   6.861  10.052   6.916  0.1942  1.4929  1.0975
 5907SOL    HW223558   6.992  10.018   6.983  0.3678 -0.3138 -0.0493
 5908SOL     OW23559   9.140   2.152   9.372 -0.0239  0.4640  0.2994
 5908SOL    HW123560   9.186   2.072   9.394 -1.7798 -1.2599 -1.7896
 5908SOL    HW223561   9.209   2.215   9.351  1.4409 -1.6012 -1.5113
 5909SOL     OW23562   4.441   2.564   7.538 -0.3348 -0.1714 -0.0689
 5909SOL    HW123563   4.428   2.508   7.462  0.3046 -0.1676 -0.1880
 5909SOL    HW223564   4.507   2.627   7.510  0.4413 -0.6178  0.7251
 5910SOL     OW23565   5.420   2.257   6.540 -0.3019  0.2279  0.5816
 5910SOL    HW123566   5.380   2.188   6.594 -0.4815 -0.3034 -0.2163
 5910SOL    HW223567   5.361   2.332   6.550 -0.5360  0.0165  0.8230
 5911SOL     OW23568   4.886   0.186   4.544  0.0255 -0.4668  0.0993
 5911SOL    HW123569   4.832   0.225   4.613  0.3756 -0.1061  0.1766
 5911SOL    HW223570   4.831   0.190   4.465  0.5201  1.4486 -0.2098
 5912SOL     OW23571   9.142   0.841   4.038 -0.2614 -0.3828 -0.2498
 5912SOL    HW123572   9.143   0.910   3.972  0.6621  0.1299  0.2942
 5912SOL    HW223573   9.084   0.774   4.000 -0.1068  0.0907 -1.3774
 5913SOL     OW23574   8.477   2.085   9.002 -0.2667  0.5203 -0.5668
 5913SOL    HW123575   8.406   2.145   9.026  0.3635  0.8204  0.6692
 5913SOL    HW223576   8.556   2.130   9.032  0.2596 -0.7107 -0.0588
 5914SOL     OW23577   2.810   2.206  10.295 -0.1671 -0.6805  0.4680
 5914SOL    HW123578   2.890   2.256  10.310 -0.0199 -0.5069 -0.7598
 5914SOL    HW223579   2.840   2.126  10.252 -0.5949 -0.9196  0.6100
 5915SOL     OW23580   9.564   3.349   1.172 -0.1070 -0.3270  0.3399
 5915SOL    HW123581   9.643   3.297   1.186  0.7349  0.9995  0.6873
 5915SOL    HW223582   9.539   3.331   1.081 -0.0139 -1.5516  0.5413
 5916SOL     OW23583   3.720   8.654   5.373  0.5966  0.8614 -0.1812
 5916SOL    HW123584   3.748   8.563   5.383 -1.7312  0.1478  0.2703
 5916SOL    HW223585   3.745   8.676   5.283  1.0856 -0.2620 -0.3435
 5917SOL     OW23586   0.574   1.948   7.032  0.8162 -0.4178 -0.2124
 5917SOL    HW123587   0.518   1.985   7.100 -0.6980 -0.2170 -1.4908
 5917SOL    HW223588   0.636   2.017   7.011  0.3749  0.0422 -0.0161
 5918SOL     OW23589   1.298  10.128  10.636  0.0115  0.0651  0.3754
 5918SOL    HW123590   1.344  10.161  10.713  0.3299 -0.4941  0.4324
 5918SOL    HW223591   1.329  10.038  10.626 -0.0074  0.1382 -0.4234
 5919SOL     OW23592   1.973   3.926   6.108  0.2417  0.4759  0.1079
 5919SOL    HW123593   2.027   3.972   6.044  0.2129 -2.2768 -2.1096
 5919SOL    HW223594   1.883   3.936   6.077  0.2483 -1.0886 -0.5173
 5920SOL     OW23595   6.354   7.912   7.370  0.2225 -0.1076  0.4505
 5920SOL    HW123596   6.340   7.973   7.297  0.1016 -0.9823 -0.2735
 5920SOL    HW223597   6.285   7.933   7.433  0.4721  0.8169  0.4321
 5921SOL     OW23598  10.061   1.971   8.915  0.1203  0.2120 -0.3936
 5921SOL    HW123599   9.993   1.916   8.877 -0.5766  1.0373 -0.3744
 5921SOL    HW223600  10.108   1.914   8.976  0.5911 -0.8454 -1.6973
 5922SOL     OW23601   4.675   1.587   4.202 -0.2002 -0.2254 -0.9087
 5922SOL    HW123602   4.672   1.639   4.121 -0.7513  2.0098  0.4397
 5922SOL    HW223603   4.596   1.533   4.199 -1.3711  1.4060 -0.9370
 5923SOL     OW23604   6.567   0.608  10.222  0.6146 -0.0503  0.0480
 5923SOL    HW123605   6.630   0.593  10.151  0.8407  0.6755  0.0833
 5923SOL    HW223606   6.554   0.703  10.222  0.1475 -0.1106  0.5842
 5924SOL     OW23607   1.323   0.908   0.923  0.3482 -0.2071 -0.3085
 5924SOL    HW123608   1.372   0.870   0.996  0.8632  0.0801 -0.5023
 5924SOL    HW223609   1.267   0.836   0.892  0.0110 -0.2860  0.4626
 5925SOL     OW23610   4.915  10.344   5.749 -0.1331 -0.1342 -0.0158
 5925SOL    HW123611   4.937  10.283   5.820  3.2489 -1.7038 -2.1348
 5925SOL    HW223612   4.925  10.292   5.669 -1.5389  2.1306 -1.7776
 5926SOL     OW23613   6.814   6.712   1.648 -0.2918  0.4411  0.2440
 5926SOL    HW123614   6.727   6.727   1.686 -0.8748  0.8855 -1.1994
 5926SOL    HW223615   6.813   6.619   1.623 -0.6665  0.6422 -0.5102
 5927SOL     OW23616   9.996   3.227   4.421 -0.9195  0.4820 -0.2465
 5927SOL    HW123617  10.026   3.253   4.334 -4.0268  0.4139 -1.4883
 5927SOL    HW223618  10.001   3.132   4.421  0.6787  0.5490  0.3337
 5928SOL     OW23619  10.149   2.510   0.124  0.3724  0.7960  0.0514
 5928SOL    HW123620  10.240   2.496   0.098  0.2690  0.4013 -0.0971
 5928SOL    HW223621  10.105   2.428   0.103 -0.7495  2.0678 -3.0504
 5929SOL     OW23622  10.885   4.265   1.978 -0.1039  0.0748 -0.3191
 5929SOL    HW123623  10.871   4.316   2.058 -0.4511  1.6394 -1.3314
 5929SOL    HW223624  10.880   4.173   2.007 -1.7089  0.5778  1.2092
 5930SOL     OW23625   1.279  10.577   5.714  0.0057  0.0340  0.1245
 5930SOL    HW123626   1.325  10.656   5.740  2.1170 -1.2869  0.6704
 5930SOL    HW223627   1.241  10.543   5.795 -0.5885  0.2960 -0.0429
 5931SOL     OW23628   3.611   1.481   3.950  0.4419 -0.1852 -0.5300
 5931SOL    HW123629   3.702   1.454   3.934  0.1353 -0.5239 -1.7586
 5931SOL    HW223630   3.576   1.414   4.008  0.9547 -0.0852 -0.0935
 5932SOL     OW23631   4.264   8.871   8.619  0.4245 -0.7915  0.1683
 5932SOL    HW123632   4.193   8.810   8.602  0.8291 -0.9589 -1.0148
 5932SOL    HW223633   4.342   8.829   8.582  0.9596 -0.1784  0.5682
 5933SOL     OW23634   8.293   9.795   4.634  0.6688 -0.2311  0.7181
 5933SOL    HW123635   8.341   9.862   4.584  0.0088 -0.6357 -0.5033
 5933SOL    HW223636   8.315   9.813   4.725  0.9224  1.3348  0.3796
 5934SOL     OW23637   0.894   7.551   3.284  0.4247  0.2171  0.7634
 5934SOL    HW123638   0.850   7.472   3.314 -0.1642  0.8177  1.5255
 5934SOL    HW223639   0.972   7.519   3.239 -0.6132 -0.8681 -0.3732
 5935SOL     OW23640   6.014   5.791   9.184 -0.7448  0.1501 -0.3220
 5935SOL    HW123641   6.006   5.706   9.141  1.5459 -0.9304  1.1895
 5935SOL    HW223642   5.960   5.783   9.263  0.3096 -0.3039  0.3604
 5936SOL     OW23643   5.800   6.090   0.644  0.3928 -0.4839  0.6333
 5936SOL    HW123644   5.821   6.161   0.704  0.5501  0.3452 -0.3744
 5936SOL    HW223645   5.736   6.036   0.692  1.4001 -0.5316  1.9828
 5937SOL     OW23646   6.492   3.994   5.880 -0.0087  0.1716 -0.4406
 5937SOL    HW123647   6.543   4.074   5.890  1.6162 -0.7276 -1.2409
 5937SOL    HW223648   6.438   4.011   5.803  0.1451  0.5837 -0.4636
 5938SOL     OW23649   1.894   2.018   1.756 -0.1922 -0.5559 -0.5316
 5938SOL    HW123650   1.959   1.991   1.691  1.3766  2.6854 -0.5074
 5938SOL    HW223651   1.812   2.026   1.707  0.8767  1.4159 -2.1283
 5939SOL     OW23652   3.772   3.045   7.988 -0.0110 -0.1846  0.6269
 5939SOL    HW123653   3.806   3.097   8.060 -0.4124  1.1113 -0.0944
 5939SOL    HW223654   3.845   3.038   7.926  0.2960 -1.1925  1.0814
 5940SOL     OW23655   0.672   4.626   0.492 -0.5621  0.3339 -0.4691
 5940SOL    HW123656   0.698   4.643   0.583  1.1222 -0.7073 -0.7112
 5940SOL    HW223657   0.671   4.531   0.485 -2.5287  0.3547 -1.0837
 5941SOL     OW23658   5.540   0.811   3.819 -0.0075 -0.3257  0.5829
 5941SOL    HW123659   5.504   0.844   3.737 -0.7477  0.0839  1.0535
 5941SOL    HW223660   5.514   0.718   3.821  1.1045 -0.6813 -0.2143
 5942SOL     OW23661  10.857   3.217   7.545  0.3822  0.1625 -0.0282
 5942SOL    HW123662  10.947   3.186   7.533  0.6289 -0.0494  1.9290
 5942SOL    HW223663  10.816   3.206   7.460  1.8704 -0.9048 -0.6561
 5943SOL     OW23664   2.501   5.447   9.234 -0.1931 -0.2478  0.0589
 5943SOL    HW123665   2.417   5.447   9.188  0.6385 -1.8408 -1.5348
 5943SOL    HW223666   2.502   5.365   9.283  0.5775 -0.4154 -0.2222
 5944SOL     OW23667   7.401  10.088   5.063 -0.5814 -0.3827  0.4198
 5944SOL    HW123668   7.322  10.057   5.107 -0.6360 -0.6414  0.1472
 5944SOL    HW223669   7.419  10.021   4.997 -1.6456  0.9358 -1.3382
 5945SOL     OW23670   3.814   4.770   5.708  0.1065  0.0515 -0.1504
 5945SOL    HW123671   3.835   4.708   5.638  0.6254 -1.4222  1.2551
 5945SOL    HW223672   3.739   4.819   5.675  0.5336 -0.3809 -1.8516
 5946SOL     OW23673   3.399  10.293   8.954 -0.0077 -0.7065  0.2124
 5946SOL    HW123674   3.392  10.354   9.027  0.6984 -0.6278  0.2205
 5946SOL    HW223675   3.369  10.343   8.878 -4.7810 -1.9482  0.9471
 5947SOL     OW23676   2.010  10.810   7.597 -0.1746 -0.2491  0.6881
 5947SOL    HW123677   1.919  10.837   7.611 -0.2933 -1.5536  2.9823
 5947SOL    HW223678   2.018  10.728   7.645  1.6704 -1.3177 -1.2913
 5948SOL     OW23679   8.053   6.880   5.658 -0.0664  0.0462  0.4820
 5948SOL    HW123680   8.001   6.804   5.686  0.7066 -0.3156  0.9708
 5948SOL    HW223681   8.129   6.879   5.715  2.4729 -1.7244 -2.6442
 5949SOL     OW23682   5.846   3.499   7.541  0.5404  0.0056 -0.2144
 5949SOL    HW123683   5.771   3.466   7.491 -0.1543 -1.6597  1.7649
 5949SOL    HW223684   5.916   3.507   7.476 -0.8616  0.0163 -1.8161
 5950SOL     OW23685   5.963   5.555   6.426 -0.3384 -0.5328  0.3377
 5950SOL    HW123686   5.922   5.572   6.511 -0.7398  0.0261  0.0345
 5950SOL    HW223687   5.994   5.640   6.396 -1.1775 -0.5285 -0.5735
 5951SOL     OW23688   3.534   7.359   1.211  0.0916 -0.2376  0.0944
 5951SOL    HW123689   3.456   7.303   1.218 -0.5724  0.7714  1.2239
 5951SOL    HW223690   3.602   7.309   1.256 -0.9869  0.6088  2.9158
 5952SOL     OW23691   0.082   2.538   7.123 -0.2275  0.1156  0.1542
 5952SOL    HW123692   0.070   2.562   7.031 -1.2822  3.5420  1.0341
 5952SOL    HW223693   0.032   2.457   7.134 -1.6152  0.6313 -1.8643
 5953SOL     OW23694   4.377   6.205   3.755  0.3910  0.2299 -0.2596
 5953SOL    HW123695   4.354   6.297   3.767  0.7102  0.6497 -2.4464
 5953SOL    HW223696   4.470   6.206   3.734  0.5207 -0.6513  0.2320
 5954SOL     OW23697   0.971  10.380   3.803 -0.0224  0.2701 -0.1255
 5954SOL    HW123698   1.019  10.399   3.883  1.5755  0.7680 -1.1443
 5954SOL    HW223699   0.978  10.285   3.792  0.9237  0.3540 -0.3481
 5955SOL     OW23700   3.176   9.829   2.033  0.0529 -0.1499  0.0397
 5955SOL    HW123701   3.109   9.779   2.079  0.8667  0.8182  2.4407
 5955SOL    HW223702   3.254   9.773   2.037  0.1108 -0.0872 -0.2269
 5956SOL     OW23703   2.975   9.912   1.839 -0.3183  0.5028  0.2601
 5956SOL    HW123704   3.048   9.886   1.895  0.2316 -2.4898 -1.5893
 5956SOL    HW223705   2.899   9.913   1.898  0.8940  1.9773  1.8743
 5957SOL     OW23706   8.799   4.889   0.937 -0.5755 -0.0063 -0.0286
 5957SOL    HW123707   8.724   4.837   0.968  0.0482  0.2450  2.0872
 5957SOL    HW223708   8.773   4.980   0.954  0.4076  0.0499  1.2650
 5958SOL     OW23709   0.392   8.207   1.544 -0.1693  0.5239 -0.4020
 5958SOL    HW123710   0.408   8.302   1.539 -0.9165  0.6028 -1.7790
 5958SOL    HW223711   0.406   8.176   1.455 -0.5752 -0.5588 -0.0988
 5959SOL     OW23712   8.975   8.319   6.608  0.3250 -0.1788  0.1843
 5959SOL    HW123713   8.995   8.411   6.592 -2.0973  0.2007 -1.1650
 5959SOL    HW223714   8.885   8.320   6.642 -0.2367 -2.1170 -1.1190
 5960SOL     OW23715   5.175   4.009   6.839  0.2135  0.5396  0.5238
 5960SOL    HW123716   5.260   4.047   6.862 -0.3307  1.9645  0.2838
 5960SOL    HW223717   5.185   3.981   6.748  0.4695  0.5609  0.5441
 5961SOL     OW23718   1.968   8.927   9.247 -0.5034  0.3563  0.1019
 5961SOL    HW123719   1.893   8.967   9.291 -0.7126  2.4245 -1.9578
 5961SOL    HW223720   2.041   8.938   9.308 -1.1627  1.4151  0.7208
 5962SOL     OW23721   8.602  10.576   9.727 -0.0165  0.0784 -1.0485
 5962SOL    HW123722   8.614  10.508   9.661 -0.0559  0.7805 -1.7947
 5962SOL    HW223723   8.517  10.556   9.767  1.0354 -1.6951  0.4194
 5963SOL     OW23724   2.889   6.058   5.784  0.2550 -0.4958  0.0943
 5963SOL    HW123725   2.966   6.100   5.745 -0.9655  1.5211 -0.2470
 5963SOL    HW223726   2.841   6.129   5.825 -0.6162 -1.9707  1.7673
 5964SOL     OW23727   9.529   9.951   3.335 -0.0899 -0.1884  0.2050
 5964SOL    HW123728   9.618   9.969   3.307 -0.3259  0.4761 -0.1456
 5964SOL    HW223729   9.474  10.000   3.274 -0.6649  0.0935  0.9257
 5965SOL     OW23730   5.044   2.666   7.041  0.1167 -0.2759 -0.0172
 5965SOL    HW123731   5.081   2.582   7.069 -0.4814 -0.5340  0.0039
 5965SOL    HW223732   5.031   2.657   6.947 -1.4516 -0.8090  0.2201
 5966SOL     OW23733   5.386   7.708   5.362  0.2320 -0.3190  0.2487
 5966SOL    HW123734   5.301   7.722   5.321 -1.5252 -3.4281  2.3929
 5966SOL    HW223735   5.388   7.770   5.434 -0.4734 -0.5756  0.4986
 5967SOL     OW23736   0.979   9.137   5.786 -0.1107  0.2333 -0.0035
 5967SOL    HW123737   1.001   9.159   5.696  3.2324  0.9929  0.8372
 5967SOL    HW223738   0.971   9.221   5.831  2.2743 -0.0390  1.1173
 5968SOL     OW23739   5.696   8.288   0.372  0.0323 -0.1155  0.0540
 5968SOL    HW123740   5.734   8.366   0.330 -1.8379  0.2023 -1.1659
 5968SOL    HW223741   5.691   8.311   0.465  1.2568  0.4632 -0.0016
 5969SOL     OW23742   4.639   9.276   1.768 -0.0491 -0.4083 -0.1960
 5969SOL    HW123743   4.586   9.348   1.735  1.3120  0.2134 -1.1425
 5969SOL    HW223744   4.591   9.197   1.742 -1.0453  0.1290 -0.0445
 5970SOL     OW23745   0.119   6.458   3.984 -0.4517 -0.4316 -0.0114
 5970SOL    HW123746   0.127   6.483   4.076  1.0625 -2.1887  0.4054
 5970SOL    HW223747   0.084   6.535   3.940  2.1212  1.7128  1.4284
 5971SOL     OW23748  10.115  10.838   5.911 -0.0517 -0.2506 -0.6285
 5971SOL    HW123749  10.125  10.760   5.857  1.1564 -0.5139 -0.0552
 5971SOL    HW223750  10.204  10.871   5.923 -0.3315  0.0545  0.8195
 5972SOL     OW23751   2.914   8.616   3.495 -0.3383  0.2147  0.0021
 5972SOL    HW123752   2.854   8.551   3.459  2.4698 -1.6788 -1.6529
 5972SOL    HW223753   2.986   8.565   3.531  1.9927  2.3460 -1.3343
 5973SOL     OW23754  10.505   1.474   0.136  0.0898  0.6293 -0.0938
 5973SOL    HW123755  10.527   1.551   0.082  0.6660  1.0012  0.6552
 5973SOL    HW223756  10.433   1.503   0.192  0.9194  0.9326  0.8422
 5974SOL     OW23757   7.984   7.344   8.888  0.6459  0.3774 -0.1934
 5974SOL    HW123758   8.039   7.316   8.961  0.8393  1.2975  0.0285
 5974SOL    HW223759   8.026   7.425   8.856 -0.1694  0.6954 -0.4806
 5975SOL     OW23760   6.537   4.282   5.127  0.3162 -0.4753  0.2542
 5975SOL    HW123761   6.515   4.228   5.052 -2.0564  2.1871 -1.1966
 5975SOL    HW223762   6.577   4.360   5.090 -3.3690  2.1622  1.2080
 5976SOL     OW23763   1.931  10.294   1.906 -0.0843  0.5134 -0.2247
 5976SOL    HW123764   1.923  10.201   1.885 -0.7734  0.4135  0.4557
 5976SOL    HW223765   2.023  10.304   1.932 -0.1796 -0.1364  0.4169
 5977SOL     OW23766   5.450   6.750   9.279  0.1404  0.0387 -0.1281
 5977SOL    HW123767   5.474   6.658   9.293  1.4704  0.2463 -0.8656
 5977SOL    HW223768   5.514   6.782   9.215 -1.3376  1.0203 -1.1924
 5978SOL     OW23769  10.648   4.998   2.428 -0.0374 -0.6293 -0.3678
 5978SOL    HW123770  10.640   4.905   2.407 -1.4053 -0.5661 -0.2124
 5978SOL    HW223771  10.607   5.043   2.354  1.7431 -0.0632 -1.0657
 5979SOL     OW23772   6.084   7.028   9.157 -0.5426 -0.9526 -0.2512
 5979SOL    HW123773   6.099   7.084   9.233  0.6986 -1.4408 -0.1132
 5979SOL    HW223774   6.170   7.019   9.116 -0.3408 -4.0286  0.6450
 5980SOL     OW23775   0.886  10.795   1.269  0.0831  0.6582 -0.0523
 5980SOL    HW123776   0.870  10.838   1.186  0.8429  1.6404  0.2996
 5980SOL    HW223777   0.885  10.866   1.334 -2.5769 -0.2774  1.1129
 5981SOL     OW23778  10.125   0.901   1.808  0.0380 -0.0784  0.4748
 5981SOL    HW123779  10.049   0.960   1.810  0.2206  0.1397  1.7293
 5981SOL    HW223780  10.126   0.861   1.895  1.9197  0.6408  0.8375
 5982SOL     OW23781   2.298   4.025  10.439  0.3900 -0.0306  0.1663
 5982SOL    HW123782   2.279   4.117  10.421  1.9933  0.2512 -0.2630
 5982SOL    HW223783   2.374   4.027  10.497  0.5095 -1.0829  0.0784
 5983SOL     OW23784   7.559   4.411   7.368 -0.0806  0.0741 -0.3593
 5983SOL    HW123785   7.473   4.417   7.327  0.6062 -1.1985 -2.1232
 5983SOL    HW223786   7.616   4.462   7.310  0.3620  0.9553  0.8208
 5984SOL     OW23787   6.817   9.040   6.472 -0.2663  0.0722 -0.3752
 5984SOL    HW123788   6.806   9.012   6.381  1.5424 -1.6641 -0.1335
 5984SOL    HW223789   6.788   8.965   6.524  0.9713  0.1000  0.4079
 5985SOL     OW23790   2.021   8.607   3.158 -0.6818  0.7021  0.0087
 5985SOL    HW123791   2.000   8.519   3.127  1.8279  0.4900 -1.4147
 5985SOL    HW223792   2.016   8.602   3.253 -1.2226 -0.7999 -0.0835
 5986SOL     OW23793  10.165   3.232   5.882  0.0095  0.3824  0.8151
 5986SOL    HW123794  10.255   3.234   5.915 -0.0999  0.9445  1.0915
 5986SOL    HW223795  10.165   3.294   5.809 -0.1628  0.4113  0.8404
 5987SOL     OW23796   3.508   6.196   4.884 -0.1970  0.2665 -0.0893
 5987SOL    HW123797   3.508   6.266   4.820 -1.5963  0.4726  0.0916
 5987SOL    HW223798   3.523   6.239   4.968 -1.0836  0.3895  0.0250
 5988SOL     OW23799   0.445   9.971   5.404 -0.0375 -0.1706 -0.1141
 5988SOL    HW123800   0.514  10.032   5.426  0.0152 -0.9908  2.3057
 5988SOL    HW223801   0.394   9.962   5.485 -2.0348 -0.7959 -1.3618
 5989SOL     OW23802   7.038   7.117   8.632 -0.2474 -0.3168  0.7247
 5989SOL    HW123803   6.969   7.143   8.571 -0.5816 -0.5877  0.9805
 5989SOL    HW223804   7.062   7.198   8.677  2.5573  0.7027 -2.2218
 5990SOL     OW23805  10.560   2.144   7.019 -0.2005 -0.0869 -0.4074
 5990SOL    HW123806  10.577   2.217   6.959  0.7706 -1.1139 -1.4305
 5990SOL    HW223807  10.469   2.121   7.005 -0.0393 -0.1732 -1.3513
 5991SOL     OW23808   6.124   0.846   6.505 -0.1674  0.0447  0.2992
 5991SOL    HW123809   6.143   0.837   6.411  1.7047  1.6734  0.4380
 5991SOL    HW223810   6.119   0.757   6.537  1.5606 -0.5629 -0.9570
 5992SOL     OW23811   9.960   1.255   8.600  0.4782  0.2817 -0.1215
 5992SOL    HW123812   9.938   1.277   8.691  2.5347  1.6436  0.1143
 5992SOL    HW223813   9.990   1.164   8.605  0.3966  0.2806  0.5251
 5993SOL     OW23814   5.761   2.639   1.478 -0.0350 -0.1134  0.2442
 5993SOL    HW123815   5.694   2.650   1.410  0.4395 -1.2929 -0.4502
 5993SOL    HW223816   5.717   2.664   1.559 -0.9128  0.3858 -0.3664
 5994SOL     OW23817   3.051   7.341   9.816  0.3703 -0.1596 -0.2148
 5994SOL    HW123818   3.140   7.373   9.802  1.0153 -0.7296  2.1488
 5994SOL    HW223819   3.063   7.253   9.851 -1.0213  0.4137  1.8700
 5995SOL     OW23820   7.544   8.004   3.145 -0.1203 -0.0309  0.1336
 5995SOL    HW123821   7.598   7.933   3.182  1.1809 -0.3052 -2.1226
 5995SOL    HW223822   7.461   7.962   3.123  0.5483 -0.8215 -0.9536
 5996SOL     OW23823   4.200   1.182   8.889 -0.5475 -0.1062 -0.1389
 5996SOL    HW123824   4.214   1.124   8.964 -2.1007 -0.1005  0.1997
 5996SOL    HW223825   4.212   1.126   8.813 -0.9871 -0.6323  0.1704
 5997SOL     OW23826   2.711   5.263   4.717 -0.4061 -0.2022  0.3780
 5997SOL    HW123827   2.727   5.329   4.650 -1.7391 -0.6614 -0.4397
 5997SOL    HW223828   2.638   5.297   4.768  1.7383  1.0110  2.8591
 5998SOL     OW23829   7.490  10.699   6.116  0.6154 -0.3608  0.2863
 5998SOL    HW123830   7.443  10.615   6.116 -0.3461  0.1208 -1.7013
 5998SOL    HW223831   7.428  10.760   6.156 -0.7065  0.3117 -2.4949
 5999SOL     OW23832   6.185  10.684   8.383  0.2485 -0.7050 -0.2212
 5999SOL    HW123833   6.235  10.614   8.424  0.3289 -0.4909  0.0490
 5999SOL    HW223834   6.192  10.668   8.289  1.6892 -0.0877 -0.2411
 6000SOL     OW23835   8.434   1.696   8.624  0.3973  0.1552  0.2317
 6000SOL    HW123836   8.510   1.654   8.663 -0.1665 -0.4526  0.7033
 6000SOL    HW223837   8.448   1.789   8.637  1.8110  0.1783 -1.0854
 6001SOL     OW23838   4.976   9.350   7.061  0.1172  0.1222 -0.4658
 6001SOL    HW123839   4.943   9.439   7.074  0.4272  0.2166 -0.3089
 6001SOL    HW223840   5.066   9.354   7.093  0.4553  0.0083 -1.3806
 6002SOL     OW23841   0.583   6.309   5.750  0.1509  0.0910 -1.0727
 6002SOL    HW123842   0.544   6.376   5.694  0.5975  0.6246 -0.7525
 6002SOL    HW223843   0.509   6.258   5.781 -0.1962  0.4319 -1.3289
 6003SOL     OW23844   1.425   6.683   9.520  0.0756 -0.1347  0.1175
 6003SOL    HW123845   1.395   6.715   9.435 -0.8593  0.4217  0.6431
 6003SOL    HW223846   1.397   6.592   9.522 -1.8768  0.4515  0.7098
 6004SOL     OW23847   6.810   7.080   7.965  0.5160 -0.0023 -0.2477
 6004SOL    HW123848   6.732   7.083   8.021  0.5425 -2.4657  0.0398
 6004SOL    HW223849   6.799   7.154   7.905 -1.7804  0.0471  0.1390
 6005SOL     OW23850   7.318   5.851   2.636  0.6643  0.3269  0.6975
 6005SOL    HW123851   7.244   5.791   2.623  0.1826  1.0694 -0.1643
 6005SOL    HW223852   7.395   5.796   2.631  0.2178 -0.2749  0.2677
 6006SOL     OW23853   7.013   7.813   8.697 -0.6753  0.3948  0.1493
 6006SOL    HW123854   6.955   7.815   8.621  1.0206 -0.6451 -1.2405
 6006SOL    HW223855   7.002   7.725   8.734  2.6666 -1.3069 -2.4182
 6007SOL     OW23856   5.576   0.913   8.086  0.1054 -0.1544 -0.2195
 6007SOL    HW123857   5.599   0.958   8.168  0.4664  1.7693 -1.3014
 6007SOL    HW223858   5.660   0.882   8.052  0.7094  3.0675 -2.0310
 6008SOL     OW23859   3.610   8.638   1.409  0.1055 -0.4531 -0.3632
 6008SOL    HW123860   3.574   8.571   1.467 -3.2288  1.8295  0.5680
 6008SOL    HW223861   3.626   8.713   1.467  0.7834  0.5484 -1.7866
 6009SOL     OW23862   7.644  10.563   5.074 -0.0788 -0.1332 -0.2662
 6009SOL    HW123863   7.596  10.495   5.026  0.0143 -0.3614 -0.0393
 6009SOL    HW223864   7.661  10.524   5.160 -0.5697  0.4179  0.0820
 6010SOL     OW23865   2.140  10.077   6.893  0.0619 -0.1960 -0.1322
 6010SOL    HW123866   2.235  10.071   6.889  0.0343 -3.9136  1.1326
 6010SOL    HW223867   2.122  10.171   6.888  3.8068  0.7263  0.5211
 6011SOL     OW23868   8.543   1.907   4.705  0.1314 -0.0525  0.5087
 6011SOL    HW123869   8.459   1.911   4.752  0.1833 -0.2747  0.6249
 6011SOL    HW223870   8.548   1.816   4.675  0.8999 -0.3722  1.5519
 6012SOL     OW23871   1.777   2.476   2.945  0.0502 -0.0691  0.3385
 6012SOL    HW123872   1.778   2.546   2.880  1.6782  0.6782  1.0995
 6012SOL    HW223873   1.685   2.466   2.969 -0.2476  1.6305  0.0200
 6013SOL     OW23874   9.776   8.638   9.392 -0.0633 -0.4677  0.5070
 6013SOL    HW123875   9.822   8.718   9.419 -1.1383  0.6296 -0.7737
 6013SOL    HW223876   9.844   8.583   9.354  0.7761 -0.3832  1.7901
 6014SOL     OW23877   9.929   0.610   7.832  0.6301  0.2288  0.1876
 6014SOL    HW123878   9.972   0.572   7.909 -0.4079 -1.4352 -0.0081
 6014SOL    HW223879   9.909   0.700   7.857  0.2615 -0.2999  1.8785
 6015SOL     OW23880   3.619   6.995   4.378  0.1688 -0.0516  0.2412
 6015SOL    HW123881   3.690   7.049   4.344 -0.3458  0.9055  0.6621
 6015SOL    HW223882   3.589   7.041   4.456  0.2429 -1.3609  1.0868
 6016SOL     OW23883   0.108   2.835   2.751  0.2292  0.0824 -0.5322
 6016SOL    HW123884   0.172   2.881   2.806  0.4109 -0.2090 -0.4944
 6016SOL    HW223885   0.035   2.895   2.743  0.9696  0.8849 -1.4862
 6017SOL     OW23886   8.018   0.361   7.642 -0.2465 -0.4615 -0.1451
 6017SOL    HW123887   8.103   0.392   7.674  0.0163  0.7347 -1.8073
 6017SOL    HW223888   7.969   0.338   7.721  1.3980 -0.6130  0.8867
 6018SOL     OW23889   1.714   5.241   7.888 -0.3976 -0.3020  0.3514
 6018SOL    HW123890   1.761   5.187   7.823  0.9272  0.9898  0.1887
 6018SOL    HW223891   1.733   5.199   7.972 -0.0724 -0.5541  0.1555
 6019SOL     OW23892   2.510   6.796   2.766 -0.3980 -0.2081 -0.4925
 6019SOL    HW123893   2.605   6.809   2.769 -0.6045  1.3523  1.4742
 6019SOL    HW223894   2.495   6.717   2.818 -0.1955 -0.3140 -0.5931
 6020SOL     OW23895   7.569   6.293   1.073  0.0927  0.1296 -0.6867
 6020SOL    HW123896   7.521   6.376   1.072  0.3338  0.3879  1.8694
 6020SOL    HW223897   7.516   6.235   1.127  1.8967  0.0139  1.1104
 6021SOL     OW23898   6.018   7.021   2.919 -0.1433 -0.8515  0.2139
 6021SOL    HW123899   6.091   6.960   2.919  0.6433  0.0530 -0.6131
 6021SOL    HW223900   6.050   7.098   2.966 -0.6434 -0.5507  0.0736
 6022SOL     OW23901   4.628  10.109   1.578  0.0975  0.2718  0.0236
 6022SOL    HW123902   4.545  10.082   1.619  0.4443  1.2756  1.4597
 6022SOL    HW223903   4.693  10.097   1.647  0.8625  1.1172 -0.5405
 6023SOL     OW23904  10.916  10.794   9.098 -0.1733  0.0998  0.0201
 6023SOL    HW123905  10.877  10.790   9.185 -0.3044  0.0265 -0.0397
 6023SOL    HW223906  10.989  10.732   9.101 -1.2850 -1.2992 -0.4532
 6024SOL     OW23907  10.153  10.829  10.854 -0.4098  0.0394 -0.4426
 6024SOL    HW123908  10.190  10.914  10.830 -1.3716  0.4656 -0.4634
 6024SOL    HW223909  10.107  10.799  10.776  1.2814 -1.3030 -0.9897
 6025SOL     OW23910   8.155   9.536   6.671  0.7619 -0.2478  0.4923
 6025SOL    HW123911   8.117   9.515   6.585  1.3669 -0.1494  0.1964
 6025SOL    HW223912   8.139   9.457   6.723 -0.6748  0.1351  0.6762
 6026SOL     OW23913   5.808   0.853   7.973  0.0276  0.3471 -0.0381
 6026SOL    HW123914   5.812   0.899   7.890 -1.1411 -0.2634 -0.4553
 6026SOL    HW223915   5.895   0.814   7.983  0.1445  0.3248 -1.0365
 6027SOL     OW23916   1.889   1.650   9.643 -0.0923  0.0167 -0.1384
 6027SOL    HW123917   1.980   1.637   9.616  0.2423  0.4194  0.7518
 6027SOL    HW223918   1.875   1.586   9.713 -1.3051 -1.8253 -1.9357
 6028SOL     OW23919   5.708   4.293   6.434 -0.2110  0.2400 -0.1840
 6028SOL    HW123920   5.625   4.255   6.404  0.6555 -0.7812 -1.3924
 6028SOL    HW223921   5.682   4.365   6.491 -1.9413  0.4723 -1.1902
 6029SOL     OW23922   0.427   2.218   6.185 -0.0787 -0.0247  0.1067
 6029SOL    HW123923   0.411   2.196   6.277  0.4869  0.2177  0.2688
 6029SOL    HW223924   0.472   2.303   6.188 -0.8725  0.4331 -0.4337
 6030SOL     OW23925   8.184   5.936   9.457  0.4142 -0.2955  0.0791
 6030SOL    HW123926   8.168   5.841   9.457 -1.6084  0.0011  0.6975
 6030SOL    HW223927   8.165   5.964   9.546  0.3520  0.7919 -0.2602
 6031SOL     OW23928   2.743   6.716   8.927  0.0359 -0.0118 -0.1360
 6031SOL    HW123929   2.675   6.652   8.907  0.7157 -0.7152 -0.2443
 6031SOL    HW223930   2.740   6.777   8.853 -0.2217 -0.2658 -0.3404
 6032SOL     OW23931  10.790   4.899   9.482  0.4046  0.0438 -0.4843
 6032SOL    HW123932  10.734   4.868   9.411 -1.0050 -0.5831  0.8406
 6032SOL    HW223933  10.734   4.960   9.531  0.9781 -0.3480  0.6835
 6033SOL     OW23934   5.913   5.661   1.460 -0.1940 -0.0122  0.0265
 6033SOL    HW123935   5.942   5.751   1.446 -0.2427 -0.1710 -1.2016
 6033SOL    HW223936   5.865   5.639   1.380 -1.3883 -0.6649  0.8967
 6034SOL     OW23937   6.360   2.021   1.421  0.0294 -0.6288 -0.4682
 6034SOL    HW123938   6.290   2.067   1.466  0.1893 -0.0954 -0.7645
 6034SOL    HW223939   6.439   2.070   1.444  0.6259 -2.3559  1.4999
 6035SOL     OW23940   5.950   7.262   4.327  0.3695 -0.1769  0.1827
 6035SOL    HW123941   5.954   7.289   4.235 -0.6959  0.2788  0.2440
 6035SOL    HW223942   5.860   7.283   4.353 -0.5036 -3.6312  0.3265
 6036SOL     OW23943   6.538   2.017   7.327  0.1053 -0.0257  0.4290
 6036SOL    HW123944   6.509   2.106   7.348  0.1184  0.4542 -1.4401
 6036SOL    HW223945   6.625   2.010   7.365  0.2689  0.9080  0.2388
 6037SOL     OW23946   9.129   5.294   8.056  0.3390 -0.0418 -0.4809
 6037SOL    HW123947   9.131   5.349   8.134  1.6454 -1.2522  0.3861
 6037SOL    HW223948   9.111   5.206   8.089 -1.9911 -0.1601 -1.8598
 6038SOL     OW23949   1.546   7.667   5.687 -0.5272  0.0792  0.2131
 6038SOL    HW123950   1.514   7.583   5.720  1.7089 -0.7262  0.4974
 6038SOL    HW223951   1.500   7.732   5.739 -2.7609 -0.8998 -0.4194
 6039SOL     OW23952   0.350   5.377   6.186  0.1201 -0.1596  1.2280
 6039SOL    HW123953   0.437   5.360   6.223  2.2000  0.3596 -2.8796
 6039SOL    HW223954   0.350   5.330   6.102 -3.6595 -0.1662  1.0700
 6040SOL     OW23955  10.773  10.323   5.041 -0.0681 -0.0834  0.3361
 6040SOL    HW123956  10.738  10.265   4.974  0.2551 -0.6125  0.6180
 6040SOL    HW223957  10.862  10.343   5.012 -0.6533  1.4988 -0.5339
 6041SOL     OW23958   5.201   0.553   8.169  0.6429  0.3024 -0.0994
 6041SOL    HW123959   5.292   0.578   8.186  0.8933 -0.6471  0.0185
 6041SOL    HW223960   5.208   0.474   8.115 -0.1225  0.8183 -0.9782
 6042SOL     OW23961   5.504   8.585   2.830 -0.1004 -0.1395 -0.0837
 6042SOL    HW123962   5.551   8.614   2.908 -1.3996 -0.1327  0.7250
 6042SOL    HW223963   5.534   8.644   2.761  0.5829  0.2696  0.5445
 6043SOL     OW23964   9.480   2.278   0.775  0.5803 -0.0537  0.3465
 6043SOL    HW123965   9.517   2.339   0.710  1.4453  1.3179  2.0529
 6043SOL    HW223966   9.465   2.332   0.853  1.5061 -2.0554  1.9865
 6044SOL     OW23967   3.774   6.367   4.104 -0.1437 -0.2077  0.4402
 6044SOL    HW123968   3.722   6.397   4.179  0.0007 -1.6634  1.1504
 6044SOL    HW223969   3.850   6.425   4.103 -2.3824  3.0046 -1.5456
 6045SOL     OW23970   8.167   8.703   9.883 -0.1900  0.5286 -0.1547
 6045SOL    HW123971   8.243   8.707   9.825  0.6504 -0.6978  0.8112
 6045SOL    HW223972   8.200   8.661   9.962 -1.8709  0.0130  0.3094
 6046SOL     OW23973   3.653   4.401   9.063  0.2785 -0.1761 -0.2878
 6046SOL    HW123974   3.693   4.327   9.108  0.1741  0.2509  0.5232
 6046SOL    HW223975   3.622   4.365   8.980  1.8136 -0.6428 -0.6880
 6047SOL     OW23976   9.755   9.331   7.905  0.4136 -0.3874  0.1436
 6047SOL    HW123977   9.693   9.393   7.868 -0.5752 -1.0835  0.5639
 6047SOL    HW223978   9.707   9.248   7.908  0.8986 -0.6598  1.6882
 6048SOL     OW23979  10.715   5.836   2.810 -0.9346  0.1571 -0.4140
 6048SOL    HW123980  10.730   5.757   2.862 -1.3183  0.1091 -0.3749
 6048SOL    HW223981  10.708   5.907   2.874 -1.9960  0.0129 -0.3440
 6049SOL     OW23982   7.106   5.218   3.295 -0.0607  0.1309  0.6718
 6049SOL    HW123983   7.128   5.220   3.388  0.3702  1.0204  0.5523
 6049SOL    HW223984   7.148   5.138   3.262  1.1164  0.6274  0.9166
 6050SOL     OW23985   9.039   1.605   2.182 -0.0199 -0.0451  0.2516
 6050SOL    HW123986   9.093   1.585   2.106  1.2395  1.4136  0.7107
 6050SOL    HW223987   8.953   1.567   2.162  0.4771 -0.2667 -1.5881
 6051SOL     OW23988   7.114   3.538   9.825 -0.2306 -0.3949 -0.0382
 6051SOL    HW123989   7.150   3.485   9.754  2.8394  0.7242  0.5211
 6051SOL    HW223990   7.063   3.606   9.782 -0.0490 -0.8906 -1.0482
 6052SOL     OW23991   6.078   5.190   8.473  0.7062 -0.5803  0.2175
 6052SOL    HW123992   6.166   5.217   8.448  0.2284  0.5396 -0.3410
 6052SOL    HW223993   6.036   5.271   8.502 -0.3721 -0.9683 -0.2160
 6053SOL     OW23994   7.498   8.599   8.365 -0.0765  0.2864  0.2652
 6053SOL    HW123995   7.435   8.527   8.356 -0.5199  0.5810  0.9617
 6053SOL    HW223996   7.445   8.674   8.390  0.2649  1.0888 -1.2783
 6054SOL     OW23997   8.578   3.718   8.000  0.2593 -0.3859  0.3149
 6054SOL    HW123998   8.553   3.641   8.051  0.3124 -1.8239 -1.7105
 6054SOL    HW223999   8.670   3.702   7.977  0.0262 -0.1198 -0.8223
 6055SOL     OW24000   0.574   2.728   1.045 -0.1571  0.3318 -0.1486
 6055SOL    HW124001   0.553   2.667   1.115 -3.8751 -0.0242 -1.3375
 6055SOL    HW224002   0.581   2.813   1.088 -0.5382 -0.1468  0.8883
 6056SOL     OW24003  10.832   8.919   9.756  0.3459  0.3615 -0.6274
 6056SOL    HW124004  10.848   8.846   9.816 -0.9430 -0.3951 -1.1706
 6056SOL    HW224005  10.917   8.931   9.712  0.2808 -1.7069 -1.4654
 6057SOL     OW24006  10.294   6.429   9.023  0.3982 -0.3684  0.0090
 6057SOL    HW124007  10.300   6.429   9.119 -1.0075 -0.5693  0.1194
 6057SOL    HW224008  10.325   6.515   8.997  0.5866 -0.2329  0.6699
 6058SOL     OW24009   2.377   7.681   2.699 -0.0885  0.1750  0.0006
 6058SOL    HW124010   2.294   7.684   2.651  1.0028  0.9572 -1.9227
 6058SOL    HW224011   2.397   7.772   2.719  0.4916  0.0274  0.1186
 6059SOL     OW24012   1.101   9.863   6.182  0.7219 -0.3293 -0.3205
 6059SOL    HW124013   1.046   9.917   6.239  1.5675 -0.1890  0.3796
 6059SOL    HW224014   1.043   9.837   6.111 -0.4977 -0.8995  0.8376
 6060SOL     OW24015   3.165   9.127   3.490  0.4873 -1.0284 -0.2763
 6060SOL    HW124016   3.089   9.112   3.434 -0.2944  1.0834  0.1278
 6060SOL    HW224017   3.128   9.133   3.578  0.7135  2.2692 -0.2988
 6061SOL     OW24018  10.787   1.142   7.212  0.0888  1.0010  0.7522
 6061SOL    HW124019  10.823   1.053   7.209  0.8404  1.2977  0.8032
 6061SOL    HW224020  10.814   1.181   7.130 -1.1093  0.8721  0.2682
 6062SOL     OW24021  10.513   1.305   8.499 -0.3508  0.1499  0.4681
 6062SOL    HW124022  10.516   1.282   8.406 -0.6628  3.0579 -0.3559
 6062SOL    HW224023  10.603   1.332   8.520 -0.4599  0.2543  0.8080
 6063SOL     OW24024   9.986   9.675  10.699  0.5259  0.2174  0.6349
 6063SOL    HW124025  10.040   9.600  10.675 -0.9504 -0.4480 -0.8086
 6063SOL    HW224026   9.989   9.732  10.622 -1.1812 -0.0820  0.2930
 6064SOL     OW24027   1.420   9.078  10.353 -0.4092 -0.1091  0.4828
 6064SOL    HW124028   1.495   9.136  10.345 -0.1221 -0.3796  1.1738
 6064SOL    HW224029   1.410   9.040  10.265 -0.1017  0.3602  0.2405
 6065SOL     OW24030   2.319   3.651   8.252  0.1321  0.6567  0.0029
 6065SOL    HW124031   2.331   3.669   8.159 -1.2267  1.1925 -0.1051
 6065SOL    HW224032   2.285   3.733   8.287  1.2480  0.6591  1.1130
 6066SOL     OW24033   5.516   4.784   9.906 -0.4482 -0.8263 -0.0731
 6066SOL    HW124034   5.573   4.794   9.982  1.6967  0.5305 -1.7460
 6066SOL    HW224035   5.480   4.871   9.890  0.3145 -0.7191 -1.4236
 6067SOL     OW24036   0.312   9.276  10.241 -0.0982 -0.2868 -0.1239
 6067SOL    HW124037   0.250   9.340  10.277  0.1426 -0.8612  1.3903
 6067SOL    HW224038   0.284   9.192  10.277 -0.2705 -1.0417 -1.8939
 6068SOL     OW24039   7.875   4.637   8.308  0.0594  0.3295  0.0053
 6068SOL    HW124040   7.840   4.697   8.243  1.4075  0.6552 -0.4643
 6068SOL    HW224041   7.970   4.642   8.295  0.2116 -2.0646 -0.2073
 6069SOL     OW24042   3.968   4.675  10.132  0.1861  0.5569 -0.3326
 6069SOL    HW124043   3.934   4.588  10.153  0.3987  0.1839 -1.4130
 6069SOL    HW224044   4.044   4.685  10.189  0.7886 -0.4314 -0.9284
 6070SOL     OW24045   4.382   4.652   9.270 -0.8147 -0.0247 -0.0203
 6070SOL    HW124046   4.365   4.646   9.176  2.3595 -1.0378 -0.6380
 6070SOL    HW224047   4.461   4.706   9.277  0.4234 -1.8914  1.8104
 6071SOL     OW24048   5.126   2.065   8.171  0.1070 -0.7115 -0.2375
 6071SOL    HW124049   5.055   2.020   8.126 -1.2781  0.2891  0.8588
 6071SOL    HW224050   5.157   2.002   8.236  0.8828 -1.4783 -1.3004
 6072SOL     OW24051   2.284   9.534   8.102  0.5245  0.1065 -0.0295
 6072SOL    HW124052   2.274   9.515   8.009 -0.5605  2.8956 -0.5664
 6072SOL    HW224053   2.378   9.527   8.119  1.0216  1.6455 -1.8724
 6073SOL     OW24054   0.266   4.426   3.551 -0.0876  0.0539  0.2694
 6073SOL    HW124055   0.200   4.479   3.507 -0.1422 -0.2986 -0.0723
 6073SOL    HW224056   0.350   4.460   3.519 -0.1305 -0.3475 -0.2826
 6074SOL     OW24057   6.908   4.772   1.300  0.3213 -0.8746 -0.3920
 6074SOL    HW124058   6.856   4.712   1.353  0.6481 -1.4096 -0.6668
 6074SOL    HW224059   6.916   4.851   1.354 -2.8967  0.2351 -1.3632
 6075SOL     OW24060   0.491   1.425   5.753 -0.1455 -0.3926  0.1855
 6075SOL    HW124061   0.468   1.508   5.711  2.4398  0.4774  0.3299
 6075SOL    HW224062   0.417   1.367   5.733 -1.9414  1.8475 -0.0969
 6076SOL     OW24063   6.561   3.471   1.559  0.1243  0.4622 -0.4640
 6076SOL    HW124064   6.508   3.546   1.530 -1.2621 -1.0450 -2.1070
 6076SOL    HW224065   6.592   3.431   1.478  2.4432  0.3006  0.4359
 6077SOL     OW24066   9.726   1.648   9.566  0.6579  0.0261  0.8010
 6077SOL    HW124067   9.738   1.562   9.606 -1.0629  0.3338  2.0842
 6077SOL    HW224068   9.777   1.644   9.484  2.3060 -1.4636  1.8266
 6078SOL     OW24069   9.637   3.866   4.478 -0.3328 -0.2436 -0.1351
 6078SOL    HW124070   9.675   3.869   4.390  0.1960 -1.0238  0.0536
 6078SOL    HW224071   9.689   3.800   4.524  1.5782  2.3666  1.7896
 6079SOL     OW24072   8.800   2.947   4.711  0.3174 -0.6042 -0.4975
 6079SOL    HW124073   8.853   3.022   4.682  1.0056 -0.1771  1.6931
 6079SOL    HW224074   8.731   2.985   4.764 -0.1772 -1.4260 -0.5394
 6080SOL     OW24075   1.777   7.804   9.273  0.4407  0.7509 -0.5498
 6080SOL    HW124076   1.783   7.846   9.359  0.6992  0.5983 -0.4924
 6080SOL    HW224077   1.854   7.836   9.225  0.0043  1.2805 -0.9257
 6081SOL     OW24078   7.724   2.633   9.658 -0.4265 -0.1309 -0.0185
 6081SOL    HW124079   7.708   2.573   9.731 -0.4743  0.7661  0.7154
 6081SOL    HW224080   7.746   2.716   9.699 -1.0288  0.5470 -1.0337
 6082SOL     OW24081   0.382  10.781   8.642 -0.6729  0.1435  0.4513
 6082SOL    HW124082   0.357  10.788   8.549 -1.1010 -0.2118  0.5374
 6082SOL    HW224083   0.312  10.730   8.682 -0.2134 -0.1763  0.8649
 6083SOL     OW24084   1.336   1.216   7.363  0.7010  0.5801 -0.7697
 6083SOL    HW124085   1.247   1.194   7.335  0.6919 -1.6498  0.7260
 6083SOL    HW224086   1.392   1.191   7.290  0.2392  0.2761 -1.0224
 6084SOL     OW24087   0.841   0.485   0.846  0.1062 -0.3342 -0.2095
 6084SOL    HW124088   0.855   0.469   0.753 -1.0540 -1.0527 -0.2846
 6084SOL    HW224089   0.844   0.580   0.855  1.0034 -0.2853 -0.8309
 6085SOL     OW24090   3.795   1.586   1.839 -0.0235  0.3845 -0.5042
 6085SOL    HW124091   3.738   1.519   1.802  2.2278 -1.8864 -0.1578
 6085SOL    HW224092   3.776   1.584   1.933 -1.8340  2.2388 -0.7579
 6086SOL     OW24093  10.756   3.577   2.102 -0.3498 -0.2137 -0.2317
 6086SOL    HW124094  10.768   3.591   2.008  0.2579 -0.4089 -0.1859
 6086SOL    HW224095  10.756   3.482   2.112 -1.6363 -0.2270 -0.1801
 6087SOL     OW24096   3.282   6.920  10.055 -0.1977  0.4792  0.1213
 6087SOL    HW124097   3.336   6.938   9.978  1.2504 -1.0030  0.7251
 6087SOL    HW224098   3.299   6.828  10.075 -1.1140  0.6324  1.7827
 6088SOL     OW24099   6.669  10.806   4.502 -0.4188 -0.5277 -0.6130
 6088SOL    HW124100   6.622  10.736   4.546 -0.7988  0.3061  0.3459
 6088SOL    HW224101   6.695  10.769   4.417 -0.3745 -1.8970 -0.0142
 6089SOL     OW24102   9.146   8.560   0.195  0.7588  0.0216 -0.1616
 6089SOL    HW124103   9.103   8.536   0.277 -1.2738  0.2283 -1.0992
 6089SOL    HW224104   9.139   8.656   0.192  2.1306  0.1432  0.0785
 6090SOL     OW24105   4.502  10.497   3.203 -0.3014  0.0578  0.2877
 6090SOL    HW124106   4.449  10.557   3.150 -2.6031 -2.8342 -0.9729
 6090SOL    HW224107   4.447  10.477   3.279 -0.2194 -1.4673 -0.0215
 6091SOL     OW24108   2.382   9.107   4.316  0.0224 -1.0179  0.4178
 6091SOL    HW124109   2.467   9.140   4.347 -0.2241  0.0472  0.0047
 6091SOL    HW224110   2.345   9.063   4.392  1.2557 -2.1636  0.3947
 6092SOL     OW24111   4.463   1.324   7.846 -0.2277  0.2112  0.0773
 6092SOL    HW124112   4.376   1.361   7.834 -0.5688 -0.8796 -1.0080
 6092SOL    HW224113   4.512   1.392   7.894 -1.4936  1.0608  0.2084
 6093SOL     OW24114   4.654   9.491   1.381  0.0258  0.1721 -0.4739
 6093SOL    HW124115   4.639   9.409   1.428 -0.1651 -1.0736 -2.5564
 6093SOL    HW224116   4.575   9.503   1.328  0.0390  1.7326 -0.1885
 6094SOL     OW24117   4.673   4.014   2.206 -0.2286 -0.5553 -0.2233
 6094SOL    HW124118   4.685   4.002   2.112 -1.4996 -0.4748 -0.4171
 6094SOL    HW224119   4.578   4.021   2.217 -0.1438 -1.1640  1.1347
 6095SOL     OW24120   6.032   0.145   9.812 -0.2569  0.1447  0.5374
 6095SOL    HW124121   6.096   0.076   9.795  0.3173  0.0368  2.8433
 6095SOL    HW224122   6.082   0.215   9.852 -0.7404  2.1981 -2.1873
 6096SOL     OW24123   4.405   2.884   8.196  0.1797  0.4440 -0.5397
 6096SOL    HW124124   4.426   2.913   8.108  0.7216 -2.2228 -1.3609
 6096SOL    HW224125   4.368   2.796   8.185 -1.2219  0.6436  1.7794
 6097SOL     OW24126   6.539   7.201   8.654 -0.4682 -0.4311  0.0165
 6097SOL    HW124127   6.493   7.191   8.570  0.6493 -1.8715 -0.4677
 6097SOL    HW224128   6.585   7.284   8.646 -0.0847 -0.7211 -0.9564
 6098SOL     OW24129   9.456  10.255   5.552 -0.1922 -0.2531  0.1930
 6098SOL    HW124130   9.435  10.349   5.548 -0.2068 -0.2909 -1.3848
 6098SOL    HW224131   9.545  10.249   5.517 -0.8153 -0.9747 -1.3817
 6099SOL     OW24132   1.447   3.809  10.621  0.4161  0.0790 -0.2131
 6099SOL    HW124133   1.432   3.766  10.537  2.3858 -0.7705 -0.2010
 6099SOL    HW224134   1.415   3.747  10.686 -0.8475  0.6144 -0.2994
 6100SOL     OW24135  10.409   4.160   7.683 -0.1150 -0.2870 -0.2777
 6100SOL    HW124136  10.465   4.237   7.694  0.2238 -0.3937 -1.1802
 6100SOL    HW224137  10.355   4.181   7.607 -0.6438 -0.5837  0.0131
 6101SOL     OW24138   4.682   8.864   2.580  0.7776  0.5762  0.0006
 6101SOL    HW124139   4.614   8.898   2.638  1.5085 -0.0727  1.2739
 6101SOL    HW224140   4.634   8.813   2.514  0.0534 -0.3450  1.2057
 6102SOL     OW24141  10.193  10.803   8.395  0.5276 -0.2474 -0.2734
 6102SOL    HW124142  10.249  10.865   8.442 -0.9369  1.4960 -0.7226
 6102SOL    HW224143  10.162  10.743   8.463 -0.4902  1.4248  0.8250
 6103SOL     OW24144   6.112   3.200   5.350 -0.6976  0.2298  0.6498
 6103SOL    HW124145   6.029   3.208   5.397 -0.7420  0.6971  0.4955
 6103SOL    HW224146   6.090   3.214   5.258 -0.7178 -1.3266  0.3874
 6104SOL     OW24147   6.905   4.569   4.852  0.1720  0.0872  0.1696
 6104SOL    HW124148   7.001   4.567   4.850  0.1598 -0.4745 -0.0617
 6104SOL    HW224149   6.881   4.643   4.797  0.4280 -1.1337 -1.6720
 6105SOL     OW24150   8.430  10.916  10.231  0.5759  0.0939  0.5125
 6105SOL    HW124151   8.494  10.960  10.175 -0.5939  0.2027 -0.8083
 6105SOL    HW224152   8.391  10.849  10.174  1.0252 -1.4273  1.9409
 6106SOL     OW24153   0.871   3.732   6.423  0.5742 -0.2059  0.3644
 6106SOL    HW124154   0.803   3.666   6.415  0.4896  0.0645 -1.3101
 6106SOL    HW224155   0.940   3.689   6.475 -0.1342 -1.0488  0.6296
 6107SOL     OW24156   2.891   7.617   2.369  0.5409  0.6192  0.3856
 6107SOL    HW124157   2.909   7.591   2.278  1.1082 -0.1419  0.7126
 6107SOL    HW224158   2.893   7.535   2.418 -2.3165  0.6398  0.7052
 6108SOL     OW24159   0.248   9.135   3.995  0.3729 -0.2851  0.3376
 6108SOL    HW124160   0.169   9.188   3.983  1.7004  1.8094  0.3131
 6108SOL    HW224161   0.254   9.081   3.917 -0.7958 -0.1501  0.1477
 6109SOL     OW24162   2.714   4.574   5.111 -0.4842 -0.1581  0.2179
 6109SOL    HW124163   2.624   4.544   5.115 -0.3394 -0.9561 -1.5539
 6109SOL    HW224164   2.708   4.667   5.091 -0.8923  0.4007  2.5808
 6110SOL     OW24165   5.282   4.687   4.399  0.1533 -0.1728  0.2865
 6110SOL    HW124166   5.319   4.613   4.447 -0.1204 -1.2505 -1.0779
 6110SOL    HW224167   5.208   4.649   4.351  1.0075  0.5931 -1.7398
 6111SOL     OW24168   3.914   9.478   0.672  0.2297  0.1139 -0.8417
 6111SOL    HW124169   4.000   9.506   0.705  0.0935 -1.4420  0.9901
 6111SOL    HW224170   3.930   9.453   0.581  1.7808 -0.3365 -0.4758
 6112SOL     OW24171   6.682   2.348   8.901 -0.5450 -0.1772 -0.5536
 6112SOL    HW124172   6.603   2.399   8.917  0.9746  2.2199 -0.1176
 6112SOL    HW224173   6.709   2.318   8.988 -0.5187 -0.2220 -0.5775
 6113SOL     OW24174   2.678   6.856   3.934  0.4363  0.3183  0.1168
 6113SOL    HW124175   2.724   6.780   3.968  0.1622  0.6548  1.2938
 6113SOL    HW224176   2.623   6.822   3.864  1.6989 -0.2459 -0.6389
 6114SOL     OW24177   0.330   1.268   5.560 -0.0411  0.3955 -0.3574
 6114SOL    HW124178   0.385   1.202   5.518 -0.7721 -0.6310  0.2362
 6114SOL    HW224179   0.355   1.351   5.519  0.5607 -0.3141 -1.4682
 6115SOL     OW24180   0.747   8.581   9.168  0.0653  0.3589  0.4999
 6115SOL    HW124181   0.731   8.499   9.216 -0.7367  0.5499  0.5733
 6115SOL    HW224182   0.688   8.577   9.093  0.3841  0.6471  0.2329
 6116SOL     OW24183   7.728   6.998   8.078  0.3658  0.3569 -0.1102
 6116SOL    HW124184   7.763   6.921   8.034  0.7169  0.1583  0.5080
 6116SOL    HW224185   7.646   6.967   8.118  0.2070  0.4576 -0.3546
 6117SOL     OW24186   2.497   7.996   7.822  0.1469  0.1348 -0.2962
 6117SOL    HW124187   2.471   7.922   7.877  1.3069 -0.7002 -0.8197
 6117SOL    HW224188   2.473   7.968   7.733 -0.7920  1.0444 -0.3460
 6118SOL     OW24189   3.461   0.516   8.318 -0.0092  0.5425 -0.1627
 6118SOL    HW124190   3.518   0.534   8.392  0.6764 -0.1849 -0.5122
 6118SOL    HW224191   3.446   0.422   8.320 -1.3341  0.7280  0.0118
 6119SOL     OW24192   8.740   5.069  10.311 -0.2797 -0.3558 -0.1992
 6119SOL    HW124193   8.673   5.054  10.378 -0.4534 -1.2347 -0.5410
 6119SOL    HW224194   8.715   5.009  10.240  0.7904 -0.5944 -0.3902
 6120SOL     OW24195   5.183   6.235   7.437 -0.1904  0.0392  0.2219
 6120SOL    HW124196   5.106   6.178   7.435  0.4008 -0.7575 -0.7675
 6120SOL    HW224197   5.166   6.301   7.370 -0.1835  0.0981  0.2775
 6121SOL     OW24198   1.887   5.164   8.086 -0.0849  0.4916  0.7518
 6121SOL    HW124199   1.953   5.221   8.126 -0.9675  0.6380  2.1024
 6121SOL    HW224200   1.913   5.076   8.112 -0.2501  0.5272  1.0496
 6122SOL     OW24201   8.292   4.901   6.880  0.0133 -0.1252 -0.5764
 6122SOL    HW124202   8.217   4.866   6.928  0.7338 -3.3967 -1.6303
 6122SOL    HW224203   8.366   4.889   6.939  0.1455  0.6920 -0.5550
 6123SOL     OW24204   7.170   6.953   6.561  0.1168  0.3571  0.2997
 6123SOL    HW124205   7.248   6.956   6.616  0.4501  1.3636 -0.2112
 6123SOL    HW224206   7.195   6.998   6.480 -0.0194 -2.0110 -1.1516
 6124SOL     OW24207   9.630  10.493   4.906  0.2723 -0.2549 -0.3910
 6124SOL    HW124208   9.688  10.430   4.863  1.1297  0.4346 -0.2484
 6124SOL    HW224209   9.604  10.449   4.987 -0.5864 -1.1611 -1.1117
 6125SOL     OW24210   6.192   2.806   2.554  0.3664 -0.1027 -0.0060
 6125SOL    HW124211   6.210   2.738   2.619  0.1400  0.4925  0.6861
 6125SOL    HW224212   6.097   2.802   2.542  0.4589 -0.5347 -0.6727
 6126SOL     OW24213   7.754   5.963   0.477 -0.6844 -0.1661 -0.0436
 6126SOL    HW124214   7.790   5.874   0.471  2.9861  1.1371 -0.1831
 6126SOL    HW224215   7.751   5.995   0.387 -1.4254  0.0697  0.0555
 6127SOL     OW24216   6.825   1.091   3.488 -0.4109  0.0516  0.0665
 6127SOL    HW124217   6.881   1.135   3.424 -1.3643 -1.3800 -1.8585
 6127SOL    HW224218   6.855   1.001   3.489 -1.6813 -0.3907  0.1601
 6128SOL     OW24219   7.380   2.472  10.555  0.5645  0.1128  1.3112
 6128SOL    HW124220   7.367   2.504  10.644  1.6990 -2.0777  2.3643
 6128SOL    HW224221   7.402   2.379  10.567  0.7917 -0.2224 -1.2638
 6129SOL     OW24222   8.931   1.223   1.958  0.2481  0.2054  0.0997
 6129SOL    HW124223   8.944   1.199   1.866  0.3644 -0.6062  0.3178
 6129SOL    HW224224   8.977   1.155   2.007 -0.9831 -0.1569  0.7839
 6130SOL     OW24225   4.901   5.417   4.538  0.7468  0.1648 -0.6922
 6130SOL    HW124226   4.854   5.487   4.584  2.8084  0.6600  0.8131
 6130SOL    HW224227   4.936   5.460   4.460 -0.5471 -0.0016 -1.3862
 6131SOL     OW24228   8.299   4.503   7.106  0.3892  0.7000  0.6138
 6131SOL    HW124229   8.284   4.410   7.119  0.1312  0.9141  1.9727
 6131SOL    HW224230   8.228   4.546   7.154  0.8647  1.5994  0.5355
 6132SOL     OW24231   6.283   2.475   5.460  0.0813  0.2539 -0.1609
 6132SOL    HW124232   6.246   2.397   5.502 -0.8987  1.0636  0.5119
 6132SOL    HW224233   6.377   2.460   5.462 -0.0929 -0.9678 -0.1479
 6133SOL     OW24234   6.259   6.571   8.070  0.2780  0.1495 -0.0691
 6133SOL    HW124235   6.192   6.579   8.002  1.4628 -1.3742 -1.5092
 6133SOL    HW224236   6.228   6.626   8.141 -1.4994  1.0599 -1.4689
 6134SOL     OW24237   6.528   8.838   5.883  0.1523  0.4575  0.0873
 6134SOL    HW124238   6.514   8.862   5.791  0.3511 -0.6384 -0.2365
 6134SOL    HW224239   6.624   8.838   5.893  0.2158 -1.3641 -0.2540
 6135SOL     OW24240   5.016   7.006   3.164 -0.3451  0.4739  0.3329
 6135SOL    HW124241   5.002   7.074   3.097  0.7122  2.1153  1.7099
 6135SOL    HW224242   4.927   6.976   3.186 -0.8131  1.1770 -0.5283
 6136SOL     OW24243   4.563   4.233  10.431 -0.5580 -0.4780  0.3912
 6136SOL    HW124244   4.593   4.169  10.365  1.1425  0.1196  0.5413
 6136SOL    HW224245   4.620   4.309  10.419 -1.6210  0.4806  1.1643
 6137SOL     OW24246   6.530   2.935  10.620 -0.0508  0.0597  0.2917
 6137SOL    HW124247   6.545   3.028  10.636  1.0852  0.2867 -1.7658
 6137SOL    HW224248   6.450   2.932  10.567  0.0033 -0.1336  0.2206
 6138SOL     OW24249   9.107   6.413  10.600 -0.2640  0.3672 -0.1895
 6138SOL    HW124250   9.113   6.412  10.696 -0.1569  0.4649 -0.1947
 6138SOL    HW224251   9.068   6.329  10.577  0.8366 -0.1808 -0.1380
 6139SOL     OW24252   1.118   7.891   2.799 -0.1714 -0.1414 -0.0656
 6139SOL    HW124253   1.182   7.827   2.769 -0.7908 -0.9415  0.2798
 6139SOL    HW224254   1.170   7.968   2.824  0.5179 -0.2550 -1.1186
 6140SOL     OW24255   5.577   6.397  10.808 -0.2001  0.2323  0.0555
 6140SOL    HW124256   5.491   6.399  10.850  1.2878  3.0574  3.4385
 6140SOL    HW224257   5.578   6.475  10.752  0.5376  0.9065  0.9890
 6141SOL     OW24258   2.945   5.186   3.482 -0.2760 -0.3725 -0.6730
 6141SOL    HW124259   2.974   5.277   3.483 -0.4039 -0.2948 -2.1237
 6141SOL    HW224260   2.936   5.163   3.575  1.3475  0.5628 -0.2370
 6142SOL     OW24261   3.310   9.718   6.446  0.8411  0.1980 -0.3855
 6142SOL    HW124262   3.401   9.740   6.468  0.7304  1.6551 -1.1997
 6142SOL    HW224263   3.318   9.650   6.380  1.2380 -1.7392  1.5576
 6143SOL     OW24264   4.142  10.765   4.775 -0.4491  0.6209  0.1105
 6143SOL    HW124265   4.121  10.742   4.865  2.5064 -0.4823  0.6351
 6143SOL    HW224266   4.145  10.682   4.728  0.1505  0.9648 -0.4824
 6144SOL     OW24267   1.201   1.932  10.258  0.7256 -0.2637 -0.1497
 6144SOL    HW124268   1.114   1.911  10.293 -1.1063  2.7394 -2.3919
 6144SOL    HW224269   1.237   1.996  10.319  1.1319 -1.0132  0.4203
 6145SOL     OW24270   7.826   0.847   4.456  0.0144  0.1046  0.0757
 6145SOL    HW124271   7.851   0.759   4.482  1.7365  0.6410  0.3714
 6145SOL    HW224272   7.736   0.858   4.489  0.2796 -1.0428  1.2343
 6146SOL     OW24273   7.100   5.051   0.156 -0.2206  0.0682  0.0994
 6146SOL    HW124274   7.185   5.093   0.141  0.3564 -0.6829  1.1192
 6146SOL    HW224275   7.072   5.083   0.242  0.1214 -1.3788  0.7913
 6147SOL     OW24276   4.713  10.855   8.576  0.0575 -0.1284 -0.1029
 6147SOL    HW124277   4.791  10.911   8.580  0.9243 -1.3401  1.7861
 6147SOL    HW224278   4.670  10.879   8.495  1.9076  1.2566 -0.7486
 6148SOL     OW24279   1.662   7.738   5.025 -0.3371 -0.0308  0.0362
 6148SOL    HW124280   1.572   7.770   5.023 -0.4772 -0.3955  0.3917
 6148SOL    HW224281   1.696   7.769   5.110 -0.6557 -1.2988  0.6438
 6149SOL     OW24282   9.735   8.479   6.125 -0.0508  0.2528  0.0682
 6149SOL    HW124283   9.775   8.498   6.040  1.1235  1.0013  0.7742
 6149SOL    HW224284   9.765   8.391   6.146  0.8480  0.6208  0.3649
 6150SOL     OW24285   9.453   7.261   2.622  0.6474  0.0671  1.2231
 6150SOL    HW124286   9.443   7.208   2.701  0.7188 -0.6778  0.7413
 6150SOL    HW224287   9.532   7.312   2.637  0.1765  0.5867  2.0001
 6151SOL     OW24288   3.994   3.309   4.605  0.2060 -0.6308 -0.7700
 6151SOL    HW124289   4.014   3.336   4.695 -2.6458  0.5261 -0.3487
 6151SOL    HW224290   3.936   3.233   4.615  0.3796 -0.8956 -1.6671
 6152SOL     OW24291   3.405   2.902   4.610 -0.0466 -0.1046  0.2710
 6152SOL    HW124292   3.338   2.965   4.584 -1.9190 -1.9319  0.3877
 6152SOL    HW224293   3.356   2.822   4.630  2.1835 -1.5227  0.4078
 6153SOL     OW24294   5.006   4.043   5.401  0.0884 -0.2655 -0.1668
 6153SOL    HW124295   5.058   4.068   5.477 -1.3411  0.4254  0.6265
 6153SOL    HW224296   5.041   4.095   5.329 -0.2300  1.0437  0.5944
 6154SOL     OW24297   2.799   8.433   6.813 -0.1520  0.3223 -0.2636
 6154SOL    HW124298   2.765   8.366   6.872  0.3019  1.2061  1.0338
 6154SOL    HW224299   2.789   8.395   6.726  0.0614 -1.4124  0.4279
 6155SOL     OW24300   9.738   3.566   4.233  0.0339  0.0464 -0.2629
 6155SOL    HW124301   9.657   3.516   4.226 -1.0297  1.5621  0.7241
 6155SOL    HW224302   9.760   3.589   4.143 -1.1237  0.3616 -0.4732
 6156SOL     OW24303   6.580   3.851   5.410 -0.0775 -0.1914  0.2775
 6156SOL    HW124304   6.633   3.924   5.443  0.5236 -0.9508  1.0315
 6156SOL    HW224305   6.642   3.781   5.395 -1.1122 -2.4884  4.8697
 6157SOL     OW24306   3.747   9.155   2.085 -1.5229 -0.1209  0.5461
 6157SOL    HW124307   3.748   9.248   2.107 -1.1879 -0.2776  1.2277
 6157SOL    HW224308   3.662   9.141   2.043 -1.8103  0.3767  0.9524
 6158SOL     OW24309   4.561   3.114   5.122  0.2200 -0.0934 -0.2258
 6158SOL    HW124310   4.623   3.071   5.181  0.9271  1.3388  0.1221
 6158SOL    HW224311   4.484   3.132   5.176 -0.5229 -1.8042 -0.6387
 6159SOL     OW24312   8.276   1.536   5.450 -0.4894 -0.3625 -0.3338
 6159SOL    HW124313   8.286   1.441   5.453  0.8076 -0.2134  1.0649
 6159SOL    HW224314   8.364   1.570   5.463 -1.0831  1.0348  0.2581
 6160SOL     OW24315   4.909   9.727   2.512  0.3787  0.1366  0.1045
 6160SOL    HW124316   4.967   9.732   2.437  1.0348  0.7878  0.6389
 6160SOL    HW224317   4.943   9.654   2.564 -1.3822 -1.7676 -1.2680
 6161SOL     OW24318   9.883   3.256   1.874 -0.4757  0.0674  0.1827
 6161SOL    HW124319   9.912   3.187   1.815  1.4340  1.7280 -0.9715
 6161SOL    HW224320   9.788   3.247   1.878 -0.5197 -1.0268 -1.9876
 6162SOL     OW24321   8.390   5.791   5.940 -0.2301  0.0440 -0.8194
 6162SOL    HW124322   8.358   5.707   5.973  1.9882  0.4712  2.9698
 6162SOL    HW224323   8.448   5.768   5.868 -0.3232 -1.5901 -0.4043
 6163SOL     OW24324   1.230   6.383   9.880 -0.0791 -0.2177  0.7135
 6163SOL    HW124325   1.226   6.359   9.973 -1.5920 -0.4286  0.6070
 6163SOL    HW224326   1.145   6.359   9.845  0.2508  0.4488 -0.6058
 6164SOL     OW24327   4.844  10.367   0.695  0.3247  0.0997  0.4167
 6164SOL    HW124328   4.887  10.452   0.684  1.4113 -0.5128 -0.3499
 6164SOL    HW224329   4.894  10.324   0.765 -0.2375  0.1053  0.8224
 6165SOL     OW24330   0.223   2.655   9.787  0.2635 -0.6336  0.3207
 6165SOL    HW124331   0.303   2.669   9.737  0.0142  2.6003  0.6265
 6165SOL    HW224332   0.243   2.581   9.844  3.8374  1.2387  1.8246
 6166SOL     OW24333   1.141   1.647   5.250 -0.0924  0.6843 -0.2949
 6166SOL    HW124334   1.237   1.649   5.248 -0.0881  0.4581 -2.1177
 6166SOL    HW224335   1.115   1.676   5.163 -1.6562 -0.8563 -0.3782
 6167SOL     OW24336   2.551  10.920   9.719  1.1155  0.2319 -0.4716
 6167SOL    HW124337   2.479  10.904   9.780  1.0410 -2.1038 -1.0730
 6167SOL    HW224338   2.554  11.015   9.710 -0.1086  0.5432  1.6632
 6168SOL     OW24339  10.372   7.482   6.923 -0.2094  0.1266  0.4037
 6168SOL    HW124340  10.431   7.553   6.897 -1.5782  0.1871 -2.9797
 6168SOL    HW224341  10.290   7.527   6.944 -1.0893 -0.3403 -1.7729
 6169SOL     OW24342  10.897   5.938   8.729  0.0898  0.4639 -0.3466
 6169SOL    HW124343  10.899   5.935   8.824 -0.9031  1.6901 -0.2735
 6169SOL    HW224344  10.812   5.901   8.705  1.0132 -1.4618 -0.8740
 6170SOL     OW24345   9.570   1.375   2.251  0.6135 -0.3959 -0.3750
 6170SOL    HW124346   9.540   1.453   2.297 -0.3631 -1.0703  0.1617
 6170SOL    HW224347   9.665   1.388   2.241  0.7370  0.0943  1.2045
 6171SOL     OW24348   9.523   0.272   4.195 -0.4216  0.2439 -0.2355
 6171SOL    HW124349   9.458   0.343   4.193  0.0459  0.7241  1.0349
 6171SOL    HW224350   9.547   0.264   4.287  2.5449  1.2118 -0.8292
 6172SOL     OW24351   0.435   6.652   9.556 -0.1313 -0.0136 -0.4735
 6172SOL    HW124352   0.481   6.705   9.490 -1.3548  2.5446  0.5935
 6172SOL    HW224353   0.500   6.639   9.625  0.3740 -0.4696 -1.0251
 6173SOL     OW24354   7.281   6.346  10.649 -0.0327  0.2158 -0.0209
 6173SOL    HW124355   7.276   6.393  10.565 -1.6617 -0.3052 -0.2353
 6173SOL    HW224356   7.362   6.295  10.643 -0.1784  0.1139 -1.3116
 6174SOL     OW24357   7.112   5.705   6.102 -0.1161  0.1637  0.2987
 6174SOL    HW124358   7.099   5.792   6.139  1.7126  0.5358  0.1731
 6174SOL    HW224359   7.099   5.646   6.176 -0.4242  0.6166  0.6150
 6175SOL     OW24360   4.543   9.167  10.895 -0.4799 -0.0557  0.3729
 6175SOL    HW124361   4.505   9.084  10.865 -0.8845  0.6633 -1.1979
 6175SOL    HW224362   4.501   9.233  10.842  1.0206  1.0347  0.4813
 6176SOL     OW24363   2.269   5.262   0.495  0.6036 -0.5099 -0.3916
 6176SOL    HW124364   2.206   5.311   0.441  1.1752  0.1456 -0.4713
 6176SOL    HW224365   2.250   5.170   0.475  1.7302 -0.3088 -2.8643
 6177SOL     OW24366   7.612   4.141   5.416 -0.1112 -0.2100  0.4130
 6177SOL    HW124367   7.689   4.198   5.424 -1.0022  0.9464  1.2143
 6177SOL    HW224368   7.613   4.088   5.496 -0.5658  0.3686  0.8096
 6178SOL     OW24369   6.906  10.208   8.793  0.0835 -0.2595 -0.1816
 6178SOL    HW124370   6.945  10.206   8.880  1.2176 -1.0130 -0.6871
 6178SOL    HW224371   6.836  10.273   8.800  1.4796  1.2184  0.7375
 6179SOL     OW24372   4.126   4.600   4.769  0.2778 -0.3609 -0.4337
 6179SOL    HW124373   4.187   4.654   4.819  0.0203 -0.5910  0.1478
 6179SOL    HW224374   4.133   4.632   4.679  2.6453 -1.6234 -0.7765
 6180SOL     OW24375   7.280  10.143   8.446  0.1996  0.4727 -0.4595
 6180SOL    HW124376   7.191  10.176   8.436 -0.5747 -1.1753  0.5482
 6180SOL    HW224377   7.328  10.214   8.489 -0.8767  0.9945 -0.1064
 6181SOL     OW24378   3.157   5.742   1.459 -0.1176 -0.5103  0.6796
 6181SOL    HW124379   3.073   5.743   1.506 -1.1528 -0.7015 -1.0980
 6181SOL    HW224380   3.167   5.831   1.426 -0.2170 -0.7916 -0.1205
 6182SOL     OW24381   7.245   5.891   0.867 -0.6602 -0.4014 -0.3341
 6182SOL    HW124382   7.218   5.892   0.775  1.0917 -0.3168 -0.8673
 6182SOL    HW224383   7.255   5.799   0.889 -0.3512 -0.3901 -0.4372
 6183SOL     OW24384   4.619   2.760   7.260 -0.1492 -0.5412 -0.6069
 6183SOL    HW124385   4.655   2.682   7.302  0.9861  0.9900  1.4589
 6183SOL    HW224386   4.525   2.744   7.255  0.0199 -1.8807  0.1589
 6184SOL     OW24387   7.192   7.264   7.245 -1.1823 -0.2511 -1.1564
 6184SOL    HW124388   7.214   7.182   7.290 -0.1509  0.0432 -1.0812
 6184SOL    HW224389   7.103   7.251   7.213 -1.9462 -0.4815  0.9315
 6185SOL     OW24390   8.770   5.960   4.612 -0.1192 -0.0536  0.2593
 6185SOL    HW124391   8.795   5.980   4.522 -1.7036  0.0572 -0.1838
 6185SOL    HW224392   8.852   5.942   4.656  0.6103 -1.2005 -1.4643
 6186SOL     OW24393   2.814   4.730   7.291  0.4720  0.2383 -0.3945
 6186SOL    HW124394   2.799   4.668   7.220  0.5051  0.7691 -0.8746
 6186SOL    HW224395   2.783   4.814   7.256  2.7233  1.0156 -0.7111
 6187SOL     OW24396   2.102   0.916   8.401 -0.4757 -0.7044  0.1928
 6187SOL    HW124397   2.148   1.000   8.400 -1.4410 -0.1593 -0.3314
 6187SOL    HW224398   2.148   0.863   8.336  0.1386 -0.5889  0.5228
 6188SOL     OW24399   4.725   7.584  10.674  0.0382 -0.1259  0.2843
 6188SOL    HW124400   4.660   7.582  10.744  1.0804 -2.7817  1.3090
 6188SOL    HW224401   4.743   7.677  10.661 -0.7850  0.5178  3.0168
 6189SOL     OW24402   5.041   2.090   3.431 -0.7946 -0.4076  0.1331
 6189SOL    HW124403   4.971   2.026   3.420 -1.9543  0.7278  0.6868
 6189SOL    HW224404   4.997   2.175   3.429  0.9112  0.5438 -2.5810
 6190SOL     OW24405   9.302   7.646   8.724 -0.1612 -0.1667  0.1080
 6190SOL    HW124406   9.313   7.552   8.737 -1.4828 -0.3389  0.0630
 6190SOL    HW224407   9.320   7.660   8.631  1.4811 -0.1332  0.4031
 6191SOL     OW24408   8.910   0.226   8.261  0.5052  0.4163  0.4491
 6191SOL    HW124409   8.828   0.260   8.226  0.1631  0.6146  1.4330
 6191SOL    HW224410   8.976   0.290   8.233  0.6141 -0.5834 -1.7541
 6192SOL     OW24411   8.328   3.905   6.960  0.2209 -0.4823  0.2082
 6192SOL    HW124412   8.299   3.991   6.929  0.5002 -0.0801  1.0320
 6192SOL    HW224413   8.410   3.922   7.005  1.1992 -1.4550 -1.1260
 6193SOL     OW24414   1.408   5.459   6.544  0.1374  0.0091 -0.4055
 6193SOL    HW124415   1.391   5.369   6.572 -0.9985  0.6274  1.0410
 6193SOL    HW224416   1.373   5.463   6.455 -1.7692 -0.4366  0.2811
 6194SOL     OW24417   8.922   7.371   5.152 -0.2822  0.1036 -0.4041
 6194SOL    HW124418   8.846   7.315   5.164 -1.0149  1.1858  0.1802
 6194SOL    HW224419   8.951   7.354   5.062 -2.4448  1.1177 -1.3671
 6195SOL     OW24420   9.373   6.036   2.700 -0.4354  0.0793  0.2751
 6195SOL    HW124421   9.362   6.060   2.792  0.6954  2.4730 -0.1385
 6195SOL    HW224422   9.462   6.004   2.693 -0.3169  0.4791 -0.0873
 6196SOL     OW24423   0.110   1.489   6.734 -0.1566  0.1673  0.6134
 6196SOL    HW124424   0.169   1.471   6.661 -0.8371 -2.3636  0.6122
 6196SOL    HW224425   0.146   1.439   6.807 -2.6079 -2.0827  0.4189
 6197SOL     OW24426   5.331   2.216   6.250  0.4513 -0.4490  0.3721
 6197SOL    HW124427   5.272   2.228   6.325  1.1631 -0.1592  0.8995
 6197SOL    HW224428   5.414   2.254   6.279  2.0237 -3.9901  1.0387
 6198SOL     OW24429   5.121   5.681   0.853 -0.2621 -0.0809  0.3515
 6198SOL    HW124430   5.081   5.727   0.779  0.2223  0.1282  0.2159
 6198SOL    HW224431   5.150   5.750   0.912  0.1833 -0.2094  0.2942
 6199SOL     OW24432   2.815   3.601   2.007 -0.1980 -0.2080  0.3674
 6199SOL    HW124433   2.867   3.608   1.927 -0.2081 -0.3882  0.3431
 6199SOL    HW224434   2.808   3.506   2.021  1.1503 -0.1829  1.4499
 6200SOL     OW24435   3.673   5.620  10.162  0.6625  0.1547 -0.4364
 6200SOL    HW124436   3.670   5.713  10.139  0.8752  0.6325  1.3738
 6200SOL    HW224437   3.581   5.592  10.162  0.5634  0.4826 -0.4977
 6201SOL     OW24438   0.740   1.097   1.690  0.0429 -0.3654  0.3999
 6201SOL    HW124439   0.831   1.074   1.707  0.3019  0.2988 -0.0115
 6201SOL    HW224440   0.698   1.095   1.775  0.0751 -2.1541  0.4153
 6202SOL     OW24441  10.844   2.663   9.908  0.0269 -0.2971 -0.1813
 6202SOL    HW124442  10.841   2.638  10.000  0.0589  0.2474 -0.0289
 6202SOL    HW224443  10.934   2.694   9.895 -0.5082  1.4971  0.1149
 6203SOL     OW24444   2.325   8.839  10.871  0.2138  0.6107  0.0320
 6203SOL    HW124445   2.362   8.883  10.948 -0.6031  1.3452  0.0269
 6203SOL    HW224446   2.385   8.860  10.800 -0.2162  1.8476  0.0070
 6204SOL     OW24447   4.073   1.256   5.209 -0.2428  0.4683  0.2212
 6204SOL    HW124448   4.059   1.198   5.284 -1.4676  0.2752 -0.1263
 6204SOL    HW224449   4.142   1.214   5.158 -0.9642 -0.5912  0.0913
 6205SOL     OW24450   3.872   6.256   3.865 -0.7269  0.1597 -0.5367
 6205SOL    HW124451   3.837   6.281   3.951  1.0203 -0.8139  0.4991
 6205SOL    HW224452   3.853   6.163   3.858  2.1804 -0.6200  0.4305
 6206SOL     OW24453  10.800   3.294   6.733 -0.5866 -0.2262  0.0536
 6206SOL    HW124454  10.781   3.304   6.827 -2.0192 -1.6025 -0.0554
 6206SOL    HW224455  10.855   3.216   6.729 -1.7181 -1.0233 -0.3535
 6207SOL     OW24456   4.855   8.953   4.826  0.0527  0.3253 -0.1751
 6207SOL    HW124457   4.866   8.928   4.734 -0.1517  2.0952 -0.7202
 6207SOL    HW224458   4.927   9.014   4.842 -2.0937  3.1168 -0.3879
 6208SOL     OW24459  10.836   7.273   6.960 -0.2827  0.0601  0.3639
 6208SOL    HW124460  10.927   7.263   6.932 -0.0332 -1.0035  1.5013
 6208SOL    HW224461  10.793   7.192   6.931 -0.8474  0.4977 -0.0497
 6209SOL     OW24462   5.697   2.674   5.673 -0.5292 -0.0330 -0.2245
 6209SOL    HW124463   5.639   2.601   5.650  0.0677 -0.8764  0.8535
 6209SOL    HW224464   5.745   2.643   5.750 -1.7366  2.2599  1.5954
 6210SOL     OW24465  10.432   4.838   3.624  0.8685  0.1914  0.2093
 6210SOL    HW124466  10.394   4.779   3.690 -0.9131 -2.1904 -2.6777
 6210SOL    HW224467  10.357   4.879   3.582  1.8308  0.5224 -1.2674
 6211SOL     OW24468   9.783   6.759   9.518 -0.4019 -0.5133  0.0610
 6211SOL    HW124469   9.876   6.767   9.499 -0.4331  0.9242  0.4038
 6211SOL    HW224470   9.770   6.666   9.537  1.1740 -0.5483  1.0997
 6212SOL     OW24471   6.086   1.434   8.876  0.4801  0.1139  0.0032
 6212SOL    HW124472   6.107   1.446   8.969 -0.2744 -0.1036  0.2046
 6212SOL    HW224473   6.160   1.474   8.830  0.9511  0.0582  0.6942
 6213SOL     OW24474   7.367   1.229   0.227  0.0879 -0.1472 -0.2806
 6213SOL    HW124475   7.399   1.138   0.233 -0.9581 -0.4308  1.7869
 6213SOL    HW224476   7.290   1.223   0.171 -0.2532 -0.6299  0.2282
 6214SOL     OW24477   9.797   7.376  10.643  0.4052 -0.1186  0.3591
 6214SOL    HW124478   9.815   7.302  10.701 -1.6137 -1.1756 -0.2712
 6214SOL    HW224479   9.810   7.341  10.555 -1.3657 -0.0372  0.0198
 6215SOL     OW24480   9.868   2.024   5.681 -0.4901 -0.3634  0.3451
 6215SOL    HW124481   9.789   2.009   5.733 -1.3706  0.4566 -0.6971
 6215SOL    HW224482   9.935   2.047   5.745 -1.0470 -1.2288  1.2681
 6216SOL     OW24483   1.581   0.297   3.305 -0.2174  0.3315  0.1606
 6216SOL    HW124484   1.535   0.316   3.387  2.2151 -0.7186  1.8983
 6216SOL    HW224485   1.653   0.360   3.302  1.9773 -1.9759  0.8904
 6217SOL     OW24486   1.172   6.169   3.911  0.3863  0.0996  0.0720
 6217SOL    HW124487   1.211   6.159   3.824 -0.7051  0.2127 -0.4452
 6217SOL    HW224488   1.081   6.193   3.894  0.6501  2.2570  1.2289
 6218SOL     OW24489   8.469   3.011   8.448  0.4736 -0.0515  0.2741
 6218SOL    HW124490   8.479   3.099   8.485  2.4652 -0.2115  0.2059
 6218SOL    HW224491   8.550   2.966   8.472 -0.3668 -1.7733  0.0094
 6219SOL     OW24492  10.052   0.210   7.285  0.2212  0.1564  0.8905
 6219SOL    HW124493  10.019   0.264   7.212 -0.6669 -1.7695 -0.2079
 6219SOL    HW224494  10.139   0.183   7.257  0.1690  0.0096  0.8699
 6220SOL     OW24495   4.401  10.709   2.527  0.0014 -0.1365 -0.0755
 6220SOL    HW124496   4.446  10.630   2.553 -0.4677  0.0853  1.5098
 6220SOL    HW224497   4.438  10.778   2.582 -1.8145  0.1517  0.8702
 6221SOL     OW24498  10.546   7.098   1.970  0.6168 -0.3806  0.0260
 6221SOL    HW124499  10.457   7.095   2.004 -0.3082  0.4376 -2.1706
 6221SOL    HW224500  10.551   7.180   1.921  3.0510  0.2948  1.2051
 6222SOL     OW24501   4.796   7.498   9.988  0.1464 -0.5038 -0.6751
 6222SOL    HW124502   4.705   7.527   9.977  0.1506 -0.8301 -1.6886
 6222SOL    HW224503   4.816   7.515  10.080 -0.5623  0.6485 -0.7200
 6223SOL     OW24504   1.636   3.307   2.934 -0.2719  0.1376 -0.3723
 6223SOL    HW124505   1.553   3.329   2.978 -0.5643  1.1410 -1.3707
 6223SOL    HW224506   1.680   3.247   2.994 -1.5052 -0.0253  0.4023
 6224SOL     OW24507   0.755   7.556   8.968 -0.0567  0.2639  0.0898
 6224SOL    HW124508   0.831   7.518   9.012  0.3884  1.4936  0.4082
 6224SOL    HW224509   0.772   7.541   8.875 -0.9720 -2.2901  0.2656
 6225SOL     OW24510   6.183   7.842   6.753  0.0328  0.6514  0.3113
 6225SOL    HW124511   6.275   7.819   6.740 -0.2341 -0.0973 -0.3396
 6225SOL    HW224512   6.135   7.783   6.694 -0.7146  2.6107 -1.1500
 6226SOL     OW24513  10.185   4.423   7.170 -0.1890 -0.7747  0.3262
 6226SOL    HW124514  10.167   4.435   7.077 -1.3409  0.3233  0.6574
 6226SOL    HW224515  10.278   4.401   7.174 -0.0265 -0.4246 -1.0489
 6227SOL     OW24516   9.902   9.616   6.286 -0.7409 -0.2437  0.2915
 6227SOL    HW124517   9.896   9.545   6.222 -0.7986  0.0233 -0.0077
 6227SOL    HW224518   9.975   9.592   6.342  0.5488  0.4141 -1.0333
 6228SOL     OW24519   8.074   1.735  10.100  0.6821  0.3173 -0.3715
 6228SOL    HW124520   8.041   1.825  10.092  2.3628  1.1948  1.4943
 6228SOL    HW224521   8.002   1.686  10.140 -0.0547  0.9463 -0.8895
 6229SOL     OW24522   4.690   7.540   4.340  0.3381  0.3368 -0.1462
 6229SOL    HW124523   4.653   7.453   4.353 -1.7369  1.1391 -0.2837
 6229SOL    HW224524   4.669   7.561   4.248 -3.1425  2.5895  0.9403
 6230SOL     OW24525   0.944   6.773   2.161  0.4195 -0.1005  0.1879
 6230SOL    HW124526   0.945   6.831   2.086 -0.4849 -0.4102 -0.0746
 6230SOL    HW224527   0.900   6.823   2.230 -0.6149 -0.5641 -0.1242
 6231SOL     OW24528  10.546   9.968   7.490  0.0688 -0.8071  0.4720
 6231SOL    HW124529  10.529  10.000   7.579 -1.6580  0.9609 -0.4247
 6231SOL    HW224530  10.514   9.878   7.491 -1.0382 -0.4329  1.3458
 6232SOL     OW24531  10.164   9.744   8.250  0.2108  0.4081 -0.1615
 6232SOL    HW124532  10.168   9.835   8.219 -1.5536  0.3433 -0.6558
 6232SOL    HW224533  10.167   9.691   8.171  1.3919 -0.0039  0.1356
 6233SOL     OW24534   6.257  10.511  10.092  0.0282 -0.0522  0.4116
 6233SOL    HW124535   6.248  10.559  10.010  2.5873  0.0964  0.1450
 6233SOL    HW224536   6.259  10.419  10.066  1.7469  0.0310  0.1639
 6234SOL     OW24537   7.221   2.810   2.393 -0.2738 -0.1510 -0.6871
 6234SOL    HW124538   7.216   2.894   2.439 -1.7088 -0.3685 -0.3832
 6234SOL    HW224539   7.134   2.799   2.354 -0.3027 -1.7505 -0.2490
 6235SOL     OW24540   8.848   8.287   8.990 -0.3042  0.0179 -0.2464
 6235SOL    HW124541   8.893   8.362   8.951  1.1538 -0.5515  0.2729
 6235SOL    HW224542   8.759   8.319   9.006 -0.0172  1.2965 -0.9999
 6236SOL     OW24543   7.621  10.286   4.925  0.2533 -0.7705 -0.3301
 6236SOL    HW124544   7.555  10.232   4.970 -0.0338 -1.1844 -1.2197
 6236SOL    HW224545   7.635  10.241   4.841 -0.3501  0.7906 -1.3183
 6237SOL     OW24546   5.444   2.939   6.984 -0.3402 -0.7347  0.3674
 6237SOL    HW124547   5.371   2.947   6.923  0.4939 -0.0688 -0.5729
 6237SOL    HW224548   5.447   3.025   7.028 -0.1888 -0.7984  0.4804
 6238SOL     OW24549   0.416   1.493   4.035  0.0832  0.0320 -0.1881
 6238SOL    HW124550   0.478   1.458   4.098  0.3296  1.2176  0.2606
 6238SOL    HW224551   0.432   1.444   3.954  1.8377  0.5265 -0.1794
 6239SOL     OW24552   1.330   8.141   3.686 -0.0897  0.1864 -0.1224
 6239SOL    HW124553   1.286   8.065   3.647  0.9876 -0.2706 -0.4887
 6239SOL    HW224554   1.397   8.166   3.622  1.2987 -0.1738  1.1156
 6240SOL     OW24555   0.400   2.941   1.343  0.3212  0.0390  0.4734
 6240SOL    HW124556   0.454   2.963   1.267  0.6622  2.0819  1.2410
 6240SOL    HW224557   0.314   2.920   1.306  0.7540 -0.0350 -0.5319
 6241SOL     OW24558   6.234  10.598  10.908 -0.0995  0.5285  0.7281
 6241SOL    HW124559   6.265  10.688  10.903  2.2199 -0.2261  0.3056
 6241SOL    HW224560   6.147  10.600  10.867  0.2033  2.4443  0.1023
 6242SOL     OW24561   8.956   9.838   0.012 -0.4734 -0.2899  0.1007
 6242SOL    HW124562   9.006   9.914   0.042 -1.6369  0.4203  0.3210
 6242SOL    HW224563   8.984   9.767   0.070 -0.5343  0.3590  0.9588
 6243SOL     OW24564   4.353   1.297   4.828  0.5221  0.1919 -0.7337
 6243SOL    HW124565   4.310   1.227   4.779 -0.2840 -0.2917  0.6093
 6243SOL    HW224566   4.296   1.373   4.817  1.1620  0.5391 -1.8153
 6244SOL     OW24567   9.090   4.213   0.176  0.8126 -0.1565 -0.4453
 6244SOL    HW124568   9.073   4.301   0.209  0.4123  1.2406 -3.9520
 6244SOL    HW224569   9.004   4.179   0.153  1.0027 -1.4000  0.5617
 6245SOL     OW24570   5.536   3.154  10.258  0.3798 -0.0646  0.4478
 6245SOL    HW124571   5.568   3.091  10.194  0.8555  0.7428 -0.1382
 6245SOL    HW224572   5.615   3.195  10.293  0.0691  0.5235  0.4773
 6246SOL     OW24573   0.212   5.397   5.831  0.4676  0.2380  0.3759
 6246SOL    HW124574   0.178   5.315   5.795  0.2188 -0.1514  1.4504
 6246SOL    HW224575   0.305   5.396   5.809  0.6997 -0.8656  1.2973
 6247SOL     OW24576   5.987   3.210   8.436  0.5929 -0.3255 -0.7450
 6247SOL    HW124577   6.001   3.153   8.512  1.6142 -2.9222 -2.7239
 6247SOL    HW224578   5.925   3.275   8.466 -1.5421 -3.1140  1.4445
 6248SOL     OW24579   1.347   2.992   4.875 -0.4384 -0.1776 -0.4194
 6248SOL    HW124580   1.357   2.917   4.817 -1.3658  0.0264 -0.8573
 6248SOL    HW224581   1.269   3.038   4.843  0.8462  1.7339 -1.0103
 6249SOL     OW24582   7.450   0.250   6.296  0.5426 -0.0635 -0.3179
 6249SOL    HW124583   7.539   0.215   6.300  0.2820 -0.7855 -0.5829
 6249SOL    HW224584   7.398   0.189   6.348  0.1741  0.2624 -0.3004
 6250SOL     OW24585   1.814   9.548   9.942  0.0305  0.8272  0.0492
 6250SOL    HW124586   1.834   9.470   9.994 -0.1258  0.6189 -0.2028
 6250SOL    HW224587   1.894   9.600   9.946 -0.0581  0.9207  0.6886
 6251SOL     OW24588   7.032   8.354   8.822 -0.6975 -0.1295 -0.1820
 6251SOL    HW124589   7.095   8.339   8.752  0.3461  1.3395  0.3906
 6251SOL    HW224590   7.085   8.379   8.898 -1.9081  0.2154  0.5856
 6252SOL     OW24591   4.148   6.048   7.851  0.4557 -0.2658  0.1365
 6252SOL    HW124592   4.165   5.957   7.826 -0.8449 -1.0879  1.9835
 6252SOL    HW224593   4.059   6.047   7.885 -0.1707  2.0646 -1.2531
 6253SOL     OW24594   6.080   1.699   7.871 -0.4169  0.4673 -0.1415
 6253SOL    HW124595   6.022   1.765   7.910  2.3152  1.9216  1.7796
 6253SOL    HW224596   6.102   1.734   7.785 -0.4352  1.1723  0.1329
 6254SOL     OW24597   3.687   3.849   4.534 -0.0712 -0.0019  0.5389
 6254SOL    HW124598   3.757   3.865   4.471  0.3624 -1.9359  0.4836
 6254SOL    HW224599   3.674   3.933   4.578  0.9790  0.8635 -0.7475
 6255SOL     OW24600   4.885   1.960   7.966  0.2036 -0.4099  0.2249
 6255SOL    HW124601   4.854   2.038   7.919 -0.5247  0.5105  2.1218
 6255SOL    HW224602   4.806   1.925   8.008  0.8218 -1.2023  0.7489
 6256SOL     OW24603   4.236   8.181   4.899 -0.1236 -0.4725  0.5021
 6256SOL    HW124604   4.202   8.255   4.949 -0.0295 -0.4416  0.5193
 6256SOL    HW224605   4.271   8.220   4.819 -0.1296 -0.5057  0.4830
 6257SOL     OW24606   2.295   0.704   1.625  0.5557 -0.2157  0.1369
 6257SOL    HW124607   2.353   0.662   1.688  0.6855 -1.4498 -0.7688
 6257SOL    HW224608   2.209   0.665   1.642  0.6684 -0.8466 -0.6826
 6258SOL     OW24609   9.748   5.967   2.257  0.0802 -0.3348 -0.0990
 6258SOL    HW124610   9.675   5.952   2.198 -0.7839  0.5405  0.7129
 6258SOL    HW224611   9.778   6.056   2.236  0.1789 -0.2649  0.3354
 6259SOL     OW24612   0.522  10.362   3.453 -0.0811 -0.2515 -0.5225
 6259SOL    HW124613   0.591  10.377   3.518 -1.0144 -0.4849  0.5601
 6259SOL    HW224614   0.570  10.338   3.373  1.1744  1.8650 -0.4962
 6260SOL     OW24615   8.269  10.570   9.517  0.0075 -0.4956 -0.3368
 6260SOL    HW124616   8.302  10.483   9.538 -0.8780 -1.2590 -1.8751
 6260SOL    HW224617   8.322  10.599   9.442  0.4456  0.4048  0.3015
 6261SOL     OW24618   3.834   5.882   3.282 -0.0852  0.4870  0.1698
 6261SOL    HW124619   3.882   5.896   3.200 -0.0288 -0.4295  0.0262
 6261SOL    HW224620   3.743   5.900   3.259  0.2661  3.3524  0.7326
 6262SOL     OW24621   7.216   6.696   7.787 -0.1652  0.3473 -0.4997
 6262SOL    HW124622   7.284   6.631   7.802  1.4864  2.0786 -0.0237
 6262SOL    HW224623   7.134   6.647   7.788  0.9292 -1.5663  0.7710
 6263SOL     OW24624   3.733   3.633   3.339  0.8819  0.8353  0.3150
 6263SOL    HW124625   3.787   3.702   3.378  0.3297  1.6121 -0.2523
 6263SOL    HW224626   3.731   3.564   3.404  0.6012  1.7927  1.3578
 6264SOL     OW24627   4.565   6.908  10.335  0.1812  0.3412  0.0005
 6264SOL    HW124628   4.518   6.869  10.409  0.8736 -0.8420 -0.1409
 6264SOL    HW224629   4.564   7.002  10.352  0.0794  0.1158  1.3655
 6265SOL     OW24630   5.069   0.766   2.496 -0.1882 -0.4013  0.1439
 6265SOL    HW124631   5.058   0.684   2.447  0.2005 -0.7911  0.7030
 6265SOL    HW224632   5.065   0.740   2.588 -1.0545  0.3502  0.3330
 6266SOL     OW24633   3.590   7.853   0.836 -0.3027 -0.3669 -0.6701
 6266SOL    HW124634   3.615   7.925   0.893  0.5407  0.2972 -1.8305
 6266SOL    HW224635   3.584   7.777   0.894 -0.7826  0.5468  0.4961
 6267SOL     OW24636  10.848   9.275  10.385  0.2423 -0.0713  0.1275
 6267SOL    HW124637  10.887   9.208  10.440  1.3079  0.9057  0.5981
 6267SOL    HW224638  10.772   9.306  10.434 -0.3936 -1.0794 -0.2009
 6268SOL     OW24639   6.000   8.652   3.883 -0.1493  0.0587 -0.3520
 6268SOL    HW124640   6.056   8.600   3.825 -1.9464 -1.3633 -0.9195
 6268SOL    HW224641   5.951   8.587   3.934  0.0973  1.2647  1.5284
 6269SOL     OW24642   4.325   6.454  10.126 -0.4081 -0.0547  0.2991
 6269SOL    HW124643   4.318   6.479  10.218 -2.8997 -1.2303  0.5112
 6269SOL    HW224644   4.394   6.510  10.090  0.6900  0.3532  2.8826
 6270SOL     OW24645   4.376   8.904   6.134 -0.1989  0.5706  0.3758
 6270SOL    HW124646   4.419   8.919   6.050 -1.2767 -1.3111 -0.5803
 6270SOL    HW224647   4.411   8.819   6.163 -2.2331 -0.3974  0.1827
 6271SOL     OW24648   1.949   0.304   9.816  0.0399 -0.0568 -0.1273
 6271SOL    HW124649   1.993   0.361   9.879 -1.8232  0.2948  0.9625
 6271SOL    HW224650   1.873   0.354   9.788 -1.8026 -1.9993  1.0351
 6272SOL     OW24651   4.143   5.756   4.178 -0.3060  0.2377 -0.2245
 6272SOL    HW124652   4.168   5.831   4.124 -1.9367  0.2278 -1.0423
 6272SOL    HW224653   4.048   5.761   4.183 -0.2922 -0.6768  1.3549
 6273SOL     OW24654   8.191   8.913  10.682 -0.2629  0.0922 -0.3269
 6273SOL    HW124655   8.131   8.911  10.607  0.2675  1.0022 -0.7973
 6273SOL    HW224656   8.255   8.845  10.662 -0.2455  0.1842 -0.6015
 6274SOL     OW24657   7.965   7.211   4.575  0.4652  0.0756 -0.3071
 6274SOL    HW124658   7.953   7.304   4.556 -1.1865 -0.3308 -1.4769
 6274SOL    HW224659   7.941   7.166   4.494 -3.0784 -1.5634  1.4075
 6275SOL     OW24660   7.372   2.197   5.621 -0.0107  0.5149 -0.3983
 6275SOL    HW124661   7.328   2.256   5.560  0.8308  0.6205 -0.9200
 6275SOL    HW224662   7.316   2.120   5.625  0.4523  0.0357 -2.1710
 6276SOL     OW24663   7.081   9.018   0.585  0.1674  0.0970 -0.0416
 6276SOL    HW124664   7.138   9.079   0.630  1.7040 -0.3470 -1.2880
 6276SOL    HW224665   7.007   9.004   0.645 -0.3964  3.3346  0.1920
 6277SOL     OW24666   5.528   1.793   0.540  0.9834 -0.1967  0.4073
 6277SOL    HW124667   5.517   1.711   0.587 -1.0816  0.0265  0.4137
 6277SOL    HW224668   5.566   1.768   0.456  1.0088 -1.0774  0.6732
 6278SOL     OW24669   7.212   5.709   2.120 -0.7005  0.0736  0.0628
 6278SOL    HW124670   7.252   5.624   2.105  0.1310  0.5522 -0.5636
 6278SOL    HW224671   7.130   5.707   2.071 -0.7324 -0.4030  0.1358
 6279SOL     OW24672   4.501   1.606   6.237 -1.0962  0.4004  0.3676
 6279SOL    HW124673   4.506   1.679   6.299 -0.2749  0.7725 -0.1133
 6279SOL    HW224674   4.410   1.578   6.240 -1.2318  0.9045  1.1819
 6280SOL     OW24675   2.734   8.225   1.628 -0.8586  0.4430 -0.5494
 6280SOL    HW124676   2.759   8.283   1.700 -0.8855 -0.7850  0.4765
 6280SOL    HW224677   2.755   8.137   1.659  0.7094 -0.0352 -2.6979
 6281SOL     OW24678   2.623   8.528   1.889  0.3361 -0.1450 -0.3125
 6281SOL    HW124679   2.557   8.568   1.832  0.2310 -0.1088 -0.1638
 6281SOL    HW224680   2.576   8.461   1.938  0.8184 -1.5201 -1.6570
 6282SOL     OW24681   0.188   0.481   1.123 -0.3286 -0.0633  0.1183
 6282SOL    HW124682   0.221   0.422   1.055 -0.2467 -0.8409  0.8261
 6282SOL    HW224683   0.095   0.461   1.129 -0.3030 -0.1108  0.3487
 6283SOL     OW24684   0.137   9.842   8.364  0.2930 -0.0874  0.1390
 6283SOL    HW124685   0.049   9.859   8.332  0.5913  0.8586 -0.2003
 6283SOL    HW224686   0.194   9.850   8.287  0.7608  0.0660  0.4902
 6284SOL     OW24687   0.294   6.375   4.315 -0.3856 -0.7626 -0.0768
 6284SOL    HW124688   0.382   6.407   4.335 -0.6112 -1.1880  1.7526
 6284SOL    HW224689   0.283   6.299   4.371 -1.3622 -1.6805 -1.4448
 6285SOL     OW24690  10.370   2.825   0.662 -0.0610 -0.2640 -0.3292
 6285SOL    HW124691  10.465   2.830   0.653 -0.0774  2.5419  0.2396
 6285SOL    HW224692  10.336   2.873   0.587 -0.9881 -0.1217  0.1622
 6286SOL     OW24693   7.051   7.759  10.125 -0.1202 -0.6906  0.4136
 6286SOL    HW124694   7.035   7.795  10.212 -1.6997  1.0668 -0.5166
 6286SOL    HW224695   7.118   7.816  10.087 -0.1257 -0.8671  0.1352
 6287SOL     OW24696   7.631   9.094  10.093  0.0378  0.2459 -0.2505
 6287SOL    HW124697   7.724   9.114  10.105 -0.4831  2.1704  1.0018
 6287SOL    HW224698   7.603   9.150  10.021 -0.4246  0.5841  0.1885
 6288SOL     OW24699   3.705   8.632   0.218 -0.8375  0.3781  0.7166
 6288SOL    HW124700   3.768   8.561   0.227 -2.1189 -0.7587  1.0859
 6288SOL    HW224701   3.698   8.647   0.124 -0.2200  0.3480  0.6617
 6289SOL     OW24702   1.898   2.506   0.520  0.5295  0.4567 -0.1332
 6289SOL    HW124703   1.817   2.465   0.552 -0.4191  0.9269 -1.8453
 6289SOL    HW224704   1.910   2.582   0.577 -0.5953  0.7422 -0.2522
 6290SOL     OW24705   1.037   5.321  10.508  0.1784  0.0825 -0.0852
 6290SOL    HW124706   0.958   5.370  10.487  0.8371  1.4910  0.5777
 6290SOL    HW224707   1.084   5.376  10.570  1.3625 -1.0290  0.0599
 6291SOL     OW24708   5.806   5.323   8.581 -0.3192 -0.6261  0.6860
 6291SOL    HW124709   5.823   5.341   8.673  0.1129 -0.5829  0.6004
 6291SOL    HW224710   5.819   5.407   8.537  2.7756 -1.2714  0.1335
 6292SOL     OW24711   6.690   0.881  10.795 -0.3259 -0.4507  0.3270
 6292SOL    HW124712   6.685   0.838  10.880 -1.0069 -0.7146  0.1672
 6292SOL    HW224713   6.608   0.855  10.751  0.2739 -0.7836 -0.6238
 6293SOL     OW24714   0.097   2.775   0.122  0.4564 -0.0697 -0.4650
 6293SOL    HW124715   0.025   2.743   0.068 -2.2298  1.3142  1.9960
 6293SOL    HW224716   0.115   2.863   0.090 -0.1933  0.2317 -0.0322
 6294SOL     OW24717   0.615   4.268   4.494  0.4306 -0.1791 -0.1177
 6294SOL    HW124718   0.668   4.209   4.440  1.9541  0.0758  1.0303
 6294SOL    HW224719   0.544   4.213   4.526  1.5768 -1.3255  0.5817
 6295SOL     OW24720   6.312   5.914   6.711  0.1051 -0.7702  0.1879
 6295SOL    HW124721   6.393   5.877   6.747 -1.5706 -4.6669  0.4726
 6295SOL    HW224722   6.325   5.908   6.616 -0.8471 -4.5587  0.1182
 6296SOL     OW24723   6.543   0.325   7.320 -0.3883  0.2589 -0.3663
 6296SOL    HW124724   6.490   0.402   7.341  0.7782  0.4986  2.0453
 6296SOL    HW224725   6.498   0.284   7.246 -2.4207  1.8707 -0.1133
 6297SOL     OW24726  10.874   9.092   3.553 -0.4731  0.4021  0.0054
 6297SOL    HW124727  10.889   9.021   3.491 -0.3139  0.6383 -0.2280
 6297SOL    HW224728  10.890   9.052   3.639  1.2137  0.5535 -0.2056
 6298SOL     OW24729   3.696   8.017   1.733 -0.4579  0.1046  0.1788
 6298SOL    HW124730   3.697   8.036   1.639 -0.0876  0.7667  0.3156
 6298SOL    HW224731   3.640   7.939   1.740  0.2204 -0.4809 -0.6815
 6299SOL     OW24732   9.685   3.324   6.066 -0.2475  0.2189  0.2949
 6299SOL    HW124733   9.760   3.269   6.086  1.0171  0.3222 -3.4355
 6299SOL    HW224734   9.613   3.263   6.051 -0.5030  0.0231  2.1176
 6300SOL     OW24735   2.042   1.994   4.154 -0.1523  0.5473  0.1712
 6300SOL    HW124736   2.055   1.943   4.234  1.0677 -0.4458 -0.6175
 6300SOL    HW224737   2.088   2.077   4.170  1.0440 -0.0840  0.1171
 6301SOL     OW24738   4.353  10.435   2.204 -0.0172 -0.0425  0.9436
 6301SOL    HW124739   4.438  10.449   2.246  1.3177 -1.3660 -1.0732
 6301SOL    HW224740   4.363  10.474   2.117 -2.0508  1.1265  1.2008
 6302SOL     OW24741   1.931   1.187   8.668 -0.5399 -0.4955  0.7142
 6302SOL    HW124742   1.971   1.271   8.644 -0.6554 -0.4989  0.5072
 6302SOL    HW224743   1.881   1.161   8.590 -0.6643 -0.6596  0.8473
 6303SOL     OW24744   7.984   5.743   4.809 -0.2458  0.0845  0.3592
 6303SOL    HW124745   8.052   5.810   4.807  1.2030 -1.3287 -2.0292
 6303SOL    HW224746   7.932   5.760   4.730 -0.1014 -1.3300 -0.0601
 6304SOL     OW24747  10.581   4.602   2.396  0.1746 -0.5116 -0.0555
 6304SOL    HW124748  10.491   4.575   2.381  0.5127 -1.8985  0.2105
 6304SOL    HW224749  10.601   4.661   2.323 -1.5118  1.3622  0.9189
 6305SOL     OW24750   0.030  10.193   6.249 -0.2511 -0.5721  0.1837
 6305SOL    HW124751   0.097  10.214   6.314 -0.2990  1.6160 -0.3855
 6305SOL    HW224752  -0.053  10.200   6.296 -0.2106 -0.7644  0.2864
 6306SOL     OW24753   8.731   1.172   9.355 -0.4081  0.4430 -0.2045
 6306SOL    HW124754   8.792   1.192   9.284  0.4788 -0.9239  0.1162
 6306SOL    HW224755   8.780   1.111   9.412 -1.6120  0.3487  0.7765
 6307SOL     OW24756   1.103   4.067   0.067 -0.4169  0.0729 -0.2430
 6307SOL    HW124757   1.157   3.996   0.101  1.6284  1.8314  0.3347
 6307SOL    HW224758   1.151   4.099  -0.009 -1.1371  1.0659 -0.2920
 6308SOL     OW24759  10.327   0.466   8.844 -0.7977 -0.2745 -0.3891
 6308SOL    HW124760  10.355   0.376   8.831  0.4011 -0.0168  0.2119
 6308SOL    HW224761  10.271   0.464   8.921  0.1586 -0.3630  0.3265
 6309SOL     OW24762   0.726   2.772   7.870  0.3279  0.2041  0.3185
 6309SOL    HW124763   0.667   2.743   7.801  0.0672 -1.6424  1.2443
 6309SOL    HW224764   0.748   2.862   7.848 -0.5992  0.0015 -1.5655
 6310SOL     OW24765   1.444   8.372   5.409 -0.4004 -0.3330  0.5043
 6310SOL    HW124766   1.495   8.427   5.350 -1.1976  0.7344  0.7722
 6310SOL    HW224767   1.421   8.295   5.356 -1.0238  0.5565 -0.5568
 6311SOL     OW24768  10.091   2.627   4.458 -0.1262 -0.2800  1.0372
 6311SOL    HW124769  10.182   2.656   4.461 -0.4044  0.5885  3.4717
 6311SOL    HW224770  10.085   2.558   4.524 -0.9908 -1.1612  0.0751
 6312SOL     OW24771   4.601  10.020   9.374 -0.0439  0.2112 -0.0363
 6312SOL    HW124772   4.591  10.029   9.279  0.2942 -0.0676 -0.1011
 6312SOL    HW224773   4.519  10.053   9.410  0.5527  2.0704 -0.3213
 6313SOL     OW24774   6.668   8.263   0.500 -0.7859  0.4615 -0.2141
 6313SOL    HW124775   6.643   8.187   0.553  3.0542 -0.6022  0.4409
 6313SOL    HW224776   6.645   8.239   0.410 -0.2751 -1.2477  0.0715
 6314SOL     OW24777   0.135   7.931   1.792  0.4288 -0.4121 -0.8869
 6314SOL    HW124778   0.151   7.837   1.793  0.2113 -0.4702 -1.7196
 6314SOL    HW224779   0.087   7.949   1.873  2.7701 -0.5711  0.6095
 6315SOL     OW24780  10.245   1.226   6.528 -0.4658  0.3149 -0.0055
 6315SOL    HW124781  10.259   1.320   6.518 -0.2710  0.3522  0.5888
 6315SOL    HW224782  10.332   1.189   6.540 -0.6107  0.1853  0.7285
 6316SOL     OW24783   7.297   8.478   2.861 -0.0405  0.4045  0.0552
 6316SOL    HW124784   7.230   8.537   2.897  1.4673  1.6539  0.9150
 6316SOL    HW224785   7.356   8.462   2.934  1.8724  1.1739 -1.2633
 6317SOL     OW24786   7.829   0.536   4.756  0.4864  0.2199 -0.5726
 6317SOL    HW124787   7.867   0.614   4.798  1.7642 -0.5051 -0.3143
 6317SOL    HW224788   7.746   0.524   4.801 -0.0746  1.8320 -1.0981
 6318SOL     OW24789   0.868   2.845   7.288 -0.6937  0.4090  0.1604
 6318SOL    HW124790   0.855   2.832   7.194  0.1380 -0.4460  0.1566
 6318SOL    HW224791   0.927   2.775   7.315  0.9395  1.9663  0.8793
 6319SOL     OW24792   4.888   4.383  10.815 -0.2888 -0.0849  0.4011
 6319SOL    HW124793   4.951   4.379  10.886 -1.0808 -0.5765  1.0915
 6319SOL    HW224794   4.804   4.362  10.856 -0.8754  0.3906 -0.5291
 6320SOL     OW24795   4.051   1.910   4.586 -0.6550 -0.5016  0.1208
 6320SOL    HW124796   3.966   1.914   4.629 -1.0278 -0.5569 -0.5875
 6320SOL    HW224797   4.111   1.955   4.645 -1.2228 -0.2671  0.5212
 6321SOL     OW24798   9.893   9.423   4.708  0.4139  0.5210  0.2705
 6321SOL    HW124799   9.931   9.478   4.640  0.2644  0.0696 -0.1901
 6321SOL    HW224800   9.854   9.350   4.660  0.0716  0.3331  0.8257
 6322SOL     OW24801   4.291   2.730   5.820  0.1425 -0.1765  0.0367
 6322SOL    HW124802   4.301   2.790   5.746 -2.1688 -0.4980 -0.6107
 6322SOL    HW224803   4.315   2.782   5.897 -1.2774  1.4595 -0.5605
 6323SOL     OW24804   2.289   3.733   3.671 -0.4757  0.9304  0.0909
 6323SOL    HW124805   2.327   3.814   3.705 -3.7266  2.7084 -0.0837
 6323SOL    HW224806   2.350   3.705   3.602  0.8723  3.0932  0.3056
 6324SOL     OW24807   4.223   5.967   0.721 -0.2527 -0.2412  0.2788
 6324SOL    HW124808   4.213   6.062   0.710  0.6623 -0.1044  0.5047
 6324SOL    HW224809   4.243   5.956   0.814  1.1932 -0.4926 -0.0379
 6325SOL     OW24810   1.091   4.424   0.012  0.5380 -0.0479  0.4971
 6325SOL    HW124811   1.030   4.405  -0.059 -1.0106  1.2529  1.3927
 6325SOL    HW224812   1.176   4.397  -0.021 -0.3056 -0.5924 -1.3681
 6326SOL     OW24813   4.412  10.836   6.297  0.4080 -0.0288 -0.4783
 6326SOL    HW124814   4.489  10.877   6.335 -0.3031  0.2762  0.6873
 6326SOL    HW224815   4.366  10.907   6.252  0.9282 -0.2662 -1.4171
 6327SOL     OW24816   8.154   8.653   4.856  1.0022 -0.0047  0.3686
 6327SOL    HW124817   8.233   8.607   4.828  1.4351 -0.4367  2.1925
 6327SOL    HW224818   8.082   8.593   4.836  1.3353 -0.4473  0.4911
 6328SOL     OW24819   2.296   0.105   6.456 -0.3242  0.1796 -0.3206
 6328SOL    HW124820   2.294   0.099   6.361 -0.7036 -0.3760 -0.2823
 6328SOL    HW224821   2.368   0.048   6.483  0.8418  1.5780 -0.3503
 6329SOL     OW24822   9.704   2.354   3.057  0.2606 -0.3960 -0.2790
 6329SOL    HW124823   9.668   2.318   3.139  1.4807 -1.8824 -0.3435
 6329SOL    HW224824   9.627   2.369   3.002 -0.4241 -1.8754  0.1993
 6330SOL     OW24825  10.562   5.077   2.186 -0.3622 -0.2015 -0.0472
 6330SOL    HW124826  10.634   5.081   2.123  0.2354 -0.4104  0.6171
 6330SOL    HW224827  10.573   5.156   2.239  1.4457 -1.8726  2.2602
 6331SOL     OW24828   3.493   5.299  10.803  0.2169 -0.1001 -0.6621
 6331SOL    HW124829   3.433   5.296  10.729 -0.2491  0.5968 -0.3200
 6331SOL    HW224830   3.538   5.214  10.801  0.1672 -0.1158 -1.7023
 6332SOL     OW24831   7.948   6.440   0.221 -0.1213  0.0137  0.3848
 6332SOL    HW124832   7.886   6.371   0.244 -1.3911  1.0786  0.3028
 6332SOL    HW224833   8.023   6.427   0.279 -1.1043 -0.3712  1.5909
 6333SOL     OW24834  10.767  10.372  10.370 -0.1857 -0.0670 -0.1852
 6333SOL    HW124835  10.751  10.339  10.458  0.5147  1.1800  0.4299
 6333SOL    HW224836  10.741  10.300  10.312  1.6838 -1.8572  1.0920
 6334SOL     OW24837   0.975   9.167   6.125  0.4744 -0.5842  0.0998
 6334SOL    HW124838   1.051   9.116   6.153 -0.5805 -1.1855  2.1085
 6334SOL    HW224839   1.005   9.258   6.129  1.2273 -0.8337  0.4039
 6335SOL     OW24840   1.965  10.918  10.767 -0.0766  0.1582  0.1766
 6335SOL    HW124841   2.002  10.990  10.715 -0.5686 -0.5996 -1.2536
 6335SOL    HW224842   1.871  10.929  10.760 -0.1515 -0.2644  0.4779
 6336SOL     OW24843   6.432   2.677   1.553 -0.0689 -0.0779 -0.0379
 6336SOL    HW124844   6.511   2.676   1.498  0.1908 -1.2949  0.3332
 6336SOL    HW224845   6.466   2.683   1.642 -0.3518 -1.5032  0.1757
 6337SOL     OW24846   0.723   7.814   7.433 -0.0166 -0.0987 -0.0944
 6337SOL    HW124847   0.758   7.774   7.513  0.7857 -0.4442 -0.5963
 6337SOL    HW224848   0.696   7.902   7.460 -1.6586 -0.8916  0.9941
 6338SOL     OW24849   7.670   1.120   6.618  0.2440 -0.0378  0.1616
 6338SOL    HW124850   7.740   1.131   6.682  0.7215 -0.9289 -0.1987
 6338SOL    HW224851   7.707   1.153   6.536 -0.2700  0.8440  0.2669
 6339SOL     OW24852   5.515   7.350   7.177  0.8485 -0.0616  0.3324
 6339SOL    HW124853   5.513   7.256   7.164  0.5177  0.0710 -0.6388
 6339SOL    HW224854   5.591   7.380   7.126 -0.6605  0.5100 -1.6771
 6340SOL     OW24855   1.422   6.846   2.930 -0.2834 -0.1320  0.1050
 6340SOL    HW124856   1.412   6.858   2.835 -1.4734  0.9021  0.3300
 6340SOL    HW224857   1.354   6.782   2.952 -0.4063  0.0758  0.3334
 6341SOL     OW24858   3.993   3.771   9.744  0.5455  0.6856 -0.4881
 6341SOL    HW124859   4.003   3.849   9.689 -0.0129  0.3648 -1.0433
 6341SOL    HW224860   4.083   3.746   9.765  0.7638  2.6810  1.4325
 6342SOL     OW24861   7.246   6.262   3.575  0.2156 -0.5541 -0.3455
 6342SOL    HW124862   7.171   6.307   3.537  1.0543  1.3133  0.0834
 6342SOL    HW224863   7.298   6.233   3.500 -1.1494 -2.3767 -0.6637
 6343SOL     OW24864   1.591   1.846   5.712  0.2580 -0.1923  0.1060
 6343SOL    HW124865   1.585   1.867   5.805  0.1166 -1.2512  0.3445
 6343SOL    HW224866   1.674   1.884   5.685 -0.2786  1.2410  0.3485
 6344SOL     OW24867   2.985   6.960   0.320 -0.5493 -0.1227 -0.3713
 6344SOL    HW124868   2.914   7.005   0.365 -1.9748 -1.7960 -0.8380
 6344SOL    HW224869   2.971   6.979   0.227  0.9375  1.3045 -0.3488
 6345SOL     OW24870   4.730   5.289   1.683  0.3029  0.0795  0.1876
 6345SOL    HW124871   4.642   5.305   1.650 -0.1874 -0.8873  0.9672
 6345SOL    HW224872   4.734   5.336   1.766 -0.6268 -2.3825  1.7358
 6346SOL     OW24873   8.221   8.708  10.321 -0.2970  0.5103  0.2815
 6346SOL    HW124874   8.252   8.695  10.410 -0.1616  2.8417  0.6543
 6346SOL    HW224875   8.158   8.781  10.329  0.0231  1.0347 -1.5604
 6347SOL     OW24876  10.605   6.943   4.089  0.0108  0.0293 -0.3685
 6347SOL    HW124877  10.686   6.895   4.104 -0.6038 -0.5864  1.1034
 6347SOL    HW224878  10.567   6.955   4.176 -0.5473  1.9784 -0.8272
 6348SOL     OW24879   6.913   8.858   4.111 -0.3142 -0.5531  0.1419
 6348SOL    HW124880   6.868   8.931   4.067 -1.7374 -1.2088  0.4425
 6348SOL    HW224881   6.885   8.781   4.062  1.8746 -0.8688 -0.7321
 6349SOL     OW24882   1.830   8.103   9.926  0.0847 -0.1019  0.1503
 6349SOL    HW124883   1.774   8.043   9.974  0.7706 -0.9377 -0.0661
 6349SOL    HW224884   1.824   8.186   9.975 -0.9059 -0.3217  0.4200
 6350SOL     OW24885   7.764   9.675   2.165 -0.2794 -0.3480 -0.2623
 6350SOL    HW124886   7.825   9.714   2.101  0.1999 -0.2550  0.2412
 6350SOL    HW224887   7.800   9.699   2.250  0.3890 -2.3801  0.0920
 6351SOL     OW24888   5.195   3.025   8.211  0.4048  0.1449 -0.1663
 6351SOL    HW124889   5.263   2.990   8.152 -0.0626  0.1901 -0.7427
 6351SOL    HW224890   5.115   2.982   8.182 -0.0736  1.2216 -0.4876
 6352SOL     OW24891   0.345   7.269   5.102 -0.2290 -0.1004 -0.3063
 6352SOL    HW124892   0.305   7.292   5.018 -0.3024  0.7620 -0.0429
 6352SOL    HW224893   0.433   7.306   5.097 -0.4144  0.4189  0.2013
 6353SOL     OW24894   6.225   3.998   5.662 -0.0874  0.7418  0.6833
 6353SOL    HW124895   6.209   3.964   5.750 -0.6094 -1.2116 -0.1146
 6353SOL    HW224896   6.262   3.924   5.614  2.0507  2.3001 -0.2652
 6354SOL     OW24897   1.552   8.604   2.037 -0.7153  0.0799  0.7179
 6354SOL    HW124898   1.490   8.631   1.969  0.4840  0.0669 -0.4196
 6354SOL    HW224899   1.610   8.680   2.047 -0.4596 -0.1807  1.2113
 6355SOL     OW24900   1.397   4.978   8.032  0.8135 -0.5072  0.2815
 6355SOL    HW124901   1.424   5.049   8.089 -1.3455 -0.3694  1.2473
 6355SOL    HW224902   1.381   5.020   7.947  1.3705 -0.2013  0.3268
 6356SOL     OW24903   5.162   1.396   4.836 -0.0084 -0.6793 -0.8895
 6356SOL    HW124904   5.186   1.304   4.828 -1.4474 -1.2148  0.4757
 6356SOL    HW224905   5.067   1.397   4.828 -0.3411  0.2709  2.0975
 6357SOL     OW24906   5.416   6.305   8.910  0.1643 -0.0190  0.2415
 6357SOL    HW124907   5.492   6.275   8.961 -0.5489  0.0101  1.3525
 6357SOL    HW224908   5.348   6.241   8.930 -0.0057 -0.2785 -1.0720
 6358SOL     OW24909   3.272   6.842   7.610 -0.2136 -0.7879  0.6945
 6358SOL    HW124910   3.295   6.931   7.634  1.1072 -0.8071 -0.3627
 6358SOL    HW224911   3.356   6.801   7.588 -1.0438 -1.4323 -1.5637
 6359SOL     OW24912   8.919   3.823   5.586  0.0728  0.2104  0.3478
 6359SOL    HW124913   8.876   3.894   5.633 -0.7576 -0.6780  0.9846
 6359SOL    HW224914   8.959   3.865   5.509 -1.9078  1.1127 -0.2634
 6360SOL     OW24915   5.593   2.285   1.880  0.3448  0.4902  0.1324
 6360SOL    HW124916   5.532   2.332   1.936  0.0943  0.0097  0.2752
 6360SOL    HW224917   5.583   2.325   1.794 -0.8790 -0.1864 -0.0736
 6361SOL     OW24918   8.704   9.483  10.880  0.0308  0.2701  0.2368
 6361SOL    HW124919   8.728   9.565  10.837  0.7320 -0.2236 -0.3458
 6361SOL    HW224920   8.689   9.421  10.808 -2.5662  0.3866  0.5717
 6362SOL     OW24921   4.957   0.627   1.520  0.1174 -0.2669  0.6143
 6362SOL    HW124922   5.005   0.703   1.553 -0.7578  1.6990 -2.3528
 6362SOL    HW224923   5.019   0.583   1.462 -0.1090 -0.5634  0.5943
 6363SOL     OW24924   4.207   0.982   0.782  0.1978  0.3069 -0.1661
 6363SOL    HW124925   4.201   0.980   0.687  0.7621  1.8614 -0.2735
 6363SOL    HW224926   4.191   0.892   0.810 -0.3199 -0.1013 -1.6998
 6364SOL     OW24927   9.590   3.382   2.257  0.1752  0.4139 -0.0470
 6364SOL    HW124928   9.587   3.435   2.337 -0.0771  0.9369 -0.3962
 6364SOL    HW224929   9.619   3.443   2.189  1.3213 -0.2547 -0.1859
 6365SOL     OW24930  10.080   2.904   0.253  0.2052 -0.1333 -0.0057
 6365SOL    HW124931  10.047   2.826   0.298 -1.6473  1.5098  1.6437
 6365SOL    HW224932  10.035   2.902   0.168  0.6466 -1.1579 -0.2338
 6366SOL     OW24933   7.915   0.508   8.486 -0.0351 -0.6990  0.1399
 6366SOL    HW124934   7.840   0.563   8.465 -0.8219 -1.4961  0.8174
 6366SOL    HW224935   7.878   0.430   8.528  1.1932 -0.8909  0.9316
 6367SOL     OW24936   5.111   8.232   6.972 -0.3956  0.2843  0.0561
 6367SOL    HW124937   5.068   8.296   7.029 -0.0176  0.0026  0.6782
 6367SOL    HW224938   5.161   8.177   7.033  2.4177  1.7757 -0.7294
 6368SOL     OW24939   1.202   9.891   7.606 -0.0476 -0.3510 -0.1537
 6368SOL    HW124940   1.243   9.823   7.659 -0.8051 -1.0635 -0.4530
 6368SOL    HW224941   1.190   9.965   7.665  2.3796  0.1929 -0.2615
 6369SOL     OW24942   0.900   2.761   6.769 -0.2941 -0.1804 -0.1453
 6369SOL    HW124943   0.823   2.814   6.748 -1.9573 -1.3440  2.4734
 6369SOL    HW224944   0.947   2.812   6.835  0.3038 -0.2205 -0.5313
 6370SOL     OW24945   8.755   1.373   3.678 -0.1161  1.0796 -0.1060
 6370SOL    HW124946   8.826   1.438   3.683  0.7411  0.3278 -1.6438
 6370SOL    HW224947   8.712   1.391   3.594 -1.3927  1.1467  0.5451
 6371SOL     OW24948   8.236   5.052   2.212  0.1781 -0.1099  0.0356
 6371SOL    HW124949   8.325   5.020   2.197  0.1831  0.5789 -1.5129
 6371SOL    HW224950   8.243   5.107   2.290  1.5542  1.5561 -1.2026
 6372SOL     OW24951   7.606   8.148   6.717 -0.0389 -0.4979  0.4485
 6372SOL    HW124952   7.617   8.063   6.674  0.2664 -0.8438  1.1954
 6372SOL    HW224953   7.695   8.185   6.719 -0.3019  0.2804 -0.7281
 6373SOL     OW24954   3.641   6.733   4.542  0.0033 -0.3576  0.1228
 6373SOL    HW124955   3.641   6.828   4.528 -2.4971 -0.0982  1.2595
 6373SOL    HW224956   3.577   6.700   4.479  0.4306 -1.2094  0.1249
 6374SOL     OW24957   5.022   4.972  10.691  0.1644  0.1070  0.1763
 6374SOL    HW124958   4.935   4.971  10.650 -0.2443 -1.2345  1.0191
 6374SOL    HW224959   5.004   4.972  10.785  1.0209 -2.2620  0.4018
 6375SOL     OW24960   8.830   2.341   2.894  0.0603 -0.2105  0.0652
 6375SOL    HW124961   8.899   2.298   2.844 -1.5978  0.9192 -3.5819
 6375SOL    HW224962   8.849   2.435   2.887 -0.0402  0.0083  2.0199
 6376SOL     OW24963   0.815   7.649   4.039 -0.5615  0.6356 -0.0051
 6376SOL    HW124964   0.850   7.732   4.072 -0.0006 -0.4390  2.3285
 6376SOL    HW224965   0.883   7.585   4.062 -0.9553 -0.4774 -1.8114
 6377SOL     OW24966   3.290   8.170   3.571  0.1940  0.3502 -0.2268
 6377SOL    HW124967   3.275   8.083   3.533 -1.6353  1.3001 -1.8333
 6377SOL    HW224968   3.224   8.177   3.640 -1.0329  1.1689 -1.4293
 6378SOL     OW24969   4.946   1.843   4.706 -0.6487 -0.2015  0.7260
 6378SOL    HW124970   4.859   1.876   4.685 -0.3058  0.5424  0.4453
 6378SOL    HW224971   4.998   1.921   4.726  0.2276 -0.5338 -0.1470
 6379SOL     OW24972   9.152   0.833   5.953  0.0036 -0.0577  0.0130
 6379SOL    HW124973   9.108   0.749   5.967  1.1545 -0.5425  0.9040
 6379SOL    HW224974   9.096   0.897   5.997  0.4184 -0.7347  1.5927
 6380SOL     OW24975   8.851   8.377   9.589  0.3140 -0.4945  0.6884
 6380SOL    HW124976   8.837   8.292   9.548 -2.4822 -0.1003  0.5711
 6380SOL    HW224977   8.880   8.357   9.678  1.1914 -1.5056  0.1830
 6381SOL     OW24978   5.669   5.342   1.783  0.0878 -0.6489  0.4143
 6381SOL    HW124979   5.682   5.430   1.748  0.5215 -0.9153 -0.1067
 6381SOL    HW224980   5.743   5.292   1.748 -0.7189 -1.4728 -0.1392
 6382SOL     OW24981   2.441   9.906   3.583 -0.3062  0.0441  0.1651
 6382SOL    HW124982   2.514   9.853   3.553 -0.2908  0.5328 -0.6986
 6382SOL    HW224983   2.366   9.876   3.532 -0.3858  0.5411 -0.0255
 6383SOL     OW24984   1.403   1.373   4.005  0.2576 -0.4036 -0.4231
 6383SOL    HW124985   1.407   1.371   4.100  2.5956 -0.4686 -0.4591
 6383SOL    HW224986   1.378   1.284   3.980 -1.7873 -0.0365  0.0946
 6384SOL     OW24987   4.449   5.814   4.652  0.7397 -0.2148  0.2789
 6384SOL    HW124988   4.462   5.904   4.622  1.4462 -0.4358 -0.0965
 6384SOL    HW224989   4.362   5.791   4.621  1.6532 -0.6459 -2.2310
 6385SOL     OW24990   6.436   2.330   5.780 -0.6829 -0.1284  0.0781
 6385SOL    HW124991   6.340   2.335   5.780 -0.6559  0.4845  0.7119
 6385SOL    HW224992   6.456   2.267   5.850 -0.6035  0.3837  0.5260
 6386SOL     OW24993  10.779   4.499  10.221 -0.3412 -0.2781 -0.2072
 6386SOL    HW124994  10.689   4.479  10.195 -0.7107  1.2479 -0.1857
 6386SOL    HW224995  10.827   4.417  10.208 -2.0525 -1.5995  1.2920
 6387SOL     OW24996   0.519   3.661   4.679 -0.2787  0.1580 -0.3425
 6387SOL    HW124997   0.471   3.606   4.617 -0.4913 -0.4306  0.3242
 6387SOL    HW224998   0.451   3.703   4.731 -0.0933  0.2921 -0.2104
 6388SOL     OW24999   5.614   6.013   7.949 -0.0253  0.1902 -0.0489
 6388SOL    HW125000   5.530   6.007   7.993 -0.5198  1.2753 -0.7768
 6388SOL    HW225001   5.633   6.107   7.947  1.4865 -0.0645  0.5929
 6389SOL     OW25002   9.576  10.892   2.586  0.0012  0.1950  0.4187
 6389SOL    HW125003   9.535  10.888   2.499 -0.1184  2.5328  0.2851
 6389SOL    HW225004   9.664  10.857   2.573  0.1306  0.8890 -0.7836
 6390SOL     OW25005   1.804   1.466   9.859 -0.3232  0.2310  0.2816
 6390SOL    HW125006   1.782   1.405   9.929  0.3965 -0.4020 -0.0306
 6390SOL    HW225007   1.857   1.415   9.798 -0.4911  0.9127 -0.4600
 6391SOL     OW25008   3.169   8.792   3.427 -0.1056 -0.0939  0.3243
 6391SOL    HW125009   3.103   8.723   3.415 -1.0795  0.4741  2.1207
 6391SOL    HW225010   3.145   8.859   3.363 -2.3070  0.8098  1.9580
 6392SOL     OW25011   8.945   3.154   4.237 -0.1390 -0.2863  0.5382
 6392SOL    HW125012   8.885   3.080   4.250  0.6688 -1.3083 -1.2094
 6392SOL    HW225013   9.014   3.141   4.303  1.6393 -2.9306 -1.6117
 6393SOL     OW25014   1.235   2.818  10.904 -0.1927 -0.3147  0.8751
 6393SOL    HW125015   1.291   2.795  10.829  0.2771  2.0846  0.4316
 6393SOL    HW225016   1.161   2.758  10.897  0.2872 -0.7741 -0.9688
 6394SOL     OW25017   8.102   7.806   5.793  0.2865  0.6623  0.3040
 6394SOL    HW125018   8.129   7.752   5.867  1.4683 -0.2971 -0.7776
 6394SOL    HW225019   8.169   7.874   5.787  1.0122 -0.0988 -0.7048
 6395SOL     OW25020   4.169   8.933   1.750 -0.1525  0.0866 -0.1571
 6395SOL    HW125021   4.137   8.994   1.684 -2.0093 -0.5288  0.1233
 6395SOL    HW225022   4.149   8.975   1.834  4.3915  2.0462  0.2557
 6396SOL     OW25023   2.612   8.320   3.665 -0.1698  0.0773  0.4476
 6396SOL    HW125024   2.705   8.303   3.675 -0.1153  0.0904 -0.0178
 6396SOL    HW225025   2.571   8.233   3.668 -0.0380 -0.0168 -0.4181
 6397SOL     OW25026   8.745   4.290  10.619  0.4042  0.1550 -0.8213
 6397SOL    HW125027   8.780   4.209  10.654  2.7896  0.6205 -1.9363
 6397SOL    HW225028   8.666   4.306  10.671  0.8983 -1.8620  0.6955
 6398SOL     OW25029  10.817   2.295   4.550 -0.0003  0.1379 -0.0291
 6398SOL    HW125030  10.879   2.305   4.478 -1.4567 -0.6787 -1.4243
 6398SOL    HW225031  10.804   2.201   4.558 -0.9718  0.2963  0.3422
 6399SOL     OW25032   6.290   2.745   3.658 -0.1264  0.1569 -0.2912
 6399SOL    HW125033   6.215   2.719   3.710 -0.1956 -1.1654 -0.9984
 6399SOL    HW225034   6.353   2.673   3.667  0.1724  0.2478 -1.3776
 6400SOL     OW25035   1.484   9.193   4.268 -0.2130 -0.0718 -0.3754
 6400SOL    HW125036   1.435   9.116   4.297  1.9508 -1.2679  0.4107
 6400SOL    HW225037   1.476   9.192   4.172 -1.1827 -0.5782 -0.2977
 6401SOL     OW25038   0.693   9.612   5.878 -0.0914  0.4696  0.3452
 6401SOL    HW125039   0.637   9.535   5.889 -0.1227  0.6019  1.2115
 6401SOL    HW225040   0.678   9.641   5.788 -0.3793 -0.3011  0.1388
 6402SOL     OW25041   1.296   7.853   9.416  0.8995 -0.1332 -0.5753
 6402SOL    HW125042   1.280   7.896   9.500  1.8065  2.4495 -1.6364
 6402SOL    HW225043   1.301   7.760   9.438 -0.4607  0.2931  1.9630
 6403SOL     OW25044  10.882   6.855  10.067  0.5598 -0.1259  0.5942
 6403SOL    HW125045  10.847   6.859   9.978  1.3690  1.3409  0.3193
 6403SOL    HW225046  10.971   6.819  10.056 -0.2398 -2.4593  1.1328
 6404SOL     OW25047  10.805   2.860   5.759 -0.7311  0.0161  0.3146
 6404SOL    HW125048  10.848   2.895   5.837 -0.9865 -0.2390  0.5708
 6404SOL    HW225049  10.821   2.926   5.691  0.4724 -0.2937  0.2771
 6405SOL     OW25050   0.044   2.905  10.103 -0.1553  0.5751 -0.7235
 6405SOL    HW125051  -0.017   2.834  10.124  1.7814 -1.1469 -0.6084
 6405SOL    HW225052   0.097   2.914  10.182  0.2331  1.5244 -1.0885
 6406SOL     OW25053   1.772   0.717   8.034 -0.0159 -0.1706  0.3556
 6406SOL    HW125054   1.770   0.813   8.035 -2.2160 -0.1718  0.2594
 6406SOL    HW225055   1.864   0.695   8.050  0.5253  1.9425  0.4593
 6407SOL     OW25056   3.474   3.328   2.545 -0.0381 -0.2526 -0.2530
 6407SOL    HW125057   3.463   3.264   2.615  1.6897  0.1716  0.4469
 6407SOL    HW225058   3.566   3.354   2.549 -0.4984  1.6932 -1.0263
 6408SOL     OW25059   5.874   9.138   2.477 -0.3143  0.0627  0.3568
 6408SOL    HW125060   5.876   9.133   2.382 -0.0737  0.1719  0.3563
 6408SOL    HW225061   5.913   9.223   2.498 -1.7694  0.7199  0.4962
 6409SOL     OW25062   3.339   4.348   5.387  0.3727  0.1536 -0.1440
 6409SOL    HW125063   3.418   4.375   5.434  0.5050 -0.7144  0.1463
 6409SOL    HW225064   3.336   4.253   5.397 -1.5555  0.2986  1.1938
 6410SOL     OW25065   2.242   6.221   6.470  0.1631 -0.4190  0.5488
 6410SOL    HW125066   2.201   6.242   6.554  0.9712  1.6307  0.4730
 6410SOL    HW225067   2.169   6.223   6.408  0.1165  2.0793  0.5919
 6411SOL     OW25068  10.161   2.192   5.190 -0.5815  0.3025 -0.0516
 6411SOL    HW125069  10.179   2.098   5.180 -2.5761 -0.2967  1.3484
 6411SOL    HW225070  10.202   2.214   5.274 -0.8682  0.4576  0.0481
 6412SOL     OW25071   4.703   5.383   3.597 -0.2152 -0.0664 -0.5287
 6412SOL    HW125072   4.734   5.329   3.525  1.8827  0.8980 -0.4317
 6412SOL    HW225073   4.775   5.443   3.615  0.0738 -1.2889  3.4215
 6413SOL     OW25074   9.512   5.832   2.165 -0.0911 -0.3046 -0.2918
 6413SOL    HW125075   9.533   5.738   2.163  0.1987 -0.2564  0.1484
 6413SOL    HW225076   9.468   5.845   2.249 -1.5901 -0.3270 -1.0384
 6414SOL     OW25077   7.550  10.457   8.950 -0.0358  0.2620  0.3841
 6414SOL    HW125078   7.636  10.497   8.968  2.6578 -4.6308  0.2113
 6414SOL    HW225079   7.531  10.482   8.860  1.7254  0.7733  0.1075
 6415SOL     OW25080  10.717   2.832   1.130  0.4708 -0.2808  0.2143
 6415SOL    HW125081  10.711   2.770   1.057  0.2830 -2.6178  2.0844
 6415SOL    HW225082  10.710   2.777   1.208  2.1506  1.9166  2.0453
 6416SOL     OW25083   8.598   3.550   5.836 -0.6101  0.6235  0.6694
 6416SOL    HW125084   8.653   3.613   5.883  0.1081 -0.4782  1.3523
 6416SOL    HW225085   8.625   3.558   5.745 -0.9209  1.6826  0.6541
 6417SOL     OW25086   8.676   0.248   2.836  0.2181  0.2343  0.2722
 6417SOL    HW125087   8.733   0.189   2.886 -0.4402 -0.8764 -0.2514
 6417SOL    HW225088   8.724   0.263   2.754  0.2744  0.2183  0.3020
 6418SOL     OW25089   9.667  10.093   9.532  0.5405  0.0184  0.0358
 6418SOL    HW125090   9.729  10.034   9.490  1.8589  1.9762 -0.9176
 6418SOL    HW225091   9.614  10.036   9.588  3.2739 -1.7569  1.0322
 6419SOL     OW25092   3.414   0.507   6.045 -0.0351  0.2885 -0.5397
 6419SOL    HW125093   3.340   0.511   5.985  0.4949 -1.3412 -1.3379
 6419SOL    HW225094   3.490   0.495   5.989  0.6344  0.1586  0.3800
 6420SOL     OW25095   6.783   9.984   8.953  0.0845  0.2258  0.0501
 6420SOL    HW125096   6.743  10.017   8.873 -0.0199  2.2932  0.8805
 6420SOL    HW225097   6.862  10.038   8.963  0.5782 -0.6275  0.8531
 6421SOL     OW25098   9.814   6.608   2.697 -0.0857  0.0679  0.4573
 6421SOL    HW125099   9.884   6.579   2.755  0.5443 -0.3117 -0.4638
 6421SOL    HW225100   9.766   6.674   2.747 -0.4112 -1.2234  1.9192
 6422SOL     OW25101   1.098   8.905   2.363 -0.0357  0.2637  0.3458
 6422SOL    HW125102   1.103   8.838   2.295  3.0830  0.6380  0.0478
 6422SOL    HW225103   1.083   8.857   2.444 -0.9612 -0.4708 -0.2525
 6423SOL     OW25104   9.096   3.571   9.381  0.1109 -0.7258  0.7002
 6423SOL    HW125105   9.182   3.609   9.365 -0.7982  0.8720 -0.6016
 6423SOL    HW225106   9.040   3.645   9.401 -1.8765 -1.1577 -2.5633
 6424SOL     OW25107   8.678   1.105   1.935 -0.1045 -0.5950  0.2988
 6424SOL    HW125108   8.770   1.131   1.937  0.2092 -1.5207 -0.8138
 6424SOL    HW225109   8.632   1.173   1.983  1.1502 -0.0617  0.7760
 6425SOL     OW25110   3.261  10.650   3.739 -0.1928  0.3368 -0.0886
 6425SOL    HW125111   3.169  10.653   3.763 -0.7849  1.8302 -2.2078
 6425SOL    HW225112   3.273  10.725   3.681  1.5935 -1.5035 -2.3431
 6426SOL     OW25113  10.617   1.765  10.336  0.0801 -0.4428 -0.0597
 6426SOL    HW125114  10.538   1.755  10.283 -0.3318  1.8555  0.0280
 6426SOL    HW225115  10.685   1.721  10.286 -1.2730 -2.8008  0.0290
 6427SOL     OW25116   0.291   8.949   9.939  0.1290 -0.1024  0.1683
 6427SOL    HW125117   0.257   8.860   9.933  0.8583 -0.5639  2.2371
 6427SOL    HW225118   0.215   9.002   9.962 -0.5781  0.0794 -2.3388
 6428SOL     OW25119   8.108   5.123   4.715 -0.9468  0.5954  0.4979
 6428SOL    HW125120   8.142   5.120   4.625  0.1300 -0.0667  0.9071
 6428SOL    HW225121   8.066   5.209   4.721 -0.5235  0.8934 -0.4631
 6429SOL     OW25122   5.790   3.230  10.428  0.4478 -0.1276 -0.4502
 6429SOL    HW125123   5.801   3.162  10.494 -0.8114  0.4219  0.3473
 6429SOL    HW225124   5.871   3.281  10.432  1.3461 -1.4571 -0.9550
 6430SOL     OW25125   8.823   8.837   7.049 -0.0609  0.0598 -0.0907
 6430SOL    HW125126   8.895   8.795   7.096  1.5954  0.1521 -2.3504
 6430SOL    HW225127   8.847   8.930   7.046  0.7143 -0.1580 -2.3719
 6431SOL     OW25128   3.305   6.020   1.826 -0.5534  0.1131  0.0945
 6431SOL    HW125129   3.232   6.080   1.813 -0.2044  0.4788 -0.1657
 6431SOL    HW225130   3.286   5.945   1.770  0.4349  1.2257 -1.8053
 6432SOL     OW25131   3.884   3.626   7.305  0.6093  0.6732 -0.1956
 6432SOL    HW125132   3.937   3.610   7.227  0.6954  0.9483 -0.1949
 6432SOL    HW225133   3.800   3.584   7.286  0.0843  2.0594 -1.0899
 6433SOL     OW25134   4.709   1.538   2.557 -0.6392  1.0188  0.5578
 6433SOL    HW125135   4.702   1.470   2.490  1.2920  1.2296  0.0809
 6433SOL    HW225136   4.638   1.598   2.538 -2.1535 -0.6465  0.7506
 6434SOL     OW25137   2.147   8.047   8.297  0.1227 -1.0675 -0.2915
 6434SOL    HW125138   2.238   8.069   8.281 -0.0842  0.8145  0.8618
 6434SOL    HW225139   2.100   8.079   8.220 -0.2276  3.3481  1.4877
 6435SOL     OW25140   1.795   8.723   0.930 -0.2034  0.5810 -0.4754
 6435SOL    HW125141   1.778   8.815   0.951 -0.1170  0.0958  2.0352
 6435SOL    HW225142   1.723   8.675   0.971  0.2647 -0.5378 -0.9280
 6436SOL     OW25143   0.606   2.746   0.617 -0.1814  0.0601  0.0526
 6436SOL    HW125144   0.583   2.838   0.622  2.6162  1.0231 -2.1584
 6436SOL    HW225145   0.689   2.744   0.569 -0.6977 -3.6821 -1.0443
 6437SOL     OW25146  10.143   5.187   4.134  0.1779 -0.2565  0.0753
 6437SOL    HW125147  10.096   5.122   4.080 -0.5447  0.1373  0.2146
 6437SOL    HW225148  10.108   5.173   4.222  0.7416 -0.3304  0.2871
 6438SOL     OW25149   9.638   7.810   6.198 -0.0921  0.3358 -0.1598
 6438SOL    HW125150   9.561   7.865   6.181 -0.1727  0.6985  1.2630
 6438SOL    HW225151   9.703   7.871   6.233  0.4844 -0.1542 -0.3664
 6439SOL     OW25152   3.956   6.619   7.635  0.2538  0.3546 -0.4126
 6439SOL    HW125153   3.871   6.663   7.637  0.2526  0.3342  0.2942
 6439SOL    HW225154   3.965   6.580   7.722  0.0089 -1.5391 -1.1884
 6440SOL     OW25155   7.035   0.684   7.236 -0.0467  0.0265 -0.6337
 6440SOL    HW125156   7.118   0.654   7.273 -0.2152 -0.0702 -0.3296
 6440SOL    HW225157   6.986   0.603   7.221 -0.2353  0.1089 -0.4533
 6441SOL     OW25158   8.474  10.469   0.790  0.0690 -0.0790  0.3288
 6441SOL    HW125159   8.476  10.519   0.708  2.3363 -1.5750 -0.6462
 6441SOL    HW225160   8.533  10.515   0.848 -0.6612  0.3521  0.7428
 6442SOL     OW25161  10.619   1.814   5.893 -0.1448  0.3542 -0.0312
 6442SOL    HW125162  10.570   1.763   5.958  0.9272  1.0376  1.3457
 6442SOL    HW225163  10.560   1.818   5.817 -1.7012  0.0986  1.1140
 6443SOL     OW25164   0.806   8.079   3.058 -0.1035 -0.3413 -0.8278
 6443SOL    HW125165   0.837   8.000   3.104  0.0159  1.7619  3.0958
 6443SOL    HW225166   0.710   8.072   3.060 -0.0875 -0.7424 -1.2509
 6444SOL     OW25167   0.986   7.290   4.875  0.1999 -0.0824  0.7445
 6444SOL    HW125168   0.965   7.217   4.934 -0.7395 -0.2192  0.2706
 6444SOL    HW225169   0.919   7.284   4.806 -1.0031  2.2598  1.6032
 6445SOL     OW25170   7.613   3.148   7.390 -0.0001  0.4801 -0.0224
 6445SOL    HW125171   7.680   3.169   7.324 -0.7230  1.4891 -0.4621
 6445SOL    HW225172   7.662   3.131   7.470  0.7576  1.7717 -0.1916
 6446SOL     OW25173   8.061  10.697   9.429  0.1653  0.2571 -0.3308
 6446SOL    HW125174   8.093  10.784   9.406 -0.5159  0.4751 -0.4902
 6446SOL    HW225175   8.139  10.650   9.458  0.5380  0.9294 -0.2034
 6447SOL     OW25176   2.578   3.395   2.483 -0.0469  1.0653 -0.1964
 6447SOL    HW125177   2.605   3.459   2.416  0.6702  0.0428 -0.9141
 6447SOL    HW225178   2.657   3.378   2.533  0.0110  0.0253 -0.6259
 6448SOL     OW25179   6.023  10.560   5.039 -0.5076  0.5547  0.1822
 6448SOL    HW125180   6.075  10.589   4.964  1.2446 -2.0943  0.2456
 6448SOL    HW225181   6.032  10.631   5.103  2.2704  0.6731 -0.2111
 6449SOL     OW25182  10.008   9.481   8.344 -0.6004  0.3070 -0.3855
 6449SOL    HW125183  10.094   9.472   8.305 -0.5843  0.5413 -0.4085
 6449SOL    HW225184  10.017   9.445   8.432  0.0425  2.0539  0.3170
 6450SOL     OW25185   2.982   2.362   2.494 -0.0613 -0.4209 -0.1247
 6450SOL    HW125186   2.958   2.271   2.477 -1.5844  0.2626 -2.0790
 6450SOL    HW225187   2.926   2.388   2.566  1.0296 -1.2471  1.0637
 6451SOL     OW25188   8.861   4.011   3.570  0.1974  0.2375 -0.5058
 6451SOL    HW125189   8.834   3.921   3.592 -0.1144  0.8453  1.9042
 6451SOL    HW225190   8.956   4.011   3.585  0.5079 -0.1418 -2.3313
 6452SOL     OW25191   2.122  10.892   4.341  0.0642 -0.1130  0.3856
 6452SOL    HW125192   2.187  10.936   4.285 -0.3602 -1.0085 -0.8460
 6452SOL    HW225193   2.155  10.803   4.351 -1.0487 -0.6371 -0.4195
 6453SOL     OW25194   2.835   0.294   7.974 -0.0959  0.4234 -0.5097
 6453SOL    HW125195   2.845   0.233   7.900  0.6522 -0.0815 -0.0080
 6453SOL    HW225196   2.860   0.379   7.938  3.9250 -0.3682  0.0143
 6454SOL     OW25197   4.986   7.318   6.599  0.2004  0.0844  0.1523
 6454SOL    HW125198   4.974   7.225   6.579 -0.4287  0.1219  0.3256
 6454SOL    HW225199   5.040   7.351   6.527 -0.7834 -0.1092 -0.7015
 6455SOL     OW25200   3.391   6.023   8.538 -0.4482 -0.0740  0.2416
 6455SOL    HW125201   3.357   6.045   8.451 -0.4973  1.1105  0.5478
 6455SOL    HW225202   3.324   5.966   8.575 -0.8906  0.1856 -0.1381
 6456SOL     OW25203   5.251   7.521   8.692  0.3489 -0.3111 -0.8271
 6456SOL    HW125204   5.316   7.485   8.631 -0.7271 -1.9826 -1.0505
 6456SOL    HW225205   5.225   7.447   8.745 -1.3532  0.3248 -0.7230
 6457SOL     OW25206   9.529   1.468   9.807 -0.5294  0.1047  0.1443
 6457SOL    HW125207   9.470   1.541   9.790  1.8954  2.1842  0.2012
 6457SOL    HW225208   9.538   1.466   9.902 -0.5824 -0.3044  0.1434
 6458SOL     OW25209   9.641  10.276   1.260 -0.0530  0.2899  0.0126
 6458SOL    HW125210   9.685  10.191   1.261  0.0211  0.3333  0.5408
 6458SOL    HW225211   9.548  10.254   1.251  0.0026  0.1719 -0.3060
 6459SOL     OW25212   6.320  10.631   3.612  0.2576 -0.2450  0.1741
 6459SOL    HW125213   6.373  10.562   3.651 -0.4301 -1.0368 -0.2607
 6459SOL    HW225214   6.346  10.632   3.520  0.2629  0.0799  0.1776
 6460SOL     OW25215   2.268   8.715  10.118 -0.2139 -0.1570  0.3580
 6460SOL    HW125216   2.221   8.632  10.113 -1.4846  0.5206  0.5377
 6460SOL    HW225217   2.343   8.704  10.060 -1.0598 -0.9924 -0.6200
 6461SOL     OW25218   4.394   7.677   1.564 -0.1645 -0.0817 -0.0904
 6461SOL    HW125219   4.380   7.683   1.469 -0.5377  1.3787  0.0263
 6461SOL    HW225220   4.329   7.613   1.594 -1.5108  1.0048 -0.5691
 6462SOL     OW25221   8.572   0.580   8.434 -0.1728  0.0469 -0.2194
 6462SOL    HW125222   8.569   0.650   8.499 -1.0514 -0.9844  0.9147
 6462SOL    HW225223   8.656   0.590   8.391 -0.6248  2.2988 -0.6817
 6463SOL     OW25224   8.707   0.026   5.650  0.3686 -0.1439 -0.1029
 6463SOL    HW125225   8.671   0.049   5.564  2.1230  1.5983 -0.4449
 6463SOL    HW225226   8.761  -0.051   5.635  0.9630  0.3721 -0.6708
 6464SOL     OW25227   1.634   0.274   9.251  0.7228 -0.0589  0.0920
 6464SOL    HW125228   1.602   0.237   9.169  0.0543 -1.0094  0.7734
 6464SOL    HW225229   1.556   0.311   9.292  1.2619  1.5973 -0.2730
 6465SOL     OW25230   6.345   1.294   3.879  0.1073  0.1902 -0.0198
 6465SOL    HW125231   6.374   1.334   3.961 -1.0685  0.1193  0.4606
 6465SOL    HW225232   6.311   1.208   3.905 -0.4478  0.2417 -0.5426
 6466SOL     OW25233  10.501  10.290   9.697  0.1237  0.8106 -0.5872
 6466SOL    HW125234  10.563  10.328   9.634  0.3386  0.0609 -0.8465
 6466SOL    HW225235  10.415  10.305   9.658  0.2138  0.9248 -0.7439
 6467SOL     OW25236   7.317   4.266   8.454  0.2854 -0.1567 -0.1884
 6467SOL    HW125237   7.388   4.330   8.449  0.1753 -0.0068  0.1348
 6467SOL    HW225238   7.250   4.308   8.508  0.5938 -0.9034  0.8149
 6468SOL     OW25239   8.580   2.569   1.249  0.0297  0.7020 -0.1227
 6468SOL    HW125240   8.562   2.663   1.239 -2.3334  0.6686  2.4468
 6468SOL    HW225241   8.497   2.526   1.228  0.7484 -0.7336 -0.1682
 6469SOL     OW25242  10.427   0.205   2.245  0.5257 -0.2254 -0.1450
 6469SOL    HW125243  10.480   0.149   2.187 -1.1892 -0.6745 -1.3724
 6469SOL    HW225244  10.401   0.279   2.190 -1.0549 -0.6090  0.0244
 6470SOL     OW25245   6.418   7.899   0.052 -0.2187 -0.0222 -0.2913
 6470SOL    HW125246   6.357   7.906   0.125 -0.3757 -0.1016 -0.4134
 6470SOL    HW225247   6.451   7.988   0.039 -0.0109 -0.0515  0.0270
 6471SOL     OW25248   6.788   2.021   2.990 -0.3279  0.5429  0.0083
 6471SOL    HW125249   6.849   1.987   2.924  1.5210  2.6357  0.5130
 6471SOL    HW225250   6.829   1.999   3.073 -1.4752 -0.0302  0.4479
 6472SOL     OW25251   8.323   4.324   6.012 -0.7710 -0.6325 -0.3454
 6472SOL    HW125252   8.319   4.363   5.925  2.6688 -0.1245 -0.4185
 6472SOL    HW225253   8.371   4.388   6.065 -1.9964 -1.3287  1.7294
 6473SOL     OW25254  10.468   3.604   2.536  0.4057 -0.5224  0.3126
 6473SOL    HW125255  10.508   3.590   2.451 -0.5027  0.7271 -0.3605
 6473SOL    HW225256  10.407   3.532   2.546  0.9914 -1.0402  0.2149
 6474SOL     OW25257   3.268   0.233   2.606 -0.3768 -0.2549  0.0667
 6474SOL    HW125258   3.328   0.298   2.644 -1.5625  0.9067  0.0408
 6474SOL    HW225259   3.260   0.165   2.673 -1.8484  1.3876  1.6706
 6475SOL     OW25260   6.806   3.764   6.729 -0.0113 -0.1363 -0.2616
 6475SOL    HW125261   6.741   3.719   6.675 -0.4374  0.9628 -0.7001
 6475SOL    HW225262   6.877   3.701   6.739 -0.9925 -1.2531 -0.0447
 6476SOL     OW25263  10.887   2.770   6.828  0.3415  0.1400  0.5002
 6476SOL    HW125264  10.793   2.770   6.843  0.5398 -0.9073  1.9959
 6476SOL    HW225265  10.900   2.704   6.759 -0.1420  1.4849 -0.9212
 6477SOL     OW25266   7.940   3.466   9.292  0.2537  0.1546 -0.2435
 6477SOL    HW125267   8.026   3.432   9.317  0.4387  0.6653 -0.1840
 6477SOL    HW225268   7.885   3.453   9.369  0.0574 -0.9012 -0.5422
 6478SOL     OW25269   6.152   6.121   6.867 -0.4738 -0.1731  0.0428
 6478SOL    HW125270   6.152   6.208   6.828  2.7410 -0.0587 -0.0085
 6478SOL    HW225271   6.211   6.070   6.811 -0.2526 -1.6431  1.5317
 6479SOL     OW25272  10.774   4.502   3.962  0.5871 -0.1509  0.1133
 6479SOL    HW125273  10.771   4.412   3.927 -0.4134  0.6227 -1.9489
 6479SOL    HW225274  10.837   4.547   3.906 -0.6499  1.0033 -0.4097
 6480SOL     OW25275   6.811   6.010  10.400 -0.5267 -0.3428 -0.0644
 6480SOL    HW125276   6.902   6.040  10.397 -0.5589 -0.3535 -1.8229
 6480SOL    HW225277   6.799   5.983  10.491  0.4794  1.8862  0.8178
 6481SOL     OW25278   0.550   7.021   9.494 -0.4083 -0.1480 -0.1365
 6481SOL    HW125279   0.507   7.015   9.579 -1.9586  0.9211 -0.8149
 6481SOL    HW225280   0.511   6.950   9.443  0.9715 -1.1897  0.1950
 6482SOL     OW25281   1.575   7.029   4.218  0.1193 -0.1499  0.3728
 6482SOL    HW125282   1.567   6.971   4.142  0.3131 -2.0395  1.7223
 6482SOL    HW225283   1.489   7.026   4.260 -1.0599  3.3702 -1.3183
 6483SOL     OW25284   1.493   9.677   2.854 -0.4938 -0.3681 -0.2428
 6483SOL    HW125285   1.539   9.734   2.793  0.3876 -0.1970  0.5622
 6483SOL    HW225286   1.556   9.608   2.875 -0.4546  0.0851  1.1834
 6484SOL     OW25287   1.225   4.909  10.298 -0.4579  0.5097  0.3348
 6484SOL    HW125288   1.222   4.999  10.264  0.5275  0.4899  0.1857
 6484SOL    HW225289   1.172   4.858  10.237 -2.4722  1.2596  1.3333
 6485SOL     OW25290   0.719   6.953   5.554 -0.8165  0.0040  0.3831
 6485SOL    HW125291   0.691   6.993   5.636  1.4600 -1.0405  1.7836
 6485SOL    HW225292   0.747   6.865   5.579 -1.0364 -0.7186 -1.7224
 6486SOL     OW25293   4.404   3.700   1.008  0.4010  0.2539 -0.1729
 6486SOL    HW125294   4.338   3.734   0.947 -0.6167 -1.2218  0.0312
 6486SOL    HW225295   4.406   3.763   1.080  0.6414  1.3178 -1.0831
 6487SOL     OW25296   1.977   2.256   0.361 -0.3412  0.2969 -0.2415
 6487SOL    HW125297   2.044   2.248   0.429 -0.6297 -0.8107 -0.0716
 6487SOL    HW225298   1.913   2.317   0.398 -0.0756  0.3579  0.1264
 6488SOL     OW25299   0.849   8.578  10.878  0.4666 -0.0387  0.4722
 6488SOL    HW125300   0.887   8.549  10.961 -0.0823 -1.6332  0.1985
 6488SOL    HW225301   0.904   8.537  10.812  1.1892  1.6066  0.0046
 6489SOL     OW25302   8.419   8.008   9.701  0.2352 -0.2581  0.5963
 6489SOL    HW125303   8.459   8.081   9.653  0.1523  0.2629  1.3110
 6489SOL    HW225304   8.392   8.046   9.785 -0.0995 -1.0368  0.8488
 6490SOL     OW25305   0.449   2.531   5.199  0.8820 -0.0007  0.2348
 6490SOL    HW125306   0.434   2.625   5.193  0.0069  0.0152  2.0970
 6490SOL    HW225307   0.415   2.506   5.285  0.0679 -2.2150 -0.6588
 6491SOL     OW25308   9.285   6.855   3.987 -0.2076  0.1292  0.1182
 6491SOL    HW125309   9.259   6.947   3.992 -2.0635 -0.3513 -0.1172
 6491SOL    HW225310   9.274   6.832   3.895 -1.8491 -0.8670  0.5182
 6492SOL     OW25311   7.121   8.075   2.960  0.0428 -0.4064  0.0046
 6492SOL    HW125312   7.092   8.128   3.034 -0.4590  1.3077 -1.3481
 6492SOL    HW225313   7.196   8.122   2.924  0.5320 -1.4254 -0.3430
 6493SOL     OW25314   4.900   7.420   8.798  0.4578 -0.4953 -0.5511
 6493SOL    HW125315   4.846   7.450   8.871 -0.9753 -0.7037 -1.4832
 6493SOL    HW225316   4.974   7.376   8.839 -0.5149 -0.9473  0.7754
 6494SOL     OW25317   2.441   1.055   2.280 -0.0899  0.0844  0.6194
 6494SOL    HW125318   2.461   1.084   2.191 -0.9208 -1.1054  0.0203
 6494SOL    HW225319   2.452   1.133   2.334 -0.4850  1.0625 -0.6704
 6495SOL     OW25320   8.299   0.005   0.694  0.4795 -0.0886  0.8862
 6495SOL    HW125321   8.379   0.004   0.747 -0.3054  1.1963  2.1756
 6495SOL    HW225322   8.235  -0.045   0.746 -0.0318  0.3610  0.7033
 6496SOL     OW25323   2.784   5.228   1.504  0.5918  0.0549 -0.7555
 6496SOL    HW125324   2.735   5.308   1.523  0.6258 -0.1090  0.0369
 6496SOL    HW225325   2.724   5.175   1.452  0.6872  0.7220 -1.5901
 6497SOL     OW25326   7.740  10.230   3.075 -0.3063 -0.5323 -0.5492
 6497SOL    HW125327   7.714  10.270   2.992  0.5769  1.1120 -0.0845
 6497SOL    HW225328   7.677  10.264   3.138  0.6355  0.4277 -0.0925
 6498SOL     OW25329   0.561  10.479   4.761  0.5305  0.0622 -0.2143
 6498SOL    HW125330   0.478  10.445   4.728  1.7416 -0.4454 -3.1063
 6498SOL    HW225331   0.598  10.408   4.813 -0.8634  0.3645  1.2532
 6499SOL     OW25332   8.744   9.143   4.921 -0.2055 -0.5811  0.3181
 6499SOL    HW125333   8.705   9.192   4.994 -1.2150 -0.8483 -0.0244
 6499SOL    HW225334   8.777   9.211   4.862  0.4824 -0.3602  0.9369
 6500SOL     OW25335   2.926   6.497   6.679  0.5653 -0.2959 -0.7273
 6500SOL    HW125336   2.866   6.505   6.605 -1.7479 -0.0540  1.0544
 6500SOL    HW225337   2.938   6.587   6.709 -0.0501 -0.5239  0.2759
 6501SOL     OW25338   2.301   8.477   8.951 -0.1176  0.0998 -0.0433
 6501SOL    HW125339   2.331   8.393   8.916  0.9649  0.6455 -0.4814
 6501SOL    HW225340   2.372   8.538   8.930 -1.5112  1.4525 -1.0383
 6502SOL     OW25341   6.401   4.455   1.883 -0.1793  0.1816 -0.3249
 6502SOL    HW125342   6.395   4.545   1.850 -2.6306 -0.5252 -2.0988
 6502SOL    HW225343   6.445   4.407   1.813  1.2336 -0.0352  0.6719
 6503SOL     OW25344   4.590   6.402   1.845 -0.2300 -0.0797  0.1734
 6503SOL    HW125345   4.543   6.432   1.767 -0.8033  0.9774  0.9053
 6503SOL    HW225346   4.661   6.347   1.810 -1.0968 -0.4919 -1.0295
 6504SOL     OW25347   1.219   2.961   5.165 -0.1495  0.2975  0.3746
 6504SOL    HW125348   1.236   2.882   5.113  0.2830  0.3047  0.4976
 6504SOL    HW225349   1.193   3.027   5.101  1.7898  0.7240 -0.0446
 6505SOL     OW25350   8.040  10.438   2.570 -0.4449 -0.3643  0.3850
 6505SOL    HW125351   8.078  10.375   2.508 -0.6367  0.7075 -0.8485
 6505SOL    HW225352   8.076  10.411   2.655 -0.5552 -2.1592 -0.0888
 6506SOL     OW25353   5.504   1.821   9.165  0.1712 -0.3607  0.3191
 6506SOL    HW125354   5.457   1.874   9.230  0.1756 -0.4581  0.4016
 6506SOL    HW225355   5.502   1.732   9.200  1.6940 -0.1377  1.0579
 6507SOL     OW25356   5.821   3.458   9.487  0.2032  0.2939  0.0803
 6507SOL    HW125357   5.855   3.460   9.576  0.2045  0.9675  0.0710
 6507SOL    HW225358   5.768   3.537   9.480  2.2308  1.6321 -1.3005
 6508SOL     OW25359   4.354   2.146   4.294  0.1414  0.1133 -0.4306
 6508SOL    HW125360   4.436   2.141   4.245  0.6421  1.2109  0.2489
 6508SOL    HW225361   4.338   2.057   4.324  0.5800 -0.2934 -1.3701
 6509SOL     OW25362   6.285   1.464   6.563  0.1080 -0.3502  1.0070
 6509SOL    HW125363   6.306   1.533   6.500  2.3388 -0.3783  1.6146
 6509SOL    HW225364   6.273   1.386   6.509  1.3450 -0.2368  0.5141
 6510SOL     OW25365   3.213   7.103   7.750 -0.2440  0.0190 -0.3332
 6510SOL    HW125366   3.170   7.164   7.809 -1.5629 -1.2426  0.0852
 6510SOL    HW225367   3.301   7.092   7.786 -0.5107  0.4705  0.4722
 6511SOL     OW25368  10.908   0.868   6.480  0.4255  0.1570  0.4323
 6511SOL    HW125369  10.991   0.875   6.433 -0.3029  1.7222 -0.6653
 6511SOL    HW225370  10.856   0.806   6.429  0.4396  0.1762  0.3948
 6512SOL     OW25371   7.777   3.475   9.531 -0.5594  0.5092  0.2723
 6512SOL    HW125372   7.821   3.464   9.616 -0.1748  0.2400  0.0466
 6512SOL    HW225373   7.731   3.392   9.517  2.7139 -1.2457 -1.6454
 6513SOL     OW25374   4.272   8.339   2.327 -0.3841 -0.1340  0.1110
 6513SOL    HW125375   4.222   8.301   2.399  0.9612 -1.1115  0.5840
 6513SOL    HW225376   4.318   8.265   2.288  0.4150  0.6577 -0.5118
 6514SOL     OW25377  10.852  10.358   8.918  0.1362 -0.6473  0.0066
 6514SOL    HW125378  10.776  10.310   8.883  0.4875 -0.7988 -0.5599
 6514SOL    HW225379  10.835  10.363   9.012 -1.5977  1.1275 -0.3251
 6515SOL     OW25380   0.932   5.432   1.961 -0.7614  0.2470 -0.1800
 6515SOL    HW125381   0.874   5.383   2.020 -1.1142  0.1295 -0.6224
 6515SOL    HW225382   1.020   5.399   1.981 -0.8964  0.1039  0.1800
 6516SOL     OW25383   7.877   9.584   7.914  0.0346 -0.0566  0.5853
 6516SOL    HW125384   7.851   9.493   7.925 -2.8712  0.8373  2.1796
 6516SOL    HW225385   7.802   9.625   7.870  0.3159  1.9446  1.8320
 6517SOL     OW25386   0.363   2.804   5.272  0.1609  0.1098 -0.1451
 6517SOL    HW125387   0.400   2.862   5.339  0.6005 -1.1163  0.6982
 6517SOL    HW225388   0.306   2.861   5.220 -1.4935  0.7825  2.2721
 6518SOL     OW25389   2.452   5.443   6.820  0.0621 -0.2469  0.7320
 6518SOL    HW125390   2.537   5.424   6.781  0.4485 -0.7586  1.7859
 6518SOL    HW225391   2.460   5.532   6.855  0.2844 -0.4301  1.1473
 6519SOL     OW25392   0.224  10.896   3.376  0.1462 -0.5715  0.5447
 6519SOL    HW125393   0.239  10.839   3.452  1.1263  0.0707  0.8618
 6519SOL    HW225394   0.312  10.917   3.345 -0.1923  0.6716  0.3695
 6520SOL     OW25395   7.158   3.098   9.806  0.5787 -0.2797  0.0440
 6520SOL    HW125396   7.164   3.024   9.745  0.3703  1.3968 -2.1123
 6520SOL    HW225397   7.064   3.115   9.813  0.6990  1.6790 -2.0045
 6521SOL     OW25398   6.784   6.945   3.149 -0.1286 -0.5227  0.0035
 6521SOL    HW125399   6.814   6.921   3.236  1.6960 -0.6697 -0.6111
 6521SOL    HW225400   6.692   6.968   3.160 -0.2450 -1.6727  1.7376
 6522SOL     OW25401   5.126   1.540   7.806  0.0973  0.0338  0.2657
 6522SOL    HW125402   5.112   1.635   7.804  0.2495  0.0864  1.2140
 6522SOL    HW225403   5.194   1.527   7.872 -0.1990 -0.7681  0.4294
 6523SOL     OW25404  10.585   5.626   0.990  0.2404  0.1708  0.6280
 6523SOL    HW125405  10.676   5.609   1.015  0.7463  3.0074  1.0456
 6523SOL    HW225406  10.533   5.592   1.062  1.2294  1.3617  1.9772
 6524SOL     OW25407   8.353   6.371   2.473  0.1516  0.5916 -0.0407
 6524SOL    HW125408   8.429   6.345   2.524 -0.1346  0.8746  0.5385
 6524SOL    HW225409   8.359   6.319   2.393  1.5129  1.3789 -0.4801
 6525SOL     OW25410   2.651   8.914   0.817 -0.3947  0.1499 -0.6662
 6525SOL    HW125411   2.581   8.867   0.861  0.6726 -0.6741  0.2236
 6525SOL    HW225412   2.724   8.852   0.814  0.5279  1.2030 -0.9336
 6526SOL     OW25413   8.434   2.860   4.816 -0.0778 -0.2186 -0.0894
 6526SOL    HW125414   8.481   2.806   4.879 -1.3993  0.1959  1.3209
 6526SOL    HW225415   8.477   2.945   4.820  0.6695 -0.5526 -0.7500
 6527SOL     OW25416   8.294   0.829   6.543  0.3619 -0.5965  0.1760
 6527SOL    HW125417   8.295   0.765   6.614  1.5102 -0.8307 -0.0347
 6527SOL    HW225418   8.332   0.783   6.469 -0.3679 -0.1922 -0.4615
 6528SOL     OW25419   6.595   7.421   3.623  0.3213  0.1294  0.3527
 6528SOL    HW125420   6.546   7.346   3.589 -0.3174 -1.1048  3.5968
 6528SOL    HW225421   6.685   7.404   3.598 -0.1259 -0.4829 -0.9466
 6529SOL     OW25422   2.242   4.749   3.232 -0.2809  0.3264 -0.5097
 6529SOL    HW125423   2.279   4.816   3.290 -0.8472 -0.5430  0.9034
 6529SOL    HW225424   2.176   4.796   3.181 -1.6011  0.6273  1.3835
 6530SOL     OW25425   5.528   2.903   3.310  0.0039  0.4614 -0.0080
 6530SOL    HW125426   5.461   2.846   3.347 -0.8202  2.3620  1.6437
 6530SOL    HW225427   5.484   2.988   3.300  1.4757  1.1179 -1.3142
 6531SOL     OW25428   5.153   7.497  10.547  0.2707 -0.0788 -0.1043
 6531SOL    HW125429   5.062   7.472  10.528  0.4374 -0.2488 -0.7141
 6531SOL    HW225430   5.159   7.498  10.642 -0.3474 -0.1584 -0.0627
 6532SOL     OW25431  10.920   8.071   3.650 -0.4074 -0.1581  0.0047
 6532SOL    HW125432  10.834   8.055   3.612 -1.0517  1.7462  0.5317
 6532SOL    HW225433  10.977   8.007   3.608 -1.7804 -0.4822 -1.4706
 6533SOL     OW25434   3.814   1.733   3.151 -0.0652  0.1776  0.8660
 6533SOL    HW125435   3.736   1.686   3.122 -1.3134  2.2133  0.7287
 6533SOL    HW225436   3.782   1.796   3.215  1.4290  1.1931  0.6679
 6534SOL     OW25437   7.412   7.272   8.118 -0.3329 -0.1024 -0.0792
 6534SOL    HW125438   7.420   7.177   8.122  0.3672 -0.0887 -0.9798
 6534SOL    HW225439   7.502   7.304   8.120 -0.5715  0.5506  0.3776
 6535SOL     OW25440   7.795   6.847   9.392 -0.4395 -0.0173  0.5743
 6535SOL    HW125441   7.818   6.924   9.341  0.1306 -0.1414  0.6403
 6535SOL    HW225442   7.718   6.811   9.348 -1.6839  1.4513  1.4293
 6536SOL     OW25443   8.275   6.492  10.875  0.4753  0.1632  0.4965
 6536SOL    HW125444   8.249   6.421  10.934 -0.1540 -0.5041 -0.5506
 6536SOL    HW225445   8.217   6.482  10.799  2.8421 -0.4994 -1.3435
 6537SOL     OW25446   2.391   8.765   2.440  0.2792 -0.0958 -0.3561
 6537SOL    HW125447   2.462   8.704   2.458 -1.4475 -1.5770  1.9518
 6537SOL    HW225448   2.373   8.754   2.347  1.3560 -1.6143 -0.4222
 6538SOL     OW25449   9.479   3.327   0.314  0.5319  0.7216 -0.0930
 6538SOL    HW125450   9.521   3.276   0.245  4.1338  1.9129  1.0389
 6538SOL    HW225451   9.510   3.416   0.301 -2.6755  2.0146  0.2008
 6539SOL     OW25452   2.775   5.277   2.127 -0.0289  0.3852 -0.1416
 6539SOL    HW125453   2.717   5.297   2.054 -0.4385  0.3491  0.1731
 6539SOL    HW225454   2.840   5.217   2.090 -1.5518 -1.4644  0.0617
 6540SOL     OW25455   6.119   9.863   8.560 -0.0511  0.3819  0.1740
 6540SOL    HW125456   6.150   9.816   8.638 -1.2574  0.0911  0.5061
 6540SOL    HW225457   6.083   9.945   8.595 -1.7568 -0.2967  0.1076
 6541SOL     OW25458   4.414  10.766   7.967  0.2979  0.0680 -0.0402
 6541SOL    HW125459   4.471  10.700   8.005 -0.1449 -0.7025 -0.6722
 6541SOL    HW225460   4.458  10.849   7.984  0.3090 -0.2818  1.7451
 6542SOL     OW25461   9.220   4.064   0.447 -0.1192 -0.1242  0.0395
 6542SOL    HW125462   9.207   4.139   0.505 -2.8150 -0.2384 -0.3115
 6542SOL    HW225463   9.217   4.101   0.358 -1.5856 -0.6204 -0.1405
 6543SOL     OW25464   5.628  10.091   5.276  0.8349 -0.3770  0.2666
 6543SOL    HW125465   5.615  10.084   5.182 -1.1946  1.8133  0.3200
 6543SOL    HW225466   5.576  10.019   5.313  0.9469 -0.7181 -0.2320
 6544SOL     OW25467   0.060   4.885   5.113  0.3222  0.5916  0.1887
 6544SOL    HW125468   0.017   4.957   5.066 -1.9019  0.0764  1.2813
 6544SOL    HW225469   0.117   4.928   5.177  1.4973  1.3083 -1.2867
 6545SOL     OW25470   9.528   4.648   6.091  0.3375  0.5712  0.3632
 6545SOL    HW125471   9.558   4.717   6.150  0.8696  1.1002 -0.5119
 6545SOL    HW225472   9.525   4.690   6.005 -0.5574 -0.1535  0.0282
 6546SOL     OW25473   3.163   3.024   0.808 -0.4193  0.7034 -0.0743
 6546SOL    HW125474   3.244   2.990   0.771 -0.3863  1.3903 -0.6601
 6546SOL    HW225475   3.094   2.979   0.760 -0.3779  0.9701 -0.3864
 6547SOL     OW25476   0.650   7.343  10.723 -0.3847  0.1771  0.0610
 6547SOL    HW125477   0.589   7.321  10.653 -0.5506  0.9358 -0.0421
 6547SOL    HW225478   0.595   7.357  10.800 -0.3402  0.7604 -0.0063
 6548SOL     OW25479   0.380   8.063   3.547  0.3621 -0.1354 -0.4607
 6548SOL    HW125480   0.472   8.065   3.518  0.9694 -1.1343  1.2268
 6548SOL    HW225481   0.376   8.127   3.618 -0.1658 -0.3458 -0.2997
 6549SOL     OW25482   1.236   3.631   2.134 -0.4789  0.1524  0.5228
 6549SOL    HW125483   1.281   3.550   2.158  0.2297  0.4995  0.3918
 6549SOL    HW225484   1.143   3.612   2.148 -0.3678 -0.8682 -0.0565
 6550SOL     OW25485   4.518   6.967   9.036 -0.0077  0.5016  0.1256
 6550SOL    HW125486   4.490   6.928   9.119  1.6137 -1.1810 -0.0553
 6550SOL    HW225487   4.582   7.033   9.062  1.4952 -0.9263  0.2196
 6551SOL     OW25488   4.505   7.216   1.998  0.5153  0.8767  0.7083
 6551SOL    HW125489   4.424   7.267   1.997  1.4855  2.4824 -0.5340
 6551SOL    HW225490   4.478   7.129   2.028 -1.6804  1.3389  0.2504
 6552SOL     OW25491  10.528   1.207   5.629  0.2253 -0.2825  0.0972
 6552SOL    HW125492  10.511   1.222   5.723 -1.3021 -0.1986 -0.1596
 6552SOL    HW225493  10.480   1.127   5.609  1.1861 -0.7275 -0.4583
 6553SOL     OW25494   4.788   5.282   7.293  0.4790  0.3820 -0.1349
 6553SOL    HW125495   4.810   5.236   7.212  0.6448  0.4171 -0.1108
 6553SOL    HW225496   4.811   5.220   7.362 -0.0799  0.1800 -0.1272
 6554SOL     OW25497   0.996   2.297   9.856  0.4242 -0.0668  0.1954
 6554SOL    HW125498   0.997   2.393   9.860  1.1081 -0.0897  0.6978
 6554SOL    HW225499   0.924   2.277   9.796 -0.0695  0.7479  0.4884
 6555SOL     OW25500  10.922   9.642   9.201 -0.1402  0.2215 -0.1543
 6555SOL    HW125501  10.858   9.687   9.145 -0.1780  0.4294  0.0554
 6555SOL    HW225502  10.945   9.563   9.152  0.1162  0.5955 -0.6382
 6556SOL     OW25503   7.782   0.924   1.396  0.2434  0.4109  0.6005
 6556SOL    HW125504   7.785   0.924   1.492  0.8798  0.5035  0.5816
 6556SOL    HW225505   7.870   0.948   1.369  0.3956 -0.7738 -0.0182
 6557SOL     OW25506   3.557   6.418   3.792 -0.3480  0.3019  0.6006
 6557SOL    HW125507   3.583   6.447   3.704 -0.9758  1.4589  0.7730
 6557SOL    HW225508   3.635   6.377   3.828  0.9191  2.5972  0.6523
 6558SOL     OW25509   2.206  10.101   3.415 -0.1196 -0.2672  0.5046
 6558SOL    HW125510   2.233  10.029   3.358 -1.5482 -0.4685  0.0430
 6558SOL    HW225511   2.270  10.170   3.397  0.0178 -0.6685 -0.6471
 6559SOL     OW25512   1.030   8.317   1.245  0.0995 -0.6707 -0.0859
 6559SOL    HW125513   0.972   8.259   1.293 -0.2392  0.3484  0.7750
 6559SOL    HW225514   1.095   8.259   1.206 -0.1226 -1.6095  0.8950
 6560SOL     OW25515   3.942   7.264   2.338  0.3651 -0.2583  0.0012
 6560SOL    HW125516   3.858   7.260   2.292  0.1466 -0.6844  0.4214
 6560SOL    HW225517   3.993   7.193   2.301  0.6401  0.1590 -0.4327
 6561SOL     OW25518   7.796   5.128   8.123  0.7552 -0.1886  0.2018
 6561SOL    HW125519   7.870   5.184   8.102  1.0436 -0.3308  0.8370
 6561SOL    HW225520   7.756   5.109   8.038  0.7319  0.8650 -0.0362
 6562SOL     OW25521   2.397   2.814   3.290 -0.3241  0.8089 -0.5713
 6562SOL    HW125522   2.312   2.770   3.297 -0.3083  0.6031 -1.5388
 6562SOL    HW225523   2.384   2.898   3.335 -0.3030 -0.2064  1.4679
 6563SOL     OW25524   8.045   5.415   5.324  0.1928  0.1753 -0.4858
 6563SOL    HW125525   7.958   5.376   5.333  0.6167 -1.1262 -1.6509
 6563SOL    HW225526   8.049   5.444   5.233  1.0955 -0.0859 -0.5387
 6564SOL     OW25527   9.679  10.730   1.269 -0.0324  0.8207  0.2284
 6564SOL    HW125528   9.620  10.714   1.196 -1.0670 -1.4985  1.4720
 6564SOL    HW225529   9.765  10.702   1.237  0.2433  3.0352 -1.1671
 6565SOL     OW25530   7.570   8.848   6.217 -0.0534 -0.4412 -0.9158
 6565SOL    HW125531   7.573   8.755   6.195  2.1079 -0.5103 -0.5035
 6565SOL    HW225532   7.490   8.880   6.175 -1.1886 -2.5961 -0.5067
 6566SOL     OW25533   3.830   1.660   7.096 -0.2367  0.1887 -0.1827
 6566SOL    HW125534   3.786   1.745   7.102 -0.9328 -0.1138 -0.8218
 6566SOL    HW225535   3.873   1.649   7.181 -0.8130  0.8144  0.1982
 6567SOL     OW25536   7.341   3.394   5.657  0.2239  0.5753 -0.0210
 6567SOL    HW125537   7.278   3.464   5.671  0.3129  1.0357 -1.7539
 6567SOL    HW225538   7.300   3.317   5.698 -0.5710  1.2786  0.5472
 6568SOL     OW25539   9.926   9.665   0.313 -0.3406  0.3972 -0.0277
 6568SOL    HW125540   9.991   9.654   0.244 -0.0064 -2.0979  0.6074
 6568SOL    HW225541   9.861   9.597   0.297  0.0066 -0.6002  2.3673
 6569SOL     OW25542  10.064   2.381   8.353  0.1965 -0.1190 -0.4046
 6569SOL    HW125543  10.064   2.369   8.258  0.2513  0.4034 -0.4738
 6569SOL    HW225544   9.978   2.351   8.381  0.4858 -1.0647 -0.5140
 6570SOL     OW25545   5.921   3.434  10.632  0.2088 -0.2383 -0.3150
 6570SOL    HW125546   5.848   3.458  10.689  1.3080 -1.0398  1.4971
 6570SOL    HW225547   5.903   3.480  10.550 -1.4472  0.9259  0.6422
 6571SOL     OW25548   1.667   1.046   3.543  0.0612  0.5109  0.3927
 6571SOL    HW125549   1.576   1.033   3.572 -0.4567  1.2157 -0.8502
 6571SOL    HW225550   1.682   0.975   3.481 -0.4386  1.6950 -1.1360
 6572SOL     OW25551   5.711   3.599   9.117 -0.5389 -0.4414  0.0513
 6572SOL    HW125552   5.645   3.567   9.179  0.3019 -1.2982  0.5130
 6572SOL    HW225553   5.784   3.538   9.125 -0.0946 -0.1155 -1.2229
 6573SOL     OW25554   1.538   1.594   3.642 -0.4274  0.3067 -0.4458
 6573SOL    HW125555   1.479   1.664   3.669  0.4971  0.8026  0.3724
 6573SOL    HW225556   1.605   1.592   3.710 -0.0290 -0.8813 -0.8531
 6574SOL     OW25557   5.868   6.026   2.864  0.1999  0.0147  0.0961
 6574SOL    HW125558   5.901   5.982   2.785  1.0917 -1.5552  1.2781
 6574SOL    HW225559   5.820   5.958   2.911 -0.2636  0.9083  0.9448
 6575SOL     OW25560   6.748   5.862   9.908  0.1158 -0.7953  0.6484
 6575SOL    HW125561   6.737   5.767   9.918  1.9448 -1.2316 -0.9376
 6575SOL    HW225562   6.660   5.897   9.922 -0.7470 -2.7810  0.6443
 6576SOL     OW25563   8.803   7.213   2.153  0.2338  0.0771  0.2719
 6576SOL    HW125564   8.834   7.144   2.094  0.2293  0.0659  0.2832
 6576SOL    HW225565   8.800   7.291   2.098 -3.3926 -0.6354 -0.8254
 6577SOL     OW25566   1.115   0.652   4.188  0.0096 -0.1096  0.6694
 6577SOL    HW125567   1.102   0.674   4.096 -1.5277 -1.1896  0.5884
 6577SOL    HW225568   1.206   0.623   4.193  0.1697  0.1500 -0.4682
 6578SOL     OW25569   1.910   1.776  10.481 -0.3015 -0.1792  0.4241
 6578SOL    HW125570   1.983   1.722  10.512  0.0308 -0.3607 -0.6365
 6578SOL    HW225571   1.884   1.826  10.558  0.2131 -0.9222  1.1085
 6579SOL     OW25572   0.365   4.711   2.010 -0.4176  0.0678 -0.1915
 6579SOL    HW125573   0.418   4.694   1.932 -0.7807 -0.6354 -0.2866
 6579SOL    HW225574   0.310   4.634   2.020 -1.4483  0.7938 -0.1016
 6580SOL     OW25575   1.600   4.330   7.225  0.1891  0.5795 -0.3494
 6580SOL    HW125576   1.538   4.310   7.295  0.5274 -0.1451 -0.2469
 6580SOL    HW225577   1.547   4.331   7.145  0.1211 -0.6809 -0.3509
 6581SOL     OW25578   0.974   6.651   2.740 -0.2903  0.1760 -0.1608
 6581SOL    HW125579   0.938   6.564   2.759 -1.4856  0.8081  0.5550
 6581SOL    HW225580   1.069   6.638   2.742 -0.4432 -0.9469  0.8052
 6582SOL     OW25581   8.702   7.756   2.074  0.4947  0.9376  0.3296
 6582SOL    HW125582   8.729   7.770   2.165  0.6230 -0.2250  0.4820
 6582SOL    HW225583   8.630   7.693   2.080 -0.1866  1.6360 -0.3086
 6583SOL     OW25584   5.779   7.945   5.125  0.0284  0.1576  0.7616
 6583SOL    HW125585   5.807   7.921   5.037  0.1238  0.3998  0.7247
 6583SOL    HW225586   5.843   8.010   5.154 -1.6163  2.3449 -0.1322
 6584SOL     OW25587   6.778   2.638  10.911  0.1379  0.1517 -0.3651
 6584SOL    HW125588   6.801   2.551  10.944 -1.0930 -0.0998 -0.1332
 6584SOL    HW225589   6.743   2.684  10.988 -1.7656 -0.0767 -1.0659
 6585SOL     OW25590   9.502   9.234   4.078 -0.6573 -0.1390 -0.3736
 6585SOL    HW125591   9.580   9.179   4.089  0.0146  0.7385 -0.6522
 6585SOL    HW225592   9.452   9.220   4.159  0.4043  0.2400  0.3694
 6586SOL     OW25593   3.281   8.316   3.283  0.7689 -0.3301  0.0951
 6586SOL    HW125594   3.323   8.399   3.261  0.7237 -0.6610 -1.3173
 6586SOL    HW225595   3.232   8.335   3.363  1.5174  0.7428  0.3288
 6587SOL     OW25596   8.704   2.448  10.798  0.4658 -0.3747  0.0870
 6587SOL    HW125597   8.729   2.536  10.824  0.3568 -0.1900 -0.4108
 6587SOL    HW225598   8.657   2.413  10.873  0.0227  0.2012  0.0900
 6588SOL     OW25599   3.639   8.228   6.847 -0.3416 -0.1426  0.2794
 6588SOL    HW125600   3.567   8.280   6.883 -0.5147  1.1294 -1.7148
 6588SOL    HW225601   3.704   8.225   6.916 -0.7214  2.0159  0.8066
 6589SOL     OW25602   3.754   2.748   0.399 -0.0023  0.0200 -0.1349
 6589SOL    HW125603   3.839   2.746   0.356 -0.4074  0.9760 -1.0230
 6589SOL    HW225604   3.691   2.740   0.328 -0.6740  0.4042  0.4037
 6590SOL     OW25605   7.845   5.911   6.517 -0.1718  0.6146 -0.0481
 6590SOL    HW125606   7.838   5.958   6.601 -1.6947  0.3981 -0.0334
 6590SOL    HW225607   7.799   5.966   6.454 -0.1032  0.1791 -0.4886
 6591SOL     OW25608   6.211   0.898  10.675 -0.0740  0.0731 -0.4244
 6591SOL    HW125609   6.216   0.920  10.768  0.4209  2.0605 -0.8611
 6591SOL    HW225610   6.301   0.878  10.650 -0.2483 -0.7315 -0.4295
 6592SOL     OW25611   3.932   3.062  10.484  0.4645 -0.0025  0.2048
 6592SOL    HW125612   3.985   3.103  10.416  1.3320 -0.0677  0.8260
 6592SOL    HW225613   3.922   2.971  10.455  0.6178  0.0309  0.0458
 6593SOL     OW25614   8.552   2.110   3.905 -0.6447 -0.6212 -0.7201
 6593SOL    HW125615   8.640   2.104   3.869  0.3879  0.2406  1.4684
 6593SOL    HW225616   8.533   2.021   3.935 -0.3320 -0.7093 -0.7732
 6594SOL     OW25617   0.998   0.807   2.030 -0.4630  0.1334 -1.0688
 6594SOL    HW125618   1.069   0.871   2.022  1.1667 -1.4201 -0.1085
 6594SOL    HW225619   0.989   0.793   2.124  0.8080 -2.5779 -1.2479
 6595SOL     OW25620  10.749   7.709   6.372 -0.0706  0.1099 -0.4055
 6595SOL    HW125621  10.763   7.780   6.309 -0.4660  0.5715  0.0202
 6595SOL    HW225622  10.687   7.745   6.435  0.6542 -0.2065  0.4958
 6596SOL     OW25623   6.542  10.919   3.976 -1.1280 -0.2833  0.0535
 6596SOL    HW125624   6.530  10.913   4.071 -0.9879 -1.3668  0.0232
 6596SOL    HW225625   6.621  10.867   3.959 -1.2639 -0.2615 -0.6762
 6597SOL     OW25626   0.009   6.171   1.895 -0.0785 -0.4013 -0.5122
 6597SOL    HW125627   0.030   6.246   1.840  2.7374 -1.7403 -1.4622
 6597SOL    HW225628   0.092   6.148   1.937 -1.5872 -0.9379  2.5077
 6598SOL     OW25629  10.554  10.651   4.620 -0.0758 -0.0087 -0.3161
 6598SOL    HW125630  10.588  10.736   4.645  0.5004 -0.6051  1.0009
 6598SOL    HW225631  10.605  10.627   4.542 -0.1094  0.7589 -0.5765
 6599SOL     OW25632   8.515   9.615   8.192 -0.9832 -0.0526  0.1358
 6599SOL    HW125633   8.445   9.550   8.200 -1.9751  0.7597 -1.3842
 6599SOL    HW225634   8.593   9.563   8.174 -1.6693 -0.8639 -0.5981
 6600SOL     OW25635   2.169   8.259   5.915 -0.2118  0.1375  0.4824
 6600SOL    HW125636   2.074   8.255   5.930 -0.7144 -1.3394 -2.3414
 6600SOL    HW225637   2.188   8.352   5.909 -1.8744  0.4537 -0.6643
 6601SOL     OW25638   8.733   2.035   5.837 -0.4206 -0.1818 -0.0268
 6601SOL    HW125639   8.812   2.055   5.887  0.7056 -2.0902 -0.9309
 6601SOL    HW225640   8.702   1.952   5.875 -0.5380 -0.7391 -1.2980
 6602SOL     OW25641   4.480   8.640   8.792 -0.0329  0.0665  0.2394
 6602SOL    HW125642   4.450   8.567   8.737 -2.6634  0.6848  0.7183
 6602SOL    HW225643   4.469   8.717   8.737  0.5821  0.3539  0.5105
 6603SOL     OW25644   1.661   7.136   2.426  0.3010  1.1892 -0.2305
 6603SOL    HW125645   1.717   7.057   2.430 -0.6823  0.4893  0.2042
 6603SOL    HW225646   1.608   7.123   2.348 -2.4804 -0.4687  1.7540
 6604SOL     OW25647   1.805   1.726   5.242 -0.2116  0.3946 -0.0929
 6604SOL    HW125648   1.861   1.799   5.268 -0.6097  0.4241  0.7296
 6604SOL    HW225649   1.728   1.768   5.203  0.3211  0.3544 -1.2152
 6605SOL     OW25650  10.199   4.576   4.112  0.4554  0.1326 -0.4624
 6605SOL    HW125651  10.209   4.490   4.071 -0.2409  0.6019 -1.7057
 6605SOL    HW225652  10.277   4.587   4.165  0.0118 -1.7609  0.6861
 6606SOL     OW25653   4.666   1.126  10.206 -0.4230  0.7710  0.2660
 6606SOL    HW125654   4.603   1.196  10.218 -0.4353  0.5554  1.6724
 6606SOL    HW225655   4.642   1.060  10.271 -0.1113 -0.3264 -0.6853
 6607SOL     OW25656   9.278   0.585   4.866  0.4550  0.0659 -0.3795
 6607SOL    HW125657   9.231   0.667   4.875  1.4849  0.5837  0.5880
 6607SOL    HW225658   9.355   0.607   4.813 -0.1184 -0.6629 -1.5550
 6608SOL     OW25659   2.079   9.203   1.187 -0.2672 -0.1705 -0.5914
 6608SOL    HW125660   2.059   9.239   1.273  1.8120  1.0801 -0.5793
 6608SOL    HW225661   2.047   9.269   1.125  0.6524  0.2229 -0.6657
 6609SOL     OW25662   2.872   4.069   7.744  0.7813  0.4427  0.1739
 6609SOL    HW125663   2.909   4.001   7.687  2.3180  1.6211 -0.3119
 6609SOL    HW225664   2.867   4.147   7.688  1.1573  1.3026  1.2930
 6610SOL     OW25665   2.493  10.827   6.050 -1.0850 -0.3107  0.5170
 6610SOL    HW125666   2.581  10.864   6.055 -1.4113  0.5701 -0.0902
 6610SOL    HW225667   2.485  10.794   5.960 -1.2093 -0.8378  0.7130
 6611SOL     OW25668   7.140   0.134   6.209 -0.2705 -0.1155  0.0598
 6611SOL    HW125669   7.073   0.075   6.176 -0.5033  0.4692 -0.5468
 6611SOL    HW225670   7.099   0.179   6.283 -0.8117  0.7200 -0.7118
 6612SOL     OW25671   5.571   4.688   1.578 -0.3188  0.4953  0.0301
 6612SOL    HW125672   5.637   4.626   1.545 -0.5757  0.6233 -0.7533
 6612SOL    HW225673   5.617   4.741   1.642  0.4784  0.8789 -0.8291
 6613SOL     OW25674   9.993   2.450   2.459 -0.3197  0.5704 -0.1413
 6613SOL    HW125675  10.076   2.473   2.502 -0.6853  1.0585  0.3070
 6613SOL    HW225676  10.015   2.444   2.366  0.6023 -1.0034  0.1426
 6614SOL     OW25677   4.010   6.482   9.605 -0.3381  0.2054 -0.3518
 6614SOL    HW125678   3.958   6.562   9.618 -0.5737 -0.0854  0.5385
 6614SOL    HW225679   3.950   6.411   9.629  0.3459 -0.1577  0.3034
 6615SOL     OW25680   9.407   0.678   6.473  0.1126 -0.2921 -0.6007
 6615SOL    HW125681   9.383   0.732   6.549 -0.5812 -0.8964 -0.3887
 6615SOL    HW225682   9.466   0.612   6.509 -0.3147 -0.6543 -0.5628
 6616SOL     OW25683   6.706   3.936   2.299  0.6731  0.7118 -0.7967
 6616SOL    HW125684   6.645   3.978   2.238  0.3292  1.3914  0.0089
 6616SOL    HW225685   6.711   3.846   2.268 -1.7518  0.2789 -0.1370
 6617SOL     OW25686   5.758   2.681   0.637  0.2065  0.3799  0.7040
 6617SOL    HW125687   5.801   2.713   0.558  0.5771  0.5575  0.9721
 6617SOL    HW225688   5.672   2.722   0.636 -0.6995 -1.4390 -0.8075
 6618SOL     OW25689   3.380   5.774   8.830 -0.2964  1.0494 -0.0840
 6618SOL    HW125690   3.410   5.773   8.921 -0.0008 -0.2769 -0.1736
 6618SOL    HW225691   3.287   5.796   8.835 -0.0626  1.9859  0.4424
 6619SOL     OW25692   4.702   4.094   9.924 -0.2616 -0.1929 -0.0755
 6619SOL    HW125693   4.775   4.056   9.974  1.5617  0.9731 -1.7218
 6619SOL    HW225694   4.708   4.188   9.940 -0.1066  0.1292 -1.8541
 6620SOL     OW25695   8.669   8.882   0.807 -0.0086  0.7880  0.0986
 6620SOL    HW125696   8.584   8.839   0.809  0.0962  0.3062 -2.4683
 6620SOL    HW225697   8.732   8.810   0.810  0.2362  0.9543 -0.8647
 6621SOL     OW25698   3.138   6.005   5.525  0.1798 -0.3079  0.0302
 6621SOL    HW125699   3.222   5.960   5.517 -0.3822 -1.4086  0.1980
 6621SOL    HW225700   3.150   6.086   5.474  0.9454 -1.0181 -0.9638
 6622SOL     OW25701   2.642   0.966   1.524 -0.0315  0.2397  0.0364
 6622SOL    HW125702   2.631   0.974   1.618 -0.4540 -0.4911  0.0583
 6622SOL    HW225703   2.553   0.958   1.490  0.1509 -2.7031 -0.0914
 6623SOL     OW25704   2.840   3.440   2.601  0.1789 -0.6635 -0.0601
 6623SOL    HW125705   2.823   3.529   2.571  3.2284  0.2584  0.6281
 6623SOL    HW225706   2.917   3.412   2.552  0.9118 -1.8729  1.6925
 6624SOL     OW25707  10.049   0.017   5.117 -0.1823 -0.3851 -0.3530
 6624SOL    HW125708  10.033  -0.053   5.055 -0.5215 -2.2787  1.7317
 6624SOL    HW225709  10.142   0.011   5.138 -0.1638 -0.0491 -0.3252
 6625SOL     OW25710   1.527   4.787   8.500 -0.5637 -0.2927  0.3596
 6625SOL    HW125711   1.589   4.754   8.566 -0.3589 -0.0136  0.3115
 6625SOL    HW225712   1.570   4.769   8.417 -0.1314  0.7170  0.3549
 6626SOL     OW25713   7.494   6.785   2.395  0.1205 -0.2057 -0.2892
 6626SOL    HW125714   7.494   6.763   2.488  1.3957 -1.4390 -0.5384
 6626SOL    HW225715   7.411   6.751   2.362  0.2260 -0.9319  0.1642
 6627SOL     OW25716  10.782   7.022   6.876  0.5589 -0.1834  0.4131
 6627SOL    HW125717  10.699   7.012   6.830 -0.0223 -0.2777  1.4399
 6627SOL    HW225718  10.785   6.947   6.935  1.2353 -0.0197  0.5911
 6628SOL     OW25719   1.505  10.218  10.311  0.3879 -0.0779  0.0117
 6628SOL    HW125720   1.573  10.229  10.244 -0.8914 -1.3913 -1.6222
 6628SOL    HW225721   1.521  10.130  10.346 -0.7523 -0.6255 -0.7861
 6629SOL     OW25722   2.309   2.682   0.612 -0.5409  0.2078  0.1203
 6629SOL    HW125723   2.302   2.634   0.529 -0.1664  2.0898 -1.0831
 6629SOL    HW225724   2.223   2.722   0.624 -0.3505  0.6005  0.1975
 6630SOL     OW25725   3.373   9.549  10.787 -0.0905  0.4394  0.7654
 6630SOL    HW125726   3.404   9.610  10.854 -0.2481 -0.0479  1.2897
 6630SOL    HW225727   3.388   9.462  10.825 -1.8356  0.1788  0.9451
 6631SOL     OW25728   7.205   4.124   6.519 -0.1589  0.8525  0.0919
 6631SOL    HW125729   7.128   4.101   6.466 -0.7849 -1.1888  1.7411
 6631SOL    HW225730   7.177   4.200   6.570 -1.2373 -0.0191  0.8582
 6632SOL     OW25731   3.041   1.575   1.684  0.1667 -0.0909  0.0027
 6632SOL    HW125732   3.025   1.666   1.706  1.2260 -0.1777  1.1678
 6632SOL    HW225733   3.070   1.534   1.765 -0.9853 -1.6542 -0.3068
 6633SOL     OW25734   8.550   1.114   1.286 -0.1216  0.0430 -0.2146
 6633SOL    HW125735   8.587   1.203   1.282 -0.8222  0.3042 -2.0928
 6633SOL    HW225736   8.622   1.060   1.319  0.7094  1.1183 -0.2051
 6634SOL     OW25737   1.886   1.441   0.128 -0.1833 -0.1756  0.3711
 6634SOL    HW125738   1.959   1.408   0.180 -1.1439  1.0088  2.5940
 6634SOL    HW225739   1.811   1.388   0.156 -0.6040  0.0802 -0.2529
 6635SOL     OW25740   0.071   0.046  10.130 -0.6589  0.5404 -0.5671
 6635SOL    HW125741   0.076   0.131  10.174 -0.5526  0.4834 -0.4687
 6635SOL    HW225742   0.076   0.068  10.037 -1.5601  0.7095 -0.5811
 6636SOL     OW25743   3.939   2.247   2.422 -0.4227 -0.8207  0.6822
 6636SOL    HW125744   4.021   2.223   2.378  0.4276  2.7509  0.0559
 6636SOL    HW225745   3.871   2.208   2.367  0.7849 -1.2102 -0.5954
 6637SOL     OW25746  10.065   8.812   8.904  0.0428  0.0717  0.0655
 6637SOL    HW125747  10.106   8.844   8.984  0.2405 -1.1021  0.4440
 6637SOL    HW225748  10.119   8.846   8.833 -0.6758  1.9295  0.3527
 6638SOL     OW25749   1.586   9.461   8.062 -0.3479 -0.2830 -0.0404
 6638SOL    HW125750   1.598   9.384   8.118  1.5770  1.2609  1.8537
 6638SOL    HW225751   1.552   9.529   8.121  0.4124  1.0027 -1.0190
 6639SOL     OW25752   5.416   2.478   8.435  0.3814 -0.2239 -0.2529
 6639SOL    HW125753   5.480   2.549   8.430 -1.5802  1.5489 -1.8732
 6639SOL    HW225754   5.462   2.402   8.401  2.0428  0.6309 -0.0421
 6640SOL     OW25755   9.230   9.789   4.403  0.4090  0.1763  0.6289
 6640SOL    HW125756   9.288   9.717   4.378  0.7717  0.2670  1.1764
 6640SOL    HW225757   9.275   9.867   4.373 -0.8317  0.0960 -1.5800
 6641SOL     OW25758   2.440   4.659   7.738 -0.8653  0.3900 -0.2341
 6641SOL    HW125759   2.478   4.730   7.686 -2.3074  0.7965 -0.7901
 6641SOL    HW225760   2.364   4.699   7.781 -1.6920 -0.7952 -0.5488
 6642SOL     OW25761  10.640   6.233   8.788 -0.2609 -0.1042  0.2680
 6642SOL    HW125762  10.570   6.175   8.818 -1.4103  0.4581 -1.1727
 6642SOL    HW225763  10.697   6.244   8.864 -1.4849 -0.9496  1.3540
 6643SOL     OW25764   4.487   1.811   0.783  0.3670  0.1615  0.6042
 6643SOL    HW125765   4.480   1.899   0.745  3.6664  0.4595  0.4466
 6643SOL    HW225766   4.502   1.753   0.709  0.4537 -0.2043  0.9033
 6644SOL     OW25767   3.787   0.577   7.464  0.2977  0.2252  0.0397
 6644SOL    HW125768   3.750   0.631   7.394 -0.2287 -1.7067 -1.2304
 6644SOL    HW225769   3.877   0.610   7.474  0.6615  0.0123 -2.1316
 6645SOL     OW25770   8.937   0.370   8.587  0.1823 -0.1312  0.0570
 6645SOL    HW125771   8.942   0.463   8.568  1.3722  0.0216  0.9801
 6645SOL    HW225772   8.861   0.361   8.644 -0.1036  0.2258 -0.2656
 6646SOL     OW25773   4.747   2.112   4.390 -0.3207  0.5167 -0.2387
 6646SOL    HW125774   4.686   2.096   4.319  0.4283 -0.1887 -0.7381
 6646SOL    HW225775   4.776   2.024   4.417 -0.1986  0.7996  0.5826
 6647SOL     OW25776   9.662   1.798   2.922 -0.1223 -0.1768 -0.2861
 6647SOL    HW125777   9.572   1.766   2.907 -0.7844  2.0231 -1.4674
 6647SOL    HW225778   9.699   1.804   2.834  0.3518  1.1431 -0.0109
 6648SOL     OW25779   3.327  10.019   6.503 -0.4714 -0.9690 -0.1694
 6648SOL    HW125780   3.413   9.976   6.504 -1.2027 -2.8211 -3.1869
 6648SOL    HW225781   3.265   9.947   6.512 -1.7230 -0.2070 -2.1051
 6649SOL     OW25782   7.096   6.856   9.364  0.1609  0.6815  0.3192
 6649SOL    HW125783   7.067   6.874   9.274 -0.0855  0.0438  0.2664
 6649SOL    HW225784   7.121   6.764   9.363 -0.0569  0.6098  0.9604
 6650SOL     OW25785   7.768   1.653   8.912  0.3560  0.8193  0.6182
 6650SOL    HW125786   7.770   1.745   8.938  4.3084  1.0520  0.0164
 6650SOL    HW225787   7.719   1.653   8.829 -1.5737  1.9322  1.6769
 6651SOL     OW25788   6.509  10.772   9.330  0.6566 -0.2654  0.1267
 6651SOL    HW125789   6.523  10.866   9.322 -1.1116  0.0356  0.1673
 6651SOL    HW225790   6.594  10.736   9.354  1.1979  1.4028  0.7755
 6652SOL     OW25791   6.657   2.208   8.050 -0.4167 -0.0905  0.4985
 6652SOL    HW125792   6.632   2.176   8.137 -0.3410 -1.0079  0.2009
 6652SOL    HW225793   6.730   2.152   8.024 -0.7988 -0.2072 -0.3769
 6653SOL     OW25794   9.111   2.103   7.005  0.5373 -0.3577  0.7216
 6653SOL    HW125795   9.167   2.160   6.952 -0.8831  2.1596  1.7697
 6653SOL    HW225796   9.036   2.157   7.028 -2.2234 -3.4358 -0.2498
 6654SOL     OW25797   2.236   9.834  10.144 -0.7496  0.4116 -0.0508
 6654SOL    HW125798   2.242   9.807  10.236 -0.0272 -0.4417 -0.3309
 6654SOL    HW225799   2.288   9.914  10.139 -1.2749  0.7890  0.3966
 6655SOL     OW25800   2.973   7.445   5.427 -0.3023 -0.6327 -0.3580
 6655SOL    HW125801   2.990   7.505   5.355  0.1738 -0.4719 -0.1175
 6655SOL    HW225802   3.046   7.384   5.426  0.1842 -0.0830  0.5415
 6656SOL     OW25803   8.770   6.634   7.920  0.2990 -0.3814 -0.6827
 6656SOL    HW125804   8.784   6.705   7.983  0.9374 -0.1055 -1.1199
 6656SOL    HW225805   8.703   6.579   7.960  0.3474  0.0518  0.0129
 6657SOL     OW25806   5.768   1.738   4.386 -0.2779 -0.0293 -0.0201
 6657SOL    HW125807   5.684   1.748   4.341 -0.9710 -1.5249  0.8644
 6657SOL    HW225808   5.767   1.808   4.452 -0.5180  0.3783 -0.4429
 6658SOL     OW25809   8.284   9.848   8.674  0.4344 -0.5832  0.3584
 6658SOL    HW125810   8.233   9.849   8.593  1.1028  0.8281 -0.0739
 6658SOL    HW225811   8.225   9.812   8.739 -0.2692 -1.3177 -0.6592
 6659SOL     OW25812  10.463   9.351  10.066  0.1905 -0.1965 -0.5445
 6659SOL    HW125813  10.391   9.296  10.097  0.5415  0.0335  0.7505
 6659SOL    HW225814  10.467   9.336   9.972 -0.7982 -1.1005 -0.4502
 6660SOL     OW25815   8.555   7.467   1.328  0.1296 -0.3156 -0.8080
 6660SOL    HW125816   8.461   7.482   1.342  0.7296  2.9565  0.4802
 6660SOL    HW225817   8.566   7.476   1.233 -0.6702  0.7103 -0.8271
 6661SOL     OW25818   4.590   0.187   2.141  0.0850  0.4088 -0.4446
 6661SOL    HW125819   4.620   0.253   2.080 -1.1864  1.1495 -0.3121
 6661SOL    HW225820   4.649   0.113   2.128  1.3711  1.4530 -0.7870
 6662SOL     OW25821  10.593   4.550   3.022 -0.5898  0.0834  0.2598
 6662SOL    HW125822  10.595   4.585   3.111  0.5336  3.1531 -0.8183
 6662SOL    HW225823  10.681   4.567   2.988 -0.9477 -1.1169 -1.3980
 6663SOL     OW25824   0.967   7.974   6.998 -0.1101  0.0618  0.0356
 6663SOL    HW125825   0.922   7.926   7.067  0.7485 -1.0373 -0.1408
 6663SOL    HW225826   1.021   8.038   7.046  1.3968 -1.4813  0.5008
 6664SOL     OW25827   6.728   2.171   4.932  0.7228  0.8144 -0.6467
 6664SOL    HW125828   6.750   2.081   4.909  0.3374  0.8141 -1.0314
 6664SOL    HW225829   6.694   2.209   4.850  0.4903  1.1822 -0.3818
 6665SOL     OW25830   9.763   6.277   9.600  0.0335  0.3994  0.9570
 6665SOL    HW125831   9.819   6.201   9.614 -0.5077 -0.0715  0.5799
 6665SOL    HW225832   9.716   6.289   9.683 -0.1680  0.0833  0.8892
 6666SOL     OW25833   9.450   5.008   1.495  0.2029  0.5101  0.2336
 6666SOL    HW125834   9.361   5.036   1.474 -0.6266 -1.1936  1.3323
 6666SOL    HW225835   9.470   4.939   1.432 -0.3841 -1.0869  1.7095
 6667SOL     OW25836  10.641   0.385   5.483  0.2518 -0.5502  0.2097
 6667SOL    HW125837  10.578   0.342   5.540 -0.8091 -0.0320 -0.5309
 6667SOL    HW225838  10.588   0.446   5.431  1.4507  0.3021 -0.0399
 6668SOL     OW25839   2.177   7.250   2.842 -0.0628  0.6938  0.8002
 6668SOL    HW125840   2.226   7.190   2.786  1.8200  2.1295  0.7836
 6668SOL    HW225841   2.195   7.221   2.931 -0.8611  0.0267  0.7586
 6669SOL     OW25842   0.512   9.137   1.308 -0.0481  0.1315 -0.5967
 6669SOL    HW125843   0.503   9.099   1.221  1.1039  0.2862 -0.8034
 6669SOL    HW225844   0.533   9.229   1.293  1.9865 -0.2170 -0.2475
 6670SOL     OW25845   6.269   4.332   6.000 -0.1595 -0.4892 -0.5011
 6670SOL    HW125846   6.279   4.257   5.942 -2.5447 -1.4106  0.1868
 6670SOL    HW225847   6.224   4.398   5.948 -1.9986 -1.1940  0.1247
 6671SOL     OW25848   6.354   0.410   7.858  0.1264  0.3075 -0.5707
 6671SOL    HW125849   6.259   0.396   7.853  0.2210 -0.2934 -0.7144
 6671SOL    HW225850   6.390   0.351   7.792  0.7804 -1.3837  1.1956
 6672SOL     OW25851   8.484   7.441   1.054 -0.2670 -0.1340 -0.0266
 6672SOL    HW125852   8.464   7.495   0.977  1.1246  1.6395  0.7791
 6672SOL    HW225853   8.488   7.352   1.020 -0.3641  0.5187 -1.8809
 6673SOL     OW25854   8.779   5.715   1.315  0.5951  0.0289  0.1695
 6673SOL    HW125855   8.759   5.808   1.302 -1.7553 -0.4976 -0.3072
 6673SOL    HW225856   8.782   5.679   1.227  1.2246 -0.4267  0.3689
 6674SOL     OW25857   3.498   2.787   8.250 -0.3018 -0.7399 -0.4829
 6674SOL    HW125858   3.477   2.874   8.282  0.5663 -1.0145  0.9033
 6674SOL    HW225859   3.493   2.795   8.155  0.7741  1.0987 -0.4377
 6675SOL     OW25860   2.011   0.094   9.631  0.2019 -0.7032  0.5655
 6675SOL    HW125861   1.984   0.161   9.693 -0.4182 -0.1799 -0.2511
 6675SOL    HW225862   1.943   0.026   9.637 -3.1514  1.8158 -3.4459
 6676SOL     OW25863   0.190   5.355   2.733 -0.1089 -0.4622 -0.6717
 6676SOL    HW125864   0.126   5.388   2.670 -1.6681  3.3869  2.4967
 6676SOL    HW225865   0.136   5.317   2.803  1.2175 -0.1695  0.5596
 6677SOL     OW25866   4.128   5.112   9.967  1.0702 -0.6097 -0.0230
 6677SOL    HW125867   4.071   5.037   9.980  0.6696 -0.3383 -0.1938
 6677SOL    HW225868   4.193   5.082   9.903  0.6094 -0.6556 -0.4736
 6678SOL     OW25869   1.908   5.566   4.019 -0.1506 -0.2418 -0.0333
 6678SOL    HW125870   1.859   5.564   4.100  0.1453  2.5060  0.3167
 6678SOL    HW225871   1.994   5.530   4.041  0.2015  1.2380  1.1244
 6679SOL     OW25872   1.487   9.251   4.636  0.6711  0.0326 -0.0928
 6679SOL    HW125873   1.566   9.205   4.664  0.6612 -0.8876 -1.4685
 6679SOL    HW225874   1.415   9.204   4.679  0.7119 -0.7951 -0.9053
 6680SOL     OW25875   0.664   4.278   4.117  0.2011  0.5388 -0.2448
 6680SOL    HW125876   0.588   4.299   4.062 -0.2610  2.1946  0.9290
 6680SOL    HW225877   0.686   4.188   4.095 -1.7161  0.2312 -1.0909
 6681SOL     OW25878   1.058   1.798   6.608 -0.1573 -0.4424  0.0792
 6681SOL    HW125879   1.032   1.777   6.518  1.1629 -0.9798 -0.1857
 6681SOL    HW225880   0.975   1.821   6.651 -0.6534  1.2584 -1.6380
 6682SOL     OW25881   5.466   2.063   2.392  0.7076 -0.4426  0.3814
 6682SOL    HW125882   5.473   2.111   2.475  0.1779 -1.9590  1.3484
 6682SOL    HW225883   5.414   1.986   2.414  0.5966 -0.9024 -1.3751
 6683SOL     OW25884   9.626   8.857   5.067  0.4561  0.2336  0.5087
 6683SOL    HW125885   9.617   8.944   5.027  1.8895 -0.0442 -0.5009
 6683SOL    HW225886   9.567   8.802   5.016  0.8672  0.2690 -0.0178
 6684SOL     OW25887  10.028   0.890   3.845 -0.4803  0.2431 -0.0344
 6684SOL    HW125888  10.013   0.840   3.765  1.1124  0.6680 -0.6487
 6684SOL    HW225889  10.081   0.965   3.817 -0.1643  0.5767  1.3634
 6685SOL     OW25890   3.798  10.782  10.258 -0.3544 -0.2018  0.6373
 6685SOL    HW125891   3.822  10.694  10.288  0.2157  0.3480  1.8867
 6685SOL    HW225892   3.734  10.812  10.324 -1.3964 -0.0893 -0.3919
 6686SOL     OW25893   6.402   6.433   7.872 -0.2270 -0.0803 -0.1058
 6686SOL    HW125894   6.435   6.497   7.809 -0.4304  1.1763  1.0291
 6686SOL    HW225895   6.373   6.485   7.947 -2.9775 -1.2377 -0.2266
 6687SOL     OW25896   6.818   7.460   6.820  0.2181  0.3642  0.5316
 6687SOL    HW125897   6.856   7.409   6.749 -0.6537  2.1241 -1.2761
 6687SOL    HW225898   6.764   7.397   6.868 -0.0191 -0.6327 -0.9901
 6688SOL     OW25899   4.601   7.729   9.746  0.2271  0.3040  0.4760
 6688SOL    HW125900   4.541   7.656   9.728  0.4337 -0.1378  1.4807
 6688SOL    HW225901   4.543   7.803   9.767  0.0191  0.0266  0.9052
 6689SOL     OW25902   3.133   7.523   5.892  0.5818 -0.0475 -0.1986
 6689SOL    HW125903   3.070   7.516   5.820  1.0552 -0.2579 -0.6080
 6689SOL    HW225904   3.081   7.544   5.969  0.1490  1.0185 -0.7571
 6690SOL     OW25905   8.292   6.912   8.637  0.2572 -0.3901  0.0782
 6690SOL    HW125906   8.315   6.865   8.556  1.0512  2.6550 -1.6220
 6690SOL    HW225907   8.285   7.003   8.611  0.1760  0.7075  3.4340
 6691SOL     OW25908   6.209   5.853   1.319 -0.1708 -0.3816 -0.2887
 6691SOL    HW125909   6.241   5.767   1.346  1.0728  0.7677  2.2930
 6691SOL    HW225910   6.134   5.835   1.263  2.1127 -3.1655 -2.7977
 6692SOL     OW25911   3.261   6.245   4.076  0.5218  0.0745  0.2015
 6692SOL    HW125912   3.179   6.270   4.118  0.5881 -0.6942  0.8157
 6692SOL    HW225913   3.236   6.220   3.987  0.3794  1.7175 -0.2514
 6693SOL     OW25914   6.909   9.636   8.582  0.4177 -0.5814 -0.0391
 6693SOL    HW125915   6.893   9.608   8.673  1.5573 -3.0551 -0.5133
 6693SOL    HW225916   6.822   9.639   8.543  0.0638 -1.6574  0.6025
 6694SOL     OW25917   6.424   7.628   3.730  0.2067  0.4490  0.2608
 6694SOL    HW125918   6.466   7.564   3.673 -0.5318 -0.4156  0.6566
 6694SOL    HW225919   6.493   7.656   3.790  0.7546  0.6917 -0.4598
 6695SOL     OW25920   9.881   4.920   9.538 -0.1554  0.4138 -0.1403
 6695SOL    HW125921   9.923   4.841   9.573  0.9446  1.4381  0.9498
 6695SOL    HW225922   9.882   4.907   9.443 -0.6393 -1.1866  0.0453
 6696SOL     OW25923   3.506   3.742   8.164 -0.2661  0.9676  0.1605
 6696SOL    HW125924   3.598   3.759   8.185  0.1258  0.1233 -0.7602
 6696SOL    HW225925   3.457   3.810   8.211  0.9191  2.2271 -0.3481
 6697SOL     OW25926   5.414   5.992   4.212 -0.2267 -0.3541  0.0552
 6697SOL    HW125927   5.426   5.905   4.251 -1.1599 -0.3311  0.4141
 6697SOL    HW225928   5.444   6.053   4.279  2.8356 -0.4207 -1.1137
 6698SOL     OW25929   0.755   2.119   3.365 -0.4376  0.4862 -0.1806
 6698SOL    HW125930   0.687   2.055   3.384 -0.4009  0.2925 -0.6779
 6698SOL    HW225931   0.720   2.202   3.398 -0.0688  0.0631  1.3460
 6699SOL     OW25932  10.125   5.571   7.454  0.0475  0.1805  0.1528
 6699SOL    HW125933  10.136   5.485   7.414 -1.5472 -0.1079  0.2526
 6699SOL    HW225934  10.100   5.628   7.382 -0.9958  0.0676  0.4059
 6700SOL     OW25935   6.067  10.285   9.979  0.5886 -0.8069  0.2135
 6700SOL    HW125936   6.002  10.300  10.048  0.0263  2.0869 -0.7975
 6700SOL    HW225937   6.083  10.190   9.981 -1.2779 -1.1692  2.5920
 6701SOL     OW25938  10.278   4.096   0.650  0.3834  0.1839  0.3513
 6701SOL    HW125939  10.287   4.048   0.568 -0.6154  1.5089 -0.5761
 6701SOL    HW225940  10.341   4.055   0.708  0.8737 -1.0226 -0.9628
 6702SOL     OW25941   5.677   7.487   1.995  0.1150  0.1101 -0.2976
 6702SOL    HW125942   5.768   7.456   2.004  0.2387  0.9786  2.0029
 6702SOL    HW225943   5.630   7.412   1.958  1.6283 -0.5636 -0.9555
 6703SOL     OW25944   5.486   6.187   2.490  0.3053  0.2014 -0.0129
 6703SOL    HW125945   5.403   6.174   2.536 -0.6220  1.5016 -1.2600
 6703SOL    HW225946   5.549   6.203   2.560 -0.7715  0.6455  0.8843
 6704SOL     OW25947  10.265   0.058   7.208  0.1962 -0.3741 -0.2388
 6704SOL    HW125948  10.347   0.020   7.177  0.1464 -0.3042 -0.4558
 6704SOL    HW225949  10.218   0.083   7.129  0.0607 -0.2123 -0.1092
 6705SOL     OW25950   9.335   7.573   9.745  0.3262 -0.2581  0.3178
 6705SOL    HW125951   9.333   7.598   9.838  1.0191 -0.5488  0.4136
 6705SOL    HW225952   9.413   7.518   9.737  0.6953  0.3860 -0.5927
 6706SOL     OW25953   9.247   9.664   0.895  0.5109  0.0667 -0.8241
 6706SOL    HW125954   9.236   9.758   0.878 -2.1493 -0.2277 -1.0869
 6706SOL    HW225955   9.224   9.622   0.812  1.7530 -0.8456 -0.7315
 6707SOL     OW25956   9.869   2.668   5.893 -0.2790 -0.2337 -0.5097
 6707SOL    HW125957   9.846   2.637   5.806  1.1677 -0.9638 -0.6583
 6707SOL    HW225958   9.964   2.656   5.899 -0.3120  0.0431  1.0713
 6708SOL     OW25959   7.724   6.138   4.484  0.5566 -0.4344  0.4656
 6708SOL    HW125960   7.736   6.206   4.418  1.7748 -0.8435  0.2426
 6708SOL    HW225961   7.801   6.082   4.476 -0.5080 -1.9923  0.4984
 6709SOL     OW25962   4.840   0.068   9.875  0.3883  0.4022 -0.0983
 6709SOL    HW125963   4.791  -0.014   9.882  1.6848 -0.3741  0.1937
 6709SOL    HW225964   4.776   0.136   9.897 -0.8607 -0.4701 -0.8986
 6710SOL     OW25965   8.382   4.221   6.899  0.6206 -0.7824  0.1332
 6710SOL    HW125966   8.458   4.264   6.859 -0.0979  0.5869  0.1824
 6710SOL    HW225967   8.317   4.219   6.829  0.4876 -1.4175  0.2692
 6711SOL     OW25968   9.508   1.960  10.455  0.2301  0.0321  0.0331
 6711SOL    HW125969   9.517   1.971  10.361 -0.7993 -2.5580 -0.4640
 6711SOL    HW225970   9.419   1.992  10.474  0.1574 -0.1390 -0.0151
 6712SOL     OW25971   5.652   7.646   3.603  0.0772 -0.4061 -0.0169
 6712SOL    HW125972   5.695   7.564   3.627  1.6679  0.1102 -0.9149
 6712SOL    HW225973   5.609   7.627   3.520 -0.9606 -0.7628  0.5902
 6713SOL     OW25974   2.557   2.525  10.807 -0.1612  0.4297 -0.7444
 6713SOL    HW125975   2.476   2.549  10.852 -0.8639 -0.2166 -1.6173
 6713SOL    HW225976   2.543   2.552  10.716  0.7191  0.5541 -0.8495
 6714SOL     OW25977   5.854   1.398   4.951  0.2245 -0.2535  0.1519
 6714SOL    HW125978   5.818   1.322   4.997 -0.5996 -0.3336 -0.5918
 6714SOL    HW225979   5.893   1.361   4.871  0.3051  0.0487  0.0517
 6715SOL     OW25980   5.435   3.169   7.411  1.1573 -0.0698  0.3863
 6715SOL    HW125981   5.436   3.180   7.506 -0.7605  0.1196  0.4278
 6715SOL    HW225982   5.384   3.243   7.379  0.0703 -1.1761 -0.5803
 6716SOL     OW25983   4.910   0.410   5.710 -0.4531 -0.1683  0.2584
 6716SOL    HW125984   4.997   0.414   5.670  0.1942 -1.4677  1.4692
 6716SOL    HW225985   4.853   0.376   5.641  0.3070 -0.7867 -0.0682
 6717SOL     OW25986   3.218   6.397   6.693  0.3508 -0.2874  0.5135
 6717SOL    HW125987   3.146   6.408   6.631  1.7833 -0.4620 -1.2699
 6717SOL    HW225988   3.294   6.434   6.648  1.7077 -1.5707  1.6509
 6718SOL     OW25989   0.306   6.111   7.140 -0.7091 -0.7015  0.7236
 6718SOL    HW125990   0.385   6.074   7.178  0.5750 -0.5742 -1.6061
 6718SOL    HW225991   0.318   6.206   7.148  1.0735 -0.5014 -2.4345
 6719SOL     OW25992   5.570   5.336  10.880 -0.9280  0.4096 -0.8912
 6719SOL    HW125993   5.475   5.334  10.892 -1.2698  3.1588 -2.2935
 6719SOL    HW225994   5.596   5.419  10.919  1.1012 -0.7459  0.3560
 6720SOL     OW25995   7.788   4.815   8.544  0.2779 -0.3600 -0.3595
 6720SOL    HW125996   7.856   4.864   8.590 -1.1118 -0.2576  1.7097
 6720SOL    HW225997   7.835   4.749   8.494  1.8761 -0.6229  1.4060
 6721SOL     OW25998   8.683   2.719   7.729  0.1959  0.0747  0.2314
 6721SOL    HW125999   8.715   2.800   7.767  2.0044 -0.9243  0.9809
 6721SOL    HW226000   8.752   2.655   7.747 -1.0043 -1.5527 -0.6414
 6722SOL     OW26001   7.243   9.387   8.693 -0.4137  0.2035  0.1962
 6722SOL    HW126002   7.336   9.406   8.680 -0.1308 -1.0139  0.3152
 6722SOL    HW226003   7.204   9.402   8.607 -0.0630  0.4298  0.0689
 6723SOL     OW26004  10.376   7.557   7.631 -0.2052 -0.2630 -0.2113
 6723SOL    HW126005  10.369   7.565   7.726 -1.1317  1.2509 -0.3696
 6723SOL    HW226006  10.291   7.589   7.598 -0.1897 -1.4750 -1.5184
 6724SOL     OW26007  10.523   2.832   9.552  0.0680 -0.6179 -0.1999
 6724SOL    HW126008  10.566   2.867   9.474 -1.0857  0.4210 -0.3997
 6724SOL    HW226009  10.435   2.809   9.522 -0.6193  0.4367  0.9424
 6725SOL     OW26010   4.931   3.960   1.769 -0.3712  0.4158  0.0885
 6725SOL    HW126011   4.836   3.948   1.775 -0.4320  0.7935 -0.1109
 6725SOL    HW226012   4.952   3.939   1.678 -0.4729  1.7531 -0.2558
 6726SOL     OW26013   0.554   1.098   7.159  0.1074  0.2522  0.2128
 6726SOL    HW126014   0.518   1.080   7.072 -0.3103  0.2079  0.3894
 6726SOL    HW226015   0.508   1.177   7.187 -2.8108 -1.8869  2.0346
 6727SOL     OW26016   2.634   1.201   1.230  0.1962 -0.5323 -0.0943
 6727SOL    HW126017   2.696   1.237   1.294  0.4493 -3.2014  1.3509
 6727SOL    HW226018   2.548   1.229   1.260  0.4550  0.0903  0.0805
 6728SOL     OW26019   5.880   9.612   9.022  0.1950 -0.0142 -0.0701
 6728SOL    HW126020   5.929   9.649   8.948  1.9683  1.9439  1.9226
 6728SOL    HW226021   5.799   9.663   9.026  0.1653 -0.0237 -0.5474
 6729SOL     OW26022   9.853   1.789   8.783 -0.1109 -0.3546  0.0678
 6729SOL    HW126023   9.802   1.802   8.863 -0.6489 -1.8819  0.0068
 6729SOL    HW226024   9.889   1.701   8.792  1.1454  0.0507 -0.6750
 6730SOL     OW26025   0.899   4.029   2.250  0.4792  0.2618  0.2156
 6730SOL    HW126026   0.859   4.062   2.170  0.1278  2.1269  1.0992
 6730SOL    HW226027   0.987   4.068   2.251  0.8522 -0.5458  0.2801
 6731SOL     OW26028   8.442   3.409   4.257  0.1887 -0.2486  0.3928
 6731SOL    HW126029   8.522   3.428   4.306  0.7553 -2.7564  0.5482
 6731SOL    HW226030   8.472   3.361   4.180 -0.9271  1.5496 -1.2628
 6732SOL     OW26031   7.971   1.065   9.392 -0.0777 -0.3052  0.3303
 6732SOL    HW126032   8.011   1.095   9.473 -0.0651  0.2191  0.1348
 6732SOL    HW226033   8.045   1.054   9.332 -0.3050  2.1590 -0.5153
 6733SOL     OW26034   4.483  10.315   6.459  0.0124 -0.1030  0.0467
 6733SOL    HW126035   4.425  10.391   6.458 -1.5181 -1.2239 -1.6058
 6733SOL    HW226036   4.526  10.316   6.373  1.0331 -0.3474  0.5384
 6734SOL     OW26037   0.045   5.396   6.052 -0.0296 -0.3286 -0.0775
 6734SOL    HW126038  -0.029   5.417   5.995  0.8445  1.3567 -0.6740
 6734SOL    HW226039   0.116   5.373   5.991  0.1991 -1.0668  0.4510
 6735SOL     OW26040   8.849   2.106   5.372  0.6321 -0.1234 -0.1564
 6735SOL    HW126041   8.792   2.080   5.445 -1.9657  2.9770 -0.8385
 6735SOL    HW226042   8.817   2.054   5.298 -0.6493  0.7996 -0.2832
 6736SOL     OW26043  10.255   1.936   7.903  0.1629  0.2086  0.5209
 6736SOL    HW126044  10.220   1.914   7.816  0.2973 -0.5211  0.6413
 6736SOL    HW226045  10.190   1.996   7.940  0.5792  1.3090 -0.4546
 6737SOL     OW26046   5.885   9.365   4.719 -0.3094 -0.2148  0.6255
 6737SOL    HW126047   5.891   9.395   4.809  0.4054 -1.0632  0.8650
 6737SOL    HW226048   5.945   9.422   4.670  0.9922 -1.1613  1.0684
 6738SOL     OW26049   7.333   9.607   5.527  0.6177  0.3382  0.3880
 6738SOL    HW126050   7.252   9.576   5.568  0.8054 -0.9438 -0.1672
 6738SOL    HW226051   7.399   9.602   5.597  0.7675 -1.0935  0.1660
 6739SOL     OW26052   6.550   5.792   6.753  0.6176 -0.6266  0.1522
 6739SOL    HW126053   6.630   5.805   6.804  1.2481  1.2809 -1.2242
 6739SOL    HW226054   6.578   5.737   6.680  0.4554 -0.6633  0.1177
 6740SOL     OW26055   6.439   2.641   4.050  0.3680  0.2413 -0.1852
 6740SOL    HW126056   6.532   2.619   4.045  0.2057 -0.3389 -0.8298
 6740SOL    HW226057   6.395   2.574   3.996 -0.3989  0.6237 -0.0550
 6741SOL     OW26058   5.111   9.123  10.390 -0.2538 -0.3864 -0.0330
 6741SOL    HW126059   5.078   9.034  10.395  1.7188 -1.1218  0.8558
 6741SOL    HW226060   5.176   9.121  10.320 -0.0716  0.3188  0.1090
 6742SOL     OW26061   8.535   3.236   4.068 -0.5739 -0.1491 -0.5863
 6742SOL    HW126062   8.472   3.241   3.996 -0.4765 -1.2979 -0.7812
 6742SOL    HW226063   8.558   3.143   4.073 -0.7526 -0.1432  1.0826
 6743SOL     OW26064   5.706   8.021   4.726  0.0405 -0.4759 -0.0800
 6743SOL    HW126065   5.694   7.929   4.747  0.8452 -0.8581 -1.1694
 6743SOL    HW226066   5.780   8.048   4.781 -1.5499  0.1536  1.8698
 6744SOL     OW26067   6.839   6.975   5.084  0.2478 -0.5196 -0.2505
 6744SOL    HW126068   6.928   7.010   5.088 -0.9244  2.7219  1.3138
 6744SOL    HW226069   6.830   6.922   5.163  0.4898  0.0983  0.2061
 6745SOL     OW26070   8.147   9.860   6.498 -0.1611  0.4151  0.2146
 6745SOL    HW126071   8.242   9.863   6.506  0.0818  2.9369 -1.8711
 6745SOL    HW226072   8.131   9.810   6.418 -0.3739  1.7551 -0.6268
 6746SOL     OW26073   1.350   7.220   5.071 -0.1706  0.5052  0.5590
 6746SOL    HW126074   1.342   7.162   5.147 -0.3461 -0.1852  0.0191
 6746SOL    HW226075   1.315   7.169   4.998 -0.5837  1.3996  0.1234
 6747SOL     OW26076   8.031   6.937  10.054  0.3204  0.1041 -0.2595
 6747SOL    HW126077   8.106   6.878  10.051 -0.4031 -0.8063 -1.2632
 6747SOL    HW226078   8.028   6.976   9.966 -0.3132  0.1980 -0.2037
 6748SOL     OW26079   9.526  10.837   5.469  0.1021 -0.1398  0.2271
 6748SOL    HW126080   9.455  10.891   5.505 -0.0516  0.1155 -0.4434
 6748SOL    HW226081   9.550  10.881   5.388 -1.4886 -2.2384 -1.4799
 6749SOL     OW26082   5.119  10.825   2.488 -0.2389  0.0717  0.1749
 6749SOL    HW126083   5.130  10.831   2.583 -1.7090  0.7006  0.3332
 6749SOL    HW226084   5.147  10.736   2.466  1.1262  0.2591  1.0247
 6750SOL     OW26085   3.377   0.737   4.859 -0.1955  0.3642  0.2558
 6750SOL    HW126086   3.325   0.666   4.897  1.3354 -0.3616  1.0615
 6750SOL    HW226087   3.468   0.711   4.872  0.4051  2.0614 -0.2356
 6751SOL     OW26088   5.011   5.192   3.411 -0.1206 -0.0366 -0.4152
 6751SOL    HW126089   4.975   5.268   3.364  1.1785 -0.3433 -2.0113
 6751SOL    HW226090   5.051   5.138   3.342  0.0220 -1.5847  0.8249
 6752SOL     OW26091   3.533   8.581   5.949  0.2250 -0.5194  0.3452
 6752SOL    HW126092   3.572   8.534   6.023  0.3272 -1.0663 -0.0486
 6752SOL    HW226093   3.547   8.673   5.969  1.1570 -0.6896  0.5192
 6753SOL     OW26094   7.553   6.061   8.568  0.1435  0.2955  0.7499
 6753SOL    HW126095   7.470   6.052   8.522 -0.3193 -1.0407  1.7808
 6753SOL    HW226096   7.535   6.029   8.657  2.1357 -1.6881  0.5456
 6754SOL     OW26097   4.923   4.283   4.257 -0.4982  0.0583  0.0313
 6754SOL    HW126098   4.840   4.241   4.234 -0.0074 -1.0857  0.3089
 6754SOL    HW226099   4.954   4.235   4.334  0.6541  0.1607 -0.3504
 6755SOL     OW26100   0.478   1.711   5.190  0.0868 -0.0181 -0.2773
 6755SOL    HW126101   0.425   1.791   5.191  0.6026  0.3190  0.2432
 6755SOL    HW226102   0.479   1.685   5.098 -0.6402  0.1969 -0.3543
 6756SOL     OW26103   1.371   5.877   9.510  0.1814 -0.3008  0.5418
 6756SOL    HW126104   1.447   5.863   9.455  0.9572  0.3738  1.4032
 6756SOL    HW226105   1.376   5.969   9.535 -0.3465 -0.4999  1.4412
 6757SOL     OW26106  10.631   9.075   6.503 -0.1208  0.2442  0.2379
 6757SOL    HW126107  10.538   9.091   6.486 -0.2755 -0.2248  0.5933
 6757SOL    HW226108  10.631   9.000   6.563  0.4521  0.7483  0.8885
 6758SOL     OW26109   8.911   0.963   4.131 -0.2585 -0.4530 -0.1035
 6758SOL    HW126110   8.905   1.057   4.118  0.7454  0.3032  3.5427
 6758SOL    HW226111   8.993   0.938   4.089 -1.2743 -0.0779 -2.4237
 6759SOL     OW26112   8.218   7.095   6.393  0.6658  0.0220  0.0647
 6759SOL    HW126113   8.263   7.170   6.355  2.3260 -1.0678 -0.2513
 6759SOL    HW226114   8.209   7.116   6.486 -0.1286  1.1524 -0.2437
 6760SOL     OW26115  10.038   9.987   5.170  0.0288  0.3544 -0.3376
 6760SOL    HW126116  10.037   9.896   5.201 -1.4946  0.2543 -0.6165
 6760SOL    HW226117  10.101  10.031   5.226  1.1388 -0.9731 -0.4926
 6761SOL     OW26118  10.202   3.639   4.181  0.3167 -0.2121  0.0871
 6761SOL    HW126119  10.263   3.628   4.108  1.1352  0.9709  0.5417
 6761SOL    HW226120  10.192   3.552   4.218  1.5552 -0.4783 -0.1608
 6762SOL     OW26121   5.988   2.141   9.618  0.3745 -0.4080 -0.1685
 6762SOL    HW126122   5.957   2.061   9.576 -0.0473 -0.0724 -0.4926
 6762SOL    HW226123   5.916   2.203   9.610  0.4265 -0.2178  0.7215
 6763SOL     OW26124   5.076   7.810   2.744 -0.0842  0.1026  0.0274
 6763SOL    HW126125   4.984   7.797   2.766  0.1095 -0.2328  0.6892
 6763SOL    HW226126   5.086   7.772   2.657 -0.2407 -1.3391  0.6052
 6764SOL     OW26127   9.541   0.785   8.958  0.1091 -0.0713  0.2428
 6764SOL    HW126128   9.550   0.738   9.041 -0.7899 -1.6545 -0.5161
 6764SOL    HW226129   9.585   0.730   8.894 -0.2308  0.5388 -0.5357
 6765SOL     OW26130   1.226   1.868   1.418  0.0883 -0.3171 -0.3895
 6765SOL    HW126131   1.296   1.866   1.352 -0.5477  0.0647 -1.0798
 6765SOL    HW226132   1.259   1.927   1.485  1.9181 -2.7335  0.9953
 6766SOL     OW26133   0.889   3.047   4.438 -0.1878 -0.1313  0.2629
 6766SOL    HW126134   0.893   3.141   4.456  0.7308  0.1163 -1.0946
 6766SOL    HW226135   0.845   3.040   4.353 -2.6447 -1.1344  1.5239
 6767SOL     OW26136   3.324   5.026   3.656  0.3481 -0.2011 -0.0220
 6767SOL    HW126137   3.366   4.962   3.715 -0.1049 -0.8451 -0.3894
 6767SOL    HW226138   3.357   5.003   3.569  0.7434  0.5299 -0.0740
 6768SOL     OW26139  10.489  10.818   7.886 -0.3257  0.3658  0.5602
 6768SOL    HW126140  10.488  10.840   7.979  1.6049  0.0999  0.6926
 6768SOL    HW226141  10.574  10.849   7.855 -0.0779 -1.3611 -0.6318
 6769SOL     OW26142   7.600   6.176   3.647  0.1915  0.2370  0.1273
 6769SOL    HW126143   7.634   6.171   3.737  0.5019 -0.4522 -0.0257
 6769SOL    HW226144   7.600   6.270   3.628  3.0247  0.2567 -0.2238
 6770SOL     OW26145   1.468   8.393   1.386 -0.5244 -0.2013 -0.5730
 6770SOL    HW126146   1.498   8.313   1.429  1.5467  0.6404 -0.3155
 6770SOL    HW226147   1.543   8.453   1.391 -1.5199  1.2753 -1.9965
 6771SOL     OW26148   1.881   8.352   4.915 -0.0586 -0.0482 -0.3766
 6771SOL    HW126149   1.850   8.360   4.825  0.0707  0.8884 -0.3395
 6771SOL    HW226150   1.868   8.259   4.936 -1.5329  0.0331 -0.8217
 6772SOL     OW26151   3.215  10.150  10.503  0.2492  0.5406 -0.1331
 6772SOL    HW126152   3.228  10.208  10.578 -0.3550  2.7810 -1.6470
 6772SOL    HW226153   3.119  10.144  10.495  0.3064 -0.8228  0.0883
 6773SOL     OW26154   0.674   7.403  10.240 -0.1364  0.3064 -0.4249
 6773SOL    HW126155   0.617   7.423  10.166  0.1721  1.4530 -0.3666
 6773SOL    HW226156   0.704   7.488  10.271  1.4007 -0.2546 -0.2782
 6774SOL     OW26157   5.269   6.259   6.983 -0.1668  0.4662 -0.6052
 6774SOL    HW126158   5.230   6.207   7.054  1.2460 -0.2221 -0.3000
 6774SOL    HW226159   5.322   6.196   6.934 -0.2840  1.1612 -1.6515
 6775SOL     OW26160   4.476   2.208   9.612  0.3390 -0.7466  0.2191
 6775SOL    HW126161   4.429   2.264   9.550 -1.6846 -1.6432  0.8688
 6775SOL    HW226162   4.568   2.233   9.601 -0.0516 -0.1102 -2.3358
 6776SOL     OW26163   4.602  10.878   5.223  0.2278  0.1981 -0.0014
 6776SOL    HW126164   4.668  10.846   5.161  0.9208  0.5238  0.5414
 6776SOL    HW226165   4.561  10.799   5.257  2.7865 -0.3009  2.2634
 6777SOL     OW26166   7.893   2.083   1.804  0.0888  0.3456  0.5142
 6777SOL    HW126167   7.870   2.101   1.895 -3.4643  2.4242 -0.6319
 6777SOL    HW226168   7.988   2.095   1.801  0.1639  1.4222  3.6684
 6778SOL     OW26169   6.339   0.722   9.778  0.8366  0.4633 -0.4224
 6778SOL    HW126170   6.365   0.660   9.847 -2.8457  0.2989  1.0630
 6778SOL    HW226171   6.294   0.668   9.713 -2.1410  1.3267  0.7407
 6779SOL     OW26172   7.579  10.718   7.327 -0.1335  0.2145  0.5550
 6779SOL    HW126173   7.672  10.692   7.329 -0.2115 -0.0251  1.3764
 6779SOL    HW226174   7.542  10.677   7.405 -0.7069  1.1764  0.7879
 6780SOL     OW26175   2.865   3.356   9.829 -0.4800 -0.5757 -0.0700
 6780SOL    HW126176   2.946   3.379   9.874  0.2501 -0.5282 -1.3373
 6780SOL    HW226177   2.797   3.405   9.875  0.0144 -1.5161  1.7531
 6781SOL     OW26178   3.594   6.497   6.955 -0.7690  0.1990 -0.1990
 6781SOL    HW126179   3.563   6.406   6.954  0.3975 -0.3052  1.8640
 6781SOL    HW226180   3.594   6.524   6.864  0.1525 -2.3570 -1.0490
 6782SOL     OW26181   2.197   7.543   5.499 -0.1441  0.8202 -0.3811
 6782SOL    HW126182   2.109   7.552   5.462 -0.6122  1.0599  0.7602
 6782SOL    HW226183   2.192   7.585   5.584  0.6814 -0.4181  0.3105
 6783SOL     OW26184   3.049   5.538   5.691 -0.7266  0.3579  0.4038
 6783SOL    HW126185   3.053   5.634   5.689  0.5835  0.3716 -2.6209
 6783SOL    HW226186   3.138   5.511   5.712 -0.5046 -0.1317 -1.0759
 6784SOL     OW26187   3.689   7.994   8.656 -0.3782 -0.6728  0.5392
 6784SOL    HW126188   3.672   8.017   8.748  0.0974 -0.4526  0.5756
 6784SOL    HW226189   3.710   7.901   8.658  1.2181 -0.3393  0.8873
 6785SOL     OW26190   5.470   7.400   4.679  0.9525 -0.0082 -0.0631
 6785SOL    HW126191   5.459   7.366   4.768  0.2200 -1.7849 -0.7830
 6785SOL    HW226192   5.390   7.451   4.662 -0.5041 -2.3365 -0.7666
 6786SOL     OW26193   5.367   5.643   0.171  0.1071  0.2314  0.7176
 6786SOL    HW126194   5.298   5.661   0.107  0.6078  0.7877  0.3245
 6786SOL    HW226195   5.379   5.726   0.217  1.2960  0.4649  0.0107
 6787SOL     OW26196   5.390   5.322   8.767 -0.0765  0.2656 -0.3837
 6787SOL    HW126197   5.477   5.291   8.791 -0.9483 -3.5402 -1.4565
 6787SOL    HW226198   5.406   5.388   8.699  1.9991 -1.0064 -1.2246
 6788SOL     OW26199   9.477   0.210   9.151 -0.2137  0.2165 -0.7301
 6788SOL    HW126200   9.550   0.198   9.091  0.0620 -1.4600 -0.0999
 6788SOL    HW226201   9.517   0.215   9.238 -0.6279  2.3903 -0.6055
 6789SOL     OW26202   2.552   7.456   3.485 -0.3832 -0.6028 -0.5226
 6789SOL    HW126203   2.605   7.432   3.561  1.5614 -0.6869 -1.8292
 6789SOL    HW226204   2.480   7.393   3.485  1.1590 -2.4599 -0.3310
 6790SOL     OW26205   1.300   5.814   0.285 -0.1009  0.1164 -0.1078
 6790SOL    HW126206   1.275   5.781   0.372 -0.5046 -1.0169 -0.6342
 6790SOL    HW226207   1.221   5.857   0.252  0.3689  1.4912  0.5005
 6791SOL     OW26208   8.685   1.546   3.459 -0.2039  0.6102  0.2786
 6791SOL    HW126209   8.748   1.617   3.475  2.1957 -1.3322  0.1070
 6791SOL    HW226210   8.698   1.523   3.367 -0.6235 -0.3123  0.4392
 6792SOL     OW26211   1.337   8.299   4.706  0.0487  0.1452  0.0691
 6792SOL    HW126212   1.282   8.351   4.765 -0.4996 -0.8095  0.4354
 6792SOL    HW226213   1.312   8.326   4.618  0.7588  1.4751  0.2613
 6793SOL     OW26214   6.714   4.140   3.934  0.1893  0.0566  0.6031
 6793SOL    HW126215   6.791   4.176   3.890 -0.2251 -1.0534 -1.1579
 6793SOL    HW226216   6.715   4.047   3.910 -3.3393  0.5246 -2.1708
 6794SOL     OW26217   1.774   4.435   2.537  0.3640 -0.3095 -0.1496
 6794SOL    HW126218   1.813   4.354   2.505 -0.6018  0.2039 -2.8679
 6794SOL    HW226219   1.845   4.498   2.535  0.5235 -0.4948 -0.5282
 6795SOL     OW26220   2.348   0.062   2.966  0.4637  0.1701  0.1318
 6795SOL    HW126221   2.270   0.116   2.976  0.0587 -0.3484 -0.1523
 6795SOL    HW226222   2.317  -0.028   2.975  1.0750 -0.0326  0.2949
 6796SOL     OW26223   9.124   7.984   9.444 -0.0688  0.2494  0.3725
 6796SOL    HW126224   9.161   7.973   9.356 -1.9067 -0.6935 -0.3323
 6796SOL    HW226225   9.171   7.920   9.497 -0.4467 -0.7472 -0.4472
 6797SOL     OW26226   1.026   2.282   7.758 -0.1015 -0.2033 -0.0340
 6797SOL    HW126227   1.028   2.377   7.747 -0.4275 -0.2291 -0.3158
 6797SOL    HW226228   1.097   2.251   7.702 -2.1487 -0.3838 -2.7285
 6798SOL     OW26229   1.269   3.238   9.209 -0.3948  0.0792  0.3710
 6798SOL    HW126230   1.206   3.168   9.221 -0.1005  0.0029  1.6024
 6798SOL    HW226231   1.228   3.297   9.146 -0.6354 -1.1871 -0.7127
 6799SOL     OW26232   2.067  10.036  10.006 -0.0178  0.2342  0.5923
 6799SOL    HW126233   2.128  10.036   9.931  0.2382 -1.9470  0.7416
 6799SOL    HW226234   2.124  10.036  10.083 -0.2378 -0.3036  0.7541
 6800SOL     OW26235   0.999   5.097   5.275  0.7884 -0.0514 -0.2134
 6800SOL    HW126236   1.029   5.121   5.187  0.1505 -0.4946 -0.5561
 6800SOL    HW226237   1.037   5.164   5.332  3.1838 -1.0546 -0.4795
 6801SOL     OW26238   8.950   1.007   9.426  0.4699 -0.2175  0.5066
 6801SOL    HW126239   8.931   0.937   9.364  1.2039 -0.8250  0.9495
 6801SOL    HW226240   8.985   1.078   9.373  0.2917 -0.4124  0.1279
 6802SOL     OW26241   6.094   6.753   6.491  0.3148 -0.1201  0.3434
 6802SOL    HW126242   6.181   6.713   6.491  0.3015 -0.1489  0.3861
 6802SOL    HW226243   6.034   6.680   6.478  0.3561  0.0361 -0.8405
 6803SOL     OW26244   2.524   5.708  10.630  0.2642 -0.0318 -0.0729
 6803SOL    HW126245   2.594   5.756  10.584 -0.2954  1.3981  0.4968
 6803SOL    HW226246   2.445   5.758  10.612 -0.2090 -0.2654  1.2127
 6804SOL     OW26247   0.449   6.616   6.621  0.4861 -0.0260  0.7467
 6804SOL    HW126248   0.536   6.626   6.582  0.3247 -0.3698  0.2855
 6804SOL    HW226249   0.459   6.648   6.710  0.8832  0.7124  0.4448
 6805SOL     OW26250   7.702   7.043   8.650  0.1148 -0.1644  0.2448
 6805SOL    HW126251   7.797   7.056   8.644  0.2767 -0.6303  1.3342
 6805SOL    HW226252   7.676   7.093   8.727 -0.7132  0.7843 -0.6302
 6806SOL     OW26253   6.754   7.945   1.504 -0.0747  0.4142 -0.0010
 6806SOL    HW126254   6.802   7.905   1.432 -0.0137  0.8573 -0.2070
 6806SOL    HW226255   6.802   8.026   1.523 -0.1420  0.3458  0.4757
 6807SOL     OW26256   0.912   7.780  10.069  0.1599  0.3640  0.5068
 6807SOL    HW126257   0.819   7.763  10.085 -0.0332  0.8465 -0.0866
 6807SOL    HW226258   0.918   7.789   9.974  1.1329 -1.5668  0.3372
 6808SOL     OW26259  10.108   6.134   3.034  0.3723  0.1201 -0.1065
 6808SOL    HW126260  10.173   6.076   2.994 -0.9715 -1.8220  0.4259
 6808SOL    HW226261  10.104   6.106   3.126 -0.1006  1.2792  0.2481
 6809SOL     OW26262   9.191   5.052   3.880  0.6767  0.0752 -1.1597
 6809SOL    HW126263   9.210   5.142   3.909  1.5845 -0.2836 -0.6028
 6809SOL    HW226264   9.277   5.016   3.857  0.1909 -0.3089 -2.4309
 6810SOL     OW26265   5.965   7.203   5.221  0.1127 -0.6657  0.5650
 6810SOL    HW126266   5.934   7.270   5.159  0.4794  1.6784  2.7452
 6810SOL    HW226267   5.888   7.148   5.237 -0.3812 -0.4299 -0.8117
 6811SOL     OW26268   6.982   3.903   7.125  0.1896  0.1363 -0.7603
 6811SOL    HW126269   7.019   3.881   7.040 -1.1746 -0.3087 -1.2687
 6811SOL    HW226270   6.889   3.881   7.117 -0.5862  2.7982 -0.1270
 6812SOL     OW26271   9.458   4.250   1.688 -0.4141 -0.5592 -0.4192
 6812SOL    HW126272   9.457   4.329   1.741  0.3915 -1.2947  0.7371
 6812SOL    HW226273   9.366   4.235   1.664 -0.8519 -0.4022  1.0808
 6813SOL     OW26274   9.940   2.801   1.803  0.5586  0.5423 -0.3658
 6813SOL    HW126275  10.014   2.748   1.831 -1.4826 -1.2243  2.1910
 6813SOL    HW226276   9.926   2.777   1.711  1.7152 -0.8497 -0.2035
 6814SOL     OW26277   0.366   6.618   0.749 -0.1954 -0.2920 -0.0613
 6814SOL    HW126278   0.273   6.609   0.767 -0.1986  0.9864  0.7321
 6814SOL    HW226279   0.372   6.691   0.687  0.2231 -0.9516 -0.8122
 6815SOL     OW26280   3.356   3.663   1.151  0.8462  0.2875 -0.0910
 6815SOL    HW126281   3.311   3.595   1.100 -0.6169  0.5246  0.8290
 6815SOL    HW226282   3.316   3.745   1.122  0.8526  0.5339  0.5912
 6816SOL     OW26283   6.040   9.351   5.500  0.2610  0.4439 -0.0750
 6816SOL    HW126284   6.079   9.282   5.446 -1.2645 -1.9906  1.7596
 6816SOL    HW226285   6.114   9.406   5.526  1.9055 -1.7408  0.1194
 6817SOL     OW26286   4.976   7.175   9.649  0.7260  0.5021  0.5769
 6817SOL    HW126287   4.990   7.192   9.742 -0.6020 -1.8325  1.2899
 6817SOL    HW226288   4.883   7.196   9.635  0.8713  0.6482 -0.1675
 6818SOL     OW26289   7.539   4.481   8.187 -0.0392 -0.1029  0.0547
 6818SOL    HW126290   7.548   4.538   8.111  1.9812 -2.1338 -1.3892
 6818SOL    HW226291   7.619   4.428   8.186 -1.0287 -1.7926  2.2539
 6819SOL     OW26292   3.388  10.539   8.191 -0.0021  0.0360  0.4994
 6819SOL    HW126293   3.388  10.538   8.095 -1.2610  0.7118  0.4601
 6819SOL    HW226294   3.324  10.472   8.215 -0.4038  0.5334  0.8319
 6820SOL     OW26295   3.576  10.530   6.825 -0.4182  0.3568 -0.4438
 6820SOL    HW126296   3.591  10.514   6.918 -0.3099  1.5707 -0.2313
 6820SOL    HW226297   3.549  10.445   6.790 -1.2219  0.0480  0.8501
 6821SOL     OW26298   5.126   2.326   7.223 -0.7871  0.2217  0.5250
 6821SOL    HW126299   5.210   2.367   7.202 -0.8164 -0.8335 -2.0250
 6821SOL    HW226300   5.150   2.244   7.265 -0.5603  0.3819  0.7101
 6822SOL     OW26301   8.420   9.555   8.547 -0.1081 -0.0783 -0.5287
 6822SOL    HW126302   8.388   9.497   8.478  0.6560 -0.5517 -0.5001
 6822SOL    HW226303   8.479   9.615   8.502  0.0687 -0.1240 -0.3599
 6823SOL     OW26304   7.642   4.788   1.615 -0.3416  0.3085  0.0822
 6823SOL    HW126305   7.581   4.769   1.544 -0.6839  2.3735 -0.2290
 6823SOL    HW226306   7.600   4.753   1.693 -0.0141 -1.8901 -0.6556
 6824SOL     OW26307   5.976   3.344   1.958 -0.0680 -0.2548  0.0253
 6824SOL    HW126308   5.992   3.390   1.876 -0.2188  2.5440  1.4623
 6824SOL    HW226309   6.062   3.337   1.999 -0.3990  1.3218  1.0509
 6825SOL     OW26310   6.519   0.783   1.886  0.4199 -0.1611 -0.3843
 6825SOL    HW126311   6.550   0.725   1.956  0.8404 -0.6126 -0.9290
 6825SOL    HW226312   6.516   0.727   1.808 -0.9021  0.0985 -0.5538
 6826SOL     OW26313   7.603   3.583   0.757 -0.1056  0.0754  0.6080
 6826SOL    HW126314   7.520   3.540   0.736 -0.1768  0.2321  0.5586
 6826SOL    HW226315   7.640   3.533   0.829 -0.2761  0.0430  0.6725
 6827SOL     OW26316   3.074   4.144   3.013 -0.6459  0.2619 -0.2389
 6827SOL    HW126317   3.074   4.221   3.070 -2.7630  1.0923 -1.2626
 6827SOL    HW226318   3.080   4.180   2.924  0.9955 -0.9349 -0.6591
 6828SOL     OW26319   6.076   9.626   1.850 -0.4732  0.0388 -0.6574
 6828SOL    HW126320   6.142   9.671   1.902  0.2915 -0.9104 -0.7904
 6828SOL    HW226321   6.012   9.694   1.829  1.0859  1.2990 -1.5824
 6829SOL     OW26322   2.193   5.708   7.165 -0.2336 -0.7026 -0.5239
 6829SOL    HW126323   2.233   5.722   7.251  3.0477  1.4923 -2.1610
 6829SOL    HW226324   2.118   5.768   7.163 -0.8633 -1.3961  1.0502
 6830SOL     OW26325   6.907   0.045   1.662 -0.6479 -0.4359  0.3338
 6830SOL    HW126326   6.859   0.091   1.730  0.7561 -0.4157  1.3541
 6830SOL    HW226327   6.997   0.074   1.672 -0.1188 -1.7060 -0.4617
 6831SOL     OW26328   4.656   7.274   4.196  0.0004 -0.1146  0.0045
 6831SOL    HW126329   4.583   7.233   4.242  0.6822 -1.5148 -0.1006
 6831SOL    HW226330   4.641   7.252   4.103  0.1603  0.2156 -0.0986
 6832SOL     OW26331   3.571   6.972   5.689  0.1720  0.2966  0.1034
 6832SOL    HW126332   3.659   6.951   5.718  0.3133  1.0002  0.2182
 6832SOL    HW226333   3.564   7.067   5.703 -1.2469 -0.0156  1.8685
 6833SOL     OW26334   1.198  10.736   6.288  1.0732  0.0531  0.3070
 6833SOL    HW126335   1.122  10.702   6.240  1.5025  1.2365 -1.2945
 6833SOL    HW226336   1.172  10.734   6.380 -1.5329  1.9042 -0.3029
 6834SOL     OW26337  10.029   6.958   7.816 -0.3308 -0.0054 -0.1030
 6834SOL    HW126338  10.111   6.919   7.785  0.3351  1.1507  0.1479
 6834SOL    HW226339  10.049   7.051   7.825 -2.4671  0.8640 -2.8118
 6835SOL     OW26340   0.872   6.051   4.449  0.5886 -0.2035  0.1004
 6835SOL    HW126341   0.908   5.962   4.439 -0.4930 -0.6262 -0.1462
 6835SOL    HW226342   0.906   6.098   4.373  1.0827 -0.4319  0.1728
 6836SOL     OW26343   1.205   8.393   4.470  0.1713 -0.3336  0.0681
 6836SOL    HW126344   1.249   8.383   4.385 -1.2468 -1.3086 -0.5950
 6836SOL    HW226345   1.114   8.367   4.453 -0.1903 -0.3653  1.8552
 6837SOL     OW26346   2.975   2.911   0.643 -0.2030 -0.4302 -0.1415
 6837SOL    HW126347   2.987   2.956   0.559  0.1715 -0.4146 -0.0820
 6837SOL    HW226348   2.958   2.820   0.619 -0.4762 -0.3513 -0.2467
 6838SOL     OW26349   1.348   3.520   8.411 -0.5018 -0.6360  0.3044
 6838SOL    HW126350   1.372   3.539   8.320  0.4604  0.9925  0.8597
 6838SOL    HW226351   1.274   3.577   8.429 -0.0489 -0.2001  0.8292
 6839SOL     OW26352   7.106   0.429   2.650  0.2252  0.1495 -0.6491
 6839SOL    HW126353   7.169   0.369   2.690  0.4182  0.2521 -0.8010
 6839SOL    HW226354   7.140   0.446   2.562  0.7942  1.3799 -0.2285
 6840SOL     OW26355   5.792   9.259   1.766 -0.0165  0.0734 -0.3943
 6840SOL    HW126356   5.727   9.315   1.810 -0.7221 -1.3314  0.4291
 6840SOL    HW226357   5.746   9.176   1.752  1.5060 -0.8505 -0.1163
 6841SOL     OW26358   5.645   7.212   9.341  0.3444  0.0830  0.5574
 6841SOL    HW126359   5.604   7.176   9.262  2.2396 -0.4148 -0.2592
 6841SOL    HW226360   5.597   7.172   9.413  0.1768 -1.4209 -0.3450
 6842SOL     OW26361   7.140   5.822   1.473 -0.3983 -0.2867 -0.4802
 6842SOL    HW126362   7.124   5.785   1.560  1.5109 -1.2090 -0.4533
 6842SOL    HW226363   7.110   5.913   1.480 -2.1780 -0.8987  0.4690
 6843SOL     OW26364   1.074   7.340  10.628 -0.1665  0.4434  0.5281
 6843SOL    HW126365   1.153   7.365  10.676 -1.1147  2.6154  1.0628
 6843SOL    HW226366   1.106   7.315  10.541  1.3578 -1.5136  1.5531
 6844SOL     OW26367   0.823   0.928   3.413 -0.1084  0.4360 -0.4809
 6844SOL    HW126368   0.758   0.865   3.383  2.2058 -1.0036 -2.8217
 6844SOL    HW226369   0.874   0.881   3.479 -1.1769  1.4877  1.1806
 6845SOL     OW26370   3.786   8.261   8.932 -0.2125  0.4843  0.0687
 6845SOL    HW126371   3.704   8.211   8.927 -0.9232  1.6791 -0.6284
 6845SOL    HW226372   3.760   8.346   8.966  0.2391  1.8283 -2.6310
 6846SOL     OW26373   6.860   0.215   8.963  0.6720  0.1614  0.4841
 6846SOL    HW126374   6.925   0.263   8.913  1.7861 -0.1885  1.5521
 6846SOL    HW226375   6.820   0.155   8.900 -0.4139  2.1194 -0.7509
 6847SOL     OW26376   0.990   4.134   8.958  0.3470 -0.0662  0.2992
 6847SOL    HW126377   0.948   4.061   9.002 -1.0327  0.8347  0.5531
 6847SOL    HW226378   1.066   4.155   9.011  0.4799 -1.0043  0.4818
 6848SOL     OW26379   5.090   6.277   0.259  0.4730  0.1808 -0.1474
 6848SOL    HW126380   5.003   6.311   0.238 -0.2298 -0.1479  1.9668
 6848SOL    HW226381   5.091   6.272   0.354  2.0605 -1.8334 -0.2131
 6849SOL     OW26382   0.321   5.934   7.620 -0.3721  0.6784 -0.2269
 6849SOL    HW126383   0.379   5.860   7.638 -1.7115 -0.3808 -0.1224
 6849SOL    HW226384   0.240   5.914   7.666 -0.7607  2.2639 -0.1345
 6850SOL     OW26385   1.340  10.013   4.798 -0.0616 -0.5827 -0.0738
 6850SOL    HW126386   1.394   9.940   4.769 -1.0306 -1.9351  1.3589
 6850SOL    HW226387   1.251   9.977   4.803 -0.7966  1.0492 -0.5097
 6851SOL     OW26388   4.153   9.498   8.275 -0.1450 -0.5137 -0.4213
 6851SOL    HW126389   4.058   9.512   8.281 -0.0907  1.0248 -2.2521
 6851SOL    HW226390   4.163   9.427   8.212 -0.0627 -1.2398  0.3818
 6852SOL     OW26391   5.325   3.407   7.305  0.0808  0.3824  0.1683
 6852SOL    HW126392   5.345   3.481   7.248 -0.9565  0.9623  0.5214
 6852SOL    HW226393   5.237   3.379   7.277 -1.0579  1.5450  2.3099
 6853SOL     OW26394   5.522   8.806   7.930 -0.2291 -0.2733  0.1505
 6853SOL    HW126395   5.540   8.820   7.837  0.4406  2.1064  0.5729
 6853SOL    HW226396   5.436   8.847   7.943 -0.1068 -0.1818  0.6665
 6854SOL     OW26397   4.493   2.447   7.776 -0.1916  0.1642  0.1537
 6854SOL    HW126398   4.573   2.411   7.738 -1.0993 -1.5577 -0.1815
 6854SOL    HW226399   4.443   2.479   7.700 -0.2055  0.4792  0.2921
 6855SOL     OW26400   5.330   4.052   4.354  0.7303 -0.0091  0.2725
 6855SOL    HW126401   5.359   4.140   4.378  0.6736 -0.2071  1.0892
 6855SOL    HW226402   5.298   4.061   4.264  4.1168  0.0409 -1.0445
 6856SOL     OW26403   5.452   0.440   7.979  0.1497 -0.7192 -0.4806
 6856SOL    HW126404   5.469   0.390   7.899  1.8233  0.2826 -0.7920
 6856SOL    HW226405   5.529   0.427   8.033 -0.1812  0.0676  0.2056
 6857SOL     OW26406   8.121   8.769   5.984 -0.3203  0.0404  0.9722
 6857SOL    HW126407   8.048   8.816   6.023 -1.9568  0.6232 -2.3750
 6857SOL    HW226408   8.129   8.806   5.896  1.8322 -2.3312  0.0169
 6858SOL     OW26409   3.159   1.610   8.557 -1.1195 -0.4300 -0.2450
 6858SOL    HW126410   3.197   1.640   8.639 -0.9630 -0.3591 -0.3424
 6858SOL    HW226411   3.068   1.640   8.560 -0.2548  2.6991 -1.6286
 6859SOL     OW26412   7.215  10.781   7.298  0.7974 -0.3398 -0.3132
 6859SOL    HW126413   7.278  10.851   7.282  0.7693 -0.3989 -0.6951
 6859SOL    HW226414   7.199  10.744   7.211 -0.8275  0.5626 -0.4237
 6860SOL     OW26415   1.793   2.871   5.149  0.3642  0.0647  0.0139
 6860SOL    HW126416   1.812   2.853   5.057  1.7104  0.3769  0.2228
 6860SOL    HW226417   1.717   2.930   5.147  0.8168  0.6301 -0.9174
 6861SOL     OW26418   0.278   2.716   4.358 -0.4032  0.3067  0.1254
 6861SOL    HW126419   0.337   2.776   4.312 -0.3086 -0.5918 -0.9912
 6861SOL    HW226420   0.250   2.764   4.436  0.4863  1.3843 -0.1935
 6862SOL     OW26421   5.660   4.883   0.254  0.2352 -0.0181 -0.2678
 6862SOL    HW126422   5.730   4.926   0.302  0.4328 -0.1800 -0.4067
 6862SOL    HW226423   5.592   4.950   0.244  0.8516  0.4993 -1.1507
 6863SOL     OW26424   3.989   0.178   4.059 -0.0442  0.1392  0.2384
 6863SOL    HW126425   3.993   0.093   4.103  0.0001  0.1036  0.1655
 6863SOL    HW226426   4.081   0.205   4.053 -0.1838  1.5083  2.8330
 6864SOL     OW26427   6.209   1.673   4.173  0.6084  0.1627 -0.3692
 6864SOL    HW126428   6.214   1.652   4.080 -0.6801  0.6667 -0.5672
 6864SOL    HW226429   6.123   1.642   4.200  0.8519  0.2947  0.5910
 6865SOL     OW26430   1.775  10.589   7.775  0.2595  0.2498 -0.4507
 6865SOL    HW126431   1.724  10.630   7.845  0.4376 -0.8799  0.3721
 6865SOL    HW226432   1.711  10.537   7.726  0.5564 -1.1531  0.5708
 6866SOL     OW26433   3.571   1.585   9.653 -0.2604  0.0279 -0.2778
 6866SOL    HW126434   3.597   1.562   9.743 -0.3367  0.2129 -0.2083
 6866SOL    HW226435   3.532   1.505   9.618 -0.6013  0.0743 -0.0073
 6867SOL     OW26436   0.500   5.406   5.894 -0.2218  0.2596 -0.1685
 6867SOL    HW126437   0.553   5.478   5.860 -1.1380  0.6371 -0.8362
 6867SOL    HW226438   0.464   5.439   5.976 -0.7884  0.6348 -0.5662
 6868SOL     OW26439   5.022   2.609   6.763 -0.3313  0.2793  0.2755
 6868SOL    HW126440   5.093   2.557   6.725 -0.2605 -0.9594  1.9734
 6868SOL    HW226441   4.943   2.560   6.743 -0.6604  1.1886 -0.8134
 6869SOL     OW26442   0.173   1.331   0.128  0.5679 -0.1828  0.2850
 6869SOL    HW126443   0.255   1.381   0.130 -0.0807  0.9098  0.4104
 6869SOL    HW226444   0.105   1.397   0.142 -0.6324 -0.3568 -3.4793
 6870SOL     OW26445   0.539   1.502  10.406 -0.2484 -0.0048  0.2187
 6870SOL    HW126446   0.450   1.485  10.377 -0.6565 -1.1329  1.9361
 6870SOL    HW226447   0.576   1.415  10.421  0.7722  0.4697  0.5485
 6871SOL     OW26448   9.057   3.949   5.008  0.7660  0.7743 -0.2100
 6871SOL    HW126449   8.996   4.002   5.059  1.4678  0.1339  1.3802
 6871SOL    HW226450   9.016   3.862   5.004  1.6123  0.2828  1.0506
 6872SOL     OW26451   1.428   3.814  10.294 -0.4451  0.7489  0.3610
 6872SOL    HW126452   1.391   3.806  10.206  0.0839  1.2864  0.0918
 6872SOL    HW226453   1.522   3.815  10.281 -0.1676 -2.4032  1.1692
 6873SOL     OW26454   6.981   7.802   7.412 -0.0933  0.2680 -0.3941
 6873SOL    HW126455   7.018   7.762   7.333 -0.6012  0.0643 -0.5283
 6873SOL    HW226456   7.019   7.752   7.484  2.0374  1.7666 -0.3758
 6874SOL     OW26457  10.449   9.457   7.446 -0.4690 -0.1389 -0.8028
 6874SOL    HW126458  10.435   9.363   7.434  0.0293 -0.4354  0.6627
 6874SOL    HW226459  10.536   9.473   7.411  2.4232 -1.6307  4.5516
 6875SOL     OW26460   2.681   3.858   2.874  0.4097  0.0541 -0.2474
 6875SOL    HW126461   2.594   3.834   2.841 -0.2046  0.8945  0.6904
 6875SOL    HW226462   2.671   3.861   2.969  1.1302  1.3672 -0.1850
 6876SOL     OW26463   8.785   6.666   7.631 -0.0100 -0.0651 -0.6161
 6876SOL    HW126464   8.841   6.605   7.584  0.7582  1.1162 -1.2781
 6876SOL    HW226465   8.800   6.645   7.724  0.1690 -0.9257 -0.8288
 6877SOL     OW26466   5.449  10.640   5.209  0.2854 -0.2001  0.2937
 6877SOL    HW126467   5.427  10.612   5.120  0.5713 -0.8193  0.4091
 6877SOL    HW226468   5.367  10.629   5.258 -0.1471  1.1107 -0.1086
 6878SOL     OW26469   2.232   0.270  10.532  0.0707  0.1799 -0.3255
 6878SOL    HW126470   2.317   0.277  10.573  0.5094 -0.4104 -1.1020
 6878SOL    HW226471   2.251   0.262  10.438 -0.7016 -2.1474 -0.3512
 6879SOL     OW26472   5.189   3.658  10.113 -0.1100  0.5153 -0.0503
 6879SOL    HW126473   5.191   3.674  10.019 -1.2193 -0.6632 -0.3019
 6879SOL    HW226474   5.205   3.564  10.122  0.4399  0.6932  0.9740
 6880SOL     OW26475  10.194   4.255   4.061 -0.5170 -0.2240  0.3521
 6880SOL    HW126476  10.193   4.240   4.156 -0.0994 -0.1671  0.3683
 6880SOL    HW226477  10.281   4.291   4.044 -1.5997  2.7132  0.4007
 6881SOL     OW26478   5.000   8.004   3.430 -0.4227  0.4711 -0.1236
 6881SOL    HW126479   4.980   7.911   3.422  0.2494  0.3084 -0.0170
 6881SOL    HW226480   4.919   8.048   3.405 -0.6704 -0.1391 -0.4331
 6882SOL     OW26481   2.346   4.696   7.097  0.1387 -0.3612 -0.3109
 6882SOL    HW126482   2.355   4.602   7.081  1.2233 -0.4254  0.5289
 6882SOL    HW226483   2.387   4.709   7.183 -2.0357  0.5200  0.6569
 6883SOL     OW26484   0.348   1.800   9.144  0.6007 -0.2918  0.0065
 6883SOL    HW126485   0.372   1.866   9.210  0.6873  0.2891 -0.5929
 6883SOL    HW226486   0.258   1.824   9.119 -0.0489 -1.4770  1.0630
 6884SOL     OW26487   3.484   0.228   5.996 -0.1771 -0.4824  0.5657
 6884SOL    HW126488   3.421   0.162   5.969 -1.3481 -0.0996  2.2469
 6884SOL    HW226489   3.433   0.294   6.041  1.0885  1.1714 -0.2970
 6885SOL     OW26490   0.159   8.470   1.371 -0.1109 -0.2524 -0.5088
 6885SOL    HW126491   0.187   8.524   1.297 -2.4272  0.1468 -1.1445
 6885SOL    HW226492   0.228   8.484   1.437 -0.4653  3.4049 -0.6700
 6886SOL     OW26493   1.009   3.392  10.569  0.9901 -0.4385 -0.3412
 6886SOL    HW126494   1.038   3.335  10.640 -2.0912  0.2033  1.5998
 6886SOL    HW226495   0.934   3.347  10.530  0.5377  0.7779 -0.9517
 6887SOL     OW26496   0.965  10.836   2.912 -0.0258 -0.1152  0.6911
 6887SOL    HW126497   0.934  10.771   2.976 -0.7544 -0.9358 -0.4442
 6887SOL    HW226498   1.030  10.789   2.861  1.4955  0.9208  1.6002
 6888SOL     OW26499   5.916   3.530   8.014  0.7588 -0.2688  0.3555
 6888SOL    HW126500   5.958   3.615   8.006 -0.2400  0.3294  1.1185
 6888SOL    HW226501   5.969   3.471   7.961  0.5678  1.1481 -1.5288
 6889SOL     OW26502   1.784   3.173   3.637  0.3141 -0.4364 -0.0565
 6889SOL    HW126503   1.720   3.108   3.667  0.2173  0.8034  2.7681
 6889SOL    HW226504   1.768   3.250   3.692  2.4955  0.8762 -1.0959
 6890SOL     OW26505   6.337   4.403   5.456 -0.0745  0.2439 -0.1818
 6890SOL    HW126506   6.357   4.333   5.518 -0.0568 -0.1621 -0.6359
 6890SOL    HW226507   6.381   4.376   5.375 -0.3042  0.6419 -0.4406
 6891SOL     OW26508   8.170  10.389  10.587  0.4044 -0.3696 -0.0296
 6891SOL    HW126509   8.248  10.336  10.575  1.0962  0.5633  0.2764
 6891SOL    HW226510   8.182  10.431  10.673 -1.8240 -2.5566  1.5129
 6892SOL     OW26511  10.600   8.043   3.314 -0.5216  0.5632  0.1004
 6892SOL    HW126512  10.679   8.065   3.265 -0.9186  0.1617 -0.7399
 6892SOL    HW226513  10.571   7.960   3.278 -1.5865  0.9321  0.0594
 6893SOL     OW26514   2.389   4.693   4.469  0.7232 -0.2422 -0.1409
 6893SOL    HW126515   2.417   4.636   4.397  0.0050  0.0292 -0.6427
 6893SOL    HW226516   2.365   4.633   4.539  1.0863 -0.5204 -0.2531
 6894SOL     OW26517   0.673   3.448   2.583 -0.0906  0.5441  0.2442
 6894SOL    HW126518   0.690   3.542   2.578 -0.2340  0.5210 -1.8284
 6894SOL    HW226519   0.756   3.410   2.612  0.9088  1.1173 -1.6507
 6895SOL     OW26520   6.226   9.425   7.815  0.0644 -0.0640  0.4149
 6895SOL    HW126521   6.198   9.502   7.764  0.6482 -0.2223 -0.1512
 6895SOL    HW226522   6.302   9.391   7.768 -0.7603 -1.5606  0.1131
 6896SOL     OW26523   1.048   3.286  10.838  0.0127 -0.1748  0.4109
 6896SOL    HW126524   0.956   3.259  10.837 -0.3683  0.8042  2.6080
 6896SOL    HW226525   1.048   3.368  10.887  1.9471  0.4199 -0.4964
 6897SOL     OW26526   7.475   8.496   3.516 -0.2078 -0.7218 -0.1026
 6897SOL    HW126527   7.550   8.537   3.558 -2.6963  1.7152  2.3894
 6897SOL    HW226528   7.421   8.569   3.485 -1.8366 -2.3202 -1.2840
 6898SOL     OW26529   0.072   5.187   2.246  0.6522  0.1370 -0.0011
 6898SOL    HW126530   0.024   5.265   2.274 -0.8273 -0.5430 -0.5475
 6898SOL    HW226531   0.093   5.204   2.154  1.1564  0.2657  0.1315
 6899SOL     OW26532   3.467   7.265   9.601  0.4156  0.5575  1.1995
 6899SOL    HW126533   3.379   7.236   9.623  1.0055 -1.4771  1.1142
 6899SOL    HW226534   3.463   7.281   9.506  0.0870  0.7060  1.2361
 6900SOL     OW26535   2.552   3.463   4.207  0.3169 -0.4119 -0.7685
 6900SOL    HW126536   2.608   3.495   4.136  2.9222 -0.6197  1.0286
 6900SOL    HW226537   2.478   3.523   4.208  1.6378  1.3504 -1.8455
 6901SOL     OW26538   9.294   7.401   0.177 -0.4438 -0.0429 -0.0457
 6901SOL    HW126539   9.271   7.311   0.200  1.0115 -0.0713  1.5777
 6901SOL    HW226540   9.333   7.436   0.257 -0.0408  1.7098 -0.9624
 6902SOL     OW26541   2.931  10.082   5.360 -0.0376  0.2160  0.6192
 6902SOL    HW126542   2.955  10.050   5.273 -0.1924  1.7337 -0.0092
 6902SOL    HW226543   2.842  10.117   5.349 -1.3487 -2.3448  2.1376
 6903SOL     OW26544   0.809   2.976   2.680  0.2689  0.1438 -0.6021
 6903SOL    HW126545   0.897   2.945   2.700  0.1475 -0.2199 -0.6351
 6903SOL    HW226546   0.823   3.063   2.642  0.3931  1.9981  3.2401
 6904SOL     OW26547   4.119   6.029   4.389 -0.6575 -0.4426 -0.2829
 6904SOL    HW126548   4.025   6.010   4.395 -0.5247 -1.0523 -0.1145
 6904SOL    HW226549   4.161   5.954   4.430 -0.0616 -0.5069 -0.9997
 6905SOL     OW26550   0.448   3.281   5.710  0.1975  0.1205  0.1357
 6905SOL    HW126551   0.357   3.266   5.688 -0.2831 -0.6922  2.3868
 6905SOL    HW226552   0.458   3.376   5.705 -0.8512  0.2441  0.1171
 6906SOL     OW26553  10.391   3.633   3.998 -0.0191  0.2143  0.1947
 6906SOL    HW126554  10.374   3.676   3.915  1.1555  1.2554  0.4709
 6906SOL    HW226555  10.427   3.547   3.974 -3.2202 -1.0906 -0.3643
 6907SOL     OW26556  10.440   5.426   6.219  0.0756  0.0213  0.0254
 6907SOL    HW126557  10.465   5.512   6.255 -0.7805  0.0480  0.5876
 6907SOL    HW226558  10.415   5.445   6.129 -2.3704  0.8214  0.7821
 6908SOL     OW26559   9.778  10.557  10.849 -0.5112 -0.3025  0.0547
 6908SOL    HW126560   9.755  10.572  10.757  0.6592 -1.4106 -0.4375
 6908SOL    HW226561   9.861  10.510  10.846  0.4350  1.1441  1.7281
 6909SOL     OW26562   1.096   8.684   7.260  0.3617 -1.0549 -0.1418
 6909SOL    HW126563   1.190   8.693   7.244  0.0600  0.8399 -1.2509
 6909SOL    HW226564   1.056   8.701   7.175 -0.9993 -1.5722  0.3711
 6910SOL     OW26565   6.717   9.122   0.030  0.3450  0.1333 -0.1122
 6910SOL    HW126566   6.805   9.159   0.026  0.7743 -0.5358  1.8616
 6910SOL    HW226567   6.659   9.199   0.031  0.9313  0.5934 -0.6805
 6911SOL     OW26568   0.168   7.581   7.735 -0.5629  0.2993 -0.1582
 6911SOL    HW126569   0.173   7.540   7.649 -2.3165 -0.3367  0.0015
 6911SOL    HW226570   0.225   7.658   7.728 -1.1124  0.5902 -2.0639
 6912SOL     OW26571   6.477   2.959   2.773  0.1874 -0.6984 -0.7608
 6912SOL    HW126572   6.476   2.933   2.865  0.7193 -1.0355 -0.8455
 6912SOL    HW226573   6.567   2.985   2.757  0.6329 -2.6562 -1.7302
 6913SOL     OW26574  10.358   6.737   7.392  0.3610 -0.1412 -1.0557
 6913SOL    HW126575  10.421   6.693   7.448 -2.0348 -1.7586  0.5795
 6913SOL    HW226576  10.375   6.830   7.404  1.9185 -0.5154 -0.1012
 6914SOL     OW26577   5.622   2.177   4.504  0.0503 -0.0165 -0.4240
 6914SOL    HW126578   5.695   2.170   4.443  0.0946 -0.7428 -0.2921
 6914SOL    HW226579   5.637   2.259   4.551  1.9439 -1.1596  1.1094
 6915SOL     OW26580   2.412   7.634   6.769  0.4916 -0.5461  0.0024
 6915SOL    HW126581   2.343   7.701   6.763  0.7019 -0.4384 -1.7964
 6915SOL    HW226582   2.365   7.551   6.760  0.2419 -0.6781  2.1388
 6916SOL     OW26583   0.924   9.341   2.155 -1.2196  0.5258  0.4907
 6916SOL    HW126584   1.003   9.390   2.131 -0.8847 -0.2806 -0.0970
 6916SOL    HW226585   0.953   9.276   2.218 -1.5579  0.7087  0.8407
 6917SOL     OW26586   3.763   8.438   3.161 -0.0116  0.0642 -0.1201
 6917SOL    HW126587   3.795   8.526   3.140 -0.1820 -0.1493 -1.3582
 6917SOL    HW226588   3.839   8.381   3.149  0.3362  0.1204  1.5445
 6918SOL     OW26589   2.064   7.449   0.112 -0.8331 -0.1128  0.6174
 6918SOL    HW126590   2.092   7.393   0.184  1.0901  1.1826  0.9760
 6918SOL    HW226591   2.052   7.535   0.152 -2.2470  0.0878 -0.1765
 6919SOL     OW26592   8.278   1.053   1.225  0.0641  0.3324 -0.0007
 6919SOL    HW126593   8.286   1.094   1.139  0.8238 -0.5243 -0.3603
 6919SOL    HW226594   8.367   1.054   1.260 -0.1547  0.2452  0.5709
 6920SOL     OW26595   3.523   2.003   7.349  0.0671 -0.1644 -0.2254
 6920SOL    HW126596   3.497   2.095   7.350  1.6342  0.3432 -1.4618
 6920SOL    HW226597   3.445   1.957   7.319 -1.4435  0.4462  2.5042
 6921SOL     OW26598   3.434   9.138   6.971 -0.2056  0.2767 -0.1344
 6921SOL    HW126599   3.475   9.115   7.055 -0.4992 -0.2600 -0.1332
 6921SOL    HW226600   3.340   9.132   6.988 -0.3993  3.1252  0.3367
 6922SOL     OW26601   9.174   8.112   3.268  0.2479 -0.3580 -0.1636
 6922SOL    HW126602   9.166   8.017   3.258  1.6864 -0.6072  0.8043
 6922SOL    HW226603   9.268   8.128   3.266  0.0256  1.0366 -0.1380
 6923SOL     OW26604   8.899   6.378   8.473  0.4981 -0.1563  0.1132
 6923SOL    HW126605   8.868   6.423   8.552 -1.6367  1.5682 -1.5893
 6923SOL    HW226606   8.962   6.439   8.434 -0.3321  0.1665 -0.7694
 6924SOL     OW26607   0.687   0.836   8.961  0.0980 -0.5448  0.3664
 6924SOL    HW126608   0.600   0.796   8.960  0.5800 -1.6859 -1.2379
 6924SOL    HW226609   0.748   0.762   8.954  1.4082 -0.0233  4.0989
 6925SOL     OW26610   9.715   4.486  10.102  0.2673 -0.1996  0.4782
 6925SOL    HW126611   9.666   4.456  10.179  0.3585  0.7320  0.9042
 6925SOL    HW226612   9.796   4.522  10.138  2.0191 -3.0493 -0.2993
 6926SOL     OW26613  10.100   6.214   2.193 -0.1405  0.2552  0.2472
 6926SOL    HW126614  10.064   6.272   2.260  0.0792  0.1873  0.4281
 6926SOL    HW226615  10.057   6.130   2.207 -3.2473  1.2300 -2.3188
 6927SOL     OW26616   8.202   2.490   0.393 -0.4456  0.1129  0.7131
 6927SOL    HW126617   8.235   2.450   0.312 -1.2526  0.8811 -0.0022
 6927SOL    HW226618   8.205   2.584   0.377 -0.0576  0.3045  1.8066
 6928SOL     OW26619   0.384   5.551   2.636  0.2484  0.2605 -0.6492
 6928SOL    HW126620   0.352   5.639   2.659  3.4913  0.7913  2.8036
 6928SOL    HW226621   0.332   5.492   2.691  1.2176  0.5760  0.6654
 6929SOL     OW26622   7.161   4.074   8.866 -0.0584 -0.0351 -0.4539
 6929SOL    HW126623   7.210   4.051   8.787  1.0028  0.8919 -0.0915
 6929SOL    HW226624   7.078   4.109   8.834 -0.5974 -1.7875 -1.0753
 6930SOL     OW26625   0.032   9.038   4.797 -0.3761 -0.0645 -0.8212
 6930SOL    HW126626   0.064   8.956   4.759  0.7737  0.5425 -1.2205
 6930SOL    HW226627  -0.045   9.060   4.744  0.2899 -0.0442 -1.8205
 6931SOL     OW26628   9.891   0.437   8.716 -0.3152  0.1779  0.2199
 6931SOL    HW126629   9.913   0.403   8.802  1.1783  0.9037  0.1594
 6931SOL    HW226630   9.975   0.458   8.676 -0.9314 -0.6686 -1.6529
 6932SOL     OW26631   2.755   1.104  10.109  0.1400  0.2932  0.1178
 6932SOL    HW126632   2.815   1.146  10.170 -1.8922  1.0214  1.7049
 6932SOL    HW226633   2.758   1.012  10.131  1.8044  0.0622 -0.8882
 6933SOL     OW26634  10.553   6.963   5.630 -0.0008  0.6000 -0.0990
 6933SOL    HW126635  10.578   7.001   5.714 -0.7107 -0.1234  0.4501
 6933SOL    HW226636  10.614   7.002   5.567  0.3728  1.3437  0.7038
 6934SOL     OW26637   6.670   7.114   0.707 -0.8168 -0.0259 -0.3863
 6934SOL    HW126638   6.684   7.162   0.788 -1.0522  1.8095 -1.3798
 6934SOL    HW226639   6.749   7.060   0.697  0.0093  1.0457  0.1733
 6935SOL     OW26640   7.789   4.537   8.871 -0.0899 -0.7786  0.7364
 6935SOL    HW126641   7.776   4.545   8.776 -1.4708 -1.5497  0.8366
 6935SOL    HW226642   7.838   4.455   8.881  2.0351  0.4154  0.5788
 6936SOL     OW26643   0.472   8.846  10.268 -0.3501 -0.3069 -0.0120
 6936SOL    HW126644   0.511   8.778  10.214 -0.0815  0.9029 -1.4004
 6936SOL    HW226645   0.397   8.877  10.218 -0.1513  0.7814  0.3240
 6937SOL     OW26646  10.487   7.086   0.071 -0.0718 -0.2067 -0.1459
 6937SOL    HW126647  10.539   7.148   0.021 -0.1555  0.7405  0.9068
 6937SOL    HW226648  10.396   7.110   0.053 -0.1220  1.5144  2.0286
 6938SOL     OW26649   9.411   4.604   0.813  0.2910 -0.0969 -0.5745
 6938SOL    HW126650   9.386   4.570   0.726 -1.5806 -1.7887  0.5280
 6938SOL    HW226651   9.353   4.558   0.874  1.3458  1.2627  1.5756
 6939SOL     OW26652   1.477   2.765   9.030 -0.0722 -0.4271 -0.4772
 6939SOL    HW126653   1.463   2.748   9.123  1.0151  0.0678 -0.2043
 6939SOL    HW226654   1.463   2.680   8.987 -0.8143 -0.6062  0.0995
 6940SOL     OW26655   9.259   9.844   6.010 -0.2488  1.0548  0.2538
 6940SOL    HW126656   9.343   9.865   6.050  0.1322 -0.6929  0.4953
 6940SOL    HW226657   9.214   9.927   6.002  1.3039  1.9681  0.5882
 6941SOL     OW26658   2.369  10.528   5.756  0.0367  0.2194 -0.1478
 6941SOL    HW126659   2.464  10.539   5.752  0.1500 -0.0914  1.2592
 6941SOL    HW226660   2.353  10.445   5.711  0.3574  0.5656 -0.9142
 6942SOL     OW26661   7.170   9.615   4.032 -0.8193 -0.3648 -0.1297
 6942SOL    HW126662   7.127   9.692   4.069 -2.7186 -0.7688 -1.3821
 6942SOL    HW226663   7.152   9.545   4.094  0.8006  0.1153  0.9452
 6943SOL     OW26664   4.478   4.004   9.533 -0.0337 -0.3938 -0.4143
 6943SOL    HW126665   4.383   4.009   9.542 -0.1244 -0.4417 -1.2436
 6943SOL    HW226666   4.491   3.971   9.444  0.7704  0.8767 -0.7922
 6944SOL     OW26667   0.422   3.873  10.518 -0.1470 -0.1213  0.1172
 6944SOL    HW126668   0.372   3.795  10.541 -1.6421  0.9598  0.6341
 6944SOL    HW226669   0.362   3.926  10.465  1.1625  0.2625 -1.0393
 6945SOL     OW26670   3.756   2.419   6.781  0.3206  0.1747  0.6991
 6945SOL    HW126671   3.825   2.435   6.845  1.8665 -0.8270 -0.6146
 6945SOL    HW226672   3.785   2.465   6.702 -1.2584  0.9346  0.5300
 6946SOL     OW26673   7.810  10.244   0.256  0.1052  0.0836 -0.6308
 6946SOL    HW126674   7.883  10.236   0.318 -0.0894  0.6198 -0.3203
 6946SOL    HW226675   7.812  10.163   0.206 -0.8800 -1.2608  1.3446
 6947SOL     OW26676   8.202   5.921   3.622 -0.1039 -0.4201 -0.1984
 6947SOL    HW126677   8.244   5.866   3.689  0.5246 -0.4750 -0.6252
 6947SOL    HW226678   8.188   5.862   3.549 -0.5115 -0.2866 -0.2285
 6948SOL     OW26679   1.325   2.434   3.751 -0.0507  0.4365 -0.3637
 6948SOL    HW126680   1.341   2.422   3.845 -0.3418 -0.2055 -0.3925
 6948SOL    HW226681   1.262   2.507   3.747  1.2055  1.5703 -0.1541
 6949SOL     OW26682   6.179   9.751   1.203 -0.2591  0.3059 -0.2714
 6949SOL    HW126683   6.251   9.768   1.143 -0.1286  0.1371 -0.1638
 6949SOL    HW226684   6.160   9.837   1.242 -0.1004  0.3457 -0.2808
 6950SOL     OW26685   3.569   3.459   5.100  0.6361 -0.2379 -0.1067
 6950SOL    HW126686   3.600   3.385   5.049  1.0975  0.6532 -1.1599
 6950SOL    HW226687   3.479   3.437   5.123  1.5048 -2.2611  1.8254
 6951SOL     OW26688   7.498   5.790   3.306 -0.0366 -0.1315  0.4998
 6951SOL    HW126689   7.423   5.828   3.351  0.9154  1.9706  0.3983
 6951SOL    HW226690   7.461   5.751   3.226 -0.8665  2.3571 -0.4107
 6952SOL     OW26691   8.297   0.279   4.769 -0.0292  0.0108  0.1844
 6952SOL    HW126692   8.219   0.232   4.798 -0.7040  0.7973 -0.3120
 6952SOL    HW226693   8.281   0.298   4.677  1.1740 -0.6338 -0.1718
 6953SOL     OW26694   4.170   8.350   7.927  0.4826 -0.1929 -0.0322
 6953SOL    HW126695   4.165   8.396   7.843 -0.3894 -0.5821 -0.2096
 6953SOL    HW226696   4.127   8.266   7.910 -0.9181  0.2409  1.1237
 6954SOL     OW26697   2.380   5.596   1.263 -0.2238 -0.6218  0.0052
 6954SOL    HW126698   2.375   5.551   1.348  1.7642 -2.6175 -0.8557
 6954SOL    HW226699   2.292   5.588   1.226 -0.8485 -0.6043  1.4190
 6955SOL     OW26700   9.326   1.184  10.225  0.0932  0.4833 -0.6676
 6955SOL    HW126701   9.275   1.265  10.227 -1.0306 -0.2020 -0.5541
 6955SOL    HW226702   9.402   1.204  10.169 -0.4300  1.4606 -1.0482
 6956SOL     OW26703   4.496  10.203   5.916 -0.2632 -0.3563 -0.3425
 6956SOL    HW126704   4.438  10.232   5.987  1.1791  0.8348  0.3911
 6956SOL    HW226705   4.567  10.157   5.959 -0.7922 -2.1069 -1.2668
 6957SOL     OW26706   6.045   1.918   5.654  0.2299 -0.2728 -0.2627
 6957SOL    HW126707   6.027   1.836   5.607 -0.0915 -1.0769  1.2088
 6957SOL    HW226708   5.993   1.984   5.608 -1.3028 -1.3267 -0.0990
 6958SOL     OW26709  10.568   2.536   6.387 -0.1486  0.3656 -0.5057
 6958SOL    HW126710  10.487   2.522   6.435  0.3167 -1.3723 -0.1634
 6958SOL    HW226711  10.557   2.622   6.347 -0.6363  1.8957  2.5644
 6959SOL     OW26712   7.595   8.902   7.640  0.6858  0.3694  0.1349
 6959SOL    HW126713   7.567   8.811   7.650 -0.9559  1.0885  2.9637
 6959SOL    HW226714   7.553   8.931   7.559 -0.1754 -0.9049  0.0981
 6960SOL     OW26715   9.355   3.976   0.817 -0.1664  0.2220  0.0698
 6960SOL    HW126716   9.301   4.052   0.795 -0.2527 -0.1647 -1.1325
 6960SOL    HW226717   9.440   4.014   0.841 -0.8206  0.8065  1.6386
 6961SOL     OW26718   2.313   4.815   7.925 -0.2545 -0.1699 -0.1475
 6961SOL    HW126719   2.280   4.902   7.903 -1.0816 -0.2315  0.7551
 6961SOL    HW226720   2.279   4.798   8.013  2.7818  0.0103  1.1794
 6962SOL     OW26721   4.872   9.712   6.047 -0.3491 -0.2238 -0.1776
 6962SOL    HW126722   4.786   9.725   6.006  0.0437 -0.5742 -1.1507
 6962SOL    HW226723   4.913   9.643   5.994  0.5077 -0.1034  0.3155
 6963SOL     OW26724   4.691   2.373  10.131 -0.5175  0.1220  0.0977
 6963SOL    HW126725   4.781   2.379  10.162 -0.0283  0.1512 -1.2698
 6963SOL    HW226726   4.646   2.322  10.198  0.7421 -0.7026  0.3477
 6964SOL     OW26727   5.218   8.261   0.584  0.3871  0.4208  0.0651
 6964SOL    HW126728   5.284   8.275   0.517  2.0003 -0.1854  1.4458
 6964SOL    HW226729   5.147   8.214   0.539  2.5242 -2.3191 -0.7166
 6965SOL     OW26730   8.520   0.441   3.338  0.3359 -0.0017  0.0135
 6965SOL    HW126731   8.457   0.508   3.312  1.9556  2.1924  1.3115
 6965SOL    HW226732   8.498   0.423   3.430  1.0258  0.1449  0.2120
 6966SOL     OW26733   7.473   6.651   5.673 -0.2675  0.0992  0.1204
 6966SOL    HW126734   7.405   6.719   5.680 -0.7664 -0.3137 -0.5724
 6966SOL    HW226735   7.517   6.653   5.758  0.8486  2.4451 -0.4224
 6967SOL     OW26736  10.698   0.477   3.665 -0.3662 -0.3929  0.6398
 6967SOL    HW126737  10.778   0.438   3.699  0.1268 -0.1274 -0.1854
 6967SOL    HW226738  10.715   0.572   3.666  0.2177 -0.4227 -1.5954
 6968SOL     OW26739  10.623   2.628  10.884 -0.2758 -0.2552  0.0935
 6968SOL    HW126740  10.700   2.639  10.940  0.2866  2.3081 -1.0857
 6968SOL    HW226741  10.657   2.624  10.795 -1.4736  0.4721 -0.4250
 6969SOL     OW26742  10.427   8.272   7.864 -0.4980 -0.1059  0.1676
 6969SOL    HW126743  10.379   8.301   7.786 -0.7395  0.5561  0.5533
 6969SOL    HW226744  10.463   8.353   7.901  2.0495 -0.6786 -0.8269
 6970SOL     OW26745   7.325   7.517   5.561  0.4339  0.6504 -0.1181
 6970SOL    HW126746   7.250   7.525   5.502 -1.2240 -0.2858  1.7342
 6970SOL    HW226747   7.398   7.553   5.511 -0.6527 -0.8162 -3.0376
 6971SOL     OW26748   4.775   5.672   3.865 -0.1575 -0.2490  0.4134
 6971SOL    HW126749   4.815   5.748   3.907  0.4726  0.2143 -0.9636
 6971SOL    HW226750   4.705   5.708   3.811  0.3639 -0.5972 -0.5132
 6972SOL     OW26751   8.123   3.080   1.776 -0.0934 -0.0437 -0.0384
 6972SOL    HW126752   8.122   3.078   1.872 -1.6289 -0.7192 -0.0430
 6972SOL    HW226753   8.191   3.018   1.751 -0.6768 -0.9568  0.6045
 6973SOL     OW26754   9.380   2.831   5.219 -0.1156  0.4175 -0.3557
 6973SOL    HW126755   9.316   2.760   5.220  0.2215  0.0861 -1.0949
 6973SOL    HW226756   9.394   2.853   5.311  0.7171 -1.3267 -0.0291
 6974SOL     OW26757  10.481   9.756   4.419 -0.5235 -0.2033  0.2470
 6974SOL    HW126758  10.443   9.702   4.487 -0.0364 -0.1921  0.5306
 6974SOL    HW226759  10.570   9.773   4.448 -0.2062 -0.4584 -0.5397
 6975SOL     OW26760   2.245   7.584   4.869 -0.3843  0.0846 -0.1050
 6975SOL    HW126761   2.190   7.626   4.934 -0.9641 -1.0547  0.1582
 6975SOL    HW226762   2.187   7.523   4.824  0.0388  0.7295 -1.6008
 6976SOL     OW26763   6.107  10.231   5.714  0.1919  0.5433 -0.4681
 6976SOL    HW126764   6.035  10.293   5.698 -0.2425  0.0903 -0.2802
 6976SOL    HW226765   6.185  10.280   5.689  0.0450  1.8390  1.3304
 6977SOL     OW26766  10.076   0.001   9.242 -0.2279  0.1245  0.4159
 6977SOL    HW126767  10.016   0.060   9.289  1.2169  0.7244  1.5889
 6977SOL    HW226768  10.146   0.058   9.210 -0.1161 -0.5973 -0.6749
 6978SOL     OW26769   4.562   0.629   1.260 -0.0770 -0.1077  0.1724
 6978SOL    HW126770   4.516   0.700   1.305 -0.1015  1.6657 -2.4891
 6978SOL    HW226771   4.494   0.564   1.242 -0.3262 -0.2007  1.3194
 6979SOL     OW26772   9.135   1.222   9.670  0.1074 -0.4091  0.1453
 6979SOL    HW126773   9.225   1.236   9.641 -0.4469  1.4367 -0.7979
 6979SOL    HW226774   9.142   1.206   9.764  1.4018 -0.1412  0.1016
 6980SOL     OW26775  10.749   4.469   2.700 -0.1104  0.0328  0.0330
 6980SOL    HW126776  10.661   4.495   2.728  0.3655  1.5895  0.1930
 6980SOL    HW226777  10.805   4.543   2.726  1.1652 -0.7114 -0.5077
 6981SOL     OW26778   2.502   5.003   7.296  0.1314 -0.1304 -0.2644
 6981SOL    HW126779   2.498   4.930   7.358  1.4196  0.4031  0.4855
 6981SOL    HW226780   2.411   5.014   7.266 -0.0092 -2.3836 -0.8375
 6982SOL     OW26781   2.138   7.800   5.257 -0.2570  0.5669  0.3765
 6982SOL    HW126782   2.100   7.755   5.181  0.6703  0.6593 -0.1647
 6982SOL    HW226783   2.088   7.768   5.332 -1.2588  0.5504 -0.2842
 6983SOL     OW26784   4.644   4.126   3.777  0.1435 -0.5438  0.5710
 6983SOL    HW126785   4.646   4.080   3.861  0.6492 -2.5719 -0.4842
 6983SOL    HW226786   4.552   4.148   3.765  0.2627  1.4198  2.4093
 6984SOL     OW26787   8.779   7.926   1.018 -0.8703  0.2400  0.1390
 6984SOL    HW126788   8.831   7.920   0.938 -0.1838  2.0534  0.4201
 6984SOL    HW226789   8.732   8.008   1.011 -1.0987  0.2456  1.4291
 6985SOL     OW26790   4.450   3.526   8.525  0.4152  0.3064  0.3806
 6985SOL    HW126791   4.386   3.495   8.462  0.7247 -0.8067  0.6055
 6985SOL    HW226792   4.526   3.551   8.472  0.8608 -1.0863  0.3194
 6986SOL     OW26793   0.162   7.979   6.872 -0.1380  0.0273 -0.5672
 6986SOL    HW126794   0.099   8.051   6.867  0.7354  0.7665 -1.3282
 6986SOL    HW226795   0.237   8.016   6.919  0.3093 -0.3912 -0.9423
 6987SOL     OW26796   3.331   6.122   0.875  0.0257  0.1386  0.1181
 6987SOL    HW126797   3.279   6.201   0.858 -1.6454 -1.1956 -1.2817
 6987SOL    HW226798   3.290   6.054   0.822  1.7512 -1.5783  0.8657
 6988SOL     OW26799   0.530   4.936   2.885  0.4095  0.1953  0.0052
 6988SOL    HW126800   0.492   5.023   2.877  0.9012  0.3281 -1.1024
 6988SOL    HW226801   0.525   4.899   2.797  1.7270 -0.2391  0.0829
 6989SOL     OW26802   4.464   7.958  10.363 -0.2548  0.2187  0.5432
 6989SOL    HW126803   4.402   7.888  10.345 -0.1034  0.2286 -0.0491
 6989SOL    HW226804   4.548   7.925  10.330  0.3266 -0.2955  2.4544
 6990SOL     OW26805   4.166   0.009   7.347 -0.4697  0.2873  0.4705
 6990SOL    HW126806   4.227  -0.005   7.419 -0.0997  0.6753  0.2320
 6990SOL    HW226807   4.178  -0.067   7.290 -1.1752 -0.3149  1.1033
 6991SOL     OW26808   0.175   5.670   9.148 -0.5806 -0.3850 -0.2537
 6991SOL    HW126809   0.114   5.632   9.085 -0.6171 -0.0224 -0.4420
 6991SOL    HW226810   0.243   5.604   9.158 -1.3120 -1.0502  0.4245
 6992SOL     OW26811   7.994   5.842   1.557  0.3260  0.4737 -0.0358
 6992SOL    HW126812   8.087   5.838   1.532  0.2288  0.0570 -0.3298
 6992SOL    HW226813   7.947   5.819   1.477 -0.0323  0.6893  0.1147
 6993SOL     OW26814   3.564   5.462   3.927  0.1313  0.1869 -0.3458
 6993SOL    HW126815   3.575   5.488   3.836  1.1608 -2.1751 -0.9685
 6993SOL    HW226816   3.500   5.392   3.925  1.1190 -0.7882  0.5571
 6994SOL     OW26817   3.115   0.734   7.271 -0.0123  0.7836 -0.8403
 6994SOL    HW126818   3.128   0.639   7.264 -1.5138  0.5347 -0.6426
 6994SOL    HW226819   3.125   0.766   7.181 -2.2569  0.0025 -1.4407
 6995SOL     OW26820   8.798   4.327  10.334 -0.4831  0.1729  0.0878
 6995SOL    HW126821   8.781   4.324  10.428 -0.8578 -0.2886  0.0138
 6995SOL    HW226822   8.735   4.391  10.300 -1.6586 -1.0259 -0.0914
 6996SOL     OW26823   4.543   9.765   8.037  0.0482  0.2229 -0.0684
 6996SOL    HW126824   4.527   9.850   8.078  2.5112 -0.6880  3.2530
 6996SOL    HW226825   4.499   9.702   8.094  3.4194 -1.0933  1.3360
 6997SOL     OW26826   9.120   4.674   8.297 -0.2037 -0.0249 -0.5842
 6997SOL    HW126827   9.088   4.757   8.335 -0.0824 -0.5969  0.8231
 6997SOL    HW226828   9.178   4.701   8.226 -1.7834  1.0699 -1.5404
 6998SOL     OW26829   8.823   2.186   9.406 -0.3209 -0.0789  0.1433
 6998SOL    HW126830   8.912   2.192   9.373  0.7353 -1.1958  2.5738
 6998SOL    HW226831   8.786   2.109   9.363  0.0544  0.0556 -0.4293
 6999SOL     OW26832   6.047   5.147   9.471 -0.0847  0.2297  0.4723
 6999SOL    HW126833   5.960   5.178   9.497 -1.1029 -2.0287  0.0364
 6999SOL    HW226834   6.088   5.118   9.552  0.0644  0.8494  0.6183
 7000SOL     OW26835   4.070   6.260   6.957 -0.4607 -0.7083 -0.7074
 7000SOL    HW126836   4.050   6.254   6.864 -0.6329 -0.9315 -0.6583
 7000SOL    HW226837   3.985   6.273   6.999 -0.3722 -0.5036 -0.5902
 7001SOL     OW26838   9.065   9.942   5.130  0.6683  0.0478 -0.5341
 7001SOL    HW126839   9.094   9.906   5.214 -0.0594 -3.1878 -1.5020
 7001SOL    HW226840   8.969   9.934   5.133  0.7003 -3.5914 -2.8373
 7002SOL     OW26841   3.852   6.549   2.464 -0.0129  0.0904  0.3246
 7002SOL    HW126842   3.765   6.515   2.445 -0.0446 -0.6043  1.6210
 7002SOL    HW226843   3.894   6.557   2.378 -1.4557  0.7657 -0.3480
 7003SOL     OW26844   4.377   7.369   6.824  0.7127 -0.2037 -0.0085
 7003SOL    HW126845   4.471   7.364   6.846  1.0498  3.2143 -0.0122
 7003SOL    HW226846   4.375   7.379   6.729  0.2723 -0.8159 -0.0699
 7004SOL     OW26847   0.772   4.835   5.151 -0.4765  0.0720  0.8900
 7004SOL    HW126848   0.808   4.867   5.068 -0.7623  2.2518  1.5410
 7004SOL    HW226849   0.703   4.897   5.174 -2.8242 -2.4320  1.0902
 7005SOL     OW26850   0.730   8.842   7.550  0.1056 -0.1277 -0.4096
 7005SOL    HW126851   0.691   8.911   7.603 -2.2782 -1.6083 -0.0725
 7005SOL    HW226852   0.824   8.846   7.570 -0.3817  0.9750  2.0105
 7006SOL     OW26853   3.433   1.688   0.187  0.1345  0.1953 -0.6091
 7006SOL    HW126854   3.445   1.655   0.276 -2.5943 -0.5037 -0.4112
 7006SOL    HW226855   3.391   1.616   0.141 -0.0791  1.1623 -1.9829
 7007SOL     OW26856   3.660   0.128  10.549 -0.3395 -0.4422 -0.3410
 7007SOL    HW126857   3.606   0.197  10.509  0.4792 -0.3862 -1.4015
 7007SOL    HW226858   3.728   0.176  10.597 -0.2077 -0.4957 -0.4705
 7008SOL     OW26859   6.986   5.167   7.774  0.1804 -0.2479  0.5753
 7008SOL    HW126860   6.992   5.243   7.717 -0.3514 -0.0943  0.7194
 7008SOL    HW226861   7.044   5.102   7.734 -1.1049 -0.5839 -0.8259
 7009SOL     OW26862   7.244   3.084   5.100  0.4760 -0.6850  0.2040
 7009SOL    HW126863   7.259   2.992   5.123  0.1612 -1.1123 -1.2220
 7009SOL    HW226864   7.174   3.081   5.034  0.5605  0.5663  0.0404
 7010SOL     OW26865   3.595   7.732   1.387  0.4560 -0.4324 -0.0571
 7010SOL    HW126866   3.663   7.714   1.452  0.0530  2.1708  1.1817
 7010SOL    HW226867   3.630   7.802   1.333 -1.2793  1.2181  0.8184
 7011SOL     OW26868   0.669   5.321   6.511 -0.2269  0.4181 -0.3463
 7011SOL    HW126869   0.637   5.385   6.447  1.7759 -0.4118 -2.3312
 7011SOL    HW226870   0.764   5.323   6.500  0.2209  0.2714  2.7519
 7012SOL     OW26871   5.694   0.201   8.452  0.3944  0.3032  0.1377
 7012SOL    HW126872   5.610   0.156   8.452  0.7829 -0.4462  0.1816
 7012SOL    HW226873   5.742   0.164   8.378  0.6159  0.8562  0.0004
 7013SOL     OW26874   4.745   9.539   7.487  0.0920  0.2259  0.0647
 7013SOL    HW126875   4.807   9.473   7.454  1.0988  0.5806  1.1847
 7013SOL    HW226876   4.773   9.621   7.446  0.8841  0.5333  1.2018
 7014SOL     OW26877   9.484   1.766   1.036 -0.2957 -0.6469 -0.2054
 7014SOL    HW126878   9.576   1.770   1.061 -0.3695 -0.2698  0.0174
 7014SOL    HW226879   9.461   1.857   1.017 -1.3768 -0.2289  2.5588
 7015SOL     OW26880  10.290   7.475   0.438 -0.2039 -0.1465  0.1023
 7015SOL    HW126881  10.214   7.522   0.473 -1.5754  0.4484 -3.3582
 7015SOL    HW226882  10.280   7.478   0.343  3.7435 -0.8234 -0.5167
 7016SOL     OW26883   1.800   0.695   2.758 -0.0943  0.2984  0.4686
 7016SOL    HW126884   1.730   0.691   2.823 -1.0987 -1.5803 -0.6505
 7016SOL    HW226885   1.858   0.623   2.781 -0.3017 -0.2027 -0.5256
 7017SOL     OW26886   2.796   4.476   8.081 -0.1174 -0.6609  0.2023
 7017SOL    HW126887   2.795   4.414   8.009  2.3714 -0.8596  0.2695
 7017SOL    HW226888   2.784   4.422   8.159 -4.2939 -0.3114  0.0334
 7018SOL     OW26889   1.142   7.373   0.043  0.3385  0.0864 -0.0444
 7018SOL    HW126890   1.211   7.379  -0.023  1.1663 -1.0305  0.6716
 7018SOL    HW226891   1.174   7.306   0.105 -0.8579  0.3825  0.9366
 7019SOL     OW26892   3.447   3.639   5.874  0.0802 -0.0495  1.0211
 7019SOL    HW126893   3.525   3.587   5.894  0.1773  0.6643  2.7372
 7019SOL    HW226894   3.411   3.661   5.960 -1.4978  0.4237  0.2822
 7020SOL     OW26895   8.134   3.224   5.008 -0.5487 -0.3866  0.0101
 7020SOL    HW126896   8.124   3.246   5.100 -1.8617 -0.6115 -0.0629
 7020SOL    HW226897   8.180   3.140   5.007  0.9331  0.3913  0.3959
 7021SOL     OW26898   8.108  10.031   5.609  0.7542  0.0068  0.5478
 7021SOL    HW126899   8.193  10.040   5.651  0.1488  0.7260  1.6654
 7021SOL    HW226900   8.065  10.116   5.621 -0.5168 -0.6501  0.9169
 7022SOL     OW26901   6.340   7.888  10.022 -0.7476  0.0196 -0.0988
 7022SOL    HW126902   6.336   7.847  10.108 -1.3452 -0.0209 -0.1399
 7022SOL    HW226903   6.345   7.815   9.960  2.5030  0.0582 -0.0077
 7023SOL     OW26904  10.833   8.532   7.600  0.3431 -0.1143  0.4558
 7023SOL    HW126905  10.925   8.528   7.576  0.3809 -0.6864  0.6964
 7023SOL    HW226906  10.798   8.446   7.578  0.2086 -0.4092  1.7725
 7024SOL     OW26907   6.840   8.208   2.800  0.4672  0.4842 -0.3097
 7024SOL    HW126908   6.766   8.266   2.817 -0.5885 -0.5078 -1.2901
 7024SOL    HW226909   6.816   8.125   2.841 -0.4068 -0.7684 -3.1110
 7025SOL     OW26910   9.768   2.803   3.747 -0.3641 -0.1687  0.1505
 7025SOL    HW126911   9.727   2.752   3.817  0.3966  0.4658  1.0994
 7025SOL    HW226912   9.695   2.837   3.695 -1.2228  2.0545  2.5634
 7026SOL     OW26913   0.818   1.129   6.022 -0.1825 -0.0689 -0.3330
 7026SOL    HW126914   0.884   1.189   6.057 -0.4534  0.6299 -0.9938
 7026SOL    HW226915   0.751   1.186   5.985 -1.3488 -0.7662  0.6312
 7027SOL     OW26916   3.460   9.502   7.465 -0.0411 -0.2818  0.0007
 7027SOL    HW126917   3.442   9.538   7.378  2.3346  1.0336 -0.0379
 7027SOL    HW226918   3.423   9.414   7.463  0.8588 -0.6906 -2.7394
 7028SOL     OW26919   0.429   6.578   7.511 -0.0054  0.3059  0.3833
 7028SOL    HW126920   0.375   6.642   7.557  0.3994  0.1736  1.0675
 7028SOL    HW226921   0.421   6.498   7.564 -0.9123 -0.3780 -0.7289
 7029SOL     OW26922   4.676   7.543   9.487  0.4210  0.2792  0.0678
 7029SOL    HW126923   4.596   7.566   9.533 -0.0356  0.5996 -0.8559
 7029SOL    HW226924   4.746   7.581   9.540 -0.0481  0.1716  0.7691
 7030SOL     OW26925   2.621   3.757  10.528  0.7764 -0.2342 -0.2475
 7030SOL    HW126926   2.556   3.757  10.457  0.4174  0.5750  0.0631
 7030SOL    HW226927   2.612   3.672  10.569  0.8176 -0.6198 -1.0232
 7031SOL     OW26928   4.768   9.388   5.085  0.5832 -0.0832  0.3519
 7031SOL    HW126929   4.771   9.399   4.989 -0.6260  2.0398  0.4822
 7031SOL    HW226930   4.848   9.429   5.116  0.1960  0.7183  0.3191
 7032SOL     OW26931   1.902   9.993   5.431 -0.0638 -0.2523 -0.4683
 7032SOL    HW126932   1.827  10.052   5.424  0.5238  0.5863  0.1545
 7032SOL    HW226933   1.965  10.027   5.367  0.8089  0.6329  0.8152
 7033SOL     OW26934   4.854  10.554  10.576 -0.3302  0.3763  0.1784
 7033SOL    HW126935   4.806  10.484  10.531  0.3424 -0.8656  1.3036
 7033SOL    HW226936   4.787  10.607  10.618 -0.7787 -1.3162  1.7100
 7034SOL     OW26937   0.137   5.580   6.331  0.2013 -0.1835 -0.1703
 7034SOL    HW126938   0.097   5.520   6.268  1.7664 -1.7339  0.2217
 7034SOL    HW226939   0.221   5.539   6.352  0.8159  1.5889  1.0148
 7035SOL     OW26940   2.754   3.477  10.565 -0.0428 -0.3500  0.3503
 7035SOL    HW126941   2.711   3.402  10.607 -0.9340 -0.1940 -0.2593
 7035SOL    HW226942   2.846   3.467  10.589 -0.5335 -0.0920  2.5824
 7036SOL     OW26943   1.319   2.020   1.639  0.0205 -0.2273 -0.1407
 7036SOL    HW126944   1.327   2.109   1.674 -1.4862  0.1172 -0.6261
 7036SOL    HW226945   1.270   1.972   1.706  1.8726 -1.0693  0.6930
 7037SOL     OW26946   1.099   0.280   1.291  0.1046  0.2287 -0.1012
 7037SOL    HW126947   1.190   0.250   1.293 -0.0859 -0.4017 -0.6228
 7037SOL    HW226948   1.085   0.309   1.201  0.1975  1.6682  0.3232
 7038SOL     OW26949   8.985   5.941  10.787 -0.3767  0.1360 -0.0957
 7038SOL    HW126950   8.978   5.918  10.694 -1.6276  1.0437 -0.2488
 7038SOL    HW226951   8.956   5.862  10.832  1.6398 -0.8315 -0.4028
 7039SOL     OW26952   0.520   8.733   0.229  0.8431 -0.2275  0.8034
 7039SOL    HW126953   0.600   8.693   0.264 -0.3097 -1.3781  2.2908
 7039SOL    HW226954   0.458   8.728   0.302  0.0977  2.8090  0.4934
 7040SOL     OW26955   7.054   2.587   2.127  0.1118  0.0744 -0.0662
 7040SOL    HW126956   7.050   2.532   2.049  0.2251  0.0149 -0.0296
 7040SOL    HW226957   7.044   2.676   2.094 -0.2337  0.0208 -0.1095
 7041SOL     OW26958   5.174   0.683   5.620  0.0494 -0.6747 -0.9162
 7041SOL    HW126959   5.162   0.588   5.625 -2.2112 -0.3786  1.0430
 7041SOL    HW226960   5.087   0.719   5.639  1.1534  1.8166 -0.1997
 7042SOL     OW26961   8.067   4.655   5.442 -0.0280  0.5037 -0.2863
 7042SOL    HW126962   8.004   4.614   5.502  1.0370  1.5300  1.6076
 7042SOL    HW226963   8.018   4.728   5.404 -0.0370  1.2506  1.1114
 7043SOL     OW26964   4.837   6.150   0.263  0.5150 -0.3819 -0.1619
 7043SOL    HW126965   4.791   6.231   0.282  0.5544 -0.0515 -1.4073
 7043SOL    HW226966   4.848   6.108   0.349 -1.8327 -0.3425  0.2243
 7044SOL     OW26967   5.228   8.470   2.682 -0.6543 -0.4001 -0.1262
 7044SOL    HW126968   5.270   8.390   2.714  0.0033 -0.1779 -0.4291
 7044SOL    HW226969   5.213   8.523   2.760  2.0045  0.6573 -0.2532
 7045SOL     OW26970   0.571   7.479   3.471  0.3044 -0.1646  0.2301
 7045SOL    HW126971   0.630   7.423   3.421  0.7724  0.9990 -0.5604
 7045SOL    HW226972   0.613   7.489   3.556  0.3285 -0.8225  0.2953
 7046SOL     OW26973   4.501   1.325   9.051  0.3689  0.0203  0.0625
 7046SOL    HW126974   4.501   1.421   9.051  1.2028  0.0284 -0.4538
 7046SOL    HW226975   4.561   1.301   8.981  0.1606 -0.8874  0.1824
 7047SOL     OW26976   1.164   3.575   6.236 -0.2028 -0.1912 -0.2897
 7047SOL    HW126977   1.146   3.626   6.158  1.1713  0.3689 -0.2527
 7047SOL    HW226978   1.118   3.492   6.221 -0.6762  0.2367 -1.2871
 7048SOL     OW26979   4.265   4.647   0.420 -0.1134  0.0591  0.6460
 7048SOL    HW126980   4.318   4.574   0.389 -0.1045  0.0343  0.7202
 7048SOL    HW226981   4.175   4.623   0.397 -0.2373 -0.4933  1.6701
 7049SOL     OW26982   3.473   4.976   2.524 -0.8867 -0.1960 -0.1073
 7049SOL    HW126983   3.461   5.067   2.551  0.3239  0.3564 -1.3755
 7049SOL    HW226984   3.557   4.950   2.561 -1.6590 -1.1409  1.0685
 7050SOL     OW26985   5.871  10.663   2.653 -0.5888  0.6978  0.1050
 7050SOL    HW126986   5.951  10.700   2.615 -1.3596  2.8404  0.4506
 7050SOL    HW226987   5.881  10.674   2.747 -0.1158 -1.6387  0.4009
 7051SOL     OW26988   4.992   5.301   1.566  0.3291 -0.5037  0.5063
 7051SOL    HW126989   4.948   5.320   1.649  0.3763 -0.7460  0.5862
 7051SOL    HW226990   5.027   5.212   1.577  0.1029 -0.6417  0.1330
 7052SOL     OW26991   6.012   4.836   6.695 -0.0417  0.0908  0.5836
 7052SOL    HW126992   6.072   4.763   6.711 -0.7601 -0.6421  0.0345
 7052SOL    HW226993   5.976   4.856   6.782 -1.6648 -1.8623  0.4311
 7053SOL     OW26994  10.721   0.678   8.126 -0.6741 -0.3068  0.4829
 7053SOL    HW126995  10.715   0.772   8.146 -0.7216  0.0451 -1.0621
 7053SOL    HW226996  10.797   0.670   8.070 -0.8805 -1.1489  0.3041
 7054SOL     OW26997   2.375   1.819   0.155 -0.1865 -0.1428 -0.7389
 7054SOL    HW126998   2.460   1.815   0.200  0.7696 -1.5277 -2.4873
 7054SOL    HW226999   2.343   1.729   0.157 -1.2621  0.2272 -0.7511
 7055SOL     OW27000  10.679   8.900   6.960 -0.4604  0.6909  0.0363
 7055SOL    HW127001  10.647   8.830   7.016  1.8438  0.8035  1.6144
 7055SOL    HW227002  10.711   8.967   7.020 -0.2119  1.9671 -1.4368
 7056SOL     OW27003   4.884   3.460  10.566 -0.4918 -0.8151 -0.7526
 7056SOL    HW127004   4.940   3.401  10.616  0.6711  0.7479 -0.1226
 7056SOL    HW227005   4.834   3.508  10.633  0.3688  0.6095 -1.1058
 7057SOL     OW27006   2.920   7.788   3.789 -0.3007 -0.4976 -0.4452
 7057SOL    HW127007   2.957   7.704   3.817 -0.2997 -0.7757 -1.2413
 7057SOL    HW227008   2.885   7.827   3.869 -0.9252 -1.5704 -0.1760
 7058SOL     OW27009   4.732   1.005   2.026 -0.0436  0.7340 -0.2741
 7058SOL    HW127010   4.691   1.081   1.986 -1.5059 -0.6602 -1.5821
 7058SOL    HW227011   4.744   1.029   2.118 -3.5507  1.4386  0.1518
 7059SOL     OW27012   6.706   1.817   2.600  0.6862 -0.4935  0.2664
 7059SOL    HW127013   6.615   1.843   2.613  0.5678 -0.6356 -0.2326
 7059SOL    HW227014   6.727   1.761   2.675  0.9087  0.9248  1.2941
 7060SOL     OW27015   0.438   0.972   0.502  0.0907  0.1222  0.2926
 7060SOL    HW127016   0.517   1.010   0.541 -0.1393  1.5124 -0.5203
 7060SOL    HW227017   0.371   1.040   0.514 -0.7760 -0.7142  0.2567
 7061SOL     OW27018   2.538   5.005   9.103  0.3143 -0.1836  0.0939
 7061SOL    HW127019   2.473   5.020   9.034 -0.7944  1.3309  1.3767
 7061SOL    HW227020   2.521   4.916   9.134 -0.8327  0.0048  0.0545
 7062SOL     OW27021   5.902   0.096   9.570  0.0398  0.4655  0.1936
 7062SOL    HW127022   5.925   0.122   9.660 -0.0776 -1.6471  0.8776
 7062SOL    HW227023   5.854   0.172   9.536 -1.3283  0.7503  2.4810
 7063SOL     OW27024   9.584   4.430   6.311  0.0669  0.2162  0.0585
 7063SOL    HW127025   9.514   4.366   6.321  0.7962 -0.3192  2.3701
 7063SOL    HW227026   9.617   4.417   6.222 -2.0222 -0.2487 -0.6897
 7064SOL     OW27027   7.747   7.701   7.744 -0.3187  0.3305  0.2439
 7064SOL    HW127028   7.662   7.744   7.739  0.7568  2.6388  0.6824
 7064SOL    HW227029   7.771   7.706   7.837 -0.0190 -1.0088  0.2601
 7065SOL     OW27030   2.360   7.221   2.089  0.7851 -0.5136  0.6258
 7065SOL    HW127031   2.390   7.293   2.145 -0.2334  0.1536  0.3285
 7065SOL    HW227032   2.309   7.264   2.021 -0.6272 -1.5932  0.9702
 7066SOL     OW27033   5.008   2.795   9.102 -0.4403 -0.3460 -0.2015
 7066SOL    HW127034   5.059   2.767   9.178 -0.0514 -0.0457 -0.3475
 7066SOL    HW227035   4.919   2.805   9.136 -0.6517 -2.0067 -0.2098
 7067SOL     OW27036   4.982   3.046   8.971  0.0693  0.2396 -1.0785
 7067SOL    HW127037   4.981   2.961   9.014  1.2086  0.4672 -0.5483
 7067SOL    HW227038   4.904   3.091   9.003  0.5622  0.1662  0.2904
 7068SOL     OW27039   2.988   4.424   7.109 -0.2745  0.5059  0.4499
 7068SOL    HW127040   3.033   4.430   7.024  0.2108  0.6295  0.7147
 7068SOL    HW227041   3.054   4.390   7.169 -0.6424  0.3386  0.7618
 7069SOL     OW27042   5.475   1.054   5.226  0.1373  0.1521  0.1432
 7069SOL    HW127043   5.481   1.104   5.307  1.2208 -1.4124  1.0937
 7069SOL    HW227044   5.512   0.968   5.248 -0.9740 -0.8338 -1.5968
 7070SOL     OW27045   9.253   1.671   4.257  0.1939  0.2042  0.0002
 7070SOL    HW127046   9.299   1.754   4.268  1.1207 -0.2206 -0.6183
 7070SOL    HW227047   9.303   1.624   4.191 -1.0107 -0.3652 -0.5291
 7071SOL     OW27048   5.302  10.552   2.602 -0.1040  0.0110 -0.4492
 7071SOL    HW127049   5.290  10.490   2.530 -1.8077  0.8167 -0.9065
 7071SOL    HW227050   5.313  10.496   2.679 -0.9053 -0.8820 -0.9557
 7072SOL     OW27051   6.465   4.031   3.276  0.2019  0.0046  0.1327
 7072SOL    HW127052   6.543   4.072   3.238  0.2251  0.9216  1.1061
 7072SOL    HW227053   6.493   3.942   3.298  1.4605  0.7395  1.7616
 7073SOL     OW27054   2.692   9.925   0.325  0.1436 -0.4044  0.3201
 7073SOL    HW127055   2.686   9.945   0.232  0.6474 -1.8157 -0.0458
 7073SOL    HW227056   2.619   9.972   0.365 -0.5545 -0.4091 -0.9039
 7074SOL     OW27057   2.258   5.860   0.494  0.1369  0.4361  0.1754
 7074SOL    HW127058   2.269   5.768   0.519  1.9377  0.3540 -0.7402
 7074SOL    HW227059   2.314   5.909   0.555 -0.0860  0.8385  0.0626
 7075SOL     OW27060   9.846   6.534   0.010  0.2120  0.1682 -0.2783
 7075SOL    HW127061   9.930   6.514  -0.031  0.7009  2.4918 -0.5095
 7075SOL    HW227062   9.782   6.491  -0.047  1.1321 -0.3166 -0.9860
 7076SOL     OW27063   5.144   3.299   9.046  0.1226  0.2214  0.6850
 7076SOL    HW127064   5.097   3.215   9.047  0.0071  0.2787  0.1488
 7076SOL    HW227065   5.237   3.274   9.041  0.0355  0.1229 -1.0291
 7077SOL     OW27066  10.767   9.034   7.717 -0.5740  0.5210 -0.1400
 7077SOL    HW127067  10.685   9.024   7.766 -0.8628  2.2319 -0.2263
 7077SOL    HW227068  10.836   9.016   7.781 -0.9621  1.9681  0.7192
 7078SOL     OW27069   8.233   8.590   8.986  0.5205 -0.1993 -0.7406
 7078SOL    HW127070   8.250   8.603   9.079  0.8633 -1.2842 -0.6328
 7078SOL    HW227071   8.313   8.619   8.942  0.8509 -0.8886 -0.5957
 7079SOL     OW27072   7.713  10.734   4.597 -0.1968  0.1613  0.1718
 7079SOL    HW127073   7.770  10.689   4.534  0.9877  0.8128  0.7542
 7079SOL    HW227074   7.771  10.761   4.667 -1.3351  0.3468  1.0751
 7080SOL     OW27075   7.830   0.947   3.907 -0.3610 -0.8280 -0.2620
 7080SOL    HW127076   7.790   0.862   3.891 -2.3398 -0.3529  1.6351
 7080SOL    HW227077   7.827   0.958   4.002  4.2000 -0.5816  0.1070
 7081SOL     OW27078   1.916   9.752   7.608  0.3920 -0.3787  0.5895
 7081SOL    HW127079   1.991   9.802   7.575  1.0884 -1.8791 -0.1751
 7081SOL    HW227080   1.937   9.734   7.699  1.2217 -1.2201  0.2446
 7082SOL     OW27081   3.021   1.837   5.738 -0.6014  0.0605  0.0100
 7082SOL    HW127082   2.988   1.760   5.784  0.2273 -0.0288  0.4780
 7082SOL    HW227083   2.995   1.911   5.793 -0.3644  0.0174  0.1841
 7083SOL     OW27084   1.202   6.799   9.094  0.0729 -0.2403  0.5000
 7083SOL    HW127085   1.112   6.797   9.127  0.6281 -0.1973  2.1392
 7083SOL    HW227086   1.200   6.864   9.023 -0.9377  0.7388  1.3722
 7084SOL     OW27087   6.346   6.708   5.878 -0.1331  0.3851  0.3108
 7084SOL    HW127088   6.364   6.790   5.923  2.2565 -0.1064  0.3832
 7084SOL    HW227089   6.410   6.647   5.913 -1.3872 -1.3261 -0.2744
 7085SOL     OW27090   7.651   7.002   6.469  0.1309  0.0817 -0.2017
 7085SOL    HW127091   7.710   6.931   6.492 -1.5416 -1.2482  0.1548
 7085SOL    HW227092   7.624   6.983   6.379 -1.9572 -0.9863  0.5883
 7086SOL     OW27093   7.769   2.543   0.111 -0.4475  0.3157 -0.6535
 7086SOL    HW127094   7.825   2.539   0.188 -1.1890  2.2198  0.0632
 7086SOL    HW227095   7.812   2.605   0.052 -0.7658  0.2396 -0.9736
 7087SOL     OW27096   2.376   8.090  10.777 -0.1041  0.0508 -0.1104
 7087SOL    HW127097   2.372   8.103  10.872  0.3016  0.5719 -0.1569
 7087SOL    HW227098   2.431   8.013  10.765 -0.4440 -0.2285  0.0841
 7088SOL     OW27099   8.812   2.065  10.398  0.2833  0.1771 -0.1844
 7088SOL    HW127100   8.764   1.982  10.401 -0.9414  0.7747 -1.5373
 7088SOL    HW227101   8.900   2.044  10.429 -0.3462 -1.3538  0.6648
 7089SOL     OW27102   4.046   3.130   3.775 -0.1368  0.2076  0.2042
 7089SOL    HW127103   3.986   3.056   3.767  2.2001 -1.7861 -0.3393
 7089SOL    HW227104   3.995   3.206   3.748 -1.9287 -1.5857 -1.8640
 7090SOL     OW27105  10.453   4.484   6.946 -0.2399 -0.3599  0.4413
 7090SOL    HW127106  10.361   4.510   6.947  0.3971  2.1466  0.9959
 7090SOL    HW227107  10.463   4.428   7.023 -0.9641  0.8556  1.4650
 7091SOL     OW27108   6.447   5.914   5.442  0.2666  0.5461  0.2726
 7091SOL    HW127109   6.375   5.974   5.421 -0.1603 -0.3067 -0.7901
 7091SOL    HW227110   6.498   5.961   5.509 -0.9608  1.3958  0.6569
 7092SOL     OW27111   2.974   2.158   9.707 -0.2373 -0.0152  0.1941
 7092SOL    HW127112   2.959   2.146   9.801 -0.3134  1.8737  0.4754
 7092SOL    HW227113   3.060   2.200   9.702  1.4387 -3.3028 -0.8741
 7093SOL     OW27114   0.133   1.966   4.763 -0.0226  1.0030  0.3673
 7093SOL    HW127115   0.222   1.951   4.794  0.3375  0.8950 -0.7023
 7093SOL    HW227116   0.141   2.036   4.699 -0.5027  0.1107 -0.7039
 7094SOL     OW27117   9.471   0.922   4.186  0.1294 -0.4235 -0.5738
 7094SOL    HW127118   9.494   0.967   4.105  0.4046 -1.0627 -0.8566
 7094SOL    HW227119   9.448   0.833   4.159  3.0760 -1.5714  0.3231
 7095SOL     OW27120   6.542   1.164   9.301  0.0609  0.3166  0.1665
 7095SOL    HW127121   6.568   1.145   9.392  0.6823 -1.8124 -0.4069
 7095SOL    HW227122   6.496   1.086   9.272  0.7912  0.5204 -1.6929
 7096SOL     OW27123  10.019  10.789  10.604 -0.2095 -0.1440 -0.1882
 7096SOL    HW127124  10.077  10.832  10.542  0.0853  0.5269  0.5350
 7096SOL    HW227125   9.998  10.705  10.563  2.0694 -0.8419 -0.0584
 7097SOL     OW27126   4.685   7.804   3.397  0.1196 -0.1459 -0.3276
 7097SOL    HW127127   4.769   7.792   3.441 -0.6530  0.4174  1.3673
 7097SOL    HW227128   4.702   7.871   3.331  0.9124  0.2194  0.2317
 7098SOL     OW27129   0.358   3.253   2.161  0.4431 -0.2713 -0.0112
 7098SOL    HW127130   0.308   3.223   2.086 -0.4323  0.6597  0.1831
 7098SOL    HW227131   0.298   3.248   2.235  0.4999  1.1819  0.1647
 7099SOL     OW27132   0.863  10.109   8.921 -0.0584  0.5023 -0.5764
 7099SOL    HW127133   0.953  10.122   8.951  0.2734 -0.7638 -0.9579
 7099SOL    HW227134   0.871  10.090   8.828 -0.8977  2.1902 -1.0469
 7100SOL     OW27135   1.545   3.691   1.122  0.2593 -0.3990 -0.0972
 7100SOL    HW127136   1.579   3.707   1.034  0.5327  0.5968  0.1752
 7100SOL    HW227137   1.492   3.767   1.142 -1.3584 -1.4792 -0.1158
 7101SOL     OW27138   2.015   7.103   5.923  0.6013 -0.2326 -0.2716
 7101SOL    HW127139   1.952   7.088   5.993  1.0310 -0.1620  0.1353
 7101SOL    HW227140   2.093   7.137   5.967  1.4010 -1.5712 -0.5913
 7102SOL     OW27141   1.803   0.897   8.313 -0.2346  0.0318  0.3245
 7102SOL    HW127142   1.893   0.923   8.292 -0.9547  1.5892 -1.0727
 7102SOL    HW227143   1.801   0.803   8.295  0.3785  0.4818 -2.6759
 7103SOL     OW27144   8.797   6.925   6.557 -0.0866  0.0330 -0.0011
 7103SOL    HW127145   8.712   6.970   6.559 -0.4551 -0.6756  0.5594
 7103SOL    HW227146   8.856   6.985   6.603 -0.1964  0.6758 -0.6660
 7104SOL     OW27147   1.379   2.053   6.923 -0.1580  0.7708 -0.1673
 7104SOL    HW127148   1.469   2.043   6.956 -0.3999 -0.3398  0.1878
 7104SOL    HW227149   1.333   1.975   6.954 -1.4655  1.7068  0.3286
 7105SOL     OW27150   8.426   0.497  10.107 -0.4719  0.0119 -0.4329
 7105SOL    HW127151   8.479   0.540  10.039  1.2630  1.3005  1.6195
 7105SOL    HW227152   8.337   0.500  10.073 -0.2770  4.0871 -1.0504
 7106SOL     OW27153   4.935   0.388   8.644  0.2215 -0.1998 -0.6519
 7106SOL    HW127154   4.882   0.454   8.689  1.1974  0.4682 -0.4421
 7106SOL    HW227155   5.020   0.392   8.688  0.9937 -0.0246 -2.1033
 7107SOL     OW27156   1.381   9.474   0.797 -0.3134 -0.1093  0.1292
 7107SOL    HW127157   1.336   9.548   0.756 -1.5975 -1.2968 -0.7005
 7107SOL    HW227158   1.393   9.411   0.727  1.5215 -0.3956  0.6427
 7108SOL     OW27159  10.336  10.571   0.941  0.4932 -0.1615 -0.0248
 7108SOL    HW127160  10.387  10.640   0.899 -0.3841  0.7875  0.4126
 7108SOL    HW227161  10.401  10.506   0.968  1.1727 -0.3343 -1.9261
 7109SOL     OW27162  10.104   9.250   6.586  0.2583 -0.5102 -0.0751
 7109SOL    HW127163  10.060   9.200   6.655 -1.0923 -1.4939 -1.5767
 7109SOL    HW227164  10.066   9.217   6.505  0.0280  2.2732 -1.2146
 7110SOL     OW27165   1.554   9.420   9.081 -0.1801  0.1155  0.0210
 7110SOL    HW127166   1.461   9.440   9.074 -1.0271 -3.4379 -0.9158
 7110SOL    HW227167   1.561   9.361   9.155  1.9404  2.6259  2.0271
 7111SOL     OW27168   9.777   2.998  10.743  0.2117  0.3869 -0.1900
 7111SOL    HW127169   9.736   3.083  10.758 -0.6515 -0.1028  0.3435
 7111SOL    HW227170   9.708   2.935  10.763  0.5534 -0.4286 -1.4875
 7112SOL     OW27171   2.365   4.668   0.464 -0.3416  0.5601 -0.3487
 7112SOL    HW127172   2.339   4.581   0.435  0.5590  0.4426 -0.8262
 7112SOL    HW227173   2.422   4.701   0.395 -0.4301  1.4123 -0.0324
 7113SOL     OW27174   0.111   3.146   8.814 -0.1769  0.1712 -0.3172
 7113SOL    HW127175   0.026   3.184   8.794 -0.3796 -1.2692 -2.5346
 7113SOL    HW227176   0.174   3.214   8.788 -0.5916 -0.1205 -2.2906
 7114SOL     OW27177   0.356  10.768  10.607  0.3139  0.4801  0.4944
 7114SOL    HW127178   0.338  10.746  10.698 -0.6935  0.8728  0.4012
 7114SOL    HW227179   0.392  10.688  10.569 -2.1119 -0.6765  0.4744
 7115SOL     OW27180   0.778  10.802   5.276  0.0341  0.3764  0.4075
 7115SOL    HW127181   0.694  10.758   5.292 -0.2253  1.1707  1.3391
 7115SOL    HW227182   0.843  10.744   5.315  0.0322 -0.6429 -1.0240
 7116SOL     OW27183   4.954   5.422   2.848  0.8201 -0.1459 -0.6961
 7116SOL    HW127184   4.956   5.353   2.781  0.1526 -0.7681 -0.0946
 7116SOL    HW227185   4.874   5.404   2.898  0.7364  0.9647 -0.4150
 7117SOL     OW27186   8.288   4.156   3.762 -0.2140 -0.3269  0.1797
 7117SOL    HW127187   8.268   4.179   3.853  1.5531  2.0197  0.0907
 7117SOL    HW227188   8.369   4.107   3.767  1.0399  1.5945 -0.1674
 7118SOL     OW27189   6.653   2.649   4.452 -0.1570  0.1690  0.0210
 7118SOL    HW127190   6.652   2.569   4.399 -0.7737 -0.6809  1.2656
 7118SOL    HW227191   6.572   2.644   4.504 -1.4014  2.7337 -1.4799
 7119SOL     OW27192   7.915   6.066   3.239  0.2074  0.4797  0.4116
 7119SOL    HW127193   7.875   6.144   3.201 -0.7688  0.0946  0.6297
 7119SOL    HW227194   7.867   6.051   3.320 -1.6929 -2.0509 -1.0299
 7120SOL     OW27195   3.002   9.699   4.946  0.5785 -0.2234 -0.2000
 7120SOL    HW127196   3.076   9.644   4.921 -0.9144 -2.0246 -0.8753
 7120SOL    HW227197   2.926   9.643   4.935 -0.7409  0.8189  2.6623
 7121SOL     OW27198   9.401   9.988   5.649  0.1520 -0.3208 -0.3191
 7121SOL    HW127199   9.448   9.946   5.721 -1.0155 -0.2999  0.4804
 7121SOL    HW227200   9.432  10.078   5.650  0.4218 -0.4118 -0.0959
 7122SOL     OW27201   7.192   5.490   5.856 -0.5036  0.3958  0.0107
 7122SOL    HW127202   7.262   5.553   5.872 -0.2494 -0.0268  0.6331
 7122SOL    HW227203   7.140   5.528   5.785 -1.7546  2.4723  1.8873
 7123SOL     OW27204   1.924   4.621  10.419  0.3969  0.2736 -0.1782
 7123SOL    HW127205   1.982   4.558  10.377  1.5193  0.2000  1.3995
 7123SOL    HW227206   1.892   4.676  10.348  1.6087 -0.3206 -1.2065
 7124SOL     OW27207   1.282   4.565   7.071 -0.4360 -0.1697 -0.2203
 7124SOL    HW127208   1.223   4.523   7.008 -0.6218  0.6048 -0.5799
 7124SOL    HW227209   1.345   4.613   7.017 -0.5790  0.4765  0.1686
 7125SOL     OW27210  10.291   1.321   0.943 -0.1254 -0.1005  0.2214
 7125SOL    HW127211  10.343   1.286   1.015 -0.4652 -1.4816 -0.1775
 7125SOL    HW227212  10.293   1.252   0.876 -1.6067  0.2405 -0.2110
 7126SOL     OW27213   0.479   9.514   3.341 -0.2307 -0.0201  0.2554
 7126SOL    HW127214   0.516   9.462   3.412 -1.2464 -1.2977 -0.1149
 7126SOL    HW227215   0.555   9.554   3.298  0.4754 -0.1613  1.3358
 7127SOL     OW27216   5.653   1.597  10.669  0.0391  0.0418  0.4267
 7127SOL    HW127217   5.653   1.685  10.706  0.5772  0.6117 -0.8467
 7127SOL    HW227218   5.700   1.607  10.586  0.0119 -1.4281  0.2181
 7128SOL     OW27219   2.207   0.116   1.499 -0.0446 -0.0846  0.1237
 7128SOL    HW127220   2.168   0.063   1.569  3.7416 -0.5347  2.1459
 7128SOL    HW227221   2.180   0.072   1.418 -1.3157 -1.9330  1.4589
 7129SOL     OW27222   7.763   4.236   6.057  0.0726 -0.4793 -0.1972
 7129SOL    HW127223   7.797   4.220   5.969  1.0196 -1.8990  0.3878
 7129SOL    HW227224   7.688   4.177   6.064 -2.0031  1.8559 -1.0899
 7130SOL     OW27225   0.821   4.059   9.671 -0.5133 -0.4401  0.4404
 7130SOL    HW127226   0.878   3.999   9.719 -0.9774 -0.2278  1.2858
 7130SOL    HW227227   0.870   4.081   9.592  0.0601 -1.1952  0.5712
 7131SOL     OW27228   3.134   8.370  10.829  0.4451 -0.4898  0.1422
 7131SOL    HW127229   3.140   8.465  10.820  0.0357 -0.2321  2.1509
 7131SOL    HW227230   3.162   8.336  10.744  1.5629  1.3898 -0.2952
 7132SOL     OW27231   7.413   9.342   3.809  0.5047  0.1396  0.1021
 7132SOL    HW127232   7.383   9.287   3.737  0.9426 -0.8227  0.6448
 7132SOL    HW227233   7.508   9.334   3.808  0.4234 -2.1971  2.5387
 7133SOL     OW27234   9.733   6.205   7.076  0.2522  0.2778 -0.3801
 7133SOL    HW127235   9.682   6.228   6.998 -1.8615  3.4943  1.6760
 7133SOL    HW227236   9.671   6.157   7.131  0.7564  0.6572  0.5246
 7134SOL     OW27237   9.186   6.976   5.991 -0.1579  0.8428 -0.2073
 7134SOL    HW127238   9.176   6.964   5.897 -0.0093  3.0478 -0.5572
 7134SOL    HW227239   9.197   7.071   6.002  3.9318  0.3747  1.6185
 7135SOL     OW27240   9.148   7.427   7.581 -0.2064 -0.1971  0.0918
 7135SOL    HW127241   9.213   7.384   7.637  0.0194  0.4409  0.3248
 7135SOL    HW227242   9.078   7.363   7.573  1.6370 -2.0842 -2.4831
 7136SOL     OW27243   5.810   5.454   9.283 -0.0242  0.3101 -0.2795
 7136SOL    HW127244   5.893   5.493   9.312 -0.1927 -0.3680  1.2208
 7136SOL    HW227245   5.743   5.510   9.322 -0.2610 -0.6386  0.7300
 7137SOL     OW27246   7.524   5.603   7.399  0.1161  0.1363 -0.0941
 7137SOL    HW127247   7.582   5.562   7.463 -0.6332  0.7432  1.0171
 7137SOL    HW227248   7.513   5.693   7.431 -1.5066  0.0097 -0.1975
 7138SOL     OW27249   9.612   2.034   0.820 -0.7630  0.7132 -0.7301
 7138SOL    HW127250   9.572   2.119   0.803 -0.3233  1.2700  0.8644
 7138SOL    HW227251   9.695   2.055   0.863 -1.1611 -0.5402  0.7002
 7139SOL     OW27252  10.882   9.452   6.988  0.5409  0.3844 -0.3633
 7139SOL    HW127253  10.878   9.542   6.954 -1.5738  0.5517  0.1404
 7139SOL    HW227254  10.958   9.452   7.046  0.2078  2.0852  0.1493
 7140SOL     OW27255   3.842   7.580   1.937 -0.9445 -0.3195  0.1979
 7140SOL    HW127256   3.790   7.660   1.947 -1.7144 -0.9511  1.3730
 7140SOL    HW227257   3.882   7.566   2.023 -2.0040 -1.9957  0.4532
 7141SOL     OW27258   5.365   0.174   3.051 -0.1518 -0.4568  0.3238
 7141SOL    HW127259   5.417   0.240   3.006  0.1576  0.3544  1.8061
 7141SOL    HW227260   5.370   0.096   2.995  0.6283  0.3501 -0.7492
 7142SOL     OW27261   4.669   5.281   6.222 -0.0904 -0.4351 -0.1112
 7142SOL    HW127262   4.710   5.211   6.172 -0.6882 -0.7302 -0.1963
 7142SOL    HW227263   4.578   5.283   6.192 -0.6068 -0.9677  1.3050
 7143SOL     OW27264   6.045   7.149   3.514 -0.0758  0.3937  0.2438
 7143SOL    HW127265   5.975   7.209   3.490 -0.5001 -0.5614 -1.0356
 7143SOL    HW227266   6.117   7.170   3.454  0.2158  0.4195  0.5962
 7144SOL     OW27267   1.334  10.739   7.272  0.2602 -0.4957 -0.2156
 7144SOL    HW127268   1.387  10.814   7.244  0.9239 -0.5432  0.8457
 7144SOL    HW227269   1.386  10.698   7.341 -0.2199 -1.7807 -0.5907
 7145SOL     OW27270   5.274   3.236   1.199  0.0449  0.2515  0.4071
 7145SOL    HW127271   5.328   3.303   1.157 -0.1433  0.4824  0.5301
 7145SOL    HW227272   5.187   3.276   1.207 -0.1962 -0.1888  0.0408
 7146SOL     OW27273   1.783   0.133   0.081  0.1546  0.5670 -0.4176
 7146SOL    HW127274   1.690   0.153   0.086  0.4606  1.7596  1.5909
 7146SOL    HW227275   1.820   0.205   0.029  0.0471  0.3428 -0.8144
 7147SOL     OW27276   2.577   4.070   0.469 -0.0453 -0.5308  0.4925
 7147SOL    HW127277   2.609   4.041   0.383 -0.8772 -1.0326  0.3346
 7147SOL    HW227278   2.633   4.144   0.492 -1.3889  1.2957 -1.6692
 7148SOL     OW27279   0.637   4.846   6.719 -0.1545 -0.0142  0.2840
 7148SOL    HW127280   0.628   4.934   6.681  0.2911  0.0445  0.3129
 7148SOL    HW227281   0.668   4.861   6.808  3.1305 -0.2842 -0.7013
 7149SOL     OW27282   5.157   7.701   4.519  0.1897 -0.3456  0.1241
 7149SOL    HW127283   5.210   7.628   4.486 -1.4271 -1.1862 -0.7474
 7149SOL    HW227284   5.136   7.677   4.609 -1.4713 -1.7064 -0.5654
 7150SOL     OW27285   0.755   2.738   5.745 -0.1889 -0.1651 -0.5166
 7150SOL    HW127286   0.766   2.804   5.677 -2.0225  1.1485  0.3917
 7150SOL    HW227287   0.717   2.662   5.700 -0.9719  0.5244 -1.0321
 7151SOL     OW27288   9.290   5.853   7.269  0.0524  0.4094 -0.1152
 7151SOL    HW127289   9.219   5.914   7.288  0.0688 -0.2629  2.5250
 7151SOL    HW227290   9.254   5.794   7.202 -1.6410  0.5065  0.6574
 7152SOL     OW27291   5.758   0.427   7.839  0.4496 -0.2899 -0.4892
 7152SOL    HW127292   5.753   0.518   7.811 -0.5876  0.0874  0.8356
 7152SOL    HW227293   5.845   0.398   7.811 -0.0965  0.3561 -3.0326
 7153SOL     OW27294   7.890   2.093   2.091 -0.4910 -0.5868 -0.3316
 7153SOL    HW127295   7.870   2.021   2.151  0.5138 -0.4843  0.1338
 7153SOL    HW227296   7.808   2.144   2.087 -0.1764  0.2425  2.1110
 7154SOL     OW27297  10.671   1.886   8.452  0.5427 -0.2932  0.1230
 7154SOL    HW127298  10.620   1.961   8.481  2.3039  0.8859  0.3778
 7154SOL    HW227299  10.729   1.921   8.385  0.8337 -1.6230 -0.3444
 7155SOL     OW27300   7.788   1.060   5.092  0.1946 -0.1674  0.8229
 7155SOL    HW127301   7.862   1.010   5.127  1.5784  1.3678  0.1913
 7155SOL    HW227302   7.757   1.007   5.019 -0.1757 -1.4396  1.8508
 7156SOL     OW27303   3.490   4.586   6.095  0.4972 -0.2114  0.0611
 7156SOL    HW127304   3.534   4.522   6.151  1.5962 -0.1777 -0.7332
 7156SOL    HW227305   3.500   4.669   6.140  3.4936  0.2607 -1.2110
 7157SOL     OW27306   7.828   1.883   7.433  0.2826  0.1828 -0.2512
 7157SOL    HW127307   7.815   1.926   7.518 -1.1446 -1.2696  0.3254
 7157SOL    HW227308   7.862   1.952   7.376 -1.7171  2.0440  0.6651
 7158SOL     OW27309   1.267   8.391   5.057 -0.0339 -0.3261 -0.2402
 7158SOL    HW127310   1.360   8.404   5.040 -0.2745  0.2029 -1.3278
 7158SOL    HW227311   1.241   8.322   4.996 -0.1605 -1.2077  0.7833
 7159SOL     OW27312   6.281   2.542   9.652 -0.1768 -0.1664 -0.2293
 7159SOL    HW127313   6.232   2.586   9.583  0.6591 -0.0550 -0.7608
 7159SOL    HW227314   6.261   2.449   9.640  0.3271 -0.1925 -0.9189
 7160SOL     OW27315   0.318   8.598   5.861  0.1506 -0.2680 -0.6144
 7160SOL    HW127316   0.229   8.630   5.847  0.8039  1.7220 -0.5796
 7160SOL    HW227317   0.309   8.530   5.927 -1.3475 -0.1096 -0.6140
 7161SOL     OW27318   1.477   9.096   7.696  0.2383  0.4354 -0.6333
 7161SOL    HW127319   1.551   9.074   7.752 -1.2588  1.4080  1.8709
 7161SOL    HW227320   1.491   9.187   7.672 -0.8404  1.1245  1.1516
 7162SOL     OW27321   5.033   1.984   9.749 -0.0051 -0.1763 -0.1274
 7162SOL    HW127322   5.032   2.025   9.836 -4.3237  0.6476 -0.3118
 7162SOL    HW227323   5.001   1.895   9.764 -1.0929  0.0729 -0.8407
 7163SOL     OW27324   3.556   4.815   3.598 -0.1436 -0.0138 -0.4559
 7163SOL    HW127325   3.639   4.848   3.633 -0.8948 -0.1327  1.5826
 7163SOL    HW227326   3.498   4.811   3.674 -2.1921  0.5427 -1.9121
 7164SOL     OW27327   9.520   8.368   6.891 -0.1757 -0.9320  0.3340
 7164SOL    HW127328   9.613   8.353   6.908 -0.1327  1.0371  2.2208
 7164SOL    HW227329   9.513   8.462   6.877 -2.1688 -0.6257  2.6543
 7165SOL     OW27330   9.491   5.943   4.538 -0.8357  0.0421  0.4290
 7165SOL    HW127331   9.576   5.927   4.580 -0.0340  0.8909 -0.7862
 7165SOL    HW227332   9.436   5.978   4.608 -0.0423 -0.0738  1.1349
 7166SOL     OW27333   3.764  10.578   9.188 -0.3441  0.0261  0.2157
 7166SOL    HW127334   3.738  10.601   9.098 -0.2133  0.9887  0.4174
 7166SOL    HW227335   3.731  10.650   9.242 -2.5629 -1.6608  1.3045
 7167SOL     OW27336   0.381   6.318   6.845  0.2927  0.3128  0.1423
 7167SOL    HW127337   0.412   6.358   6.764  0.8773  0.7241  0.5647
 7167SOL    HW227338   0.290   6.293   6.826 -0.2065  2.1330 -0.0311
 7168SOL     OW27339   1.700   6.457   5.800 -0.3000 -0.2764  0.5852
 7168SOL    HW127340   1.760   6.397   5.757  0.1842  0.9204 -0.4906
 7168SOL    HW227341   1.708   6.437   5.893  2.0917  0.1004  0.5294
 7169SOL     OW27342   4.042   9.411   3.278  0.2089 -0.4145 -0.1533
 7169SOL    HW127343   4.026   9.318   3.259 -0.3854 -0.2985 -0.2673
 7169SOL    HW227344   4.068   9.413   3.370 -2.8256 -0.4284  0.8158
 7170SOL     OW27345   8.315  10.314  10.124  0.2285  0.2384  0.1219
 7170SOL    HW127346   8.226  10.327  10.090 -0.2262 -0.8090  0.8439
 7170SOL    HW227347   8.332  10.391  10.177 -0.3370  0.3662  0.1285
 7171SOL     OW27348   7.444   4.286   6.403  0.4742 -0.2711  0.1911
 7171SOL    HW127349   7.375   4.220   6.399  0.6887 -0.4547 -1.1378
 7171SOL    HW227350   7.433   4.337   6.323  3.4762 -2.0012 -1.5498
 7172SOL     OW27351   0.644   5.090   8.880  0.0059 -0.8973 -0.3288
 7172SOL    HW127352   0.602   5.145   8.814  1.0006  0.3276  0.0187
 7172SOL    HW227353   0.630   5.000   8.850 -1.9638 -0.4952 -0.7313
 7173SOL     OW27354   4.455   8.642   3.400 -0.6177  0.4172 -0.4775
 7173SOL    HW127355   4.525   8.693   3.439 -1.1593 -1.5814  3.5641
 7173SOL    HW227356   4.374   8.686   3.428 -1.0195 -0.3966 -0.3187
 7174SOL     OW27357   6.510   5.295   6.213 -0.4614 -0.6264 -0.0100
 7174SOL    HW127358   6.566   5.240   6.159  0.8067  2.0337 -1.6450
 7174SOL    HW227359   6.489   5.369   6.157 -1.2645  1.0284  2.3177
 7175SOL     OW27360   2.779   2.524   7.697  0.1706 -0.3510 -0.1304
 7175SOL    HW127361   2.831   2.547   7.775 -0.3234 -0.3696  0.2103
 7175SOL    HW227362   2.733   2.605   7.674 -1.7440 -0.9879  1.2020
 7176SOL     OW27363   2.296   4.736  10.554  0.6113  0.0319 -0.6533
 7176SOL    HW127364   2.387   4.718  10.532  0.5913 -2.0697  0.6982
 7176SOL    HW227365   2.300   4.780  10.639  0.3780  0.6786 -0.9678
 7177SOL     OW27366   4.374   3.206   6.781  0.0508  0.1046  0.5086
 7177SOL    HW127367   4.310   3.231   6.848 -0.9539  0.3305 -0.4994
 7177SOL    HW227368   4.457   3.201   6.828 -0.6003  0.3997  1.7387
 7178SOL     OW27369   0.820   5.898   9.393  0.1223 -0.1821  0.1639
 7178SOL    HW127370   0.875   5.969   9.358 -1.3589 -0.2506 -2.5657
 7178SOL    HW227371   0.882   5.839   9.436  2.0103  0.4988 -1.4680
 7179SOL     OW27372   6.187   2.554   1.579 -0.3233  0.1646 -0.0780
 7179SOL    HW127373   6.265   2.602   1.553 -0.3141  0.5337  0.5962
 7179SOL    HW227374   6.150   2.606   1.651 -0.9506 -0.2325 -0.1042
 7180SOL     OW27375   6.328   0.176   4.663 -0.3818 -0.1944  0.0281
 7180SOL    HW127376   6.346   0.270   4.668  0.6865 -0.4639  2.2351
 7180SOL    HW227377   6.406   0.139   4.621  1.7085 -0.5922  3.7969
 7181SOL     OW27378   7.471   1.202   4.764 -0.0232  0.5734 -0.1796
 7181SOL    HW127379   7.499   1.206   4.856  0.9448 -0.6814 -0.3940
 7181SOL    HW227380   7.499   1.286   4.728 -0.4052  1.0779  0.6582
 7182SOL     OW27381   7.902   0.585   9.904 -0.0133 -0.4228 -0.4884
 7182SOL    HW127382   7.865   0.511   9.952  0.2949 -1.5816 -1.9532
 7182SOL    HW227383   7.890   0.562   9.812  1.1134  0.8333 -0.9810
 7183SOL     OW27384   1.731   4.866   3.116  0.2805 -0.8059 -0.5911
 7183SOL    HW127385   1.721   4.778   3.079 -2.7368 -0.5281 -0.6983
 7183SOL    HW227386   1.803   4.858   3.178  0.3394 -3.2481 -0.8827
 7184SOL     OW27387   7.140   5.837   0.617 -0.3431 -0.4910 -0.2516
 7184SOL    HW127388   7.149   5.925   0.580 -0.3509 -0.7377 -0.8586
 7184SOL    HW227389   7.045   5.822   0.618 -0.3859 -0.1893  0.5904
 7185SOL     OW27390   9.492   5.279   1.420  0.3066 -0.1095 -0.1669
 7185SOL    HW127391   9.420   5.289   1.358 -0.0801 -1.6962 -0.0088
 7185SOL    HW227392   9.562   5.334   1.385 -0.4955  0.3559 -1.0748
 7186SOL     OW27393   8.707   4.231   6.189 -0.0356 -0.1505 -0.5843
 7186SOL    HW127394   8.803   4.225   6.194  0.0011  0.7812  3.6133
 7186SOL    HW227395   8.689   4.325   6.186 -0.7370 -0.1857  1.2436
 7187SOL     OW27396   5.120   7.730   2.196  0.2236  0.1891  0.3298
 7187SOL    HW127397   5.210   7.699   2.200  0.5835  1.3259  1.6676
 7187SOL    HW227398   5.087   7.723   2.285 -0.6135  0.9168  0.0980
 7188SOL     OW27399   5.051   5.966   5.857  0.5503 -0.2620  0.1471
 7188SOL    HW127400   5.027   6.014   5.778  2.3881 -0.0328 -0.3309
 7188SOL    HW227401   5.046   5.874   5.831  1.4937 -0.1813 -0.3893
 7189SOL     OW27402   6.428  10.071   3.146 -0.0472  0.4749 -0.3112
 7189SOL    HW127403   6.380  10.045   3.225  0.4381 -0.8658 -0.4210
 7189SOL    HW227404   6.415   9.998   3.086  1.4194  0.4728 -0.6490
 7190SOL     OW27405  10.522   0.308   4.139  0.2186  0.2287  0.1618
 7190SOL    HW127406  10.608   0.349   4.149 -0.9379  2.5698  1.3153
 7190SOL    HW227407  10.500   0.321   4.046  0.5727  0.7122  0.1438
 7191SOL     OW27408  10.193   1.887   8.464 -0.0118 -0.1752 -0.4663
 7191SOL    HW127409  10.180   1.949   8.536 -2.8546 -1.1808  0.0048
 7191SOL    HW227410  10.278   1.847   8.483 -0.1045  0.4898  1.6478
 7192SOL     OW27411   6.903   7.728   9.377  0.2207 -0.4424  0.0215
 7192SOL    HW127412   6.924   7.803   9.434  0.6034 -0.7202  0.2457
 7192SOL    HW227413   6.929   7.651   9.427 -1.0504 -0.7916  0.1902
 7193SOL     OW27414   6.151   7.614   3.937  0.6445  0.0557 -0.1792
 7193SOL    HW127415   6.063   7.624   3.973  1.1286  0.6343  0.8891
 7193SOL    HW227416   6.205   7.587   4.011  2.0016  2.9054 -0.0136
 7194SOL     OW27417   2.113   1.062   6.528 -0.1440 -0.1654  0.1466
 7194SOL    HW127418   2.090   1.133   6.588  1.3008  1.2007 -0.8407
 7194SOL    HW227419   2.067   1.083   6.447  1.7880  0.7350 -0.7597
 7195SOL     OW27420   4.049   3.867   7.251 -0.2081 -0.0991  0.2751
 7195SOL    HW127421   4.033   3.925   7.326 -0.9313 -0.8424  0.7035
 7195SOL    HW227422   3.962   3.837   7.225  0.0551  0.0241 -0.7661
 7196SOL     OW27423   4.264   5.703   1.935 -0.7378 -0.1320 -0.2304
 7196SOL    HW127424   4.169   5.707   1.948 -0.4168 -0.0639  2.6871
 7196SOL    HW227425   4.296   5.786   1.970  0.4257 -0.0873 -1.3219
 7197SOL     OW27426   8.633   1.465   9.464 -0.2437 -0.4489  0.2807
 7197SOL    HW127427   8.643   1.482   9.370  0.2979 -1.1240  0.2071
 7197SOL    HW227428   8.538   1.466   9.478 -0.3285 -0.2685 -0.2595
 7198SOL     OW27429   9.445   5.084   9.838  0.4492  0.1376  0.3609
 7198SOL    HW127430   9.361   5.046   9.864 -0.0187 -0.5643 -1.9672
 7198SOL    HW227431   9.509   5.015   9.857  0.1291 -0.3350 -0.2257
 7199SOL     OW27432  10.389   8.857  10.570 -0.3270 -0.5899 -0.3606
 7199SOL    HW127433  10.303   8.880  10.535 -0.8225  2.2518  2.3638
 7199SOL    HW227434  10.371   8.813  10.653  0.7366  1.8948  1.2945
 7200SOL     OW27435   1.027   7.923   3.872 -0.0453  0.0761 -0.2562
 7200SOL    HW127436   1.086   7.974   3.928 -0.0338  0.6600 -0.7870
 7200SOL    HW227437   1.042   7.832   3.897 -0.0051  0.3189  0.6570
 7201SOL     OW27438   3.436   4.781   6.730 -0.4641  0.2026 -0.4954
 7201SOL    HW127439   3.415   4.866   6.768 -1.7293  0.0299 -0.7941
 7201SOL    HW227440   3.393   4.781   6.645 -3.4821 -2.0200  0.8659
 7202SOL     OW27441   7.556  10.144   2.731 -0.0141  0.0302  0.7125
 7202SOL    HW127442   7.647  10.130   2.704  0.0276 -0.9253  1.3223
 7202SOL    HW227443   7.557  10.229   2.774  0.5734  0.0814  0.6077
 7203SOL     OW27444  10.275   5.408   9.166 -0.0502 -0.0133  0.0918
 7203SOL    HW127445  10.205   5.471   9.151  0.0106  0.6232  2.1181
 7203SOL    HW227446  10.332   5.452   9.230  0.7837 -1.5399  0.4377
 7204SOL     OW27447   5.298   2.286  10.607  1.0145 -0.4512 -0.6381
 7204SOL    HW127448   5.356   2.210  10.599  2.8754  0.8585 -0.4133
 7204SOL    HW227449   5.312   2.317  10.697 -0.9120 -0.7055 -0.2047
 7205SOL     OW27450  10.272   2.382   5.905 -0.2124 -0.7523  0.3103
 7205SOL    HW127451  10.358   2.422   5.889 -0.8816  0.1312 -1.2509
 7205SOL    HW227452  10.287   2.288   5.890 -0.2149 -0.2836 -3.6366
 7206SOL     OW27453   6.021   2.775   7.451 -0.0029 -0.4993  0.3119
 7206SOL    HW127454   6.089   2.798   7.388 -0.1965 -1.5204 -0.2916
 7206SOL    HW227455   5.976   2.858   7.468  1.7978  0.3595  1.2757
 7207SOL     OW27456   3.347   6.052   8.262 -0.0007 -0.5399  0.5566
 7207SOL    HW127457   3.317   6.142   8.270 -0.5820 -0.7878  1.3373
 7207SOL    HW227458   3.269   6.003   8.234 -0.0315 -0.9917  1.3862
 7208SOL     OW27459  10.584   4.087   7.413 -0.3252 -0.4376  0.0586
 7208SOL    HW127460  10.492   4.063   7.399 -0.1189 -1.7114  0.7374
 7208SOL    HW227461  10.622   4.010   7.456  0.1777  1.4401  3.2684
 7209SOL     OW27462   9.865  10.838   7.895  0.0792 -0.1480 -0.1919
 7209SOL    HW127463   9.897  10.913   7.845 -0.3366  0.3210  0.2307
 7209SOL    HW227464   9.881  10.863   7.987  0.1445 -0.6716 -0.0594
 7210SOL     OW27465   0.730   9.851   4.830 -0.3332 -0.3086  0.8476
 7210SOL    HW127466   0.796   9.822   4.767 -0.6657 -0.2880  0.4834
 7210SOL    HW227467   0.684   9.771   4.854 -0.8076 -0.1926  0.3576
 7211SOL     OW27468   9.047   9.211   6.493 -0.1672 -0.3221  0.8652
 7211SOL    HW127469   8.979   9.157   6.535 -1.8795  1.0418 -0.0552
 7211SOL    HW227470   9.067   9.278   6.558 -1.7051  0.8720  0.1688
 7212SOL     OW27471   9.073   9.043   9.135  0.0851  0.2913  0.1057
 7212SOL    HW127472   9.046   9.026   9.225  0.4875  2.1922  0.6403
 7212SOL    HW227473   9.063   9.138   9.124  1.9806  0.4171 -1.1706
 7213SOL     OW27474   1.644   2.714   9.790  0.1260 -0.3394  0.5060
 7213SOL    HW127475   1.737   2.707   9.769  0.1909  0.4499  0.4751
 7213SOL    HW227476   1.640   2.704   9.885  0.5406  1.8785  0.8181
 7214SOL     OW27477   6.301   5.527   3.318  0.1870 -0.6691 -0.0709
 7214SOL    HW127478   6.277   5.549   3.408  1.2267  2.0902 -0.3730
 7214SOL    HW227479   6.230   5.563   3.264 -0.3164 -2.1046 -0.4049
 7215SOL     OW27480   7.472   2.882   2.343 -0.0626  0.4535 -0.1320
 7215SOL    HW127481   7.483   2.975   2.326 -0.2573  0.6965  0.9631
 7215SOL    HW227482   7.377   2.867   2.336 -0.0913  0.4587  0.1978
 7216SOL     OW27483   4.181   2.134   5.855  0.0266  0.5777  0.5948
 7216SOL    HW127484   4.098   2.181   5.845  0.6615  1.4490 -0.8461
 7216SOL    HW227485   4.155   2.043   5.871 -1.2209  0.6713 -0.6766
 7217SOL     OW27486   5.801  10.619   6.205  0.2476  0.0462 -0.2000
 7217SOL    HW127487   5.798  10.710   6.176 -0.2491  0.0829 -0.0546
 7217SOL    HW227488   5.863  10.576   6.147 -1.0091  0.0305 -1.5931
 7218SOL     OW27489   2.279   0.138   9.578  0.1704 -0.1040  0.0880
 7218SOL    HW127490   2.328   0.126   9.659 -0.6698 -1.0847  0.4748
 7218SOL    HW227491   2.188   0.120   9.602 -0.5061  2.1210 -0.4871
 7219SOL     OW27492   6.849   7.061  10.383 -0.0679 -0.1909 -0.6518
 7219SOL    HW127493   6.918   7.004  10.348  0.5044 -1.7365  2.6527
 7219SOL    HW227494   6.787   7.002  10.424 -0.5771  1.4308  1.0630
 7220SOL     OW27495   4.469   6.613   9.088 -0.3924 -0.0274 -0.5059
 7220SOL    HW127496   4.455   6.630   9.181  0.0555  3.0149 -0.8740
 7220SOL    HW227497   4.562   6.632   9.074 -0.3787 -0.7513 -1.5304
 7221SOL     OW27498   9.906   8.649   9.085 -0.1432  0.5304  0.4194
 7221SOL    HW127499   9.864   8.735   9.090 -1.0180  0.3356 -1.9223
 7221SOL    HW227500   9.999   8.668   9.075 -0.4090  1.2982 -0.9249
 7222SOL     OW27501   8.417   5.545   3.409 -0.2248 -0.3671  0.1194
 7222SOL    HW127502   8.449   5.455   3.404 -0.9866 -0.6974  0.8129
 7222SOL    HW227503   8.443   5.575   3.497  0.1186  0.1277 -0.1470
 7223SOL     OW27504   2.538  10.334   9.182 -0.1368 -0.0143 -0.1190
 7223SOL    HW127505   2.632  10.354   9.188  0.1315 -0.7398 -1.5595
 7223SOL    HW227506   2.530  10.246   9.219 -0.8002  1.2377  3.0392
 7224SOL     OW27507   3.955   1.314   5.572 -0.3172 -0.0142  0.3844
 7224SOL    HW127508   3.979   1.247   5.509 -0.8002 -0.1587  0.3451
 7224SOL    HW227509   4.008   1.294   5.650 -0.8932 -0.8202  0.5879
 7225SOL     OW27510   2.681   3.353   2.093  0.1740 -0.8098  0.1825
 7225SOL    HW127511   2.683   3.289   2.022 -0.0393 -0.6852  0.0637
 7225SOL    HW227512   2.729   3.311   2.164 -0.2859 -1.2583  0.2386
 7226SOL     OW27513   2.058   4.956   1.959  1.0584 -0.2457  0.1452
 7226SOL    HW127514   2.109   5.001   2.026  0.6109 -0.8529  0.9159
 7226SOL    HW227515   2.069   4.863   1.979 -1.3360 -0.3996  1.1367
 7227SOL     OW27516   7.406   5.088   3.834 -0.1718  0.4346 -0.0023
 7227SOL    HW127517   7.434   5.125   3.751 -0.4027  0.0012 -0.2768
 7227SOL    HW227518   7.481   5.035   3.863  0.9121  2.5444  1.3127
 7228SOL     OW27519   1.486   6.572   7.821 -0.5702  0.1274 -0.2912
 7228SOL    HW127520   1.542   6.593   7.747 -1.8352  1.6879 -0.8677
 7228SOL    HW227521   1.417   6.516   7.783 -2.4530  2.6708 -0.8805
 7229SOL     OW27522  10.475   8.278   1.613 -0.1884 -0.5338  0.1948
 7229SOL    HW127523  10.403   8.237   1.661 -0.4633 -0.5266 -0.1975
 7229SOL    HW227524  10.518   8.335   1.676 -0.1040 -1.0602  0.6177
 7230SOL     OW27525   2.162   1.964   3.191 -0.2236  0.4421  0.0833
 7230SOL    HW127526   2.141   1.940   3.101 -1.4491  0.6670  0.2966
 7230SOL    HW227527   2.126   1.893   3.244  0.1645  0.4957  0.4255
 7231SOL     OW27528  10.827   8.518   1.879  0.2930 -0.1077 -0.8015
 7231SOL    HW127529  10.872   8.444   1.921  0.1364  0.2109 -0.0453
 7231SOL    HW227530  10.734   8.493   1.881  0.0364  0.7773  0.9535
 7232SOL     OW27531   6.610   1.737   9.362 -0.1241 -0.8375 -0.0617
 7232SOL    HW127532   6.701   1.767   9.365  0.6089 -2.7618 -1.2912
 7232SOL    HW227533   6.559   1.816   9.381  1.7770  0.2265  1.0270
 7233SOL     OW27534   2.097   4.400   2.615 -0.4465 -0.4454 -0.2498
 7233SOL    HW127535   2.110   4.391   2.710  0.4701  0.2628 -0.2958
 7233SOL    HW227536   2.031   4.334   2.594 -0.9442 -0.3550  0.9409
 7234SOL     OW27537   3.749   2.108   4.387  0.3356  0.4864 -0.1746
 7234SOL    HW127538   3.674   2.158   4.421  0.2594 -0.9107  1.8435
 7234SOL    HW227539   3.826   2.153   4.422  0.2686 -0.6601  1.5760
 7235SOL     OW27540   8.909   8.027   6.738 -0.1348 -0.1942 -0.3030
 7235SOL    HW127541   8.874   8.115   6.746  1.1467  0.4826 -1.6233
 7235SOL    HW227542   8.935   8.002   6.826  0.8189  1.3442 -0.1215
 7236SOL     OW27543   3.109   4.503   5.418 -1.0097 -0.1805 -0.0088
 7236SOL    HW127544   3.190   4.457   5.394 -0.6043 -0.2469  1.3870
 7236SOL    HW227545   3.050   4.434   5.448 -0.8675  0.0636  0.8499
 7237SOL     OW27546   0.996   7.090   3.610 -0.4552 -0.1037 -0.2924
 7237SOL    HW127547   1.045   7.045   3.542 -0.5768 -1.2917  0.3785
 7237SOL    HW227548   1.046   7.170   3.627  0.4350 -0.5711 -0.6645
 7238SOL     OW27549   9.247   3.094   9.363 -0.7587 -0.5784  0.0511
 7238SOL    HW127550   9.231   3.150   9.287  1.0073 -1.2152 -0.8635
 7238SOL    HW227551   9.293   3.152   9.425  0.9305 -0.9040 -0.8313
 7239SOL     OW27552   0.857   9.787   4.596  0.1633 -0.4127 -0.3442
 7239SOL    HW127553   0.934   9.794   4.540 -0.5521  0.4590 -1.2565
 7239SOL    HW227554   0.854   9.695   4.622  1.5879 -0.4268 -0.1540
 7240SOL     OW27555   7.594   0.498   3.685 -0.2763 -0.0038  0.1015
 7240SOL    HW127556   7.642   0.415   3.686 -0.5794 -0.1799  0.2471
 7240SOL    HW227557   7.524   0.484   3.621  1.0692  0.9467 -1.6709
 7241SOL     OW27558   9.719   2.279   4.919  0.3992  0.1841 -0.4618
 7241SOL    HW127559   9.805   2.254   4.951 -0.3905 -0.1242  1.5369
 7241SOL    HW227560   9.709   2.370   4.946 -1.5946 -0.9765  3.4825
 7242SOL     OW27561   7.259   4.652   1.750  0.6937  0.0443 -0.2463
 7242SOL    HW127562   7.287   4.739   1.777 -0.4353  0.2394  0.3459
 7242SOL    HW227563   7.204   4.668   1.673 -1.4765  0.1352  1.2221
 7243SOL     OW27564   2.581   5.062   1.433 -0.2249  0.0149  0.1177
 7243SOL    HW127565   2.552   5.076   1.342  0.2292 -0.4821 -0.1089
 7243SOL    HW227566   2.509   5.014   1.473  0.4974 -1.7524 -0.6129
 7244SOL     OW27567   1.129  10.429   4.051  0.5121  0.5277 -0.0639
 7244SOL    HW127568   1.205  10.380   4.018  0.1923 -0.5843  0.8024
 7244SOL    HW227569   1.159  10.466   4.133  0.0846 -0.0469  0.3605
 7245SOL     OW27570   8.969   8.518   0.398 -0.1198 -0.1122 -0.2880
 7245SOL    HW127571   8.966   8.436   0.446  1.2983 -0.4637 -0.7353
 7245SOL    HW227572   8.878   8.541   0.381 -0.6129 -0.5261  1.6142
 7246SOL     OW27573   3.070   1.169   1.776 -0.6901  0.0899  0.1434
 7246SOL    HW127574   3.037   1.091   1.822 -0.0346  1.3490  2.9750
 7246SOL    HW227575   3.047   1.242   1.834  2.1796  1.5722 -0.4274
 7247SOL     OW27576  10.033   2.736   4.220  0.2114  0.2789 -0.3886
 7247SOL    HW127577  10.034   2.692   4.306 -1.8324  2.1908  0.7018
 7247SOL    HW227578  10.119   2.776   4.213  0.5169 -0.1588  0.6224
 7248SOL     OW27579   4.637   2.882   3.356  0.0610  0.1181  0.3680
 7248SOL    HW127580   4.580   2.870   3.280 -1.4319 -0.3402  1.5267
 7248SOL    HW227581   4.580   2.916   3.425  1.5703  1.4441  1.0468
 7249SOL     OW27582   8.304   9.948   9.720 -0.0874 -0.4522 -0.2877
 7249SOL    HW127583   8.312  10.041   9.742  1.0000 -0.1972 -1.5824
 7249SOL    HW227584   8.315   9.902   9.803 -0.1289  0.5628  0.2941
 7250SOL     OW27585   6.594   2.222   0.150  0.6967  0.6671 -0.5964
 7250SOL    HW127586   6.526   2.226   0.218 -0.2360 -1.2516 -1.3447
 7250SOL    HW227587   6.652   2.151   0.178  1.8801  1.6319 -0.4809
 7251SOL     OW27588   8.624   0.439   5.114  0.4725  0.2580 -0.5162
 7251SOL    HW127589   8.616   0.533   5.101  2.8384  0.2897 -2.4503
 7251SOL    HW227590   8.591   0.424   5.203 -1.2992  2.6460 -0.6732
 7252SOL     OW27591   7.812   4.624   3.438 -0.6089 -0.5845  0.5225
 7252SOL    HW127592   7.797   4.718   3.435 -0.6675 -0.5988  0.3491
 7252SOL    HW227593   7.885   4.609   3.378 -2.4061 -0.9922 -1.7402
 7253SOL     OW27594   5.874  10.774   2.309 -0.4304 -0.1169  0.1828
 7253SOL    HW127595   5.914  10.791   2.394  1.4026 -1.9671 -0.2152
 7253SOL    HW227596   5.869  10.679   2.303 -2.1648  0.0016 -1.0905
 7254SOL     OW27597   2.269   9.346   1.986 -0.1288  0.1776  0.0461
 7254SOL    HW127598   2.331   9.342   2.059  1.1616  0.0032 -1.0227
 7254SOL    HW227599   2.184   9.351   2.028  0.2961 -3.0003  1.6225
 7255SOL     OW27600   2.992  10.618   0.492  0.5420  0.0644  0.5659
 7255SOL    HW127601   2.956  10.690   0.441 -0.6055 -0.3162  0.8065
 7255SOL    HW227602   3.034  10.660   0.567  1.9384  0.6020 -0.4666
 7256SOL     OW27603   6.521   9.084  10.605  0.0734 -0.0763  0.4229
 7256SOL    HW127604   6.476   9.019  10.551  0.5658 -0.4230  0.4243
 7256SOL    HW227605   6.575   9.032  10.664  1.6700  0.3616 -0.6087
 7257SOL     OW27606   5.207   4.312   4.334 -0.0791 -0.7789 -0.0656
 7257SOL    HW127607   5.197   4.371   4.409 -1.9326 -2.8371  1.4173
 7257SOL    HW227608   5.123   4.318   4.288 -0.3779 -2.3807  0.2390
 7258SOL     OW27609   0.168   8.477   5.552  0.3578  0.2019  0.0198
 7258SOL    HW127610   0.251   8.447   5.517 -0.0152 -0.1272 -0.5907
 7258SOL    HW227611   0.134   8.402   5.601 -1.0494 -0.7852 -2.3362
 7259SOL     OW27612   7.241   3.259   2.159 -0.5133 -0.5467 -0.0284
 7259SOL    HW127613   7.321   3.244   2.210 -1.5198  0.6318  2.0425
 7259SOL    HW227614   7.228   3.176   2.112  1.4871 -1.0351  0.1461
 7260SOL     OW27615   7.931   2.595   5.290 -0.0829  0.1768  0.3036
 7260SOL    HW127616   7.874   2.613   5.364 -0.5435 -0.8660  0.2105
 7260SOL    HW227617   7.971   2.680   5.270  2.7021 -0.0554  3.8593
 7261SOL     OW27618   8.224   2.287  10.405  0.5375  0.2222 -0.0228
 7261SOL    HW127619   8.261   2.335  10.331  1.5134 -0.5070 -0.0325
 7261SOL    HW227620   8.260   2.331  10.482  0.9389 -0.0906 -0.0238
 7262SOL     OW27621   8.521   7.376   9.450  0.0521 -0.3470 -1.0883
 7262SOL    HW127622   8.509   7.356   9.543  0.3206  0.3364 -0.8982
 7262SOL    HW227623   8.518   7.291   9.407  2.4661 -0.9599 -0.1864
 7263SOL     OW27624   9.574   3.548   2.462  0.5995  0.2432 -0.0364
 7263SOL    HW127625   9.512   3.617   2.435  0.2654 -0.2780 -0.6432
 7263SOL    HW227626   9.589   3.564   2.555  0.5686  1.1670 -0.1828
 7264SOL     OW27627   7.677   4.667  10.321 -0.1670 -0.3311 -0.1862
 7264SOL    HW127628   7.645   4.587  10.281  0.7827  0.4237 -2.6023
 7264SOL    HW227629   7.772   4.655  10.327 -0.1984 -0.0957  1.1806
 7265SOL     OW27630   4.697   2.222   1.716 -0.3635  0.1632  0.3251
 7265SOL    HW127631   4.662   2.294   1.768 -0.5838  0.5437 -0.3347
 7265SOL    HW227632   4.717   2.261   1.631 -0.6295 -0.5856 -0.0955
 7266SOL     OW27633   1.890   1.480   6.341 -0.1243  0.0507 -0.5239
 7266SOL    HW127634   1.884   1.400   6.393  0.9835  0.0108 -0.4396
 7266SOL    HW227635   1.800   1.515   6.341 -0.4229 -0.6702  0.2502
 7267SOL     OW27636   8.834   4.248   3.445 -0.0354 -0.3841  0.1695
 7267SOL    HW127637   8.832   4.155   3.468  2.2444 -0.0758  1.9228
 7267SOL    HW227638   8.918   4.261   3.401 -0.9716  0.6000 -1.4357
 7268SOL     OW27639   6.293   4.113   3.079  0.0565  0.2606  0.1783
 7268SOL    HW127640   6.242   4.194   3.078 -0.8172 -0.2641 -0.9252
 7268SOL    HW227641   6.321   4.102   3.170  1.4467  2.5529  0.0930
 7269SOL     OW27642   9.367   5.616  10.768  0.0886  0.7224 -0.2918
 7269SOL    HW127643   9.418   5.697  10.761 -2.8829  2.7402 -0.3861
 7269SOL    HW227644   9.343   5.610  10.860  1.5459 -0.9654  0.0229
 7270SOL     OW27645   1.752   1.915   6.536  0.0372  0.2526 -0.0808
 7270SOL    HW127646   1.677   1.901   6.479  0.4237  0.5347 -0.6709
 7270SOL    HW227647   1.800   1.987   6.495  1.6587 -1.1465 -0.7805
 7271SOL     OW27648   0.423   4.060   3.544 -0.2706  0.6193 -0.3043
 7271SOL    HW127649   0.415   4.135   3.603 -0.5997  0.5679 -0.2802
 7271SOL    HW227650   0.515   4.035   3.549 -0.8674 -1.6248  2.9752
 7272SOL     OW27651   7.704   2.275   2.111  0.4719  0.4056 -0.3839
 7272SOL    HW127652   7.688   2.303   2.201 -0.1336  0.5691 -0.5342
 7272SOL    HW227653   7.623   2.231   2.085  1.2941 -1.2148 -0.2702
 7273SOL     OW27654   7.212   1.789   0.897  0.1576 -0.1877 -0.6729
 7273SOL    HW127655   7.183   1.724   0.961 -1.5651  0.6556 -0.5405
 7273SOL    HW227656   7.173   1.759   0.814 -0.7826  0.7335 -0.5814
 7274SOL     OW27657   0.995  10.107   3.816  0.5039 -0.0004  0.2058
 7274SOL    HW127658   0.951  10.030   3.854  0.7613  0.1725  0.8672
 7274SOL    HW227659   1.051  10.071   3.747  0.5383 -0.3917  0.4336
 7275SOL     OW27660   7.108   8.466   5.200 -0.2315 -0.5323 -0.2719
 7275SOL    HW127661   7.132   8.414   5.123  1.7464 -1.2800  0.7779
 7275SOL    HW227662   7.014   8.449   5.212 -0.5845 -0.4163 -2.4654
 7276SOL     OW27663   9.810   1.109   2.547  0.0665  0.8075  0.4796
 7276SOL    HW127664   9.757   1.126   2.625  0.4370 -3.7158  2.0072
 7276SOL    HW227665   9.747   1.084   2.480 -0.0218  0.3211  0.7409
 7277SOL     OW27666   2.740   8.903   6.267  0.3302 -0.1712 -0.0143
 7277SOL    HW127667   2.774   8.826   6.312 -0.3278  0.0067  0.8282
 7277SOL    HW227668   2.681   8.868   6.201 -0.0140 -0.4005  0.4060
 7278SOL     OW27669   7.446   1.087   6.759  0.0188 -0.2054  0.2889
 7278SOL    HW127670   7.480   1.069   6.846 -1.7625  2.0138  1.5306
 7278SOL    HW227671   7.521   1.123   6.711  1.0326 -1.5347  0.8165
 7279SOL     OW27672   9.646   8.250   2.987 -0.3407  0.6828  0.4193
 7279SOL    HW127673   9.637   8.247   2.892  0.9042  0.7029  0.2839
 7279SOL    HW227674   9.692   8.169   3.009 -2.5004 -0.3905  1.2627
 7280SOL     OW27675   5.936  10.007   2.077  0.6546 -0.3033  0.5162
 7280SOL    HW127676   5.924   9.917   2.046 -1.5158  0.2153 -0.3508
 7280SOL    HW227677   5.981  10.051   2.005 -0.0411 -0.2557  0.0985
 7281SOL     OW27678   3.192   6.569   6.302  0.2386  0.9113 -0.2015
 7281SOL    HW127679   3.155   6.483   6.323  0.5163  0.8850  0.1895
 7281SOL    HW227680   3.287   6.554   6.296  0.2037  0.9822 -1.1691
 7282SOL     OW27681   2.057   5.785  10.635 -0.3105 -0.6667 -0.0406
 7282SOL    HW127682   2.136   5.840  10.633 -1.4882  1.0994 -0.0132
 7282SOL    HW227683   2.083   5.704  10.591  1.3756  0.0597 -0.4600
 7283SOL     OW27684   6.448   3.758   7.838  0.2530  0.9749 -0.1075
 7283SOL    HW127685   6.410   3.773   7.752 -2.0120 -0.1994  0.6114
 7283SOL    HW227686   6.375   3.769   7.900  1.3469 -0.1141  1.4771
 7284SOL     OW27687   8.938   2.751   6.052 -0.3000  0.1473  0.4812
 7284SOL    HW127688   8.882   2.687   6.009 -0.3047 -0.0817  0.8272
 7284SOL    HW227689   8.958   2.713   6.137  1.5099 -0.4200 -0.1465
 7285SOL     OW27690   5.631   4.995   2.463 -0.0951 -0.1487  0.0378
 7285SOL    HW127691   5.717   4.961   2.488 -0.3951 -0.1297  1.1202
 7285SOL    HW227692   5.573   4.919   2.468 -0.0433 -0.2991 -1.2905
 7286SOL     OW27693  10.649   7.585   5.301  0.4357 -0.5349 -0.2569
 7286SOL    HW127694  10.567   7.539   5.322  1.9643 -3.4308 -0.1164
 7286SOL    HW227695  10.692   7.597   5.385  0.4350  0.5081 -0.3880
 7287SOL     OW27696   0.772   4.522   4.971 -0.2546 -0.1329 -0.4123
 7287SOL    HW127697   0.701   4.586   4.968 -1.1879 -1.0817  0.3748
 7287SOL    HW227698   0.778   4.489   4.881  0.5044  1.3104 -0.9112
 7288SOL     OW27699   4.059   6.334   4.378  0.1770 -0.3196  0.5104
 7288SOL    HW127700   4.097   6.318   4.292 -2.2319 -3.8105 -0.1482
 7288SOL    HW227701   4.068   6.250   4.424  0.4877  1.1405  3.3359
 7289SOL     OW27702   8.150  10.374   0.153 -0.4540  0.4478  0.0436
 7289SOL    HW127703   8.204  10.379   0.232 -1.7278 -1.3657  1.1001
 7289SOL    HW227704   8.087  10.446   0.163  0.2576  1.0971 -0.0393
 7290SOL     OW27705   0.659   4.005   0.962  0.3831 -0.4892 -0.0311
 7290SOL    HW127706   0.631   4.089   0.997  1.0390  0.6699 -2.0889
 7290SOL    HW227707   0.586   3.946   0.979 -0.6555  0.8355  0.3069
 7291SOL     OW27708   5.832   9.052   9.841  0.5168 -0.1309 -0.4020
 7291SOL    HW127709   5.796   9.030   9.754 -1.0987 -0.3967  0.2994
 7291SOL    HW227710   5.858   9.143   9.834 -0.2037  0.0385 -0.9876
 7292SOL     OW27711   3.138   0.762   6.173 -0.4752  0.4954  0.3645
 7292SOL    HW127712   3.120   0.855   6.161  1.5648  0.9154  0.1771
 7292SOL    HW227713   3.168   0.732   6.087 -0.8432 -0.2771  0.4963
 7293SOL     OW27714  10.180   9.677   7.761 -0.4865 -0.0766 -0.0449
 7293SOL    HW127715  10.177   9.636   7.674 -1.6766  1.0627 -0.5763
 7293SOL    HW227716  10.113   9.745   7.757  0.9693  1.4784  1.0152
 7294SOL     OW27717   5.004   4.093   1.241  0.0950 -0.7603 -0.3925
 7294SOL    HW127718   4.947   4.070   1.167  0.0732 -1.1203 -0.2662
 7294SOL    HW227719   4.946   4.090   1.317 -0.3371  1.5002 -0.5806
 7295SOL     OW27720   3.502  10.257   2.051 -0.4225  0.2089  0.3265
 7295SOL    HW127721   3.528  10.211   2.131 -0.9071  2.5931  1.9859
 7295SOL    HW227722   3.551  10.340   2.055 -1.4619  0.9306 -1.1671
 7296SOL     OW27723  10.599   2.382   8.909 -0.4945  0.5857 -0.7724
 7296SOL    HW127724  10.658   2.358   8.981 -0.9081 -0.0934 -0.6517
 7296SOL    HW227725  10.540   2.307   8.901 -1.8684  1.5957 -0.3565
 7297SOL     OW27726   3.440   6.589   1.872  0.0854  0.2604 -0.2748
 7297SOL    HW127727   3.393   6.581   1.789 -1.7335 -1.7879  0.8402
 7297SOL    HW227728   3.375   6.627   1.932  0.6177 -0.4175  0.7483
 7298SOL     OW27729   2.030   5.335   5.401 -0.2489 -0.2183  1.0494
 7298SOL    HW127730   1.946   5.352   5.442 -1.2787 -0.4663 -0.8385
 7298SOL    HW227731   2.037   5.401   5.332  0.5100 -0.9973  0.3465
 7299SOL     OW27732   9.632  10.586   2.055  0.0360 -0.6648 -0.0261
 7299SOL    HW127733   9.628  10.600   2.149  1.0145 -0.3218 -0.0210
 7299SOL    HW227734   9.541  10.585   2.026 -0.2519  2.2144  0.5172
 7300SOL     OW27735   6.198   7.035   5.564  0.0013 -0.2120  0.2512
 7300SOL    HW127736   6.153   7.119   5.567  1.2185  0.4638  3.0768
 7300SOL    HW227737   6.207   7.015   5.471 -2.2346  1.6916 -0.4596
 7301SOL     OW27738   2.979   1.544   9.614 -0.3164  0.4046 -0.0446
 7301SOL    HW127739   3.010   1.492   9.689 -1.4030  0.8354  0.7334
 7301SOL    HW227740   3.002   1.634   9.636  0.1665  0.4378 -0.6635
 7302SOL     OW27741   3.132   9.109   8.108 -0.2995  0.2206 -0.2545
 7302SOL    HW127742   3.082   9.028   8.103 -0.1503  0.0097  1.2142
 7302SOL    HW227743   3.223   9.081   8.119 -0.5588  0.3653  4.3157
 7303SOL     OW27744   9.883   3.659   4.466  0.6538  0.1773  0.0607
 7303SOL    HW127745   9.939   3.582   4.477  0.5005  0.3307  2.2939
 7303SOL    HW227746   9.842   3.646   4.380  2.1419 -1.2048 -0.5045
 7304SOL     OW27747   1.281   8.675   5.344 -0.3104 -0.2138  0.2403
 7304SOL    HW127748   1.328   8.630   5.273  0.4508  2.0221 -0.7825
 7304SOL    HW227749   1.345   8.684   5.413 -0.1645  0.1567  0.0569
 7305SOL     OW27750   3.316  10.550   4.105 -0.0195  0.3422  0.6410
 7305SOL    HW127751   3.269  10.503   4.036  0.5924  0.1637  0.3299
 7305SOL    HW227752   3.254  10.555   4.178 -0.5259  0.1512  0.2295
 7306SOL     OW27753   6.283   0.383   8.770  0.1240 -0.2162  0.0679
 7306SOL    HW127754   6.369   0.424   8.777 -0.1472  0.6083 -1.0694
 7306SOL    HW227755   6.222   0.456   8.758 -0.5200 -0.8605 -0.8195
 7307SOL     OW27756   6.078   9.411   6.406 -0.0783  0.5001 -0.0262
 7307SOL    HW127757   6.169   9.432   6.388  0.0178  0.0665 -0.0614
 7307SOL    HW227758   6.075   9.315   6.408 -0.4694  0.5129  0.2881
 7308SOL     OW27759   3.065  10.053   9.114 -0.6489 -0.1241  0.4011
 7308SOL    HW127760   3.086  10.018   9.201 -0.1667 -0.4918  0.1394
 7308SOL    HW227761   3.150  10.062   9.071 -0.8140  0.8167  0.2514
 7309SOL     OW27762   9.351   3.898   4.414 -0.7471 -0.0573  0.5999
 7309SOL    HW127763   9.410   3.857   4.478 -0.3701  0.3382  0.5081
 7309SOL    HW227764   9.394   3.980   4.391 -0.7841 -0.2831 -0.3098
 7310SOL     OW27765   9.492   4.411   3.042  0.0612 -0.7817  0.3855
 7310SOL    HW127766   9.399   4.407   3.063  0.0864 -1.0670  0.4547
 7310SOL    HW227767   9.512   4.324   3.007  0.0560 -0.3794 -0.6609
 7311SOL     OW27768   0.551  10.906   2.911  0.5346  0.2428  0.0281
 7311SOL    HW127769   0.528  10.848   2.984  1.1505  0.4029  0.3538
 7311SOL    HW227770   0.637  10.941   2.934  0.5158  0.6787 -0.5423
 7312SOL     OW27771   5.845  10.890   6.437 -0.1608 -0.7324  0.3067
 7312SOL    HW127772   5.847  10.882   6.342 -1.2889  0.8103  0.1179
 7312SOL    HW227773   5.755  10.870   6.462  0.2920 -1.8376  1.1490
 7313SOL     OW27774   1.918   4.515   2.264  0.3315 -0.0047  0.2749
 7313SOL    HW127775   1.959   4.439   2.224  1.6625  2.5588 -3.9953
 7313SOL    HW227776   1.827   4.514   2.232  0.6563  0.6645 -0.7334
 7314SOL     OW27777   6.853   3.257   0.874  0.0305 -0.1165 -0.0490
 7314SOL    HW127778   6.901   3.182   0.908 -0.4866 -0.0938  0.7386
 7314SOL    HW227779   6.915   3.299   0.814  0.9813 -0.1320  0.8887
 7315SOL     OW27780   6.482   9.085   2.173  0.0654  0.2440  0.0947
 7315SOL    HW127781   6.442   8.998   2.185 -0.4207  0.2791 -1.1183
 7315SOL    HW227782   6.529   9.101   2.255  0.0678 -1.1149  0.3866
 7316SOL     OW27783   3.164   1.162   8.412  0.0972  0.0958  0.0074
 7316SOL    HW127784   3.254   1.160   8.380  0.7231 -0.7906  1.6929
 7316SOL    HW227785   3.110   1.168   8.333  1.5282 -2.7492 -1.3296
 7317SOL     OW27786   4.789   9.728   1.354 -0.5747  0.3101  0.2637
 7317SOL    HW127787   4.870   9.698   1.396  0.4950 -1.1164 -2.5469
 7317SOL    HW227788   4.725   9.660   1.376 -0.3398  0.1529  0.4750
 7318SOL     OW27789   6.252   6.346   8.262  0.4127 -0.2363 -0.2600
 7318SOL    HW127790   6.260   6.419   8.200  0.4229 -0.2933 -0.3267
 7318SOL    HW227791   6.161   6.318   8.255 -0.4907  1.7783  2.0384
 7319SOL     OW27792   4.490   6.828   1.625  0.0557  0.4438  0.1647
 7319SOL    HW127793   4.459   6.912   1.660 -0.8382 -0.0446  0.5934
 7319SOL    HW227794   4.521   6.781   1.702  1.5298  0.7609 -0.2088
 7320SOL     OW27795   4.600   1.808   4.778  0.0834 -0.5448 -0.3149
 7320SOL    HW127796   4.511   1.835   4.802  0.9634 -0.0158  2.7703
 7320SOL    HW227797   4.596   1.712   4.774 -0.5394 -0.5481  0.2253
 7321SOL     OW27798   3.077   0.839   4.265  0.3738  0.1804 -0.2638
 7321SOL    HW127799   3.108   0.761   4.313  0.5270  0.1644 -0.3876
 7321SOL    HW227800   3.022   0.803   4.196 -1.3700  0.2860  0.9992
 7322SOL     OW27801   4.493   8.807   6.510 -0.2596  0.8558  0.2112
 7322SOL    HW127802   4.547   8.884   6.523 -0.3761  0.7117  1.6870
 7322SOL    HW227803   4.430   8.808   6.582  1.5471 -2.1062  2.0611
 7323SOL     OW27804   3.465   5.135   1.516  0.0679  0.4060  0.5131
 7323SOL    HW127805   3.509   5.128   1.431  3.0083 -1.2949  2.0403
 7323SOL    HW227806   3.395   5.069   1.512  0.2398  0.2713 -0.5251
 7324SOL     OW27807   4.063   4.688   1.781 -0.1770  0.7656 -0.0433
 7324SOL    HW127808   4.145   4.728   1.750 -1.1527  1.3568 -1.9974
 7324SOL    HW227809   4.028   4.643   1.705 -1.5566  0.2736  0.8498
 7325SOL     OW27810   2.611   2.186   7.231 -0.5242 -0.0556  0.1603
 7325SOL    HW127811   2.626   2.259   7.171 -1.2900  0.6871  0.8398
 7325SOL    HW227812   2.695   2.172   7.274  0.0516 -0.6317 -1.0970
 7326SOL     OW27813   7.221   8.861   2.187 -0.6565  0.4907  0.3426
 7326SOL    HW127814   7.303   8.894   2.224  0.1972  2.3938 -2.8379
 7326SOL    HW227815   7.179   8.813   2.259  1.9728  1.6840  2.8543
 7327SOL     OW27816   2.245   5.692   2.973  0.7181 -0.2350  0.0910
 7327SOL    HW127817   2.205   5.720   2.891 -1.7157  0.2041  1.3535
 7327SOL    HW227818   2.252   5.597   2.964  0.5053 -0.1904 -0.6367
 7328SOL     OW27819   5.235   0.912   8.368 -0.0278 -0.0452 -0.0021
 7328SOL    HW127820   5.169   0.981   8.356  0.1045  0.2384  0.8066
 7328SOL    HW227821   5.229   0.859   8.289 -1.1705  0.0289  0.0122
 7329SOL     OW27822   6.039   4.079  10.848 -0.1778 -0.5835 -0.3397
 7329SOL    HW127823   5.962   4.087  10.904 -0.5385 -0.3594 -0.8594
 7329SOL    HW227824   6.014   4.121  10.766  0.9386  0.6785 -0.0855
 7330SOL     OW27825   5.471   5.122   0.264 -0.2066  0.0785  0.1324
 7330SOL    HW127826   5.456   5.203   0.312  0.2601  0.5274 -0.4584
 7330SOL    HW227827   5.428   5.136   0.179 -0.3059 -0.3773  0.1022
 7331SOL     OW27828   3.643   1.619   6.042  0.3371 -0.1769 -0.2127
 7331SOL    HW127829   3.666   1.569   5.963  2.6106  0.6301 -0.1424
 7331SOL    HW227830   3.691   1.575   6.113 -1.0969 -0.4547  0.6158
 7332SOL     OW27831   0.199   5.490   8.677 -0.3837 -0.1588 -0.0782
 7332SOL    HW127832   0.146   5.443   8.613 -1.3061 -0.9610  1.2057
 7332SOL    HW227833   0.145   5.492   8.756  1.2276 -0.4063  1.0914
 7333SOL     OW27834   8.476   3.122   0.860  0.0325  0.2874 -0.2128
 7333SOL    HW127835   8.509   3.166   0.939  0.9309  0.4825 -0.6888
 7333SOL    HW227836   8.537   3.050   0.846 -0.3075  0.0643 -0.5586
 7334SOL     OW27837   8.583   1.317   4.915  0.0060  0.2197 -0.1307
 7334SOL    HW127838   8.602   1.225   4.931  0.2819  0.6859  2.7131
 7334SOL    HW227839   8.557   1.320   4.823  1.4315 -2.4341 -0.7396
 7335SOL     OW27840   5.925   0.243  10.268 -0.2548 -0.0817  0.4689
 7335SOL    HW127841   5.995   0.273  10.209  0.9299 -1.4540  1.1346
 7335SOL    HW227842   5.909   0.318  10.326 -0.2634  0.6986 -0.5077
 7336SOL     OW27843   7.706   3.926   5.962 -0.4197  0.2083 -0.6521
 7336SOL    HW127844   7.691   3.835   5.987 -0.8695  0.7521  1.2234
 7336SOL    HW227845   7.731   3.922   5.870  0.3585 -1.8854 -0.4080
 7337SOL     OW27846   1.520   5.188   4.910  0.2190 -0.2989 -0.2855
 7337SOL    HW127847   1.567   5.253   4.962  0.2334 -1.0208  0.6149
 7337SOL    HW227848   1.587   5.146   4.856  0.3721 -0.2960 -0.0963
 7338SOL     OW27849   4.781   0.498  10.295 -0.0790 -0.0128  0.2732
 7338SOL    HW127850   4.852   0.450  10.252  0.0564  0.2384  0.2130
 7338SOL    HW227851   4.823   0.543  10.369 -0.8495 -3.1208  2.8377
 7339SOL     OW27852   5.257   5.519   1.823  0.2594 -0.2311  0.3328
 7339SOL    HW127853   5.323   5.581   1.792 -0.7969  2.1619  2.4977
 7339SOL    HW227854   5.216   5.563   1.898 -2.7169 -2.2583  0.0624
 7340SOL     OW27855   2.326  10.440   4.042  0.3238  0.0302 -0.1747
 7340SOL    HW127856   2.268  10.364   4.040 -1.1351  1.1065 -1.4745
 7340SOL    HW227857   2.287  10.498   4.109  1.8834 -0.6617  1.3916
 7341SOL     OW27858   3.193   7.517   9.101  0.7459  0.5485  0.4001
 7341SOL    HW127859   3.153   7.598   9.131 -0.8028  0.1745 -0.5578
 7341SOL    HW227860   3.257   7.544   9.035 -0.6299  0.9704 -0.8251
 7342SOL     OW27861   1.239   2.883   9.737  0.0751 -0.0167 -0.0066
 7342SOL    HW127862   1.227   2.788   9.730 -0.9669  0.1077 -0.1105
 7342SOL    HW227863   1.235   2.900   9.831  1.5150 -0.2036  0.1161
 7343SOL     OW27864   2.919   8.657   7.654  0.2663 -0.3736  0.1974
 7343SOL    HW127865   2.951   8.646   7.565  0.1542  0.7083  0.0118
 7343SOL    HW227866   2.959   8.585   7.703  0.5055 -0.8423 -0.6730
 7344SOL     OW27867   2.175   7.725  10.098 -0.1355  0.1910  0.0244
 7344SOL    HW127868   2.155   7.757  10.010  2.0022  0.3677 -0.4487
 7344SOL    HW227869   2.113   7.653  10.112 -1.0033  0.6472 -1.3191
 7345SOL     OW27870   5.474   6.696   4.070  0.4692  0.3674 -0.2377
 7345SOL    HW127871   5.565   6.683   4.096  0.5179  0.2288 -0.4725
 7345SOL    HW227872   5.477   6.697   3.974  0.1209 -0.3697 -0.2591
 7346SOL     OW27873   1.035   1.384   2.586 -0.1530  0.2920  0.4309
 7346SOL    HW127874   1.120   1.346   2.564  0.1082 -0.3026  2.3185
 7346SOL    HW227875   1.030   1.463   2.532  1.6667  0.4346  0.4026
 7347SOL     OW27876   1.929   6.409  10.280  1.1472 -0.1253  0.1996
 7347SOL    HW127877   1.919   6.416  10.375 -0.3624  1.8899 -0.0456
 7347SOL    HW227878   1.911   6.317  10.261 -1.1678 -0.0429  1.6387
 7348SOL     OW27879   4.264   1.960   5.549 -0.4274  0.1894 -0.3842
 7348SOL    HW127880   4.341   2.017   5.546  1.2189 -1.9050 -0.0258
 7348SOL    HW227881   4.291   1.885   5.602 -2.0541 -1.5549 -1.8542
 7349SOL     OW27882   7.713   7.807   7.412  1.0917  0.1798 -0.7444
 7349SOL    HW127883   7.687   7.720   7.383 -1.4684 -0.5504  2.8997
 7349SOL    HW227884   7.780   7.791   7.479 -1.2752  0.5116  1.9461
 7350SOL     OW27885   0.643   5.358   4.667  0.7004  0.1033  0.5114
 7350SOL    HW127886   0.668   5.423   4.600 -2.2312  1.4386  0.5244
 7350SOL    HW227887   0.625   5.278   4.617 -0.4473  0.7909 -0.2420
 7351SOL     OW27888   4.231   9.128   1.512 -0.1036  0.0788 -0.4883
 7351SOL    HW127889   4.179   9.195   1.468 -2.0986 -1.6594 -0.9191
 7351SOL    HW227890   4.247   9.062   1.445  3.3043  0.7412 -0.5625
 7352SOL     OW27891   4.818   0.512   2.760 -0.3848 -0.2368 -0.1664
 7352SOL    HW127892   4.755   0.475   2.699 -0.3351  0.1430 -0.4522
 7352SOL    HW227893   4.769   0.524   2.841 -0.3516 -1.1007 -0.0083
 7353SOL     OW27894  10.440   4.070   0.852 -0.1852 -0.3637 -0.3704
 7353SOL    HW127895  10.467   4.130   0.921  0.5210 -0.0225 -0.9308
 7353SOL    HW227896  10.444   3.983   0.892  1.6091 -0.3177 -0.3618
 7354SOL     OW27897   5.854   0.560   2.169 -0.5492  0.4933  0.2873
 7354SOL    HW127898   5.790   0.628   2.189 -0.2159  0.9828 -0.2621
 7354SOL    HW227899   5.804   0.494   2.120 -0.3963  1.4735 -1.2711
 7355SOL     OW27900   1.610   4.343   2.818  0.3883  0.4122 -0.4930
 7355SOL    HW127901   1.661   4.315   2.893 -0.1529  1.8954  0.4803
 7355SOL    HW227902   1.673   4.347   2.746  1.2924  0.6604  0.2910
 7356SOL     OW27903   5.966   8.429  10.173  0.1949  0.2127  0.2753
 7356SOL    HW127904   6.036   8.364  10.160 -0.3120 -0.7314  2.0109
 7356SOL    HW227905   6.005   8.512  10.143  1.9275 -0.3623  0.8214
 7357SOL     OW27906   4.789   7.414   4.599  0.1940  0.3218  0.0230
 7357SOL    HW127907   4.712   7.466   4.576  0.0119  0.0374 -0.0063
 7357SOL    HW227908   4.766   7.324   4.576  0.6763  0.2864 -0.3446
 7358SOL     OW27909   4.584   8.795   4.475 -0.0597 -0.4968 -0.7051
 7358SOL    HW127910   4.562   8.703   4.490 -1.1350 -0.2794 -0.8722
 7358SOL    HW227911   4.539   8.817   4.393 -0.8710  0.5133 -0.0132
 7359SOL     OW27912   0.100   1.741   9.557  0.4185  0.7066 -0.1499
 7359SOL    HW127913   0.086   1.700   9.642  0.2247  1.6761  0.2940
 7359SOL    HW227914   0.162   1.683   9.512  2.4253  1.3978  1.5604
 7360SOL     OW27915   7.131   5.090  10.561  0.0611 -0.1955  0.3361
 7360SOL    HW127916   7.085   5.158  10.610  0.6920 -0.0141  0.6916
 7360SOL    HW227917   7.061   5.037  10.521 -0.4866 -0.6774  1.8769
 7361SOL     OW27918   9.615   3.059  10.162  0.0416  0.0725  0.4765
 7361SOL    HW127919   9.619   2.963  10.163  1.9888  0.0898 -0.2275
 7361SOL    HW227920   9.543   3.081  10.221 -0.8871 -1.8269  0.1477
 7362SOL     OW27921   6.462   6.894   8.404  0.2118 -0.1359 -0.4524
 7362SOL    HW127922   6.380   6.926   8.442 -0.5973 -0.2957 -1.9869
 7362SOL    HW227923   6.527   6.961   8.426 -0.6466  0.7192 -0.4648
 7363SOL     OW27924   7.303   4.068   1.117  0.5271  1.0975 -0.0601
 7363SOL    HW127925   7.380   4.022   1.150  0.3260  0.4941 -0.4136
 7363SOL    HW227926   7.319   4.078   1.023  0.0756  0.7659 -0.1770
 7364SOL     OW27927   3.501   1.113   1.898 -0.5071 -0.3352  0.2623
 7364SOL    HW127928   3.577   1.118   1.957 -0.5610 -1.6188  0.4681
 7364SOL    HW227929   3.538   1.112   1.810 -0.3244 -0.2838  0.3385
 7365SOL     OW27930   9.786   4.138   2.419 -0.1600 -0.0811  0.0807
 7365SOL    HW127931   9.716   4.191   2.458  1.3489  1.9177  0.2465
 7365SOL    HW227932   9.748   4.104   2.338 -1.4145  0.6981  0.3171
 7366SOL     OW27933   2.739   3.246   1.375 -0.2767  0.0303 -0.7253
 7366SOL    HW127934   2.801   3.225   1.305  0.1664 -1.0427 -0.0463
 7366SOL    HW227935   2.673   3.176   1.370 -0.2205 -0.0784 -0.0698
 7367SOL     OW27936   7.417   4.710  10.131  0.1623 -0.2681  0.4612
 7367SOL    HW127937   7.413   4.804  10.145  2.5936  0.0070 -0.2086
 7367SOL    HW227938   7.454   4.675  10.212  0.5284 -0.4729  0.2082
 7368SOL     OW27939   8.128   4.282   6.457 -0.7981 -0.2065 -0.2295
 7368SOL    HW127940   8.092   4.256   6.372 -0.3021 -2.0595  0.0851
 7368SOL    HW227941   8.060   4.259   6.520 -0.6370 -0.0651 -0.0023
 7369SOL     OW27942   9.570  10.264   0.059  0.3276 -0.0206  0.6856
 7369SOL    HW127943   9.560  10.296  -0.031  0.1600 -0.7823  0.4285
 7369SOL    HW227944   9.485  10.224   0.080  1.1674 -2.1874  0.2360
 7370SOL     OW27945  10.173   9.481   1.246 -0.2078 -0.1127 -0.2040
 7370SOL    HW127946  10.221   9.426   1.184  2.3480 -0.5567  1.9999
 7370SOL    HW227947  10.158   9.563   1.198  1.2274 -0.6049 -1.6061
 7371SOL     OW27948   1.733   0.497   0.258  0.1756  0.0186 -0.0088
 7371SOL    HW127949   1.797   0.560   0.292 -0.3809  0.5714  0.0260
 7371SOL    HW227950   1.777   0.458   0.182 -0.8309  3.2215 -2.4827
 7372SOL     OW27951  10.615   6.168   6.566 -0.0674 -0.1302  0.3011
 7372SOL    HW127952  10.696   6.218   6.558 -0.2860  0.5531  1.9312
 7372SOL    HW227953  10.548   6.235   6.585 -1.1767 -0.5913 -1.6900
 7373SOL     OW27954   6.641   5.559   2.283  0.0613  0.3534  0.1235
 7373SOL    HW127955   6.578   5.630   2.288  0.7090  0.8632  1.6117
 7373SOL    HW227956   6.645   5.524   2.372  2.8336  1.2376  0.4360
 7374SOL     OW27957   0.338   8.008   8.183  0.5521  0.3554  0.5262
 7374SOL    HW127958   0.394   7.930   8.189  0.0284 -0.2467 -1.6129
 7374SOL    HW227959   0.250   7.976   8.199  0.1606  0.1887 -1.6755
 7375SOL     OW27960   6.994   8.174   9.159  0.2555  0.3173 -0.6778
 7375SOL    HW127961   7.049   8.128   9.095 -0.5182 -1.1413 -0.3440
 7375SOL    HW227962   7.055   8.226   9.210  1.3870 -1.3760 -0.2148
 7376SOL     OW27963   2.999   6.731  10.818 -0.0313  0.6884 -0.1084
 7376SOL    HW127964   3.086   6.772  10.819  0.8718 -1.0982 -0.7416
 7376SOL    HW227965   2.948   6.781  10.881  1.9137  0.8451  1.4174
 7377SOL     OW27966   0.468   5.574   5.587 -0.0384 -0.1443  0.2211
 7377SOL    HW127967   0.514   5.632   5.648 -0.1581  0.0316  0.1450
 7377SOL    HW227968   0.383   5.558   5.629  0.6074 -1.6128  1.0525
 7378SOL     OW27969   6.627   7.795   8.736  0.5590 -0.4737 -0.3206
 7378SOL    HW127970   6.634   7.823   8.828 -1.0309  0.1509 -0.3474
 7378SOL    HW227971   6.625   7.700   8.740 -0.6757 -0.4431  0.4384
 7379SOL     OW27972   5.409   5.700   1.204 -0.1301  0.3361 -0.0532
 7379SOL    HW127973   5.336   5.751   1.170  0.0565  0.3708 -0.4027
 7379SOL    HW227974   5.455   5.668   1.127 -0.8138 -1.2023  0.1431
 7380SOL     OW27975   6.740   8.323   7.767  0.4172 -0.1822  0.2276
 7380SOL    HW127976   6.678   8.386   7.729  1.4732  0.5017 -0.4351
 7380SOL    HW227977   6.688   8.245   7.784 -0.8929  0.7897  0.8677
 7381SOL     OW27978   3.873   5.460   8.424 -0.0309 -0.2662 -0.3762
 7381SOL    HW127979   3.800   5.481   8.366 -1.0545 -1.7342  0.3193
 7381SOL    HW227980   3.943   5.432   8.366 -0.1692  0.7005 -1.0308
 7382SOL     OW27981  10.295   7.405   7.395  0.1709  0.1113 -0.0062
 7382SOL    HW127982  10.338   7.420   7.479 -0.7591  2.5499  0.1115
 7382SOL    HW227983  10.207   7.376   7.418  0.3386 -0.5490 -0.1782
 7383SOL     OW27984   3.232   5.517   0.438  0.1297  0.0248  0.4578
 7383SOL    HW127985   3.239   5.473   0.354  1.7495 -0.4821  0.8275
 7383SOL    HW227986   3.192   5.453   0.496  2.7442 -1.1884  1.0699
 7384SOL     OW27987   3.037   8.739   5.026  0.3690  0.3063  0.0379
 7384SOL    HW127988   3.013   8.821   5.068  0.0624  0.6276 -0.7515
 7384SOL    HW227989   2.977   8.674   5.064 -0.4563  0.7443 -0.4822
 7385SOL     OW27990  10.007   3.897   4.497 -0.3287 -0.3487  0.0373
 7385SOL    HW127991   9.989   3.804   4.480 -0.2685 -0.8590  2.4033
 7385SOL    HW227992  10.026   3.901   4.591 -0.5029  2.0998  0.0357
 7386SOL     OW27993   7.390   7.147   2.412 -0.0219  0.0453  0.0921
 7386SOL    HW127994   7.344   7.168   2.330 -2.2947  1.9712  1.7099
 7386SOL    HW227995   7.321   7.114   2.470  1.2734 -0.0173  1.6556
 7387SOL     OW27996   5.989   1.329   7.524  0.2501 -0.1127  0.1421
 7387SOL    HW127997   6.051   1.263   7.555 -0.2041 -0.8076 -0.4014
 7387SOL    HW227998   5.925   1.280   7.473 -2.0172  0.2239  2.4329
 7388SOL     OW27999   6.773   8.305   5.965  0.3739 -0.5618 -0.0287
 7388SOL    HW128000   6.753   8.265   5.880 -0.1373 -0.4137  0.0185
 7388SOL    HW228001   6.837   8.246   6.005 -0.2205 -1.2319 -0.0402
 7389SOL     OW28002   6.258   1.569   8.099 -0.3643 -0.2586 -0.5995
 7389SOL    HW128003   6.206   1.611   8.031  0.3790 -1.2206 -1.8159
 7389SOL    HW228004   6.222   1.602   8.181 -0.5132  1.8611 -1.4639
 7390SOL     OW28005   1.148   3.162   8.115 -0.4527  0.9508 -0.6089
 7390SOL    HW128006   1.226   3.214   8.095  0.0700  1.3202  1.9641
 7390SOL    HW228007   1.074   3.221   8.097 -0.0645  1.2488 -1.2799
 7391SOL     OW28008   6.815   7.084   2.074  0.5905 -0.1830  0.0764
 7391SOL    HW128009   6.893   7.085   2.128 -0.4311 -0.0410  1.6124
 7391SOL    HW228010   6.848   7.081   1.984  2.3255 -1.4994  0.7114
 7392SOL     OW28011   1.712   2.655   6.468  1.1828 -0.6971  0.0454
 7392SOL    HW128012   1.703   2.638   6.374  1.6975 -1.5439  0.1333
 7392SOL    HW228013   1.678   2.743   6.481  0.5879 -0.7874 -0.8502
 7393SOL     OW28014   3.849   6.477   7.032 -0.5311  0.1682 -0.5699
 7393SOL    HW128015   3.919   6.529   6.992 -0.1219  1.1141  1.2302
 7393SOL    HW228016   3.770   6.502   6.984 -0.1506  1.6290 -0.4950
 7394SOL     OW28017   6.873   7.754   8.212 -0.1444 -0.3076  0.2202
 7394SOL    HW128018   6.923   7.771   8.291 -0.6235 -0.0509  0.4727
 7394SOL    HW228019   6.782   7.757   8.240 -0.3085 -0.5504 -0.2751
 7395SOL     OW28020   2.042   2.965   6.353  0.1593  0.5137 -0.0642
 7395SOL    HW128021   2.000   3.022   6.417  0.0773 -0.4709  0.7935
 7395SOL    HW228022   2.096   2.906   6.406 -1.6679 -1.8439 -0.6586
 7396SOL     OW28023   8.517   7.149   8.015  0.5580  0.5110 -0.6988
 7396SOL    HW128024   8.436   7.153   8.065  0.5263 -1.7767 -0.4430
 7396SOL    HW228025   8.577   7.206   8.063 -0.4543  1.0342 -0.0194
 7397SOL     OW28026   2.802   3.828  10.322 -0.2518 -0.3643  0.0505
 7397SOL    HW128027   2.747   3.840  10.399 -0.3544 -1.4576  0.1517
 7397SOL    HW228028   2.741   3.816  10.250 -0.1475 -0.0107 -0.1041
 7398SOL     OW28029   3.818   0.455   5.147  0.5733  0.0450  0.1425
 7398SOL    HW128030   3.904   0.418   5.124  1.1086  0.3890  1.4996
 7398SOL    HW228031   3.799   0.420   5.234 -0.4988  0.2784  0.0160
 7399SOL     OW28032   5.888   2.789   9.379  0.2372  0.0161 -0.0915
 7399SOL    HW128033   5.867   2.854   9.446 -1.0816  1.0395 -1.4266
 7399SOL    HW228034   5.839   2.711   9.405  0.6581  0.0277  0.7435
 7400SOL     OW28035   3.170   1.246   1.286 -0.0407 -0.3152 -0.0695
 7400SOL    HW128036   3.138   1.301   1.214 -0.0477 -1.5385 -1.0458
 7400SOL    HW228037   3.156   1.298   1.365 -0.1237  1.0350 -0.9421
 7401SOL     OW28038   8.855   2.954  10.770 -0.2552  0.0977 -0.1669
 7401SOL    HW128039   8.762   2.935  10.763 -0.1059 -0.9013  0.2427
 7401SOL    HW228040   8.883   2.974  10.681 -0.7436 -0.2021 -0.3907
 7402SOL     OW28041   8.615   9.581   9.708  0.2463  0.0940 -0.3095
 7402SOL    HW128042   8.519   9.574   9.705  0.1700  0.4099  0.9134
 7402SOL    HW228043   8.641   9.523   9.779  0.9802 -0.0966 -0.7293
 7403SOL     OW28044   6.219   9.986   1.916  0.1627  0.1145 -0.5196
 7403SOL    HW128045   6.260   9.979   1.829 -0.7762 -2.8457 -0.8357
 7403SOL    HW228046   6.139  10.037   1.901  1.7460  2.7928 -0.5785
 7404SOL     OW28047   8.575   7.919   6.380  0.2269  0.3982 -0.2387
 7404SOL    HW128048   8.498   7.895   6.329  0.7192  0.9511 -1.2715
 7404SOL    HW228049   8.542   7.935   6.468 -0.6015 -0.8007 -0.3114
 7405SOL     OW28050   9.217   1.401   4.678  0.4367  0.6029  0.1103
 7405SOL    HW128051   9.206   1.473   4.616  1.3795  0.5022 -0.1965
 7405SOL    HW228052   9.308   1.409   4.708  0.2334  0.1721  0.8752
 7406SOL     OW28053   8.779   1.671   3.022 -0.1542  0.2347 -0.2857
 7406SOL    HW128054   8.759   1.753   2.977  0.5133  0.6636  0.1857
 7406SOL    HW228055   8.812   1.614   2.953 -1.6600 -0.0199 -0.8176
 7407SOL     OW28056   9.749  10.744   1.777  0.0585  0.2918  0.5567
 7407SOL    HW128057   9.814  10.811   1.758  0.2484  0.6158  2.2119
 7407SOL    HW228058   9.713  10.720   1.691  1.8917  0.5505 -0.3280
 7408SOL     OW28059   7.280   9.989   2.339 -0.6213  0.2056 -0.1732
 7408SOL    HW128060   7.319  10.070   2.304  2.2172 -0.7045  0.6406
 7408SOL    HW228061   7.336   9.919   2.306  0.4597 -0.9489  3.6136
 7409SOL     OW28062   0.934  10.277   9.644  0.1708  0.1108  0.0002
 7409SOL    HW128063   0.983  10.195   9.651  1.4680  0.6967 -1.5393
 7409SOL    HW228064   0.899  10.276   9.555 -0.5947  0.8146  0.2815
 7410SOL     OW28065   2.522   1.884   4.498 -0.0726 -0.1942 -0.0343
 7410SOL    HW128066   2.470   1.915   4.572  0.6826 -1.1690  0.9471
 7410SOL    HW228067   2.560   1.964   4.460  1.3006  0.2079  2.0165
 7411SOL     OW28068   8.742   9.935   8.021  0.6429  0.1124 -0.4994
 7411SOL    HW128069   8.808   9.937   7.953  0.9241  0.3605 -0.2255
 7411SOL    HW228070   8.658   9.935   7.974  0.8351 -0.2133 -0.8453
 7412SOL     OW28071  10.243   4.180   2.246 -0.5270  0.0996  0.1370
 7412SOL    HW128072  10.208   4.095   2.220  1.5695 -1.3013  1.6041
 7412SOL    HW228073  10.304   4.160   2.317  1.2965  2.6564 -0.5819
 7413SOL     OW28074   2.789   9.483   5.193 -0.2788 -0.2594 -0.0670
 7413SOL    HW128075   2.862   9.537   5.222 -0.7842 -0.6789  2.1480
 7413SOL    HW228076   2.825   9.428   5.124  0.7839  1.3673 -0.8718
 7414SOL     OW28077   7.094   6.440   0.754  0.2464 -0.1150 -0.7304
 7414SOL    HW128078   7.046   6.373   0.704 -1.3874 -0.5615  1.2924
 7414SOL    HW228079   7.186   6.413   0.748 -0.0617 -0.9317 -2.2845
 7415SOL     OW28080   5.627   0.786   9.792  0.2675 -0.9112  0.0024
 7415SOL    HW128081   5.708   0.776   9.843 -0.0195  0.7153  0.8489
 7415SOL    HW228082   5.559   0.750   9.848  0.1403 -0.3970  0.1856
 7416SOL     OW28083   0.580   2.481   9.969 -0.1372  0.3994  0.1724
 7416SOL    HW128084   0.535   2.421   9.909  0.4924 -0.2406  0.3335
 7416SOL    HW228085   0.559   2.447  10.056  1.4423 -0.4973  0.2302
 7417SOL     OW28086   4.424   3.729   4.127  0.3499 -0.1276 -0.3420
 7417SOL    HW128087   4.441   3.805   4.184 -0.7833  0.3896 -0.6628
 7417SOL    HW228088   4.489   3.736   4.058 -1.0991  1.8610 -1.6082
 7418SOL     OW28089   9.319   0.366   5.407  0.2387 -0.4214  0.1316
 7418SOL    HW128090   9.314   0.303   5.478 -1.6156 -0.9253 -0.3882
 7418SOL    HW228091   9.241   0.349   5.354  0.5609  1.2073 -0.9500
 7419SOL     OW28092   7.535   2.690   7.834 -0.0761  0.6336 -0.2402
 7419SOL    HW128093   7.440   2.696   7.842 -0.2143 -1.3175  0.0015
 7419SOL    HW228094   7.554   2.719   7.745 -1.1524 -0.9799 -1.0338
 7420SOL     OW28095   1.563   6.140   4.066  0.6980 -0.1160  0.0907
 7420SOL    HW128096   1.616   6.183   3.999  1.4929  0.6031  1.1489
 7420SOL    HW228097   1.476   6.179   4.057  0.9371  0.3596 -0.1624
 7421SOL     OW28098   6.644   0.895   4.096 -0.3267  1.0244  0.1992
 7421SOL    HW128099   6.564   0.935   4.131 -1.0402  0.0810 -0.3102
 7421SOL    HW228100   6.689   0.862   4.174 -0.9417  0.6620  0.4113
 7422SOL     OW28101   4.904   7.262   6.323 -0.3299 -0.2474 -0.4920
 7422SOL    HW128102   4.982   7.313   6.346 -2.0865  1.4641  2.1563
 7422SOL    HW228103   4.939   7.186   6.277  2.8859  0.5192  0.3980
 7423SOL     OW28104   7.447   6.534   1.466  0.2693  0.2127  0.0319
 7423SOL    HW128105   7.370   6.561   1.416 -1.0928  0.2887  2.0548
 7423SOL    HW228106   7.504   6.611   1.466 -1.3026  1.4643  1.4899
 7424SOL     OW28107   3.481   5.727   2.371  0.1400 -0.3341  0.5608
 7424SOL    HW128108   3.524   5.666   2.310  0.8024 -2.0054  2.5958
 7424SOL    HW228109   3.396   5.688   2.389  0.4397 -0.5322  1.6338
 7425SOL     OW28110   9.533   5.669   9.369 -0.2132 -0.5029 -0.4295
 7425SOL    HW128111   9.608   5.704   9.322 -0.5740 -0.3890 -0.9208
 7425SOL    HW228112   9.563   5.584   9.402  0.3838 -0.1203  0.0509
 7426SOL     OW28113  10.219   2.735   7.858 -0.4633  0.2273  0.0200
 7426SOL    HW128114  10.213   2.651   7.813  0.0533  0.1578  0.0741
 7426SOL    HW228115  10.229   2.800   7.788 -0.1361  0.1677  0.0102
 7427SOL     OW28116   9.037   3.749   8.253  0.0122 -0.4519 -0.3084
 7427SOL    HW128117   9.031   3.677   8.315 -1.1546  0.4036  0.6280
 7427SOL    HW228118   9.017   3.827   8.305  0.9849  0.5294 -1.3405
 7428SOL     OW28119   2.573   4.821   3.505 -0.2819  0.0592  0.3063
 7428SOL    HW128120   2.668   4.832   3.504 -0.4179  1.4615  0.2437
 7428SOL    HW228121   2.544   4.869   3.582 -0.9871  0.1168  0.0141
 7429SOL     OW28122  10.351   2.701   3.576 -0.5423 -0.2663 -0.5717
 7429SOL    HW128123  10.269   2.699   3.527 -0.9649 -0.5608  0.1459
 7429SOL    HW228124  10.408   2.638   3.531 -0.4929  0.3676 -1.4273
 7430SOL     OW28125   8.009   2.369   5.145 -0.2629 -0.2114  0.2918
 7430SOL    HW128126   7.997   2.449   5.195  0.6824 -1.0742  1.9796
 7430SOL    HW228127   8.037   2.398   5.058 -0.1354  1.2760  0.8150
 7431SOL     OW28128   6.637   1.314  10.758  0.2297  0.7145  0.0362
 7431SOL    HW128129   6.612   1.350  10.843  1.0495 -1.4794  1.3074
 7431SOL    HW228130   6.574   1.243  10.743  0.2492  0.9214 -1.0633
 7432SOL     OW28131   2.977   5.405   1.417 -0.0428  0.2516 -0.7626
 7432SOL    HW128132   2.904   5.345   1.436 -0.7360  1.0914 -0.7283
 7432SOL    HW228133   3.009   5.375   1.331 -0.0018 -0.5318 -0.4836
 7433SOL     OW28134  10.123   9.856   6.207 -0.4543  0.2169 -0.7331
 7433SOL    HW128135  10.206   9.839   6.161  0.9056  1.8470  0.9807
 7433SOL    HW228136  10.116   9.785   6.271 -0.4789 -0.0044 -0.9775
 7434SOL     OW28137   7.287   2.508   1.485 -0.3485 -0.4530 -0.0282
 7434SOL    HW128138   7.306   2.579   1.547  2.1787 -1.1726  0.1322
 7434SOL    HW228139   7.239   2.551   1.414  0.1542  1.1920  0.5740
 7435SOL     OW28140   3.735   3.248   6.732  0.9888 -0.2140 -0.4555
 7435SOL    HW128141   3.668   3.182   6.715  1.0798 -0.5962  0.6007
 7435SOL    HW228142   3.721   3.314   6.664 -1.1906  0.2782  0.4056
 7436SOL     OW28143   8.929   0.978   3.392 -0.2071  0.1271 -0.1467
 7436SOL    HW128144   8.938   1.059   3.442  0.9498  0.3006 -0.6148
 7436SOL    HW228145   8.857   0.931   3.435  0.0273  0.7651  0.9716
 7437SOL     OW28146   2.293   8.354  10.417 -0.0077 -0.6396  0.4979
 7437SOL    HW128147   2.326   8.280  10.367  1.5634 -1.1254  2.1742
 7437SOL    HW228148   2.245   8.315  10.490  0.0342  0.0012  0.8776
 7438SOL     OW28149   9.308   1.044   4.988 -0.7298  0.7372 -0.5617
 7438SOL    HW128150   9.332   1.037   4.896 -1.9138  1.2680 -0.9279
 7438SOL    HW228151   9.391   1.048   5.035 -0.1027  2.4194 -1.7575
 7439SOL     OW28152   6.437   6.078   8.859  0.0505  0.3264 -0.2039
 7439SOL    HW128153   6.343   6.084   8.839  0.2611 -0.2048 -1.4777
 7439SOL    HW228154   6.467   6.168   8.861  0.0257  0.4681 -2.6185
 7440SOL     OW28155   0.503   4.288   7.765  0.1080  0.0451  0.7338
 7440SOL    HW128156   0.444   4.246   7.702  0.2669 -0.8013  1.1441
 7440SOL    HW228157   0.577   4.318   7.711  1.1634 -2.3509  0.7279
 7441SOL     OW28158   0.850   8.139   7.632  0.1568 -0.5575 -0.1609
 7441SOL    HW128159   0.787   8.111   7.699  1.9522 -3.5946  0.4676
 7441SOL    HW228160   0.936   8.128   7.674  1.2319  1.7040 -1.5729
 7442SOL     OW28161   8.389   0.760   6.081 -0.0580  0.2173 -0.7272
 7442SOL    HW128162   8.315   0.818   6.061 -0.7388 -0.2646  0.3242
 7442SOL    HW228163   8.388   0.694   6.012 -1.3727 -0.4845 -0.0666
 7443SOL     OW28164   3.518   9.921   2.019 -0.1386  0.3744 -0.5951
 7443SOL    HW128165   3.508   9.977   2.095  2.6298  0.2793 -0.0835
 7443SOL    HW228166   3.553   9.978   1.951 -1.4703  0.1925 -1.4744
 7444SOL     OW28167   9.839   4.132   4.519  0.3843  0.7413  1.1278
 7444SOL    HW128168   9.883   4.047   4.520  0.7224  0.8862  0.0526
 7444SOL    HW228169   9.755   4.115   4.477  1.1484  1.2128 -0.7332
 7445SOL     OW28170   5.814   0.276   0.142  0.1826  0.2698  0.0266
 7445SOL    HW128171   5.892   0.232   0.110 -0.8313 -0.9594 -0.8337
 7445SOL    HW228172   5.836   0.370   0.137  1.7816 -0.0674  0.3457
 7446SOL     OW28173   1.010   2.796   6.412 -0.5088 -0.2154 -0.0495
 7446SOL    HW128174   0.931   2.831   6.370  1.2358  2.2749 -1.5274
 7446SOL    HW228175   1.045   2.870   6.462  1.3953 -0.9685 -0.2097
 7447SOL     OW28176   5.572   8.367  10.057 -0.4995 -0.1809 -0.5225
 7447SOL    HW128177   5.632   8.347  10.129  0.4574  0.6009 -1.0754
 7447SOL    HW228178   5.615   8.333   9.979 -1.3876 -0.7519 -0.7791
 7448SOL     OW28179   0.021   3.814   7.569 -0.4806 -0.5722  0.0519
 7448SOL    HW128180   0.085   3.819   7.639  3.9607  2.8631 -3.6010
 7448SOL    HW228181   0.029   3.725   7.535  0.2179 -1.0586  1.4326
 7449SOL     OW28182   8.010   5.522   6.350  0.0345  0.0281  0.0310
 7449SOL    HW128183   7.925   5.496   6.385 -0.1880 -1.2040 -1.3636
 7449SOL    HW228184   8.071   5.505   6.422 -1.0839  2.8388  1.7901
 7450SOL     OW28185   4.469   9.327   8.101 -0.4550  0.3481 -0.4236
 7450SOL    HW128186   4.530   9.275   8.049  0.0473  0.4253  0.0689
 7450SOL    HW228187   4.384   9.284   8.088 -0.2616  0.1144 -0.9559
 7451SOL     OW28188   7.909   1.853   5.676  0.6595 -0.2668  0.2253
 7451SOL    HW128189   7.898   1.888   5.588  2.1606 -0.5360 -0.0997
 7451SOL    HW228190   7.952   1.768   5.663 -0.7292 -1.1516  1.1272
 7452SOL     OW28191   7.541  10.339   7.312  0.3596  0.0358  0.1179
 7452SOL    HW128192   7.551  10.246   7.294  0.6739  0.0330  0.2920
 7452SOL    HW228193   7.549  10.346   7.407  0.4888  0.2591  0.0909
 7453SOL     OW28194   9.630   9.012  10.052  0.5913  0.2091  0.0392
 7453SOL    HW128195   9.671   9.011   9.966 -0.6809 -1.0537 -0.5986
 7453SOL    HW228196   9.587   9.098  10.058 -1.2451 -0.5333 -1.5865
 7454SOL     OW28197   2.026   2.625   8.438  0.0008 -0.3296  0.0631
 7454SOL    HW128198   1.996   2.600   8.350  0.4595 -0.2515 -0.1168
 7454SOL    HW228199   1.968   2.577   8.497 -1.2650  0.7137 -0.2606
 7455SOL     OW28200   6.602  10.220   8.117  0.3753 -0.2571  0.0408
 7455SOL    HW128201   6.600  10.126   8.099 -1.6807 -0.1670 -0.4425
 7455SOL    HW228202   6.527  10.255   8.069 -1.1035  1.0585  3.0323
 7456SOL     OW28203   4.141   3.205   0.270 -0.5943 -0.0721  0.0896
 7456SOL    HW128204   4.085   3.190   0.346 -2.3611 -1.8894 -1.4372
 7456SOL    HW228205   4.228   3.176   0.298 -1.0645 -0.0927  1.5927
 7457SOL     OW28206   6.303   1.943   6.171 -0.8629 -0.2010 -0.0324
 7457SOL    HW128207   6.331   1.963   6.261 -2.7258  0.2489  0.4983
 7457SOL    HW228208   6.258   2.022   6.142  0.4168 -0.0408 -1.6997
 7458SOL     OW28209   4.009   7.128   3.539  0.0047 -0.0990 -0.0218
 7458SOL    HW128210   3.975   7.055   3.486 -1.0257  0.8860 -0.7678
 7458SOL    HW228211   3.936   7.151   3.597 -0.3397  1.4299 -0.9898
 7459SOL     OW28212   9.015   6.191   2.952  1.0450  0.0574 -0.0608
 7459SOL    HW128213   9.030   6.243   2.873  2.0669  0.2025  0.2220
 7459SOL    HW228214   9.016   6.100   2.921  0.0967  0.1486 -0.4152
 7460SOL     OW28215   0.524   7.538   7.652  0.2032  0.6602 -0.1535
 7460SOL    HW128216   0.606   7.565   7.694  0.3021  1.6680 -0.9522
 7460SOL    HW228217   0.457   7.553   7.719  0.3675  2.1784 -0.2802
 7461SOL     OW28218   6.625   4.914   1.320 -0.5093 -0.0583 -0.4625
 7461SOL    HW128219   6.683   4.882   1.389 -0.2551  0.4207 -0.4526
 7461SOL    HW228220   6.559   4.845   1.311 -1.4267  0.5413  1.2827
 7462SOL     OW28221   0.738   9.869   4.254 -0.0919  0.4609 -0.2646
 7462SOL    HW128222   0.650   9.860   4.217 -1.1513  1.4867  1.8537
 7462SOL    HW228223   0.770   9.953   4.219 -0.2848  0.4939 -0.3620
 7463SOL     OW28224   4.244   3.624   7.318 -0.0013  0.0656 -0.3280
 7463SOL    HW128225   4.205   3.709   7.296  2.4780  0.8871 -1.9581
 7463SOL    HW228226   4.310   3.644   7.384  1.2790 -0.3833 -1.4304
 7464SOL     OW28227   5.526  10.488  10.806 -0.3228 -0.0986  0.3722
 7464SOL    HW128228   5.476  10.569  10.794 -2.4067 -1.2053  1.0212
 7464SOL    HW228229   5.495  10.452  10.889  0.9627 -1.3019  0.3732
 7465SOL     OW28230   1.256   9.993   9.605  0.1782 -0.5991 -0.4250
 7465SOL    HW128231   1.319  10.024   9.670  0.6668  1.3342 -1.7395
 7465SOL    HW228232   1.171  10.010   9.645  0.4619  1.2847 -0.5304
 7466SOL     OW28233   3.567   6.046   9.344  0.0255 -0.0991 -0.1360
 7466SOL    HW128234   3.531   5.959   9.329 -0.5766  0.1331 -0.0847
 7466SOL    HW228235   3.490   6.103   9.346  0.3499  0.3289  0.5802
 7467SOL     OW28236   6.243   8.310   4.584 -0.0491 -0.4270  0.3201
 7467SOL    HW128237   6.191   8.234   4.612  0.6068 -0.4218  1.6049
 7467SOL    HW228238   6.190   8.350   4.515 -2.0648 -0.1151  1.9191
 7468SOL     OW28239   9.638   6.485   4.789 -0.1591  0.0946  0.1792
 7468SOL    HW128240   9.630   6.425   4.715  1.0828  2.2642 -1.8296
 7468SOL    HW228241   9.731   6.510   4.790 -0.7101  2.3182  0.6284
 7469SOL     OW28242   6.391   2.663   4.580  0.1892 -0.3372 -0.4021
 7469SOL    HW128243   6.347   2.742   4.547  0.7774  0.0401 -0.3044
 7469SOL    HW228244   6.319   2.607   4.611 -0.1720  0.7813  0.8963
 7470SOL     OW28245   1.594   1.620   5.587  0.6615 -0.0078 -0.6368
 7470SOL    HW128246   1.683   1.627   5.553 -0.1311  2.0161 -2.6028
 7470SOL    HW228247   1.573   1.709   5.617 -0.6345 -0.4836 -0.0463
 7471SOL     OW28248  10.085   5.275   2.351 -0.1042 -0.4596  0.1218
 7471SOL    HW128249  10.071   5.194   2.399  1.6111 -1.9351 -1.6618
 7471SOL    HW228250  10.003   5.290   2.304 -0.5502 -0.9681  0.7250
 7472SOL     OW28251   0.931   3.228   1.448 -0.1916 -0.1851 -0.3620
 7472SOL    HW128252   0.895   3.157   1.502 -1.8023  0.7755 -0.0861
 7472SOL    HW228253   0.975   3.184   1.376  1.5194 -1.4997  1.3770
 7473SOL     OW28254   4.653   7.191   0.098  0.4327 -0.5282 -0.4514
 7473SOL    HW128255   4.607   7.179   0.015 -0.6973  0.2576  0.0397
 7473SOL    HW228256   4.684   7.104   0.121  1.4131 -0.6459 -2.0456
 7474SOL     OW28257   6.125   6.484   3.021 -0.5313 -0.1719 -0.8271
 7474SOL    HW128258   6.097   6.394   3.004  0.0556 -0.2732 -1.2657
 7474SOL    HW228259   6.178   6.508   2.946 -0.5776  0.5040 -0.6536
 7475SOL     OW28260   3.917   4.606   6.401 -0.2832  0.1796 -0.1355
 7475SOL    HW128261   3.894   4.575   6.489  0.5022  0.3859  0.1570
 7475SOL    HW228262   4.013   4.605   6.400 -0.2669  1.0843 -0.6657
 7476SOL     OW28263   4.725   4.045   4.945  0.7171 -0.1112  0.5293
 7476SOL    HW128264   4.751   3.953   4.954  0.1369 -0.4074 -0.5804
 7476SOL    HW228265   4.802   4.088   4.909  0.2631 -0.6501 -1.1674
 7477SOL     OW28266  10.925   2.125   1.144 -0.2108 -0.1885  0.1359
 7477SOL    HW128267  10.910   2.102   1.235  0.1362 -0.2887  0.1703
 7477SOL    HW228268  10.988   2.061   1.113 -1.4060 -1.0564 -0.5934
 7478SOL     OW28269   9.354   3.010   2.738  0.3401 -0.4815 -0.0214
 7478SOL    HW128270   9.272   3.021   2.689  0.2798 -1.4404 -0.1533
 7478SOL    HW228271   9.423   3.026   2.674  0.2643 -1.9978 -0.5292
 7479SOL     OW28272   4.961   6.162   8.272 -0.0553  0.7714 -0.2664
 7479SOL    HW128273   5.033   6.218   8.302 -0.6619  1.3516  0.1426
 7479SOL    HW228274   4.981   6.076   8.309  0.5532  0.8649 -0.3643
 7480SOL     OW28275   3.706   9.812   0.732 -0.2202  0.6417 -0.1639
 7480SOL    HW128276   3.694   9.721   0.757  1.6445 -0.2182 -2.0714
 7480SOL    HW228277   3.704   9.860   0.815 -0.4710 -1.2107  0.9630
 7481SOL     OW28278   9.636   8.563   0.524 -0.4162 -0.3919  0.1061
 7481SOL    HW128279   9.625   8.470   0.502  0.0603 -0.1078 -1.4056
 7481SOL    HW228280   9.623   8.609   0.441 -2.5864  1.0710  1.1669
 7482SOL     OW28281  10.599   6.113   6.233 -0.0599  0.5847 -0.4654
 7482SOL    HW128282  10.621   6.198   6.271 -0.6911  0.9221 -0.8309
 7482SOL    HW228283  10.504   6.111   6.233 -0.0442 -0.2667 -0.1627
 7483SOL     OW28284  10.007   2.992   8.813 -0.3756  0.6345 -0.3226
 7483SOL    HW128285   9.980   3.010   8.722  1.6743 -0.7535 -1.2781
 7483SOL    HW228286  10.059   2.912   8.807 -0.9452 -0.0122  2.2582
 7484SOL     OW28287   3.577   9.700   3.195 -0.4126 -0.0679  0.5424
 7484SOL    HW128288   3.635   9.670   3.265 -0.3406  0.1411  0.5753
 7484SOL    HW228289   3.489   9.675   3.223 -0.2120 -1.7956 -0.2400
 7485SOL     OW28290   5.428   4.891   8.363 -0.0338 -0.6058  0.0198
 7485SOL    HW128291   5.436   4.930   8.450 -1.5225  0.0783 -0.1360
 7485SOL    HW228292   5.479   4.950   8.306  0.5592 -0.8026  0.3301
 7486SOL     OW28293   9.070   6.024   7.351 -0.6415  0.0415  0.3887
 7486SOL    HW128294   9.103   5.967   7.420 -4.1488 -1.9683  0.6306
 7486SOL    HW228295   9.005   6.080   7.394 -1.4812  0.1016 -0.8994
 7487SOL     OW28296  10.657   3.073   1.446  0.2201 -0.5529 -1.0061
 7487SOL    HW128297  10.565   3.079   1.420  0.2288  0.3241 -0.8537
 7487SOL    HW228298  10.705   3.073   1.363  0.1824  1.0397 -1.0573
 7488SOL     OW28299   1.698   9.455   9.554 -0.7712  0.2323 -0.1239
 7488SOL    HW128300   1.732   9.545   9.559 -1.2764  0.4830 -1.0217
 7488SOL    HW228301   1.770   9.401   9.586  0.5745  0.7348 -2.1225
 7489SOL     OW28302   2.970   2.969   4.395 -0.2248  0.1123  0.2428
 7489SOL    HW128303   3.040   2.956   4.331 -1.2554  1.4764 -1.2388
 7489SOL    HW228304   2.980   3.061   4.422 -0.9244  0.0707  0.6559
 7490SOL     OW28305   0.843   6.486   3.310 -0.2561  0.2819  0.2121
 7490SOL    HW128306   0.868   6.407   3.359 -0.2357  0.1993  0.0707
 7490SOL    HW228307   0.785   6.533   3.369  0.1567  0.4274  0.5047
 7491SOL     OW28308   0.857   8.920   6.545  0.3313 -0.1079 -0.0581
 7491SOL    HW128309   0.889   9.009   6.556 -0.8001  0.2757  0.3090
 7491SOL    HW228310   0.896   8.890   6.463  0.7156  0.7266 -0.1924
 7492SOL     OW28311   3.935   4.022  10.850 -0.6213 -0.2509 -0.3471
 7492SOL    HW128312   3.937   4.099  10.906  0.1423 -0.1929 -0.4432
 7492SOL    HW228313   3.875   3.961  10.894 -0.1134 -0.1683  0.4757
 7493SOL     OW28314   4.214   8.814   2.096  0.6026  0.2188  0.4883
 7493SOL    HW128315   4.243   8.894   2.139  0.4129  0.9470 -0.6954
 7493SOL    HW228316   4.281   8.797   2.030  1.0584 -1.0585  1.2469
 7494SOL     OW28317   1.288   8.971   7.212 -0.3952 -0.2169 -0.2416
 7494SOL    HW128318   1.320   8.945   7.298  1.2471  1.2972 -0.3404
 7494SOL    HW228319   1.262   9.063   7.223 -2.9058 -0.7941 -0.6920
 7495SOL     OW28320  10.022   9.065  10.166 -0.2283 -0.0226  0.0232
 7495SOL    HW128321  10.002   8.973  10.148 -0.1827  0.0562 -0.4541
 7495SOL    HW228322  10.117   9.068  10.172 -0.2452 -0.0534  0.3257
 7496SOL     OW28323   1.560   5.033   9.274  0.2295  0.0661  0.4702
 7496SOL    HW128324   1.522   5.046   9.187  0.5210  0.9242  0.4634
 7496SOL    HW228325   1.598   5.118   9.297 -0.0801 -0.0682  1.5570
 7497SOL     OW28326   2.854   1.115   0.840 -0.0028 -0.2594  0.0067
 7497SOL    HW128327   2.859   1.132   0.934  1.9128  1.7240 -0.3639
 7497SOL    HW228328   2.922   1.049   0.824 -0.1719 -0.4288 -0.0085
 7498SOL     OW28329   9.704   3.008   8.869  0.0989 -1.0117  0.2777
 7498SOL    HW128330   9.798   3.003   8.853  0.1905  1.8686 -0.5380
 7498SOL    HW228331   9.696   3.036   8.960  0.1070 -0.0338 -0.0086
 7499SOL     OW28332   0.844   7.723   5.824  0.4222 -0.0818  0.3282
 7499SOL    HW128333   0.813   7.636   5.850  3.2372 -1.2813  0.0166
 7499SOL    HW228334   0.892   7.755   5.900  1.3035  0.2168 -0.3511
 7500SOL     OW28335   8.233  10.599   8.188 -0.0959 -0.6067 -0.6488
 7500SOL    HW128336   8.231  10.566   8.278 -1.0424 -0.9694 -0.7949
 7500SOL    HW228337   8.152  10.650   8.179  0.1719 -0.2652 -1.1894
 7501SOL     OW28338   9.566   5.154   8.670 -0.4523 -0.4756 -0.0658
 7501SOL    HW128339   9.609   5.235   8.646  0.9088 -0.7632  1.2596
 7501SOL    HW228340   9.608   5.087   8.616 -0.5643 -0.5003 -0.1237
 7502SOL     OW28341   1.709   4.878   1.849  0.4355 -0.0666  0.1259
 7502SOL    HW128342   1.673   4.942   1.911  0.8495  0.0126  0.2871
 7502SOL    HW228343   1.708   4.795   1.898  0.0856 -0.1461 -0.0137
 7503SOL     OW28344   8.291   1.257   4.551  0.0210 -0.4004 -0.2237
 7503SOL    HW128345   8.220   1.320   4.565 -0.3277 -0.1516 -2.7013
 7503SOL    HW228346   8.265   1.208   4.474  2.4402 -0.4438 -1.0970
 7504SOL     OW28347   8.732  10.375   0.531  0.5702  0.2823  0.4335
 7504SOL    HW128348   8.789  10.335   0.597 -0.9012  1.0403  2.2524
 7504SOL    HW228349   8.731  10.468   0.552  0.0960  0.5578 -0.7138
 7505SOL     OW28350   9.627   2.239   2.781  0.2240  0.2561 -0.1104
 7505SOL    HW128351   9.720   2.248   2.760  0.1735 -1.8101 -1.4864
 7505SOL    HW228352   9.626   2.196   2.866  0.5546 -0.5295 -0.4929
 7506SOL     OW28353   0.838   3.266  10.415  0.0984 -0.1150 -0.1687
 7506SOL    HW128354   0.786   3.319  10.356 -2.0299 -0.7009  1.0881
 7506SOL    HW228355   0.848   3.182  10.370 -0.9870 -0.3560  0.0300
 7507SOL     OW28356   2.135  10.892   8.033 -0.2403  0.0273 -0.2979
 7507SOL    HW128357   2.106  10.814   8.080  0.3951 -0.5529 -0.8527
 7507SOL    HW228358   2.219  10.914   8.072 -0.7477  0.8862  0.3590
 7508SOL     OW28359   8.646   9.140   8.920  0.0533  0.4149 -0.4013
 7508SOL    HW128360   8.706   9.131   8.846  0.3977 -2.3568  0.1287
 7508SOL    HW228361   8.596   9.058   8.922  0.5666  0.0226  2.8366
 7509SOL     OW28362   0.048   0.992   3.957 -0.5221  0.2186  0.0663
 7509SOL    HW128363  -0.021   1.053   3.983 -0.1782  0.6167  0.0651
 7509SOL    HW228364   0.078   0.953   4.039 -0.5257  0.2863  0.0994
 7510SOL     OW28365   7.249  10.428   0.722  0.8202  0.2484 -0.1905
 7510SOL    HW128366   7.216  10.348   0.762 -1.4201  1.2771  0.1957
 7510SOL    HW228367   7.286  10.399   0.638 -0.9610 -1.1086 -0.5825
 7511SOL     OW28368   0.692   5.160   9.348  0.3924  0.2470  0.7198
 7511SOL    HW128369   0.726   5.121   9.268 -0.2664 -3.1445  1.9172
 7511SOL    HW228370   0.598   5.170   9.332  0.4280  0.5965  0.7120
 7512SOL     OW28371   5.738  10.595   5.267  0.3142  0.1061  0.1715
 7512SOL    HW128372   5.761  10.502   5.276 -0.8909 -0.5060 -2.1754
 7512SOL    HW228373   5.643  10.595   5.256  0.4159  1.4830 -0.9707
 7513SOL     OW28374   4.548   5.509   3.847 -0.0008  0.1427 -0.1295
 7513SOL    HW128375   4.633   5.538   3.880 -0.6704  1.0068  0.8955
 7513SOL    HW228376   4.569   5.450   3.774  1.4929 -0.4926  0.7697
 7514SOL     OW28377   2.758   0.813   8.633 -0.1519 -0.2499 -0.0053
 7514SOL    HW128378   2.762   0.728   8.590  1.9726 -0.0005 -0.4259
 7514SOL    HW228379   2.811   0.803   8.713  0.7999  0.8296 -0.4553
 7515SOL     OW28380   4.957   7.009   7.663 -0.2189  0.4051  0.1904
 7515SOL    HW128381   4.909   7.008   7.581 -2.2564  3.5339  1.1796
 7515SOL    HW228382   4.999   7.095   7.666  1.0545 -0.2074  1.7722
 7516SOL     OW28383   6.668   7.441   9.957  0.1459  0.0235  0.1707
 7516SOL    HW128384   6.711   7.358   9.934  0.7091 -0.0684  1.4633
 7516SOL    HW228385   6.736   7.507   9.944 -0.9991  0.7311 -3.3656
 7517SOL     OW28386   5.364   9.669   7.882  0.2373 -0.1477  0.1511
 7517SOL    HW128387   5.384   9.761   7.896  2.6408 -0.5096 -0.2788
 7517SOL    HW228388   5.387   9.654   7.790 -0.9012 -1.0192 -0.0142
 7518SOL     OW28389   1.070   9.636   2.620 -0.5133 -0.4347 -1.1848
 7518SOL    HW128390   1.055   9.723   2.583 -2.4677 -0.6593 -1.0220
 7518SOL    HW228391   1.015   9.577   2.568  0.9612 -1.6283 -1.4434
 7519SOL     OW28392   8.988   0.194  10.789  0.0686 -0.0888 -0.0935
 7519SOL    HW128393   9.055   0.151  10.843  0.8689  1.6447  0.3644
 7519SOL    HW228394   8.916   0.211  10.849  1.0072  1.9496  0.5320
 7520SOL     OW28395   8.874   6.456   6.563 -0.3512 -0.2258  0.0901
 7520SOL    HW128396   8.945   6.393   6.580  0.7967  0.7161 -1.0211
 7520SOL    HW228397   8.805   6.403   6.524 -0.6149 -1.3057  1.8938
 7521SOL     OW28398   6.820   4.072   1.344  0.1271 -0.5775 -0.2838
 7521SOL    HW128399   6.810   4.073   1.440  0.4623 -0.8819 -0.2466
 7521SOL    HW228400   6.838   4.163   1.322 -0.1789 -0.4642 -0.0809
 7522SOL     OW28401   8.139   1.085   8.931  0.1811  0.4746  0.2176
 7522SOL    HW128402   8.073   1.115   8.994 -0.8553 -0.1759 -0.5104
 7522SOL    HW228403   8.179   1.166   8.899 -0.7377  0.9472  0.2014
 7523SOL     OW28404   5.297   8.629   2.480 -0.3244 -0.2136 -0.4189
 7523SOL    HW128405   5.255   8.581   2.551  1.0333 -1.1357 -0.1998
 7523SOL    HW228406   5.360   8.686   2.524  0.0137 -0.2576 -0.8374
 7524SOL     OW28407  10.548   2.983   5.500  0.1592 -0.3782  0.0327
 7524SOL    HW128408  10.631   3.000   5.545  0.3975 -0.5023 -0.3540
 7524SOL    HW228409  10.568   2.996   5.407 -0.5813  0.8705  0.0311
 7525SOL     OW28410   4.290   1.379   1.059 -0.7941  0.3230 -0.0045
 7525SOL    HW128411   4.326   1.322   0.991 -1.2776  0.2497 -0.2062
 7525SOL    HW228412   4.304   1.467   1.026 -2.4335  0.2724 -0.9711
 7526SOL     OW28413   4.874   4.006   1.023  0.5294  0.8030  0.1825
 7526SOL    HW128414   4.779   4.000   1.030  0.4510  1.7843  0.1044
 7526SOL    HW228415   4.891   4.010   0.929  0.5942  1.3133  0.2128
 7527SOL     OW28416   5.783   6.804   9.682 -0.1349  0.1894 -0.1119
 7527SOL    HW128417   5.794   6.843   9.596 -0.3974  2.2378  0.7324
 7527SOL    HW228418   5.851   6.737   9.687  1.0522  1.2503 -1.2313
 7528SOL     OW28419   3.082   9.050  10.405  0.2468 -0.3881 -0.3071
 7528SOL    HW128420   3.123   9.099  10.476 -0.2873  1.3974 -1.1802
 7528SOL    HW228421   3.119   8.962  10.413  1.6483  0.2649  0.9893
 7529SOL     OW28422   9.446   9.624   2.991  0.3951  0.6137 -0.3431
 7529SOL    HW128423   9.364   9.577   2.979  0.5903  0.7295 -2.6143
 7529SOL    HW228424   9.422   9.716   2.990  0.6020  0.6800 -1.9989
 7530SOL     OW28425   2.542   5.699   2.395  0.2366  0.1073 -0.0910
 7530SOL    HW128426   2.498   5.784   2.402  1.0961  0.6637 -1.1322
 7530SOL    HW228427   2.572   5.681   2.484 -1.2025  0.1871  0.4396
 7531SOL     OW28428   3.430   0.701   3.562  0.1307  0.2629  0.2804
 7531SOL    HW128429   3.457   0.689   3.471  1.0355  0.3014  0.5261
 7531SOL    HW228430   3.411   0.795   3.569 -1.1876  0.0445 -0.1763
 7532SOL     OW28431   2.312   5.411   5.463 -0.8133  0.1017  0.0916
 7532SOL    HW128432   2.390   5.375   5.505 -0.5495  0.0784 -0.4071
 7532SOL    HW228433   2.243   5.348   5.481 -0.0839 -1.3417 -1.8366
 7533SOL     OW28434   4.704   9.919   1.840 -0.2086 -0.3757 -0.1270
 7533SOL    HW128435   4.735  10.008   1.824 -1.1868  0.2046  1.0042
 7533SOL    HW228436   4.757   9.888   1.913 -1.3516  0.1524  0.9757
 7534SOL     OW28437   2.542   7.127   3.077  0.1826 -0.3246  0.1469
 7534SOL    HW128438   2.447   7.120   3.069  0.2865  0.4648 -2.5868
 7534SOL    HW228439   2.559   7.110   3.170 -2.3714 -2.9768  0.2773
 7535SOL     OW28440   1.812   3.741   1.580 -0.9203  0.6980  0.2909
 7535SOL    HW128441   1.893   3.748   1.630 -0.2082  1.3943 -0.8933
 7535SOL    HW228442   1.799   3.647   1.566  0.0047  0.6125 -0.0106
 7536SOL     OW28443   1.815   0.971   4.942 -0.4791  1.0667 -0.2161
 7536SOL    HW128444   1.764   1.004   4.868 -0.9198  0.1841 -0.3187
 7536SOL    HW228445   1.892   1.028   4.946 -0.8354  1.6025 -0.8649
 7537SOL     OW28446   2.720   1.749   5.647  0.0308  0.2679  0.0316
 7537SOL    HW128447   2.689   1.806   5.717 -0.2450  1.1653 -0.7965
 7537SOL    HW228448   2.777   1.805   5.594 -1.7994  0.3811 -1.9347
 7538SOL     OW28449   8.018   7.319  10.553 -0.5924 -0.2257  0.4722
 7538SOL    HW128450   7.931   7.346  10.584 -1.2083  0.2806 -1.5677
 7538SOL    HW228451   8.079   7.363  10.613 -1.6751  2.5152 -0.2894
 7539SOL     OW28452   6.212   6.360   4.936  0.0552 -0.2838  0.1928
 7539SOL    HW128453   6.221   6.445   4.892 -0.6265  0.4447  1.4172
 7539SOL    HW228454   6.300   6.322   4.933  0.3247  0.3688 -0.5303
 7540SOL     OW28455  10.161   5.173   6.884  1.2058  0.3982 -0.2145
 7540SOL    HW128456  10.119   5.224   6.954 -1.3585  1.4205 -2.2929
 7540SOL    HW228457  10.239   5.224   6.862  1.6993  0.4111  1.3976
 7541SOL     OW28458   8.424  10.276   5.609 -0.8438 -0.4192  0.5570
 7541SOL    HW128459   8.395  10.288   5.699 -2.0572 -0.0940  0.1269
 7541SOL    HW228460   8.423  10.363   5.571  0.3707 -0.4414  0.4071
 7542SOL     OW28461   9.944   4.140  10.823 -0.5144 -0.0713  0.6366
 7542SOL    HW128462   9.950   4.045  10.818 -2.3862 -0.1828 -1.4503
 7542SOL    HW228463   9.887   4.164  10.749  0.8502  2.7721  0.3787
 7543SOL     OW28464   5.925   6.491   4.101  0.1821 -0.2325 -0.3505
 7543SOL    HW128465   5.964   6.434   4.034  0.0479 -0.5742 -0.1386
 7543SOL    HW228466   5.896   6.431   4.169 -1.2707 -0.0474 -0.7651
 7544SOL     OW28467   6.143   2.108   3.903 -0.0705  0.1083 -0.1928
 7544SOL    HW128468   6.220   2.087   3.850  0.1558 -1.2686  0.6525
 7544SOL    HW228469   6.127   2.201   3.884  0.0134 -0.3060 -2.6234
 7545SOL     OW28470   6.206   6.689   1.410 -0.1227 -0.0867  0.2128
 7545SOL    HW128471   6.271   6.619   1.403 -1.2925 -1.4636  2.2010
 7545SOL    HW228472   6.173   6.699   1.320  0.5082 -1.6754 -0.2426
 7546SOL     OW28473   4.632   6.469   6.588  0.0979  0.0405 -0.3606
 7546SOL    HW128474   4.694   6.535   6.621 -0.4160  0.1160  0.4895
 7546SOL    HW228475   4.674   6.385   6.608 -1.2210  0.0002  2.7404
 7547SOL     OW28476   9.870   9.400  10.421 -0.5913  0.5236  0.7910
 7547SOL    HW128477   9.785   9.445  10.424 -0.9823 -0.1593  0.4047
 7547SOL    HW228478   9.864   9.345  10.342  0.2455  0.5411  0.7156
 7548SOL     OW28479   6.363   1.621   6.379 -0.0466 -0.5616  0.0507
 7548SOL    HW128480   6.324   1.595   6.296  0.2296 -0.2097 -0.1956
 7548SOL    HW228481   6.457   1.624   6.361 -0.0576  0.4447  0.1058
 7549SOL     OW28482   6.906   7.694   3.477  0.3730  0.3290 -0.5326
 7549SOL    HW128483   6.872   7.783   3.467  0.1667  0.0836 -2.5394
 7549SOL    HW228484   6.921   7.664   3.387 -0.4426 -1.9862  0.0135
 7550SOL     OW28485   6.769   2.454   0.419 -0.3703  0.1730  0.0873
 7550SOL    HW128486   6.833   2.413   0.477  1.0542  2.4132  0.2053
 7550SOL    HW228487   6.698   2.482   0.478 -1.2009 -1.7024  0.0461
 7551SOL     OW28488   7.095   9.130  10.262 -0.2014 -0.1785 -0.2341
 7551SOL    HW128489   7.078   9.161  10.351 -1.1868 -0.5342 -0.2845
 7551SOL    HW228490   7.109   9.036  10.271 -2.0242 -0.5380 -0.6173
 7552SOL     OW28491   2.171   4.790  10.335 -0.1344  0.3242 -0.2289
 7552SOL    HW128492   2.213   4.780  10.421 -2.7678 -0.3870  1.0719
 7552SOL    HW228493   2.165   4.700  10.301  0.4327  0.5525 -0.9652
 7553SOL     OW28494   1.579   1.837   9.451  0.0495 -0.3950  0.0785
 7553SOL    HW128495   1.518   1.776   9.409 -0.3091  0.1342 -0.1827
 7553SOL    HW228496   1.531   1.870   9.527  0.1487 -0.2653  0.0852
 7554SOL     OW28497   1.978   6.069   3.658 -0.3319 -0.1404 -0.7313
 7554SOL    HW128498   2.049   6.028   3.609  1.7748  0.7995  1.3542
 7554SOL    HW228499   1.978   6.024   3.743 -2.9858 -0.8232 -1.0006
 7555SOL     OW28500   0.427   8.535   7.459 -0.1812  0.0449 -0.2600
 7555SOL    HW128501   0.485   8.601   7.420 -1.4285  0.9802 -0.5841
 7555SOL    HW228502   0.407   8.476   7.386  0.7778 -0.6050 -0.0162
 7556SOL     OW28503   8.948   9.919   0.567  0.0871 -0.0372  0.1128
 7556SOL    HW128504   9.006   9.984   0.527  0.5222 -0.7051 -0.3619
 7556SOL    HW228505   9.004   9.843   0.583 -0.1661  0.0782  1.6573
 7557SOL     OW28506   3.484   7.687  10.488 -0.3896 -0.6020  0.4217
 7557SOL    HW128507   3.395   7.721  10.490 -0.0652  0.2667  0.9017
 7557SOL    HW228508   3.505   7.678  10.394 -0.3745  0.8835  0.2584
 7558SOL     OW28509   4.732   6.764   5.749  0.4545 -0.5886 -0.3081
 7558SOL    HW128510   4.753   6.768   5.842  1.6371  1.1234 -0.5917
 7558SOL    HW228511   4.770   6.844   5.712  0.2524 -1.3415 -2.3136
 7559SOL     OW28512   3.543   9.052   6.084 -0.2314 -0.0017 -0.0978
 7559SOL    HW128513   3.453   9.023   6.072  0.1283 -1.5873  0.7077
 7559SOL    HW228514   3.597   8.975   6.063  0.8536  0.4812  0.7748
 7560SOL     OW28515   6.445   7.159   7.511  0.0425 -0.3768 -0.8504
 7560SOL    HW128516   6.361   7.125   7.542  0.1252 -0.9887 -1.2702
 7560SOL    HW228517   6.511   7.114   7.564  0.0771  1.5058  0.8126
 7561SOL     OW28518   5.329   4.792   1.712  0.3572  0.1127  0.7938
 7561SOL    HW128519   5.264   4.788   1.642 -1.0635  0.5136  2.0219
 7561SOL    HW228520   5.404   4.743   1.678 -0.9325 -1.1976 -0.3343
 7562SOL     OW28521   9.760   4.244   1.404 -0.4949  0.1034 -0.3503
 7562SOL    HW128522   9.855   4.231   1.407 -0.5030  0.1901  1.0450
 7562SOL    HW228523   9.741   4.265   1.312  1.2119  2.7832 -0.1989
 7563SOL     OW28524  10.360   9.188  10.327 -0.2793 -0.2257 -0.3197
 7563SOL    HW128525  10.306   9.109  10.333 -0.0590 -0.3926 -0.5275
 7563SOL    HW228526  10.449   9.156  10.316  0.0557  0.0352  1.4037
 7564SOL     OW28527   0.416   8.222   1.288 -0.3959  0.1160  0.0609
 7564SOL    HW128528   0.377   8.308   1.301  2.2609  1.8506 -2.3791
 7564SOL    HW228529   0.357   8.177   1.227 -2.0824 -0.1192  1.7638
 7565SOL     OW28530   1.515   5.882   3.649 -0.3545 -0.8898 -0.0726
 7565SOL    HW128531   1.428   5.918   3.667  0.5382  0.6649  1.4485
 7565SOL    HW228532   1.571   5.917   3.718  1.5345 -1.7229 -1.0775
 7566SOL     OW28533  10.018   6.906   9.733 -0.0579  0.2321  0.6947
 7566SOL    HW128534  10.093   6.925   9.790  1.9689 -1.6742 -1.1526
 7566SOL    HW228535   9.991   6.817   9.757  1.5466 -1.0747 -1.8513
 7567SOL     OW28536   0.487   1.176   9.331 -0.0564  0.5302  0.0091
 7567SOL    HW128537   0.491   1.103   9.393 -2.7593 -0.3498 -0.7228
 7567SOL    HW228538   0.485   1.133   9.245 -0.6667  1.5090 -0.4788
 7568SOL     OW28539   2.639   9.713   1.817 -0.3400  0.5147  1.2166
 7568SOL    HW128540   2.664   9.799   1.851  1.3835  0.5169  0.0404
 7568SOL    HW228541   2.649   9.721   1.722 -2.7916 -0.1850  0.8280
 7569SOL     OW28542   6.441   5.377   7.781  0.0286  0.1535  0.3496
 7569SOL    HW128543   6.396   5.295   7.803 -2.3323  1.0095 -0.9751
 7569SOL    HW228544   6.392   5.444   7.829  0.0296  1.0936 -0.9231
 7570SOL     OW28545   8.566   8.231   8.492  0.0179  0.1299  0.1305
 7570SOL    HW128546   8.530   8.209   8.406 -0.9726  2.2240 -0.0718
 7570SOL    HW228547   8.516   8.178   8.553 -0.3270 -0.2695 -0.4821
 7571SOL     OW28548   0.653   3.044   7.314 -0.1374 -0.4074  0.2134
 7571SOL    HW128549   0.574   3.025   7.262 -0.5020 -0.2772  0.7125
 7571SOL    HW228550   0.711   2.970   7.296  0.8692  0.9109 -2.5145
 7572SOL     OW28551   5.912   7.395   8.195  0.3848  0.5014  0.3417
 7572SOL    HW128552   5.833   7.364   8.239  0.0749  1.7860  0.7361
 7572SOL    HW228553   5.888   7.400   8.103  0.1294  0.5206  0.4075
 7573SOL     OW28554   5.929   3.031  10.894 -0.1804  0.3601 -0.0440
 7573SOL    HW128555   5.859   3.013  10.957 -0.3285  2.1622  0.3561
 7573SOL    HW228556   5.884   3.047  10.811  0.0454 -2.5893 -0.8401
 7574SOL     OW28557   9.265   0.922   6.967 -0.0226  0.0741 -0.3548
 7574SOL    HW128558   9.300   0.902   7.054 -1.1328  1.1893  0.3791
 7574SOL    HW228559   9.275   0.840   6.918  0.4478 -0.6328  0.8638
 7575SOL     OW28560   3.217   0.050   2.406  0.1831  0.4237 -0.2497
 7575SOL    HW128561   3.231   0.108   2.480 -1.4976  0.8739 -0.2291
 7575SOL    HW228562   3.290   0.067   2.347  0.8271  1.0265  0.6943
 7576SOL     OW28563   6.553   6.846   9.029 -0.7456 -0.4608 -0.4513
 7576SOL    HW128564   6.536   6.904   9.103 -0.6949  1.4866 -1.8893
 7576SOL    HW228565   6.478   6.858   8.971 -0.1988 -0.9834 -1.3018
 7577SOL     OW28566   2.060   9.446   3.832 -0.4344 -0.0479  0.0595
 7577SOL    HW128567   2.099   9.437   3.919 -2.2082 -0.1583  0.9046
 7577SOL    HW228568   2.134   9.455   3.773  0.8452 -0.4319  1.5275
 7578SOL     OW28569  10.616   0.545   7.809  0.7716  0.5365  0.5882
 7578SOL    HW128570  10.693   0.602   7.799 -0.8778  2.8665  0.5606
 7578SOL    HW228571  10.578   0.569   7.893 -0.3400 -0.1012  0.2899
 7579SOL     OW28572   6.708   4.980   8.663 -0.3359 -0.4827 -0.1356
 7579SOL    HW128573   6.677   4.922   8.593 -1.7726  1.7664 -1.5020
 7579SOL    HW228574   6.802   4.988   8.648 -0.5837 -0.2049 -1.7508
 7580SOL     OW28575   4.576   0.334  10.524  0.2304 -0.0003  0.1102
 7580SOL    HW128576   4.566   0.328  10.429 -1.8076 -0.4851  0.3139
 7580SOL    HW228577   4.491   0.366  10.556  1.7765  3.1627  1.5461
 7581SOL     OW28578   8.264   0.594   9.364 -0.1188 -0.3337 -0.6017
 7581SOL    HW128579   8.217   0.575   9.284  0.4651  0.0960 -1.0547
 7581SOL    HW228580   8.329   0.660   9.340  0.0340 -0.1593  0.2289
 7582SOL     OW28581   0.079   6.035   2.781  0.2724 -0.1225 -0.4493
 7582SOL    HW128582   0.008   6.098   2.765 -1.3813 -1.5498  0.7768
 7582SOL    HW228583   0.098   5.997   2.696 -0.6920  0.0606 -0.7594
 7583SOL     OW28584   2.064   9.512   5.613  0.3257  0.8543 -0.0607
 7583SOL    HW128585   2.086   9.477   5.527  0.3933  0.8659 -0.0482
 7583SOL    HW228586   2.038   9.603   5.597 -0.7753  0.5267 -0.2212
 7584SOL     OW28587   3.162   1.128   0.872 -0.5858 -0.2288 -0.4547
 7584SOL    HW128588   3.110   1.155   0.948  0.3056  0.7485 -0.1568
 7584SOL    HW228589   3.107   1.147   0.797 -1.4340 -1.0981 -0.0732
 7585SOL     OW28590   6.804   7.819   8.537  0.1367 -0.1958  0.3639
 7585SOL    HW128591   6.749   7.806   8.615  0.0939  0.9234  0.5327
 7585SOL    HW228592   6.743   7.847   8.469  0.2449 -0.7257  0.0390
 7586SOL     OW28593   5.385   5.922   9.015 -0.5321 -0.1661 -0.2584
 7586SOL    HW128594   5.312   5.980   8.996 -1.6612 -1.0950  1.0322
 7586SOL    HW228595   5.413   5.945   9.103  0.6392  0.0498 -0.6650
 7587SOL     OW28596   6.318   2.538   0.726 -0.1647 -0.3536 -0.2907
 7587SOL    HW128597   6.230   2.574   0.738  0.5948  1.1461  1.1339
 7587SOL    HW228598   6.377   2.611   0.746  1.4230 -1.6593  0.0078
 7588SOL     OW28599   9.622   4.361   0.272 -0.0679  0.2240  0.0320
 7588SOL    HW128600   9.626   4.321   0.359 -0.0700 -0.6248 -0.3463
 7588SOL    HW228601   9.654   4.293   0.213 -0.9689  0.4513 -0.7368
 7589SOL     OW28602   8.461   5.664   2.278 -0.2459  0.2491  0.0564
 7589SOL    HW128603   8.540   5.716   2.267 -0.5906  0.7034 -0.3316
 7589SOL    HW228604   8.492   5.575   2.290  0.4035  0.6528  1.6940
 7590SOL     OW28605   0.001   0.891   7.311 -0.7897 -0.1828  0.3418
 7590SOL    HW128606   0.013   0.796   7.309 -0.8490 -0.2066  0.8974
 7590SOL    HW228607   0.089   0.927   7.298 -0.6898 -0.3186  0.6494
 7591SOL     OW28608   7.326   8.868   0.233  0.2199 -0.0389  0.0709
 7591SOL    HW128609   7.280   8.794   0.273  0.1422  0.1656  0.3568
 7591SOL    HW228610   7.362   8.917   0.307  1.0326 -0.2795 -0.1500
 7592SOL     OW28611   8.570  10.462   7.254  0.1738 -0.6089  0.5439
 7592SOL    HW128612   8.503  10.450   7.320  0.7257 -0.1012  1.2109
 7592SOL    HW228613   8.628  10.386   7.265 -0.4564 -1.2318 -0.2624
 7593SOL     OW28614  10.013   8.517   4.659  0.3287 -0.0361 -0.5651
 7593SOL    HW128615   9.973   8.439   4.699 -0.4610 -0.4898 -2.1634
 7593SOL    HW228616   9.958   8.590   4.688  0.1028 -0.2849 -0.3650
 7594SOL     OW28617   6.841   0.148   7.957  0.2153  0.0203 -0.8386
 7594SOL    HW128618   6.858   0.140   7.863  0.9898 -0.3971 -0.6722
 7594SOL    HW228619   6.801   0.234   7.966  0.7842  0.3664 -1.4700
 7595SOL     OW28620   3.930   7.771   0.639  0.0983  0.8094  0.9091
 7595SOL    HW128621   3.978   7.693   0.665  0.9727  1.1132  0.2328
 7595SOL    HW228622   3.838   7.745   0.643  0.3746 -0.2246  0.7653
 7596SOL     OW28623   6.477   1.983   2.942  0.1483  0.3409 -0.2107
 7596SOL    HW128624   6.449   2.062   2.989 -0.5725 -1.8132  3.2934
 7596SOL    HW228625   6.572   1.980   2.956  0.2813  0.8582 -0.9134
 7597SOL     OW28626   6.158   3.426   7.450 -0.5120 -0.4152  0.4731
 7597SOL    HW128627   6.153   3.331   7.446  0.5452 -0.4952  0.7867
 7597SOL    HW228628   6.245   3.447   7.415 -0.9590  0.4695 -0.1337
 7598SOL     OW28629   1.196   1.901   6.314 -0.1824  0.2457  0.0273
 7598SOL    HW128630   1.121   1.922   6.258 -0.2668 -1.1582 -0.4159
 7598SOL    HW228631   1.158   1.861   6.392  0.0795 -0.1473 -0.0433
 7599SOL     OW28632   3.160   8.052   8.066 -0.2277  0.2820  0.0920
 7599SOL    HW128633   3.253   8.042   8.086  0.4073  0.2887 -2.5331
 7599SOL    HW228634   3.139   7.976   8.012 -1.8840  0.0757  0.9593
 7600SOL     OW28635   1.982   2.371   8.526  0.1254 -0.0000  0.5180
 7600SOL    HW128636   2.004   2.387   8.618 -0.1848  0.6733  0.4821
 7600SOL    HW228637   1.914   2.304   8.529 -0.9510  1.0737  0.8801
 7601SOL     OW28638   9.257   8.315   1.928  0.0246  0.4934  0.5459
 7601SOL    HW128639   9.246   8.386   1.991  0.0873  1.5789 -0.6217
 7601SOL    HW228640   9.212   8.347   1.849 -1.0231 -1.2936  0.3811
 7602SOL     OW28641   3.329  10.761  10.860  0.1306 -0.2722  0.2212
 7602SOL    HW128642   3.268  10.736  10.929  0.2379  0.0147  0.4189
 7602SOL    HW228643   3.390  10.687  10.854 -0.7677 -0.9729 -0.6029
 7603SOL     OW28644   9.546  10.760   8.709  0.2523  0.1050  0.2752
 7603SOL    HW128645   9.512  10.797   8.627 -0.7942  2.5543  1.7228
 7603SOL    HW228646   9.637  10.788   8.712  0.5738 -0.7935 -0.4458
 7604SOL     OW28647   3.314   7.002   9.094 -0.4103  0.2429  0.0316
 7604SOL    HW128648   3.298   7.088   9.056  0.0872 -0.0117 -0.7884
 7604SOL    HW228649   3.339   6.947   9.019 -0.3422 -0.5143  0.5962
 7605SOL     OW28650   1.446   3.259   1.296 -0.0364 -0.2245  0.3661
 7605SOL    HW128651   1.385   3.277   1.368 -1.1616  1.1474 -0.8758
 7605SOL    HW228652   1.474   3.345   1.266  2.3677 -0.8017  0.7119
 7606SOL     OW28653   4.043   7.438   9.885  0.2020 -0.1616  0.2631
 7606SOL    HW128654   3.977   7.369   9.891 -0.5386  0.0252 -3.4502
 7606SOL    HW228655   4.020   7.499   9.955 -2.9068 -0.6687 -0.1538
 7607SOL     OW28656   3.804   8.107   5.686  0.3168 -0.0667  0.0110
 7607SOL    HW128657   3.817   8.123   5.592  0.1704  0.9272  0.1442
 7607SOL    HW228658   3.720   8.149   5.706  0.7712  0.5066  0.7627
 7608SOL     OW28659   9.668   2.047   7.426  0.1796 -0.4329 -0.3377
 7608SOL    HW128660   9.737   2.066   7.363 -0.1267  1.0831 -0.2413
 7608SOL    HW228661   9.658   2.127   7.477 -1.8001 -0.5278 -0.4924
 7609SOL     OW28662   4.620   6.567   0.816 -0.4398 -0.2237 -0.0394
 7609SOL    HW128663   4.645   6.578   0.908 -1.3161  0.1852  0.1598
 7609SOL    HW228664   4.701   6.541   0.773 -0.2751 -1.6575  1.0513
 7610SOL     OW28665   1.352   5.438   3.150  0.1562 -0.0317  0.0787
 7610SOL    HW128666   1.408   5.516   3.159 -0.9409  0.7305  0.4451
 7610SOL    HW228667   1.367   5.408   3.060  0.6468  0.5508 -0.0425
 7611SOL     OW28668   8.281   4.456   4.764 -0.2375  0.4285  0.2015
 7611SOL    HW128669   8.315   4.545   4.774 -0.1717  0.6625 -1.7974
 7611SOL    HW228670   8.261   4.448   4.671 -1.2117 -1.3171  0.5174
 7612SOL     OW28671   3.296   1.802   3.214  0.1127 -0.0321 -0.3198
 7612SOL    HW128672   3.203   1.825   3.223  0.2868  2.2926 -2.9094
 7612SOL    HW228673   3.327   1.789   3.304 -2.4656  0.1647  0.6763
 7613SOL     OW28674   7.916   7.670   7.060 -0.2905  0.2623  0.2659
 7613SOL    HW128675   7.938   7.584   7.095  0.6512  0.3865 -0.0095
 7613SOL    HW228676   7.820   7.668   7.050 -0.2667 -0.7618  0.1931
 7614SOL     OW28677   8.889   3.230   3.279  0.2805 -0.2743 -0.3079
 7614SOL    HW128678   8.901   3.320   3.310 -0.4735 -0.1023 -0.4851
 7614SOL    HW228679   8.977   3.200   3.257  0.5965  0.2483  0.2211
 7615SOL     OW28680   8.461   3.869   0.780  0.0888 -0.5083 -0.1543
 7615SOL    HW128681   8.513   3.806   0.830  0.9665  0.5335  0.2875
 7615SOL    HW228682   8.440   3.824   0.699  3.7649 -0.2073 -1.4550
 7616SOL     OW28683   4.470   0.857   4.171  0.4051 -0.3031  0.5196
 7616SOL    HW128684   4.544   0.904   4.134  0.6698 -1.4111 -0.4280
 7616SOL    HW228685   4.418   0.924   4.216  1.6090  0.5919  0.6060
 7617SOL     OW28686   1.575   7.021   0.598  0.1761 -0.2707 -0.2664
 7617SOL    HW128687   1.629   6.978   0.663 -2.2578 -0.1250  2.0142
 7617SOL    HW228688   1.556   7.107   0.635 -2.5051 -0.7349 -0.3831
 7618SOL     OW28689   3.382   3.297   8.238 -0.1485 -0.0920 -0.1443
 7618SOL    HW128690   3.342   3.382   8.255  1.9239  1.7745 -3.4407
 7618SOL    HW228691   3.362   3.279   8.146  2.7615 -1.1747 -0.6736
 7619SOL     OW28692   9.265   5.239   7.510  0.1896  0.2101 -0.5751
 7619SOL    HW128693   9.203   5.184   7.558  0.1697  0.2257 -0.5830
 7619SOL    HW228694   9.299   5.299   7.576  2.0812 -1.3945  0.0212
 7620SOL     OW28695   1.996   9.171   5.387 -0.2941 -0.2234 -0.3319
 7620SOL    HW128696   1.980   9.079   5.408  0.4079 -0.5332 -1.1056
 7620SOL    HW228697   1.939   9.220   5.446 -0.4716 -1.1498  0.2700
 7621SOL     OW28698   6.958   0.988   9.113  0.0895  1.0549  0.0529
 7621SOL    HW128699   6.877   1.038   9.100 -0.5803 -0.4070 -1.9352
 7621SOL    HW228700   6.929   0.898   9.125  1.3787  0.7261  0.9072
 7622SOL     OW28701   3.166   8.714   2.401 -0.1591  0.4908  0.3437
 7622SOL    HW128702   3.255   8.747   2.413 -0.0271  0.4408 -0.4302
 7622SOL    HW228703   3.152   8.718   2.306 -1.1779  0.9995  0.5092
 7623SOL     OW28704   2.594   2.672   9.663 -0.4162 -0.1955 -0.7230
 7623SOL    HW128705   2.500   2.658   9.661 -0.3504 -0.6147 -1.0182
 7623SOL    HW228706   2.632   2.587   9.638  0.1675 -1.4338  3.4211
 7624SOL     OW28707   6.073   2.622   3.433 -0.4313 -0.9198  0.2913
 7624SOL    HW128708   6.140   2.557   3.413  0.2232 -1.2254  3.0903
 7624SOL    HW228709   5.998   2.596   3.379  0.3960 -2.9373  0.0069
 7625SOL     OW28710   0.439   6.204   3.757  0.4691  0.4349 -0.4055
 7625SOL    HW128711   0.386   6.259   3.699  0.4783  1.3048  0.3881
 7625SOL    HW228712   0.417   6.115   3.732 -2.1221  0.7397  0.5491
 7626SOL     OW28713   5.151   1.641   3.609 -0.1225 -0.2517 -0.4492
 7626SOL    HW128714   5.194   1.678   3.532  0.1891 -1.3057 -0.7991
 7626SOL    HW228715   5.086   1.580   3.573  0.2993 -1.0552  0.1118
 7627SOL     OW28716   7.181   1.798   9.771  0.2547 -0.1563 -0.6483
 7627SOL    HW128717   7.158   1.884   9.734  0.5360  0.2079 -0.0070
 7627SOL    HW228718   7.267   1.811   9.810  1.5826 -1.4888 -2.9567
 7628SOL     OW28719   6.216   7.164  10.670  0.5029 -0.3489 -0.0425
 7628SOL    HW128720   6.131   7.173  10.713  0.1307  2.3173 -1.1571
 7628SOL    HW228721   6.279   7.185  10.738  0.1570 -0.3748  0.2906
 7629SOL     OW28722   2.753   1.221   5.626 -0.1985 -0.3337  0.2112
 7629SOL    HW128723   2.704   1.212   5.708 -0.9021 -0.6710 -0.2359
 7629SOL    HW228724   2.692   1.192   5.558  0.3903 -0.0981 -0.4323
 7630SOL     OW28725   9.620   8.203   2.729  0.4110 -0.2143 -0.9770
 7630SOL    HW128726   9.622   8.255   2.648 -0.7459 -0.2528 -1.0595
 7630SOL    HW228727   9.561   8.130   2.708 -1.2521  0.6487  0.3752
 7631SOL     OW28728  10.342   1.862   3.625  0.2185  0.4497 -0.0879
 7631SOL    HW128729  10.382   1.914   3.556  1.4294 -0.5802 -0.1991
 7631SOL    HW228730  10.415   1.833   3.680 -0.4612 -0.6748  0.2797
 7632SOL     OW28731   0.408   4.419   4.786  0.1288  0.3716  0.5655
 7632SOL    HW128732   0.429   4.400   4.694 -0.1753  1.4534  0.2578
 7632SOL    HW228733   0.363   4.504   4.783 -0.5558  0.0587  1.6423
 7633SOL     OW28734   9.844   8.137   9.759  0.1250 -0.2105 -0.0324
 7633SOL    HW128735   9.887   8.068   9.809 -0.1407  0.8329  1.7027
 7633SOL    HW228736   9.751   8.112   9.759  0.1242 -0.2085  0.0031
 7634SOL     OW28737   8.902  10.416   9.752  0.2405  0.0066 -0.4295
 7634SOL    HW128738   8.989  10.382   9.733  0.0882 -0.2041 -0.7745
 7634SOL    HW228739   8.859  10.420   9.666 -0.0960  0.0858 -0.2608
 7635SOL     OW28740   4.784   4.907   7.073  0.3407 -0.5806 -0.1050
 7635SOL    HW128741   4.876   4.879   7.068  0.7732  0.6494  0.4532
 7635SOL    HW228742   4.736   4.828   7.095  1.4089 -1.0302  0.7271
 7636SOL     OW28743   3.370   0.016   4.546 -0.8034  0.3716  0.2742
 7636SOL    HW128744   3.421  -0.060   4.518 -0.9232  0.4706 -0.2358
 7636SOL    HW228745   3.432   0.072   4.592 -0.6341  0.1267  0.3450
 7637SOL     OW28746   7.397   9.005   9.605 -0.2360 -0.1803  0.2407
 7637SOL    HW128747   7.424   8.945   9.536  1.4473  2.5199 -1.6370
 7637SOL    HW228748   7.318   9.047   9.570  0.9787  1.6501 -0.4231
 7638SOL     OW28749   3.928   3.351   6.960 -0.7481  0.5627 -0.8289
 7638SOL    HW128750   3.862   3.411   6.925 -1.7525 -0.2878 -0.4505
 7638SOL    HW228751   3.978   3.404   7.022 -0.9894  1.2573 -1.2170
 7639SOL     OW28752   0.042   8.758  10.464  0.1606 -0.2873  0.0753
 7639SOL    HW128753   0.019   8.740  10.373 -0.3290 -2.9674  0.6479
 7639SOL    HW228754   0.133   8.728  10.472  0.8331  1.6035  0.0960
 7640SOL     OW28755   9.494   2.350   1.442  0.0397 -0.7051 -0.1551
 7640SOL    HW128756   9.430   2.370   1.373 -0.1014 -2.4575 -0.5836
 7640SOL    HW228757   9.471   2.408   1.514 -0.4892  0.4224 -1.1993
 7641SOL     OW28758   4.033   4.614   9.764  0.0200 -0.3617  0.4362
 7641SOL    HW128759   3.943   4.645   9.774  0.0799  0.9165 -2.1742
 7641SOL    HW228760   4.026   4.519   9.763 -1.4397 -0.2649 -0.7013
 7642SOL     OW28761   1.070   9.613   9.123 -0.1760  0.2227  0.2270
 7642SOL    HW128762   0.996   9.639   9.178 -0.8473 -2.0333  0.4865
 7642SOL    HW228763   1.043   9.636   9.034 -0.8215  0.2202  0.4160
 7643SOL     OW28764   7.228   3.878   4.109  0.0917 -0.2138  0.2694
 7643SOL    HW128765   7.157   3.827   4.146  0.3239  0.1992  1.3522
 7643SOL    HW228766   7.230   3.855   4.016 -1.2386 -0.4607  0.2857
 7644SOL     OW28767   4.659   0.423   3.302  0.0666 -0.3256 -0.3785
 7644SOL    HW128768   4.635   0.371   3.226 -0.1657  0.6116 -0.9675
 7644SOL    HW228769   4.755   0.425   3.301  0.0556  0.1998 -1.0186
 7645SOL     OW28770  10.398   1.946   6.742  0.0644  0.2807 -0.1637
 7645SOL    HW128771  10.332   1.884   6.774  0.2762  1.0583  1.9549
 7645SOL    HW228772  10.480   1.916   6.781  0.5340  0.7181 -0.7917
 7646SOL     OW28773  10.892   5.364   4.604 -0.4374 -0.3507 -0.5123
 7646SOL    HW128774  10.982   5.365   4.637 -0.7236  0.4624  0.2722
 7646SOL    HW228775  10.892   5.294   4.538  0.8593 -0.1182 -0.7963
 7647SOL     OW28776   5.098   3.203   8.758  0.1102 -0.2274  0.7529
 7647SOL    HW128777   5.045   3.153   8.820 -0.7051 -0.0617  0.2015
 7647SOL    HW228778   5.188   3.193   8.790 -0.3447  0.3975  2.3419
 7648SOL     OW28779   0.481   6.789   0.981 -0.2349 -0.6514 -0.0283
 7648SOL    HW128780   0.409   6.826   0.931 -1.5273 -3.0209 -0.0519
 7648SOL    HW228781   0.534   6.741   0.916  1.7598  1.4645 -0.1101
 7649SOL     OW28782   4.799   0.161   0.191 -0.0201 -0.3126 -0.1222
 7649SOL    HW128783   4.753   0.121   0.264 -1.0148 -1.4803 -1.3387
 7649SOL    HW228784   4.890   0.166   0.219 -0.3016 -1.1958  0.9893
 7650SOL     OW28785   7.606   9.075   8.237  0.1428 -0.1577 -0.3815
 7650SOL    HW128786   7.610   9.170   8.232 -1.7071  0.0079  0.3034
 7650SOL    HW228787   7.600   9.047   8.145 -0.7366  0.5051 -0.5427
 7651SOL     OW28788  10.813   4.235   7.424 -0.2147  0.4553 -0.0052
 7651SOL    HW128789  10.873   4.161   7.422  1.2610  1.5837  0.5299
 7651SOL    HW228790  10.726   4.196   7.431  0.2639 -1.3086 -2.4523
 7652SOL     OW28791   8.678   7.311   8.158  0.3549  0.6898  0.1742
 7652SOL    HW128792   8.769   7.322   8.130  1.0859  0.4214  2.2260
 7652SOL    HW228793   8.678   7.339   8.250 -1.2053 -1.0563  0.7671
 7653SOL     OW28794   5.548   5.232   2.217  0.0870  0.4665 -0.5178
 7653SOL    HW128795   5.555   5.289   2.141  1.6911 -1.5142 -1.9799
 7653SOL    HW228796   5.486   5.164   2.190 -0.9285  0.8395  0.7630
 7654SOL     OW28797   4.588   7.454   2.877  0.3274 -0.0318  0.3420
 7654SOL    HW128798   4.633   7.516   2.934  1.0572  1.5008 -1.7742
 7654SOL    HW228799   4.591   7.371   2.925  1.9899  0.8871  1.9515
 7655SOL     OW28800   8.449   0.515   3.969  0.1557 -0.1754  0.1657
 7655SOL    HW128801   8.450   0.421   3.985  0.2318 -0.1862  0.0930
 7655SOL    HW228802   8.372   0.546   4.017 -0.8050 -0.4992 -1.0977
 7656SOL     OW28803   3.369   9.455   9.107 -0.2519  0.1098  0.4754
 7656SOL    HW128804   3.326   9.375   9.137  0.0142 -0.0879  0.3391
 7656SOL    HW228805   3.407   9.431   9.022  0.2883  0.2238  0.6831
 7657SOL     OW28806   7.346   6.531   2.980 -0.0727  1.0756 -0.0146
 7657SOL    HW128807   7.406   6.580   3.036  1.6105  1.4255 -1.9807
 7657SOL    HW228808   7.396   6.515   2.899 -2.2234  0.2957 -1.2887
 7658SOL     OW28809   8.728   7.496   3.873  0.0237 -0.3465 -0.1815
 7658SOL    HW128810   8.778   7.467   3.950 -1.2978  0.2923  0.9626
 7658SOL    HW228811   8.667   7.561   3.908 -0.4831  0.0980 -1.8234
 7659SOL     OW28812   7.771   1.754   8.276  0.1417 -0.2761  0.2547
 7659SOL    HW128813   7.860   1.766   8.309  0.2688  0.0084 -0.1829
 7659SOL    HW228814   7.759   1.660   8.272  0.3968 -0.3151  0.3932
 7660SOL     OW28815   3.125   4.036   6.697  0.1426 -0.0429 -0.0253
 7660SOL    HW128816   3.200   4.096   6.694 -0.4830  0.7280 -0.5907
 7660SOL    HW228817   3.091   4.045   6.786  1.2869 -1.1449  0.5702
 7661SOL     OW28818   1.372   6.518   3.994  0.3427  0.2498  0.3651
 7661SOL    HW128819   1.430   6.526   4.070  1.7499  1.0477 -0.7535
 7661SOL    HW228820   1.288   6.553   4.024  0.8086  0.3398  1.6060
 7662SOL     OW28821   3.223   7.583   2.294  0.2728 -0.1382 -0.7850
 7662SOL    HW128822   3.232   7.644   2.368  1.1710 -1.3629  0.1538
 7662SOL    HW228823   3.183   7.505   2.332  0.2743 -0.5952 -1.7020
 7663SOL     OW28824   7.293   0.249   7.451 -0.1313  0.7857  0.0841
 7663SOL    HW128825   7.202   0.263   7.477 -0.3696 -1.1184  0.4218
 7663SOL    HW228826   7.321   0.171   7.499  1.5414  1.0466 -0.3737
 7664SOL     OW28827   8.696   4.176   0.539 -0.0112 -0.1993  0.2405
 7664SOL    HW128828   8.619   4.154   0.592  0.1592  1.4590  1.2602
 7664SOL    HW228829   8.765   4.190   0.604  1.1488 -1.5407 -0.6583
 7665SOL     OW28830   7.260   1.915   3.699 -0.8782 -0.1508 -0.5898
 7665SOL    HW128831   7.316   1.975   3.650 -1.8252  2.3591  1.2137
 7665SOL    HW228832   7.205   1.875   3.632  1.8838 -1.5511 -2.2428
 7666SOL     OW28833   0.422   0.655  10.188  0.1546  0.4392  0.7834
 7666SOL    HW128834   0.352   0.693  10.135  0.2734 -1.7790 -1.0841
 7666SOL    HW228835   0.503   0.687  10.148  0.2473  1.0893  1.4680
 7667SOL     OW28836   1.627   7.687   5.409  0.5649  0.1746  0.3980
 7667SOL    HW128837   1.577   7.670   5.489  1.7150 -1.5751  0.8233
 7667SOL    HW228838   1.605   7.614   5.351  1.3974  0.2443 -0.0213
 7668SOL     OW28839   0.058   8.488   1.086  0.1759 -0.2405  0.0093
 7668SOL    HW128840   0.099   8.554   1.030  0.9867 -0.9606 -0.2605
 7668SOL    HW228841  -0.027   8.472   1.045  0.6844 -0.6208 -0.9277
 7669SOL     OW28842   4.783   7.313   1.912 -0.6418  0.4070  0.3355
 7669SOL    HW128843   4.792   7.223   1.881  1.4533  0.3982  0.8290
 7669SOL    HW228844   4.727   7.307   1.989  1.1746 -0.8399  1.6382
 7670SOL     OW28845   5.136   2.627   6.099 -0.4700  0.1456  0.4078
 7670SOL    HW128846   5.201   2.682   6.054  0.5385  0.2055  1.8656
 7670SOL    HW228847   5.153   2.539   6.065 -0.6654  0.4000 -0.3628
 7671SOL     OW28848   8.109   8.749   1.218 -0.0323 -0.0820  0.0818
 7671SOL    HW128849   8.107   8.664   1.175 -1.3454 -0.6699  1.2068
 7671SOL    HW228850   8.093   8.729   1.310 -0.3951  1.3793  0.3602
 7672SOL     OW28851   7.693   9.034   3.773 -0.0543 -0.4547  0.7232
 7672SOL    HW128852   7.747   9.086   3.833  1.7295 -0.3659 -0.8566
 7672SOL    HW228853   7.752   9.012   3.701 -2.0088 -0.8133 -0.8618
 7673SOL     OW28854  10.544   8.447   2.542  0.4366  0.1310  0.2439
 7673SOL    HW128855  10.456   8.434   2.576  0.6885  0.3134  1.0048
 7673SOL    HW228856  10.532   8.478   2.453 -0.2663  0.1494  0.3399
 7674SOL     OW28857   9.252  10.526  10.263 -0.0377  0.1114  0.1209
 7674SOL    HW128858   9.346  10.540  10.261 -0.1778  1.0717  0.0038
 7674SOL    HW228859   9.242  10.431  10.273  0.9333 -0.0178 -0.0770
 7675SOL     OW28860   5.761   9.465   7.866  0.2731  0.2455 -0.1927
 7675SOL    HW128861   5.833   9.402   7.864  0.7141  0.7520 -0.4341
 7675SOL    HW228862   5.798   9.541   7.911 -0.6472 -0.1363  1.2853
 7676SOL     OW28863   9.813   3.177   9.215  0.1227 -0.7189 -0.4354
 7676SOL    HW128864   9.799   3.271   9.208 -0.3979 -0.9089 -2.6857
 7676SOL    HW228865   9.888   3.169   9.275  0.6323  1.1516 -0.7414
 7677SOL     OW28866  10.194   9.228   9.378 -0.1180 -0.7817  0.0866
 7677SOL    HW128867  10.249   9.192   9.449  0.7423 -1.4754 -0.9000
 7677SOL    HW228868  10.218   9.321   9.375  1.8164 -1.2615 -0.9894
 7678SOL     OW28869   4.574   0.592   6.469  0.5158  0.2539  0.3577
 7678SOL    HW128870   4.540   0.601   6.380  0.3103 -1.9207  0.1393
 7678SOL    HW228871   4.508   0.539   6.514  1.7291 -0.6980  1.0869
 7679SOL     OW28872   7.163   1.942   7.644 -0.9726  0.3749  0.9022
 7679SOL    HW128873   7.136   1.873   7.584 -0.8073  1.7955 -0.8756
 7679SOL    HW228874   7.089   1.950   7.704 -1.4079 -0.6668  0.5385
 7680SOL     OW28875   3.609   0.888   5.164 -0.4933 -0.0132  0.3771
 7680SOL    HW128876   3.624   0.944   5.088  0.3231 -0.0124  0.5293
 7680SOL    HW228877   3.687   0.833   5.169 -0.9330 -0.6169  0.7026
 7681SOL     OW28878   8.189   0.488   9.931 -0.5168 -0.0416  0.2510
 7681SOL    HW128879   8.094   0.481   9.926 -0.7814  1.9113  1.3037
 7681SOL    HW228880   8.217   0.498   9.841 -1.3605 -0.1919 -0.0365
 7682SOL     OW28881   5.015   8.512   7.996 -0.4377  0.5655 -0.0198
 7682SOL    HW128882   5.101   8.500   7.957 -0.9677 -0.3151 -0.9661
 7682SOL    HW228883   5.030   8.570   8.070  0.7508  1.4923 -0.9560
 7683SOL     OW28884   4.225  10.356   1.615  0.1632  0.0795  0.3567
 7683SOL    HW128885   4.163  10.391   1.679  0.5387 -1.7020  1.7799
 7683SOL    HW228886   4.291  10.425   1.607 -0.9299  1.1601  0.3428
 7684SOL     OW28887   2.273   2.073   6.454  0.0144 -0.2027 -0.3849
 7684SOL    HW128888   2.289   2.137   6.384 -1.1159  0.0364 -0.4307
 7684SOL    HW228889   2.193   2.028   6.427 -0.8939  0.4428  1.1459
 7685SOL     OW28890   3.850   9.290   2.636  0.3578 -0.8295 -1.0889
 7685SOL    HW128891   3.838   9.203   2.597  2.8246 -0.7053 -2.3265
 7685SOL    HW228892   3.902   9.337   2.572 -2.2671  2.2045 -1.2229
 7686SOL     OW28893   5.128   5.251   8.376  0.0988 -0.2636  0.0612
 7686SOL    HW128894   5.109   5.322   8.438  0.6374 -0.7578  0.8150
 7686SOL    HW228895   5.185   5.192   8.425  0.6834 -0.5792 -0.9735
 7687SOL     OW28896   0.838   3.545   3.116 -0.0009  0.3899  0.2657
 7687SOL    HW128897   0.774   3.585   3.174 -1.6523 -2.2061  0.3676
 7687SOL    HW228898   0.903   3.506   3.174 -2.1626 -3.0538  0.6280
 7688SOL     OW28899   7.691   5.999   9.032 -0.3008 -0.3218  0.0739
 7688SOL    HW128900   7.785   6.008   9.018  0.2352 -2.5007  1.5788
 7688SOL    HW228901   7.651   6.029   8.951  1.5527  2.2950  0.0032
 7689SOL     OW28902   4.531   7.548  10.121  0.2096  0.0668  0.1447
 7689SOL    HW128903   4.536   7.558  10.216  0.5248  1.0447  0.0305
 7689SOL    HW228904   4.437   7.544  10.103  0.0814  1.6392  0.3409
 7690SOL     OW28905   6.385   9.698   6.711  0.2176  0.3256  0.2958
 7690SOL    HW128906   6.460   9.716   6.768 -0.1980  0.3487  0.8336
 7690SOL    HW228907   6.374   9.603   6.715  1.6405  0.0087 -1.5851
 7691SOL     OW28908  10.186  10.610   5.791 -0.6108 -0.0992 -0.2270
 7691SOL    HW128909  10.102  10.588   5.753 -0.0570 -1.3115 -0.7973
 7691SOL    HW228910  10.238  10.645   5.719  0.3777 -2.2284 -0.6254
 7692SOL     OW28911   9.772  10.070   3.269 -0.4956  0.5561 -0.4429
 7692SOL    HW128912   9.778  10.160   3.299 -0.2573  0.5923 -0.5966
 7692SOL    HW228913   9.756  10.077   3.175 -1.3330  0.4470 -0.3228
 7693SOL     OW28914   9.077   3.929   0.016 -0.0122  0.1639 -0.0276
 7693SOL    HW128915   9.042   3.964   0.097  0.8811  0.4398  0.2522
 7693SOL    HW228916   9.146   3.869   0.043  0.8434  0.8591 -0.5827
 7694SOL     OW28917   4.444   9.871   1.905 -0.1390 -0.8248  0.6001
 7694SOL    HW128918   4.417   9.785   1.937 -0.7746 -1.1808 -0.7954
 7694SOL    HW228919   4.539   9.872   1.913 -0.0591 -1.9832 -0.1150
 7695SOL     OW28920   0.854   6.335   3.553  0.0902  0.4375 -0.1290
 7695SOL    HW128921   0.887   6.299   3.635  0.8034 -0.9120 -0.9694
 7695SOL    HW228922   0.762   6.307   3.550  0.6907 -1.5890 -0.8732
 7696SOL     OW28923   4.298   7.226   8.170  0.0453  0.5861 -0.5003
 7696SOL    HW128924   4.372   7.236   8.229 -0.8579  0.4092  0.7211
 7696SOL    HW228925   4.311   7.140   8.130  0.7497  0.7690 -0.6703
 7697SOL     OW28926   0.472   1.390   6.736  0.2791 -1.0015 -0.4024
 7697SOL    HW128927   0.415   1.390   6.812 -0.0430 -2.9297 -0.5856
 7697SOL    HW228928   0.412   1.389   6.661  0.5901  0.9477 -0.7372
 7698SOL     OW28929   7.643   5.687   5.556 -0.4705 -0.0390 -0.1901
 7698SOL    HW128930   7.614   5.775   5.583  0.1325  0.7344 -1.8986
 7698SOL    HW228931   7.690   5.702   5.474  0.3370 -1.8881 -0.1019
 7699SOL     OW28932   3.381   6.322   4.451  0.2394  0.4497  0.1968
 7699SOL    HW128933   3.404   6.322   4.358 -0.1202  0.4694  0.1048
 7699SOL    HW228934   3.291   6.290   4.453 -0.3158  1.9306  0.3959
 7700SOL     OW28935   7.354   4.975   7.110  0.4913  0.4702 -0.1128
 7700SOL    HW128936   7.265   5.006   7.125 -0.1331 -1.2546  0.0201
 7700SOL    HW228937   7.385   4.950   7.198 -0.4176 -2.6389 -0.5352
 7701SOL     OW28938   3.047   9.204   0.151 -0.3305  0.1010 -0.2771
 7701SOL    HW128939   2.957   9.171   0.149 -0.1580 -0.7905 -4.9027
 7701SOL    HW228940   3.097   9.135   0.196 -1.3199 -1.9046 -2.0566
 7702SOL     OW28941   8.509   3.695   6.143 -0.3239  0.2105  0.0974
 7702SOL    HW128942   8.463   3.777   6.129  1.0169  1.1436  0.8251
 7702SOL    HW228943   8.583   3.698   6.082 -0.3065 -0.4838  0.0795
 7703SOL     OW28944   4.544   5.552   8.506  0.0340  0.0756  0.1244
 7703SOL    HW128945   4.590   5.510   8.433 -0.3575  1.9423 -1.2725
 7703SOL    HW228946   4.488   5.618   8.464 -1.0531  0.4578  2.0538
 7704SOL     OW28947   4.068   6.622   4.928  0.1152  0.1607  0.0753
 7704SOL    HW128948   4.116   6.560   4.983 -0.8163 -1.5574 -0.9420
 7704SOL    HW228949   3.976   6.599   4.941 -0.2259  0.9933 -0.7394
 7705SOL     OW28950   6.593   0.856   7.415 -0.2445  0.5677  0.2101
 7705SOL    HW128951   6.599   0.903   7.332  0.0062  0.1311 -0.0221
 7705SOL    HW228952   6.681   0.821   7.430 -0.8591 -1.4974 -0.6228
 7706SOL     OW28953   0.916   4.307   5.846  0.0982  0.4153  0.3093
 7706SOL    HW128954   0.903   4.318   5.940 -0.4090  0.1106  0.2791
 7706SOL    HW228955   1.010   4.296   5.836 -0.0382 -1.6551  1.0125
 7707SOL     OW28956  10.329   6.214   2.030  0.6668 -0.0959  0.7480
 7707SOL    HW128957  10.256   6.223   2.090 -0.9292 -0.5107 -1.0188
 7707SOL    HW228958  10.385   6.147   2.070 -0.2980 -0.2953  1.8035
 7708SOL     OW28959   9.654   0.750  10.117 -0.3762  0.1847 -0.0363
 7708SOL    HW128960   9.684   0.839  10.099 -0.8853  0.5445  0.8313
 7708SOL    HW228961   9.576   0.762  10.171 -1.0210 -0.7693 -0.7372
 7709SOL     OW28962   7.653   8.663   5.562  0.8990 -0.3862  0.1160
 7709SOL    HW128963   7.739   8.632   5.591  0.6157 -0.1539  1.2416
 7709SOL    HW228964   7.607   8.584   5.535  1.1570 -0.6225  0.3625
 7710SOL     OW28965   9.693   5.836   9.217  0.1830  0.2806 -0.0209
 7710SOL    HW128966   9.718   5.891   9.291 -0.5344  0.7351 -0.1072
 7710SOL    HW228967   9.624   5.885   9.173  0.8000  0.1493 -1.1661
 7711SOL     OW28968   8.718   5.754   2.296 -0.0005  0.1612 -0.0845
 7711SOL    HW128969   8.703   5.847   2.313 -0.6271 -0.1637  1.2317
 7711SOL    HW228970   8.798   5.752   2.242  0.8939  1.3861  1.1439
 7712SOL     OW28971   6.566   6.093   5.595 -0.3496 -0.2225  0.3367
 7712SOL    HW128972   6.550   6.177   5.552  1.0445  0.3371  0.8633
 7712SOL    HW228973   6.660   6.090   5.608 -0.6117 -0.7925  2.4915
 7713SOL     OW28974   1.368   3.872   1.208 -0.2369  0.1414 -0.8564
 7713SOL    HW128975   1.423   3.926   1.265  1.4316  0.2807 -2.5372
 7713SOL    HW228976   1.283   3.917   1.208 -0.0739  0.5374  0.9020
 7714SOL     OW28977   4.646   1.492   3.295 -0.0250  0.0548 -0.4230
 7714SOL    HW128978   4.650   1.524   3.205 -2.4041 -0.0659 -0.6169
 7714SOL    HW228979   4.554   1.472   3.310  0.1886  0.7480  2.3007
 7715SOL     OW28980   1.846   0.727   5.488 -0.3497  0.4574  0.5305
 7715SOL    HW128981   1.925   0.688   5.525  0.2941  0.7046 -0.5341
 7715SOL    HW228982   1.855   0.821   5.505 -1.0630  0.3608  1.5569
 7716SOL     OW28983   4.112   7.674   8.140  0.4365  0.0530 -0.2784
 7716SOL    HW128984   4.028   7.641   8.172  0.8713 -0.2182  0.6134
 7716SOL    HW228985   4.154   7.598   8.100  0.3594  0.1400 -0.5306
 7717SOL     OW28986   8.535   7.136  10.082 -0.3835  0.4537  0.2445
 7717SOL    HW128987   8.563   7.209  10.137 -1.6928  0.3523  1.1084
 7717SOL    HW228988   8.580   7.060  10.119  0.0757  0.6449  0.0854
 7718SOL     OW28989   4.268   3.762   5.624 -0.0317 -0.4149 -0.4593
 7718SOL    HW128990   4.256   3.705   5.700 -1.2020 -1.7127 -1.5634
 7718SOL    HW228991   4.325   3.712   5.566 -0.0782  0.0693 -0.9219
 7719SOL     OW28992   0.482   6.348  10.852  0.6718 -0.3483  0.3228
 7719SOL    HW128993   0.542   6.413  10.816 -0.9296 -0.2386 -2.3995
 7719SOL    HW228994   0.429   6.396  10.915 -1.2804  1.4417 -2.4981
 7720SOL     OW28995  10.039   8.222   3.057  0.0266 -0.2806  0.4104
 7720SOL    HW128996   9.995   8.307   3.052 -0.8050 -0.7577 -1.4047
 7720SOL    HW228997  10.043   8.192   2.966  1.9102 -1.4002  0.8116
 7721SOL     OW28998   6.158   1.156   4.453 -0.1150 -0.3893 -0.1907
 7721SOL    HW128999   6.172   1.134   4.361 -0.0231 -1.7152  0.1102
 7721SOL    HW229000   6.064   1.173   4.460 -0.5432 -2.4886 -0.1454
 7722SOL     OW29001   6.790   3.052   2.151  0.5910 -1.1116  0.6397
 7722SOL    HW129002   6.707   3.025   2.191 -1.6945  1.7894 -1.6405
 7722SOL    HW229003   6.784   3.019   2.061  1.0749  0.5375 -0.0306
 7723SOL     OW29004   5.383   3.966   4.901  0.0354  0.3304  0.0264
 7723SOL    HW129005   5.365   3.874   4.886  0.4567  0.0896  0.9193
 7723SOL    HW229006   5.383   3.975   4.997  0.6689  1.1175 -0.0388
 7724SOL     OW29007   6.599   1.478   1.975 -0.4735  0.4405 -0.2750
 7724SOL    HW129008   6.651   1.509   1.901 -0.4578 -0.3741 -0.6057
 7724SOL    HW229009   6.527   1.429   1.935  0.3791 -1.3202  0.2774
 7725SOL     OW29010  10.793   6.481   3.400 -0.1238 -0.2378 -0.0818
 7725SOL    HW129011  10.770   6.458   3.490 -0.3368 -2.6154 -0.6977
 7725SOL    HW229012  10.807   6.398   3.356 -0.3425  0.8589 -2.3691
 7726SOL     OW29013   2.497   8.995   3.242 -0.4061  0.3716 -0.4648
 7726SOL    HW129014   2.541   9.073   3.278  0.8530 -1.2568  1.7291
 7726SOL    HW229015   2.568   8.942   3.207 -1.0981 -0.4343 -0.6660
 7727SOL     OW29016   3.792   6.297   4.402 -0.1158  0.2349 -0.0021
 7727SOL    HW129017   3.739   6.375   4.388  0.3798  0.1391 -3.3360
 7727SOL    HW229018   3.882   6.326   4.387  0.4426 -0.3975  1.8050
 7728SOL     OW29019   2.560   6.655   9.307  0.2157  0.7146 -0.6124
 7728SOL    HW129020   2.591   6.743   9.286  1.0464  0.5846  0.0149
 7728SOL    HW229021   2.623   6.596   9.265 -0.2344  0.4165 -0.8801
 7729SOL     OW29022   3.910   2.804  10.400 -0.2170  0.4980  0.0979
 7729SOL    HW129023   3.998   2.779  10.372 -1.2417 -0.3352 -2.7450
 7729SOL    HW229024   3.871   2.722  10.431  0.2198  1.0375  2.2762
 7730SOL     OW29025   0.746   9.402   1.961 -0.1407  0.1835 -0.9024
 7730SOL    HW129026   0.765   9.494   1.942 -1.3573  0.5138 -0.5546
 7730SOL    HW229027   0.813   9.377   2.024  0.3608  0.7568 -1.1919
 7731SOL     OW29028   6.933   9.255   8.390  0.2235  0.0621 -0.0453
 7731SOL    HW129029   7.018   9.295   8.408  1.1112  0.2109 -3.7129
 7731SOL    HW229030   6.954   9.163   8.371 -0.3283  0.1693 -1.2636
 7732SOL     OW29031   9.265   2.245   2.448  0.2672  0.2616 -0.2506
 7732SOL    HW129032   9.250   2.339   2.439 -1.1461 -0.0186 -1.0892
 7732SOL    HW229033   9.179   2.206   2.438  1.1615 -1.3003 -2.7694
 7733SOL     OW29034   6.291   0.872   5.615  0.2179  0.1101 -0.3376
 7733SOL    HW129035   6.303   0.963   5.642  1.0011 -0.1529  0.2313
 7733SOL    HW229036   6.210   0.873   5.564 -0.3212  0.9391  0.4973
 7734SOL     OW29037   2.215   1.267   1.156  0.0735 -0.2066 -0.1824
 7734SOL    HW129038   2.273   1.217   1.097  1.1435 -0.2712  0.8857
 7734SOL    HW229039   2.157   1.201   1.193  1.3917 -0.6929  1.1202
 7735SOL     OW29040   4.007   1.027   3.606  0.8009 -0.3339  0.2307
 7735SOL    HW129041   4.045   0.942   3.624  0.0796 -0.6975  0.0726
 7735SOL    HW229042   3.945   1.042   3.677  0.8070 -0.0152  0.1726
 7736SOL     OW29043   7.354   0.152   7.915  0.1830  0.5062 -0.6956
 7736SOL    HW129044   7.317   0.185   7.997  0.9008  1.4311 -0.7219
 7736SOL    HW229045   7.449   0.149   7.931  0.3931  1.2714 -1.6658
 7737SOL     OW29046   9.571  10.547   8.885 -0.7240 -0.0416 -0.7636
 7737SOL    HW129047   9.586  10.575   8.975  0.6721 -0.4121 -0.8608
 7737SOL    HW229048   9.557  10.629   8.837 -0.2636  0.2523 -0.4100
 7738SOL     OW29049   3.606   5.931   7.796  0.3802 -0.2426  0.2143
 7738SOL    HW129050   3.562   6.016   7.800  1.0200  0.0788  0.5548
 7738SOL    HW229051   3.632   5.921   7.705 -0.7159 -0.6132 -0.0826
 7739SOL     OW29052   0.972   6.690  10.751 -0.0283  0.3092 -0.2187
 7739SOL    HW129053   1.003   6.705  10.661 -0.0691 -0.3496 -0.3447
 7739SOL    HW229054   1.040   6.637  10.791 -1.5199 -2.2676 -0.8903
 7740SOL     OW29055   9.960   1.207  10.060  0.1226  0.0511  0.2106
 7740SOL    HW129056  10.019   1.167  10.123 -2.0110 -1.7340  1.2099
 7740SOL    HW229057   9.962   1.300  10.081  0.0014 -0.4031  2.4623
 7741SOL     OW29058   8.433   6.965   0.945 -0.2496  0.2005  0.1563
 7741SOL    HW129059   8.480   6.890   0.980  2.8652  1.3791 -1.1221
 7741SOL    HW229060   8.405   6.938   0.858  0.8741  0.5062 -0.3052
 7742SOL     OW29061   0.641   9.188   5.061  0.0944  0.0384 -0.0058
 7742SOL    HW129062   0.601   9.117   5.011 -0.6741 -2.0955  3.3101
 7742SOL    HW229063   0.725   9.153   5.090  0.1057  0.7943  0.9328
 7743SOL     OW29064   5.640   1.265   7.918 -0.7535  0.8123  0.1240
 7743SOL    HW129065   5.595   1.276   7.834 -2.3735  0.7206  0.9263
 7743SOL    HW229066   5.586   1.200   7.965  1.5691 -1.1643  0.2595
 7744SOL     OW29067   2.301   0.041   9.888 -0.2560  0.3003 -0.0786
 7744SOL    HW129068   2.329   0.074   9.974  0.5268 -2.5408  0.8670
 7744SOL    HW229069   2.206   0.052   9.889 -0.2421  0.5039  1.0675
 7745SOL     OW29070   3.802   3.471   5.366 -0.4931 -0.0914  0.2661
 7745SOL    HW129071   3.849   3.388   5.377  0.8948  0.7806  1.1684
 7745SOL    HW229072   3.800   3.509   5.454 -0.3521  1.2235 -0.2783
 7746SOL     OW29073   3.576   4.018   9.687  0.6403 -0.3362 -0.1738
 7746SOL    HW129074   3.501   3.961   9.668  0.3735 -0.5898  1.4684
 7746SOL    HW229075   3.612   3.983   9.769  1.8050  0.5453 -0.2904
 7747SOL     OW29076   6.010   2.612   0.872  0.3448  0.1888 -0.0542
 7747SOL    HW129077   5.971   2.552   0.936  0.7587  0.1494  0.1626
 7747SOL    HW229078   5.939   2.671   0.849  0.3593  0.6309  0.9543
 7748SOL     OW29079  10.713   9.712   4.843 -0.5352 -0.5327 -0.6552
 7748SOL    HW129080  10.786   9.650   4.839  0.7635  0.9658 -2.0617
 7748SOL    HW229081  10.738   9.773   4.912 -1.0108 -0.6294 -0.3932
 7749SOL     OW29082   7.270   7.495   3.810 -0.1708 -0.2752  0.5595
 7749SOL    HW129083   7.210   7.541   3.869 -0.3430  0.1125  0.0951
 7749SOL    HW229084   7.256   7.403   3.829 -0.3851 -0.1605  0.9719
 7750SOL     OW29085   6.775   6.462   8.522 -0.0818 -0.5247  0.4423
 7750SOL    HW129086   6.838   6.512   8.574 -0.3946 -0.5988  0.9050
 7750SOL    HW229087   6.743   6.394   8.582  0.6978 -1.5945 -0.3303
 7751SOL     OW29088   6.397   0.507   6.575  0.2985 -0.5083 -0.0627
 7751SOL    HW129089   6.445   0.589   6.567 -0.9134  0.2471  0.0481
 7751SOL    HW229090   6.320   0.518   6.519 -1.0438 -0.6667  1.6681
 7752SOL     OW29091  10.338   6.311   6.385  0.1468 -0.5518  0.0893
 7752SOL    HW129092  10.336   6.221   6.351  0.8091 -0.5514  0.0416
 7752SOL    HW229093  10.251   6.323   6.424 -1.5255  0.2274 -3.5162
 7753SOL     OW29094   4.468   7.785   0.334  0.4397  0.2952  0.0995
 7753SOL    HW129095   4.384   7.829   0.346  1.0116  1.0538  1.5586
 7753SOL    HW229096   4.453   7.723   0.263 -1.4000  0.2595  0.4788
 7754SOL     OW29097   2.147   8.056   3.138  0.0820  0.3329 -0.2631
 7754SOL    HW129098   2.171   7.972   3.098  0.2493  1.1538 -1.9931
 7754SOL    HW229099   2.207   8.119   3.098 -0.3831  1.3593  0.6181
 7755SOL     OW29100   9.095   4.362   3.787 -0.3550  0.0886  0.7619
 7755SOL    HW129101   9.158   4.432   3.801 -0.6702  0.5650 -0.1433
 7755SOL    HW229102   9.144   4.296   3.737 -0.0111 -0.4226  1.7509
 7756SOL     OW29103  10.211   8.477  10.442  0.1820 -0.4676  0.5800
 7756SOL    HW129104  10.117   8.466  10.425  0.3393 -1.0784  0.0896
 7756SOL    HW229105  10.216   8.500  10.535 -0.6234  1.8796  0.1216
 7757SOL     OW29106   5.465  10.674   3.740 -0.0154  0.0266  0.6687
 7757SOL    HW129107   5.554  10.665   3.773  1.0510 -0.0697 -1.9782
 7757SOL    HW229108   5.457  10.607   3.672 -2.1405 -0.0163  0.8971
 7758SOL     OW29109   0.955   3.325   0.460 -0.2377 -0.4667  0.1861
 7758SOL    HW129110   1.045   3.323   0.430 -0.2079 -1.4500  0.3042
 7758SOL    HW229111   0.961   3.320   0.556 -0.4214 -0.8476  0.1799
 7759SOL     OW29112   5.436   2.317   9.421 -0.6527  0.1629 -0.3793
 7759SOL    HW129113   5.504   2.331   9.355  1.0824 -1.0210  1.0374
 7759SOL    HW229114   5.413   2.225   9.414 -0.7738  0.1283  0.3407
 7760SOL     OW29115   7.576   7.547   9.490  0.2109 -0.0287 -0.1673
 7760SOL    HW129116   7.486   7.578   9.505 -0.4749 -1.9962  0.0629
 7760SOL    HW229117   7.625   7.576   9.567 -0.7034 -0.6090  0.6509
 7761SOL     OW29118   0.430   9.976   4.810 -0.0668 -0.2141 -0.3736
 7761SOL    HW129119   0.454   9.892   4.848  2.3285  0.4935 -0.0883
 7761SOL    HW229120   0.469   9.975   4.722 -2.1235 -0.2973 -1.3464
 7762SOL     OW29121   0.095   7.004   5.637  0.0346  0.4011 -0.3218
 7762SOL    HW129122   0.114   7.077   5.695  1.0346  0.6561 -0.9542
 7762SOL    HW229123   0.176   6.989   5.588 -0.7954  0.2689 -1.7287
 7763SOL     OW29124   5.462   8.694   3.582 -0.0912 -0.5308  0.5281
 7763SOL    HW129125   5.484   8.660   3.496 -1.0311  1.3838 -0.5306
 7763SOL    HW229126   5.421   8.620   3.627  2.0804 -2.1182  0.0836
 7764SOL     OW29127   0.420   9.966   2.654 -0.1528  0.1841 -0.3282
 7764SOL    HW129128   0.418   9.897   2.589  1.7854  1.1895 -1.5608
 7764SOL    HW229129   0.487   9.937   2.717 -1.0717 -0.1649  0.5084
 7765SOL     OW29130   7.038   8.173   9.912 -0.7886 -0.0473 -0.2879
 7765SOL    HW129131   7.124   8.149   9.876 -0.3449  0.1164  0.6290
 7765SOL    HW229132   6.976   8.148   9.845 -0.4917 -4.5185  0.8165
 7766SOL     OW29133   7.588   6.078  10.711  0.7551  0.0268  0.2253
 7766SOL    HW129134   7.596   6.159  10.661 -0.9993  0.9347  1.3197
 7766SOL    HW229135   7.496   6.054  10.705  0.7031 -0.4240  2.0766
 7767SOL     OW29136   0.022   1.065   5.709  0.3221 -0.6457  0.3685
 7767SOL    HW129137  -0.033   1.079   5.633 -0.7447 -1.7048  0.9156
 7767SOL    HW229138  -0.028   1.006   5.765  1.3736 -0.4482  1.5771
 7768SOL     OW29139   9.383   6.139   6.337  0.0027  0.0115 -0.2867
 7768SOL    HW129140   9.321   6.150   6.265 -1.0202  0.0488  0.5784
 7768SOL    HW229141   9.344   6.072   6.392  0.0123  1.0503  1.0174
 7769SOL     OW29142   2.584   2.101   7.818  0.2236 -0.6574  0.0681
 7769SOL    HW129143   2.508   2.128   7.767  0.7954 -0.1690 -0.5419
 7769SOL    HW229144   2.556   2.109   7.909 -0.8180 -1.5716 -0.1527
 7770SOL     OW29145   7.725   4.590   9.754 -0.3232 -0.2907 -0.3362
 7770SOL    HW129146   7.637   4.582   9.792 -0.4309 -2.9588 -0.9762
 7770SOL    HW229147   7.717   4.662   9.691 -2.1652 -0.7212 -0.6500
 7771SOL     OW29148   6.219   1.062   5.316  1.0595  0.4343  0.5214
 7771SOL    HW129149   6.241   1.154   5.328 -0.0838  0.8938 -0.6874
 7771SOL    HW229150   6.123   1.059   5.321  0.9703 -0.4269 -0.9623
 7772SOL     OW29151   6.283   9.467   1.633 -0.0513 -0.1186  0.0711
 7772SOL    HW129152   6.288   9.556   1.600 -0.5532 -0.2149 -0.2857
 7772SOL    HW229153   6.303   9.412   1.557  0.9590 -0.2962  0.4599
 7773SOL     OW29154   3.900  10.130   7.270 -0.2499  0.5673 -0.0143
 7773SOL    HW129155   3.866  10.049   7.233 -0.4902  1.5002 -1.9467
 7773SOL    HW229156   3.848  10.144   7.349  0.3189 -1.5225  0.7969
 7774SOL     OW29157   3.779   7.660   9.106 -0.2455  0.3629  0.1659
 7774SOL    HW129158   3.765   7.752   9.127 -2.4826  0.1377 -0.0522
 7774SOL    HW229159   3.800   7.619   9.190 -0.7488  0.8393  0.5307
 7775SOL     OW29160   7.094   1.779   3.527  0.3816 -0.1069  0.1485
 7775SOL    HW129161   7.034   1.705   3.512 -0.9337  1.0563 -0.6465
 7775SOL    HW229162   7.058   1.850   3.473  1.5781  1.1350  0.9136
 7776SOL     OW29163  10.830   5.991  10.682  0.2504  0.3374  0.0437
 7776SOL    HW129164  10.786   5.908  10.665  0.9449  0.2286 -1.3657
 7776SOL    HW229165  10.762   6.046  10.721 -0.3094 -0.7594  0.6787
 7777SOL     OW29166   4.053   5.057   3.544 -0.4870  0.0200 -0.3900
 7777SOL    HW129167   4.113   5.020   3.479 -1.2195 -3.3064  0.6275
 7777SOL    HW229168   4.101   5.051   3.627 -0.7320  1.2655 -0.1299
 7778SOL     OW29169   1.144   2.497   9.442  0.0017  0.3153  0.1905
 7778SOL    HW129170   1.219   2.514   9.385 -0.3183 -0.2201 -0.4039
 7778SOL    HW229171   1.068   2.504   9.385 -0.4283  1.0562  0.8338
 7779SOL     OW29172   2.341   6.097   8.407  0.0449 -0.7611 -0.0180
 7779SOL    HW129173   2.417   6.040   8.419  0.0772 -0.3897  1.9641
 7779SOL    HW229174   2.371   6.164   8.345  0.7243 -1.6412 -0.6619
 7780SOL     OW29175   5.211   6.468   6.811  0.0510  0.2566  0.0336
 7780SOL    HW129176   5.259   6.409   6.869 -0.2606 -0.3085 -0.2796
 7780SOL    HW229177   5.185   6.414   6.737  0.2516  0.9221 -0.5341
 7781SOL     OW29178  10.053   2.057  10.371 -0.2513 -0.4670  0.4880
 7781SOL    HW129179  10.054   1.962  10.384  2.9032 -0.9301 -1.8575
 7781SOL    HW229180   9.985   2.072  10.306  1.3689 -1.6877 -1.6141
 7782SOL     OW29181   1.601   6.541   6.513 -0.0143  0.6552  0.2163
 7782SOL    HW129182   1.546   6.463   6.503 -0.2537  0.8620 -0.1125
 7782SOL    HW229183   1.584   6.592   6.434  0.6506  0.7237  0.1158
 7783SOL     OW29184   6.281   8.318   9.248 -0.0555 -0.2690  0.0818
 7783SOL    HW129185   6.254   8.400   9.208  1.6864 -0.4128 -1.5333
 7783SOL    HW229186   6.294   8.258   9.175  1.4225 -1.1046  0.9706
 7784SOL     OW29187   4.470   9.756  10.825 -0.3906 -0.3536 -0.5737
 7784SOL    HW129188   4.461   9.774  10.918  0.3882 -1.1489 -0.3360
 7784SOL    HW229189   4.396   9.698  10.805 -0.1963 -0.6984 -0.3066
 7785SOL     OW29190   3.143   0.939   3.039  0.4645  0.2660 -0.2265
 7785SOL    HW129191   3.120   0.914   3.128 -3.1009  1.2135 -0.7492
 7785SOL    HW229192   3.209   1.007   3.050  0.3567  0.1206  1.6532
 7786SOL     OW29193   7.829   6.550   5.001  0.5790  0.0635  0.1521
 7786SOL    HW129194   7.831   6.642   5.028 -0.7933  0.7272 -1.7340
 7786SOL    HW229195   7.761   6.510   5.054  0.1409  0.5324 -0.0492
 7787SOL     OW29196   2.977   6.655   5.021 -0.9958  0.1640 -0.3407
 7787SOL    HW129197   2.882   6.665   5.027 -1.4221 -1.8240 -2.3701
 7787SOL    HW229198   2.994   6.567   5.054  0.0332  0.1796 -0.8001
 7788SOL     OW29199   7.960   4.027   4.553 -0.8222  0.7460  0.3426
 7788SOL    HW129200   7.870   4.044   4.527 -0.0750  1.9521 -1.6584
 7788SOL    HW229201   7.967   3.931   4.556 -1.7893  0.6120 -0.9677
 7789SOL     OW29202   6.187   2.277   1.512 -0.2019  0.1028 -0.3174
 7789SOL    HW129203   6.210   2.313   1.426  0.6761  0.1369 -0.0822
 7789SOL    HW229204   6.161   2.353   1.564 -0.5250  0.1092 -0.4866
 7790SOL     OW29205   5.134   9.604   8.089  0.0334  0.4069  0.0918
 7790SOL    HW129206   5.181   9.646   8.017 -0.2667 -0.5357 -0.6637
 7790SOL    HW229207   5.181   9.522   8.104 -0.1053  0.4436  0.7541
 7791SOL     OW29208   9.214   9.942   8.584 -0.0727  0.4551  0.5380
 7791SOL    HW129209   9.263   9.878   8.635  1.2111  0.1629 -0.9822
 7791SOL    HW229210   9.209  10.019   8.640  0.1125 -0.2943  1.6035
 7792SOL     OW29211  10.439   4.284   9.673 -0.0706  0.3616  0.7484
 7792SOL    HW129212  10.360   4.230   9.680 -1.2310  1.7789 -0.5983
 7792SOL    HW229213  10.510   4.221   9.666 -1.2702 -0.9899  0.1703
 7793SOL     OW29214   0.836   5.432   7.114  0.0071 -0.4955  0.4204
 7793SOL    HW129215   0.770   5.470   7.057  0.3187 -0.2426  0.2222
 7793SOL    HW229216   0.850   5.498   7.182  0.0646 -0.5414  0.4539
 7794SOL     OW29217  10.191   4.376  10.605 -0.0116  0.6080 -0.5150
 7794SOL    HW129218  10.130   4.329  10.550  1.4811 -0.9772 -0.9157
 7794SOL    HW229219  10.247   4.308  10.643  0.0737  1.7865  1.6405
 7795SOL     OW29220   9.124   1.184   5.138 -0.1575 -0.3306 -0.2826
 7795SOL    HW129221   9.131   1.138   5.222 -0.0875  0.7756  0.3373
 7795SOL    HW229222   9.167   1.127   5.075  1.0594 -0.5268  0.7074
 7796SOL     OW29223   9.434   7.868   9.232  0.0131 -0.2865 -0.6217
 7796SOL    HW129224   9.478   7.862   9.147  0.2223  0.9089 -0.6127
 7796SOL    HW229225   9.483   7.808   9.288  1.4759  0.8052 -0.6915
 7797SOL     OW29226   8.770   8.132   9.443 -1.0268 -0.1176 -0.6259
 7797SOL    HW129227   8.848   8.165   9.398 -0.3161 -0.6160  0.1987
 7797SOL    HW229228   8.769   8.038   9.424 -1.0691 -0.2201 -0.1311
 7798SOL     OW29229   4.874   4.729   1.160 -0.0018 -0.1448 -0.3416
 7798SOL    HW129230   4.886   4.818   1.126 -1.2481 -0.5086 -1.8248
 7798SOL    HW229231   4.852   4.677   1.083 -0.9513 -1.4111  0.7512
 7799SOL     OW29232   9.744   3.712   9.763  0.3501 -0.2023  0.6110
 7799SOL    HW129233   9.789   3.659   9.696 -0.5850  0.1089 -0.2770
 7799SOL    HW229234   9.774   3.801   9.746 -0.6309  0.0208 -0.0405
 7800SOL     OW29235   0.388   3.953   7.100 -0.1720 -0.1962  0.2035
 7800SOL    HW129236   0.375   3.860   7.081 -2.7895 -0.1464  1.2964
 7800SOL    HW229237   0.350   3.965   7.187  0.7182  1.7819  0.3615
 7801SOL     OW29238  10.635   9.645   7.124 -0.2161 -0.8347  0.3765
 7801SOL    HW129239  10.611   9.641   7.032 -0.3025 -0.8106  0.3973
 7801SOL    HW229240  10.602   9.730   7.154  0.7801 -0.3530  0.1548
 7802SOL     OW29241   8.890   2.928   9.300 -0.4550 -0.0793  0.1581
 7802SOL    HW129242   8.929   2.954   9.383 -1.3110 -0.0558  0.5582
 7802SOL    HW229243   8.863   3.010   9.259 -1.0975 -0.1620  0.3979
 7803SOL     OW29244   9.202   5.068   1.435 -0.1461 -0.3727  0.1792
 7803SOL    HW129245   9.108   5.051   1.436  0.0873 -1.7371  0.5772
 7803SOL    HW229246   9.216   5.119   1.355 -1.1388 -0.7641 -0.2621
 7804SOL     OW29247   0.018   1.712   6.849 -0.1235 -0.3278 -0.4806
 7804SOL    HW129248   0.059   1.630   6.822  0.2007 -0.1199 -0.6262
 7804SOL    HW229249   0.036   1.773   6.778  1.1711  0.3668  0.4052
 7805SOL     OW29250  10.847   9.941   8.237 -0.2548  0.3764  0.4384
 7805SOL    HW129251  10.848   9.902   8.149 -0.9886  1.2807  0.0233
 7805SOL    HW229252  10.902  10.019   8.230 -0.4786  0.5624  0.7367
 7806SOL     OW29253   0.528   8.097   0.228  0.3467  0.2942  0.4090
 7806SOL    HW129254   0.487   8.138   0.303  0.1912  1.7414 -0.4391
 7806SOL    HW229255   0.583   8.165   0.189  2.6612 -1.2171  0.8042
 7807SOL     OW29256   3.568  10.897   2.455  0.5831 -0.4756 -0.0864
 7807SOL    HW129257   3.631  10.918   2.524  0.3968  0.0436 -0.0685
 7807SOL    HW229258   3.537  10.809   2.477 -0.3493  0.1269  1.1762
 7808SOL     OW29259   7.405   3.588   1.172 -0.5764  0.0100 -0.3594
 7808SOL    HW129260   7.362   3.515   1.128 -0.7869  0.6340 -1.2191
 7808SOL    HW229261   7.335   3.652   1.188 -0.0782  0.8334 -1.3468
 7809SOL     OW29262   7.147   3.633   0.433 -0.4189 -0.3561  0.0612
 7809SOL    HW129263   7.204   3.673   0.367  1.5680 -0.0961  1.8559
 7809SOL    HW229264   7.161   3.539   0.423  0.4392 -0.2878  0.5817
 7810SOL     OW29265   0.947   0.682   7.797 -0.3287 -0.4053  0.4141
 7810SOL    HW129266   0.993   0.681   7.713 -3.1396 -0.6279 -1.2472
 7810SOL    HW229267   0.965   0.769   7.833 -1.2256  0.7986 -1.8014
 7811SOL     OW29268   0.395   6.744   4.401  0.4710 -0.3679  0.2422
 7811SOL    HW129269   0.380   6.655   4.434 -0.6396 -0.9049 -1.5827
 7811SOL    HW229270   0.319   6.793   4.432  0.2951 -0.4495 -0.0555
 7812SOL     OW29271  10.755   2.200   5.378  0.8008 -0.0362 -0.0624
 7812SOL    HW129272  10.728   2.167   5.463 -1.2363 -0.4955 -0.8231
 7812SOL    HW229273  10.776   2.122   5.326  0.5116  0.1420 -0.4551
 7813SOL     OW29274   1.071   1.721   4.019  0.0335 -0.2668  0.6543
 7813SOL    HW129275   1.132   1.677   3.959 -0.3068 -1.9665  1.4760
 7813SOL    HW229276   1.000   1.752   3.964  1.8864  2.3417 -0.4230
 7814SOL     OW29277   3.371   3.661   6.148 -0.3832  0.3521  0.4559
 7814SOL    HW129278   3.359   3.741   6.200  2.3725  1.0948  0.1098
 7814SOL    HW229279   3.386   3.592   6.213  3.1900  1.3008  0.8917
 7815SOL     OW29280   4.262   3.354   0.513  0.3445 -0.2741  0.1241
 7815SOL    HW129281   4.209   3.434   0.517 -0.0064 -0.3697 -1.7212
 7815SOL    HW229282   4.350   3.382   0.539  0.1465  0.6263 -0.1475
 7816SOL     OW29283   4.218   4.149  10.694 -0.4089 -0.3052 -0.3448
 7816SOL    HW129284   4.249   4.215  10.631 -0.3938 -0.6081 -0.6607
 7816SOL    HW229285   4.283   4.151  10.765  0.0428 -0.5444 -0.7409
 7817SOL     OW29286   6.700   1.298   2.607 -0.4363  0.2349 -0.1149
 7817SOL    HW129287   6.692   1.206   2.632 -0.1322 -0.4047 -2.1886
 7817SOL    HW229288   6.611   1.332   2.611 -0.3158  0.4263  2.5093
 7818SOL     OW29289   7.980   0.717   5.947 -0.0890  0.1987  0.2736
 7818SOL    HW129290   7.961   0.797   5.898  1.8087  0.6182  0.1382
 7818SOL    HW229291   7.981   0.745   6.039  0.4803  0.3308  0.2328
 7819SOL     OW29292   2.997   5.249   9.826  0.1138 -0.1705  0.5739
 7819SOL    HW129293   3.024   5.194   9.900  2.2915 -0.2652 -0.2342
 7819SOL    HW229294   2.981   5.335   9.864 -0.9450 -0.7211  1.4577
 7820SOL     OW29295   0.453   8.830   9.546  0.4235  0.0813  0.1119
 7820SOL    HW129296   0.476   8.902   9.605  1.4966 -0.1225 -0.0443
 7820SOL    HW229297   0.537   8.793   9.520 -0.1180 -1.8275  0.9222
 7821SOL     OW29298   4.742   2.927   4.305  0.5811  0.2530  0.4554
 7821SOL    HW129299   4.785   2.930   4.391  1.8835  0.1026 -0.1660
 7821SOL    HW229300   4.733   2.833   4.287  1.0854  0.2738  0.0703
 7822SOL     OW29301   7.664   5.988   0.037  0.3130 -0.2957  0.7367
 7822SOL    HW129302   7.616   5.912   0.069  2.1071 -1.9747 -0.3587
 7822SOL    HW229303   7.622   6.011  -0.045 -0.6520  0.3607  1.3942
 7823SOL     OW29304   0.886   2.204   5.757 -1.0805 -0.1319 -0.3513
 7823SOL    HW129305   0.980   2.224   5.755 -0.8506 -1.1643 -0.5637
 7823SOL    HW229306   0.851   2.260   5.826 -0.4070  0.6472 -0.6169
 7824SOL     OW29307   7.494   4.664   4.059  0.0926  0.2305 -0.1447
 7824SOL    HW129308   7.494   4.755   4.089 -2.9477  0.3814 -0.2893
 7824SOL    HW229309   7.424   4.660   3.995  0.3323 -2.1766 -0.3474
 7825SOL     OW29310   0.280   1.457   1.268  0.2502  0.0666 -0.7612
 7825SOL    HW129311   0.281   1.381   1.209 -0.1407 -0.3713 -0.2264
 7825SOL    HW229312   0.258   1.531   1.211 -1.2861 -0.5200 -1.0082
 7826SOL     OW29313   4.242   6.466   6.949 -0.2532 -0.2177 -0.7548
 7826SOL    HW129314   4.189   6.392   6.977  1.1522 -0.5012  1.2920
 7826SOL    HW229315   4.193   6.543   6.979  0.0754 -0.4487  0.3972
 7827SOL     OW29316   5.013  10.489   7.809  0.2675 -0.5092 -0.1500
 7827SOL    HW129317   4.986  10.405   7.847 -1.7628  0.0845 -0.1669
 7827SOL    HW229318   5.105  10.497   7.833 -0.2508 -1.3701  2.4454
 7828SOL     OW29319   5.244   8.568   9.520  0.0604  0.1604 -0.5541
 7828SOL    HW129320   5.201   8.583   9.436  1.8178  0.0235 -1.5248
 7828SOL    HW229321   5.176   8.530   9.575 -1.0854  0.0454 -1.9831
 7829SOL     OW29322   8.457   8.426   6.213 -0.2994  0.0961  0.9372
 7829SOL    HW129323   8.390   8.475   6.165  0.1615 -0.2550 -0.1090
 7829SOL    HW229324   8.469   8.346   6.161 -0.3863 -0.7040  2.1095
 7830SOL     OW29325   7.475   5.491   2.202 -0.1653  0.0399  0.2630
 7830SOL    HW129326   7.520   5.418   2.159 -1.1761 -0.4808  0.0625
 7830SOL    HW229327   7.386   5.488   2.167 -0.2481  1.3191  0.3199
 7831SOL     OW29328   4.692   2.657   3.555 -0.3982 -0.2220 -0.2586
 7831SOL    HW129329   4.708   2.716   3.481 -1.9359  0.0698 -0.3920
 7831SOL    HW229330   4.645   2.711   3.619 -1.0665 -1.0610 -0.0209
 7832SOL     OW29331   8.697  10.649   3.559 -0.1775  0.1385 -0.2252
 7832SOL    HW129332   8.763  10.598   3.512 -2.0484 -0.7393 -2.0840
 7832SOL    HW229333   8.650  10.583   3.611  1.3400  0.9814  2.3861
 7833SOL     OW29334   5.926   1.365   0.803 -0.0106  0.4376 -0.0935
 7833SOL    HW129335   5.999   1.387   0.745  0.2352 -0.5871 -0.1977
 7833SOL    HW229336   5.908   1.273   0.785  0.2783 -0.0054  1.6994
 7834SOL     OW29337   4.609   9.917   1.127 -0.3198 -0.1144  0.1927
 7834SOL    HW129338   4.608   9.941   1.034  1.6265  1.0692  0.4020
 7834SOL    HW229339   4.533   9.860   1.139 -0.0924 -1.0532 -2.3160
 7835SOL     OW29340   8.930   7.317   8.054  0.6207 -0.3835  0.4191
 7835SOL    HW129341   9.002   7.253   8.051  0.6384 -0.4586  1.9477
 7835SOL    HW229342   8.953   7.381   7.986  3.1545  0.6136  2.0729
 7836SOL     OW29343   2.054   4.149   3.552 -0.0326  0.3376 -0.2366
 7836SOL    HW129344   2.108   4.182   3.624 -0.7829 -1.1005  1.0411
 7836SOL    HW229345   2.056   4.053   3.562 -1.5579  0.1845 -1.0781
 7837SOL     OW29346   4.333   3.674   8.731 -0.0316  0.4766 -0.5826
 7837SOL    HW129347   4.261   3.612   8.740 -0.8490  1.5687  1.0350
 7837SOL    HW229348   4.397   3.629   8.676 -1.0029 -1.3988 -0.2785
 7838SOL     OW29349   8.881   4.525   8.304  0.3917  0.4115  0.4802
 7838SOL    HW129350   8.884   4.600   8.364  1.4374  0.8114 -0.0399
 7838SOL    HW229351   8.943   4.549   8.234  0.8084 -0.9830  0.3530
 7839SOL     OW29352   8.028  10.408   0.591 -0.5228 -0.1334 -0.5550
 7839SOL    HW129353   8.118  10.402   0.623 -1.4357 -1.4669  2.0164
 7839SOL    HW229354   8.020  10.338   0.527  0.3032  0.1164 -0.9400
 7840SOL     OW29355   9.241   4.445   9.801  0.1469 -0.2407 -0.3014
 7840SOL    HW129356   9.245   4.351   9.820 -1.4254 -0.5789 -1.4402
 7840SOL    HW229357   9.332   4.474   9.804  0.7587 -1.9892 -0.7598
 7841SOL     OW29358   8.196   5.755   3.425  0.3857  0.3625  0.5710
 7841SOL    HW129359   8.239   5.671   3.437  1.0392  0.7561  1.0549
 7841SOL    HW229360   8.131   5.739   3.356  1.9146 -0.0373 -0.8476
 7842SOL     OW29361   0.105   0.212   3.349  0.4621  0.0380  0.3206
 7842SOL    HW129362   0.185   0.160   3.345  1.7045  1.9045 -1.9151
 7842SOL    HW229363   0.088   0.225   3.442  3.5562  0.6491  0.8980
 7843SOL     OW29364   2.118   4.734   0.318 -0.0753 -0.1486  0.1799
 7843SOL    HW129365   2.078   4.650   0.341  0.1937  0.3141  2.6564
 7843SOL    HW229366   2.210   4.725   0.343  0.1912  0.5317 -0.5231
 7844SOL     OW29367   8.157   4.126   3.507  0.9409 -0.6505 -0.6678
 7844SOL    HW129368   8.227   4.142   3.570 -1.2579 -1.6581  2.2523
 7844SOL    HW229369   8.127   4.212   3.481  1.7736 -0.2154 -0.2294
 7845SOL     OW29370   1.435   9.466   9.407  0.4839  0.2081 -0.0300
 7845SOL    HW129371   1.508   9.445   9.466 -0.4655  0.8346  1.4403
 7845SOL    HW229372   1.472   9.531   9.347  0.8760  1.3940  1.4174
 7846SOL     OW29373   1.015   3.572   0.739  0.7421 -0.7138 -0.3307
 7846SOL    HW129374   1.042   3.591   0.649  1.3773  0.4458  0.0816
 7846SOL    HW229375   1.066   3.495   0.763  2.5365  0.4881 -0.1178
 7847SOL     OW29376  10.111   2.941   9.172 -0.0614 -0.1159 -0.6351
 7847SOL    HW129377  10.152   2.858   9.193 -0.0621 -0.3773 -1.6492
 7847SOL    HW229378  10.017   2.922   9.174 -0.4726  1.0450  4.2895
 7848SOL     OW29379   5.398   5.555   9.513 -0.4445  0.4006 -0.7517
 7848SOL    HW129380   5.450   5.490   9.560  0.4926  0.4664 -1.6753
 7848SOL    HW229381   5.316   5.509   9.492 -0.1755 -0.1700 -0.5570
 7849SOL     OW29382   2.500   8.489   6.234 -0.2333  0.2794 -0.3291
 7849SOL    HW129383   2.459   8.441   6.306  0.7840  0.4403  0.3783
 7849SOL    HW229384   2.494   8.430   6.159 -1.1596  0.0403 -0.0878
 7850SOL     OW29385   8.750   7.707   8.337 -0.2453  0.2346  0.5636
 7850SOL    HW129386   8.816   7.767   8.301 -0.9391  0.9880  0.5065
 7850SOL    HW229387   8.704   7.673   8.260 -1.0075  1.0043  0.6544
 7851SOL     OW29388   0.777   2.948   4.682  0.0666 -0.1837 -0.2532
 7851SOL    HW129389   0.759   3.037   4.712 -0.7871 -0.4670  0.1160
 7851SOL    HW229390   0.842   2.959   4.613 -0.3864  0.7678 -0.5477
 7852SOL     OW29391   1.699   0.100  10.663  0.6476 -0.5103 -0.0746
 7852SOL    HW129392   1.620   0.118  10.713  2.7402 -0.5223  3.5395
 7852SOL    HW229393   1.725   0.186  10.627 -1.3563 -0.6624 -2.0929
 7853SOL     OW29394   9.646   5.384   3.469  0.6529 -0.6710 -0.4751
 7853SOL    HW129395   9.737   5.385   3.437  1.3768  0.3011  1.4478
 7853SOL    HW229396   9.652   5.349   3.558 -1.2034 -2.7293 -1.0919
 7854SOL     OW29397   9.150   1.683   5.037  0.0385  0.0359  0.1156
 7854SOL    HW129398   9.059   1.667   5.064  0.7185 -0.5598  2.2207
 7854SOL    HW229399   9.196   1.601   5.055  0.8656  0.0235 -1.7739
 7855SOL     OW29400   7.010   8.923   4.523  0.6398 -0.3190 -0.1819
 7855SOL    HW129401   6.940   8.901   4.462 -0.7729 -0.0043  1.2315
 7855SOL    HW229402   6.968   8.981   4.587  2.3480  0.3360  0.4060
 7856SOL     OW29403   5.297   4.633   0.630 -0.3211  0.0701 -0.7627
 7856SOL    HW129404   5.289   4.690   0.554 -0.6022 -0.0128 -0.7989
 7856SOL    HW229405   5.297   4.692   0.705 -2.7028  0.0515 -0.6637
 7857SOL     OW29406   2.784   8.743   7.219  0.0620 -0.4335  0.2629
 7857SOL    HW129407   2.835   8.698   7.286  0.2702 -0.5533  0.0283
 7857SOL    HW229408   2.745   8.673   7.167 -0.9194 -0.3474  0.8607
 7858SOL     OW29409   3.329   7.656   3.990 -0.1616  0.1150  0.3807
 7858SOL    HW129410   3.295   7.684   4.075 -0.3308 -0.6702  0.5814
 7858SOL    HW229411   3.392   7.587   4.012  0.3684  0.4445 -0.0858
 7859SOL     OW29412   8.904   2.773   4.897 -0.4483 -0.3390 -0.4688
 7859SOL    HW129413   8.864   2.819   4.823 -0.6172 -1.9994 -1.4484
 7859SOL    HW229414   8.892   2.681   4.877  2.5237 -0.9032 -0.0473
 7860SOL     OW29415   8.993   2.709  10.646  0.3573  0.3905 -0.3930
 7860SOL    HW129416   9.030   2.620  10.645  0.8562  0.5965 -1.1084
 7860SOL    HW229417   9.024   2.746  10.729 -2.6066 -1.1995  1.5898
 7861SOL     OW29418   7.445   7.322   2.729  0.0228  0.0761  0.7237
 7861SOL    HW129419   7.446   7.404   2.779  0.3128  0.2123  0.4967
 7861SOL    HW229420   7.535   7.290   2.735  0.5505  1.0611 -1.3092
 7862SOL     OW29421   7.068   8.406   8.243 -0.7987  0.1217 -0.0889
 7862SOL    HW129422   7.076   8.319   8.205 -1.3286  0.6685 -1.5168
 7862SOL    HW229423   6.974   8.420   8.253 -0.6788 -0.0418  1.5773
 7863SOL     OW29424   5.197   6.400   6.142  0.4551  0.3487 -0.0542
 7863SOL    HW129425   5.121   6.410   6.199  0.8336 -1.4607  0.8482
 7863SOL    HW229426   5.214   6.488   6.108 -1.1310  1.0498  0.8795
 7864SOL     OW29427   0.392   5.959   1.134 -0.1704  0.1547 -0.5228
 7864SOL    HW129428   0.345   6.042   1.128 -1.8711 -0.7636 -0.6033
 7864SOL    HW229429   0.337   5.904   1.190  2.6138  0.1261  2.5091
 7865SOL     OW29430   8.236   4.759   6.224 -0.1427 -0.4652 -0.1046
 7865SOL    HW129431   8.165   4.780   6.285 -1.4121 -0.5946 -1.4901
 7865SOL    HW229432   8.199   4.775   6.137  1.6327 -0.2534 -0.8612
 7866SOL     OW29433   8.817   2.446   9.337 -0.0735  0.0042 -0.1490
 7866SOL    HW129434   8.802   2.359   9.374 -0.1398  0.4493  0.9023
 7866SOL    HW229435   8.731   2.473   9.304 -0.8874  1.0385  2.5720
 7867SOL     OW29436   0.308   8.730   1.491 -0.7948  0.2416  0.1193
 7867SOL    HW129437   0.393   8.774   1.481  1.0226 -2.8597  0.5753
 7867SOL    HW229438   0.254   8.767   1.422  1.3586  1.4434 -1.0465
 7868SOL     OW29439   8.859   0.722   6.337 -0.2763 -0.3414  0.2122
 7868SOL    HW129440   8.798   0.717   6.410 -0.5895 -0.6652 -0.0687
 7868SOL    HW229441   8.939   0.758   6.375 -0.5582 -0.1576  0.6351
 7869SOL     OW29442   1.640   6.707   9.860 -0.0582  0.0406 -0.1575
 7869SOL    HW129443   1.627   6.614   9.841 -0.4135  0.1492 -0.4419
 7869SOL    HW229444   1.637   6.712   9.956  1.6110 -0.4825 -0.0483
 7870SOL     OW29445   6.816   2.883   3.974  0.0764  0.9346  0.0127
 7870SOL    HW129446   6.743   2.940   3.949 -2.3120 -1.4391  1.0652
 7870SOL    HW229447   6.823   2.820   3.902  0.2081  0.3815  0.5023
 7871SOL     OW29448   0.325   6.042   5.869  0.2908 -0.1394  0.1961
 7871SOL    HW129449   0.315   6.135   5.853 -2.1398 -0.4134 -0.2913
 7871SOL    HW229450   0.324   6.033   5.964 -1.8631  0.1980  0.2594
 7872SOL     OW29451   0.691   8.209   6.186  0.2117  0.4307 -0.3705
 7872SOL    HW129452   0.762   8.270   6.165  2.8344 -1.7296  1.5128
 7872SOL    HW229453   0.688   8.209   6.282 -0.8296 -1.1497 -0.3739
 7873SOL     OW29454   3.354   6.765   9.548 -0.2518  0.1233 -0.1791
 7873SOL    HW129455   3.391   6.780   9.634  1.7149  1.1706 -1.1501
 7873SOL    HW229456   3.302   6.843   9.529  0.8715  0.7733 -0.6804
 7874SOL     OW29457  10.263   3.193   5.244  0.0290 -0.0873 -0.3941
 7874SOL    HW129458  10.254   3.284   5.217 -0.0672 -0.0456 -0.2226
 7874SOL    HW229459  10.220   3.143   5.174  0.8191 -0.0569 -0.9105
 7875SOL     OW29460   1.256   0.314   9.660  0.1747  0.4267  0.1874
 7875SOL    HW129461   1.163   0.315   9.638  0.2212 -0.5644 -0.1259
 7875SOL    HW229462   1.269   0.391   9.716 -1.2927 -0.6647  2.1538
 7876SOL     OW29463   4.509   6.812   4.119  0.0491 -0.2299  0.7117
 7876SOL    HW129464   4.512   6.779   4.029 -0.8142 -0.6149  0.8140
 7876SOL    HW229465   4.425   6.859   4.124 -0.2691 -0.8745  1.5297
 7877SOL     OW29466   8.844   0.808   9.002  0.2597 -0.1030 -0.3155
 7877SOL    HW129467   8.866   0.785   8.911 -0.5667  3.4711 -1.5884
 7877SOL    HW229468   8.754   0.777   9.013  1.0596 -2.4728  0.1342
 7878SOL     OW29469   4.205   5.244   7.271 -0.4462  0.2073 -0.0204
 7878SOL    HW129470   4.200   5.164   7.323  1.2858  1.2185  1.8804
 7878SOL    HW229471   4.299   5.258   7.257 -0.7071  1.8275 -0.4001
 7879SOL     OW29472  10.613   7.698   4.152 -0.2873  0.4338 -0.1176
 7879SOL    HW129473  10.578   7.781   4.187 -2.3057 -0.5019  0.2207
 7879SOL    HW229474  10.699   7.690   4.193 -1.6470  0.4646  3.1399
 7880SOL     OW29475   8.424   5.685   7.413 -0.1799  0.2682 -0.3388
 7880SOL    HW129476   8.487   5.685   7.341  0.0653  0.7539 -0.1323
 7880SOL    HW229477   8.402   5.593   7.427  2.0993 -0.1460  0.9721
 7881SOL     OW29478   0.443   3.235   4.336 -0.2342  0.3019  0.4535
 7881SOL    HW129479   0.488   3.155   4.364 -1.6208  0.0477  2.0529
 7881SOL    HW229480   0.486   3.258   4.253 -1.5560 -3.6328 -1.5653
 7882SOL     OW29481   3.422   2.372   8.570  0.0073  0.0781 -0.1176
 7882SOL    HW129482   3.408   2.464   8.546 -0.6044  0.0274  0.0081
 7882SOL    HW229483   3.333   2.335   8.574  0.1785 -0.2553  0.8518
 7883SOL     OW29484   8.374   9.095   6.778  0.9062 -0.4289 -0.8592
 7883SOL    HW129485   8.426   9.050   6.712  2.4099  0.1823 -0.1430
 7883SOL    HW229486   8.400   9.187   6.771 -0.0798 -0.1065 -0.4756
 7884SOL     OW29487  10.761   1.228   8.991  0.3247 -0.2210 -0.4346
 7884SOL    HW129488  10.790   1.169   8.920  1.4391 -1.3372  0.8829
 7884SOL    HW229489  10.819   1.304   8.984 -0.6052  0.4228 -1.6556
 7885SOL     OW29490   6.681   4.586   2.232 -0.0417  0.2410 -0.6563
 7885SOL    HW129491   6.647   4.500   2.206 -0.3849  0.9522 -2.7223
 7885SOL    HW229492   6.769   4.567   2.266 -0.9908 -1.1641  1.2169
 7886SOL     OW29493  10.898   0.594  10.652 -0.4374  0.3965 -0.6114
 7886SOL    HW129494  10.872   0.653  10.723  3.3723 -0.2153  1.5596
 7886SOL    HW229495  10.910   0.509  10.696  1.3059 -0.1945 -2.1359
 7887SOL     OW29496   9.345   1.281   3.732  0.1815 -0.5229 -0.7968
 7887SOL    HW129497   9.325   1.198   3.776 -0.4969  0.7631  1.5180
 7887SOL    HW229498   9.420   1.316   3.780 -1.0662  1.3135 -0.0706
 7888SOL     OW29499   9.958   0.271   8.907  0.1712 -0.1111 -0.0077
 7888SOL    HW129500   9.999   0.202   8.855  0.9561  1.1891 -1.1937
 7888SOL    HW229501  10.026   0.297   8.969  0.6720  1.0131 -0.9779
 7889SOL     OW29502   9.205   4.800   1.605  0.8864 -0.0603 -0.4567
 7889SOL    HW129503   9.176   4.749   1.680  0.4187 -1.7854 -1.7444
 7889SOL    HW229504   9.271   4.745   1.563 -0.4145 -0.1576 -2.5068
 7890SOL     OW29505   0.518   2.413  10.274  0.1961  0.2283 -0.2789
 7890SOL    HW129506   0.609   2.442  10.280  0.7118 -1.4237  0.4221
 7890SOL    HW229507   0.478   2.445  10.355  0.6292 -0.5319  0.2507
 7891SOL     OW29508   5.767   2.041   6.998 -0.1044 -0.3638  0.6580
 7891SOL    HW129509   5.801   1.965   7.046  1.5902 -0.5209 -0.7056
 7891SOL    HW229510   5.711   2.004   6.931 -0.1398 -0.3429  0.6762
 7892SOL     OW29511   8.437   5.940   1.700  0.0457 -0.4171  0.1390
 7892SOL    HW129512   8.446   5.845   1.690 -0.7381 -0.6408  1.3584
 7892SOL    HW229513   8.520   5.975   1.668 -0.2751 -1.3726 -1.9375
 7893SOL     OW29514   3.422   7.772   3.601 -0.0393  0.8280 -0.3044
 7893SOL    HW129515   3.425   7.677   3.597  0.2518  0.8194  0.0607
 7893SOL    HW229516   3.350   7.791   3.662 -1.5879  0.8866 -2.0713
 7894SOL     OW29517   2.155   4.040   0.295 -0.2426 -0.4194 -0.6727
 7894SOL    HW129518   2.125   4.119   0.341 -0.3632 -0.1527 -1.2026
 7894SOL    HW229519   2.119   3.967   0.346  0.9850 -0.1867  0.6195
 7895SOL     OW29520  10.046   3.540   2.530 -0.4556  0.0141  0.2816
 7895SOL    HW129521  10.131   3.519   2.568  0.1029 -0.1791 -1.0099
 7895SOL    HW229522  10.017   3.618   2.578  1.3477  1.2348 -0.5180
 7896SOL     OW29523  10.721   5.731  10.621 -0.3830  0.2151 -0.4810
 7896SOL    HW129524  10.640   5.716  10.669 -0.2698  0.3609 -0.2410
 7896SOL    HW229525  10.693   5.760  10.534 -0.5977 -0.8374 -0.7769
 7897SOL     OW29526   6.518   6.504   8.403  0.6539 -0.1278 -0.2685
 7897SOL    HW129527   6.500   6.548   8.320  0.5449 -0.1291 -0.2453
 7897SOL    HW229528   6.601   6.541   8.433  0.7075 -0.1491 -0.3929
 7898SOL     OW29529   0.728   3.850   5.849 -0.0184  0.0815  0.5198
 7898SOL    HW129530   0.714   3.866   5.943 -0.7605 -1.0948  0.6285
 7898SOL    HW229531   0.824   3.848   5.839  0.0935 -1.1147  1.5202
 7899SOL     OW29532   6.106   1.516   1.486 -0.0611  0.1886  0.1553
 7899SOL    HW129533   6.180   1.533   1.427 -0.4251  0.9060 -0.1058
 7899SOL    HW229534   6.037   1.575   1.455 -1.0896 -1.1721 -0.2235
 7900SOL     OW29535   0.688   6.986   4.002  0.1209 -0.1414 -0.1772
 7900SOL    HW129536   0.777   7.005   3.972  0.5226  0.0556  1.1196
 7900SOL    HW229537   0.676   6.893   3.980  1.4931 -0.8038  1.6490
 7901SOL     OW29538   3.698   5.899   6.130 -0.0993 -0.1913  0.5899
 7901SOL    HW129539   3.715   5.855   6.047  2.0141 -0.1144  0.9332
 7901SOL    HW229540   3.665   5.985   6.105  1.8468  0.3663 -0.2668
 7902SOL     OW29541   0.159   1.449   9.828 -0.1551 -0.2019 -0.1614
 7902SOL    HW129542   0.240   1.494   9.852  0.0436 -0.6850  0.0904
 7902SOL    HW229543   0.184   1.392   9.756 -0.8568  1.6153 -1.9197
 7903SOL     OW29544   3.210   0.302   3.952  0.2897  0.2953  0.0093
 7903SOL    HW129545   3.168   0.363   3.891  0.8511  0.0633 -0.6249
 7903SOL    HW229546   3.183   0.333   4.039  0.5081  1.4217 -0.2996
 7904SOL     OW29547  10.924   0.021   9.854 -0.3044 -0.6388 -0.6163
 7904SOL    HW129548  10.903  -0.002   9.763 -0.7687 -2.1705 -0.1405
 7904SOL    HW229549  10.849  -0.010   9.904  0.1628 -0.2245  0.3603
 7905SOL     OW29550   5.105   2.510   8.441  0.3458  0.5027 -0.3449
 7905SOL    HW129551   5.127   2.471   8.357 -0.1352  2.5196 -1.4902
 7905SOL    HW229552   5.186   2.551   8.471  0.2079  0.8844 -0.4830
 7906SOL     OW29553   6.358   1.460   8.762  0.4924 -0.0567  0.3349
 7906SOL    HW129554   6.400   1.455   8.677 -1.4621 -1.9158 -0.6156
 7906SOL    HW229555   6.426   1.490   8.822  1.5392  2.7879 -2.0944
 7907SOL     OW29556   9.706   5.606   8.338 -0.8566 -0.3308  0.0888
 7907SOL    HW129557   9.617   5.595   8.372 -1.0315  2.2608  0.6487
 7907SOL    HW229558   9.733   5.517   8.312 -2.5924 -1.6378  2.3608
 7908SOL     OW29559   3.771   4.190   7.292 -0.2872 -0.1997  0.5712
 7908SOL    HW129560   3.807   4.266   7.338 -1.8097 -0.5603  2.4622
 7908SOL    HW229561   3.847   4.150   7.251  1.0564  0.6026  2.1361
 7909SOL     OW29562   7.384   0.972   4.969  0.0329 -0.3945 -0.4829
 7909SOL    HW129563   7.364   0.991   4.877 -0.8558 -1.4290 -0.5200
 7909SOL    HW229564   7.300   0.981   5.014  0.7948  2.1017  0.6231
 7910SOL     OW29565   3.485   8.607   8.926  0.4223 -0.1270  0.0939
 7910SOL    HW129566   3.428   8.547   8.877 -0.5497  0.3254  0.6482
 7910SOL    HW229567   3.468   8.588   9.018  0.1524  0.9419  0.2776
 7911SOL     OW29568   0.808   6.505   5.378 -0.0764 -0.3125 -0.1759
 7911SOL    HW129569   0.835   6.558   5.303 -0.1110  1.8133  1.2597
 7911SOL    HW229570   0.859   6.424   5.369  1.8849  0.9465 -1.0513
 7912SOL     OW29571   3.673   1.453  10.610 -0.3678 -0.2755  0.3143
 7912SOL    HW129572   3.601   1.516  10.610 -0.2391 -0.1282 -0.2801
 7912SOL    HW229573   3.629   1.368  10.606 -0.5130 -0.1914  0.0943
 7913SOL     OW29574   1.347   5.333   2.231 -0.2133 -0.2174  0.9765
 7913SOL    HW129575   1.417   5.378   2.184 -0.9994 -0.5466 -0.5554
 7913SOL    HW229576   1.313   5.399   2.292  2.1589 -0.3898  2.6303
 7914SOL     OW29577   9.863   5.158   6.557 -0.2056  0.6287  0.3916
 7914SOL    HW129578   9.827   5.196   6.476 -0.6854 -0.4887  0.0510
 7914SOL    HW229579   9.948   5.123   6.531 -0.9916 -1.1003 -0.0734
 7915SOL     OW29580   0.842  10.462   4.989  0.1354 -0.7390  0.5797
 7915SOL    HW129581   0.823  10.433   5.078  1.5596 -0.1463  1.1002
 7915SOL    HW229582   0.900  10.537   4.999 -0.7028  0.1537 -0.8296
 7916SOL     OW29583   6.181   4.891  10.848  0.2369  0.0331 -0.8069
 7916SOL    HW129584   6.237   4.836  10.902 -0.7518  1.3367  1.7045
 7916SOL    HW229585   6.233   4.909  10.770  1.2943 -2.8629 -0.9036
 7917SOL     OW29586   3.789   5.165   2.431 -0.2356 -0.7336  0.3966
 7917SOL    HW129587   3.782   5.118   2.514 -1.1550 -3.3224 -1.0298
 7917SOL    HW229588   3.860   5.121   2.384 -0.0518  0.3691 -0.4051
 7918SOL     OW29589   7.237   6.275   7.825  1.0647 -0.2886  0.0016
 7918SOL    HW129590   7.295   6.273   7.749  0.7519 -0.1540 -0.2440
 7918SOL    HW229591   7.254   6.360   7.867  0.3548  0.1715 -0.6202
 7919SOL     OW29592   9.166   7.198   8.034 -0.4467  0.5939  0.1300
 7919SOL    HW129593   9.242   7.248   8.063 -1.6804  2.1159  0.9103
 7919SOL    HW229594   9.200   7.136   7.969  1.5245  0.7991  0.9238
 7920SOL     OW29595   9.282   5.588   2.004 -0.2695 -0.0906  0.2498
 7920SOL    HW129596   9.237   5.551   1.928 -1.2192 -2.0968  1.7025
 7920SOL    HW229597   9.350   5.644   1.966 -1.6242  0.1433 -2.0458
 7921SOL     OW29598   6.093   7.409   0.592 -0.2881 -0.4621 -1.0728
 7921SOL    HW129599   6.183   7.387   0.571 -0.1119  0.1977 -1.0275
 7921SOL    HW229600   6.067   7.346   0.659 -0.0757 -1.0686 -1.5537
 7922SOL     OW29601   6.578   2.006   2.396  0.0034 -0.0683  0.4579
 7922SOL    HW129602   6.602   2.088   2.354  0.5176  0.4717  1.7804
 7922SOL    HW229603   6.656   1.981   2.446 -0.7997 -0.3788  1.5780
 7923SOL     OW29604   4.975   1.718   8.991  0.1421  0.1063  0.6047
 7923SOL    HW129605   4.889   1.714   9.032  0.1439 -1.0808  0.5150
 7923SOL    HW229606   4.957   1.711   8.897  0.3819 -0.9127  0.6309
 7924SOL     OW29607   0.251   1.325   6.929 -0.1082  0.1608  0.4820
 7924SOL    HW129608   0.221   1.374   7.006  1.1201  0.1465  0.9941
 7924SOL    HW229609   0.325   1.275   6.961  1.3189  1.2156 -1.0288
 7925SOL     OW29610   1.993   0.412   8.443  0.2447 -0.1876 -0.0398
 7925SOL    HW129611   1.948   0.341   8.397  0.5660  0.2079 -0.9855
 7925SOL    HW229612   1.996   0.383   8.534 -1.1836 -0.5935 -0.0984
 7926SOL     OW29613   4.989   3.091   3.582 -0.2096  1.1798  0.1187
 7926SOL    HW129614   4.985   2.997   3.601 -0.6440  0.7656 -1.8288
 7926SOL    HW229615   4.898   3.120   3.592 -0.6649  0.7263 -2.1820
 7927SOL     OW29616   6.097   6.396   6.850  0.2861 -0.2838 -0.0358
 7927SOL    HW129617   6.186   6.396   6.886  0.4932 -0.1733 -0.5420
 7927SOL    HW229618   6.073   6.488   6.846  0.7828 -0.1958 -1.4292
 7928SOL     OW29619   1.865   8.530   5.988  0.0289  0.6981  0.4631
 7928SOL    HW129620   1.959   8.545   5.976 -0.3343  2.7502 -0.0796
 7928SOL    HW229621   1.851   8.441   5.953  1.4949  0.9824 -0.9690
 7929SOL     OW29622   5.470   8.317   9.589  0.1757 -0.2631  0.7252
 7929SOL    HW129623   5.504   8.239   9.632 -0.7471 -1.0060  0.1495
 7929SOL    HW229624   5.394   8.342   9.642 -2.0660 -2.2208 -1.3207
 7930SOL     OW29625   0.951   1.263   5.781 -0.5501  0.6792 -0.4962
 7930SOL    HW129626   0.936   1.304   5.867 -1.3846 -0.9517  0.1878
 7930SOL    HW229627   0.867   1.222   5.760  0.0980 -0.2421 -1.3546
 7931SOL     OW29628   0.237   3.717   3.894  0.0018 -0.1530  0.2514
 7931SOL    HW129629   0.147   3.685   3.906 -0.2646  0.5996  0.3439
 7931SOL    HW229630   0.267   3.734   3.984 -0.1162  0.5153  0.1694
 7932SOL     OW29631   9.155   5.479   5.562 -0.0077  0.3743  0.1626
 7932SOL    HW129632   9.227   5.514   5.613  1.8838 -0.7516 -1.5861
 7932SOL    HW229633   9.077   5.520   5.599  1.5364  1.9270  1.8832
 7933SOL     OW29634   5.931   5.381   8.819 -0.1268 -0.6277  0.3233
 7933SOL    HW129635   6.004   5.338   8.863  0.7511 -0.2999 -0.7766
 7933SOL    HW229636   5.947   5.474   8.831 -0.9942 -0.5655  1.0608
 7934SOL     OW29637   6.771   4.142   9.865 -0.1621 -0.6705 -0.4912
 7934SOL    HW129638   6.862   4.169   9.873 -0.3708  0.0752 -0.5968
 7934SOL    HW229639   6.743   4.127   9.956  0.1183 -1.1051 -0.4708
 7935SOL     OW29640   3.176   0.788   1.994  0.2558 -0.2678 -0.3320
 7935SOL    HW129641   3.117   0.789   1.919  0.8778 -1.5138 -0.8759
 7935SOL    HW229642   3.263   0.801   1.956  0.4244  0.8448  0.3806
 7936SOL     OW29643   1.856   7.500   5.220  0.3079 -0.3634  0.3247
 7936SOL    HW129644   1.763   7.517   5.234  0.7918  1.2076  2.1442
 7936SOL    HW229645   1.861   7.407   5.198 -1.7565 -0.2479 -0.8683
 7937SOL     OW29646   5.921   0.350   6.680  0.0380 -0.8086  0.2274
 7937SOL    HW129647   5.846   0.378   6.732 -0.0029 -0.9134  0.2260
 7937SOL    HW229648   5.922   0.254   6.689  0.8230 -0.7354  1.1418
 7938SOL     OW29649   6.124   2.761   1.725 -0.0136  0.0163  0.2516
 7938SOL    HW129650   6.106   2.846   1.684  1.2036  0.8559  1.3971
 7938SOL    HW229651   6.084   2.767   1.812  0.7940 -0.2652  0.6505
 7939SOL     OW29652   4.296   0.295  10.265 -0.0499 -0.3983 -0.2187
 7939SOL    HW129653   4.293   0.344  10.347 -4.8907  1.1266 -1.0067
 7939SOL    HW229654   4.332   0.357  10.201 -2.0048  0.6969 -0.3321
 7940SOL     OW29655   4.696  10.050   4.113 -0.5522  0.0176  0.0571
 7940SOL    HW129656   4.660  10.097   4.188 -2.1577  0.6821 -1.0813
 7940SOL    HW229657   4.627   9.991   4.085  0.1822 -0.5412 -0.6362
 7941SOL     OW29658   3.953   6.612   5.929 -0.0793  0.4745 -0.4711
 7941SOL    HW129659   4.046   6.636   5.926 -0.4646  2.3008  0.3567
 7941SOL    HW229660   3.912   6.684   5.978 -1.4063 -1.9966  2.3421
 7942SOL     OW29661   2.181   5.517   4.030 -0.0928  0.5661  0.0498
 7942SOL    HW129662   2.225   5.602   4.039  1.6819 -0.3831  0.7666
 7942SOL    HW229663   2.209   5.467   4.107 -2.8167  0.0172  0.8070
 7943SOL     OW29664   7.740   4.180   3.844  0.1146 -0.5091  0.0800
 7943SOL    HW129665   7.675   4.233   3.797  0.6184  0.2902  0.2556
 7943SOL    HW229666   7.740   4.096   3.799  2.5167  1.0378 -3.2160
 7944SOL     OW29667   1.788   3.641   8.616 -0.0252  0.0216  0.1339
 7944SOL    HW129668   1.836   3.721   8.594  0.0554 -0.0213  0.1558
 7944SOL    HW229669   1.720   3.670   8.677  0.7280 -0.1164  1.0574
 7945SOL     OW29670   9.709   6.704   6.664  0.1200  0.5023 -0.3476
 7945SOL    HW129671   9.705   6.729   6.572  2.1357 -0.4007 -0.7390
 7945SOL    HW229672   9.800   6.720   6.689 -0.2933  0.3319  1.3784
 7946SOL     OW29673  10.543   9.347   9.514 -0.4623  0.2155  0.1272
 7946SOL    HW129674  10.474   9.281   9.507 -0.0339 -0.3251  0.9328
 7946SOL    HW229675  10.499   9.425   9.548 -0.6728 -0.1321  0.6530
 7947SOL     OW29676   7.805   3.917   3.775  0.3031  1.3156  0.5786
 7947SOL    HW129677   7.729   3.896   3.829  1.5722  2.8216  3.1225
 7947SOL    HW229678   7.863   3.841   3.785  0.5801  1.6313  1.5048
 7948SOL     OW29679   4.029   1.271   8.631 -0.3641 -0.2027 -0.2543
 7948SOL    HW129680   4.120   1.246   8.614  0.2284  1.6078  0.0477
 7948SOL    HW229681   3.988   1.191   8.666  0.7102 -1.4482 -1.6929
 7949SOL     OW29682   7.035   4.877   6.708 -0.7175  0.0715 -0.3101
 7949SOL    HW129683   7.059   4.939   6.639  1.6088 -0.1513  0.1940
 7949SOL    HW229684   6.993   4.931   6.775 -0.0823  0.8575 -0.5239
 7950SOL     OW29685   3.708   1.924   0.077  0.1749 -0.3455  0.2945
 7950SOL    HW129686   3.723   1.992   0.011  1.8623 -2.2132 -1.3865
 7950SOL    HW229687   3.670   1.851   0.028 -3.4265 -0.1043  2.3610
 7951SOL     OW29688   5.381   8.040   3.421  0.5954  0.6596  0.8743
 7951SOL    HW129689   5.314   8.029   3.489 -0.3260  1.6681  0.1738
 7951SOL    HW229690   5.414   7.952   3.405  0.5132  0.3496  2.3161
 7952SOL     OW29691   0.473   0.552   3.158  0.4455  0.2336 -0.3289
 7952SOL    HW129692   0.426   0.499   3.223  0.7136  0.1509 -0.1951
 7952SOL    HW229693   0.453   0.511   3.074  1.9332 -1.1173 -0.0922
 7953SOL     OW29694   2.772   1.781   4.384  0.6803 -0.4923 -0.2805
 7953SOL    HW129695   2.681   1.792   4.412  0.7340  1.3594 -0.7099
 7953SOL    HW229696   2.804   1.870   4.372  2.5539 -1.1189 -0.1732
 7954SOL     OW29697   9.247   0.645   5.451 -0.0069 -0.3114  0.3321
 7954SOL    HW129698   9.252   0.552   5.427 -1.8550 -0.6484  1.1123
 7954SOL    HW229699   9.285   0.691   5.376  0.2623 -1.6540 -0.3823
 7955SOL     OW29700   2.042   7.485  10.136  0.3442 -0.3391  0.0454
 7955SOL    HW129701   2.010   7.436  10.211 -1.8582 -0.9197 -1.1618
 7955SOL    HW229702   2.106   7.427  10.094  2.3945  0.4197  1.9555
 7956SOL     OW29703   7.793   7.747   4.450 -0.0362  0.0841 -0.0404
 7956SOL    HW129704   7.708   7.720   4.486 -0.3951  2.8128  1.4579
 7956SOL    HW229705   7.774   7.772   4.359 -0.4833 -0.8452 -0.2098
 7957SOL     OW29706   9.127   7.635   2.699  0.0353  0.2091  0.3202
 7957SOL    HW129707   9.133   7.545   2.730  2.4526 -0.1153 -0.8991
 7957SOL    HW229708   9.040   7.641   2.658 -1.1166 -0.8129  2.4221
 7958SOL     OW29709   4.036   1.897   7.316 -0.2097 -0.3205  0.0796
 7958SOL    HW129710   4.035   1.802   7.308  1.1214 -0.3673  0.1893
 7958SOL    HW229711   4.024   1.913   7.410  3.3863 -0.6043  0.7505
 7959SOL     OW29712   5.017   8.737  10.229 -0.4223  0.7585  0.0537
 7959SOL    HW129713   5.049   8.779  10.309 -0.4101 -0.2251  0.5843
 7959SOL    HW229714   4.936   8.694  10.256  0.9317 -1.8294  0.2305
 7960SOL     OW29715   5.596   7.654   0.856  0.3914  0.3019 -0.3834
 7960SOL    HW129716   5.537   7.601   0.803  1.0294  0.8224 -1.6564
 7960SOL    HW229717   5.680   7.650   0.811  0.7960  1.2813  0.2406
 7961SOL     OW29718   4.321   9.697   9.236 -0.1467  0.0943 -0.2421
 7961SOL    HW129719   4.302   9.631   9.302 -1.6317  0.5166 -0.2286
 7961SOL    HW229720   4.284   9.662   9.155  1.3544 -0.2584 -0.8266
 7962SOL     OW29721   9.373   9.027   1.663 -0.3133  0.7738  0.4286
 7962SOL    HW129722   9.328   9.111   1.654 -0.0641  0.8350 -0.3974
 7962SOL    HW229723   9.459   9.041   1.622 -1.2222 -0.5911 -2.2209
 7963SOL     OW29724   7.453   1.041   0.949  0.2867 -0.5962  0.0553
 7963SOL    HW129725   7.541   1.058   0.916 -0.0303 -1.9897 -1.6936
 7963SOL    HW229726   7.445   1.096   1.026  2.2828  0.4025 -0.3802
 7964SOL     OW29727   8.896   1.260   3.895  0.4559 -0.2910 -0.6864
 7964SOL    HW129728   8.855   1.284   3.812 -0.3829 -0.8714 -0.4475
 7964SOL    HW229729   8.990   1.273   3.879  0.2010  1.0421 -1.2414
 7965SOL     OW29730  10.509   0.042  10.183  0.3012 -0.2078 -0.2022
 7965SOL    HW129731  10.536   0.061  10.273  1.7016  1.0501 -0.8369
 7965SOL    HW229732  10.496   0.129  10.143 -1.0477 -0.7579 -1.0049
 7966SOL     OW29733   6.797   1.416   2.361 -0.0725 -0.0481  0.1888
 7966SOL    HW129734   6.796   1.358   2.285  0.4112 -0.9765  0.8671
 7966SOL    HW229735   6.731   1.380   2.420  0.5718 -0.2191  0.8242
 7967SOL     OW29736   8.206   2.233   3.150 -0.0498  0.3945  0.0712
 7967SOL    HW129737   8.272   2.166   3.132 -0.0114 -0.0743  1.7836
 7967SOL    HW229738   8.243   2.283   3.222 -1.1167  0.7985  0.3414
 7968SOL     OW29739   5.076   0.602   5.966 -0.1077 -0.1058  0.3372
 7968SOL    HW129740   5.029   0.542   6.024 -0.3664 -2.2943 -1.9515
 7968SOL    HW229741   5.013   0.671   5.946 -0.6160 -0.3017  1.2213
 7969SOL     OW29742   0.907   0.207   3.567  0.1370 -0.1860  0.4576
 7969SOL    HW129743   0.905   0.272   3.497  0.0231 -0.3164  0.3395
 7969SOL    HW229744   0.921   0.123   3.522  3.3072  0.0581  0.7953
 7970SOL     OW29745   0.024   4.293   5.691 -0.1767 -0.6185  0.0741
 7970SOL    HW129746  -0.010   4.298   5.602  1.0859 -2.5287 -0.5871
 7970SOL    HW229747   0.000   4.206   5.721  0.7592 -0.5690  1.0236
 7971SOL     OW29748   9.988   6.805   6.658  0.0150 -0.1637 -0.2999
 7971SOL    HW129749  10.037   6.739   6.609  2.0246  1.5792 -0.7976
 7971SOL    HW229750   9.972   6.874   6.594 -1.8978 -0.0473  0.2478
 7972SOL     OW29751   5.449   5.384   5.010 -0.3822 -0.1424 -0.2960
 7972SOL    HW129752   5.430   5.475   5.032 -0.4410  0.6239 -3.1604
 7972SOL    HW229753   5.385   5.362   4.943 -0.3200 -2.3259  0.2718
 7973SOL     OW29754   8.985   6.269   3.996 -0.1631 -1.0312 -0.2184
 7973SOL    HW129755   8.988   6.213   3.918 -1.6859 -0.3407 -0.8214
 7973SOL    HW229756   8.892   6.284   4.011  0.1488  2.5930 -1.0125
 7974SOL     OW29757  10.456   2.574   2.343 -0.2199  0.1765  0.0510
 7974SOL    HW129758  10.452   2.575   2.248 -1.3501 -0.8721  0.0729
 7974SOL    HW229759  10.404   2.650   2.370  0.3727  0.6657 -0.1562
 7975SOL     OW29760   7.422  10.667   5.258  0.1207 -0.3532  0.2197
 7975SOL    HW129761   7.333  10.702   5.260  0.6355  0.9408  1.5560
 7975SOL    HW229762   7.412  10.582   5.215 -1.6500  0.0293 -0.2432
 7976SOL     OW29763   9.287   8.392   6.360 -0.0029  0.4721  0.1973
 7976SOL    HW129764   9.261   8.380   6.452  0.5620 -1.7759  0.1172
 7976SOL    HW229765   9.383   8.383   6.362 -0.1226 -1.5336 -0.8164
 7977SOL     OW29766   8.844   1.070   9.077 -0.4522 -0.0151 -0.0965
 7977SOL    HW129767   8.875   0.982   9.053 -0.3534  0.2923 -1.1481
 7977SOL    HW229768   8.759   1.055   9.117 -1.0063 -0.5246 -1.3976
 7978SOL     OW29769   0.393   4.634   0.453  0.0955  0.1711 -0.1287
 7978SOL    HW129770   0.486   4.656   0.467 -0.2067  0.9753  0.7332
 7978SOL    HW229771   0.357   4.631   0.542 -0.2778 -2.1364 -0.3138
 7979SOL     OW29772   6.305   5.523   2.077 -0.2488 -0.2286 -0.2222
 7979SOL    HW129773   6.265   5.514   1.991  1.0908 -1.5382 -0.7760
 7979SOL    HW229774   6.321   5.432   2.105 -1.8563  0.1080  2.0247
 7980SOL     OW29775   4.475   6.873   8.353 -0.2212  0.5511 -0.1610
 7980SOL    HW129776   4.448   6.783   8.334  3.1861 -0.7390  0.3449
 7980SOL    HW229777   4.519   6.902   8.273  0.1118  1.1400  0.2255
 7981SOL     OW29778   3.498   7.846   2.194 -0.0156  0.2539 -0.1768
 7981SOL    HW129779   3.448   7.800   2.262 -0.0068  0.0869 -0.2830
 7981SOL    HW229780   3.459   7.818   2.112 -0.3204  0.8044 -0.2261
 7982SOL     OW29781   3.263   4.683   5.708 -0.0451  0.1824  0.1013
 7982SOL    HW129782   3.218   4.739   5.645 -0.7092  0.1128  0.5036
 7982SOL    HW229783   3.250   4.726   5.793 -1.7893 -1.2582  0.6374
 7983SOL     OW29784   1.936   7.428   6.752 -0.1804  0.3361 -0.3657
 7983SOL    HW129785   1.859   7.373   6.771  0.9222 -1.4234 -0.7050
 7983SOL    HW229786   1.981   7.437   6.836  0.4926 -0.6996 -0.5948
 7984SOL     OW29787   9.830   2.081   0.990 -0.4671 -0.1067 -0.9112
 7984SOL    HW129788   9.866   2.164   0.959  1.7757  0.8665  3.5290
 7984SOL    HW229789   9.906   2.029   1.013 -1.8830 -1.8625  0.0362
 7985SOL     OW29790   5.745   7.959   8.736  1.2073  0.3205  0.1905
 7985SOL    HW129791   5.727   7.900   8.662  1.4950 -1.9974  1.8583
 7985SOL    HW229792   5.677   7.939   8.800  1.1108  2.1031  0.6921
 7986SOL     OW29793   5.926   7.373   2.312 -0.6099  0.2571  0.0015
 7986SOL    HW129794   5.866   7.306   2.344  0.6355 -0.7903  0.2138
 7986SOL    HW229795   5.894   7.393   2.224 -0.4070 -1.3725 -0.4714
 7987SOL     OW29796   2.246   6.571   6.711  0.9241 -0.3401  0.1055
 7987SOL    HW129797   2.241   6.528   6.797  2.0575 -2.6470 -0.8981
 7987SOL    HW229798   2.163   6.549   6.668  0.3656  0.7972  0.5567
 7988SOL     OW29799   3.441   5.225   2.630  0.2302 -0.4279 -0.3230
 7988SOL    HW129800   3.424   5.228   2.725 -0.0280 -2.4095 -0.2695
 7988SOL    HW229801   3.375   5.283   2.592  0.4488  0.5320  0.7105
 7989SOL     OW29802   2.735   4.610   9.309  0.0704  0.0417  0.2853
 7989SOL    HW129803   2.774   4.624   9.395  0.2460  0.1426  0.1912
 7989SOL    HW229804   2.727   4.515   9.301  1.7248 -0.0825 -0.3081
 7990SOL     OW29805   2.399   9.143   7.633 -0.1872  0.2517 -0.0811
 7990SOL    HW129806   2.467   9.177   7.690  0.2075 -1.1388  0.2986
 7990SOL    HW229807   2.384   9.054   7.663 -1.8931  0.3841 -0.4191
 7991SOL     OW29808   6.540   4.366   3.549 -0.0722 -0.3075 -0.2279
 7991SOL    HW129809   6.533   4.454   3.512  1.5851  0.8611  1.9992
 7991SOL    HW229810   6.570   4.380   3.639 -1.6788 -3.0882  0.8553
 7992SOL     OW29811   5.871   3.591   4.180  0.0103 -0.4693 -0.4788
 7992SOL    HW129812   5.865   3.496   4.189  1.3049 -0.5317 -0.0575
 7992SOL    HW229813   5.944   3.605   4.119  0.3045  0.2574  0.0157
 7993SOL     OW29814   1.264  10.326   4.896  0.3122  0.3922  0.5272
 7993SOL    HW129815   1.243  10.275   4.973  0.6482  0.0070  0.3702
 7993SOL    HW229816   1.340  10.282   4.858 -0.1730  0.2616 -0.3193
 7994SOL     OW29817   8.026   8.757   8.824  0.1581  0.0836 -0.4974
 7994SOL    HW129818   7.976   8.703   8.764  2.2489 -2.0601 -0.4657
 7994SOL    HW229819   8.066   8.695   8.885  1.2362  1.8333  0.6903
 7995SOL     OW29820   9.025   1.991   3.487  0.1075  0.1408  0.3847
 7995SOL    HW129821   9.056   1.963   3.401  0.4556  0.7019  0.3255
 7995SOL    HW229822   9.050   2.083   3.493  1.2008 -0.1942  1.5729
 7996SOL     OW29823   1.895   6.589   9.482 -0.1634 -0.1960 -0.2557
 7996SOL    HW129824   1.982   6.607   9.518 -0.6159  0.9062  0.3219
 7996SOL    HW229825   1.879   6.497   9.504  0.7717 -0.3634 -0.2089
 7997SOL     OW29826   1.014   9.618   8.275 -0.2585 -0.3931  0.0644
 7997SOL    HW129827   1.010   9.704   8.317 -0.9547 -1.5291  2.5441
 7997SOL    HW229828   0.934   9.574   8.305 -0.5220 -1.5469 -2.1062
 7998SOL     OW29829   9.876   5.292   3.348 -0.2947  0.3171 -0.0244
 7998SOL    HW129830   9.872   5.255   3.261 -1.6885 -0.0539  0.1676
 7998SOL    HW229831   9.909   5.222   3.404 -0.5640  0.1538 -0.0676
 7999SOL     OW29832   7.925   2.900   3.909 -0.5711  0.3572 -0.0178
 7999SOL    HW129833   7.975   2.960   3.853  1.1216 -1.1439 -0.2176
 7999SOL    HW229834   7.876   2.845   3.847 -0.9260  0.5368  0.1014
 8000SOL     OW29835   4.876  10.177   0.145  0.6422 -0.0836  0.2175
 8000SOL    HW129836   4.879  10.213   0.057 -1.1438  0.1574  0.2268
 8000SOL    HW229837   4.963  10.196   0.182  1.1904  0.3665 -1.2540
 8001SOL     OW29838   7.948   1.519   2.253 -0.4303  0.4986  0.0128
 8001SOL    HW129839   7.956   1.542   2.346  1.2138 -0.9531  0.2914
 8001SOL    HW229840   7.871   1.463   2.249 -0.2965  0.2629  0.5834
 8002SOL     OW29841   9.365   6.841   6.153 -0.2255 -0.3545  0.4248
 8002SOL    HW129842   9.301   6.886   6.097  0.5770 -0.4022 -0.5418
 8002SOL    HW229843   9.378   6.901   6.226  1.7251  1.6277 -1.4156
 8003SOL     OW29844   1.724   3.207   9.361 -0.1482  0.2240  0.4963
 8003SOL    HW129845   1.642   3.189   9.314 -0.5435  2.7862  0.0433
 8003SOL    HW229846   1.719   3.153   9.440 -2.1554  0.0986  0.3349
 8004SOL     OW29847   1.220   9.894   5.524 -0.7151  0.0351 -0.2219
 8004SOL    HW129848   1.239   9.985   5.547 -2.4527  1.0820 -2.5529
 8004SOL    HW229849   1.254   9.884   5.435 -2.1158 -1.0328 -0.6706
 8005SOL     OW29850   0.776   5.277   3.755 -0.2452  0.1851  0.2257
 8005SOL    HW129851   0.782   5.354   3.698 -0.1009  0.2392  0.3132
 8005SOL    HW229852   0.850   5.222   3.728 -0.7000 -0.2005 -0.2462
 8006SOL     OW29853   3.096  10.151   8.758  0.2857 -0.9475  0.0459
 8006SOL    HW129854   3.085  10.122   8.668  0.9974 -1.4754  0.1176
 8006SOL    HW229855   3.132  10.239   8.751  0.5900 -1.0914 -0.1849
 8007SOL     OW29856   5.088  10.437  10.092 -0.2351 -0.0978  0.2712
 8007SOL    HW129857   5.182  10.453  10.099 -0.0580 -0.2448 -1.4120
 8007SOL    HW229858   5.050  10.523  10.073 -0.5505  0.0950  1.6875
 8008SOL     OW29859   0.747   0.291   0.368 -0.1555 -0.0196 -0.4501
 8008SOL    HW129860   0.783   0.246   0.291 -1.4257 -2.0158  0.0300
 8008SOL    HW229861   0.653   0.293   0.353 -0.4129 -0.2844  0.9502
 8009SOL     OW29862   9.652   2.589   9.869  0.5896 -0.7821  0.2088
 8009SOL    HW129863   9.632   2.514   9.813  0.4945 -0.3284 -0.3672
 8009SOL    HW229864   9.728   2.561   9.921  1.1183 -0.9523 -0.6404
 8010SOL     OW29865  10.492   0.523   5.055  0.2612  0.6944  0.2618
 8010SOL    HW129866  10.573   0.569   5.077  0.3226  0.3578  0.7761
 8010SOL    HW229867  10.458   0.494   5.140  0.5682 -0.7576 -0.0835
 8011SOL     OW29868   9.620   7.649   9.270  0.1598 -0.2847  0.0705
 8011SOL    HW129869   9.528   7.626   9.288 -0.5663  0.9555 -1.7042
 8011SOL    HW229870   9.671   7.586   9.321 -1.6717 -1.2644  0.8032
 8012SOL     OW29871   4.985   1.427   3.541  0.0229 -0.2332 -0.0463
 8012SOL    HW129872   5.032   1.356   3.498 -0.0298  0.4535 -1.2644
 8012SOL    HW229873   4.938   1.384   3.613 -0.2300 -1.4714 -0.9230
 8013SOL     OW29874   2.474   7.696   7.476 -0.1045 -0.2116  0.3793
 8013SOL    HW129875   2.500   7.787   7.486 -0.8923  0.0765 -0.1151
 8013SOL    HW229876   2.400   7.685   7.536 -0.1625 -0.4623  0.2622
 8014SOL     OW29877   2.773   6.685   6.980 -0.1502  0.0217 -0.1718
 8014SOL    HW129878   2.840   6.669   7.046 -1.1326 -1.3390  0.5393
 8014SOL    HW229879   2.781   6.611   6.919 -0.1547  0.5505 -0.8345
 8015SOL     OW29880   1.020   2.738   4.846  0.3915 -0.2274 -0.4353
 8015SOL    HW129881   0.962   2.814   4.843  0.7087  0.1218  1.2700
 8015SOL    HW229882   1.040   2.719   4.754  0.9178  2.2304 -0.8871
 8016SOL     OW29883   4.369   7.242   3.164  0.0334 -0.5332 -0.2799
 8016SOL    HW129884   4.306   7.233   3.093 -0.1306 -3.9099  0.1525
 8016SOL    HW229885   4.455   7.239   3.121 -0.0295  1.2704 -0.6060
 8017SOL     OW29886   3.907   9.802   3.370 -0.0252 -0.1144 -0.0555
 8017SOL    HW129887   3.901   9.736   3.301  0.6535 -0.8774  0.5980
 8017SOL    HW229888   3.925   9.883   3.323 -1.1801 -0.3153 -0.8964
 8018SOL     OW29889   7.106   2.126   0.129 -0.6519 -0.2143  0.2524
 8018SOL    HW129890   7.011   2.112   0.126 -0.6958 -0.0261 -2.8397
 8018SOL    HW229891   7.130   2.146   0.038  2.3571 -0.1827  0.9447
 8019SOL     OW29892   5.854   5.846   3.404 -0.3542 -0.3197  0.4582
 8019SOL    HW129893   5.901   5.823   3.484  0.4972 -0.0577  0.0446
 8019SOL    HW229894   5.873   5.774   3.344  0.3371  0.2527 -0.0337
 8020SOL     OW29895   5.473   0.334   9.416 -0.1871  0.2752  0.1277
 8020SOL    HW129896   5.430   0.285   9.485 -0.1086  0.4490  0.3003
 8020SOL    HW229897   5.418   0.321   9.339  0.7678 -1.6203 -0.3316
 8021SOL     OW29898   7.526   4.996   1.808  0.4451 -0.6269  0.3710
 8021SOL    HW129899   7.593   5.008   1.875  0.0875  0.3966  0.5571
 8021SOL    HW229900   7.575   4.980   1.727  0.9058 -0.4039  0.6009
 8022SOL     OW29901   3.248   9.745   7.042 -0.2003 -0.5981  0.5259
 8022SOL    HW129902   3.176   9.807   7.026 -1.6311 -2.0148  1.2148
 8022SOL    HW229903   3.293   9.739   6.958  1.1258  2.6512  0.8296
 8023SOL     OW29904  10.630   6.691   1.322 -0.0397 -0.7155 -0.1296
 8023SOL    HW129905  10.593   6.624   1.380  0.0446  0.6576  1.6207
 8023SOL    HW229906  10.566   6.699   1.251 -0.5879 -1.8647  0.2026
 8024SOL     OW29907   2.364   7.132   5.888  0.2525 -0.8549 -0.0906
 8024SOL    HW129908   2.456   7.132   5.859  0.2239 -0.2542 -0.1972
 8024SOL    HW229909   2.352   7.218   5.929  0.0513 -1.3666  0.9479
 8025SOL     OW29910   7.721   1.203   1.412 -0.0169  0.3896 -0.0964
 8025SOL    HW129911   7.804   1.216   1.457 -0.4061 -0.0696  0.7910
 8025SOL    HW229912   7.720   1.110   1.389  0.9102  0.9385 -2.6190
 8026SOL     OW29913   9.743   2.627   2.910  0.0918 -0.0643  0.2806
 8026SOL    HW129914   9.694   2.683   2.850 -1.0616 -0.8311  0.4878
 8026SOL    HW229915   9.682   2.557   2.933 -0.1664  1.1394  3.7475
 8027SOL     OW29916   1.381   0.226   1.299  0.4034 -0.0941  0.7707
 8027SOL    HW129917   1.448   0.169   1.335  1.6979  1.0422  0.2749
 8027SOL    HW229918   1.419   0.259   1.217 -0.9130  0.3012  0.2931
 8028SOL     OW29919   8.575   0.531   9.882  0.2598 -0.2085  0.2243
 8028SOL    HW129920   8.585   0.449   9.833 -0.0448 -0.5605  0.7529
 8028SOL    HW229921   8.582   0.599   9.815  0.4273 -0.6669 -0.2307
 8029SOL     OW29922   9.593   5.479   3.891  0.7903 -0.3428 -0.1468
 8029SOL    HW129923   9.667   5.520   3.936 -0.0597 -0.2538  1.2436
 8029SOL    HW229924   9.617   5.386   3.886  1.1163 -0.2719  0.0568
 8030SOL     OW29925   0.559   5.717   6.290  0.4751  0.9911  0.0449
 8030SOL    HW129926   0.581   5.808   6.307  0.0489  0.7701  2.0624
 8030SOL    HW229927   0.539   5.681   6.377  0.1095 -0.8756 -0.7723
 8031SOL     OW29928   3.659   7.047   4.041  0.0572 -0.1986  0.3029
 8031SOL    HW129929   3.706   7.099   4.106 -0.8467  0.5029  0.4156
 8031SOL    HW229930   3.567   7.059   4.062 -0.1904 -1.9733  0.4050
 8032SOL     OW29931   9.308   2.209   1.054 -0.2584 -0.1307 -0.0918
 8032SOL    HW129932   9.381   2.148   1.047 -0.5231 -0.4352 -0.2470
 8032SOL    HW229933   9.328   2.262   1.131  1.2140  1.2469 -1.3563
 8033SOL     OW29934   8.173   6.447   1.265  0.0641 -0.5281 -0.1406
 8033SOL    HW129935   8.123   6.468   1.344  0.8075 -1.5156  0.6192
 8033SOL    HW229936   8.110   6.453   1.194 -0.4733  1.0367  0.4305
 8034SOL     OW29937   5.720   5.277   4.925 -0.0829 -0.3046  0.2087
 8034SOL    HW129938   5.757   5.305   5.009 -1.1470 -1.6386  1.1634
 8034SOL    HW229939   5.628   5.301   4.929  0.0788  0.6400 -1.0731
 8035SOL     OW29940   6.690  10.492   7.191 -0.0807 -0.4107 -0.4535
 8035SOL    HW129941   6.779  10.528   7.189 -0.3259  0.2109 -2.0537
 8035SOL    HW229942   6.688  10.429   7.118 -0.9896 -0.2966 -0.5403
 8036SOL     OW29943   3.409   7.635   9.865 -0.7164  0.7330 -0.6850
 8036SOL    HW129944   3.318   7.658   9.887 -1.1230 -0.2033 -1.3321
 8036SOL    HW229945   3.436   7.702   9.802 -0.6436  1.5398  0.1919
 8037SOL     OW29946   7.742   9.952   6.332  0.3798 -0.2253  0.4798
 8037SOL    HW129947   7.822   9.930   6.381 -0.0310  0.7449  1.6331
 8037SOL    HW229948   7.753  10.044   6.309 -0.0142 -0.3313 -0.1366
 8038SOL     OW29949   0.964   0.279   9.349  0.1665  0.0013 -0.0839
 8038SOL    HW129950   0.952   0.273   9.444  0.6003  0.6857  0.0211
 8038SOL    HW229951   1.010   0.198   9.326  0.3429 -0.0241  0.3369
 8039SOL     OW29952   4.178   2.656   9.781  0.5038  0.5493  0.5532
 8039SOL    HW129953   4.095   2.629   9.740  0.3591  2.5748 -0.6190
 8039SOL    HW229954   4.229   2.576   9.788 -1.6734 -0.8339  1.6406
 8040SOL     OW29955   7.054   2.344  10.556  0.0056  0.1328  0.1808
 8040SOL    HW129956   7.007   2.288  10.618 -0.9922  0.1646 -0.5287
 8040SOL    HW229957   7.023   2.433  10.576  0.0683  0.2015 -0.0238
 8041SOL     OW29958   1.035   1.879   7.676 -0.0310 -0.4018  0.5025
 8041SOL    HW129959   0.976   1.936   7.627  1.6379  0.3683 -0.7196
 8041SOL    HW229960   1.014   1.790   7.646 -0.5334 -0.1354  0.0512
 8042SOL     OW29961   7.689   6.355   7.513 -0.5163  0.0666 -0.2524
 8042SOL    HW129962   7.716   6.447   7.515  1.9525 -0.3149 -4.2940
 8042SOL    HW229963   7.650   6.344   7.426 -0.7874 -2.6821  0.1434
 8043SOL     OW29964   8.994   5.909   4.763 -0.2706 -0.3557 -0.4327
 8043SOL    HW129965   9.067   5.966   4.788  0.4673 -1.7719  0.8414
 8043SOL    HW229966   8.989   5.844   4.834 -3.0070 -0.1269 -0.2696
 8044SOL     OW29967   1.410   0.916   9.130 -0.0291 -0.0547  0.2466
 8044SOL    HW129968   1.447   0.830   9.149  1.2474  0.7332  1.5522
 8044SOL    HW229969   1.329   0.919   9.181 -0.6112 -0.8252 -0.5921
 8045SOL     OW29970   3.900  10.114   3.386  0.3290  0.9182  0.3499
 8045SOL    HW129971   3.811  10.127   3.417 -0.1756 -3.3819  1.2578
 8045SOL    HW229972   3.895  10.126   3.291 -1.9158 -1.7291  0.0348
 8046SOL     OW29973   2.288   5.121   6.564 -0.3722  0.4302  0.1567
 8046SOL    HW129974   2.266   5.092   6.652 -0.3236  0.1594  0.0812
 8046SOL    HW229975   2.347   5.053   6.531  0.2895  0.9667  0.2289
 8047SOL     OW29976   9.861   7.574   2.868 -0.1777  0.1061  0.3587
 8047SOL    HW129977   9.952   7.589   2.893  0.7513  0.4721 -2.7768
 8047SOL    HW229978   9.825   7.662   2.854 -0.4656 -0.0823 -0.1140
 8048SOL     OW29979   4.545   8.807  10.426  0.1437  0.5465  0.0235
 8048SOL    HW129980   4.500   8.790  10.509 -1.7486  2.1042 -0.5911
 8048SOL    HW229981   4.610   8.873  10.447  3.6522 -2.9274  1.2826
 8049SOL     OW29982   5.293   8.073   5.753  0.2726  0.0822  0.4704
 8049SOL    HW129983   5.248   8.136   5.809  0.5299  0.9601 -0.2850
 8049SOL    HW229984   5.266   8.095   5.664 -2.3696 -3.0600  0.2991
 8050SOL     OW29985   5.446   0.916   5.859  0.0970  0.2253 -0.1427
 8050SOL    HW129986   5.498   0.836   5.855  1.4933  1.0893  0.2030
 8050SOL    HW229987   5.504   0.985   5.827 -1.5293  0.9182 -1.8155
 8051SOL     OW29988   2.084   7.828   9.868  0.2894 -0.3815  0.1535
 8051SOL    HW129989   2.135   7.873   9.801  1.3727 -1.4441  0.2195
 8051SOL    HW229990   1.993   7.846   9.845  0.6691  0.8257 -0.4950
 8052SOL     OW29991   9.204   0.566   8.482 -0.0281  0.3426 -0.0585
 8052SOL    HW129992   9.115   0.600   8.476  0.1588  0.5907 -2.1390
 8052SOL    HW229993   9.238   0.603   8.564 -1.6423  0.6719  0.4995
 8053SOL     OW29994   9.486   5.694   8.924 -0.0564  0.3985  0.3645
 8053SOL    HW129995   9.454   5.658   8.841 -0.0751  2.6715 -0.6973
 8053SOL    HW229996   9.471   5.624   8.988 -0.2520 -1.3425 -1.4866
 8054SOL     OW29997   5.748   0.827   5.088 -0.1707 -0.6613 -0.3232
 8054SOL    HW129998   5.767   0.815   5.181 -0.6724  0.3959 -0.0711
 8054SOL    HW229999   5.741   0.738   5.053  0.7084 -1.0720  0.5011
 8055SOL     OW30000   6.303   1.676   2.001  0.5904  0.0861  0.2980
 8055SOL    HW130001   6.223   1.679   2.054 -1.9675 -2.8423 -2.9411
 8055SOL    HW230002   6.373   1.692   2.064 -2.3988  2.2231  3.4842
 8056SOL     OW30003   2.360  10.081  10.187 -0.1476  0.6832 -0.1707
 8056SOL    HW130004   2.407  10.126  10.117 -1.0693 -0.2287 -1.4279
 8056SOL    HW230005   2.290  10.141  10.211 -0.3390  0.6487 -0.6358
 8057SOL     OW30006   2.237   8.850   8.169  0.7629  0.2426 -0.3133
 8057SOL    HW130007   2.239   8.913   8.097  0.3820  1.5056  0.7652
 8057SOL    HW230008   2.145   8.825   8.176  1.1526 -2.0449 -2.0530
 8058SOL     OW30009   3.004   1.794   3.214 -0.6434 -0.6563  0.1128
 8058SOL    HW130010   3.018   1.726   3.148 -1.2619 -0.4528 -0.2392
 8058SOL    HW230011   2.986   1.873   3.164 -0.7005 -0.4050  0.5265
 8059SOL     OW30012   8.559  10.217   9.235  0.4244 -0.0148 -0.3167
 8059SOL    HW130013   8.471  10.189   9.212  0.7744 -0.1485 -1.5609
 8059SOL    HW230014   8.614  10.186   9.162  1.5798 -0.3997  0.6780
 8060SOL     OW30015   5.672   5.893  10.329  0.2824  0.7157  0.6097
 8060SOL    HW130016   5.669   5.866  10.420 -0.4869 -1.0851  0.0974
 8060SOL    HW230017   5.603   5.959  10.320  1.3709  2.0454  1.6253
 8061SOL     OW30018   4.800  10.761   2.629 -0.3301  0.0217 -0.0310
 8061SOL    HW130019   4.734  10.709   2.675 -0.9805 -0.4241 -1.4092
 8061SOL    HW230020   4.870  10.699   2.610 -1.6483 -0.7804 -2.7855
 8062SOL     OW30021   1.454   1.819  10.396 -0.8599  0.2228  0.3454
 8062SOL    HW130022   1.412   1.853  10.475 -1.3209 -1.1001  0.7028
 8062SOL    HW230023   1.517   1.754  10.429 -0.5523  0.1692 -0.3379
 8063SOL     OW30024   3.050   0.557   8.233  0.2358  0.1443 -0.2341
 8063SOL    HW130025   2.967   0.568   8.280  0.1575 -1.0900 -0.0526
 8063SOL    HW230026   3.109   0.621   8.273 -0.4589  0.6364  0.0231
 8064SOL     OW30027   0.081   8.899   8.480  0.0051  0.4101  0.4348
 8064SOL    HW130028   0.093   8.899   8.575 -0.3497  0.4577  0.4818
 8064SOL    HW230029   0.005   8.842   8.465  0.0786  0.3768  0.1793
 8065SOL     OW30030   7.769   8.702   4.873 -0.1277  0.5382  0.1311
 8065SOL    HW130031   7.679   8.676   4.888 -0.7344  2.4667  0.1469
 8065SOL    HW230032   7.815   8.679   4.953 -0.8283  0.4370  0.5102
 8066SOL     OW30033   1.113   0.649  10.910 -0.0486 -0.1622  0.6302
 8066SOL    HW130034   1.191   0.602  10.940  0.7874  1.0811  0.4783
 8066SOL    HW230035   1.063   0.666  10.991  1.2703  1.5205  1.1570
 8067SOL     OW30036   8.775   8.524   2.999 -0.3379  0.5704 -0.1827
 8067SOL    HW130037   8.768   8.618   2.980 -0.7908  0.7351  0.7166
 8067SOL    HW230038   8.685   8.496   3.013 -0.2248 -0.0605 -0.6909
 8068SOL     OW30039   5.994   2.123   3.139 -0.3314 -0.2920  0.2422
 8068SOL    HW130040   5.995   2.215   3.166 -0.9345 -0.3146  0.3602
 8068SOL    HW230041   6.034   2.123   3.052  0.2791 -0.0162  0.5155
 8069SOL     OW30042  10.785   6.120   5.846  0.3304 -0.1351  0.2558
 8069SOL    HW130043  10.768   6.191   5.784  2.1715  0.2171  0.1267
 8069SOL    HW230044  10.808   6.164   5.927  1.0529 -0.5853  0.2998
 8070SOL     OW30045   3.005  10.263   8.287 -0.0921  0.6816  0.1449
 8070SOL    HW130046   3.019  10.170   8.273  2.4294  0.6750  2.0533
 8070SOL    HW230047   2.920  10.268   8.331  0.2535 -0.8486  1.0491
 8071SOL     OW30048   0.923   8.264   2.904 -0.3634 -0.0719 -0.3134
 8071SOL    HW130049   0.951   8.218   2.824 -0.1117 -1.1832  0.3920
 8071SOL    HW230050   0.879   8.196   2.956  2.5397 -0.3541  2.0657
 8072SOL     OW30051  10.294   6.387   7.130  0.2567 -0.2877 -0.3059
 8072SOL    HW130052  10.365   6.365   7.069  0.2864 -0.0072 -0.3696
 8072SOL    HW230053  10.216   6.390   7.076  0.1253 -1.0054 -0.1698
 8073SOL     OW30054   4.337   9.208  10.478  0.0616  0.0925 -0.2024
 8073SOL    HW130055   4.337   9.303  10.475  1.6197  0.0988 -0.8867
 8073SOL    HW230056   4.380   9.181  10.397 -1.1556 -1.2329 -0.4437
 8074SOL     OW30057   4.124   4.407   3.252 -0.1411  0.5840  0.1640
 8074SOL    HW130058   4.142   4.375   3.163  1.2515 -2.0292  1.2924
 8074SOL    HW230059   4.040   4.368   3.275 -0.0262  0.4553  0.3596
 8075SOL     OW30060   6.043   1.979   9.005  0.2436  0.3355  0.2439
 8075SOL    HW130061   6.064   2.025   9.087  0.3324  1.3857 -0.3590
 8075SOL    HW230062   5.948   1.985   8.998 -0.0821 -1.9550  1.5202
 8076SOL     OW30063   6.360   5.585   6.507 -0.4062  0.2826 -0.2778
 8076SOL    HW130064   6.372   5.658   6.446  2.3553 -1.1030 -1.5708
 8076SOL    HW230065   6.442   5.580   6.556 -2.6786  1.6796  4.2094
 8077SOL     OW30066   4.155   0.008   9.867  0.2960 -0.0916  0.6028
 8077SOL    HW130067   4.219   0.059   9.817 -0.4590 -0.2084 -0.5147
 8077SOL    HW230068   4.168   0.036   9.958  0.9373  0.9640  0.2037
 8078SOL     OW30069   7.587   1.460   6.608 -0.3387  0.0083 -0.1903
 8078SOL    HW130070   7.502   1.478   6.649  0.1244  1.9602 -0.0043
 8078SOL    HW230071   7.574   1.484   6.516  0.1605  0.9539 -0.0328
 8079SOL     OW30072   7.138   1.959   4.497  0.8526  0.1622  0.0941
 8079SOL    HW130073   7.159   1.867   4.505  1.7403  0.2231 -1.3031
 8079SOL    HW230074   7.218   2.005   4.524  0.2170  0.5513  1.3835
 8080SOL     OW30075   7.383   9.453   5.274  0.3203 -0.1047  0.1800
 8080SOL    HW130076   7.454   9.445   5.338 -0.0293  0.6902  0.6859
 8080SOL    HW230077   7.344   9.539   5.292  2.0450  1.4983 -3.0287
 8081SOL     OW30078   8.414   6.296   7.518  0.0081  0.8412  0.0122
 8081SOL    HW130079   8.472   6.322   7.590 -1.2036  2.8799  0.3089
 8081SOL    HW230080   8.471   6.294   7.441  0.6497  2.0621  0.4289
 8082SOL     OW30081   5.353   8.959  10.678  0.8379 -0.1184  0.0745
 8082SOL    HW130082   5.319   9.039  10.638 -0.1368 -0.7757 -0.4522
 8082SOL    HW230083   5.442   8.982  10.705  1.0845  0.7084 -1.3445
 8083SOL     OW30084   3.159   4.427  10.381  0.0473  0.3303 -0.6028
 8083SOL    HW130085   3.129   4.489  10.315 -0.1747  1.3172  0.3998
 8083SOL    HW230086   3.254   4.427  10.373  0.0051  0.2001 -1.1286
 8084SOL     OW30087   9.159   7.915  10.301  0.3702 -0.1344 -0.1144
 8084SOL    HW130088   9.156   7.883  10.391 -1.3563 -0.4366 -0.2536
 8084SOL    HW230089   9.178   7.837  10.249  1.3845  0.0429 -0.0380
 8085SOL     OW30090   7.429   1.557   7.433  0.2888 -0.1354  0.2729
 8085SOL    HW130091   7.335   1.562   7.450  0.1268 -0.0048 -0.6448
 8085SOL    HW230092   7.463   1.640   7.467 -0.0557  0.1939 -0.1732
 8086SOL     OW30093   6.298   1.770   3.307 -0.0117 -0.3385  0.1180
 8086SOL    HW130094   6.260   1.690   3.341  0.0832 -0.1767  0.6180
 8086SOL    HW230095   6.223   1.828   3.293 -0.1682 -0.8076 -1.0686
 8087SOL     OW30096   8.960  10.513   6.037  0.1142 -0.4916  0.1296
 8087SOL    HW130097   8.911  10.574   5.983 -0.5342  0.3093  1.5517
 8087SOL    HW230098   8.918  10.518   6.123  0.7870 -2.0784  0.5995
 8088SOL     OW30099   5.860   4.670   3.688  0.2625 -0.7354  0.0189
 8088SOL    HW130100   5.893   4.627   3.766 -0.0340 -0.6152  0.2131
 8088SOL    HW230101   5.765   4.674   3.701  0.2447 -0.4118 -0.1930
 8089SOL     OW30102   9.814   8.915   6.964 -0.1509  0.3213  0.4903
 8089SOL    HW130103   9.763   8.910   7.045 -0.1044  0.6958  0.5464
 8089SOL    HW230104   9.891   8.966   6.988 -0.9888  2.0058 -0.2129
 8090SOL     OW30105   9.298   5.792   5.919  0.6045 -0.0617 -0.0284
 8090SOL    HW130106   9.380   5.838   5.937  1.3286 -1.4124  0.1908
 8090SOL    HW230107   9.259   5.777   6.005  1.0670 -1.0754  0.0228
 8091SOL     OW30108   4.201   8.808   7.156  0.0545 -0.1547 -0.6446
 8091SOL    HW130109   4.212   8.771   7.244 -0.6498  1.2583  0.0756
 8091SOL    HW230110   4.151   8.889   7.170 -0.6062 -0.2023 -2.4192
 8092SOL     OW30111   0.810   7.319   3.388  0.8264  0.1376 -0.4414
 8092SOL    HW130112   0.821   7.235   3.344  1.0982 -0.5150  0.8616
 8092SOL    HW230113   0.784   7.297   3.477 -2.2110  1.4564 -0.8760
 8093SOL     OW30114   9.639   1.154   0.021 -0.0437  0.1993 -0.2164
 8093SOL    HW130115   9.665   1.069   0.057 -1.0485  0.4629  1.1997
 8093SOL    HW230116   9.544   1.157   0.032 -0.0356  1.4747 -0.3248
 8094SOL     OW30117   5.010   2.099  10.674 -0.0892  0.1690  0.5415
 8094SOL    HW130118   4.927   2.062  10.644 -0.9938  0.8873  2.0193
 8094SOL    HW230119   5.075   2.069  10.610 -1.3634 -0.9832 -0.2612
 8095SOL     OW30120   7.816   2.257   5.739  0.1073  0.4435  0.3132
 8095SOL    HW130121   7.907   2.228   5.744 -0.1752 -0.4494  0.4054
 8095SOL    HW230122   7.794   2.285   5.828 -0.4420 -1.6773  0.9096
 8096SOL     OW30123   7.959   6.721   1.637 -0.3752 -0.3563  0.5604
 8096SOL    HW130124   7.889   6.745   1.697  0.4932 -2.2642  2.4865
 8096SOL    HW230125   8.038   6.718   1.693  0.7999 -0.4967 -1.0413
 8097SOL     OW30126   5.641   4.393   2.704  0.7242  0.3369  0.0443
 8097SOL    HW130127   5.613   4.329   2.639  0.4018  0.9412 -0.4273
 8097SOL    HW230128   5.625   4.478   2.662  2.6484  0.7219  0.0274
 8098SOL     OW30129   6.320   5.844   5.775 -0.4907 -0.0102  0.0104
 8098SOL    HW130130   6.272   5.860   5.693  0.7361  0.4409 -0.6467
 8098SOL    HW230131   6.360   5.928   5.796 -0.3879 -0.2548  0.8219
 8099SOL     OW30132   6.754   1.987   0.998  0.1222  0.3448  0.3926
 8099SOL    HW130133   6.680   1.972   0.940 -2.0014 -0.0280  3.0237
 8099SOL    HW230134   6.799   2.063   0.961 -1.7458  0.7831 -1.1206
 8100SOL     OW30135   8.633   4.418   2.141  0.2437 -0.1226  0.3621
 8100SOL    HW130136   8.560   4.444   2.085  0.4459  0.4077  0.3299
 8100SOL    HW230137   8.621   4.325   2.155 -0.6195  0.0161  0.6177
 8101SOL     OW30138   1.742   4.346   3.746  0.1876 -0.2166 -0.6579
 8101SOL    HW130139   1.812   4.313   3.802 -0.0004  0.4063 -0.0543
 8101SOL    HW230140   1.735   4.439   3.767 -0.4695 -0.1588 -1.0913
 8102SOL     OW30141   8.533   6.637   8.208  0.2798 -0.2627  0.5665
 8102SOL    HW130142   8.617   6.672   8.238 -0.0498 -0.2916  1.5584
 8102SOL    HW230143   8.557   6.560   8.156  1.1417  2.1619 -3.0266
 8103SOL     OW30144   0.355   2.037   8.289 -0.4291  0.5957 -0.2418
 8103SOL    HW130145   0.278   2.024   8.234 -2.0581  1.5617  1.6862
 8103SOL    HW230146   0.429   2.022   8.230 -2.0551  0.3951 -2.3623
 8104SOL     OW30147   5.621   3.720   5.069  0.0553 -0.5158  0.0276
 8104SOL    HW130148   5.574   3.804   5.073  1.8200  0.5076  0.1370
 8104SOL    HW230149   5.658   3.718   4.981 -1.0105 -1.7971 -0.4150
 8105SOL     OW30150   4.759   4.075   4.564 -0.0787  0.2682  0.3463
 8105SOL    HW130151   4.745   4.011   4.494  1.2216  1.2377 -0.8640
 8105SOL    HW230152   4.850   4.101   4.555 -0.2655  1.4602  1.5407
 8106SOL     OW30153   5.396   1.783  10.297  0.3282 -0.1929 -0.2645
 8106SOL    HW130154   5.345   1.739  10.365  2.1727  0.2646  1.5096
 8106SOL    HW230155   5.363   1.873  10.298 -0.7331 -0.5440 -1.1420
 8107SOL     OW30156   9.102   9.649   7.200 -0.0722 -0.0535  0.6738
 8107SOL    HW130157   9.081   9.670   7.109 -0.1967  1.6375  1.0713
 8107SOL    HW230158   9.025   9.602   7.232 -1.6189  2.4717  0.9094
 8108SOL     OW30159   9.968   6.465   4.040  0.6466  0.2821 -0.1652
 8108SOL    HW130160   9.917   6.546   4.033  1.5663  0.9403  0.4113
 8108SOL    HW230161  10.059   6.495   4.042  1.1023 -0.8750 -1.5994
 8109SOL     OW30162   6.785   4.981   4.975 -0.1558  0.4320 -0.1405
 8109SOL    HW130163   6.852   5.028   5.025  0.0759 -0.6286  0.5884
 8109SOL    HW230164   6.718   4.959   5.039 -0.4906  0.1852 -0.5665
 8110SOL     OW30165   1.744   6.380   0.551 -0.1279  0.0678  0.0605
 8110SOL    HW130166   1.781   6.299   0.585  0.1905  1.2151  2.6351
 8110SOL    HW230167   1.661   6.391   0.597 -0.7576  0.6269 -1.1492
 8111SOL     OW30168   6.260   7.579   0.775  0.4947  0.1425 -0.2022
 8111SOL    HW130169   6.320   7.543   0.841  0.5323 -0.7816 -0.7222
 8111SOL    HW230170   6.173   7.568   0.813  0.6341  1.5771  0.5971
 8112SOL     OW30171   4.543   8.138   4.471 -0.1284  0.3479 -0.0814
 8112SOL    HW130172   4.505   8.093   4.395 -0.9618  2.1949 -0.8336
 8112SOL    HW230173   4.528   8.231   4.453  1.0087  0.9104  1.6595
 8113SOL     OW30174   0.893   9.857   7.225  0.1181  0.3433 -0.4478
 8113SOL    HW130175   0.969   9.869   7.167 -0.1440 -0.2415 -0.9297
 8113SOL    HW230176   0.884   9.762   7.232 -1.0170  0.3924 -0.9943
 8114SOL     OW30177   0.280   4.245   1.370 -1.0009  0.0769  0.9826
 8114SOL    HW130178   0.318   4.235   1.457 -1.6594  0.1777  1.2906
 8114SOL    HW230179   0.203   4.301   1.384 -0.6060  0.8482  0.1987
 8115SOL     OW30180   6.479   6.791  10.165 -0.0990  0.7935 -0.6129
 8115SOL    HW130181   6.462   6.712  10.113 -0.6662 -0.0673  0.8184
 8115SOL    HW230182   6.396   6.810  10.208  0.5474  0.9971  0.6004
 8116SOL     OW30183   6.646   3.085  10.351  0.0315 -0.3541 -0.1569
 8116SOL    HW130184   6.578   3.050  10.293  2.3366 -1.9268 -2.1247
 8116SOL    HW230185   6.598   3.137  10.416 -3.0476 -1.7432 -1.1188
 8117SOL     OW30186   7.471   6.768   8.895  0.3135 -0.4540  0.5356
 8117SOL    HW130187   7.530   6.830   8.939 -0.5411  0.8784 -0.1013
 8117SOL    HW230188   7.385   6.811   8.898  0.1793 -0.3088 -2.2953
 8118SOL     OW30189  10.239   6.068   5.485 -0.2058 -0.3852  0.5444
 8118SOL    HW130190  10.197   6.152   5.506  1.1096  0.0580  1.5269
 8118SOL    HW230191  10.256   6.073   5.391  2.2336  1.6271  0.9974
 8119SOL     OW30192   9.255   6.634   2.323  0.3423 -0.1128 -0.0562
 8119SOL    HW130193   9.231   6.542   2.309  0.0990 -0.6495  3.1474
 8119SOL    HW230194   9.323   6.631   2.391 -1.8524  2.1051  2.4844
 8120SOL     OW30195   1.125   5.045  10.706 -0.1533 -0.0630 -0.0743
 8120SOL    HW130196   1.211   5.056  10.665 -0.4239  0.8641 -0.4316
 8120SOL    HW230197   1.063   5.067  10.636 -0.6933 -0.9066  0.1239
 8121SOL     OW30198   9.284   3.002   7.786 -0.7200  0.2165  0.5621
 8121SOL    HW130199   9.199   3.045   7.798 -0.7945  0.1889  0.1486
 8121SOL    HW230200   9.278   2.962   7.700  0.1854  1.3031 -0.0334
 8122SOL     OW30201   9.573   2.606   8.498  0.1461  0.2854 -0.9163
 8122SOL    HW130202   9.567   2.702   8.501 -0.6755  0.2330 -0.5703
 8122SOL    HW230203   9.482   2.576   8.506  0.5513 -0.5685  1.1485
 8123SOL     OW30204   8.532  10.181   8.239 -0.0812 -0.4715 -0.1836
 8123SOL    HW130205   8.556  10.098   8.199 -1.1128 -0.4364 -0.9050
 8123SOL    HW230206   8.534  10.164   8.333  1.1820 -0.8842 -0.2646
 8124SOL     OW30207   1.334   6.168   1.301 -0.1062 -0.0367 -0.5169
 8124SOL    HW130208   1.264   6.231   1.317 -0.4247 -0.5582  0.2447
 8124SOL    HW230209   1.379   6.162   1.385  1.2554  0.7598 -1.1666
 8125SOL     OW30210   7.079   2.943   4.715  0.0562 -0.2702  0.2409
 8125SOL    HW130211   7.169   2.929   4.684 -0.0005  1.9168 -1.1856
 8125SOL    HW230212   7.024   2.899   4.650  0.0395 -1.6363  1.1311
 8126SOL     OW30213  10.286   8.784   3.453 -0.1712 -0.3882 -0.2933
 8126SOL    HW130214  10.265   8.704   3.502  0.4830 -0.5725 -0.2951
 8126SOL    HW230215  10.255   8.855   3.509 -1.6767 -0.6617 -0.7538
 8127SOL     OW30216  10.162   6.976   6.469  0.0459  0.3790 -0.0141
 8127SOL    HW130217  10.151   7.004   6.378 -2.3289 -2.8527 -0.8904
 8127SOL    HW230218  10.076   6.985   6.508  0.4782 -0.5044  1.2076
 8128SOL     OW30219   3.229   1.634   9.166  0.0966 -0.1029  0.0446
 8128SOL    HW130220   3.204   1.559   9.110 -0.6114 -0.7939  1.2468
 8128SOL    HW230221   3.240   1.596   9.253  1.5769  0.8966  0.3240
 8129SOL     OW30222   9.735   5.713  10.489  0.7502  0.3056 -0.0757
 8129SOL    HW130223   9.805   5.776  10.475  0.2208  0.5615 -1.8464
 8129SOL    HW230224   9.740   5.654  10.413 -0.4351 -0.1496  0.1703
 8130SOL     OW30225   4.425   4.273   0.810  0.5283 -0.4163  0.1699
 8130SOL    HW130226   4.502   4.266   0.753 -0.7908 -0.3863 -1.7194
 8130SOL    HW230227   4.384   4.356   0.784  0.5735  0.2703  2.1429
 8131SOL     OW30228   7.508   9.571   8.057  0.1904 -0.5769  0.2538
 8131SOL    HW130229   7.447   9.581   7.984 -0.3525 -1.0263  0.6383
 8131SOL    HW230230   7.454   9.584   8.135  0.8490  0.3214  0.5697
 8132SOL     OW30231   5.878   4.405   9.044  0.5925 -0.4634 -0.2926
 8132SOL    HW130232   5.835   4.476   8.997  0.1159 -0.8043 -0.3828
 8132SOL    HW230233   5.971   4.421   9.032  0.5054 -1.1493 -2.2955
 8133SOL     OW30234   0.691   0.677   5.358  0.0631  0.1105 -0.4128
 8133SOL    HW130235   0.771   0.705   5.313 -0.7203  1.3640 -1.0747
 8133SOL    HW230236   0.712   0.685   5.451  1.1334 -0.8567 -0.5429
 8134SOL     OW30237   0.419   1.702   4.805 -0.7183  0.2708 -1.1944
 8134SOL    HW130238   0.434   1.796   4.804 -2.3072  0.5501 -1.7854
 8134SOL    HW230239   0.350   1.689   4.870 -1.4604 -0.3003 -2.0683
 8135SOL     OW30240   2.344  10.408  10.324 -0.1733 -0.3575 -0.4136
 8135SOL    HW130241   2.295  10.339  10.368 -0.1243  0.0014  0.2134
 8135SOL    HW230242   2.384  10.458  10.395  2.6354 -1.7269 -0.9214
 8136SOL     OW30243   9.730  10.260   7.557 -0.1626 -0.0437 -0.6713
 8136SOL    HW130244   9.748  10.349   7.585 -0.4695 -0.7715  2.0920
 8136SOL    HW230245   9.805  10.237   7.501 -0.3403  2.0546 -1.8742
 8137SOL     OW30246   9.002   6.312   5.180 -0.4086  0.0370  0.3953
 8137SOL    HW130247   9.078   6.295   5.235 -0.4131 -0.6430  0.1923
 8137SOL    HW230248   9.028   6.386   5.124  1.1883 -2.0271 -1.7500
 8138SOL     OW30249   7.045   0.308   7.511  0.0964  0.1570  0.4613
 8138SOL    HW130250   6.961   0.279   7.474 -0.1632  0.1032  1.0780
 8138SOL    HW230251   7.040   0.404   7.509  0.5130  0.1660 -0.5900
 8139SOL     OW30252   3.858   6.084   4.132 -0.4255 -0.3658  0.4394
 8139SOL    HW130253   3.864   6.179   4.121 -1.4906 -0.2006  1.1866
 8139SOL    HW230254   3.765   6.067   4.148 -0.1601 -1.4594  0.9257
 8140SOL     OW30255   2.720  10.834  10.007  0.5791  0.3562 -0.4787
 8140SOL    HW130256   2.815  10.826  10.004  0.6169  0.3520  0.4162
 8140SOL    HW230257   2.688  10.747   9.981  0.8561 -0.1685  0.8810
 8141SOL     OW30258   2.575   5.589   1.095  0.0124  0.2719  0.1224
 8141SOL    HW130259   2.524   5.579   1.175  1.0511  0.7180  0.8536
 8141SOL    HW230260   2.627   5.668   1.109  1.3429 -0.4937 -0.3666
 8142SOL     OW30261   4.971   6.839   1.058 -0.2945 -0.2331 -0.0102
 8142SOL    HW130262   4.876   6.831   1.069 -0.2882 -0.0684  0.1763
 8142SOL    HW230263   4.985   6.827   0.964 -0.2424 -2.7529  0.2390
 8143SOL     OW30264   6.338   2.270   1.249  0.5151  0.2194 -0.0584
 8143SOL    HW130265   6.318   2.220   1.170  1.5855 -0.9409  0.3659
 8143SOL    HW230266   6.404   2.217   1.295 -1.3688 -0.1096  2.5373
 8144SOL     OW30267   4.341   3.195   1.520 -0.0597 -0.5622  0.2510
 8144SOL    HW130268   4.273   3.245   1.565 -1.4135 -0.8376 -1.3816
 8144SOL    HW230269   4.326   3.104   1.547 -0.1246 -0.5811  0.1514
 8145SOL     OW30270   8.901   6.742   4.521 -0.4004 -0.2705 -0.2258
 8145SOL    HW130271   8.891   6.651   4.492  0.9473 -1.5112  2.8704
 8145SOL    HW230272   8.986   6.769   4.487 -1.5032  0.5473 -2.5955
 8146SOL     OW30273   1.221   1.888   8.113 -0.0789 -0.4626  0.0975
 8146SOL    HW130274   1.276   1.828   8.063  0.6147  0.3823 -0.1763
 8146SOL    HW230275   1.265   1.897   8.197  0.4511  0.5630 -0.2822
 8147SOL     OW30276   0.676   9.448   2.257  0.7902  0.1090  0.1093
 8147SOL    HW130277   0.758   9.415   2.220  2.2720  1.8634  1.6278
 8147SOL    HW230278   0.676   9.542   2.237 -0.7800  0.1855  0.3059
 8148SOL     OW30279   9.709   0.756   7.064 -0.4867 -0.2316  0.3355
 8148SOL    HW130280   9.734   0.842   7.096 -2.0097  0.0388  0.9041
 8148SOL    HW230281   9.683   0.707   7.142 -1.5159 -0.5276 -0.1593
 8149SOL     OW30282   8.715   1.467   7.074 -0.5674  0.7515 -0.0731
 8149SOL    HW130283   8.808   1.482   7.092 -0.5257 -0.5167  0.9791
 8149SOL    HW230284   8.706   1.479   6.980  0.4014  2.1010 -0.0168
 8150SOL     OW30285  10.363   6.485   1.539 -0.0273 -0.3399 -0.7384
 8150SOL    HW130286  10.431   6.464   1.474 -0.8975 -1.5624 -1.3054
 8150SOL    HW230287  10.411   6.525   1.612  1.3281 -1.3152 -1.0474
 8151SOL     OW30288   6.337   7.507   9.146  0.0124  0.1640  1.1576
 8151SOL    HW130289   6.408   7.492   9.084 -0.6127  1.0961  0.1738
 8151SOL    HW230290   6.260   7.469   9.104 -0.5020  1.1805  1.1443
 8152SOL     OW30291   2.591   0.249   3.520  0.4979  0.2592 -0.6737
 8152SOL    HW130292   2.530   0.184   3.483  0.3218 -0.1611  0.3118
 8152SOL    HW230293   2.594   0.319   3.456  0.3391 -0.5292 -1.5564
 8153SOL     OW30294   3.769   9.958   6.002  0.5019 -0.1145  0.0972
 8153SOL    HW130295   3.819   9.889   6.044  0.9344 -1.1273 -1.9718
 8153SOL    HW230296   3.699   9.913   5.955 -0.2678  1.0027  0.1159
 8154SOL     OW30297   9.590   3.255   1.632  0.8553  0.2605 -0.3735
 8154SOL    HW130298   9.558   3.176   1.674 -0.8540  1.1617  0.1151
 8154SOL    HW230299   9.552   3.327   1.683  1.0146  1.3961 -1.7733
 8155SOL     OW30300   3.972   7.424   7.155 -0.2316 -0.3300 -0.2735
 8155SOL    HW130301   4.026   7.440   7.232 -0.5592  0.3202 -0.1709
 8155SOL    HW230302   4.032   7.387   7.090  0.3115  0.2931 -0.1288
 8156SOL     OW30303   2.850   0.526   3.629  0.1894 -0.3521  0.3341
 8156SOL    HW130304   2.886   0.448   3.586 -1.4280 -0.3296 -1.1452
 8156SOL    HW230305   2.833   0.587   3.557 -3.6280 -0.7125  0.7657
 8157SOL     OW30306   8.578   0.427   5.389 -0.2082 -0.2277  0.0864
 8157SOL    HW130307   8.635   0.451   5.463  0.1117 -0.2945 -0.1366
 8157SOL    HW230308   8.490   0.423   5.427 -0.0723 -0.0669  0.4230
 8158SOL     OW30309   1.701   7.589   2.731  0.5062 -0.1376  0.0854
 8158SOL    HW130310   1.715   7.557   2.642 -3.4652  0.2171 -0.8541
 8158SOL    HW230311   1.721   7.682   2.726  0.2252 -0.1028 -0.4747
 8159SOL     OW30312   8.016   7.659   1.633 -0.1907  0.2294  0.3728
 8159SOL    HW130313   7.995   7.743   1.593 -1.5234  0.9772  2.4915
 8159SOL    HW230314   7.933   7.613   1.637  0.6393 -1.5503 -1.4071
 8160SOL     OW30315   8.593   5.695   5.736 -0.2950 -0.7387 -0.1156
 8160SOL    HW130316   8.639   5.618   5.704  0.8213  0.1700 -0.7931
 8160SOL    HW230317   8.662   5.755   5.763 -1.1328  0.0268  0.4096
 8161SOL     OW30318  10.296   4.588   8.806  0.1032 -0.1114  0.6984
 8161SOL    HW130319  10.289   4.508   8.753 -0.7364  0.4197 -0.0217
 8161SOL    HW230320  10.261   4.562   8.892 -2.3788  0.0435 -0.1959
 8162SOL     OW30321   1.588   3.880   5.597  0.1846  0.3000  0.1552
 8162SOL    HW130322   1.645   3.920   5.531 -0.8048  0.1694 -0.7996
 8162SOL    HW230323   1.635   3.801   5.625  0.2234 -0.1259 -1.0615
 8163SOL     OW30324   5.429   5.718   6.686  0.1535  0.3640  0.1498
 8163SOL    HW130325   5.388   5.722   6.772 -1.6685 -0.7718 -0.6042
 8163SOL    HW230326   5.518   5.749   6.700  0.3425 -1.1072  2.7003
 8164SOL     OW30327   0.166   6.254   4.606 -0.4176 -0.4084  0.0374
 8164SOL    HW130328   0.109   6.179   4.587 -0.6233 -0.2714  0.1094
 8164SOL    HW230329   0.248   6.215   4.634  1.4145 -0.7822 -4.9364
 8165SOL     OW30330  10.138   8.044   7.735  0.6577 -0.2043  0.6341
 8165SOL    HW130331  10.082   8.084   7.801  0.5236  3.4010 -1.4092
 8165SOL    HW230332  10.197   7.988   7.785 -2.2656 -1.2817  3.2406
 8166SOL     OW30333   0.098  10.545   9.145  0.1134 -0.2118 -0.1975
 8166SOL    HW130334   0.163  10.496   9.196  0.0173 -0.4188 -0.2721
 8166SOL    HW230335   0.016  10.499   9.161  0.4992 -1.9572 -2.6613
 8167SOL     OW30336   5.560   6.188   1.401 -0.4384 -0.5788 -0.0903
 8167SOL    HW130337   5.518   6.216   1.482  0.9370 -1.4741  0.9886
 8167SOL    HW230338   5.572   6.094   1.411  1.8190 -0.3776 -0.2672
 8168SOL     OW30339   7.317   8.635   6.382  0.0948 -0.3426  0.4958
 8168SOL    HW130340   7.391   8.654   6.324  0.4929 -2.4823  0.2394
 8168SOL    HW230341   7.343   8.556   6.429 -1.4710 -0.3425  1.4214
 8169SOL     OW30342   6.450   1.389   2.647  0.4469 -0.0610 -0.1524
 8169SOL    HW130343   6.465   1.475   2.687 -1.3944 -0.2124  0.9675
 8169SOL    HW230344   6.373   1.401   2.593 -1.3479 -1.5158  1.9023
 8170SOL     OW30345   3.724   5.531   8.187 -0.2703  0.2324 -0.3244
 8170SOL    HW130346   3.770   5.456   8.147 -1.2068  0.6798 -2.3571
 8170SOL    HW230347   3.736   5.602   8.125 -1.8173  0.9762  0.1892
 8171SOL     OW30348   7.379   0.409   6.967  0.0268 -0.2807  0.6153
 8171SOL    HW130349   7.444   0.466   6.925 -0.3387  0.1765  0.6686
 8171SOL    HW230350   7.406   0.405   7.059 -0.0017 -0.1171  0.6306
 8172SOL     OW30351   5.044   6.539   7.003 -0.1140 -0.3160 -0.1980
 8172SOL    HW130352   4.970   6.496   6.960  0.1113  2.0895 -3.3218
 8172SOL    HW230353   5.119   6.519   6.947  0.4316  2.0410 -0.4007
 8173SOL     OW30354   3.229   2.799   6.966  0.0699 -0.1177  0.5077
 8173SOL    HW130355   3.205   2.762   6.881 -0.2640 -1.4888  1.1606
 8173SOL    HW230356   3.278   2.878   6.945 -0.1852 -0.3163 -0.9519
 8174SOL     OW30357   1.846   9.968   7.927 -0.1697 -0.0992  0.0704
 8174SOL    HW130358   1.836   9.982   7.833 -0.0662 -2.3784 -0.3434
 8174SOL    HW230359   1.912  10.031   7.954  2.8587 -1.9939 -2.2384
 8175SOL     OW30360   1.692   7.901   4.470 -0.0305  0.1073  0.6417
 8175SOL    HW130361   1.665   7.990   4.494 -1.5024  0.0448 -0.5820
 8175SOL    HW230362   1.609   7.855   4.454  0.7172 -0.5741 -1.7511
 8176SOL     OW30363   8.642   4.499   4.954  0.3210  0.2937 -0.4728
 8176SOL    HW130364   8.591   4.569   4.914  0.6396  0.9517  0.2536
 8176SOL    HW230365   8.607   4.419   4.915 -1.6988  0.6565  0.4329
 8177SOL     OW30366   5.423   9.308   9.092 -0.0235 -0.5598 -0.1916
 8177SOL    HW130367   5.455   9.243   9.029  0.3802 -0.4350 -0.1154
 8177SOL    HW230368   5.501   9.354   9.122 -0.1434 -0.9935  0.8334
 8178SOL     OW30369   8.487   6.380   0.742 -0.0996 -0.4106 -0.8037
 8178SOL    HW130370   8.563   6.343   0.786 -0.2193  0.5400  0.2326
 8178SOL    HW230371   8.516   6.392   0.651  0.5133 -1.3406 -0.7506
 8179SOL     OW30372   8.027   8.567   2.781  0.1447  0.8524 -0.1644
 8179SOL    HW130373   8.053   8.601   2.866 -1.1541  0.1286  0.5473
 8179SOL    HW230374   7.937   8.537   2.793  0.5894 -1.1060 -1.2277
 8180SOL     OW30375   0.594   5.030   5.236  0.2192 -0.1580 -0.0459
 8180SOL    HW130376   0.587   5.120   5.269  1.7850  0.5059 -1.3846
 8180SOL    HW230377   0.525   5.025   5.169  0.0638  0.0081  0.0995
 8181SOL     OW30378   3.305   7.792   8.257  0.7001  0.1574  0.2439
 8181SOL    HW130379   3.330   7.700   8.252 -0.2134 -0.4189  3.5877
 8181SOL    HW230380   3.388   7.839   8.253  1.5762 -1.1087  1.8616
 8182SOL     OW30381   1.670   1.082   3.855  0.2332 -0.4181  0.6384
 8182SOL    HW130382   1.588   1.040   3.879  0.0339  0.0402  0.7678
 8182SOL    HW230383   1.664   1.095   3.761 -1.5566  3.1431  1.0980
 8183SOL     OW30384   9.288   9.375   6.882 -0.2494 -0.3738  0.4257
 8183SOL    HW130385   9.351   9.421   6.937  0.3867 -0.4206 -0.2508
 8183SOL    HW230386   9.205   9.382   6.929  0.5765 -1.8259  2.2070
 8184SOL     OW30387   9.828   1.900   9.650  0.6883 -0.1825  0.6922
 8184SOL    HW130388   9.778   1.821   9.627  1.0945  0.1866 -1.7790
 8184SOL    HW230389   9.763   1.962   9.682 -0.3007 -0.1954 -1.1415
 8185SOL     OW30390   9.363   4.477   3.401 -0.3138  0.1717 -0.6101
 8185SOL    HW130391   9.440   4.431   3.366 -1.0587 -1.5291 -0.1403
 8185SOL    HW230392   9.340   4.540   3.333  0.1427 -0.8797 -1.7915
 8186SOL     OW30393   1.494   0.304   0.293  0.2023 -0.0233 -0.2478
 8186SOL    HW130394   1.497   0.329   0.201 -1.1069  0.3520 -0.2028
 8186SOL    HW230395   1.585   0.308   0.322  0.5381  0.5468 -1.3402
 8187SOL     OW30396   2.139  10.093   6.543 -0.1547 -0.4788  0.1818
 8187SOL    HW130397   2.077  10.028   6.509 -0.4939  1.0093 -2.2272
 8187SOL    HW230398   2.214  10.041   6.571 -1.4122 -2.0993  0.7083
 8188SOL     OW30399   0.620   7.269   0.952 -0.0503  0.2504 -0.8221
 8188SOL    HW130400   0.663   7.285   0.868 -0.9024 -2.0242 -1.7530
 8188SOL    HW230401   0.540   7.223   0.930 -0.1413 -0.7022  1.2557
 8189SOL     OW30402   7.680   4.287   6.940  0.8067  0.7914  0.5778
 8189SOL    HW130403   7.656   4.236   7.017 -0.3525  1.3764  0.6298
 8189SOL    HW230404   7.630   4.248   6.869 -0.3407  2.0053  0.6775
 8190SOL     OW30405   8.368   2.755   6.618  0.3201  0.2925 -0.2606
 8190SOL    HW130406   8.452   2.780   6.657  0.5527 -0.2988 -0.3804
 8190SOL    HW230407   8.330   2.693   6.681 -0.8283  1.8475  0.6561
 8191SOL     OW30408   9.878   0.581   8.159  0.1539  0.1758  0.0766
 8191SOL    HW130409   9.954   0.638   8.152  1.1928 -1.1032  0.5714
 8191SOL    HW230410   9.865   0.571   8.253 -0.5109  0.2196 -0.0080
 8192SOL     OW30411   3.054   4.333   3.199 -0.0667 -0.2248 -0.3393
 8192SOL    HW130412   2.988   4.398   3.224  1.2092  0.0437  2.7957
 8192SOL    HW230413   3.064   4.278   3.277  2.3940 -1.1087 -1.1904
 8193SOL     OW30414   9.984   4.739   8.650 -0.4418 -0.1884 -0.0361
 8193SOL    HW130415  10.029   4.716   8.731  0.6358  1.2373 -0.1951
 8193SOL    HW230416   9.920   4.805   8.677 -0.7265 -0.3980 -0.2002
 8194SOL     OW30417   8.926   2.995  10.026 -0.5296 -0.2284  0.0729
 8194SOL    HW130418   8.898   3.041   9.947  0.8785 -0.9611 -0.9104
 8194SOL    HW230419   8.965   3.063  10.081 -1.7518  0.3313  0.2711
 8195SOL     OW30420   3.465   1.256  10.703 -0.1794 -0.1893  0.6198
 8195SOL    HW130421   3.406   1.238  10.777 -0.1344 -0.8856  0.4930
 8195SOL    HW230422   3.421   1.326  10.655 -0.1854  0.3105  1.3310
 8196SOL     OW30423   1.922   5.558   8.247 -0.0044  0.6183 -0.4309
 8196SOL    HW130424   1.950   5.559   8.155  1.0558  1.7944 -0.1252
 8196SOL    HW230425   1.831   5.587   8.244 -0.7416 -1.5966 -1.2939
 8197SOL     OW30426   9.256   8.999   6.593  0.5543 -0.5180 -0.1150
 8197SOL    HW130427   9.214   8.974   6.510 -1.1006  1.0856  0.1622
 8197SOL    HW230428   9.308   8.923   6.618 -1.1122 -2.1157 -1.2312
 8198SOL     OW30429   8.650   9.264   6.735 -0.2153  0.5201 -0.7049
 8198SOL    HW130430   8.744   9.258   6.716 -0.4280  0.1114 -1.6856
 8198SOL    HW230431   8.614   9.316   6.663 -0.9063 -0.2303 -0.9054
 8199SOL     OW30432   0.735   8.887  10.482  0.1044 -0.8245 -0.2984
 8199SOL    HW130433   0.652   8.903  10.528  0.4519 -2.4941  0.9918
 8199SOL    HW230434   0.733   8.794  10.460  0.7436 -0.4382 -2.1696
 8200SOL     OW30435  10.121   2.587  10.292 -0.2222  0.0123  0.0868
 8200SOL    HW130436  10.111   2.678  10.323  0.1167 -0.3411  1.3181
 8200SOL    HW230437  10.149   2.539  10.370 -0.3369 -1.1454 -0.5684
 8201SOL     OW30438   4.983   5.757   1.200 -0.1190  0.5183 -0.2172
 8201SOL    HW130439   5.056   5.812   1.171  0.9505 -0.5057  0.4124
 8201SOL    HW230440   4.982   5.768   1.295 -1.4887  1.3368 -0.3084
 8202SOL     OW30441   2.603  10.635  10.773 -0.4454  0.0568  0.4529
 8202SOL    HW130442   2.562  10.583  10.842 -0.8736 -1.0638 -0.6058
 8202SOL    HW230443   2.683  10.587  10.751 -0.0892  0.6382  0.4632
 8203SOL     OW30444  10.610   8.338   8.239 -0.2149  0.1987  0.3737
 8203SOL    HW130445  10.624   8.388   8.159 -0.2387  0.4999  0.5533
 8203SOL    HW230446  10.568   8.257   8.211 -1.6791  0.9715  0.2325
 8204SOL     OW30447   4.211   4.492   7.417  0.0146 -0.5287  0.1873
 8204SOL    HW130448   4.250   4.557   7.476 -2.2620 -0.7605  2.0720
 8204SOL    HW230449   4.281   4.473   7.353  2.4309  0.1150  2.4619
 8205SOL     OW30450   9.955   0.164   4.378  0.4535  0.1297 -0.0166
 8205SOL    HW130451   9.938   0.117   4.296 -0.3809  0.0290  0.2117
 8205SOL    HW230452   9.904   0.245   4.369  1.0751  0.5338  0.0275
 8206SOL     OW30453   4.326   3.477   6.406  0.4856 -0.0708  0.2802
 8206SOL    HW130454   4.358   3.459   6.318 -1.1135 -0.4698 -0.2359
 8206SOL    HW230455   4.368   3.560   6.430  1.1940 -0.1293 -0.6992
 8207SOL     OW30456   9.685   6.469   5.713  0.1483 -0.8813  0.2287
 8207SOL    HW130457   9.611   6.470   5.654 -0.8413 -0.0678  1.4258
 8207SOL    HW230458   9.736   6.546   5.690 -0.1179 -0.6883  0.2855
 8208SOL     OW30459   3.666   9.279   9.784 -0.2472  0.3259 -0.2059
 8208SOL    HW130460   3.634   9.358   9.828  0.4285  1.2760 -1.3722
 8208SOL    HW230461   3.760   9.291   9.777 -0.3143  0.1771 -1.8121
 8209SOL     OW30462   6.462   6.814   0.771  0.1685 -0.3335 -0.1982
 8209SOL    HW130463   6.537   6.818   0.830 -0.5836 -0.1917  0.7679
 8209SOL    HW230464   6.448   6.720   0.757 -1.3609 -0.5382  2.1392
 8210SOL     OW30465   4.150   6.721   7.436 -0.3191  0.0147 -0.0135
 8210SOL    HW130466   4.088   6.670   7.488  1.4088 -0.3817  1.7828
 8210SOL    HW230467   4.141   6.810   7.469  0.7134 -0.2210  0.9631
 8211SOL     OW30468   5.286   8.582  10.919  0.4440  0.2244  0.1942
 8211SOL    HW130469   5.302   8.613  10.830  0.8485  1.7485  0.7591
 8211SOL    HW230470   5.367   8.601  10.966  0.6465 -1.5906  0.6462
 8212SOL     OW30471   3.071  10.195   9.886  0.1747  0.6233  0.2008
 8212SOL    HW130472   3.148  10.240   9.922  2.4869 -0.4573 -2.9112
 8212SOL    HW230473   3.083  10.104   9.913 -0.0164  0.4564 -0.2785
 8213SOL     OW30474   5.121   8.856   8.593  0.0378 -0.2550 -0.0850
 8213SOL    HW130475   5.149   8.896   8.676  0.9611 -0.9628 -0.0477
 8213SOL    HW230476   5.194   8.801   8.567  0.0154  0.4438 -1.7151
 8214SOL     OW30477   8.167   0.607   8.527  0.1719 -0.3698 -0.0459
 8214SOL    HW130478   8.229   0.544   8.489  0.3142 -1.1372  1.3615
 8214SOL    HW230479   8.086   0.556   8.538  0.5225 -0.5847  1.8428
 8215SOL     OW30480   6.696   9.080   8.186 -0.3262  0.3450 -0.2280
 8215SOL    HW130481   6.767   9.016   8.185 -0.9630 -0.3754 -0.0856
 8215SOL    HW230482   6.706   9.124   8.271 -1.1814 -1.0710  0.6499
 8216SOL     OW30483   4.484   9.028   9.315 -0.1489 -0.0491  0.0814
 8216SOL    HW130484   4.425   8.952   9.314 -1.2234  0.7637  0.4336
 8216SOL    HW230485   4.529   9.023   9.230 -0.4641 -0.8702 -0.0564
 8217SOL     OW30486   8.218   6.743   4.906  0.2536 -0.6443  0.4528
 8217SOL    HW130487   8.224   6.654   4.941  0.6645 -0.3229  1.2356
 8217SOL    HW230488   8.280   6.744   4.834  1.4721 -0.5559  1.4571
 8218SOL     OW30489   2.872   1.334   8.977 -0.4996  0.2098 -0.3553
 8218SOL    HW130490   2.944   1.352   9.038  0.5792 -0.8068 -1.2860
 8218SOL    HW230491   2.850   1.419   8.940 -1.0290  0.8114  1.2763
 8219SOL     OW30492   0.312   4.359   7.943 -0.0331 -0.0795 -0.1276
 8219SOL    HW130493   0.391   4.347   7.889 -0.5993  0.1761 -1.0472
 8219SOL    HW230494   0.253   4.408   7.886 -1.0872 -0.7926  0.3327
 8220SOL     OW30495   6.138   4.148   3.658  0.0345  0.7580  0.5746
 8220SOL    HW130496   6.119   4.226   3.710 -0.0590  0.1510  1.4575
 8220SOL    HW230497   6.207   4.176   3.597  0.8932  1.1961  1.7168
 8221SOL     OW30498   5.330   5.200   3.326 -0.6068  0.2001  0.6119
 8221SOL    HW130499   5.250   5.148   3.317 -1.1944  1.1796 -0.0725
 8221SOL    HW230500   5.348   5.231   3.237  0.7606 -0.3234  0.6942
 8222SOL     OW30501   8.792   5.711   5.172  0.1904  0.3664  0.0632
 8222SOL    HW130502   8.788   5.805   5.157  0.5894  0.5708  1.1683
 8222SOL    HW230503   8.825   5.702   5.261  0.8479 -0.8314 -0.2754
 8223SOL     OW30504   3.953   6.413   2.939 -0.3941  0.0278  0.6382
 8223SOL    HW130505   3.977   6.335   2.888 -0.7989 -0.1533  0.7200
 8223SOL    HW230506   4.023   6.421   3.004  0.6536  0.8290 -0.5489
 8224SOL     OW30507  10.301   4.968   9.946  0.3063  0.2944  0.6124
 8224SOL    HW130508  10.260   4.886   9.918 -1.0420  1.1312  0.0853
 8224SOL    HW230509  10.260   5.035   9.893  0.8196  1.4221  1.6017
 8225SOL     OW30510   5.182   4.817   8.228  0.0952  0.2940  0.1028
 8225SOL    HW130511   5.173   4.722   8.223 -2.5250  0.4514 -0.0653
 8225SOL    HW230512   5.270   4.832   8.260  0.1891 -2.2280  1.2438
 8226SOL     OW30513   8.590   1.836   9.459  0.2356 -0.2999  0.3744
 8226SOL    HW130514   8.661   1.776   9.438  0.2859  0.1984 -0.9970
 8226SOL    HW230515   8.513   1.796   9.419  0.6677  1.6238 -2.7600
 8227SOL     OW30516   3.184   1.529   0.111 -0.4204  0.5884  0.3193
 8227SOL    HW130517   3.159   1.537   0.018 -0.1154  2.1775  0.3593
 8227SOL    HW230518   3.153   1.610   0.151 -0.2731  0.0462  1.5564
 8228SOL     OW30519   4.001   7.763   5.171 -0.5730  0.6230  0.1963
 8228SOL    HW130520   3.963   7.846   5.203 -0.9601  0.2808  0.6559
 8228SOL    HW230521   4.091   7.765   5.202  0.2667  2.0658 -2.0591
 8229SOL     OW30522   9.457   5.357   9.354 -0.2691  0.0821 -0.2595
 8229SOL    HW130523   9.541   5.372   9.398 -0.8926  0.0514  1.0063
 8229SOL    HW230524   9.440   5.263   9.366 -0.3233  0.0187 -0.8125
 8230SOL     OW30525   2.439   5.575   0.850 -0.1424  0.0351  0.1685
 8230SOL    HW130526   2.417   5.485   0.831 -2.8751  0.6213  0.1332
 8230SOL    HW230527   2.449   5.578   0.946 -2.5332  0.0892  0.4729
 8231SOL     OW30528  10.464   3.011   5.142  0.4357 -0.5242 -0.1167
 8231SOL    HW130529  10.446   3.001   5.049  0.2440  3.6906 -0.7419
 8231SOL    HW230530  10.391   3.062   5.176  1.6898  0.1333  1.7831
 8232SOL     OW30531   4.334   6.357   5.197 -0.4475  0.6474  0.4184
 8232SOL    HW130532   4.253   6.353   5.147 -1.9703  1.2800  2.6753
 8232SOL    HW230533   4.395   6.404   5.140 -1.5673  0.0227 -1.3971
 8233SOL     OW30534   7.354   8.281   1.567  0.1511 -0.3455 -0.0993
 8233SOL    HW130535   7.421   8.271   1.499  0.3136  0.1855 -0.0198
 8233SOL    HW230536   7.386   8.228   1.640  3.3044  3.9104  2.0595
 8234SOL     OW30537   2.453   8.302   6.046  0.3217 -0.0998 -0.6267
 8234SOL    HW130538   2.366   8.318   6.010 -0.6878  0.2772  1.8247
 8234SOL    HW230539   2.446   8.217   6.091 -0.2539  1.8508  3.4311
 8235SOL     OW30540   9.162   6.195   8.167  0.1085 -0.0035 -0.6285
 8235SOL    HW130541   9.239   6.235   8.126 -0.1198  1.1053 -0.0162
 8235SOL    HW230542   9.178   6.101   8.161  1.0287  0.1892 -1.4248
 8236SOL     OW30543   4.585   2.425  10.884  0.0333 -0.4103 -0.0199
 8236SOL    HW130544   4.681   2.425  10.895 -0.1235  0.6447  1.5587
 8236SOL    HW230545   4.570   2.490  10.815  0.4040  0.0223  0.2983
 8237SOL     OW30546   9.878   5.576   7.085  0.3416  0.4268  0.6738
 8237SOL    HW130547   9.788   5.577   7.052  0.2472 -0.1653  0.9153
 8237SOL    HW230548   9.873   5.617   7.171 -0.4548 -3.3043  2.5855
 8238SOL     OW30549  10.876   9.182   6.509  0.1682  0.0023 -0.1439
 8238SOL    HW130550  10.876   9.125   6.586  0.0201 -0.7836 -0.7151
 8238SOL    HW230551  10.783   9.192   6.486  0.0540  1.8389  0.9207
 8239SOL     OW30552   5.517   3.327   2.186 -0.1263  0.4818  0.4208
 8239SOL    HW130553   5.456   3.318   2.113 -1.3727  3.2416  1.0252
 8239SOL    HW230554   5.569   3.405   2.165 -0.4361  1.2838  2.3781
 8240SOL     OW30555   6.288   2.334  10.633 -0.1238 -0.2106 -0.0809
 8240SOL    HW130556   6.357   2.358  10.572 -0.8041  1.3477 -0.2876
 8240SOL    HW230557   6.334   2.292  10.706  1.1823  1.6308  0.2326
 8241SOL     OW30558   2.077  10.438   1.041 -0.5103  0.0937  0.7018
 8241SOL    HW130559   2.096  10.456   0.949  0.4757 -1.2194  0.6125
 8241SOL    HW230560   2.114  10.512   1.088  0.1988  0.1082  0.1364
 8242SOL     OW30561   3.737   9.171   6.884 -0.7109 -0.0716  0.5575
 8242SOL    HW130562   3.722   9.119   6.963  1.3080 -0.6072  0.6597
 8242SOL    HW230563   3.793   9.243   6.913 -1.1023  0.5210 -0.1330
 8243SOL     OW30564   5.386   3.380   1.927 -0.1106 -0.0673 -0.0636
 8243SOL    HW130565   5.449   3.410   1.861  0.6794  0.3551  0.8670
 8243SOL    HW230566   5.316   3.340   1.876 -0.3452  1.7647 -1.2694
 8244SOL     OW30567   3.639   6.816   1.308  0.5515  0.1831  0.4014
 8244SOL    HW130568   3.558   6.866   1.308  0.1699 -0.4234  0.5507
 8244SOL    HW230569   3.665   6.811   1.216  1.0523  1.3638  0.4542
 8245SOL     OW30570   7.436   5.255   3.254  0.2232  0.3880  0.2860
 8245SOL    HW130571   7.393   5.335   3.284  1.8767  1.0016  1.1623
 8245SOL    HW230572   7.529   5.278   3.249  0.5007 -0.9117 -1.4168
 8246SOL     OW30573  10.452   7.664   5.949 -0.4394 -0.2193  0.6420
 8246SOL    HW130574  10.466   7.665   6.044  0.7172  0.7540  0.4778
 8246SOL    HW230575  10.418   7.751   5.929 -0.2718 -0.2796  0.0948
 8247SOL     OW30576   6.492   9.729   3.928 -0.2336  0.1550  0.2822
 8247SOL    HW130577   6.536   9.800   3.974  1.6931 -1.0165  0.3482
 8247SOL    HW230578   6.472   9.764   3.842  1.7895  0.4311 -0.1075
 8248SOL     OW30579   9.893   0.544   6.557  0.9736  0.5824 -0.2936
 8248SOL    HW130580   9.932   0.530   6.644  0.7222  0.1387 -0.2444
 8248SOL    HW230581   9.843   0.625   6.566  1.4382  0.8610 -0.1996
 8249SOL     OW30582   9.444   5.459   9.981 -0.0909 -0.1368 -0.4923
 8249SOL    HW130583   9.455   5.383  10.039 -0.3391 -0.0375 -0.3188
 8249SOL    HW230584   9.391   5.520  10.030  0.7148  0.4630 -0.3417
 8250SOL     OW30585   8.254   5.098   6.697 -0.2125 -0.0310 -0.0187
 8250SOL    HW130586   8.286   5.031   6.757  1.0330  1.2529  0.8072
 8250SOL    HW230587   8.316   5.097   6.624 -0.7840 -0.4590 -0.5126
 8251SOL     OW30588  10.467   6.590   8.903 -0.6125 -0.4079  0.7486
 8251SOL    HW130589  10.443   6.560   8.815 -1.5628  1.3351  0.3628
 8251SOL    HW230590  10.550   6.635   8.890  0.5840 -2.3488  1.2496
 8252SOL     OW30591  10.291  10.393   4.623 -0.2623  0.3652  0.6357
 8252SOL    HW130592  10.291  10.298   4.621 -0.4064  0.3046  2.3379
 8252SOL    HW230593  10.209  10.416   4.667 -0.4605  1.2976 -0.1850
 8253SOL     OW30594  10.583   3.628   7.487  0.1578 -0.0731 -0.0487
 8253SOL    HW130595  10.670   3.588   7.486 -0.1317 -0.9631  2.4326
 8253SOL    HW230596  10.527   3.564   7.441  0.3924 -0.7254  0.5473
 8254SOL     OW30597   7.953  10.697   0.634  0.0819  0.5152  0.3329
 8254SOL    HW130598   8.025  10.703   0.697 -0.7608 -0.3073  1.4131
 8254SOL    HW230599   7.883  10.749   0.673 -0.2830  0.4107 -0.1783
 8255SOL     OW30600   6.919   3.854   4.463  0.1344  0.4366  0.0850
 8255SOL    HW130601   6.856   3.785   4.483  0.1420  0.5563  0.5415
 8255SOL    HW230602   6.900   3.923   4.527  2.5263 -0.6283  2.1320
 8256SOL     OW30603   4.763   3.622   7.775  0.0160 -0.2079  0.4397
 8256SOL    HW130604   4.716   3.541   7.754 -1.1232  0.7001 -0.6324
 8256SOL    HW230605   4.855   3.600   7.762 -0.3166 -1.1622 -0.4889
 8257SOL     OW30606   8.739   4.722  10.188 -0.0091  0.2890  0.2641
 8257SOL    HW130607   8.693   4.793  10.233 -1.6904 -0.8612  0.4609
 8257SOL    HW230608   8.713   4.730  10.096  1.3300  1.0519 -0.0705
 8258SOL     OW30609   4.392   8.154   3.113 -0.2120 -0.4195  0.1953
 8258SOL    HW130610   4.357   8.241   3.133  0.5133 -0.3786  1.3502
 8258SOL    HW230611   4.437   8.127   3.193 -0.9572 -2.1360  0.0614
 8259SOL     OW30612   7.828   1.489   7.825  0.5755 -0.2183 -0.1863
 8259SOL    HW130613   7.740   1.450   7.822 -0.1711  1.0545  2.5639
 8259SOL    HW230614   7.872   1.443   7.897  1.4805  0.5059 -0.2639
 8260SOL     OW30615   5.676   5.812   1.188  0.7737 -0.1011  0.0041
 8260SOL    HW130616   5.696   5.747   1.121  0.4616 -0.6526  0.4405
 8260SOL    HW230617   5.595   5.781   1.229 -0.4041  1.4694 -0.9581
 8261SOL     OW30618   0.092   6.706   8.804  0.0757  0.2481  0.6754
 8261SOL    HW130619   0.097   6.624   8.756 -1.3565  0.8341 -0.5493
 8261SOL    HW230620   0.071   6.772   8.737  4.5571  2.3033  0.9061
 8262SOL     OW30621   7.268   4.426   7.527  0.0418 -0.1460 -0.0517
 8262SOL    HW130622   7.196   4.381   7.572 -0.4835 -1.0998 -1.7637
 8262SOL    HW230623   7.320   4.354   7.489  1.0238  0.5974 -0.1497
 8263SOL     OW30624  10.888   4.671   7.004 -0.2819  0.9066  0.4460
 8263SOL    HW130625  10.922   4.720   6.929 -1.5226  2.7459  1.0298
 8263SOL    HW230626  10.954   4.682   7.072 -0.0676  0.8660  0.2487
 8264SOL     OW30627   7.663   7.371   3.971  0.0859  0.4044  0.6308
 8264SOL    HW130628   7.678   7.462   3.944  1.3041  0.6487  1.9758
 8264SOL    HW230629   7.720   7.320   3.914  0.8653  0.6912  1.1318
 8265SOL     OW30630   1.031   6.128   0.990  0.2041 -0.6188  0.2682
 8265SOL    HW130631   0.980   6.065   0.938 -0.6648  1.1175 -1.0924
 8265SOL    HW230632   0.976   6.147   1.065 -0.5137  0.1192 -0.4294
 8266SOL     OW30633   7.919   3.676   6.093  0.2288  0.2148  0.3445
 8266SOL    HW130634   7.836   3.636   6.065 -0.2122 -0.7753  2.8673
 8266SOL    HW230635   7.982   3.648   6.027 -1.0806 -0.4856 -0.6635
 8267SOL     OW30636   8.493   3.392   2.200 -0.3805  0.1493  0.0693
 8267SOL    HW130637   8.521   3.342   2.277  0.5505  0.2344 -0.2039
 8267SOL    HW230638   8.450   3.470   2.237  0.0353  0.1787  0.5116
 8268SOL     OW30639   6.973   1.825   7.815 -0.3144  0.4188  0.5077
 8268SOL    HW130640   6.931   1.741   7.800 -0.3619  0.6137 -0.5782
 8268SOL    HW230641   7.033   1.809   7.888 -1.1544 -0.2460  1.0729
 8269SOL     OW30642   7.281   4.166   0.835  0.3797 -0.1626 -0.0060
 8269SOL    HW130643   7.190   4.191   0.821  0.8475  0.4592 -2.3379
 8269SOL    HW230644   7.297   4.097   0.770  1.1083 -1.5851  1.5920
 8270SOL     OW30645  10.697   1.563   3.791  0.5213  0.4406  0.7066
 8270SOL    HW130646  10.749   1.566   3.711 -0.3949  0.6697  0.1165
 8270SOL    HW230647  10.663   1.652   3.801  0.7782  0.4615  1.4518
 8271SOL     OW30648   8.410   6.958   2.181 -0.0257 -0.1655  0.5580
 8271SOL    HW130649   8.452   7.043   2.171  0.0931 -0.3497 -0.7497
 8271SOL    HW230650   8.433   6.929   2.269 -0.5181  1.3846  1.2100
 8272SOL     OW30651   8.014   9.327   9.578 -0.2492 -0.0895  0.5185
 8272SOL    HW130652   8.019   9.311   9.672  0.7743 -0.4745  0.4193
 8272SOL    HW230653   7.993   9.241   9.541  2.0448 -0.6037  0.2235
 8273SOL     OW30654   5.665  10.743   7.417 -0.1345  0.2127  0.2686
 8273SOL    HW130655   5.639  10.792   7.339 -1.3652 -1.1407 -0.2223
 8273SOL    HW230656   5.594  10.759   7.479  0.5413  0.7857  0.9065
 8274SOL     OW30657   5.838   8.711   6.849 -0.6094 -0.2103  0.5942
 8274SOL    HW130658   5.902   8.771   6.887  0.4610 -1.9641  1.7198
 8274SOL    HW230659   5.786   8.680   6.923 -1.7685  0.0036 -0.0945
 8275SOL     OW30660   0.968   5.254   8.683  0.2499  0.0461 -0.1724
 8275SOL    HW130661   0.952   5.178   8.740 -0.3113 -0.7047 -1.2922
 8275SOL    HW230662   1.002   5.216   8.602 -0.7318  0.9289 -1.0185
 8276SOL     OW30663   3.565   7.112   6.320 -0.1243 -0.4404 -0.2309
 8276SOL    HW130664   3.558   7.022   6.287  0.3386 -1.2334  1.7044
 8276SOL    HW230665   3.655   7.138   6.301  0.1805 -0.9455  0.4596
 8277SOL     OW30666   3.478   3.161   5.364  0.0023  0.3473  0.0619
 8277SOL    HW130667   3.430   3.189   5.286  0.7530  1.0081 -0.1835
 8277SOL    HW230668   3.480   3.238   5.421 -1.8505 -0.5564  1.4464
 8278SOL     OW30669  10.480   5.531   0.016  0.2639  0.3850  0.0302
 8278SOL    HW130670  10.402   5.550   0.068 -0.5997  0.0361 -1.1047
 8278SOL    HW230671  10.536   5.608   0.028 -1.9903  2.5689 -2.3210
 8279SOL     OW30672   9.123   4.350   0.548  0.1877  0.1304 -0.2372
 8279SOL    HW130673   9.100   4.437   0.580 -2.1124 -0.4068 -0.2630
 8279SOL    HW230674   9.078   4.343   0.463 -2.8656 -2.3510  1.3710
 8280SOL     OW30675   9.664   3.515   0.587  0.4105  0.0391 -0.2925
 8280SOL    HW130676   9.736   3.573   0.562  0.6052 -0.4301 -0.8821
 8280SOL    HW230677   9.665   3.446   0.519  0.1618 -0.6181  0.3576
 8281SOL     OW30678   9.388   9.811   5.371 -0.3493 -0.5012 -0.2913
 8281SOL    HW130679   9.333   9.872   5.421 -0.2951 -1.0888  0.5095
 8281SOL    HW230680   9.380   9.840   5.280  0.5631  1.4141  0.1888
 8282SOL     OW30681  10.423   8.129   2.599  0.0715  0.1518 -0.0408
 8282SOL    HW130682  10.337   8.087   2.602  0.6076 -1.1575 -1.8572
 8282SOL    HW230683  10.430   8.163   2.510  2.0846 -1.2556 -0.4790
 8283SOL     OW30684   4.669   8.080   5.379  0.4799 -0.4795  0.2530
 8283SOL    HW130685   4.578   8.073   5.351  0.8736 -1.6980 -0.8676
 8283SOL    HW230686   4.691   8.172   5.367 -0.7784 -0.0344  1.1787
 8284SOL     OW30687   9.227   4.961   3.249 -0.0021 -0.2168  0.0852
 8284SOL    HW130688   9.189   5.042   3.213 -1.3596 -0.8110  0.1286
 8284SOL    HW230689   9.214   4.968   3.343  1.4927  0.2981  0.2759
 8285SOL     OW30690   9.120   9.644   3.905  0.3221 -0.3413  0.3631
 8285SOL    HW130691   9.189   9.578   3.915 -1.6551 -2.4622  0.7678
 8285SOL    HW230692   9.127   9.672   3.814  2.7300  0.7760  0.8053
 8286SOL     OW30693   4.462   7.365   4.467  0.0893 -0.0343 -0.2369
 8286SOL    HW130694   4.401   7.409   4.408 -1.7569 -2.2584 -0.1473
 8286SOL    HW230695   4.427   7.381   4.554 -0.2572 -1.0883 -0.1647
 8287SOL     OW30696   1.234   7.253   0.269  0.1946 -0.1472 -0.0829
 8287SOL    HW130697   1.266   7.307   0.340 -0.6178  0.0774  0.1243
 8287SOL    HW230698   1.288   7.174   0.273  0.9902  0.3861 -0.0175
 8288SOL     OW30699   6.846   0.883   8.524  0.0630  0.3036  0.1863
 8288SOL    HW130700   6.900   0.838   8.589 -1.2847 -0.6653  0.6720
 8288SOL    HW230701   6.895   0.962   8.503  1.8752 -0.7398  0.2729
 8289SOL     OW30702  10.534  10.414   5.142  0.0189  0.2206  0.0933
 8289SOL    HW130703  10.621  10.388   5.112  0.1480  0.8629 -0.0952
 8289SOL    HW230704  10.507  10.484   5.082 -0.5640  0.1291  0.2401
 8290SOL     OW30705   7.553   3.024   3.852  0.4983 -0.4746  0.0756
 8290SOL    HW130706   7.559   3.043   3.946  2.4275  0.9078 -0.2613
 8290SOL    HW230707   7.590   2.936   3.843  1.6399 -0.0641  0.4973
 8291SOL     OW30708   5.083   8.473   9.999  0.4651  0.5478 -0.3192
 8291SOL    HW130709   5.108   8.381  10.003  0.5328  0.5411 -0.7942
 8291SOL    HW230710   4.992   8.475  10.027  0.4107  0.3107 -0.4758
 8292SOL     OW30711   4.708  10.877   1.211  0.3055  0.1869 -0.1603
 8292SOL    HW130712   4.646  10.844   1.146 -0.6271 -1.6087  1.5325
 8292SOL    HW230713   4.654  10.922   1.276  1.0266  0.5043  0.2332
 8293SOL     OW30714  10.593   5.194   8.102 -0.3072 -0.7090 -0.0898
 8293SOL    HW130715  10.563   5.271   8.053  1.0411  0.8212  1.3788
 8293SOL    HW230716  10.514   5.161   8.144 -0.9025 -0.0887 -0.6808
 8294SOL     OW30717   9.765   4.989   1.629 -0.6610  0.0627  0.3799
 8294SOL    HW130718   9.859   4.990   1.644 -0.7205  0.3602  0.7445
 8294SOL    HW230719   9.727   4.957   1.712 -0.7687 -2.1677 -0.4490
 8295SOL     OW30720   2.991   1.464   3.758 -0.2207 -0.2188  0.2511
 8295SOL    HW130721   3.079   1.497   3.778 -0.2634  0.4455 -0.5915
 8295SOL    HW230722   2.951   1.533   3.705 -1.6508 -0.0216  1.5119
 8296SOL     OW30723   6.425   4.459   6.948 -0.2730  0.0187  0.1843
 8296SOL    HW130724   6.360   4.502   7.004 -0.3510 -0.1438  0.2171
 8296SOL    HW230725   6.491   4.426   7.010  0.1307  0.6730  0.1157
 8297SOL     OW30726   0.353  10.848   4.085 -0.0427 -0.0989  0.4982
 8297SOL    HW130727   0.383  10.761   4.060  0.6596  0.4041 -0.4807
 8297SOL    HW230728   0.362  10.900   4.005 -0.1780  0.9363  1.1430
 8298SOL     OW30729   0.948   1.160   5.288  0.4495 -0.3164 -0.2645
 8298SOL    HW130730   1.000   1.116   5.355 -0.1532 -0.7858 -0.1016
 8298SOL    HW230731   0.998   1.240   5.268 -0.8239  1.4742  2.9494
 8299SOL     OW30732   9.621   0.239   4.466 -0.1733  0.2506  0.3306
 8299SOL    HW130733   9.649   0.330   4.451  0.4411 -0.0274 -0.2491
 8299SOL    HW230734   9.629   0.227   4.561  1.2990  0.3166  0.2350
 8300SOL     OW30735   2.607   7.535   5.491  0.6661  0.3046  0.0989
 8300SOL    HW130736   2.591   7.628   5.507 -0.7751 -0.2530  2.1951
 8300SOL    HW230737   2.581   7.522   5.399 -4.2640  1.0222  1.1306
 8301SOL     OW30738   4.139   3.629   4.548 -0.0854  0.3736  0.2461
 8301SOL    HW130739   4.157   3.551   4.495 -2.4543 -1.1804  1.5765
 8301SOL    HW230740   4.174   3.701   4.495  1.3487 -1.4427 -1.4844
 8302SOL     OW30741   3.451   2.117   9.419 -0.3383 -0.1144  0.1028
 8302SOL    HW130742   3.389   2.070   9.362  0.5505  0.4675 -1.4180
 8302SOL    HW230743   3.455   2.064   9.499 -0.8262 -1.5747 -0.7875
 8303SOL     OW30744   6.602   1.697   8.923 -0.3243  0.3643 -0.1994
 8303SOL    HW130745   6.623   1.784   8.958  0.2349  0.5530 -0.9570
 8303SOL    HW230746   6.528   1.712   8.865 -1.8996 -0.1136  1.6035
 8304SOL     OW30747   3.663   4.962  10.014  0.0747 -0.5037  0.5586
 8304SOL    HW130748   3.686   5.055  10.017  1.0694 -0.7442  1.0199
 8304SOL    HW230749   3.650   4.943   9.921 -0.6602  0.2135  0.5110
 8305SOL     OW30750   4.914   5.373   6.069  0.4893 -0.1292  0.1746
 8305SOL    HW130751   4.821   5.351   6.075  0.3895  0.2240 -0.0692
 8305SOL    HW230752   4.959   5.297   6.105  0.0520  0.2310  1.5493
 8306SOL     OW30753   9.106   2.665   1.804 -0.2134 -0.0075 -0.3661
 8306SOL    HW130754   9.195   2.693   1.827  0.0849 -0.8769 -0.4169
 8306SOL    HW230755   9.062   2.745   1.775 -0.8495  1.4012  3.8049
 8307SOL     OW30756   5.701   4.611   4.533  0.1034  0.4920  0.0090
 8307SOL    HW130757   5.618   4.568   4.553  1.0179 -0.7309  1.4476
 8307SOL    HW230758   5.687   4.703   4.556 -0.3259 -0.0351  2.0878
 8308SOL     OW30759   7.156   2.147   8.473  0.2507 -0.1599  0.5479
 8308SOL    HW130760   7.193   2.107   8.552  1.0860  1.6049  1.0984
 8308SOL    HW230761   7.106   2.222   8.505 -1.4791 -0.8493 -0.4315
 8309SOL     OW30762   1.925   3.904   0.663  0.0731  0.0507  0.0272
 8309SOL    HW130763   1.912   3.961   0.738  2.2074 -1.1145  1.4098
 8309SOL    HW230764   1.841   3.861   0.649 -0.8661  1.6605  0.5223
 8310SOL     OW30765   7.785   2.060   1.473 -0.0533  0.3535  0.1031
 8310SOL    HW130766   7.861   2.008   1.448  0.5510  2.0821 -2.0600
 8310SOL    HW230767   7.822   2.140   1.511 -0.7530  1.1277 -0.7885
 8311SOL     OW30768   5.835   0.996   7.734  0.2828 -0.5014 -0.5254
 8311SOL    HW130769   5.858   1.082   7.770 -0.7313 -0.2434 -0.4721
 8311SOL    HW230770   5.841   1.008   7.639  2.1428 -0.9534 -0.4985
 8312SOL     OW30771   2.481   7.546   6.128 -0.0408  0.3214 -0.4500
 8312SOL    HW130772   2.457   7.577   6.040  0.6210 -0.1512 -0.8050
 8312SOL    HW230773   2.537   7.471   6.112 -0.4164 -0.1527  0.3887
 8313SOL     OW30774   4.184   4.754  10.798  0.1917  0.3708  0.0416
 8313SOL    HW130775   4.275   4.740  10.770 -0.1385 -1.2766 -0.3455
 8313SOL    HW230776   4.190   4.818  10.869  1.9448 -1.5238  1.7403
 8314SOL     OW30777   5.281   4.895   4.603  0.2582  0.3287 -0.2323
 8314SOL    HW130778   5.206   4.945   4.573 -1.6555 -0.8251  2.2190
 8314SOL    HW230779   5.281   4.816   4.549 -1.9668 -0.8445  1.3049
 8315SOL     OW30780   9.237   5.341   6.485  0.6372 -0.2539 -0.0486
 8315SOL    HW130781   9.331   5.322   6.485  0.6718 -0.0890  0.2853
 8315SOL    HW230782   9.213   5.343   6.578  0.4900  0.5995 -0.0985
 8316SOL     OW30783   9.328   4.060   7.925 -0.8222  0.3287 -0.0956
 8316SOL    HW130784   9.275   3.995   7.970 -1.6455  1.6856  0.9803
 8316SOL    HW230785   9.304   4.143   7.967  1.3757  1.1213 -0.3150
 8317SOL     OW30786   0.226   2.478   2.776 -0.0879  0.2704  0.0518
 8317SOL    HW130787   0.214   2.522   2.692  0.0618 -2.8238 -1.6967
 8317SOL    HW230788   0.137   2.465   2.809 -0.1898  0.6120 -0.0799
 8318SOL     OW30789   2.027   8.097   1.305  0.2359  0.1559 -0.0491
 8318SOL    HW130790   2.030   8.004   1.328 -0.6031  0.2872  0.6215
 8318SOL    HW230791   1.976   8.100   1.224  0.6971 -0.0057 -0.3544
 8319SOL     OW30792   5.550   3.929   2.504 -0.0214 -0.5425 -0.1271
 8319SOL    HW130793   5.640   3.955   2.525 -0.2528 -1.0447  1.6453
 8319SOL    HW230794   5.495   3.994   2.548 -0.5480 -0.0431 -1.4789
 8320SOL     OW30795   2.915   3.811   9.576  0.2245  0.8750  0.2797
 8320SOL    HW130796   2.941   3.733   9.625  0.5730  0.8210  0.0105
 8320SOL    HW230797   2.936   3.790   9.485  0.4593  1.3402  0.2261
 8321SOL     OW30798   1.065   5.005   1.681  0.2318  0.4136 -0.4198
 8321SOL    HW130799   1.090   4.969   1.766 -1.8899 -1.3115 -0.4487
 8321SOL    HW230800   0.970   4.995   1.677  0.2313  0.7314 -2.8794
 8322SOL     OW30801   4.378   7.564   4.945  0.0079  0.5172  0.2181
 8322SOL    HW130802   4.325   7.493   4.982 -0.9502  0.2497 -1.5428
 8322SOL    HW230803   4.314   7.628   4.915  0.7662  1.0185 -0.3547
 8323SOL     OW30804   8.833   7.146   3.329  0.2392  0.1359  0.0774
 8323SOL    HW130805   8.773   7.111   3.262  0.9927  1.5926 -1.4236
 8323SOL    HW230806   8.920   7.119   3.299  0.5687  0.6002  0.6121
 8324SOL     OW30807   3.967   9.117   6.293 -0.1248  1.1354 -0.5860
 8324SOL    HW130808   3.941   9.209   6.302 -1.7585  0.7102 -0.7185
 8324SOL    HW230809   3.939   9.093   6.205  1.4704  0.8521 -1.0381
 8325SOL     OW30810   9.927   7.862   7.217  0.0185  0.7241 -0.2796
 8325SOL    HW130811  10.004   7.809   7.198 -0.9993 -0.3834 -1.5430
 8325SOL    HW230812   9.865   7.801   7.257 -1.1247  0.9334 -1.6232
 8326SOL     OW30813   6.547   5.651   9.058  0.2659 -0.0531  0.0267
 8326SOL    HW130814   6.542   5.742   9.029 -1.8759 -0.2329 -0.3508
 8326SOL    HW230815   6.585   5.604   8.984  0.8285  0.4416 -0.0026
 8327SOL     OW30816   3.087  10.750   2.382 -0.1918  0.3131 -0.1282
 8327SOL    HW130817   3.127  10.837   2.387  0.1388  0.1046  0.9331
 8327SOL    HW230818   3.086  10.718   2.472 -1.1800 -0.4004 -0.3759
 8328SOL     OW30819   8.264   1.115   7.824 -0.5651 -0.6360  0.2715
 8328SOL    HW130820   8.315   1.147   7.749  0.3304 -1.6496  0.4294
 8328SOL    HW230821   8.185   1.170   7.824 -0.0590  0.1296 -0.7302
 8329SOL     OW30822   9.862   1.157   1.362  0.3815 -0.3571 -0.3799
 8329SOL    HW130823   9.873   1.069   1.397 -0.3970  0.5614  2.3710
 8329SOL    HW230824   9.931   1.164   1.295  0.2380 -3.1242 -0.9642
 8330SOL     OW30825   9.541  10.791   7.315  0.0876 -0.1968  0.1863
 8330SOL    HW130826   9.535  10.855   7.386  2.0112  0.7469 -0.4450
 8330SOL    HW230827   9.557  10.708   7.360  1.6852  0.4476  0.8832
 8331SOL     OW30828  10.740   1.120   3.996 -0.3472  0.5444 -0.0068
 8331SOL    HW130829  10.673   1.188   4.007 -1.6241 -1.0079  2.8160
 8331SOL    HW230830  10.692   1.042   3.971  0.4516 -0.4604  1.4745
 8332SOL     OW30831   3.057   0.972   9.943  0.1903  0.0068 -0.0427
 8332SOL    HW130832   3.039   0.928  10.027 -0.1729  1.6455  0.7698
 8332SOL    HW230833   2.974   0.968   9.896  0.0630  0.1208  0.1704
 8333SOL     OW30834   8.014   0.705   3.815 -0.0696 -0.6637  0.3733
 8333SOL    HW130835   7.951   0.741   3.752 -0.9180 -0.3732  1.3638
 8333SOL    HW230836   8.023   0.613   3.789  0.5052 -0.2777 -0.8786
 8334SOL     OW30837   6.598   6.972  10.670  0.0763 -0.1460  0.0622
 8334SOL    HW130838   6.638   6.951  10.586 -0.4890 -1.6660  0.1570
 8334SOL    HW230839   6.651   7.045  10.704  0.8448 -0.0953 -1.1993
 8335SOL     OW30840   2.216   0.596   6.791  0.3544 -0.1078  0.3933
 8335SOL    HW130841   2.187   0.669   6.737  0.8513 -0.2388 -0.0614
 8335SOL    HW230842   2.180   0.518   6.748  1.0382 -0.2396  0.0514
 8336SOL     OW30843  10.852   1.325   3.150  0.4979 -0.1028  0.3587
 8336SOL    HW130844  10.931   1.368   3.117  2.0423 -1.7118  1.7697
 8336SOL    HW230845  10.814   1.387   3.213 -0.0148  1.1161 -1.0821
 8337SOL     OW30846   4.990   0.390   9.019 -0.5267  0.0165  0.3369
 8337SOL    HW130847   5.044   0.361   8.945 -0.7159 -1.1515  0.6384
 8337SOL    HW230848   4.902   0.360   8.998 -0.9248  1.1977  0.2389
 8338SOL     OW30849  10.534   7.810   1.443 -0.0571 -0.0534  0.1812
 8338SOL    HW130850  10.587   7.731   1.453 -0.0629 -0.1850 -0.7566
 8338SOL    HW230851  10.445   7.782   1.463  0.1058 -0.0037  1.0162
 8339SOL     OW30852   0.213  10.055   4.392  0.4743 -0.1096  0.4676
 8339SOL    HW130853   0.216  10.100   4.476 -0.3348 -0.6280  0.7827
 8339SOL    HW230854   0.173   9.970   4.411 -0.8036  0.2097 -0.6323
 8340SOL     OW30855   5.626   3.435   1.808  0.3667  0.6450 -0.2072
 8340SOL    HW130856   5.655   3.348   1.780 -0.6689  0.3264 -0.3555
 8340SOL    HW230857   5.656   3.442   1.898  0.0118 -0.1030 -0.0146
 8341SOL     OW30858   8.047   1.109   8.381  0.6474 -0.0276 -0.3987
 8341SOL    HW130859   8.086   1.121   8.468  1.7917 -2.0132 -0.5752
 8341SOL    HW230860   8.067   1.018   8.358 -1.0389 -0.0310 -2.0727
 8342SOL     OW30861   9.587   8.069   9.717 -0.0365 -0.4505  0.1106
 8342SOL    HW130862   9.584   8.158   9.683  2.4687  0.0134  0.8914
 8342SOL    HW230863   9.596   8.014   9.639 -0.8217  0.0361 -0.3304
 8343SOL     OW30864   2.941  10.090  10.900  0.2284 -0.8367 -0.4455
 8343SOL    HW130865   3.012  10.085  10.835  1.0855 -0.9451  0.4691
 8343SOL    HW230866   2.977  10.046  10.977 -1.4164 -2.2601 -0.4439
 8344SOL     OW30867   6.319   3.330   9.535 -0.6534  0.3732 -0.3195
 8344SOL    HW130868   6.272   3.284   9.466 -0.6966  0.3324 -0.2622
 8344SOL    HW230869   6.263   3.405   9.557 -0.5454  0.4978 -0.4684
 8345SOL     OW30870   0.247   5.671   2.247 -0.3012  0.0597  0.4289
 8345SOL    HW130871   0.319   5.609   2.238 -0.1597  0.3682 -0.6743
 8345SOL    HW230872   0.282   5.754   2.213 -0.1687  1.0207  2.7394
 8346SOL     OW30873   4.573   9.068   3.861  0.1323  0.3594  0.4783
 8346SOL    HW130874   4.606   8.979   3.849  0.0527  0.6271 -2.7422
 8346SOL    HW230875   4.651   9.121   3.876  0.3726 -0.0031  0.5126
 8347SOL     OW30876   1.841   8.843   2.267 -0.0001 -0.1344  0.3872
 8347SOL    HW130877   1.901   8.880   2.331 -2.3888  5.6523 -0.1043
 8347SOL    HW230878   1.880   8.863   2.182 -0.1520 -1.3501  0.0027
 8348SOL     OW30879   7.067   7.356   2.501  0.3236  0.1132  0.0177
 8348SOL    HW130880   7.004   7.287   2.482 -0.7386  0.1957  2.7954
 8348SOL    HW230881   7.133   7.314   2.555 -0.0857  1.1020  1.3451
 8349SOL     OW30882   1.019   1.228   3.603 -0.0718  0.0785  0.1151
 8349SOL    HW130883   1.025   1.234   3.507 -0.2795  1.4708  0.1731
 8349SOL    HW230884   1.076   1.298   3.635  0.8629 -1.0601  1.0550
 8350SOL     OW30885   1.197   4.256   6.738 -0.0630 -0.5031 -0.0225
 8350SOL    HW130886   1.133   4.193   6.773 -1.6405  0.8426 -0.3919
 8350SOL    HW230887   1.170   4.340   6.774  2.6719 -0.1151  1.3613
 8351SOL     OW30888   6.464   5.124   3.349 -0.4076  0.2289 -0.5122
 8351SOL    HW130889   6.371   5.125   3.327 -0.5655  0.6932  0.1419
 8351SOL    HW230890   6.503   5.194   3.296 -0.1994 -0.7307 -1.6805
 8352SOL     OW30891  10.138   5.009  10.400 -0.1528  0.2558  0.2279
 8352SOL    HW130892  10.226   4.974  10.383 -0.1499  0.2335  0.2879
 8352SOL    HW230893  10.103   5.030  10.314 -0.4164 -0.5270  0.1370
 8353SOL     OW30894   8.006   6.395   3.867 -0.6194  0.1350  0.4793
 8353SOL    HW130895   8.052   6.357   3.942  2.5482 -0.8715 -1.7646
 8353SOL    HW230896   7.996   6.323   3.805  2.6264  2.0168 -2.5785
 8354SOL     OW30897  10.907   4.580  10.510 -0.4828  0.2670  0.5128
 8354SOL    HW130898  10.867   4.618  10.432  0.3934 -1.2154 -0.6985
 8354SOL    HW230899  10.835   4.533  10.552 -0.6262 -0.1814 -0.2179
 8355SOL     OW30900   1.516   7.382   1.189 -0.4057  0.8407 -0.4836
 8355SOL    HW130901   1.502   7.293   1.220 -1.0319  0.2694 -2.2584
 8355SOL    HW230902   1.529   7.434   1.268  0.7957 -0.9476  0.5585
 8356SOL     OW30903   1.467   1.986   7.350 -0.7176  0.1650  0.0738
 8356SOL    HW130904   1.397   2.021   7.295 -1.3012 -1.2740 -0.1524
 8356SOL    HW230905   1.425   1.967   7.434 -0.9667 -1.8407 -0.4348
 8357SOL     OW30906   8.201   6.269   4.028  0.2880  0.5671 -0.3602
 8357SOL    HW130907   8.196   6.174   4.035  3.7544  0.0479 -2.3733
 8357SOL    HW230908   8.278   6.293   4.080  2.9055  1.3725 -4.1935
 8358SOL     OW30909   4.750   4.278   9.195 -0.4768 -0.0591  0.2008
 8358SOL    HW130910   4.704   4.221   9.256 -1.4713  0.1903 -0.2911
 8358SOL    HW230911   4.700   4.360   9.197  0.9020  0.7981  0.8740
 8359SOL     OW30912   8.234   3.357   4.430 -0.1749  0.3611  0.3969
 8359SOL    HW130913   8.230   3.262   4.419 -0.2654  0.1835  1.7424
 8359SOL    HW230914   8.315   3.383   4.386 -0.3154 -0.2911 -0.2648
 8360SOL     OW30915   0.442   9.565   2.681 -0.3152  0.2739  0.4182
 8360SOL    HW130916   0.384   9.586   2.608  0.4160  0.8666 -0.0069
 8360SOL    HW230917   0.454   9.648   2.728  0.4534  0.2363  0.2997
 8361SOL     OW30918   6.031   1.783   6.167 -0.4772  0.1492 -0.6249
 8361SOL    HW130919   5.955   1.835   6.192 -0.6537 -0.4088  0.0417
 8361SOL    HW230920   6.106   1.838   6.188 -0.6509  0.0143  0.4185
 8362SOL     OW30921   3.751   0.069   7.984  0.8652 -0.7166  0.1622
 8362SOL    HW130922   3.736  -0.025   7.983 -0.2726 -0.5636  1.1090
 8362SOL    HW230923   3.829   0.080   8.038  3.1192 -1.3221 -2.7108
 8363SOL     OW30924   9.916   7.179   5.385 -0.7244 -0.2812  0.2377
 8363SOL    HW130925   9.850   7.242   5.355 -1.5458 -1.2282 -0.0136
 8363SOL    HW230926   9.997   7.230   5.390 -1.8991  1.5295  2.9183
 8364SOL     OW30927   2.644   4.267  10.636  0.8720 -1.0067 -0.5007
 8364SOL    HW130928   2.685   4.304  10.715  1.1993 -0.9371 -0.7011
 8364SOL    HW230929   2.562   4.230  10.667  0.3211  0.2790 -0.3609
 8365SOL     OW30930   9.957   1.470  10.199 -0.2865 -0.0094  0.2520
 8365SOL    HW130931   9.940   1.472  10.294  2.3318 -0.4765  0.8024
 8365SOL    HW230932   9.999   1.554  10.180 -2.7413  1.0293 -0.9998
 8366SOL     OW30933   2.264   5.913   5.637  0.1775  0.3661 -0.3944
 8366SOL    HW130934   2.334   5.916   5.702  1.1923  0.0874 -1.4475
 8366SOL    HW230935   2.276   5.829   5.593 -1.3987 -0.1023  0.0285
 8367SOL     OW30936   4.841   4.246   8.549 -0.5054  0.3609  0.2603
 8367SOL    HW130937   4.907   4.269   8.614  0.0700 -1.4724  0.3705
 8367SOL    HW230938   4.758   4.259   8.594 -0.1343 -0.3233  1.1655
 8368SOL     OW30939   3.130   1.908   0.687 -0.9351  0.3983  0.0521
 8368SOL    HW130940   3.130   1.869   0.774  1.7654  0.7656  0.3176
 8368SOL    HW230941   3.108   2.000   0.702  1.1407  0.8536  0.6558
 8369SOL     OW30942   3.130   4.529   9.714  0.6487 -0.2786  1.2673
 8369SOL    HW130943   3.066   4.511   9.645  0.9772  0.5573  0.7200
 8369SOL    HW230944   3.122   4.623   9.730  0.3295 -0.5220  2.6333
 8370SOL     OW30945  10.483   3.446   8.410  0.0403 -0.2012  0.1733
 8370SOL    HW130946  10.483   3.525   8.357  2.1723  0.8980  1.6514
 8370SOL    HW230947  10.463   3.476   8.499  0.8656 -1.2852  0.7639
 8371SOL     OW30948   5.105   4.220   3.932  0.0872 -0.1647  0.2772
 8371SOL    HW130949   5.139   4.293   3.881  0.6840 -1.3041 -0.9944
 8371SOL    HW230950   5.016   4.247   3.956 -0.1397  0.4754 -1.2120
 8372SOL     OW30951   1.183   8.820   6.173  0.2699  0.2341  0.1223
 8372SOL    HW130952   1.253   8.874   6.211 -0.2984  0.9596  0.1370
 8372SOL    HW230953   1.158   8.865   6.093 -0.7075  0.3893  0.5037
 8373SOL     OW30954   1.683   6.578   2.961 -0.4965  0.0994  0.3074
 8373SOL    HW130955   1.643   6.604   3.044 -1.4169  1.1771 -0.4456
 8373SOL    HW230956   1.719   6.659   2.926 -0.5947 -0.2467 -0.6067
 8374SOL     OW30957   2.007   6.167   6.347  0.0412  0.0876  0.3878
 8374SOL    HW130958   1.988   6.173   6.253  1.9091  0.1887 -0.0184
 8374SOL    HW230959   1.980   6.078   6.371  0.1729 -0.1777 -0.4116
 8375SOL     OW30960   1.890   0.946   4.023 -0.1947  0.0469 -0.1175
 8375SOL    HW130961   1.928   0.871   3.978 -2.7240 -0.5043 -1.5470
 8375SOL    HW230962   1.829   0.984   3.959 -0.1547  2.3845  1.1103
 8376SOL     OW30963   0.875   3.431   7.092  0.5240 -0.5920 -0.7243
 8376SOL    HW130964   0.893   3.349   7.139 -1.3380 -0.4849  0.2402
 8376SOL    HW230965   0.837   3.402   7.009  3.1279 -0.7570 -1.9455
 8377SOL     OW30966   4.223   1.970   1.858  0.0629  0.0128  0.2217
 8377SOL    HW130967   4.300   2.020   1.829  1.1058 -1.7991 -0.2559
 8377SOL    HW230968   4.174   2.032   1.913  1.4123  1.4767 -0.1410
 8378SOL     OW30969   6.329   6.188   1.831  0.0902 -0.3784  0.0233
 8378SOL    HW130970   6.400   6.152   1.777  0.4646 -1.5299  1.2417
 8378SOL    HW230971   6.364   6.272   1.863 -0.1798  0.3778 -1.5674
 8379SOL     OW30972   4.790   7.652   5.905 -0.3345  0.6007 -0.2755
 8379SOL    HW130973   4.705   7.650   5.950 -1.0946  0.3606 -1.6666
 8379SOL    HW230974   4.854   7.635   5.974 -1.5164 -0.6201  0.5801
 8380SOL     OW30975   0.261   0.265   6.466 -0.2077  0.8414  0.3965
 8380SOL    HW130976   0.347   0.247   6.428 -0.2758 -2.7346  1.5948
 8380SOL    HW230977   0.199   0.243   6.396 -0.2758  3.4150 -0.4655
 8381SOL     OW30978   2.293   2.880   2.187 -0.1846  0.0195 -0.2625
 8381SOL    HW130979   2.350   2.952   2.213  0.9224 -0.1102 -2.1583
 8381SOL    HW230980   2.214   2.891   2.240  1.5832  0.1564  2.5293
 8382SOL     OW30981   9.782   2.459   1.483 -1.0183  0.0907  0.2369
 8382SOL    HW130982   9.850   2.471   1.549 -3.6697  1.7247  2.9116
 8382SOL    HW230983   9.732   2.383   1.513 -2.2580  0.8473  0.1731
 8383SOL     OW30984   1.345   5.588   4.156 -0.2170 -0.3026 -0.2271
 8383SOL    HW130985   1.355   5.639   4.237 -0.3787  1.5498 -1.3237
 8383SOL    HW230986   1.271   5.530   4.174 -0.2477  0.0686  0.9611
 8384SOL     OW30987   4.963   1.713   3.098  0.5157  0.6643  0.5073
 8384SOL    HW130988   5.002   1.650   3.038  0.6551  0.5103  0.7556
 8384SOL    HW230989   4.954   1.664   3.181 -3.1082 -0.3728 -0.3141
 8385SOL     OW30990   7.393   7.009   8.175 -0.4226  0.1793  0.2772
 8385SOL    HW130991   7.304   7.012   8.210 -0.7355 -1.1234 -0.3584
 8385SOL    HW230992   7.430   6.930   8.213  0.3653  0.5313  0.2599
 8386SOL     OW30993   5.853  10.518   6.600 -0.3076 -0.2894 -0.8840
 8386SOL    HW130994   5.930  10.575   6.598 -1.3489  1.3538  1.3071
 8386SOL    HW230995   5.813  10.528   6.514 -0.2239  2.0584 -0.7223
 8387SOL     OW30996   5.645  10.238   3.256  0.7432  0.4385  0.1561
 8387SOL    HW130997   5.607  10.326   3.263  1.7835  0.7926  2.1507
 8387SOL    HW230998   5.652  10.222   3.162 -0.0806  2.2085 -0.2512
 8388SOL     OW30999   3.526   0.159   7.818 -0.0516 -0.1370 -0.5912
 8388SOL    HW131000   3.471   0.088   7.852 -0.7841  1.0845  0.9252
 8388SOL    HW231001   3.613   0.142   7.856  0.0977 -0.8657 -1.2270
 8389SOL     OW31002   9.845   0.924   0.409  0.0227 -0.0023 -0.8152
 8389SOL    HW131003   9.926   0.945   0.455 -0.2224  0.3127 -0.5240
 8389SOL    HW231004   9.865   0.844   0.360 -0.0276 -0.9631  0.6764
 8390SOL     OW31005   1.671   1.064   9.737 -0.1547  0.4945  0.1475
 8390SOL    HW131006   1.699   1.103   9.654 -1.5356  0.0458 -0.5507
 8390SOL    HW231007   1.577   1.078   9.739 -0.2534 -0.2506  1.2569
 8391SOL     OW31008   3.888   5.785   0.896  0.1224 -0.3240  0.2078
 8391SOL    HW131009   3.849   5.826   0.819 -0.3098  1.4541  1.2967
 8391SOL    HW231010   3.827   5.715   0.919  0.5659 -1.2804 -1.3645
 8392SOL     OW31011  10.393   3.452   3.540 -0.9283  0.8564  0.3457
 8392SOL    HW131012  10.429   3.529   3.497 -2.1133  0.5543 -1.2599
 8392SOL    HW231013  10.299   3.466   3.541 -1.0999 -0.2091  0.7636
 8393SOL     OW31014   9.258   3.219   1.906  0.2302  0.0126 -0.0214
 8393SOL    HW131015   9.266   3.255   1.994  0.2169 -0.6662  0.2604
 8393SOL    HW231016   9.307   3.280   1.851  0.3809  0.3487  0.4786
 8394SOL     OW31017   3.716   2.993   9.909 -0.1707  0.6256 -0.3644
 8394SOL    HW131018   3.654   2.994   9.837 -1.4601  0.9868  0.7169
 8394SOL    HW231019   3.760   2.908   9.903 -0.3712  0.5924 -1.4565
 8395SOL     OW31020   4.399   8.180   9.615 -0.3734  0.3280  0.0984
 8395SOL    HW131021   4.421   8.213   9.702  0.3361 -0.3624  0.1889
 8395SOL    HW231022   4.480   8.191   9.565 -0.9752  1.3709 -0.6889
 8396SOL     OW31023   2.624   1.604   9.158  0.1767 -1.0602 -0.3517
 8396SOL    HW131024   2.692   1.650   9.207  0.2724  0.9824 -2.2882
 8396SOL    HW231025   2.543   1.627   9.202  0.3937 -0.4589 -0.2602
 8397SOL     OW31026  10.846   8.838   6.503 -0.4835 -0.5730  0.6724
 8397SOL    HW131027  10.888   8.851   6.588 -1.6965  0.0570  1.2060
 8397SOL    HW231028  10.794   8.918   6.490  1.3690  0.3773 -1.7007
 8398SOL     OW31029   5.880   4.480   9.858  0.2408  0.7212 -0.6439
 8398SOL    HW131030   5.925   4.524   9.931 -0.5791  0.2974  0.1348
 8398SOL    HW231031   5.873   4.389   9.886 -0.7647  0.7050 -0.8981
 8399SOL     OW31032  10.201   7.266   3.240 -0.1755  0.0014 -0.3527
 8399SOL    HW131033  10.120   7.308   3.271  0.4062 -0.1808  1.5280
 8399SOL    HW231034  10.268   7.333   3.250 -0.2621  0.6492 -3.2774
 8400SOL     OW31035   8.934   1.219   5.968 -0.3985 -0.2170 -0.5701
 8400SOL    HW131036   8.886   1.301   5.957  0.2905  0.2823  0.0271
 8400SOL    HW231037   8.887   1.156   5.914 -2.3439 -0.0034  0.7736
 8401SOL     OW31038   0.263  10.233   7.683 -0.0148  0.2508  0.3593
 8401SOL    HW131039   0.311  10.225   7.600 -0.2638 -0.6120  0.2877
 8401SOL    HW231040   0.171  10.234   7.656 -0.0779  0.5573  0.5870
 8402SOL     OW31041   5.917   0.430   5.628 -0.1495 -0.7870 -0.5330
 8402SOL    HW131042   5.982   0.430   5.558 -1.0229  1.2520 -1.4275
 8402SOL    HW231043   5.847   0.372   5.596 -1.4561  1.6236 -2.3672
 8403SOL     OW31044   0.922   6.545   4.400  0.0909 -0.4033 -0.2914
 8403SOL    HW131045   0.831   6.513   4.405  0.1062 -0.3544  0.2985
 8403SOL    HW231046   0.920   6.612   4.332 -0.2137 -0.7510 -0.6299
 8404SOL     OW31047   7.656   6.045   5.153  0.1126 -0.0327 -0.2130
 8404SOL    HW131048   7.597   6.076   5.221  0.0259 -1.9981  0.6718
 8404SOL    HW231049   7.744   6.062   5.188  0.1049  1.2940 -0.7715
 8405SOL     OW31050   6.658   9.584   5.475  0.6835  0.0789 -0.4964
 8405SOL    HW131051   6.752   9.597   5.466  0.4124  1.4157 -1.6956
 8405SOL    HW231052   6.622   9.671   5.492 -0.5553  0.0279 -2.4737
 8406SOL     OW31053   5.495   8.569   0.157 -0.0347 -0.1287 -0.4258
 8406SOL    HW131054   5.551   8.510   0.108  0.9105 -0.1521  0.6288
 8406SOL    HW231055   5.552   8.606   0.225 -1.3278 -0.2684  0.7975
 8407SOL     OW31056  10.092   1.191   4.656  0.0663  0.1116  0.2380
 8407SOL    HW131057  10.117   1.185   4.564  0.6371  2.1848  0.1945
 8407SOL    HW231058  10.041   1.112   4.673  1.2522 -1.0647 -1.4256
 8408SOL     OW31059   9.373  10.227   0.440  0.2842  0.0772  0.1988
 8408SOL    HW131060   9.292  10.214   0.490  0.4785  2.4761  1.2794
 8408SOL    HW231061   9.355  10.189   0.354 -2.6683  2.0395 -0.1755
 8409SOL     OW31062   3.131   1.694   0.514 -0.5419 -0.2690  0.1255
 8409SOL    HW131063   3.125   1.767   0.577 -1.6669  1.2856 -1.6772
 8409SOL    HW231064   3.225   1.676   0.509 -0.2669  0.7803  0.9359
 8410SOL     OW31065   1.297   3.076   0.843 -0.8671  0.1002  0.6585
 8410SOL    HW131066   1.324   3.081   0.751  1.1616 -0.8217  1.1572
 8410SOL    HW231067   1.278   3.167   0.867  1.3876  0.7819  0.0918
 8411SOL     OW31068   5.878   5.984   1.415  0.3336 -0.1019  0.0640
 8411SOL    HW131069   5.812   5.969   1.483  1.1632  0.9385  1.1488
 8411SOL    HW231070   5.830   5.975   1.333 -0.7671 -1.1111  0.7787
 8412SOL     OW31071   5.070   8.394   1.860  0.1510 -0.3583 -0.3382
 8412SOL    HW131072   5.076   8.487   1.840 -0.0598 -0.3919 -0.5594
 8412SOL    HW231073   4.993   8.364   1.812  1.0753 -0.9630 -1.5073
 8413SOL     OW31074   0.802  10.547   5.788  0.0036 -0.1547  0.3017
 8413SOL    HW131075   0.802  10.518   5.697 -2.3514 -0.3962  0.3082
 8413SOL    HW231076   0.779  10.469   5.838  0.9234  0.0606  1.0969
 8414SOL     OW31077   8.100   7.694   3.812  0.4549 -0.1255  0.2638
 8414SOL    HW131078   8.072   7.758   3.747  1.5593  0.8303  0.6918
 8414SOL    HW231079   8.185   7.664   3.782  0.5256 -0.4257  0.7429
 8415SOL     OW31080   6.304   9.696   8.735  0.1523  0.3903 -0.4700
 8415SOL    HW131081   6.357   9.776   8.736 -0.0563  0.6147  2.8820
 8415SOL    HW231082   6.355   9.633   8.787 -1.0391 -0.7092 -0.5920
 8416SOL     OW31083   3.642   9.508   9.954  0.4588 -1.0532 -0.3042
 8416SOL    HW131084   3.735   9.514   9.976  0.4322 -0.9668 -0.2129
 8416SOL    HW231085   3.621   9.594   9.918 -0.1086 -0.2917  1.6982
 8417SOL     OW31086   4.030   5.694   1.152 -0.1857 -0.4001 -0.3083
 8417SOL    HW131087   3.963   5.626   1.161 -1.1522  0.5643  0.1655
 8417SOL    HW231088   4.109   5.655   1.189 -0.4743 -1.5807 -0.9006
 8418SOL     OW31089   4.733   7.297   3.488  0.5349  0.1380  0.2745
 8418SOL    HW131090   4.756   7.372   3.542 -2.9890  1.0398  0.7277
 8418SOL    HW231091   4.743   7.222   3.546  1.7131  0.4887  0.5588
 8419SOL     OW31092   1.920   2.327   2.253 -0.1155 -0.4164  0.1440
 8419SOL    HW131093   1.953   2.414   2.273 -1.6240  0.0187  0.8788
 8419SOL    HW231094   1.978   2.294   2.184 -0.9380  2.1435 -1.9429
 8420SOL     OW31095   0.052  10.897   6.534 -0.0976  0.0312  0.1940
 8420SOL    HW131096   0.073  10.874   6.624 -0.2026 -1.0091 -0.0254
 8420SOL    HW231097   0.135  10.891   6.487  0.0129  0.8741  0.2751
 8421SOL     OW31098   5.435   9.516   0.472 -0.2066 -0.0800  0.1736
 8421SOL    HW131099   5.530   9.513   0.461 -0.2683  1.7615 -1.3222
 8421SOL    HW231100   5.400   9.532   0.385 -1.8848 -0.3801  0.7406
 8422SOL     OW31101   3.043   5.612  10.284  0.2895 -0.1375 -0.2376
 8422SOL    HW131102   2.977   5.601  10.353 -1.8785  1.9312 -1.8192
 8422SOL    HW231103   3.044   5.529  10.238 -1.3783 -0.1809 -0.2643
 8423SOL     OW31104   2.870   7.481   1.787 -0.4059 -0.3555  0.5517
 8423SOL    HW131105   2.906   7.397   1.756 -0.2690 -0.5154  1.1231
 8423SOL    HW231106   2.799   7.455   1.847 -1.9402 -0.0424 -1.0643
 8424SOL     OW31107   9.428   2.394  10.624  0.0878  0.4173 -0.3369
 8424SOL    HW131108   9.465   2.425  10.541  0.9929  0.7524  0.1840
 8424SOL    HW231109   9.473   2.444  10.691 -1.4241  0.9440  0.3279
 8425SOL     OW31110   6.236   2.591   9.352 -0.0024 -0.9299 -0.0390
 8425SOL    HW131111   6.178   2.652   9.307 -0.9463 -0.8896  1.1662
 8425SOL    HW231112   6.193   2.506   9.343  0.7799 -1.2521 -0.8309
 8426SOL     OW31113   8.896   2.517   9.664 -0.3760  0.1686  0.0779
 8426SOL    HW131114   8.985   2.511   9.631 -0.9862 -1.0687 -1.4361
 8426SOL    HW231115   8.874   2.429   9.693 -1.6837  0.0563 -1.1697
 8427SOL     OW31116   5.096   2.798   0.963  0.2969 -0.4401  0.2207
 8427SOL    HW131117   5.067   2.713   0.996  0.2888 -0.4432  0.2059
 8427SOL    HW231118   5.159   2.830   1.028  0.3271 -0.4736  0.2082
 8428SOL     OW31119   6.517   1.639   5.401 -0.5310  0.3989 -0.1565
 8428SOL    HW131120   6.596   1.595   5.431 -0.5163  0.5841  0.0761
 8428SOL    HW231121   6.506   1.609   5.310  0.5718  1.4204 -0.6571
 8429SOL     OW31122   0.752   2.649   9.027 -0.2723 -0.4013 -0.3675
 8429SOL    HW131123   0.762   2.744   9.033  0.3614 -0.5476  1.4834
 8429SOL    HW231124   0.842   2.615   9.028 -0.4544 -1.0076 -1.9569
 8430SOL     OW31125   4.300   6.916   8.845 -0.3497  0.5065 -0.4412
 8430SOL    HW131126   4.338   6.995   8.808 -0.1279  0.2384 -0.7913
 8430SOL    HW231127   4.332   6.914   8.935 -1.3350  1.4524 -0.0427
 8431SOL     OW31128   3.026   2.274   3.139 -0.1391  0.1875 -0.1589
 8431SOL    HW131129   2.937   2.293   3.169 -0.2619  1.8070 -1.3865
 8431SOL    HW231130   3.059   2.358   3.109  1.8558 -0.3767  0.3268
 8432SOL     OW31131  10.842   1.744   8.706 -0.1562  0.0679  0.0346
 8432SOL    HW131132  10.913   1.726   8.767 -2.1767  0.7234  2.7777
 8432SOL    HW231133  10.886   1.778   8.627  2.5385  0.4665  1.5775
 8433SOL     OW31134   0.432   7.078   8.142  0.7217 -0.1543  0.3501
 8433SOL    HW131135   0.338   7.092   8.129 -0.0790 -2.3845  2.7878
 8433SOL    HW231136   0.459   7.026   8.066  0.3491  1.5964 -1.0363
 8434SOL     OW31137   3.607   6.053   2.487 -0.5738 -1.0753 -0.1323
 8434SOL    HW131138   3.542   6.062   2.556 -1.2539 -0.0405 -0.8844
 8434SOL    HW231139   3.641   5.964   2.498 -0.3051 -0.7667  1.8175
 8435SOL     OW31140   5.623   7.207   1.549 -0.0284 -1.1168  0.0032
 8435SOL    HW131141   5.542   7.179   1.507  0.0889 -0.9518 -0.3437
 8435SOL    HW231142   5.602   7.293   1.586 -0.1192 -1.2420  0.2396
 8436SOL     OW31143  10.894   3.225   0.076  0.2651 -0.3805  0.7587
 8436SOL    HW131144  10.839   3.158   0.116 -0.7354  0.3625  0.6709
 8436SOL    HW231145  10.856   3.308   0.106  1.3169  0.1558  0.6633
 8437SOL     OW31146   8.042  10.245   6.630  0.3706 -0.1169 -0.2733
 8437SOL    HW131147   8.029  10.227   6.723  1.0501  1.6004  0.1910
 8437SOL    HW231148   8.137  10.250   6.619  0.2699  1.7838 -0.5899
 8438SOL     OW31149   4.181   7.006   3.842 -0.3342 -0.6112 -0.4668
 8438SOL    HW131150   4.214   7.048   3.762  0.5254 -0.0171  0.1887
 8438SOL    HW231151   4.156   7.078   3.899 -0.4570 -1.0232  0.0059
 8439SOL     OW31152   7.060   1.725   5.946 -0.4833 -0.2149 -0.3343
 8439SOL    HW131153   6.986   1.786   5.946 -0.6849 -0.4265  0.7475
 8439SOL    HW231154   7.129   1.772   5.993 -0.8263 -0.9949  1.0202
 8440SOL     OW31155   8.525   7.186   2.157  0.0244  0.1945  0.0094
 8440SOL    HW131156   8.496   7.251   2.220 -0.7934 -0.0680 -0.0883
 8440SOL    HW231157   8.621   7.192   2.158 -0.0404  2.2156 -0.8577
 8441SOL     OW31158   6.629  10.235   6.947 -0.0269  0.0574  0.7388
 8441SOL    HW131159   6.697  10.223   6.882 -2.1566 -0.0440 -1.6325
 8441SOL    HW231160   6.656  10.181   7.021  1.8858 -0.8200 -0.5277
 8442SOL     OW31161   5.863   7.303   1.009 -0.6610  0.1047  0.0464
 8442SOL    HW131162   5.898   7.238   1.071  2.2577  0.2390 -1.2751
 8442SOL    HW231163   5.811   7.251   0.948  2.7043 -1.4821 -1.7997
 8443SOL     OW31164   4.954   1.648   4.922 -0.3262  0.0955  0.0368
 8443SOL    HW131165   5.002   1.729   4.903 -2.1597  1.2326  0.0672
 8443SOL    HW231166   4.939   1.609   4.836 -2.4769  1.6357 -0.3693
 8444SOL     OW31167   6.721   7.215   5.958 -0.6237  0.1825 -0.2863
 8444SOL    HW131168   6.707   7.121   5.968 -0.2592  0.1623  0.0705
 8444SOL    HW231169   6.634   7.251   5.937 -0.6458 -0.3140 -1.0863
 8445SOL     OW31170   1.291   3.532   3.720 -0.6604 -0.2453  0.2627
 8445SOL    HW131171   1.220   3.571   3.772 -0.7385  0.9001 -0.6870
 8445SOL    HW231172   1.245   3.483   3.651 -0.5682 -2.1095  1.4268
 8446SOL     OW31173   2.359   4.364   4.917 -0.4628  0.3480 -0.4310
 8446SOL    HW131174   2.388   4.423   4.987  0.6314 -0.8707  0.1783
 8446SOL    HW231175   2.264   4.378   4.912 -0.2062  2.3423 -0.4951
 8447SOL     OW31176   3.222   7.333   1.692  0.2274  0.2559 -0.0851
 8447SOL    HW131177   3.235   7.317   1.598 -0.0137 -1.4175  0.1308
 8447SOL    HW231178   3.136   7.296   1.710  1.5130 -2.3154  1.3557
 8448SOL     OW31179   9.215   6.520   5.992 -0.1818  0.1372 -0.1318
 8448SOL    HW131180   9.311   6.523   5.997 -0.1682  1.9268 -0.6750
 8448SOL    HW231181   9.186   6.509   6.082  0.5369 -1.5452 -0.0769
 8449SOL     OW31182   3.685   0.061   7.468 -0.1668  0.2049  0.2788
 8449SOL    HW131183   3.649   0.090   7.552 -0.7917  1.0008 -0.2513
 8449SOL    HW231184   3.744   0.131   7.441  0.0079 -0.0307  0.0396
 8450SOL     OW31185   9.692   0.475   0.284 -0.5082 -0.2227  0.3800
 8450SOL    HW131186   9.644   0.501   0.205  0.7309 -0.8476 -0.6226
 8450SOL    HW231187   9.634   0.415   0.330 -1.2926  0.2397  0.0015
 8451SOL     OW31188   6.356   9.765   4.806  0.3196 -0.2601 -0.6400
 8451SOL    HW131189   6.334   9.693   4.865  2.3072 -0.6492 -0.3205
 8451SOL    HW231190   6.445   9.747   4.778  0.2644  1.2056 -1.8898
 8452SOL     OW31191   8.620   7.875   5.702  0.4592 -0.0093 -0.6643
 8452SOL    HW131192   8.542   7.919   5.736  0.3471 -0.2845 -0.5671
 8452SOL    HW231193   8.667   7.944   5.655  0.3236  0.2342 -0.4450
 8453SOL     OW31194   3.263   3.026   7.393 -0.1928 -0.1377 -0.6593
 8453SOL    HW131195   3.236   2.954   7.337 -0.7781 -0.4731  0.0323
 8453SOL    HW231196   3.180   3.062   7.426  0.1694 -0.5069  0.6797
 8454SOL     OW31197   4.220   3.975   8.843 -0.0627  0.2023 -0.8317
 8454SOL    HW131198   4.196   4.054   8.795  0.9112 -0.3677 -2.3160
 8454SOL    HW231199   4.307   3.952   8.811  0.5653 -0.3151  1.1030
 8455SOL     OW31200   4.237   0.845  10.330  0.4580  0.3469  0.4648
 8455SOL    HW131201   4.159   0.792  10.345 -0.4258  1.7919  1.2239
 8455SOL    HW231202   4.282   0.801  10.258 -0.3190 -1.2964  0.9304
 8456SOL     OW31203   4.100   4.715   8.573 -0.0275 -0.2345 -0.0117
 8456SOL    HW131204   4.173   4.771   8.544 -0.7652  0.1089 -1.3036
 8456SOL    HW231205   4.043   4.774   8.622  0.1680 -0.3164  0.3146
 8457SOL     OW31206   2.426   2.366   2.115 -0.2914  0.1139 -0.0385
 8457SOL    HW131207   2.431   2.459   2.093  2.7303  0.5876  2.0133
 8457SOL    HW231208   2.368   2.362   2.192  0.0987  0.4216  0.2751
 8458SOL     OW31209   0.977   7.607   8.574 -0.4230  0.0600  0.5367
 8458SOL    HW131210   0.995   7.689   8.620  0.5661  0.6868 -0.9187
 8458SOL    HW231211   1.056   7.554   8.588 -1.7296 -1.4543  2.9946
 8459SOL     OW31212   0.690   9.471   9.458  1.1800 -0.0864 -0.2964
 8459SOL    HW131213   0.783   9.485   9.473  1.9787 -3.7285 -1.0938
 8459SOL    HW231214   0.685   9.393   9.403 -2.3277  0.7930 -1.5120
 8460SOL     OW31215   8.532   4.127   4.006  0.0570 -0.0157  0.0346
 8460SOL    HW131216   8.537   4.174   3.923 -0.7748 -4.1188 -2.6773
 8460SOL    HW231217   8.602   4.062   4.001 -0.1696 -0.5724  2.5004
 8461SOL     OW31218   7.363   2.934   9.960  0.7555 -0.2718 -0.1009
 8461SOL    HW131219   7.275   2.971   9.951  0.8266 -0.2544 -0.8114
 8461SOL    HW231220   7.409   2.960   9.880  1.8642  0.9173  0.8841
 8462SOL     OW31221   8.789   3.644  10.052  0.2406  0.7196 -0.3258
 8462SOL    HW131222   8.791   3.584  10.127 -0.7598 -0.7320 -1.3864
 8462SOL    HW231223   8.763   3.728  10.089 -1.6516 -0.2798  0.8156
 8463SOL     OW31224   4.762   3.193   1.931 -0.3174 -0.6471  0.1727
 8463SOL    HW131225   4.771   3.106   1.970  0.7212 -1.4646 -1.7346
 8463SOL    HW231226   4.784   3.253   2.002 -1.4123 -1.8868  1.6504
 8464SOL     OW31227   9.117   2.046   1.845 -0.2108 -0.3766  0.1111
 8464SOL    HW131228   9.087   1.956   1.860 -0.5494 -0.2199  0.3760
 8464SOL    HW231229   9.094   2.093   1.925  1.0366 -0.3222  0.4598
 8465SOL     OW31230   3.926   0.939   1.864 -0.1721  0.4428  0.2876
 8465SOL    HW131231   3.988   0.881   1.908  0.3439  1.4994  0.9975
 8465SOL    HW231232   3.940   1.024   1.905  0.4875  1.5617 -2.0870
 8466SOL     OW31233   2.618   4.023   3.966  0.0276  0.3334  0.1338
 8466SOL    HW131234   2.618   3.932   3.995 -1.1354  0.2888  0.0579
 8466SOL    HW231235   2.654   4.020   3.878 -1.4406 -0.2990 -0.4815
 8467SOL     OW31236   8.780   3.617   6.256  0.4816  0.0308  0.4218
 8467SOL    HW131237   8.868   3.593   6.227  0.8469  0.5490  1.0672
 8467SOL    HW231238   8.747   3.675   6.188  0.1252 -1.1571 -0.4602
 8468SOL     OW31239   3.600   2.291   8.786  0.3559 -0.2478  0.5771
 8468SOL    HW131240   3.549   2.341   8.723  1.2430 -0.5083 -0.3779
 8468SOL    HW231241   3.549   2.296   8.868 -0.8392  0.0494 -0.1579
 8469SOL     OW31242   8.147   6.026   0.818  0.1898 -0.5963  0.5015
 8469SOL    HW131243   8.226   6.073   0.790  0.8778 -1.4475  0.9782
 8469SOL    HW231244   8.075   6.086   0.796  0.9755  0.2961  0.2752
 8470SOL     OW31245   6.224   1.136   7.953 -0.3078 -0.0843  0.2828
 8470SOL    HW131246   6.239   1.208   8.015 -1.2959  0.5363 -0.1807
 8470SOL    HW231247   6.130   1.139   7.934 -0.3086 -1.3067  0.0118
 8471SOL     OW31248   2.394   9.267   1.687 -0.2696 -0.0817 -0.0822
 8471SOL    HW131249   2.366   9.292   1.775  0.5663 -0.9029  0.4331
 8471SOL    HW231250   2.340   9.191   1.666  0.5301 -0.7733  0.3205
 8472SOL     OW31251   6.369   8.948   6.094  0.0891  0.4329  0.3306
 8472SOL    HW131252   6.293   8.890   6.098 -0.6312  1.4348  1.6806
 8472SOL    HW231253   6.421   8.913   6.022 -0.5294 -1.6282  0.8191
 8473SOL     OW31254   5.732   3.418   6.480 -0.1262  0.3755 -0.3500
 8473SOL    HW131255   5.781   3.373   6.412  0.3356 -1.4777  1.1198
 8473SOL    HW231256   5.662   3.357   6.503  0.8589  0.0611  2.1111
 8474SOL     OW31257   6.037   6.550   8.447 -0.0115  0.1854  0.3563
 8474SOL    HW131258   6.021   6.463   8.411 -1.5363  0.8783 -0.7493
 8474SOL    HW231259   5.970   6.561   8.515 -0.4990  0.8545 -0.2094
 8475SOL     OW31260   0.862   0.725   8.528 -0.1436  0.2739 -0.6978
 8475SOL    HW131261   0.852   0.681   8.443 -0.9328 -1.1525  0.0798
 8475SOL    HW231262   0.865   0.653   8.591  0.0047  1.3238  0.5260
 8476SOL     OW31263   8.131   7.174   5.670 -0.1437  1.0542 -0.0203
 8476SOL    HW131264   8.062   7.124   5.627  0.7347 -0.2309  0.0012
 8476SOL    HW231265   8.119   7.264   5.639  0.9192  0.0942 -3.5980
 8477SOL     OW31266   7.265   0.359   9.933  0.0065  0.1007  0.3165
 8477SOL    HW131267   7.316   0.347   9.853 -1.0869  0.1748 -0.4119
 8477SOL    HW231268   7.269   0.453   9.951  0.6419  0.0209  0.6277
 8478SOL     OW31269   9.814   5.368   8.280  0.5342  0.8487 -0.4114
 8478SOL    HW131270   9.904   5.345   8.305  0.0456 -1.1753 -0.2871
 8478SOL    HW231271   9.783   5.291   8.232 -1.9744  0.3207  1.8428
 8479SOL     OW31272   8.910   6.886   3.496 -0.0528 -0.4807 -0.1144
 8479SOL    HW131273   8.941   6.968   3.533  0.8504 -0.0778 -1.6716
 8479SOL    HW231274   8.821   6.876   3.530  0.4011  0.2751  1.4033
 8480SOL     OW31275   2.770   8.249   9.386 -0.2678  0.1476  0.1380
 8480SOL    HW131276   2.771   8.155   9.406  0.7788  0.2804  0.7900
 8480SOL    HW231277   2.862   8.275   9.391 -0.7327  1.6199  1.9723
 8481SOL     OW31278   1.566  10.374   1.658  0.3127 -0.3408  0.7026
 8481SOL    HW131279   1.563  10.465   1.688 -0.3023 -0.0828 -0.1082
 8481SOL    HW231280   1.606  10.326   1.731  1.1132  0.6585  0.9449
 8482SOL     OW31281   0.409   6.407   2.512  0.1017  0.2598 -0.3866
 8482SOL    HW131282   0.319   6.434   2.528  0.0438 -0.6981  1.1096
 8482SOL    HW231283   0.406   6.312   2.514  1.2397  0.2279  0.2295
 8483SOL     OW31284   9.879   2.475   6.132  0.5393 -1.2366 -0.2390
 8483SOL    HW131285   9.882   2.519   6.046  1.7518  0.5244  0.6296
 8483SOL    HW231286   9.971   2.462   6.154  0.2410 -1.6104  0.8209
 8484SOL     OW31287   9.871   1.910   7.577  0.1173 -0.0310 -0.2944
 8484SOL    HW131288   9.784   1.873   7.591 -0.3562  1.3858  0.6991
 8484SOL    HW231289   9.865   1.956   7.494  0.0024 -0.1297 -0.3417
 8485SOL     OW31290   0.974   8.288   6.445  0.2289 -0.7415  0.1306
 8485SOL    HW131291   0.956   8.375   6.409 -1.1412 -1.0432  0.0271
 8485SOL    HW231292   0.888   8.256   6.474  1.1129 -0.8588  2.8904
 8486SOL     OW31293   1.678   9.644   7.717  0.4363 -0.1349 -0.0646
 8486SOL    HW131294   1.745   9.683   7.661  0.1947 -0.3042 -0.4765
 8486SOL    HW231295   1.595   9.673   7.678  0.2628  0.4135  0.6782
 8487SOL     OW31296   6.392   1.325   4.142 -0.1989 -0.1232 -0.4101
 8487SOL    HW131297   6.328   1.361   4.203  2.4358  0.1530  2.4194
 8487SOL    HW231298   6.475   1.365   4.167  1.5412 -2.2299 -2.3043
 8488SOL     OW31299   7.302   2.200   9.501  0.2823 -0.2791 -0.1482
 8488SOL    HW131300   7.297   2.116   9.455 -1.2269 -1.7048  2.3872
 8488SOL    HW231301   7.213   2.236   9.496  0.3835  0.1045  0.6225
 8489SOL     OW31302   4.936   0.071   8.619 -0.0518 -0.7617  0.1708
 8489SOL    HW131303   4.945   0.131   8.694 -1.7742  1.4011 -1.2224
 8489SOL    HW231304   4.979   0.117   8.547  0.6528 -2.3371 -0.4550
 8490SOL     OW31305   1.497  10.225   1.054  0.0055  0.1090 -0.5963
 8490SOL    HW131306   1.570  10.249   0.997  0.5266  1.0565  0.4219
 8490SOL    HW231307   1.421  10.268   1.015  0.2287  0.1817 -0.9583
 8491SOL     OW31308   3.725   4.476   2.154 -0.6065  0.1394 -0.0872
 8491SOL    HW131309   3.792   4.474   2.221 -0.7204 -1.4867  0.0222
 8491SOL    HW231310   3.761   4.423   2.083 -2.0910 -1.5225  0.3330
 8492SOL     OW31311   0.047   4.097   0.117 -0.1099  0.6262 -0.0413
 8492SOL    HW131312   0.138   4.121   0.103 -0.3630  1.5422 -0.1743
 8492SOL    HW231313   0.031   4.113   0.210 -0.6796  2.4602 -0.4110
 8493SOL     OW31314   9.266   7.163   8.809  0.4758 -0.5608  0.1223
 8493SOL    HW131315   9.267   7.186   8.902  1.9360  0.7444 -0.1622
 8493SOL    HW231316   9.320   7.231   8.768 -2.8944  0.9977 -2.2120
 8494SOL     OW31317   0.966   3.964   9.273 -0.0232 -0.7263  0.7102
 8494SOL    HW131318   0.871   3.972   9.261  0.1022  0.4248  0.4443
 8494SOL    HW231319   0.975   3.912   9.353 -0.8747 -1.2407  0.4883
 8495SOL     OW31320   5.725   8.358   6.032 -0.2131  0.0059  0.0644
 8495SOL    HW131321   5.798   8.308   5.996 -0.7382  0.1382 -1.2093
 8495SOL    HW231322   5.759   8.447   6.041 -0.1872  0.0438 -0.4206
 8496SOL     OW31323   3.616   9.247   8.020 -0.5570 -0.5937  0.0109
 8496SOL    HW131324   3.580   9.321   7.972 -0.7534  1.7414  3.3804
 8496SOL    HW231325   3.547   9.181   8.020 -1.0320 -0.1386 -1.6277
 8497SOL     OW31326   2.595   4.741   8.021 -0.1310 -0.7801 -0.6565
 8497SOL    HW131327   2.518   4.752   7.965 -0.3857 -0.4641 -0.2534
 8497SOL    HW231328   2.612   4.829   8.055  0.3826 -0.8587 -0.7091
 8498SOL     OW31329   3.672   7.515   8.044 -0.4914  0.6101 -0.4549
 8498SOL    HW131330   3.733   7.466   8.099  0.0246  0.2445 -1.3338
 8498SOL    HW231331   3.589   7.467   8.051 -1.1770  1.9801  1.9911
 8499SOL     OW31332   9.885   8.919   9.387 -0.0133 -0.0240  0.5022
 8499SOL    HW131333   9.919   8.994   9.337 -1.4786 -0.6909 -1.6188
 8499SOL    HW231334   9.964   8.875   9.420  0.9602  1.1903 -0.0939
 8500SOL     OW31335   3.487   0.304  10.460 -0.3307  0.6591  0.6346
 8500SOL    HW131336   3.470   0.261  10.376  2.1912 -0.1711  0.4583
 8500SOL    HW231337   3.405   0.296  10.508 -1.8336  1.0923 -1.6902
 8501SOL     OW31338   8.450   3.173   3.164 -0.1287  0.3865  0.5861
 8501SOL    HW131339   8.482   3.145   3.078  0.3951  0.7520  0.6613
 8501SOL    HW231340   8.519   3.148   3.225 -0.6404 -0.1560  0.9466
 8502SOL     OW31341   9.237   4.463   5.271  0.1568 -0.4573  0.0302
 8502SOL    HW131342   9.218   4.419   5.188  1.3844 -0.7006 -0.1358
 8502SOL    HW231343   9.160   4.517   5.288  0.1669  0.1027 -1.6012
 8503SOL     OW31344   6.211   6.049   8.499 -0.3377 -0.9773 -0.1532
 8503SOL    HW131345   6.295   6.033   8.541  0.1202  1.1905 -0.1493
 8503SOL    HW231346   6.168   6.114   8.555 -0.6436  0.3479 -1.8495
 8504SOL     OW31347   3.668   0.890   9.055 -0.2230  0.2111  0.5892
 8504SOL    HW131348   3.756   0.869   9.087  0.1672  2.3062  1.0586
 8504SOL    HW231349   3.616   0.903   9.134 -1.2670 -1.9598  0.3268
 8505SOL     OW31350   8.942   9.567   9.245 -0.8745 -0.3073  0.1747
 8505SOL    HW131351   8.859   9.592   9.285 -2.5379 -0.5590 -2.8411
 8505SOL    HW231352   8.978   9.649   9.213 -1.6215 -0.5689 -1.3896
 8506SOL     OW31353  10.212   4.864   2.415  0.1415  0.2767 -0.0934
 8506SOL    HW131354  10.158   4.824   2.347  0.2925 -0.9460  0.4909
 8506SOL    HW231355  10.214   4.800   2.486  1.1168  0.9495  0.5124
 8507SOL     OW31356   0.190   2.291   5.505 -0.7048  0.2202  0.2424
 8507SOL    HW131357   0.262   2.344   5.541 -0.2282  0.0492 -0.4518
 8507SOL    HW231358   0.162   2.339   5.428 -0.3182 -0.4919 -0.3519
 8508SOL     OW31359   4.798   6.517   4.280  0.0496 -0.0023  0.0011
 8508SOL    HW131360   4.727   6.461   4.310  0.5740  0.0738  1.4712
 8508SOL    HW231361   4.769   6.549   4.195 -1.1349 -0.9118  0.0323
 8509SOL     OW31362   5.022   2.767  10.433 -0.0862  0.5076 -0.5956
 8509SOL    HW131363   5.078   2.842  10.452  0.4658 -0.5965  2.8867
 8509SOL    HW231364   4.951   2.803  10.381  1.5441  2.8514 -1.3809
 8510SOL     OW31365   0.961   2.007   3.215 -0.2169  0.0073  0.0871
 8510SOL    HW131366   1.036   2.000   3.274  0.6231  2.7984 -0.4903
 8510SOL    HW231367   0.892   2.045   3.268 -0.4427 -0.2628 -0.0085
 8511SOL     OW31368   9.811   5.762   8.664 -0.3101 -0.2099  0.4684
 8511SOL    HW131369   9.730   5.767   8.613 -0.2085  0.6920  0.3762
 8511SOL    HW231370   9.782   5.741   8.753 -0.4234 -2.7766 -0.1038
 8512SOL     OW31371   5.281   6.349   4.959  0.0374 -0.2285 -0.1601
 8512SOL    HW131372   5.362   6.341   4.909 -0.5737 -2.1385 -0.9207
 8512SOL    HW231373   5.233   6.419   4.915  0.1210 -0.9232 -1.4128
 8513SOL     OW31374   6.949   7.513   3.678 -0.1566 -0.5757 -0.1670
 8513SOL    HW131375   6.947   7.563   3.596 -0.9150  0.4643  0.4664
 8513SOL    HW231376   6.986   7.429   3.653 -2.3391 -1.0905 -2.0422
 8514SOL     OW31377   8.868   6.759   4.841  0.3155 -0.4003 -0.3473
 8514SOL    HW131378   8.940   6.818   4.815  0.9320 -1.3358 -0.8488
 8514SOL    HW231379   8.795   6.785   4.785  0.7556 -0.4770 -0.9748
 8515SOL     OW31380   0.642   1.187   6.708  0.1237  0.4108 -0.2955
 8515SOL    HW131381   0.589   1.262   6.734 -1.1856 -1.2009  2.0363
 8515SOL    HW231382   0.721   1.193   6.762  0.0597  0.1710 -0.1723
 8516SOL     OW31383   5.764   6.013   0.099 -0.2278 -0.7372  0.0571
 8516SOL    HW131384   5.681   6.021   0.053 -0.8704  0.7172  1.3946
 8516SOL    HW231385   5.756   6.071   0.174  1.0403 -2.4788  1.6501
 8517SOL     OW31386   1.187   9.945   0.228  0.7703  0.3048  0.0819
 8517SOL    HW131387   1.126   9.916   0.295  0.5872 -0.0689 -0.2441
 8517SOL    HW231388   1.228  10.023   0.265  2.4160 -1.2140  1.6474
 8518SOL     OW31389   4.533   8.934   5.624 -0.2275 -0.2257 -0.1676
 8518SOL    HW131390   4.541   9.019   5.580 -1.6582  0.2464  0.4227
 8518SOL    HW231391   4.580   8.873   5.567  1.4002  1.0486 -0.2750
 8519SOL     OW31392   9.696   9.981   1.252 -0.6733  0.0021 -0.0868
 8519SOL    HW131393   9.766  10.015   1.308 -1.2332  1.0814 -0.0271
 8519SOL    HW231394   9.652   9.915   1.306 -0.5464  0.2847  0.3685
 8520SOL     OW31395   0.801   6.126   0.691  0.1001 -0.2713  0.1289
 8520SOL    HW131396   0.798   6.056   0.625 -0.0747 -0.0796 -0.0728
 8520SOL    HW231397   0.845   6.088   0.766 -1.9679 -1.3408  0.8946
 8521SOL     OW31398   5.304   6.097   9.930  0.5741  0.0005 -0.2819
 8521SOL    HW131399   5.235   6.134   9.986  0.0404 -1.6808  0.2357
 8521SOL    HW231400   5.386   6.124   9.970  0.2285  1.5251 -0.5588
 8522SOL     OW31401   6.065   7.089   0.018  0.1750 -0.5614 -0.3567
 8522SOL    HW131402   6.122   7.014   0.033 -0.2031 -0.8686 -0.4351
 8522SOL    HW231403   6.003   7.088   0.091 -1.4024 -1.8121 -1.6223
 8523SOL     OW31404  10.548   0.634   8.742  0.3708  0.2273  0.3231
 8523SOL    HW131405  10.492   0.561   8.717  1.1965 -0.5179  0.5959
 8523SOL    HW231406  10.615   0.595   8.798  0.8652  1.1836  0.4262
 8524SOL     OW31407   1.383   9.541   7.576 -0.3001 -0.1759 -0.3013
 8524SOL    HW131408   1.445   9.468   7.584 -2.6223 -2.4985 -1.7880
 8524SOL    HW231409   1.413   9.591   7.501  0.9518  0.0376  0.3241
 8525SOL     OW31410   8.292   8.016   1.911 -0.2215 -0.1115 -0.2028
 8525SOL    HW131411   8.210   8.011   1.961 -0.5125  0.5332 -0.6073
 8525SOL    HW231412   8.332   8.098   1.940  0.6928 -0.8213  0.6068
 8526SOL     OW31413   2.007  10.704   3.510  0.2857 -0.1710 -0.0778
 8526SOL    HW131414   2.014  10.665   3.597  1.0950  1.9253  0.8696
 8526SOL    HW231415   1.923  10.749   3.510  0.8088  0.8397  0.0960
 8527SOL     OW31416   7.868   9.227   7.136 -0.0252 -0.0474 -0.2117
 8527SOL    HW131417   7.940   9.198   7.081 -1.2495 -3.0777 -0.4562
 8527SOL    HW231418   7.790   9.189   7.095 -1.4748  1.1086  1.3227
 8528SOL     OW31419   9.775   0.182   3.835 -0.0817  0.5365  0.3137
 8528SOL    HW131420   9.834   0.221   3.771  0.8784  1.1864  1.5542
 8528SOL    HW231421   9.788   0.087   3.826 -0.3544  0.5923 -0.7905
 8529SOL     OW31422   7.264   8.435   1.981  0.2181  0.3294  0.0865
 8529SOL    HW131423   7.239   8.527   1.970  0.9256  0.5722  0.4789
 8529SOL    HW231424   7.358   8.433   1.963  0.3645 -0.1720  0.8788
 8530SOL     OW31425   2.622   5.304   5.914  0.3689 -0.0813  0.3275
 8530SOL    HW131426   2.636   5.356   5.993  1.0281 -0.1039  0.2302
 8530SOL    HW231427   2.709   5.293   5.877  0.1537 -0.7081 -0.0047
 8531SOL     OW31428   4.813   2.780   2.796 -0.2611  0.0534  0.5156
 8531SOL    HW131429   4.879   2.788   2.728  1.0323 -0.3857  1.6570
 8531SOL    HW231430   4.756   2.710   2.766 -1.0136  1.3072 -1.0946
 8532SOL     OW31431   5.984   0.539   8.558  0.3484  0.0665 -0.6562
 8532SOL    HW131432   5.928   0.476   8.602  1.2192  0.0301  0.4274
 8532SOL    HW231433   6.053   0.559   8.621  0.0681  2.1632 -0.9143
 8533SOL     OW31434   9.894   0.906   2.240  0.9597 -0.5902  0.1962
 8533SOL    HW131435   9.878   0.827   2.290  1.6470 -1.3037 -0.6790
 8533SOL    HW231436   9.989   0.913   2.234  0.8969 -0.4742 -0.9124
 8534SOL     OW31437  10.037   6.793   2.917 -0.3205 -0.2719 -0.8302
 8534SOL    HW131438   9.961   6.849   2.932 -0.3662 -0.7472  0.9501
 8534SOL    HW231439  10.062   6.763   3.004  2.1889  0.2046 -1.3168
 8535SOL     OW31440   5.531   5.818   2.481 -0.2190 -0.2396  0.6210
 8535SOL    HW131441   5.549   5.754   2.412 -1.4650  0.6700 -0.6225
 8535SOL    HW231442   5.596   5.887   2.467 -1.3773  0.6599 -0.6731
 8536SOL     OW31443   0.990   6.512   7.131  0.7224  0.4856 -0.2904
 8536SOL    HW131444   1.080   6.482   7.125  1.0388  1.6715 -2.5234
 8536SOL    HW231445   0.943   6.462   7.064 -0.1231  0.4158  0.3357
 8537SOL     OW31446   9.024   3.770   9.132  0.1560 -0.7668  0.0702
 8537SOL    HW131447   9.119   3.777   9.136  0.1239 -0.8575  1.5938
 8537SOL    HW231448   8.995   3.776   9.224 -1.3756  0.2567 -0.4390
 8538SOL     OW31449   3.507   4.239   7.163 -0.4335  0.4282  1.1018
 8538SOL    HW131450   3.486   4.152   7.129 -1.0881  0.9524  0.1218
 8538SOL    HW231451   3.582   4.225   7.221 -0.7765 -0.8437  1.2684
 8539SOL     OW31452   1.947   2.832   4.544 -0.0360  0.5768  0.5299
 8539SOL    HW131453   1.936   2.764   4.477  0.0809  1.4509 -0.3937
 8539SOL    HW231454   1.888   2.805   4.614  0.2298 -0.6419  0.3185
 8540SOL     OW31455   7.326   4.466   2.780  0.4177  0.3304  0.0330
 8540SOL    HW131456   7.355   4.376   2.792  0.0546  0.0698 -0.9047
 8540SOL    HW231457   7.403   4.512   2.747  0.3561  0.1386 -0.3889
 8541SOL     OW31458   3.964   5.139   7.564  0.1794 -0.4358  0.2593
 8541SOL    HW131459   3.955   5.199   7.490 -0.9301  0.2531  0.9303
 8541SOL    HW231460   4.046   5.092   7.547  0.1054 -0.0718 -1.2371
 8542SOL     OW31461   9.389   2.715   5.996  0.3055  0.3498 -0.0843
 8542SOL    HW131462   9.400   2.628   6.035  1.3560  1.0508  1.2960
 8542SOL    HW231463   9.392   2.700   5.902 -0.4892 -1.2075  0.1069
 8543SOL     OW31464   3.994   7.910   8.513  0.2588 -0.6748  0.3452
 8543SOL    HW131465   4.036   7.829   8.484 -0.4598 -0.7207 -0.6377
 8543SOL    HW231466   3.902   7.887   8.524  0.4648 -0.6308  2.6703
 8544SOL     OW31467   2.861   2.012   6.675  0.1442 -0.4432  0.0696
 8544SOL    HW131468   2.952   2.038   6.690 -0.1034  0.1469  0.5980
 8544SOL    HW231469   2.867   1.924   6.637  0.9327 -0.4201  0.1247
 8545SOL     OW31470   4.400   9.773   0.453 -0.0973  0.4110  0.4483
 8545SOL    HW131471   4.363   9.694   0.414 -1.2849  1.0127  0.2850
 8545SOL    HW231472   4.396   9.758   0.547  1.2166 -0.3703  0.3999
 8546SOL     OW31473   9.252   3.706   0.013  0.2883 -0.3104  0.0084
 8546SOL    HW131474   9.340   3.672  -0.004  0.5424 -0.7449  1.9925
 8546SOL    HW231475   9.218   3.650   0.083 -2.2128 -1.1883 -1.7782
 8547SOL     OW31476   4.618   5.777   9.603  0.4596 -0.8292  0.5257
 8547SOL    HW131477   4.691   5.823   9.645  1.4985 -2.5508  0.7443
 8547SOL    HW231478   4.617   5.810   9.514  0.1090  0.7647  1.0960
 8548SOL     OW31479   6.495   8.766   8.341  0.8726 -0.6157 -0.0124
 8548SOL    HW131480   6.429   8.706   8.375 -1.2899  1.2179 -0.7006
 8548SOL    HW231481   6.525   8.815   8.418  0.7134 -0.8074  0.1712
 8549SOL     OW31482   5.845   9.371   6.597 -0.3851  0.0427  0.4197
 8549SOL    HW131483   5.775   9.436   6.592 -0.3231  0.1570  0.9768
 8549SOL    HW231484   5.922   9.417   6.563 -0.2281  0.4282  1.2743
 8550SOL     OW31485   6.455   9.197  10.850  0.2008 -0.2079 -0.6572
 8550SOL    HW131486   6.373   9.243  10.834 -1.1368 -1.8692  1.0089
 8550SOL    HW231487   6.483   9.166  10.764 -1.5081 -0.5488 -1.1101
 8551SOL     OW31488   4.611   5.394   4.485  0.5774  0.2999  0.3627
 8551SOL    HW131489   4.695   5.353   4.467 -0.4722 -1.4987 -0.7652
 8551SOL    HW231490   4.587   5.436   4.403  1.0959  2.2907  1.1692
 8552SOL     OW31491   7.427   6.062   2.919  0.1259  0.0342  0.4037
 8552SOL    HW131492   7.401   6.014   2.841  2.5383 -0.9228  0.1100
 8552SOL    HW231493   7.371   6.140   2.918  0.7672  0.6019 -2.8617
 8553SOL     OW31494   8.108   3.539   1.530  0.5785 -0.2351 -0.5231
 8553SOL    HW131495   8.033   3.522   1.472 -1.5312  0.6065  1.7501
 8553SOL    HW231496   8.145   3.453   1.547 -2.2318 -1.2362  1.1364
 8554SOL     OW31497  10.813   5.357   4.878  0.3742 -0.0045  0.1687
 8554SOL    HW131498  10.757   5.289   4.838  0.7239 -0.3652  0.2851
 8554SOL    HW231499  10.868   5.387   4.806  0.6087 -0.2474  0.2455
 8555SOL     OW31500   3.295   1.116   6.637 -0.2014 -0.3016  0.3510
 8555SOL    HW131501   3.313   1.118   6.731  2.3026  0.1047 -0.0490
 8555SOL    HW231502   3.332   1.198   6.604 -0.0336 -0.9256 -1.1231
 8556SOL     OW31503   1.836   2.481   1.554 -0.5272  0.2868 -0.3965
 8556SOL    HW131504   1.869   2.473   1.465  0.9650 -0.3831  0.1799
 8556SOL    HW231505   1.866   2.567   1.584 -0.3632  0.1946 -0.2919
 8557SOL     OW31506   8.527   9.373   6.494 -0.1236  0.6333  0.2262
 8557SOL    HW131507   8.480   9.319   6.431  1.1991  2.0692 -2.1422
 8557SOL    HW231508   8.468   9.447   6.510 -0.2864  0.4764  0.3623
 8558SOL     OW31509   1.226   5.902   2.654  0.6934  0.0871  0.3795
 8558SOL    HW131510   1.200   5.853   2.732  0.7352 -1.0124 -0.2706
 8558SOL    HW231511   1.297   5.959   2.684  0.1670  0.2773  1.3109
 8559SOL     OW31512   6.754   7.225   9.460  0.9113 -0.2406 -0.1969
 8559SOL    HW131513   6.801   7.240   9.542  1.6555  0.4180 -0.7340
 8559SOL    HW231514   6.791   7.144   9.426  0.3415 -0.7173  0.2817
 8560SOL     OW31515   9.908   2.887   6.542 -0.2465 -0.3491 -0.6470
 8560SOL    HW131516   9.957   2.960   6.506  1.0977 -1.5427 -1.3268
 8560SOL    HW231517   9.955   2.863   6.622 -2.0026  0.9341  0.8655
 8561SOL     OW31518   9.408   9.936   8.127  0.2253  0.3272  1.2350
 8561SOL    HW131519   9.346   9.998   8.165 -0.3080 -0.6491  1.9870
 8561SOL    HW231520   9.445   9.889   8.202  1.7898  0.7917  0.7926
 8562SOL     OW31521   3.522   3.581  10.312  0.3842 -0.0058 -0.3425
 8562SOL    HW131522   3.574   3.578  10.392 -0.9987  0.4572  0.6248
 8562SOL    HW231523   3.506   3.674  10.297  2.5483  0.1170 -2.5236
 8563SOL     OW31524   4.304   9.239   3.330  0.4423  0.3142 -0.2269
 8563SOL    HW131525   4.361   9.168   3.300 -2.1705 -1.6472 -0.8764
 8563SOL    HW231526   4.255   9.203   3.403 -0.0199  1.9256  0.3147
 8564SOL     OW31527   4.191   9.367   7.070 -0.0128  0.2016 -0.0946
 8564SOL    HW131528   4.221   9.437   7.128  1.4745  0.2156 -0.8256
 8564SOL    HW231529   4.196   9.404   6.983  0.0683 -0.5629 -0.4281
 8565SOL     OW31530   2.147   2.043   5.928  0.1312  0.6087  0.3231
 8565SOL    HW131531   2.180   2.109   5.868  1.0056  0.4923  0.6659
 8565SOL    HW231532   2.210   1.971   5.921  0.1730  0.5470  1.2928
 8566SOL     OW31533   1.984   0.183   5.112 -0.2963  0.3703 -0.1124
 8566SOL    HW131534   1.945   0.211   5.030  2.0124 -1.2344 -1.9251
 8566SOL    HW231535   2.044   0.253   5.136 -0.4260  0.5117 -0.2039
 8567SOL     OW31536  10.509   2.291   2.815 -0.0667  0.0956  0.4622
 8567SOL    HW131537  10.438   2.355   2.809 -0.5459 -0.5603 -2.1054
 8567SOL    HW231538  10.588   2.341   2.797 -0.2339  0.2921  0.2668
 8568SOL     OW31539   4.795   7.693   4.854 -0.0381  0.0870 -0.4813
 8568SOL    HW131540   4.752   7.614   4.889  1.2443 -0.5897 -0.3925
 8568SOL    HW231541   4.726   7.736   4.803 -0.8804 -0.8735 -0.2055
 8569SOL     OW31542   7.539   3.381   5.928 -0.0949  0.0272 -0.6407
 8569SOL    HW131543   7.531   3.407   6.020 -1.6595  2.4807 -1.3609
 8569SOL    HW231544   7.451   3.353   5.904  0.8698 -3.3741 -0.7704
 8570SOL     OW31545   5.856   4.913   4.648 -1.0824 -0.5330 -0.2774
 8570SOL    HW131546   5.769   4.889   4.680 -0.8571  0.1826  0.9169
 8570SOL    HW231547   5.887   4.980   4.709  1.4288 -2.6910  1.0415
 8571SOL     OW31548   8.909   4.222   0.709  0.0506 -0.2678 -0.5365
 8571SOL    HW131549   8.954   4.271   0.641 -1.4292  0.7119 -0.8543
 8571SOL    HW231550   8.928   4.270   0.790 -1.5637  1.0345 -0.8743
 8572SOL     OW31551   6.530   0.138   9.927  0.4468  0.0676 -0.0165
 8572SOL    HW131552   6.449   0.128   9.977  0.3645 -1.0703 -0.3503
 8572SOL    HW231553   6.581   0.201   9.977  1.5436 -2.9634  3.1143
 8573SOL     OW31554   7.006   4.136   4.702 -0.1346  0.0697  0.0645
 8573SOL    HW131555   6.986   4.089   4.783  1.7350  0.3117  0.7210
 8573SOL    HW231556   6.952   4.214   4.706 -1.2448 -0.6859  0.2951
 8574SOL     OW31557   0.919   9.071   4.345 -0.2736 -0.4517 -0.2821
 8574SOL    HW131558   0.921   9.115   4.260 -0.0034 -1.0999 -0.6130
 8574SOL    HW231559   0.879   8.986   4.328 -2.7024  0.4084  0.7375
 8575SOL     OW31560   5.241   0.831  10.818 -0.5144 -0.6532  0.0403
 8575SOL    HW131561   5.231   0.762  10.752  0.1144 -0.0643 -0.6833
 8575SOL    HW231562   5.302   0.793  10.882 -1.1045 -1.2158  0.2784
 8576SOL     OW31563   9.761   0.806   4.056  0.1506 -0.2413 -0.6624
 8576SOL    HW131564   9.747   0.858   3.977  3.0834  2.1883  0.2378
 8576SOL    HW231565   9.824   0.739   4.029 -0.9841 -1.2215 -0.9786
 8577SOL     OW31566   1.063  10.653   2.021 -0.0357  0.3992  0.5793
 8577SOL    HW131567   1.047  10.746   2.040  0.1123  0.3732  0.8280
 8577SOL    HW231568   0.987  10.626   1.968  1.0733  1.3022 -1.6109
 8578SOL     OW31569   4.627   1.431   6.088 -0.0102 -0.1628 -0.1170
 8578SOL    HW131570   4.567   1.482   6.143 -1.4170 -1.7563 -0.0764
 8578SOL    HW231571   4.598   1.340   6.099  2.6048 -1.0558  0.0842
 8579SOL     OW31572   1.443   8.908   3.717  0.5892 -0.3942 -0.3224
 8579SOL    HW131573   1.458   8.984   3.661  0.3413  0.6314  0.9817
 8579SOL    HW231574   1.361   8.871   3.686  0.3234  0.3150 -0.4741
 8580SOL     OW31575   8.233   2.599   1.472  0.3760  0.5637 -0.2370
 8580SOL    HW131576   8.222   2.514   1.516 -2.7807 -0.2836 -2.3280
 8580SOL    HW231577   8.328   2.609   1.464  1.0194 -0.8460  3.4555
 8581SOL     OW31578   2.284   9.718   2.687  0.3871 -0.5335 -0.2563
 8581SOL    HW131579   2.307   9.737   2.778 -0.4724 -2.1446  0.3531
 8581SOL    HW231580   2.310   9.627   2.675 -2.7353 -1.5310 -0.4214
 8582SOL     OW31581   6.829   7.118  10.721  0.6232  0.1720 -0.3143
 8582SOL    HW131582   6.923   7.133  10.729  0.6986  0.5168 -1.6845
 8582SOL    HW231583   6.807   7.065  10.798  2.0095 -0.2556 -0.1848
 8583SOL     OW31584  10.375   7.918   5.871  0.1597  0.8405  0.1062
 8583SOL    HW131585  10.430   7.909   5.793 -0.4788 -0.1277 -0.2532
 8583SOL    HW231586  10.292   7.950   5.838  0.4018  2.0594  0.6199
 8584SOL     OW31587   7.230   4.119   3.983 -0.3882 -0.6030 -0.4682
 8584SOL    HW131588   7.226   4.032   4.022  2.2980 -0.8261 -0.4936
 8584SOL    HW231589   7.215   4.180   4.056 -2.2644 -1.0386 -0.4504
 8585SOL     OW31590   9.641   7.126   8.519 -0.2396 -0.2755  0.4077
 8585SOL    HW131591   9.551   7.096   8.533 -0.0590 -0.2453  1.7610
 8585SOL    HW231592   9.695   7.057   8.556  0.2380  0.5873  1.3607
 8586SOL     OW31593   6.667   7.902   3.192 -0.3535  0.3385  0.5275
 8586SOL    HW131594   6.713   7.914   3.275  0.8864  0.4981 -0.1652
 8586SOL    HW231595   6.584   7.862   3.217  0.3004 -0.2979  1.7888
 8587SOL     OW31596  10.628   9.500   3.281 -0.1402 -0.3170 -0.2032
 8587SOL    HW131597  10.722   9.487   3.267  0.3764  2.1463  0.4680
 8587SOL    HW231598  10.598   9.546   3.203 -1.1432 -2.2282 -1.0140
 8588SOL     OW31599   4.391   0.866   9.397 -0.0965 -0.5036 -0.1396
 8588SOL    HW131600   4.481   0.889   9.420 -0.6115  0.4565  1.0137
 8588SOL    HW231601   4.396   0.838   9.306  1.1654  0.8475 -0.5302
 8589SOL     OW31602   3.964   1.534   3.685 -0.1570 -0.5288  0.8444
 8589SOL    HW131603   4.043   1.481   3.677  0.5190  0.2954  1.7494
 8589SOL    HW231604   3.957   1.580   3.601 -0.2883 -1.4109  0.3629
 8590SOL     OW31605   4.663   5.499   2.963  0.3233 -0.1713  0.0572
 8590SOL    HW131606   4.598   5.550   3.012 -1.4862 -1.0085 -1.3679
 8590SOL    HW231607   4.643   5.408   2.985  0.5532 -0.4786 -0.9696
 8591SOL     OW31608   6.236   2.080   6.479  0.5265  0.0047  0.0825
 8591SOL    HW131609   6.147   2.072   6.446  0.2316 -1.0500  1.0784
 8591SOL    HW231610   6.284   2.125   6.409 -0.6224 -0.0211 -0.7392
 8592SOL     OW31611   2.581   7.773   3.803  0.0527  0.2249  0.4443
 8592SOL    HW131612   2.664   7.793   3.846  0.6373 -0.1505 -0.4784
 8592SOL    HW231613   2.603   7.771   3.710 -1.3155  1.7095  0.0500
 8593SOL     OW31614   8.584  10.394   8.564 -0.1493 -0.6089  0.2414
 8593SOL    HW131615   8.641  10.469   8.581  0.2965 -0.8726 -0.0674
 8593SOL    HW231616   8.542  10.415   8.481  1.0064 -1.3022 -0.5423
 8594SOL     OW31617   6.576  10.372   8.371 -0.5971  0.1283  0.2365
 8594SOL    HW131618   6.560  10.318   8.294 -0.7680 -0.3756  0.6254
 8594SOL    HW231619   6.587  10.461   8.336 -0.2475 -0.1636 -0.4087
 8595SOL     OW31620   1.206   5.265   1.517 -0.2431 -0.2354  0.0264
 8595SOL    HW131621   1.152   5.333   1.477  2.3746  1.6676 -0.5476
 8595SOL    HW231622   1.188   5.270   1.610 -0.9075  0.4764 -0.1358
 8596SOL     OW31623   0.271   6.064   4.834 -0.1482  0.5357 -0.3533
 8596SOL    HW131624   0.215   6.129   4.875 -1.4361 -0.6323 -0.2065
 8596SOL    HW231625   0.308   6.014   4.908 -0.6901 -0.1188 -0.5131
 8597SOL     OW31626   7.288   6.138  10.050 -0.4469 -0.7483  0.2732
 8597SOL    HW131627   7.297   6.226  10.012  1.3507 -0.4643  1.2215
 8597SOL    HW231628   7.377   6.112  10.071 -1.1675 -1.6716  2.5064
 8598SOL     OW31629  10.411   2.311   5.309 -0.3579  0.6497 -0.4095
 8598SOL    HW131630  10.440   2.240   5.365 -0.7668  1.1049  0.4010
 8598SOL    HW231631  10.437   2.285   5.221  1.4413  0.4991  0.1357
 8599SOL     OW31632   3.715   6.807   1.036  0.8158 -0.0839 -0.1821
 8599SOL    HW131633   3.729   6.839   0.946  0.2240  0.6497 -0.0242
 8599SOL    HW231634   3.803   6.790   1.069  1.3152  2.9005  0.2620
 8600SOL     OW31635   1.081   2.733  10.584  0.0243  0.1194  0.2603
 8600SOL    HW131636   1.165   2.777  10.599 -0.2383  0.4442  0.8116
 8600SOL    HW231637   1.028   2.756  10.660 -1.3996  1.8969 -1.1809
 8601SOL     OW31638   1.934   3.800  10.273 -0.0196 -0.0199  0.0139
 8601SOL    HW131639   1.989   3.859  10.325 -0.0533 -0.8561  1.0574
 8601SOL    HW231640   1.960   3.712  10.303 -0.3041 -0.5200 -1.1441
 8602SOL     OW31641   2.988   3.632   8.453 -0.2570 -0.2153  0.1464
 8602SOL    HW131642   2.965   3.612   8.362  0.2261  1.2394 -0.3228
 8602SOL    HW231643   3.066   3.578   8.470  2.0016  2.2162 -1.6276
 8603SOL     OW31644   3.003   8.215   4.675 -0.3510  0.1263 -0.2479
 8603SOL    HW131645   3.009   8.120   4.689 -2.4876  0.2358  1.9626
 8603SOL    HW231646   3.093   8.246   4.686 -0.0817 -1.2992  2.5481
 8604SOL     OW31647   7.289   6.759   1.888  0.1375 -0.0800 -0.0790
 8604SOL    HW131648   7.194   6.748   1.884  0.1854 -0.9505  0.8843
 8604SOL    HW231649   7.302   6.854   1.881 -0.8292  0.0800  0.1302
 8605SOL     OW31650   1.770   7.532   2.485  0.5126 -0.2897  0.3101
 8605SOL    HW131651   1.757   7.472   2.411 -0.6522 -1.2756  1.2819
 8605SOL    HW231652   1.865   7.535   2.497  0.6781 -0.6973 -0.7458
 8606SOL     OW31653   1.171   3.649   6.552  0.5075  0.3011 -0.0011
 8606SOL    HW131654   1.178   3.573   6.495  0.6067 -0.0600  0.4874
 8606SOL    HW231655   1.227   3.715   6.511 -0.2761  0.4318 -0.9180
 8607SOL     OW31656   0.608   7.986   1.048 -0.4097 -0.4864 -0.2023
 8607SOL    HW131657   0.553   7.944   1.114 -0.8946  1.5505  0.7787
 8607SOL    HW231658   0.675   7.921   1.028 -1.1023 -1.7016  1.2272
 8608SOL     OW31659   7.163   2.293   7.596 -0.2719 -0.1402 -0.6379
 8608SOL    HW131660   7.149   2.253   7.682  0.7009  1.2057  0.1885
 8608SOL    HW231661   7.108   2.242   7.537 -1.2475 -0.8831  0.8358
 8609SOL     OW31662   2.559   7.125   3.884  0.2300 -0.0110  0.1118
 8609SOL    HW131663   2.497   7.108   3.955  0.5979  0.9187  0.6801
 8609SOL    HW231664   2.613   7.046   3.879  1.4435  0.5988  2.1877
 8610SOL     OW31665   1.752   5.120   3.004  0.0323 -0.4315 -0.1151
 8610SOL    HW131666   1.757   5.034   3.047  0.4809 -0.9673 -1.2044
 8610SOL    HW231667   1.661   5.127   2.975  0.1725 -0.8762 -0.6800
 8611SOL     OW31668   3.999   9.260   7.413  0.1246 -0.3183  0.4156
 8611SOL    HW131669   3.954   9.200   7.353 -0.2276 -0.0754  0.4402
 8611SOL    HW231670   4.091   9.232   7.409 -0.1449 -1.3679  1.0077
 8612SOL     OW31671   2.734   2.848   5.260 -0.2625 -0.0292 -0.4083
 8612SOL    HW131672   2.819   2.891   5.264 -0.2298  0.0903 -1.8303
 8612SOL    HW231673   2.737   2.780   5.327  0.3101  1.0767  0.7208
 8613SOL     OW31674   0.646   3.206   4.029  0.3135 -0.1610  0.2683
 8613SOL    HW131675   0.604   3.289   4.052  1.9918  0.9585 -0.5516
 8613SOL    HW231676   0.654   3.209   3.934  1.6275 -0.6571  0.3533
 8614SOL     OW31677  10.794   2.796   5.137 -0.0198 -0.3627  0.5612
 8614SOL    HW131678  10.868   2.753   5.092 -1.7955 -4.3386  1.0585
 8614SOL    HW231679  10.812   2.785   5.230  0.0518  1.2594  0.7816
 8615SOL     OW31680   1.897   1.205   0.348 -0.3676 -0.2658 -0.0139
 8615SOL    HW131681   1.972   1.151   0.373  0.5504  0.5774 -0.8105
 8615SOL    HW231682   1.864   1.166   0.268 -1.0726 -0.8929  0.5707
 8616SOL     OW31683   1.131   8.974   1.894 -0.1051 -0.6710 -0.8003
 8616SOL    HW131684   1.055   9.009   1.941  0.0264 -2.1919  0.6469
 8616SOL    HW231685   1.095   8.944   1.811 -1.3598 -2.3728  0.2888
 8617SOL     OW31686   6.516   7.584   4.848  0.3500 -0.4941 -0.2588
 8617SOL    HW131687   6.446   7.649   4.851  2.2131  1.6709 -0.0290
 8617SOL    HW231688   6.509   7.536   4.930 -0.7985 -0.2972 -0.2239
 8618SOL     OW31689   5.759   4.624   8.932 -0.0865  0.5517 -0.4371
 8618SOL    HW131690   5.793   4.688   8.869  0.4799  1.4091  0.7082
 8618SOL    HW231691   5.746   4.674   9.012 -0.0638 -0.6859  0.3608
 8619SOL     OW31692   1.155   9.008   8.370  0.0095  0.3575 -0.2745
 8619SOL    HW131693   1.138   8.952   8.445  0.1153 -0.2528 -0.7033
 8619SOL    HW231694   1.103   9.087   8.387  0.7229  0.6061  0.8681
 8620SOL     OW31695   1.757   6.257  10.768 -0.3136 -0.3118  0.0285
 8620SOL    HW131696   1.783   6.165  10.762  0.6907 -0.0149 -0.3207
 8620SOL    HW231697   1.839   6.304  10.784 -1.0308  0.3508  2.2091
 8621SOL     OW31698   9.842   8.720   6.623 -0.6012 -0.1516  0.4450
 8621SOL    HW131699   9.775   8.724   6.555  0.8951  0.4768 -1.0592
 8621SOL    HW231700   9.893   8.800   6.611  2.1269 -1.8858 -0.3270
 8622SOL     OW31701   6.438   9.187   6.185 -0.8176 -0.4582  0.2847
 8622SOL    HW131702   6.525   9.169   6.220 -1.5055 -2.2671  1.1655
 8622SOL    HW231703   6.405   9.102   6.157 -1.5372  0.4862 -1.9524
 8623SOL     OW31704   2.890   0.261   6.384  0.1694 -0.0081  0.4371
 8623SOL    HW131705   2.877   0.263   6.289  0.4853 -1.7273  0.3244
 8623SOL    HW231706   2.829   0.327   6.418 -3.0543 -2.2001 -0.6605
 8624SOL     OW31707   1.374  10.759   8.936 -0.3541  0.3404 -0.3475
 8624SOL    HW131708   1.312  10.692   8.906 -1.4893  0.4463  1.6457
 8624SOL    HW231709   1.321  10.838   8.948  0.5738  1.0154 -0.5662
 8625SOL     OW31710   6.623   2.283   2.402  0.2621  0.3741 -0.2528
 8625SOL    HW131711   6.607   2.248   2.489 -2.3612  0.1597 -0.7444
 8625SOL    HW231712   6.578   2.367   2.400  1.6312  1.1408 -0.9458
 8626SOL     OW31713   1.273   8.401   8.828  1.2878  0.3005  0.1112
 8626SOL    HW131714   1.347   8.372   8.774  0.9988  2.6492 -1.6849
 8626SOL    HW231715   1.313   8.424   8.912  2.0097 -1.7693  0.3966
 8627SOL     OW31716   1.521   0.831   6.419  0.2869 -0.0336 -0.0699
 8627SOL    HW131717   1.612   0.802   6.409 -0.0753 -0.7063 -1.7922
 8627SOL    HW231718   1.516   0.914   6.371 -0.1251 -0.2673 -0.4388
 8628SOL     OW31719   5.564   7.266   1.886  0.2448 -0.0665  0.2359
 8628SOL    HW131720   5.474   7.239   1.869 -0.9413  2.0782  2.4478
 8628SOL    HW231721   5.615   7.185   1.879 -2.1033 -1.6640  0.5184
 8629SOL     OW31722   4.092   5.705   0.609  0.4171  0.3114 -0.2953
 8629SOL    HW131723   4.107   5.798   0.620  0.6044  0.0375  2.2872
 8629SOL    HW231724   4.130   5.664   0.687 -0.8245 -1.7910 -0.6905
 8630SOL     OW31725   4.432   6.973   3.306 -0.1842 -0.5720 -0.0571
 8630SOL    HW131726   4.390   6.908   3.250 -0.5950  0.5342 -1.0813
 8630SOL    HW231727   4.426   7.055   3.257  0.1781  0.2815  1.2520
 8631SOL     OW31728   5.709   4.474   9.329  0.1540  0.2454  0.4973
 8631SOL    HW131729   5.778   4.457   9.265 -1.5753 -1.9361 -0.9680
 8631SOL    HW231730   5.739   4.432   9.409  0.9310  0.1272  0.1534
 8632SOL     OW31731   7.159   9.789   2.980 -0.4728  0.3265 -0.5498
 8632SOL    HW131732   7.165   9.757   3.070  0.2025 -0.8947 -0.9919
 8632SOL    HW231733   7.250   9.809   2.956 -0.7328  1.3267 -0.7320
 8633SOL     OW31734   9.871   5.956   6.024  0.2942 -0.0007  0.2159
 8633SOL    HW131735   9.899   5.864   6.028  0.1726  0.0085  1.9638
 8633SOL    HW231736   9.915   5.991   5.946  0.9010 -1.3613 -0.0827
 8634SOL     OW31737   9.118  10.358   6.918 -0.3209  0.1232  0.5849
 8634SOL    HW131738   9.071  10.376   6.836  0.8895  0.5449 -0.0507
 8634SOL    HW231739   9.084  10.274   6.947  0.4660 -0.9061 -1.3035
 8635SOL     OW31740   5.871   7.972   5.681 -0.3051  0.2467 -0.0808
 8635SOL    HW131741   5.842   7.897   5.631 -1.0258 -0.3440  1.1761
 8635SOL    HW231742   5.798   8.033   5.679 -0.8062 -0.2802  1.1980
 8636SOL     OW31743   9.057   4.764   8.995 -0.2390  0.3511 -0.1047
 8636SOL    HW131744   9.101   4.849   8.994 -4.4150  2.8494  1.5777
 8636SOL    HW231745   9.011   4.759   8.911  0.2999 -0.4835 -0.3630
 8637SOL     OW31746   8.276   0.797   7.306 -0.4267  0.0599 -0.7128
 8637SOL    HW131747   8.305   0.887   7.295 -0.6639  0.2424  0.0948
 8637SOL    HW231748   8.253   0.768   7.218 -0.8235  0.9534 -0.9120
 8638SOL     OW31749   4.823   1.960   7.159 -0.2515  0.7536  0.7395
 8638SOL    HW131750   4.912   1.960   7.124  0.2945 -0.6924  2.0225
 8638SOL    HW231751   4.790   1.873   7.141 -0.4664  0.4427  2.4742
 8639SOL     OW31752   8.317   1.576  10.489 -0.3142  0.0772 -0.5815
 8639SOL    HW131753   8.344   1.518  10.418  3.0128  1.2489 -0.4728
 8639SOL    HW231754   8.314   1.663  10.449  0.0250  0.5292  0.3379
 8640SOL     OW31755   2.222   3.353   0.333  0.1825  0.4760  0.2875
 8640SOL    HW131756   2.291   3.352   0.398  0.2604 -0.4145  0.1969
 8640SOL    HW231757   2.221   3.265   0.296 -0.5176  0.6802 -0.2210
 8641SOL     OW31758   0.497  10.464   6.774 -0.2208 -0.1859 -0.2704
 8641SOL    HW131759   0.481  10.391   6.714  2.0497 -1.3137  0.4176
 8641SOL    HW231760   0.574  10.508   6.739  1.1805 -0.8882  1.7670
 8642SOL     OW31761   4.257   9.550  10.827 -0.9311  0.6858  0.2218
 8642SOL    HW131762   4.268   9.455  10.824 -1.6813  0.5659  0.9809
 8642SOL    HW231763   4.163   9.563  10.839 -0.9819  1.5576 -0.9411
 8643SOL     OW31764   5.067   1.327   3.098  0.0173  0.1869 -0.4823
 8643SOL    HW131765   5.109   1.301   3.016 -0.5744  0.2984 -0.8274
 8643SOL    HW231766   5.122   1.396   3.133  0.3711  0.0166 -0.6953
 8644SOL     OW31767   0.986   4.411   5.138  0.4917  0.1666  0.0152
 8644SOL    HW131768   0.978   4.322   5.103  2.7654 -0.5875  1.1686
 8644SOL    HW231769   0.930   4.465   5.082 -1.4591 -2.0655 -0.3251
 8645SOL     OW31770   5.151   7.337   0.510 -0.3785 -0.3873 -0.2225
 8645SOL    HW131771   5.056   7.343   0.508 -0.2707  2.0804 -0.2592
 8645SOL    HW231772   5.174   7.296   0.427 -1.4321 -2.5976  0.4955
 8646SOL     OW31773   3.532   0.211   9.864  0.2498  0.1036  0.3629
 8646SOL    HW131774   3.598   0.269   9.826  0.2056  0.3101  0.5941
 8646SOL    HW231775   3.450   0.260   9.858 -0.3061 -0.9966 -1.8743
 8647SOL     OW31776   7.613   9.328   7.285  0.4826  0.1470  0.5890
 8647SOL    HW131777   7.641   9.419   7.298  1.3061 -0.1830  1.2036
 8647SOL    HW231778   7.539   9.335   7.224  1.7038  1.0714 -0.8832
 8648SOL     OW31779   9.776   6.252  10.661 -0.2012  0.1756  0.3091
 8648SOL    HW131780   9.741   6.337  10.686 -0.4497  0.3278 -0.5345
 8648SOL    HW231781   9.805   6.263  10.570  2.7733  0.2820  1.1592
 8649SOL     OW31782   8.135   1.788   3.395 -0.1328 -0.1961  0.3375
 8649SOL    HW131783   8.072   1.840   3.346  1.2504  1.8660  0.6351
 8649SOL    HW231784   8.218   1.798   3.348  0.7348  0.0254  1.8143
 8650SOL     OW31785   7.381   1.084   6.333  0.0680 -0.5313  0.0394
 8650SOL    HW131786   7.342   1.062   6.418 -1.2837  0.5917 -0.2415
 8650SOL    HW231787   7.383   1.179   6.332  1.9659 -0.5522 -0.3994
 8651SOL     OW31788  10.742   1.100   0.235  0.7229  0.3364 -0.0456
 8651SOL    HW131789  10.835   1.124   0.231  0.9001 -0.0080  1.3765
 8651SOL    HW231790  10.721   1.072   0.146  1.8101  1.0105 -0.5423
 8652SOL     OW31791   6.225   1.348   6.782 -0.6133  0.1009  0.6867
 8652SOL    HW131792   6.229   1.393   6.698  0.3559  2.1036  1.7322
 8652SOL    HW231793   6.284   1.273   6.772 -0.5849  0.2515 -0.4274
 8653SOL     OW31794   5.921   6.787   9.426  0.7161  0.1287 -0.1731
 8653SOL    HW131795   5.957   6.718   9.371  0.0818 -1.4816  1.3082
 8653SOL    HW231796   5.873   6.844   9.366  1.1007 -0.8262 -1.4233
 8654SOL     OW31797   8.687   5.165   2.852  0.4587  0.4912 -0.0135
 8654SOL    HW131798   8.641   5.248   2.837  3.0101  2.1550  0.8001
 8654SOL    HW231799   8.739   5.180   2.931  1.1727 -1.8523  0.0426
 8655SOL     OW31800   6.168   4.462   5.775 -0.0026  0.4309 -0.0281
 8655SOL    HW131801   6.104   4.524   5.738  0.4762 -0.2405 -2.1654
 8655SOL    HW231802   6.252   4.490   5.736  0.2977 -1.2034 -0.6162
 8656SOL     OW31803   4.683   2.523   7.349 -0.2514  0.0803  0.0244
 8656SOL    HW131804   4.622   2.454   7.378  0.4019 -0.0497  1.1819
 8656SOL    HW231805   4.769   2.488   7.371  0.3040  0.0926 -1.9515
 8657SOL     OW31806   3.961   2.584   8.762 -0.0855 -0.3492  0.5729
 8657SOL    HW131807   4.035   2.544   8.717 -0.1784 -1.5236  1.4075
 8657SOL    HW231808   3.907   2.510   8.790 -1.4730  0.4755  0.1772
 8658SOL     OW31809   0.957  10.026   2.701  0.2396  0.5296 -0.3007
 8658SOL    HW131810   0.882  10.020   2.642 -1.0518 -0.5659  1.3249
 8658SOL    HW231811   1.033  10.023   2.644 -0.9048 -1.6194 -1.8714
 8659SOL     OW31812   9.685   3.245   6.414  0.2273  0.2081 -0.3604
 8659SOL    HW131813   9.665   3.281   6.328  0.6099 -1.0279 -0.9880
 8659SOL    HW231814   9.709   3.322   6.467 -1.7421  1.1954 -0.8172
 8660SOL     OW31815   7.939   4.630  10.274  0.0165  0.2389  0.4842
 8660SOL    HW131816   8.012   4.692  10.271  0.2888 -0.1044 -0.4380
 8660SOL    HW231817   7.926   4.604  10.182 -0.2613 -0.8679  0.8228
 8661SOL     OW31818   2.339   0.951   3.978 -0.5648  0.2840  0.4997
 8661SOL    HW131819   2.337   0.953   3.883 -0.7332 -1.4725  0.4269
 8661SOL    HW231820   2.379   0.867   3.999 -0.5953  0.6095  1.9860
 8662SOL     OW31821   2.085   8.628  10.630  0.3153 -1.0303  0.8737
 8662SOL    HW131822   2.029   8.701  10.653 -1.1612 -2.1975  1.1364
 8662SOL    HW231823   2.137   8.659  10.556 -0.8484  0.0178  0.4704
 8663SOL     OW31824   6.553   6.882   2.448  0.2424  0.2623 -0.2996
 8663SOL    HW131825   6.483   6.905   2.509  0.5586  0.0851  0.1349
 8663SOL    HW231826   6.521   6.803   2.404 -0.1865  0.6566 -0.6947
 8664SOL     OW31827   2.037   0.432  10.085  0.2365  0.1816 -0.2453
 8664SOL    HW131828   2.084   0.478  10.155  0.6607 -1.7914  0.8333
 8664SOL    HW231829   1.946   0.459  10.096  0.8205  3.3115 -1.7668
 8665SOL     OW31830   5.685   1.823   2.622 -0.4379  0.1285  0.2120
 8665SOL    HW131831   5.715   1.742   2.663 -0.8851  1.0637  2.5250
 8665SOL    HW231832   5.641   1.795   2.542  1.6338 -1.6867 -0.3645
 8666SOL     OW31833   2.409   4.558   6.616  0.6157 -0.0163 -0.0370
 8666SOL    HW131834   2.429   4.628   6.678  2.5702 -0.8017  0.2865
 8666SOL    HW231835   2.324   4.524   6.645  0.6981  0.7423  1.1608
 8667SOL     OW31836   6.550   3.138   5.023  0.0856  0.1442  0.2582
 8667SOL    HW131837   6.465   3.120   5.063  0.0586  1.0866  0.6526
 8667SOL    HW231838   6.613   3.101   5.083 -0.0511 -0.8762 -0.2126
 8668SOL     OW31839  10.832   2.179   3.910 -0.5570  0.1555  0.4032
 8668SOL    HW131840  10.922   2.208   3.920 -0.7985  0.4083  2.1088
 8668SOL    HW231841  10.780   2.240   3.962 -1.3495 -1.7484  1.9959
 8669SOL     OW31842   8.132   9.836   3.290 -0.0824 -0.1895 -0.1537
 8669SOL    HW131843   8.165   9.917   3.328  1.2328 -1.3540  1.3164
 8669SOL    HW231844   8.190   9.768   3.324 -2.1824 -1.9766  0.1067
 8670SOL     OW31845   5.103   0.339   0.646 -0.1859  0.8659 -0.3844
 8670SOL    HW131846   5.140   0.407   0.702 -1.1018  0.1959  1.1101
 8670SOL    HW231847   5.011   0.363   0.636 -0.6659 -0.4266  0.6539
 8671SOL     OW31848   0.288   8.416   2.848 -0.3603  0.3153 -0.0519
 8671SOL    HW131849   0.204   8.375   2.829 -1.5133  1.4162  2.1887
 8671SOL    HW231850   0.267   8.510   2.855  1.0137  0.5964  0.6115
 8672SOL     OW31851  10.205   2.931   6.335 -0.1182 -0.3540  0.1947
 8672SOL    HW131852  10.179   2.962   6.248 -1.8854 -1.5817  0.2225
 8672SOL    HW231853  10.186   3.003   6.394  1.2038  0.5352 -0.4056
 8673SOL     OW31854  10.629   6.649   0.211 -0.3839  0.9686 -0.0198
 8673SOL    HW131855  10.610   6.697   0.292  0.9638  0.9464  0.3298
 8673SOL    HW231856  10.721   6.623   0.219  0.0777  1.7748 -1.9533
 8674SOL     OW31857   6.079   2.733   8.253  0.0424  0.4535 -0.5890
 8674SOL    HW131858   6.150   2.719   8.189  0.8640  1.9145 -0.0445
 8674SOL    HW231859   6.124   2.769   8.330 -1.2275  0.8066  0.0017
 8675SOL     OW31860   5.869   2.006   0.869  0.2648  0.3760  0.3463
 8675SOL    HW131861   5.843   1.934   0.812  0.5357 -0.7936  1.6524
 8675SOL    HW231862   5.922   2.063   0.813 -0.0554 -0.3645 -0.7360
 8676SOL     OW31863   5.497   9.378   7.897  0.5539 -0.3226  0.3206
 8676SOL    HW131864   5.446   9.450   7.859 -0.7935 -0.1870  2.2430
 8676SOL    HW231865   5.588   9.401   7.879  0.0395  0.3130 -1.7137
 8677SOL     OW31866   6.743   1.663   6.521 -0.8092  0.3794 -0.8806
 8677SOL    HW131867   6.810   1.694   6.581 -2.9824  2.0122  0.8688
 8677SOL    HW231868   6.685   1.610   6.575 -0.1782 -2.3292 -2.6817
 8678SOL     OW31869   0.521   3.477   0.838 -0.6449 -0.0686  0.0949
 8678SOL    HW131870   0.574   3.556   0.846  0.2068 -0.4771 -1.2712
 8678SOL    HW231871   0.547   3.423   0.912 -0.7753  0.6528  0.6786
 8679SOL     OW31872  10.903   5.927   9.716 -0.3725 -0.5037  0.1812
 8679SOL    HW131873  10.835   5.991   9.698 -0.0226 -0.3473 -0.6815
 8679SOL    HW231874  10.873   5.847   9.672  0.3167 -0.2313 -0.8193
 8680SOL     OW31875   8.047  10.126   5.970 -0.2422 -0.5041 -0.2141
 8680SOL    HW131876   8.111  10.069   6.013 -0.6003 -1.3592 -0.7858
 8680SOL    HW231877   7.975  10.067   5.946 -1.2660  0.4347  0.4291
 8681SOL     OW31878   0.159   2.581   3.246 -0.2256  0.1070 -0.4779
 8681SOL    HW131879   0.137   2.591   3.154 -0.4545  0.6375 -0.3689
 8681SOL    HW231880   0.125   2.660   3.288 -1.4536 -0.7835  0.3021
 8682SOL     OW31881   6.478   9.633  10.529  0.3655  0.1792 -0.7901
 8682SOL    HW131882   6.518   9.695  10.590 -2.5058  0.6647  0.7773
 8682SOL    HW231883   6.495   9.670  10.442  2.1232  0.9789 -0.1521
 8683SOL     OW31884   0.178   2.094   5.103 -0.3242 -0.1018  0.7660
 8683SOL    HW131885   0.130   2.152   5.044 -0.7718 -1.7011 -0.4979
 8683SOL    HW231886   0.111   2.052   5.157 -0.2554 -1.2313  0.0093
 8684SOL     OW31887   5.948   3.042   7.555  0.3050  0.3325  0.2038
 8684SOL    HW131888   6.021   3.092   7.519  0.3357  0.1530  0.0073
 8684SOL    HW231889   5.870   3.090   7.528  0.3188  0.0932 -0.2853
 8685SOL     OW31890  10.565   1.699   8.174  0.0706  0.1990  0.0266
 8685SOL    HW131891  10.549   1.634   8.105 -0.8832 -0.0240  0.4464
 8685SOL    HW231892  10.549   1.652   8.256  1.5503  0.3613  0.4272
 8686SOL     OW31893   2.283  10.318  10.604 -0.3671 -0.1748 -0.7039
 8686SOL    HW131894   2.224  10.243  10.606  1.3144 -1.6499 -2.1555
 8686SOL    HW231895   2.251  10.376  10.673 -1.5567 -2.3679  0.7113
 8687SOL     OW31896   1.945   8.992   9.870  0.2192 -0.2464  0.1963
 8687SOL    HW131897   1.934   9.045   9.949 -1.8088 -0.8381  0.3627
 8687SOL    HW231898   1.857   8.965   9.847  0.9812 -1.7159 -1.1670
 8688SOL     OW31899   1.898   1.622   2.001  0.2627  0.2087  0.1722
 8688SOL    HW131900   1.853   1.550   1.956 -0.8462  0.4218  0.8972
 8688SOL    HW231901   1.843   1.640   2.077  1.0913  1.1325  0.5685
 8689SOL     OW31902   3.762   1.157   1.987 -0.3625 -0.1614  0.7447
 8689SOL    HW131903   3.826   1.181   1.920 -1.1312  0.6359  0.2729
 8689SOL    HW231904   3.792   1.201   2.066 -0.5361  0.5519  0.4234
 8690SOL     OW31905   5.249   0.560   0.186  0.2149  0.3194  0.7049
 8690SOL    HW131906   5.343   0.581   0.185  0.4733 -0.8069  0.5650
 8690SOL    HW231907   5.245   0.467   0.164 -1.0669  0.8425 -1.5370
 8691SOL     OW31908   4.544   2.830   3.729 -0.1887  0.0247  0.3881
 8691SOL    HW131909   4.518   2.922   3.725 -0.5193 -0.0592  0.5756
 8691SOL    HW231910   4.568   2.815   3.820 -0.8127 -0.2515  0.5162
 8692SOL     OW31911   6.339  10.603   5.058  0.5248  0.7509 -0.0197
 8692SOL    HW131912   6.274  10.579   5.125 -1.1830  0.2969 -1.7218
 8692SOL    HW231913   6.403  10.656   5.105  0.9834 -1.8058  2.5763
 8693SOL     OW31914   9.377   2.093   7.617  0.1924  0.7218 -0.2293
 8693SOL    HW131915   9.452   2.146   7.591  0.3351  0.3097 -0.6676
 8693SOL    HW231916   9.307   2.119   7.558 -0.1061  1.3238  0.3742
 8694SOL     OW31917   7.369   6.354   7.578  0.2935  0.9000 -1.0167
 8694SOL    HW131918   7.465   6.346   7.581  0.3084  1.0365 -1.0917
 8694SOL    HW231919   7.341   6.285   7.519 -0.0214 -1.9063  2.1178
 8695SOL     OW31920   5.752   5.498   5.577  0.2858  0.0483  0.1446
 8695SOL    HW131921   5.781   5.568   5.519 -0.2161 -0.8730 -1.2631
 8695SOL    HW231922   5.761   5.535   5.665 -0.6121  2.1301 -0.5734
 8696SOL     OW31923   6.750   3.634   5.382 -0.4423 -0.1080 -0.3328
 8696SOL    HW131924   6.834   3.599   5.412  1.9538  2.6219 -3.2338
 8696SOL    HW231925   6.728   3.582   5.305 -0.4964  0.3399 -0.6199
 8697SOL     OW31926   1.361   0.984   8.510 -0.2380 -0.3086  0.0424
 8697SOL    HW131927   1.327   0.963   8.423  2.3293 -0.0085 -1.1255
 8697SOL    HW231928   1.416   0.909   8.532  1.4905  0.8987  0.0269
 8698SOL     OW31929   0.937   8.790   5.891 -0.3799 -0.1634  0.2743
 8698SOL    HW131930   0.914   8.791   5.798 -1.2243  0.5063  0.4777
 8698SOL    HW231931   1.009   8.852   5.899  0.6950 -1.3024 -0.1535
 8699SOL     OW31932   3.433   0.631   9.279  0.2772  0.9362 -0.3158
 8699SOL    HW131933   3.458   0.583   9.201 -2.1014  0.3505 -0.7872
 8699SOL    HW231934   3.508   0.623   9.338  1.1209 -0.7418 -1.5594
 8700SOL     OW31935   2.395   2.765   1.416  0.4379 -0.2858  0.0844
 8700SOL    HW131936   2.478   2.772   1.369  0.6278  0.8481  0.5708
 8700SOL    HW231937   2.334   2.819   1.365  0.3038 -0.1310  0.4084
 8701SOL     OW31938   2.051   3.180   5.897 -0.1579  0.1160 -0.2022
 8701SOL    HW131939   2.038   3.174   5.992  0.8613  1.0630  0.0206
 8701SOL    HW231940   1.969   3.150   5.860 -0.9818  0.7843  1.0099
 8702SOL     OW31941   9.747   3.974   5.923  0.2087  0.0438 -0.6087
 8702SOL    HW131942   9.752   3.882   5.898 -0.0259 -0.3897  0.8808
 8702SOL    HW231943   9.755   3.974   6.019  1.8254  1.6810 -0.6776
 8703SOL     OW31944   6.050   7.223   0.767  0.1648  0.2596  0.1661
 8703SOL    HW131945   6.105   7.233   0.845  0.8824 -0.0037 -0.2936
 8703SOL    HW231946   5.961   7.244   0.797  0.4037 -0.0047  1.0896
 8704SOL     OW31947   0.588   7.645   6.864 -0.2728  0.1582  0.1994
 8704SOL    HW131948   0.675   7.617   6.836 -0.8884 -1.8593  0.1934
 8704SOL    HW231949   0.565   7.584   6.935 -1.1313  1.5357  1.1580
 8705SOL     OW31950   8.824  10.771   6.198  0.4124  0.3691  0.8372
 8705SOL    HW131951   8.744  10.761   6.146 -0.0362  0.3340  1.5263
 8705SOL    HW231952   8.794  10.790   6.287  1.1367 -0.7563  1.3587
 8706SOL     OW31953   4.947   0.341   7.407 -0.1323 -0.2049 -0.3732
 8706SOL    HW131954   4.886   0.415   7.412 -0.6307 -0.4859 -1.9992
 8706SOL    HW231955   4.921   0.293   7.329  0.9361 -1.4585  0.0076
 8707SOL     OW31956   5.942   4.534   0.382 -0.4913  0.2591  0.2064
 8707SOL    HW131957   5.886   4.521   0.459 -3.0241  0.6321 -1.4610
 8707SOL    HW231958   5.971   4.625   0.389 -1.2834  0.5079  0.3782
 8708SOL     OW31959   9.300   2.122   6.039  0.0278  0.1327 -0.1637
 8708SOL    HW131960   9.237   2.097   5.971  0.3361 -1.5033  0.1210
 8708SOL    HW231961   9.369   2.169   5.991 -0.5260  0.3813 -0.7356
 8709SOL     OW31962   2.482   3.410   5.484  0.0018  0.0150  0.2676
 8709SOL    HW131963   2.403   3.451   5.518 -1.7183 -2.2697 -0.6413
 8709SOL    HW231964   2.485   3.324   5.527  0.2036 -1.1823 -1.9564
 8710SOL     OW31965  10.757   3.328   2.333  0.2452  0.0356  0.0320
 8710SOL    HW131966  10.669   3.297   2.309 -0.5934 -0.1868  2.9846
 8710SOL    HW231967  10.805   3.248   2.357  0.1740  0.3913  1.4618
 8711SOL     OW31968   8.463   2.543   5.371  0.2729 -0.5089 -0.0418
 8711SOL    HW131969   8.382   2.524   5.419  1.3067  0.2632  2.1977
 8711SOL    HW231970   8.452   2.634   5.342  1.2483  0.5771  2.5910
 8712SOL     OW31971   9.086   4.089   8.976 -0.6635  0.4913  0.8415
 8712SOL    HW131972   9.165   4.111   9.025 -0.3069  0.5060  0.2745
 8712SOL    HW231973   9.015   4.133   9.022 -0.4811 -0.2841  1.9120
 8713SOL     OW31974   3.862   5.352   7.023  0.1809  0.0531 -0.4316
 8713SOL    HW131975   3.950   5.318   7.005  0.6192  1.0134 -0.1379
 8713SOL    HW231976   3.857   5.358   7.118  0.7820  2.4597 -0.4863
 8714SOL     OW31977   5.834   4.229   5.945 -0.1586 -1.1632  0.0225
 8714SOL    HW131978   5.749   4.188   5.932 -0.7932  0.3261 -0.7888
 8714SOL    HW231979   5.827   4.274   6.029  0.1065 -1.6869  0.3270
 8715SOL     OW31980   3.294   6.513  10.752 -0.0052 -0.2016  0.3465
 8715SOL    HW131981   3.328   6.473  10.832  1.1121  0.1496  0.0720
 8715SOL    HW231982   3.297   6.608  10.769 -0.2452 -0.1441  0.0773
 8716SOL     OW31983   2.234   2.501   1.245  0.6730  0.1535  0.4235
 8716SOL    HW131984   2.240   2.566   1.315 -0.7712  0.7009  0.0778
 8716SOL    HW231985   2.153   2.523   1.199  0.2825 -1.7311  0.1374
 8717SOL     OW31986   1.559   1.316   6.551 -0.3556 -0.4637  0.3479
 8717SOL    HW131987   1.512   1.394   6.580 -0.4649  0.0354 -1.1100
 8717SOL    HW231988   1.570   1.328   6.457  1.9559 -0.9603  0.4968
 8718SOL     OW31989   0.363   2.009   7.705  0.3072  0.2617 -0.1963
 8718SOL    HW131990   0.429   2.070   7.671  0.6557  1.0523  1.7574
 8718SOL    HW231991   0.409   1.961   7.774 -0.7925 -0.1040  0.3006
 8719SOL     OW31992   8.604   8.795   6.913 -0.3883 -0.1232  0.5009
 8719SOL    HW131993   8.619   8.701   6.904 -1.6924 -0.2797 -0.2841
 8719SOL    HW231994   8.664   8.823   6.982  0.9107 -1.2970 -0.1039
 8720SOL     OW31995   4.368   8.123  10.590 -1.1059  0.0823  0.9332
 8720SOL    HW131996   4.433   8.147  10.656 -0.3132  0.6633 -0.0236
 8720SOL    HW231997   4.413   8.059  10.534 -1.6486 -0.1496  0.7535
 8721SOL     OW31998   3.568   6.145  10.289 -0.4503  0.1668 -0.2460
 8721SOL    HW131999   3.537   6.124  10.201  3.2683  0.3500 -1.7434
 8721SOL    HW232000   3.602   6.234  10.283  0.4943 -0.0590  1.1919
 8722SOL     OW32001   6.063   4.403   3.781  0.2485 -0.0955  0.4271
 8722SOL    HW132002   6.119   4.365   3.848  0.4339 -1.6001 -0.5328
 8722SOL    HW232003   5.982   4.425   3.827  0.3176 -1.2481  1.1163
 8723SOL     OW32004   2.995   9.141   2.711 -0.4882 -0.0426  0.1517
 8723SOL    HW132005   2.989   9.205   2.640  1.2294 -0.0864 -0.0575
 8723SOL    HW232006   3.082   9.103   2.702 -1.8212 -3.2514 -0.4160
 8724SOL     OW32007  10.216   5.918   0.794 -0.2722  0.3920 -0.1349
 8724SOL    HW132008  10.209   5.856   0.721 -1.1373  3.3736 -2.7990
 8724SOL    HW232009  10.310   5.930   0.806 -0.1079 -0.7694 -0.1618
 8725SOL     OW32010   4.568   1.932   9.070  0.1601  0.6632  0.3884
 8725SOL    HW132011   4.535   1.944   9.159 -2.6609 -2.6567  0.0036
 8725SOL    HW232012   4.657   1.897   9.082  0.1123  0.9805  1.8558
 8726SOL     OW32013   7.581   2.433   5.898 -0.4455  0.6601  0.1342
 8726SOL    HW132014   7.600   2.414   5.990 -0.5280  1.5202  0.3357
 8726SOL    HW232015   7.545   2.351   5.863 -0.7694  0.4439  0.9674
 8727SOL     OW32016   2.328   6.275  10.042  0.5065 -0.3315  0.1132
 8727SOL    HW132017   2.293   6.204  10.094 -0.6301  0.2015  0.1086
 8727SOL    HW232018   2.298   6.258   9.953 -0.0614  0.3199  0.1698
 8728SOL     OW32019   1.821   6.950   4.374  0.2971 -0.3285  0.2004
 8728SOL    HW132020   1.772   6.961   4.292 -0.3912  0.6080  0.7200
 8728SOL    HW232021   1.903   6.907   4.348  0.8634  1.4966 -1.2527
 8729SOL     OW32022   7.616   8.693   1.800 -0.9319  0.5910 -0.7328
 8729SOL    HW132023   7.686   8.708   1.737  0.5646 -0.6684  0.5601
 8729SOL    HW232024   7.595   8.780   1.834 -1.1232  1.1743 -2.2444
 8730SOL     OW32025   5.671   3.730   3.496  0.4333 -0.2573 -0.0929
 8730SOL    HW132026   5.705   3.712   3.584 -1.3885  1.1497  0.9843
 8730SOL    HW232027   5.744   3.770   3.450  1.3168 -0.6731  0.8996
 8731SOL     OW32028   0.961   6.592   0.238  0.2020  0.1213 -0.0517
 8731SOL    HW132029   1.048   6.569   0.207 -1.0525 -1.2923 -2.9992
 8731SOL    HW232030   0.914   6.619   0.158 -2.3682 -0.2894  1.2141
 8732SOL     OW32031   4.039   3.187   8.837  0.3678  0.1212  0.4987
 8732SOL    HW132032   4.121   3.139   8.844 -0.4858 -1.1897  1.9742
 8732SOL    HW232033   4.040   3.248   8.911  1.2910  2.2403 -1.1613
 8733SOL     OW32034   8.521   5.382   2.724  0.3417  0.7582 -0.1665
 8733SOL    HW132035   8.503   5.380   2.630  0.1025 -1.7439 -0.1403
 8733SOL    HW232036   8.457   5.444   2.759 -1.6021 -0.4615 -1.3216
 8734SOL     OW32037   3.811   8.454   8.350  0.3998  0.3072  0.6597
 8734SOL    HW132038   3.792   8.442   8.443 -1.2392 -1.3437  0.1699
 8734SOL    HW232039   3.750   8.523   8.322  0.1636  0.0821  0.6118
 8735SOL     OW32040   2.735   7.680   8.061  0.1418  0.4194 -0.7629
 8735SOL    HW132041   2.749   7.765   8.018 -1.0496  0.6821 -0.6498
 8735SOL    HW232042   2.737   7.701   8.155  0.4966  0.2130 -0.7245
 8736SOL     OW32043   2.881   6.750   7.456  0.3073 -0.2909  0.3055
 8736SOL    HW132044   2.837   6.674   7.418 -0.7152  0.1258  0.6227
 8736SOL    HW232045   2.836   6.764   7.539 -0.7412  1.7235 -0.5377
 8737SOL     OW32046   4.095   5.470   3.585 -0.4004  0.5460 -0.3005
 8737SOL    HW132047   4.124   5.465   3.494  0.5644  2.6087 -0.1541
 8737SOL    HW232048   4.134   5.392   3.626  0.6575  0.5414 -1.2569
 8738SOL     OW32049   2.035   0.534   1.439  0.1645 -0.3317  0.0746
 8738SOL    HW132050   2.102   0.517   1.372 -0.8816  0.4156 -1.2206
 8738SOL    HW232051   1.991   0.613   1.408 -0.7740 -0.3414  1.3356
 8739SOL     OW32052   3.164   4.673   3.561  0.2194  0.2135  0.3818
 8739SOL    HW132053   3.121   4.757   3.575  0.5462  0.6624 -1.1714
 8739SOL    HW232054   3.154   4.656   3.467  0.1931 -1.4712  0.6610
 8740SOL     OW32055   8.505   0.142   7.199  0.5055  0.4922 -0.1256
 8740SOL    HW132056   8.452   0.143   7.119  1.0443 -0.8972 -0.5256
 8740SOL    HW232057   8.552   0.225   7.197 -1.2383  1.5398 -0.0148
 8741SOL     OW32058   5.691   2.210   4.229  0.6206  0.0661 -0.1311
 8741SOL    HW132059   5.780   2.206   4.264  0.0104 -1.6019  1.4127
 8741SOL    HW232060   5.650   2.282   4.276  0.9793  0.4437 -0.3935
 8742SOL     OW32061   0.641   4.971   9.674  0.2901 -0.5094  0.3401
 8742SOL    HW132062   0.581   5.040   9.702  0.0990 -0.8521  0.7894
 8742SOL    HW232063   0.604   4.891   9.712  0.6062 -0.8303 -0.0292
 8743SOL     OW32064   8.681   2.014   9.201 -0.2907 -0.3356  0.1701
 8743SOL    HW132065   8.710   2.100   9.170 -1.2521  0.5820  1.6667
 8743SOL    HW232066   8.762   1.963   9.209  0.1473 -0.1435 -2.2351
 8744SOL     OW32067   8.402   8.726  10.617 -0.2887  0.2044 -0.5124
 8744SOL    HW132068   8.384   8.661  10.685  1.4409  0.7860  0.5689
 8744SOL    HW232069   8.477   8.692  10.569 -0.6712  0.4328 -1.2811
 8745SOL     OW32070   6.016   1.548  10.676  0.7786  0.2903  0.2867
 8745SOL    HW132071   5.945   1.490  10.650  0.4266  1.0315 -0.4287
 8745SOL    HW232072   6.095   1.507  10.640  0.4944  0.4273 -0.5060
 8746SOL     OW32073   6.721   2.633  10.058  0.3257  0.2845 -0.6637
 8746SOL    HW132074   6.691   2.684  10.133  2.3785 -0.0915  0.5043
 8746SOL    HW232075   6.815   2.620  10.074  0.3304 -1.9757 -2.0057
 8747SOL     OW32076   9.688   9.052   8.530  0.2610  0.3831 -0.3372
 8747SOL    HW132077   9.659   8.977   8.581 -0.6714  0.1859 -1.1339
 8747SOL    HW232078   9.729   9.110   8.594 -0.4575 -0.0702  0.5556
 8748SOL     OW32079   5.975   5.374   2.154 -0.0689 -0.1328 -0.4091
 8748SOL    HW132080   5.995   5.443   2.090  0.4418 -0.1765 -0.3027
 8748SOL    HW232081   6.057   5.325   2.163 -0.1371 -0.1333  0.2714
 8749SOL     OW32082   9.895   8.943   3.489 -0.7668  0.3169  0.0219
 8749SOL    HW132083   9.880   9.035   3.467  1.5367  0.6425 -0.3929
 8749SOL    HW232084   9.933   8.906   3.410  0.8902 -0.3019  1.0702
 8750SOL     OW32085   0.704   4.417   6.414  0.1902  0.4047 -0.2741
 8750SOL    HW132086   0.630   4.405   6.355 -1.0745  1.8245  0.9512
 8750SOL    HW232087   0.719   4.512   6.414  2.0718  0.1574 -0.5275
 8751SOL     OW32088   5.055   4.527   8.018 -0.0792 -0.6603  0.2788
 8751SOL    HW132089   5.023   4.452   7.968  0.3568 -1.5239  1.2580
 8751SOL    HW232090   5.015   4.517   8.104  0.3575 -0.0253  0.5603
 8752SOL     OW32091   3.840   6.303   9.386  0.2304 -0.0163  0.2233
 8752SOL    HW132092   3.902   6.231   9.397 -1.9819 -1.7166  3.1837
 8752SOL    HW232093   3.893   6.382   9.396  2.2011 -1.3206  0.6794
 8753SOL     OW32094   1.902   1.063   1.694  0.0305  0.0232  0.3479
 8753SOL    HW132095   1.828   1.034   1.747 -0.4611 -1.2187 -0.9461
 8753SOL    HW232096   1.894   1.158   1.692 -1.1149 -0.0451  0.8305
 8754SOL     OW32097   5.285   1.738   3.366 -0.6320  0.3892  0.2745
 8754SOL    HW132098   5.377   1.717   3.351 -1.2361 -0.9196 -2.1253
 8754SOL    HW232099   5.279   1.832   3.353  0.1362  0.2725 -1.0942
 8755SOL     OW32100   3.230   2.675   5.954 -0.3889  0.1270 -0.4884
 8755SOL    HW132101   3.230   2.768   5.929 -0.3691  1.0677  2.5733
 8755SOL    HW232102   3.138   2.655   5.971 -0.3714 -0.4150 -0.9692
 8756SOL     OW32103   5.376   0.096   9.558  0.2589  0.5413  0.3131
 8756SOL    HW132104   5.456   0.060   9.596  1.2435  1.9711 -0.3253
 8756SOL    HW232105   5.329   0.020   9.526  2.5255 -0.1983 -1.4916
 8757SOL     OW32106   3.024   3.130   7.496  0.0669  0.1426 -0.2051
 8757SOL    HW132107   2.950   3.109   7.440  0.3432 -1.4388 -0.0272
 8757SOL    HW232108   3.063   3.208   7.456 -0.1937 -0.4928 -1.7763
 8758SOL     OW32109   5.158   4.779   0.972  0.3963  0.4366  0.1780
 8758SOL    HW132110   5.128   4.862   1.010  0.6089 -0.2964  2.0314
 8758SOL    HW232111   5.156   4.717   1.044  0.5707 -1.1217 -1.0910
 8759SOL     OW32112   4.404   5.988   3.382 -0.8703  0.1054 -0.1285
 8759SOL    HW132113   4.336   5.981   3.315 -1.0434 -1.4979  0.1761
 8759SOL    HW232114   4.356   6.002   3.464 -0.9610 -2.0021  0.2388
 8760SOL     OW32115   7.056   5.224  10.190  0.5311 -0.3412 -0.2021
 8760SOL    HW132116   7.045   5.283  10.116  2.9403 -0.7378 -0.9475
 8760SOL    HW232117   7.075   5.281  10.264  1.4434 -0.0710 -0.6276
 8761SOL     OW32118   2.386   6.838   2.307 -0.0431 -0.1829 -0.2460
 8761SOL    HW132119   2.364   6.774   2.239  0.8334 -1.1991  0.4027
 8761SOL    HW232120   2.482   6.839   2.309 -0.0246  1.5476 -0.5915
 8762SOL     OW32121   5.981   7.153  10.437 -0.0322 -0.2176  0.0397
 8762SOL    HW132122   6.058   7.203  10.464  1.0281 -0.0903 -2.8428
 8762SOL    HW232123   5.912   7.219  10.427  0.0822 -0.0144  0.5816
 8763SOL     OW32124   7.564   2.482   1.210 -0.1444  0.0098 -0.7046
 8763SOL    HW132125   7.622   2.554   1.187 -1.0452  1.7496  1.9944
 8763SOL    HW232126   7.620   2.419   1.256  0.0660  0.5106 -0.2716
 8764SOL     OW32127   5.644   3.661   6.471  0.6060  0.1019 -0.0924
 8764SOL    HW132128   5.681   3.573   6.468  1.1069  0.0900  3.0606
 8764SOL    HW232129   5.715   3.719   6.443  0.4944 -0.3993 -1.4909
 8765SOL     OW32130   5.385   2.037   9.369  0.5936 -0.1480 -0.0444
 8765SOL    HW132131   5.438   2.003   9.441  2.0812  1.1513 -0.4610
 8765SOL    HW232132   5.299   2.053   9.408  0.8949 -0.9918  1.0208
 8766SOL     OW32133   9.743   3.716   5.029  0.0685  0.1391 -0.8281
 8766SOL    HW132134   9.657   3.727   5.070  0.6210  0.7405  0.2088
 8766SOL    HW232135   9.805   3.722   5.102  0.9666 -0.8607 -1.4844
 8767SOL     OW32136   0.924   5.899   2.113  0.0966 -0.8167  0.6929
 8767SOL    HW132137   0.874   5.865   2.038  1.0052  2.8459 -1.8610
 8767SOL    HW232138   1.008   5.854   2.107  0.3066 -0.3030 -0.8464
 8768SOL     OW32139   5.942   3.025   8.652 -0.1447  0.7043 -0.2212
 8768SOL    HW132140   6.010   3.018   8.719  0.8256  1.1039 -1.1385
 8768SOL    HW232141   5.877   2.959   8.677  0.1510  0.9000  1.1445
 8769SOL     OW32142   0.513   1.950   8.615  0.5047  0.1765  0.0716
 8769SOL    HW132143   0.584   1.930   8.554 -0.1276 -0.6275 -0.4325
 8769SOL    HW232144   0.557   1.964   8.699  1.4496  1.9765 -0.6704
 8770SOL     OW32145   1.452   0.271   2.415  0.1117 -0.2687  0.0536
 8770SOL    HW132146   1.461   0.190   2.365 -0.9369  0.8163 -2.0094
 8770SOL    HW232147   1.520   0.329   2.380 -1.6002  1.0243 -1.2677
 8771SOL     OW32148   4.452   3.467   4.306  0.1298 -0.0769  0.1974
 8771SOL    HW132149   4.432   3.399   4.370  1.1227  0.7641  1.4483
 8771SOL    HW232150   4.406   3.545   4.338  0.4690  0.3025 -0.2261
 8772SOL     OW32151   9.759   1.989   2.398 -0.1874 -0.5302 -0.2572
 8772SOL    HW132152   9.702   1.954   2.467 -1.7645  1.9863 -0.1567
 8772SOL    HW232153   9.820   2.046   2.445 -0.9280  0.7802 -0.8306
 8773SOL     OW32154   0.904   5.887   8.989 -0.6299  0.2177 -0.2632
 8773SOL    HW132155   0.835   5.929   9.039  1.6518  2.1742  1.4586
 8773SOL    HW232156   0.957   5.959   8.955  1.5167 -1.1956 -0.1273
 8774SOL     OW32157   3.089   7.504   8.732  0.0912 -0.3618  0.5136
 8774SOL    HW132158   3.079   7.597   8.754  1.3286 -0.6497  2.5525
 8774SOL    HW232159   3.032   7.459   8.793  1.3528 -1.0476  1.2336
 8775SOL     OW32160   8.652   8.685   3.508 -0.6271  0.1043  0.4286
 8775SOL    HW132161   8.640   8.680   3.414  0.5220 -0.6826  0.2962
 8775SOL    HW232162   8.569   8.654   3.545 -0.9874  0.1701 -0.3171
 8776SOL     OW32163   5.641  10.102   9.016  0.4215 -0.3898 -0.2653
 8776SOL    HW132164   5.551  10.123   9.043  0.8683  0.2546  0.7962
 8776SOL    HW232165   5.645  10.006   9.020  0.0756 -0.3839  0.7426
 8777SOL     OW32166   0.149   5.449   5.153 -0.1985 -0.9495 -0.0504
 8777SOL    HW132167   0.179   5.519   5.211 -2.2627 -0.5945  0.6939
 8777SOL    HW232168   0.175   5.368   5.198 -0.3655 -0.6562  0.5896
 8778SOL     OW32169   8.574   8.504  10.917 -0.3356 -0.5334 -0.0576
 8778SOL    HW132170   8.498   8.533  10.865 -1.6192 -1.4679  1.2233
 8778SOL    HW232171   8.644   8.494  10.852 -0.4110  3.0609 -0.9291
 8779SOL     OW32172   9.491   8.127   5.593  0.1477 -0.0558  0.1124
 8779SOL    HW132173   9.447   8.042   5.605 -1.7301  0.5367 -1.8503
 8779SOL    HW232174   9.419   8.190   5.595  1.4454  1.4391  0.8655
 8780SOL     OW32175   2.253   5.288   8.803 -0.9003 -0.1118 -0.2902
 8780SOL    HW132176   2.280   5.369   8.760  1.0637 -0.2779  0.5267
 8780SOL    HW232177   2.277   5.219   8.741  0.3698 -0.2413  0.3170
 8781SOL     OW32178   6.424   8.796   2.502  0.8916 -0.2985 -0.2707
 8781SOL    HW132179   6.433   8.887   2.531 -0.7122  0.2412 -1.3130
 8781SOL    HW232180   6.425   8.801   2.406 -0.7366 -1.1688 -0.3649
 8782SOL     OW32181   8.748   4.072   0.912 -0.1157 -0.1528  0.6108
 8782SOL    HW132182   8.805   4.065   0.836 -0.8963  0.5688 -0.0618
 8782SOL    HW232183   8.697   3.992   0.912  0.4346 -0.5100  0.8427
 8783SOL     OW32184   0.512   6.248   5.087 -0.1929 -0.3592 -0.1974
 8783SOL    HW132185   0.567   6.229   5.011  0.0857  2.3677 -0.7855
 8783SOL    HW232186   0.422   6.244   5.053 -0.1198 -0.1472 -0.4190
 8784SOL     OW32187   3.514   7.788   5.314  0.3945 -0.2243 -0.2712
 8784SOL    HW132188   3.420   7.769   5.305  0.3473  0.2385 -0.8872
 8784SOL    HW232189   3.532   7.850   5.243  0.9931  0.3157  0.3302
 8785SOL     OW32190   9.325   0.378   5.048 -0.3922  0.2773  0.3801
 8785SOL    HW132191   9.314   0.447   4.983 -1.4794  0.4085  0.6825
 8785SOL    HW232192   9.241   0.375   5.094 -0.3534 -1.2243  0.3970
 8786SOL     OW32193   2.295   4.873   5.675  0.0991 -0.1708 -0.3826
 8786SOL    HW132194   2.292   4.965   5.647 -1.4239 -0.7732 -2.4345
 8786SOL    HW232195   2.255   4.872   5.761  1.0928  1.2095  0.1326
 8787SOL     OW32196   3.344   3.974   7.365 -0.3072 -0.2867 -0.1159
 8787SOL    HW132197   3.439   3.991   7.365 -0.4905  0.9227  0.8602
 8787SOL    HW232198   3.330   3.920   7.443 -0.4698 -0.0155  0.0466
 8788SOL     OW32199   6.562   4.331   2.110 -0.1006  0.0383  0.1283
 8788SOL    HW132200   6.511   4.395   2.061 -0.9316  0.0994  1.0486
 8788SOL    HW232201   6.497   4.272   2.148  0.6119 -0.9874 -0.1692
 8789SOL     OW32202   4.720   9.728   4.860 -0.0239  0.4042 -0.6404
 8789SOL    HW132203   4.669   9.650   4.881 -0.8810  0.9421 -0.6762
 8789SOL    HW232204   4.763   9.752   4.942  0.0427  0.0394 -0.5696
 8790SOL     OW32205   7.361   8.066   0.017 -0.3121 -0.4741  0.1899
 8790SOL    HW132206   7.295   8.019   0.067 -0.3002 -1.5050 -0.7302
 8790SOL    HW232207   7.444   8.046   0.062 -0.3368 -1.1559 -0.0621
 8791SOL     OW32208   8.718   2.990   4.363  0.0355  0.2699 -0.3887
 8791SOL    HW132209   8.633   2.970   4.402  0.6768 -0.7284  0.5361
 8791SOL    HW232210   8.703   2.981   4.268 -1.3128  1.8842 -0.3837
 8792SOL     OW32211   4.862   1.497   7.814 -0.5420  0.1819 -0.0977
 8792SOL    HW132212   4.868   1.425   7.877 -1.7579 -0.3414 -0.5580
 8792SOL    HW232213   4.953   1.523   7.800 -0.0883 -1.1217  0.2300
 8793SOL     OW32214   9.296   3.600   1.658  0.0280  0.4408  0.4051
 8793SOL    HW132215   9.320   3.650   1.735 -3.2482 -0.6510  2.3248
 8793SOL    HW232216   9.203   3.618   1.645 -0.3342 -2.0669 -1.2023
 8794SOL     OW32217   5.189   5.425   1.056  0.6078 -0.1356 -0.0587
 8794SOL    HW132218   5.108   5.470   1.035  1.1557  0.3164 -1.3034
 8794SOL    HW232219   5.171   5.380   1.138 -0.7320  0.3643 -0.0570
 8795SOL     OW32220   5.881   9.730   3.828  0.0307  0.2642  0.4692
 8795SOL    HW132221   5.908   9.781   3.752  0.2149  0.8563  0.9249
 8795SOL    HW232222   5.797   9.768   3.854 -2.0257 -2.3690 -1.7070
 8796SOL     OW32223   2.021   6.444   1.233  0.5874  0.1906 -0.3615
 8796SOL    HW132224   2.108   6.448   1.192  1.0532 -0.3624  0.5216
 8796SOL    HW232225   2.040   6.432   1.327 -0.3806 -3.0842 -0.4565
 8797SOL     OW32226   3.010   2.921   1.310 -0.3743  0.1027  0.2236
 8797SOL    HW132227   2.972   2.951   1.228  0.8428 -0.4597 -0.5733
 8797SOL    HW232228   2.965   2.839   1.330 -0.1313 -0.1601 -0.3010
 8798SOL     OW32229   0.909   6.226   3.805  0.1819 -0.3907 -0.5881
 8798SOL    HW132230   0.893   6.138   3.770  0.4814 -0.6479 -0.0889
 8798SOL    HW232231   0.834   6.244   3.861 -0.9588  0.5534 -2.3416
 8799SOL     OW32232   6.350   0.568   7.297  0.6760  0.1937 -0.2851
 8799SOL    HW132233   6.257   0.582   7.313  0.2616 -1.5593 -0.8961
 8799SOL    HW232234   6.366   0.605   7.210  0.9868  2.0364  0.5050
 8800SOL     OW32235   3.266  10.359  10.681 -0.1883  0.0299 -0.1497
 8800SOL    HW132236   3.348  10.346  10.729 -0.1258 -0.7649 -0.4621
 8800SOL    HW232237   3.215  10.418  10.737 -0.4949 -1.5872  1.3646
 8801SOL     OW32238   4.251   0.332   5.540 -0.1762 -0.0268 -0.1973
 8801SOL    HW132239   4.162   0.297   5.542 -0.5022  0.7856  1.1979
 8801SOL    HW232240   4.273   0.336   5.447 -0.8049 -2.1509 -0.4941
 8802SOL     OW32241   2.847   5.555   7.528  0.0660 -0.2843 -0.5098
 8802SOL    HW132242   2.756   5.573   7.555  0.3216  0.2556  0.0060
 8802SOL    HW232243   2.892   5.533   7.609  0.3310 -0.8597 -0.8113
 8803SOL     OW32244   3.466   8.327   2.030  0.4090  0.4533  0.4083
 8803SOL    HW132245   3.488   8.237   2.055  0.8710  0.8716  1.5523
 8803SOL    HW232246   3.533   8.350   1.965 -0.7781 -0.6244 -1.2780
 8804SOL     OW32247   0.156   2.222  10.895 -0.2551 -0.1261  0.9175
 8804SOL    HW132248   0.210   2.171  10.835 -0.4780 -0.1062  0.6981
 8804SOL    HW232249   0.080   2.166  10.911 -1.3581  0.8364 -0.6952
 8805SOL     OW32250   5.627   1.458   3.348 -0.8099  0.4797  0.7502
 8805SOL    HW132251   5.652   1.424   3.434  0.7711 -1.1966 -0.2906
 8805SOL    HW232252   5.606   1.380   3.297 -0.8099  1.3733 -0.6587
 8806SOL     OW32253   1.277   0.943   7.063  0.1832  0.7059  0.2648
 8806SOL    HW132254   1.343   0.992   7.015  1.3399 -0.7060  0.3398
 8806SOL    HW232255   1.283   0.854   7.028 -0.9984  0.3159  0.9751
 8807SOL     OW32256   5.897   5.475   4.774  0.4010 -0.7623  0.9926
 8807SOL    HW132257   5.875   5.420   4.850  1.1332 -1.9372  0.3774
 8807SOL    HW232258   5.817   5.477   4.722  0.7078 -2.2548  0.4293
 8808SOL     OW32259   4.494   7.730   6.656  0.1458 -0.0847  1.0354
 8808SOL    HW132260   4.459   7.818   6.667  0.0078  0.2862 -1.7665
 8808SOL    HW232261   4.416   7.674   6.652 -0.0427  0.2478 -1.2626
 8809SOL     OW32262   3.404   2.195   0.598 -0.0481 -0.6379 -0.7750
 8809SOL    HW132263   3.392   2.122   0.537 -0.1407 -1.6482  0.4142
 8809SOL    HW232264   3.470   2.164   0.660 -0.5354  0.0494  0.1086
 8810SOL     OW32265   0.653   0.724   3.310 -0.3635  0.0061 -0.2541
 8810SOL    HW132266   0.611   0.690   3.231  1.3814 -2.4443 -0.2371
 8810SOL    HW232267   0.591   0.705   3.380 -1.3801  1.0709 -0.8337
 8811SOL     OW32268   5.703   6.931   0.742  0.1828 -0.2149  0.0223
 8811SOL    HW132269   5.763   6.859   0.761 -1.1014 -1.5275 -0.6925
 8811SOL    HW232270   5.630   6.890   0.696 -1.4333  1.2504  1.1247
 8812SOL     OW32271   6.898   9.126   9.068 -0.0611  0.1130  0.1488
 8812SOL    HW132272   6.894   9.151   9.160 -1.5276 -1.0716  0.4483
 8812SOL    HW232273   6.830   9.179   9.026 -0.9898 -1.0093  0.1988
 8813SOL     OW32274   5.086  10.218   2.666 -0.2117 -0.4738 -0.1761
 8813SOL    HW132275   5.085  10.295   2.723  0.7088 -0.3846 -0.2715
 8813SOL    HW232276   5.034  10.153   2.713  0.0499 -0.2094  0.4865
 8814SOL     OW32277   8.150   2.566   8.001 -0.6992  0.3529 -0.8329
 8814SOL    HW132278   8.198   2.507   7.943 -0.3123 -0.3230  0.1445
 8814SOL    HW232279   8.173   2.536   8.089  1.3405  3.3487 -0.1978
 8815SOL     OW32280   4.542   5.188   9.651  0.0591  0.1226 -0.1987
 8815SOL    HW132281   4.603   5.236   9.706 -0.8710  0.8496  0.2244
 8815SOL    HW232282   4.586   5.104   9.634  0.0322 -0.4704  2.3571
 8816SOL     OW32283   4.182   3.783   4.284 -0.2925  0.2815  0.3717
 8816SOL    HW132284   4.202   3.877   4.282  0.0680  0.2406  1.3811
 8816SOL    HW232285   4.235   3.746   4.214  2.1228  0.4078  1.9958
 8817SOL     OW32286   6.843   6.019  10.117  0.9831  0.7246 -0.2224
 8817SOL    HW132287   6.809   5.974  10.195  0.6187  0.7904 -0.3390
 8817SOL    HW232288   6.837   5.954  10.047  0.8381  0.8256 -0.3032
 8818SOL     OW32289  10.192  10.173   7.164 -0.2542 -1.0732  0.1032
 8818SOL    HW132290  10.218  10.083   7.141 -0.5659 -0.9116 -0.9379
 8818SOL    HW232291  10.142  10.203   7.088  0.4857  0.2487  0.1145
 8819SOL     OW32292   2.314   9.797   4.586  0.7653 -0.1952 -0.0222
 8819SOL    HW132293   2.272   9.730   4.532  0.0679 -0.3744  0.7184
 8819SOL    HW232294   2.306   9.877   4.535  1.5465 -0.6518 -0.8904
 8820SOL     OW32295   6.118   0.844   6.221 -0.4883 -0.0906 -0.4948
 8820SOL    HW132296   6.164   0.905   6.164 -0.1550  0.1328  0.0060
 8820SOL    HW232297   6.036   0.825   6.175 -0.8317  1.1293 -0.4248
 8821SOL     OW32298  10.802   0.999   2.069 -0.0815 -0.2672 -0.5506
 8821SOL    HW132299  10.729   0.970   2.014 -0.5605 -0.3458  0.1108
 8821SOL    HW232300  10.820   1.089   2.040 -0.2795 -0.3327 -0.8804
 8822SOL     OW32301   0.574   9.412   5.464 -0.4460 -0.6310  0.2370
 8822SOL    HW132302   0.666   9.426   5.484 -0.0517  0.4484 -1.9695
 8822SOL    HW232303   0.540   9.500   5.446 -0.9411 -1.2675 -2.4765
 8823SOL     OW32304   9.292   1.332  10.672 -0.0138 -0.1063 -0.1950
 8823SOL    HW132305   9.296   1.364  10.582  0.0250  0.9226  0.1550
 8823SOL    HW232306   9.382   1.307  10.693 -0.1619 -1.0812 -0.6874
 8824SOL     OW32307   3.919   1.771   9.559  0.0603 -0.4090  0.4618
 8824SOL    HW132308   3.963   1.770   9.644  0.3978  2.3531  0.4364
 8824SOL    HW232309   3.974   1.828   9.505 -1.2868 -0.3577 -0.9222
 8825SOL     OW32310   3.637   2.859  10.453  0.5074 -0.0941 -0.1464
 8825SOL    HW132311   3.731   2.851  10.465  0.5311 -1.5781 -1.0279
 8825SOL    HW232312   3.624   2.852  10.358 -0.4149  1.0706 -0.1309
 8826SOL     OW32313   9.002  10.763   7.403  0.4444  0.0742 -0.1861
 8826SOL    HW132314   9.067  10.717   7.351 -0.3696 -1.2126 -0.0867
 8826SOL    HW232315   8.919  10.721   7.382 -0.3028  1.3378  0.0971
 8827SOL     OW32316   9.131   4.889   6.597  0.1387 -0.3737  0.1631
 8827SOL    HW132317   9.130   4.919   6.688 -0.0285 -0.5375  0.2165
 8827SOL    HW232318   9.043   4.854   6.583 -0.1094  0.4205 -0.3228
 8828SOL     OW32319   4.931   4.457   7.510  0.2508 -0.7006 -0.1061
 8828SOL    HW132320   5.013   4.498   7.540  1.4124 -1.8155 -1.6384
 8828SOL    HW232321   4.935   4.368   7.545  0.1515 -1.0482 -0.9750
 8829SOL     OW32322   9.040   3.835   4.019 -0.1373  0.1490  0.1843
 8829SOL    HW132323   9.049   3.888   3.940 -0.5771  1.0216  0.7081
 8829SOL    HW232324   9.118   3.855   4.071 -1.3605  2.0487  1.3946
 8830SOL     OW32325   3.248   3.199   1.240 -0.1844  0.0423 -0.0705
 8830SOL    HW132326   3.254   3.126   1.301 -1.4956 -0.5408 -0.6040
 8830SOL    HW232327   3.172   3.249   1.269 -1.3200 -0.6900 -1.6602
 8831SOL     OW32328   2.637   4.909   4.339 -0.4845  0.1775 -0.7941
 8831SOL    HW132329   2.625   5.003   4.355  1.1832  0.6432 -2.0175
 8831SOL    HW232330   2.580   4.892   4.264  0.5413  0.6498 -1.7119
 8832SOL     OW32331   5.516   0.916  10.507 -0.1858 -0.6360  0.3781
 8832SOL    HW132332   5.505   1.007  10.534 -1.4561 -1.0266  1.2935
 8832SOL    HW232333   5.553   0.873  10.584  2.7028 -0.4869 -0.8094
 8833SOL     OW32334   5.643   4.228   9.028  0.5552  0.4542  0.6812
 8833SOL    HW132335   5.720   4.280   9.052  0.7283 -0.6711  2.9147
 8833SOL    HW232336   5.589   4.227   9.108 -1.1595  0.1507 -0.4270
 8834SOL     OW32337   0.573   6.058   2.933 -0.6636  0.1980 -0.2682
 8834SOL    HW132338   0.481   6.085   2.937 -0.7201 -0.1807  1.1636
 8834SOL    HW232339   0.608   6.077   3.020  0.1328 -1.3877 -0.2171
 8835SOL     OW32340   3.823   9.905   2.114 -0.6213 -0.7475 -0.5483
 8835SOL    HW132341   3.872   9.829   2.081 -2.0231 -1.3900 -1.2340
 8835SOL    HW232342   3.853   9.978   2.060 -0.8774 -1.2588 -1.4084
 8836SOL     OW32343   7.015  10.341   6.334 -0.2838  0.1930 -0.4935
 8836SOL    HW132344   6.991  10.330   6.242  0.2028 -0.1179 -0.5821
 8836SOL    HW232345   7.015  10.253   6.371  0.8145  0.1702 -0.5186
 8837SOL     OW32346   3.151   4.781   9.765 -0.5035 -0.3749 -0.1833
 8837SOL    HW132347   3.132   4.868   9.731  0.2231  0.2444  0.8988
 8837SOL    HW232348   3.245   4.783   9.783 -0.1677 -1.9114 -1.5327
 8838SOL     OW32349   2.622   7.189   0.765  0.2946  0.3177  0.3297
 8838SOL    HW132350   2.616   7.248   0.840  1.3766 -0.3993  1.0122
 8838SOL    HW232351   2.637   7.246   0.690  0.9745  0.9362  0.9258
 8839SOL     OW32352   1.549   9.103   0.711  0.3954 -0.2929 -0.0932
 8839SOL    HW132353   1.635   9.071   0.684  0.9977  2.3073 -1.6071
 8839SOL    HW232354   1.568   9.175   0.771 -0.8211 -0.9936  1.1802
 8840SOL     OW32355   8.785   5.994  10.548  0.4122 -0.4161 -0.1768
 8840SOL    HW132356   8.795   5.912  10.499  1.7503  0.3867 -1.3326
 8840SOL    HW232357   8.751   5.967  10.633 -0.2048 -2.0531 -0.8857
 8841SOL     OW32358   5.936   5.064   7.340 -0.2755  0.2349  0.3750
 8841SOL    HW132359   6.007   5.121   7.310 -0.5760  0.0855 -0.6774
 8841SOL    HW232360   5.863   5.124   7.354 -0.6608  0.1166 -0.9553
 8842SOL     OW32361   5.555   1.510   8.398 -0.0258 -0.0898 -0.2126
 8842SOL    HW132362   5.497   1.440   8.427  0.1657 -0.3427 -0.4265
 8842SOL    HW232363   5.594   1.544   8.478 -0.7154  0.3038 -0.0389
 8843SOL     OW32364   8.194   4.630   9.939 -0.3928 -0.1308  0.3787
 8843SOL    HW132365   8.214   4.579  10.017  3.9110 -2.4407 -1.8767
 8843SOL    HW232366   8.163   4.565   9.875 -3.1843  1.5897 -0.2060
 8844SOL     OW32367   2.228   2.989   9.669 -0.2915 -0.3150  0.1902
 8844SOL    HW132368   2.143   2.978   9.712 -0.2373 -1.4530  0.0402
 8844SOL    HW232369   2.208   2.983   9.576 -0.0783 -0.4126  0.1504
 8845SOL     OW32370   2.381   5.690   5.947  0.1808 -0.3022  0.1098
 8845SOL    HW132371   2.396   5.612   5.894  2.0923  0.5322 -0.6680
 8845SOL    HW232372   2.401   5.662   6.037 -1.2248 -1.2238  0.1641
 8846SOL     OW32373   2.480   4.803   4.125  0.1240  0.0409  0.0677
 8846SOL    HW132374   2.391   4.805   4.090 -0.2677  2.0043  1.0519
 8846SOL    HW232375   2.484   4.722   4.175 -0.1493 -1.4930 -2.2406
 8847SOL     OW32376   7.767   1.320   2.312  0.0945  0.0159  0.1823
 8847SOL    HW132377   7.675   1.342   2.302  0.3060  0.2810 -1.5348
 8847SOL    HW232378   7.792   1.279   2.229  1.4158 -0.4539  0.7718
 8848SOL     OW32379   9.892   8.180   2.747  0.3905 -0.5647  0.2281
 8848SOL    HW132380   9.889   8.115   2.677  1.1602  0.6225 -0.9554
 8848SOL    HW232381   9.801   8.200   2.766  0.1718 -1.0461 -0.2945
 8849SOL     OW32382   1.163   2.776   9.284 -0.1200  0.4545  0.1315
 8849SOL    HW132383   1.079   2.755   9.325  1.1566 -2.1767  1.6809
 8849SOL    HW232384   1.186   2.697   9.234  1.1183  1.3528 -0.7769
 8850SOL     OW32385   5.102   2.927   7.104 -0.4742 -0.2497  0.3350
 8850SOL    HW132386   5.158   2.950   7.030 -1.9599  1.8225 -0.2661
 8850SOL    HW232387   5.065   2.842   7.082 -0.6897  0.2240 -1.2099
 8851SOL     OW32388   9.247   4.893   2.545  0.2812 -0.3746 -0.4315
 8851SOL    HW132389   9.218   4.984   2.546  0.2936 -0.3685 -0.5406
 8851SOL    HW232390   9.287   4.879   2.631  2.7889  0.5483 -1.3385
 8852SOL     OW32391   4.634   8.504   9.619 -0.1449  0.0967 -0.7886
 8852SOL    HW132392   4.558   8.513   9.677 -0.2021 -0.1072 -0.8308
 8852SOL    HW232393   4.615   8.562   9.546 -1.8373 -2.3269 -2.4663
 8853SOL     OW32394   5.758   4.651   6.180  0.2277  0.4502  0.6671
 8853SOL    HW132395   5.820   4.723   6.175 -1.6340  2.0614 -0.5685
 8853SOL    HW232396   5.672   4.692   6.177 -0.9686 -1.6835  2.4576
 8854SOL     OW32397   7.158   0.132   9.579 -0.3498 -0.6977  0.3928
 8854SOL    HW132398   7.093   0.103   9.643  0.4682 -2.2818  0.5568
 8854SOL    HW232399   7.219   0.186   9.629 -0.8237 -0.2682  0.5102
 8855SOL     OW32400   6.478   4.680   1.456  0.6911  0.5514  0.0941
 8855SOL    HW132401   6.390   4.650   1.434  0.9301  0.3013 -0.5401
 8855SOL    HW232402   6.472   4.705   1.548  0.3406 -0.8792  0.4828
 8856SOL     OW32403  10.370   7.921   1.895  0.2070 -0.2175 -0.3664
 8856SOL    HW132404  10.373   7.977   1.973  1.2864 -0.4715 -0.2179
 8856SOL    HW232405  10.450   7.942   1.847  0.6769 -1.6821 -0.2594
 8857SOL     OW32406   2.742   7.936   1.417  0.0322  0.1529  0.4548
 8857SOL    HW132407   2.648   7.940   1.397  0.1413  0.1168 -0.0947
 8857SOL    HW232408   2.753   7.993   1.492 -0.3836  0.4093  0.3255
 8858SOL     OW32409   0.505   0.400   1.033  0.1468 -0.3923 -0.5122
 8858SOL    HW132410   0.552   0.419   0.952 -0.2131 -1.5768 -1.0185
 8858SOL    HW232411   0.458   0.319   1.016 -3.5438  1.5399 -0.6826
 8859SOL     OW32412   5.206   8.817   1.383 -0.0919  0.3588 -0.0797
 8859SOL    HW132413   5.193   8.724   1.364  0.2622  0.0935  0.8980
 8859SOL    HW232414   5.118   8.848   1.406 -0.0247 -0.0318  0.7621
 8860SOL     OW32415   2.956   1.586   6.329  0.2853 -0.0778 -0.2213
 8860SOL    HW132416   2.975   1.504   6.284  1.6405 -0.4249  0.8924
 8860SOL    HW232417   2.885   1.625   6.279  1.3602 -0.6627 -2.3378
 8861SOL     OW32418   1.472   0.440   3.527 -0.3361 -0.0283 -0.2823
 8861SOL    HW132419   1.380   0.429   3.551  0.1736 -0.2092  1.7639
 8861SOL    HW232420   1.474   0.521   3.475 -1.4669  0.7266  0.8050
 8862SOL     OW32421  10.059   0.460  10.000 -0.3910 -0.2494  0.1665
 8862SOL    HW132422  10.092   0.393  10.059 -3.0154 -0.2412  1.8413
 8862SOL    HW232423  10.078   0.428   9.912  3.2779 -0.4663  0.9074
 8863SOL     OW32424  10.534   6.980   6.763 -0.6194  0.7074 -0.1894
 8863SOL    HW132425  10.591   6.958   6.690 -0.0301 -0.4666  0.5915
 8863SOL    HW232426  10.450   6.938   6.742 -1.1737  2.2751 -1.2450
 8864SOL     OW32427   8.212   1.676   4.674 -0.0112  0.3458  0.3239
 8864SOL    HW132428   8.180   1.586   4.683 -1.6717  0.9125  0.4104
 8864SOL    HW232429   8.210   1.711   4.763 -2.4986  1.4279 -0.0666
 8865SOL     OW32430   7.285   6.540   3.390  0.5466 -0.0766  0.3996
 8865SOL    HW132431   7.373   6.550   3.426  1.1217 -0.6330 -0.7836
 8865SOL    HW232432   7.284   6.451   3.354 -0.2945  0.1346 -0.1341
 8866SOL     OW32433   7.743   5.045   1.956 -0.1764 -0.0453  0.1126
 8866SOL    HW132434   7.711   5.094   2.032  1.2285 -1.0293  1.4083
 8866SOL    HW232435   7.836   5.030   1.975 -0.2385 -1.9817 -0.8768
 8867SOL     OW32436   4.627   0.317  10.238  0.0104 -0.0679  0.1700
 8867SOL    HW132437   4.559   0.338  10.174  0.1445  0.0521  0.0654
 8867SOL    HW232438   4.678   0.398  10.246 -0.3239  0.0771  0.8210
 8868SOL     OW32439   9.506   7.249   9.474 -0.2482  0.1846 -0.1374
 8868SOL    HW132440   9.512   7.213   9.563  1.6561  1.3222  0.2663
 8868SOL    HW232441   9.416   7.233   9.447 -0.6988 -0.7549  1.7601
 8869SOL     OW32442   7.756   8.476   9.311 -0.0168 -0.5182 -0.2288
 8869SOL    HW132443   7.728   8.543   9.374 -0.0066  0.2048 -0.9784
 8869SOL    HW232444   7.851   8.487   9.306 -0.0687 -0.2767 -0.6992
 8870SOL     OW32445   4.265   2.835   3.428 -0.7186 -0.1039  0.2612
 8870SOL    HW132446   4.266   2.836   3.333  2.2943 -0.4419  0.1904
 8870SOL    HW232447   4.220   2.915   3.453  1.1691  1.6375 -1.5412
 8871SOL     OW32448   4.571   1.579   9.364  0.3389 -0.4621 -0.1140
 8871SOL    HW132449   4.589   1.485   9.368 -1.9839 -0.9363  0.5735
 8871SOL    HW232450   4.544   1.601   9.453 -1.4016  0.3350 -0.8063
 8872SOL     OW32451   6.451   5.437   7.381 -0.1781  0.1262  0.0906
 8872SOL    HW132452   6.370   5.486   7.362  0.1777  0.4947 -0.5375
 8872SOL    HW232453   6.514   5.505   7.406  0.6303  0.1402 -1.8365
 8873SOL     OW32454   1.891  10.710   1.300  0.1717  0.0206 -0.2654
 8873SOL    HW132455   1.984  10.715   1.279  0.3256  1.6237  0.6707
 8873SOL    HW232456   1.875  10.617   1.316  1.7754 -0.1959  0.2348
 8874SOL     OW32457   7.561   2.438   4.568 -0.3138 -0.2220  0.1639
 8874SOL    HW132458   7.576   2.508   4.504 -1.1536  1.2319  1.4613
 8874SOL    HW232459   7.495   2.382   4.528  3.8649 -3.3855 -3.1070
 8875SOL     OW32460   5.214   3.705   2.495  0.2334 -0.1224 -0.0471
 8875SOL    HW132461   5.132   3.686   2.449 -0.3649  1.5167  0.2758
 8875SOL    HW232462   5.206   3.796   2.523  2.3366  0.2027 -0.3139
 8876SOL     OW32463   9.602   5.707   9.829 -0.1768 -0.0581 -0.1604
 8876SOL    HW132464   9.528   5.670   9.780  0.2461  1.4115 -1.9982
 8876SOL    HW232465   9.597   5.801   9.813  1.5934  0.1634  0.4061
 8877SOL     OW32466  10.747   3.197   9.795 -0.4959 -0.5030  0.2677
 8877SOL    HW132467  10.687   3.270   9.813 -1.7727 -1.7300  1.1754
 8877SOL    HW232468  10.805   3.195   9.872 -0.2703 -0.2843  0.1069
 8878SOL     OW32469   1.567   5.462   2.082  0.2954  0.2533 -0.4364
 8878SOL    HW132470   1.610   5.425   2.005 -0.4292  1.1434 -1.2885
 8878SOL    HW232471   1.635   5.516   2.123  1.3734 -1.9317  0.8416
 8879SOL     OW32472   7.188   9.444   4.287 -0.3230 -0.2856  0.7518
 8879SOL    HW132473   7.231   9.386   4.225 -0.1240  0.2359  0.3977
 8879SOL    HW232474   7.138   9.385   4.344  0.6293 -0.8860  1.0009
 8880SOL     OW32475   8.215   3.793   5.103 -0.1659 -0.1379  0.3515
 8880SOL    HW132476   8.166   3.746   5.170 -0.8778 -2.8494 -1.8517
 8880SOL    HW232477   8.151   3.812   5.035  0.4881  2.7001  0.4251
 8881SOL     OW32478   8.124   9.797   8.130  0.0299 -0.2820  0.5819
 8881SOL    HW132479   8.197   9.855   8.152  1.4475 -0.7814 -2.2475
 8881SOL    HW232480   8.084   9.837   8.053 -0.0172 -2.1394 -0.4174
 8882SOL     OW32481   1.932   9.710   1.594 -0.2665  0.3046  0.1155
 8882SOL    HW132482   1.852   9.718   1.647  0.1440 -0.9277  0.9842
 8882SOL    HW232483   1.989   9.653   1.646  1.6215  1.9991  0.0254
 8883SOL     OW32484   4.322   4.067   5.044  0.3641 -0.0704  0.4247
 8883SOL    HW132485   4.364   4.114   5.115 -0.1177 -0.2185  0.8120
 8883SOL    HW232486   4.394   4.034   4.990  0.7197  1.7925 -0.3164
 8884SOL     OW32487   8.811   2.723   6.918  0.4539 -0.1351 -0.3050
 8884SOL    HW132488   8.860   2.647   6.885  0.7026  0.3478 -1.0531
 8884SOL    HW232489   8.864   2.753   6.993  0.3912 -0.6472 -0.0453
 8885SOL     OW32490   3.834   0.403   4.235 -0.2686  0.0359  0.2797
 8885SOL    HW132491   3.813   0.311   4.221  0.8753 -0.2230  0.1436
 8885SOL    HW232492   3.762   0.436   4.288 -0.7558 -0.9090  0.2343
 8886SOL     OW32493   1.506   0.835   3.662 -0.6757  0.2953  0.0232
 8886SOL    HW132494   1.471   0.829   3.573 -0.4568 -0.9339  0.0085
 8886SOL    HW232495   1.597   0.808   3.654 -0.7627 -0.2018  0.6834
 8887SOL     OW32496  10.511   2.909   7.571  0.0052  0.1799  0.2628
 8887SOL    HW132497  10.535   2.846   7.639 -0.6052  0.1565  0.4623
 8887SOL    HW232498  10.586   2.910   7.512 -1.3550 -3.5744 -1.8716
 8888SOL     OW32499   5.316   8.528   8.789 -0.4948  0.0474  0.1448
 8888SOL    HW132500   5.393   8.479   8.761 -0.4794 -0.5538  1.1964
 8888SOL    HW232501   5.248   8.461   8.801 -0.5650  0.2974  1.2790
 8889SOL     OW32502   7.048   2.981   8.027  0.4388  0.7037  0.0461
 8889SOL    HW132503   6.999   2.961   7.947 -0.7878  1.7974  0.5054
 8889SOL    HW232504   6.987   2.963   8.098  1.1737  0.7522  0.7028
 8890SOL     OW32505   5.749   0.580   4.950 -0.3660  0.2847  0.2056
 8890SOL    HW132506   5.676   0.569   4.890 -1.8841 -1.4681  2.2305
 8890SOL    HW232507   5.784   0.492   4.963  1.4430  0.9443  0.1162
 8891SOL     OW32508   3.580   9.587   9.631  0.2539 -0.2279 -0.7449
 8891SOL    HW132509   3.563   9.653   9.563 -1.0360  1.4189  1.0572
 8891SOL    HW232510   3.494   9.548   9.648  1.1499 -3.1936 -2.4609
 8892SOL     OW32511   3.280   7.929   1.306  0.5132 -0.0380  0.5148
 8892SOL    HW132512   3.313   7.844   1.335  0.6302  0.0007  0.4971
 8892SOL    HW232513   3.310   7.990   1.374 -0.5422 -0.1763  1.1384
 8893SOL     OW32514   1.131   2.754   3.295 -0.1665  0.6494  0.0643
 8893SOL    HW132515   1.043   2.722   3.278  0.0272  0.6602 -1.0339
 8893SOL    HW232516   1.187   2.707   3.232  1.1414 -1.7036  2.7291
 8894SOL     OW32517   0.167   3.145   0.290  0.0378  0.0944 -0.5724
 8894SOL    HW132518   0.109   3.165   0.216  0.0302  1.7988 -0.1621
 8894SOL    HW232519   0.245   3.197   0.272  0.0694  0.4571  0.5640
 8895SOL     OW32520   5.265   2.804   2.964  0.2556 -0.2569 -0.1479
 8895SOL    HW132521   5.351   2.841   2.944 -0.2644  0.0834 -1.9938
 8895SOL    HW232522   5.209   2.881   2.978  0.1475 -0.4616  0.5312
 8896SOL     OW32523   5.803   4.775   6.456  0.4093  0.4903 -0.1743
 8896SOL    HW132524   5.763   4.688   6.454  0.9016  0.2661 -0.5121
 8896SOL    HW232525   5.846   4.779   6.541 -0.7662  0.9429  0.4212
 8897SOL     OW32526   1.563   7.479   2.940 -0.2341  0.0367 -0.0558
 8897SOL    HW132527   1.597   7.528   2.865 -0.6796 -1.0619 -1.0001
 8897SOL    HW232528   1.584   7.388   2.921 -1.7898 -0.4423  0.3791
 8898SOL     OW32529   3.462   6.944   0.869  0.3250 -0.1512 -0.0345
 8898SOL    HW132530   3.391   6.889   0.903  1.0155 -0.5108  0.8624
 8898SOL    HW232531   3.484   6.905   0.785  0.4406 -0.9368  0.3512
 8899SOL     OW32532   1.224   2.912   1.670  0.3388  0.0556 -0.0605
 8899SOL    HW132533   1.141   2.960   1.679  0.1113 -0.4342  0.5297
 8899SOL    HW232534   1.290   2.980   1.656 -0.0364  0.5153  0.3683
 8900SOL     OW32535   3.618  10.134   3.852  0.3608  0.1001  0.0988
 8900SOL    HW132536   3.525  10.137   3.829  0.7967  0.2460 -1.7609
 8900SOL    HW232537   3.664  10.157   3.772  1.9793  2.5001  1.5842
 8901SOL     OW32538   8.817   3.595   6.537 -0.4507  0.6997 -0.1365
 8901SOL    HW132539   8.809   3.628   6.447 -0.4507  2.2960  0.4189
 8901SOL    HW232540   8.900   3.631   6.568 -1.0769  1.2496  0.9300
 8902SOL     OW32541   8.945   7.245   5.867 -0.2235  0.2927  0.3680
 8902SOL    HW132542   8.873   7.190   5.836  1.0667 -1.9214  1.0631
 8902SOL    HW232543   8.990   7.273   5.787 -1.9874  1.9963 -0.0893
 8903SOL     OW32544   1.142   9.865   7.101  0.2307 -0.3448  0.3173
 8903SOL    HW132545   1.184   9.880   7.186  0.2197 -2.3958  0.7276
 8903SOL    HW232546   1.199   9.803   7.056 -2.0424 -2.9446  0.7525
 8904SOL     OW32547   7.565   4.407  10.180 -0.8737 -0.1761  0.2875
 8904SOL    HW132548   7.503   4.409  10.106  0.4764 -0.6075 -0.9030
 8904SOL    HW232549   7.509   4.403  10.257 -2.3398 -0.4154 -0.7342
 8905SOL     OW32550   7.909   5.233   9.462 -0.2480  0.2298 -0.1476
 8905SOL    HW132551   7.862   5.244   9.545 -1.4390 -0.2740 -0.7252
 8905SOL    HW232552   7.851   5.274   9.397 -0.4085 -1.3401 -1.0325
 8906SOL     OW32553   5.729   5.415   8.253 -0.1337 -0.3654  0.2142
 8906SOL    HW132554   5.731   5.482   8.321 -0.8784 -0.2103  0.0933
 8906SOL    HW232555   5.820   5.404   8.227  0.1900 -0.5866  1.3904
 8907SOL     OW32556   0.291   8.387   1.831  0.3016  0.0797 -0.3706
 8907SOL    HW132557   0.274   8.477   1.802  0.8998 -0.0711 -1.1983
 8907SOL    HW232558   0.384   8.373   1.814  0.5485 -0.2224  1.0696
 8908SOL     OW32559   3.050   6.629   0.669  0.1369  0.3857 -0.5286
 8908SOL    HW132560   3.093   6.701   0.715 -0.1135  0.6901 -0.7687
 8908SOL    HW232561   3.076   6.641   0.577  0.2006  0.0952 -0.5483
 8909SOL     OW32562   8.064   3.843   0.168 -0.4706 -0.4685  0.2395
 8909SOL    HW132563   8.070   3.871   0.260  1.5515  0.4828 -0.1296
 8909SOL    HW232564   8.120   3.766   0.163 -1.9112 -1.5437  0.1211
 8910SOL     OW32565   2.675   1.982   5.828  0.5236 -0.0424  0.5441
 8910SOL    HW132566   2.757   2.031   5.827  0.0830  0.7741 -1.5751
 8910SOL    HW232567   2.659   1.963   5.921  2.1990  1.2808  1.1549
 8911SOL     OW32568   1.484   0.543   1.258 -0.7931  0.2099 -0.1621
 8911SOL    HW132569   1.576   0.529   1.279 -1.4813 -1.0155  2.6379
 8911SOL    HW232570   1.469   0.492   1.179  0.6364 -0.8403  0.1924
 8912SOL     OW32571   3.987   5.321   5.789 -0.0480  0.2582 -0.5522
 8912SOL    HW132572   3.902   5.294   5.755 -0.1979  0.0797 -0.0303
 8912SOL    HW232573   3.976   5.325   5.884  0.2720  1.1052 -0.5388
 8913SOL     OW32574   9.608   5.993  10.143  0.3358 -0.4292  0.1111
 8913SOL    HW132575   9.581   5.904  10.120 -2.3716 -0.0816  1.5525
 8913SOL    HW232576   9.632   5.988  10.236 -0.2785  0.4212  0.3293
 8914SOL     OW32577   3.344   5.424  10.233  0.1528  0.6133 -0.4679
 8914SOL    HW132578   3.258   5.392  10.259  0.9876 -0.8728  0.6090
 8914SOL    HW232579   3.342   5.518  10.254 -0.6040  0.2506  1.2515
 8915SOL     OW32580   0.809   1.752   4.345 -0.5682  0.1330  0.8452
 8915SOL    HW132581   0.899   1.750   4.378 -1.1540 -0.6363  2.4741
 8915SOL    HW232582   0.799   1.668   4.300 -0.4024  0.3343  0.4232
 8916SOL     OW32583   2.999  10.766   9.912  0.0199  0.5312 -0.3992
 8916SOL    HW132584   3.084  10.807   9.895 -0.5970  0.9973 -2.7306
 8916SOL    HW232585   3.000  10.688   9.857  0.0745 -1.1631  1.8792
 8917SOL     OW32586   5.939  10.882   9.008 -0.1774 -0.1943 -0.2665
 8917SOL    HW132587   5.869  10.917   9.063 -0.1123  0.3475 -0.5184
 8917SOL    HW232588   5.913  10.792   8.990 -1.3028  0.2786 -1.1441
 8918SOL     OW32589   5.741   4.953   7.726  0.2535 -0.1984 -0.3866
 8918SOL    HW132590   5.802   4.942   7.653  0.8533 -2.5354  0.3755
 8918SOL    HW232591   5.796   4.980   7.800 -0.2954  1.7665 -0.6340
 8919SOL     OW32592   1.078   8.399   1.734  0.0692 -0.4341 -0.1595
 8919SOL    HW132593   1.155   8.419   1.788 -1.2103 -0.8639  1.9603
 8919SOL    HW232594   1.112   8.392   1.645  2.2929  0.4300  0.5515
 8920SOL     OW32595   6.757   5.176   5.731 -0.5350 -1.1589  0.8068
 8920SOL    HW132596   6.800   5.095   5.701 -0.6408 -1.3610  1.1961
 8920SOL    HW232597   6.823   5.244   5.720 -0.3616 -1.3405  0.7084
 8921SOL     OW32598   8.416   2.624   7.755 -0.1326 -0.6851 -0.2081
 8921SOL    HW132599   8.371   2.680   7.692 -0.4053 -1.7828 -1.0173
 8921SOL    HW232600   8.503   2.663   7.764 -0.0682 -0.5546 -1.3100
 8922SOL     OW32601   1.278   5.035   3.444 -0.4658  0.3300  0.0955
 8922SOL    HW132602   1.319   5.044   3.530  0.1099 -1.4195  0.0472
 8922SOL    HW232603   1.200   4.982   3.460 -0.6016  0.3842 -0.3748
 8923SOL     OW32604   6.338   9.165   2.467 -0.2888  0.5917  0.4691
 8923SOL    HW132605   6.397   9.116   2.525  1.5619 -0.7614 -2.3325
 8923SOL    HW232606   6.279   9.099   2.432 -1.6896  1.4699  1.1027
 8924SOL     OW32607   0.664   6.897   3.487 -0.3163  0.1475  0.6264
 8924SOL    HW132608   0.682   6.839   3.561 -0.1702  0.3742  0.7684
 8924SOL    HW232609   0.600   6.849   3.434 -0.8962  0.2558  1.2246
 8925SOL     OW32610   5.528   5.860   2.767 -0.3553  0.0968  0.8776
 8925SOL    HW132611   5.497   5.947   2.792  2.6800  1.0922  1.5752
 8925SOL    HW232612   5.538   5.865   2.672 -1.0045  0.1943  0.8068
 8926SOL     OW32613   4.358   2.914   6.006 -0.3773 -0.2392 -0.0452
 8926SOL    HW132614   4.276   2.955   6.033  0.6636 -0.0600  3.3348
 8926SOL    HW232615   4.385   2.862   6.082  1.6563 -1.9126 -1.7816
 8927SOL     OW32616   0.992   4.607   4.222  0.0149  0.3673 -0.4196
 8927SOL    HW132617   1.085   4.608   4.246  0.4337  1.1610 -1.9354
 8927SOL    HW232618   0.954   4.538   4.276  1.2762  0.6945  0.9562
 8928SOL     OW32619   2.373   1.078   6.606 -0.1296 -0.0569  0.2786
 8928SOL    HW132620   2.412   1.143   6.548  0.9413 -1.3719 -0.5414
 8928SOL    HW232621   2.284   1.068   6.573 -0.3161  0.9879  0.4282
 8929SOL     OW32622   7.724   4.823   7.664 -0.2250  0.6004  0.7214
 8929SOL    HW132623   7.798   4.762   7.669  0.5289  1.5709  1.8703
 8929SOL    HW232624   7.709   4.836   7.571  2.5069  2.0723  0.4091
 8930SOL     OW32625   1.017   1.097   3.044  0.7092  0.0997  0.2919
 8930SOL    HW132626   1.021   1.113   2.950 -1.5665  0.0003  0.1273
 8930SOL    HW232627   1.009   1.184   3.083 -1.6578  0.0560  0.0903
 8931SOL     OW32628   2.930   5.286   7.918  0.4798  0.6496  0.4852
 8931SOL    HW132629   2.913   5.200   7.956  1.7932 -0.2031 -0.7392
 8931SOL    HW232630   2.998   5.324   7.974  1.8036 -0.2511 -0.4521
 8932SOL     OW32631   6.785   3.449   0.331  0.3650 -0.5103  0.2707
 8932SOL    HW132632   6.746   3.363   0.345 -0.6626 -0.1666 -0.3748
 8932SOL    HW232633   6.794   3.456   0.236  0.4199  0.1020  0.3175
 8933SOL     OW32634   7.017   5.749   9.746  0.3675  0.1541  0.4502
 8933SOL    HW132635   6.926   5.732   9.720  0.6297 -0.6207  0.0011
 8933SOL    HW232636   7.051   5.807   9.678  0.6727 -0.8518 -0.2906
 8934SOL     OW32637   0.500  10.506   5.920 -0.2827  0.3200  0.1946
 8934SOL    HW132638   0.512  10.587   5.871 -1.2850  0.2026 -0.2608
 8934SOL    HW232639   0.485  10.439   5.853 -1.3203  0.0951  0.6396
 8935SOL     OW32640   5.100   2.773   4.298 -0.6593 -0.1072 -0.0297
 8935SOL    HW132641   5.014   2.732   4.307 -0.9420  0.7042  1.0558
 8935SOL    HW232642   5.091   2.859   4.338  0.8819 -0.3322  0.8753
 8936SOL     OW32643   7.989   3.434   8.941  0.0282 -0.2323 -0.3326
 8936SOL    HW132644   7.895   3.421   8.945  0.0269 -0.4228 -0.8604
 8936SOL    HW232645   8.002   3.528   8.956 -0.2068 -0.2803  0.1874
 8937SOL     OW32646   4.870   3.116   1.693  0.4820 -0.7375 -0.3164
 8937SOL    HW132647   4.830   3.163   1.767 -0.7640  0.6280 -1.7740
 8937SOL    HW232648   4.942   3.066   1.732 -0.6155 -0.6962  1.9238
 8938SOL     OW32649   1.644   8.482   0.567 -0.2949  0.1371  0.5638
 8938SOL    HW132650   1.686   8.565   0.545  0.7188 -0.5745 -0.2692
 8938SOL    HW232651   1.713   8.430   0.607 -0.3215 -1.0907 -0.9207
 8939SOL     OW32652   7.898   4.810   6.261 -0.1671  0.0746 -0.6196
 8939SOL    HW132653   7.834   4.880   6.272  1.0044  0.9279  1.4270
 8939SOL    HW232654   7.971   4.836   6.317  0.7334 -2.2996 -0.5975
 8940SOL     OW32655   5.028   3.765   3.382  0.0616  0.0910  0.1352
 8940SOL    HW132656   4.966   3.753   3.310  0.8924 -0.8047 -0.4603
 8940SOL    HW232657   5.083   3.687   3.379  0.4510  0.3008  1.4178
 8941SOL     OW32658   6.801   7.173   1.075 -0.1404 -0.2873  0.7591
 8941SOL    HW132659   6.797   7.231   0.999 -0.3769  0.0820  1.0522
 8941SOL    HW232660   6.894   7.151   1.083 -0.1457 -0.5341  0.2129
 8942SOL     OW32661   1.857   4.543   4.362 -0.2625  0.0376 -0.2356
 8942SOL    HW132662   1.771   4.566   4.396 -0.5735 -1.2579 -0.0956
 8942SOL    HW232663   1.919   4.587   4.420 -0.8095  0.5174 -0.0051
 8943SOL     OW32664   4.024   0.276   5.916 -0.2072 -0.5836  0.2565
 8943SOL    HW132665   4.006   0.300   6.007 -1.6975  1.0145 -0.3922
 8943SOL    HW232666   3.978   0.193   5.903 -1.6198  0.1181  0.4966
 8944SOL     OW32667   5.231   2.473   4.770 -0.1569  0.0967 -0.3700
 8944SOL    HW132668   5.197   2.548   4.722 -0.1780 -0.5317 -1.3786
 8944SOL    HW232669   5.278   2.422   4.704 -0.3711 -0.9069  0.2286
 8945SOL     OW32670   6.777   1.181   5.424 -0.2230  0.7580 -0.1430
 8945SOL    HW132671   6.683   1.168   5.411 -0.2909 -1.0558  1.7142
 8945SOL    HW232672   6.813   1.179   5.335 -1.5954 -1.8354 -0.7535
 8946SOL     OW32673   8.403   5.419   5.149  0.1746  0.2354 -0.0135
 8946SOL    HW132674   8.435   5.492   5.095 -0.1390  0.7392  0.4767
 8946SOL    HW232675   8.478   5.392   5.201 -0.3046  1.8044  1.5696
 8947SOL     OW32676  10.312  10.768   2.075  0.1616 -0.0908  0.1590
 8947SOL    HW132677  10.295  10.678   2.047  1.4019  0.4468 -2.6139
 8947SOL    HW232678  10.407  10.773   2.083 -0.0144  0.4560  2.4177
 8948SOL     OW32679   7.181   7.398   4.427  0.0017  0.1269  0.7233
 8948SOL    HW132680   7.186   7.469   4.492 -2.0532 -0.7441  1.9298
 8948SOL    HW232681   7.089   7.371   4.429  0.1393 -0.7301 -1.7494
 8949SOL     OW32682   9.233   5.689   7.069 -0.3024 -0.7113 -0.1894
 8949SOL    HW132683   9.205   5.600   7.048 -2.0614  0.3447 -2.9608
 8949SOL    HW232684   9.326   5.691   7.045  0.1136 -2.0421  1.0960
 8950SOL     OW32685   5.240   2.288   1.703  0.0874 -0.2155 -0.1865
 8950SOL    HW132686   5.267   2.367   1.749 -0.9356  0.3690 -0.5570
 8950SOL    HW232687   5.170   2.252   1.757  1.1421 -1.3758  0.4490
 8951SOL     OW32688   3.417   5.883   4.291 -0.5981  0.0977 -0.1767
 8951SOL    HW132689   3.430   5.828   4.368 -1.3038 -0.6485 -0.5795
 8951SOL    HW232690   3.323   5.879   4.273 -0.5870  1.0271 -0.5229
 8952SOL     OW32691   8.233  10.477   2.306 -0.3382  0.1280  0.3129
 8952SOL    HW132692   8.173  10.411   2.270 -0.6441 -0.2804  1.5393
 8952SOL    HW232693   8.320  10.445   2.282 -0.5681  0.7336 -1.4967
 8953SOL     OW32694   8.405   3.368   6.695  0.2758  0.4666 -0.2141
 8953SOL    HW132695   8.462   3.308   6.648  1.0023  0.5230  0.5785
 8953SOL    HW232696   8.358   3.313   6.757  0.2844  0.5881 -0.1005
 8954SOL     OW32697   2.427   2.030   2.948  0.2352 -0.4165 -0.4598
 8954SOL    HW132698   2.407   1.987   3.031  0.1794 -0.3324 -0.4300
 8954SOL    HW232699   2.503   2.086   2.968  0.6939 -0.9630 -0.6437
 8955SOL     OW32700   6.760   7.389   2.824  0.4055 -0.8565  0.0202
 8955SOL    HW132701   6.715   7.314   2.862 -0.0094 -0.3349  0.5810
 8955SOL    HW232702   6.758   7.455   2.893 -2.7220  1.1266 -1.7158
 8956SOL     OW32703   7.509   3.986   2.435 -0.9817 -0.5170 -0.2513
 8956SOL    HW132704   7.522   4.062   2.377 -0.4218  0.3419  0.9643
 8956SOL    HW232705   7.414   3.974   2.436 -1.0458 -0.1158 -0.8063
 8957SOL     OW32706   6.744  10.740  10.726  0.3138  0.5747 -0.2862
 8957SOL    HW132707   6.816  10.787  10.684 -0.7400  2.3586 -0.1758
 8957SOL    HW232708   6.750  10.651  10.690  3.1938  0.3435  0.5336
 8958SOL     OW32709   5.545   3.225   2.562  0.6076  0.1272 -0.3477
 8958SOL    HW132710   5.622   3.282   2.551 -0.4692  1.4947 -1.1045
 8958SOL    HW232711   5.475   3.271   2.517 -0.4480 -1.5760 -0.5266
 8959SOL     OW32712   0.508   4.452   8.412 -0.0436 -0.3363  0.4369
 8959SOL    HW132713   0.449   4.514   8.456  0.8025  1.2477 -0.5343
 8959SOL    HW232714   0.460   4.426   8.333  0.3927  0.7434 -0.2151
 8960SOL     OW32715   4.013   2.919  10.857  0.3300 -0.4580 -0.1746
 8960SOL    HW132716   4.014   2.824  10.865  3.9604 -0.6571 -1.2018
 8960SOL    HW232717   4.051   2.937  10.771  1.6424  1.8936  0.7889
 8961SOL     OW32718   6.888   0.242   3.968  0.0797  0.8741 -0.5082
 8961SOL    HW132719   6.794   0.224   3.971  0.6573 -2.7766  0.9630
 8961SOL    HW232720   6.912   0.260   4.059  0.9144  0.8960 -0.7248
 8962SOL     OW32721   7.311  10.746   8.510 -0.7750 -0.1977  0.1405
 8962SOL    HW132722   7.340  10.727   8.599 -0.6379 -1.9493 -0.2470
 8962SOL    HW232723   7.217  10.732   8.512 -0.6384 -1.2557 -0.2094
 8963SOL     OW32724   1.871   2.721   8.113 -0.1553 -0.4608  0.3362
 8963SOL    HW132725   1.854   2.815   8.104  0.1682 -0.5685 -1.8855
 8963SOL    HW232726   1.792   2.687   8.156 -0.2506  0.8037  1.2278
 8964SOL     OW32727   8.827   7.036   8.260 -0.2059 -0.5213 -0.0271
 8964SOL    HW132728   8.768   7.080   8.199 -1.2951 -3.1043 -0.9676
 8964SOL    HW232729   8.878   7.107   8.300 -3.4723  1.8011  0.3912
 8965SOL     OW32730   9.647   1.236   8.597 -0.6257 -0.2127  0.3225
 8965SOL    HW132731   9.603   1.233   8.512  0.3536 -0.2478 -0.1943
 8965SOL    HW232732   9.723   1.293   8.582  2.2165 -3.7510 -0.1303
 8966SOL     OW32733   7.444   9.898   2.578 -0.3596 -0.2146  0.3171
 8966SOL    HW132734   7.519   9.842   2.560  0.0747  0.9516 -1.7565
 8966SOL    HW232735   7.479   9.986   2.579 -1.5845  0.3025 -0.0551
 8967SOL     OW32736   7.024   1.108   9.763 -0.6236  0.1209 -0.2954
 8967SOL    HW132737   7.083   1.037   9.736 -1.5297 -0.9074  0.3510
 8967SOL    HW232738   7.054   1.184   9.713  1.1360 -0.4064 -0.1132
 8968SOL     OW32739   9.148  10.537   7.313  0.0730 -0.1135 -0.4703
 8968SOL    HW132740   9.203  10.560   7.237  0.1828  0.4631 -0.2222
 8968SOL    HW232741   9.176  10.448   7.336 -1.8468 -1.4559 -2.7782
 8969SOL     OW32742   1.776   1.270  10.671  0.1472 -0.5561 -0.0323
 8969SOL    HW132743   1.797   1.354  10.630 -1.5346 -0.9460 -1.8973
 8969SOL    HW232744   1.727   1.293  10.750  1.0781  0.2123  0.3344
 8970SOL     OW32745   0.650   5.020   3.365  0.2162 -0.1223  0.4572
 8970SOL    HW132746   0.731   4.973   3.343 -0.1383 -0.7730  0.5202
 8970SOL    HW232747   0.663   5.108   3.328  0.5677 -0.4979 -0.3490
 8971SOL     OW32748   8.891   2.740   4.120  0.2314 -0.2760 -0.4256
 8971SOL    HW132749   8.812   2.794   4.111  0.3329 -0.3129 -1.6623
 8971SOL    HW232750   8.885   2.677   4.048  0.4192 -1.5422  0.6445
 8972SOL     OW32751   5.882   6.246   3.717  0.0587 -0.0394 -0.2702
 8972SOL    HW132752   5.868   6.201   3.633 -0.2669 -0.7196  0.1399
 8972SOL    HW232753   5.825   6.200   3.779  0.4128  0.3548  0.3605
 8973SOL     OW32754   6.770   7.626   4.794 -0.2844  0.1197  0.4353
 8973SOL    HW132755   6.678   7.606   4.808 -0.5854  1.2167  0.1144
 8973SOL    HW232756   6.785   7.708   4.842  0.6243 -0.2560  0.8237
 8974SOL     OW32757   4.564   0.423   0.472  0.1735  0.3768  0.3640
 8974SOL    HW132758   4.617   0.390   0.544  0.5143 -2.2091 -0.9541
 8974SOL    HW232759   4.474   0.422   0.505  0.2968 -0.9997  0.7170
 8975SOL     OW32760   0.930   5.997   8.012  0.3694 -0.1397 -0.5485
 8975SOL    HW132761   0.954   5.905   8.006 -0.7129 -0.3481 -2.9107
 8975SOL    HW232762   0.856   5.999   8.073 -0.0037 -0.9378 -0.9682
 8976SOL     OW32763   9.795   7.136   5.662 -0.3589  0.0636 -0.2565
 8976SOL    HW132764   9.854   7.197   5.619  1.5015 -0.7115  1.0244
 8976SOL    HW232765   9.840   7.051   5.655 -0.5042 -0.2750  2.1298
 8977SOL     OW32766   0.142   6.958   6.542 -0.2539  0.5598  0.0384
 8977SOL    HW132767   0.086   6.996   6.475  0.8642  0.5662 -0.9323
 8977SOL    HW232768   0.154   6.867   6.514  1.4373  0.9456 -0.6623
 8978SOL     OW32769   6.409   6.132   8.229 -0.2314 -0.1824  0.0405
 8978SOL    HW132770   6.360   6.091   8.300 -2.5839 -1.5966 -2.2139
 8978SOL    HW232771   6.368   6.218   8.218  0.8412  0.4857  0.9947
 8979SOL     OW32772   3.452   8.629   9.927  0.3267  0.1739 -0.1495
 8979SOL    HW132773   3.490   8.571   9.862 -0.6532  1.1587 -1.6699
 8979SOL    HW232774   3.380   8.673   9.881 -0.5728  0.7287  1.6695
 8980SOL     OW32775   6.164   2.685   2.964  0.7093 -0.3334  0.2520
 8980SOL    HW132776   6.098   2.753   2.977  0.3661 -0.9245  1.9481
 8980SOL    HW232777   6.145   2.649   2.877 -3.0977 -2.3452  1.6848
 8981SOL     OW32778  10.667   8.514  10.118  0.1224  0.2831  0.0410
 8981SOL    HW132779  10.700   8.484  10.033  0.1526  0.3683  0.0231
 8981SOL    HW232780  10.746   8.540  10.167  0.6460 -3.4085  1.5575
 8982SOL     OW32781   7.473   1.207  10.148 -0.0017 -0.4450  0.3457
 8982SOL    HW132782   7.551   1.160  10.178  0.9315  1.4380  1.0458
 8982SOL    HW232783   7.445   1.258  10.224 -0.6500  0.5264 -0.5160
 8983SOL     OW32784   8.709   4.709   2.861 -0.5377  0.0043  0.0593
 8983SOL    HW132785   8.789   4.732   2.812  0.5812  1.2936  2.2990
 8983SOL    HW232786   8.690   4.619   2.836  2.2629 -0.7132  0.2178
 8984SOL     OW32787   9.342   6.430   5.068  0.2641  0.1221  0.4873
 8984SOL    HW132788   9.314   6.371   5.138  1.2387 -0.7196  0.1997
 8984SOL    HW232789   9.262   6.453   5.021 -0.0059 -1.9463 -0.1386
 8985SOL     OW32790   3.681   6.457   7.876 -0.2919  0.2701 -0.5362
 8985SOL    HW132791   3.726   6.389   7.825 -1.7604 -0.0339 -1.5109
 8985SOL    HW232792   3.673   6.419   7.964  0.0920 -0.2562 -0.7194
 8986SOL     OW32793  10.273   1.334   9.661 -0.1827  0.3566  0.0031
 8986SOL    HW132794  10.234   1.394   9.597  0.8645  1.0815  0.0103
 8986SOL    HW232795  10.199   1.297   9.708 -0.9462  0.2015 -1.2883
 8987SOL     OW32796   3.528   3.222   2.037  0.4198 -0.3232 -0.3609
 8987SOL    HW132797   3.442   3.190   2.012  2.1982 -3.4061 -3.4688
 8987SOL    HW232798   3.537   3.199   2.130 -0.5898 -4.1618 -1.0271
 8988SOL     OW32799   8.018   5.702   0.554 -0.3609 -0.4422 -0.0663
 8988SOL    HW132800   7.925   5.687   0.532 -0.2095 -0.6753 -0.5747
 8988SOL    HW232801   8.061   5.713   0.469 -0.5965  4.1871  0.1879
 8989SOL     OW32802   3.863   5.003   7.272 -0.1731  0.3509  0.4543
 8989SOL    HW132803   3.915   4.988   7.352  0.8613 -2.3413 -0.6164
 8989SOL    HW232804   3.797   4.934   7.273 -0.7609  0.8803 -0.5478
 8990SOL     OW32805   1.201   8.772   2.995 -0.4711  0.9118 -0.4857
 8990SOL    HW132806   1.188   8.866   2.981 -0.7145  0.6460 -2.1310
 8990SOL    HW232807   1.117   8.741   3.029 -0.8999  1.0200 -1.4309
 8991SOL     OW32808   7.585  10.038   7.433 -0.0062  0.2206 -0.2500
 8991SOL    HW132809   7.597  10.033   7.338  1.1987  0.8015 -0.1474
 8991SOL    HW232810   7.604   9.950   7.465 -3.3322 -0.8417 -0.7779
 8992SOL     OW32811   0.033   8.203   1.320 -0.2874  0.1162  0.1026
 8992SOL    HW132812   0.038   8.182   1.413  1.8305 -0.9119 -0.1716
 8992SOL    HW232813   0.074   8.290   1.313  1.2663 -0.5943 -0.0393
 8993SOL     OW32814   5.016   7.043   0.738  0.0348 -0.0288  0.1341
 8993SOL    HW132815   5.000   6.960   0.782 -0.8640  0.2524  0.3448
 8993SOL    HW232816   5.050   7.018   0.651  2.9345 -0.5946  1.3135
 8994SOL     OW32817  10.586   0.490   2.717  0.6253  0.1097  0.2083
 8994SOL    HW132818  10.525   0.469   2.788  0.7934 -0.1389  0.2799
 8994SOL    HW232819  10.594   0.409   2.668 -1.2258  0.8352 -1.4365
 8995SOL     OW32820  10.391   7.147   1.341  0.7019  0.4420  0.8485
 8995SOL    HW132821  10.399   7.056   1.368 -0.0005 -0.1018 -0.6814
 8995SOL    HW232822  10.463   7.161   1.280 -1.6439 -0.4912 -2.4028
 8996SOL     OW32823   2.859   8.085   2.525  0.5212 -0.1393 -0.7615
 8996SOL    HW132824   2.803   8.077   2.602  0.8167  1.2463 -0.3822
 8996SOL    HW232825   2.832   8.012   2.468 -0.2040 -0.7422  0.3142
 8997SOL     OW32826   0.735   9.282   7.422 -0.0076 -0.2647  0.1912
 8997SOL    HW132827   0.808   9.239   7.467 -0.7864 -0.4860  1.2770
 8997SOL    HW232828   0.731   9.239   7.336  1.2576 -0.1051  0.0383
 8998SOL     OW32829   8.235   3.020   8.246 -0.2770 -0.2842 -0.2397
 8998SOL    HW132830   8.222   2.928   8.225  0.9303 -0.4442 -0.3431
 8998SOL    HW232831   8.293   3.020   8.322  0.0655  0.3895 -0.4923
 8999SOL     OW32832   0.197   2.925   9.891 -0.2084 -0.4327  0.5288
 8999SOL    HW132833   0.222   2.833   9.889 -1.8196 -0.8806 -1.2815
 8999SOL    HW232834   0.137   2.933   9.965  0.9138 -0.5217  1.4777
 9000SOL     OW32835   8.814   5.085   6.118  0.3203  0.5824  0.1391
 9000SOL    HW132836   8.823   5.090   6.213 -0.0684  0.2837  0.1953
 9000SOL    HW232837   8.773   5.168   6.094  1.4348  1.1382  0.0954
 9001SOL     OW32838   5.324   3.530   7.046  0.5710  0.2098 -0.0831
 9001SOL    HW132839   5.276   3.609   7.019  0.4818 -0.3294 -1.6050
 9001SOL    HW232840   5.415   3.551   7.028  0.8614  0.9003  1.9692
 9002SOL     OW32841   5.287   8.172   5.159 -0.2456 -0.3928 -0.7949
 9002SOL    HW132842   5.246   8.096   5.118  0.8941 -1.0023 -0.8461
 9002SOL    HW232843   5.357   8.197   5.098  1.3635 -1.2083  0.6527
 9003SOL     OW32844   6.970   0.319   4.246 -0.0153  0.0505 -0.3806
 9003SOL    HW132845   6.939   0.354   4.330  1.0326  0.8458 -0.3066
 9003SOL    HW232846   7.039   0.379   4.219  0.5828 -0.9622 -1.1617
 9004SOL     OW32847   2.292   9.244   0.454 -0.1975  0.0995  0.1857
 9004SOL    HW132848   2.287   9.334   0.486 -1.3698  0.3506 -0.6198
 9004SOL    HW232849   2.201   9.216   0.450  0.0661 -0.6305 -0.9074
 9005SOL     OW32850   9.094   5.058   6.028 -0.2413 -0.0089 -0.1759
 9005SOL    HW132851   9.002   5.032   6.022 -0.0155 -0.5731 -1.2946
 9005SOL    HW232852   9.100   5.100   6.114 -1.3732 -0.6362  0.2410
 9006SOL     OW32853   7.618   1.074   8.286  0.2651  0.0412  0.0576
 9006SOL    HW132854   7.612   1.123   8.204 -0.5828  2.1399  1.2892
 9006SOL    HW232855   7.527   1.054   8.309  0.5840 -2.4405 -0.5133
 9007SOL     OW32856   1.008   4.007   0.807  0.2923  0.1947  0.2042
 9007SOL    HW132857   1.057   3.924   0.812  0.5714  0.3694  0.4705
 9007SOL    HW232858   0.934   3.988   0.750  0.7623 -0.0327 -0.3378
 9008SOL     OW32859  10.088   7.260   9.738  0.0914 -0.0050  0.2791
 9008SOL    HW132860  10.112   7.179   9.784 -1.9578 -0.6690  0.3221
 9008SOL    HW232861  10.030   7.305   9.800 -2.3049 -0.6534 -1.3313
 9009SOL     OW32862   2.854   1.059   9.469  0.7173  0.2006 -0.2127
 9009SOL    HW132863   2.927   1.121   9.468  0.1865  0.8300 -0.2120
 9009SOL    HW232864   2.790   1.095   9.408  0.4777 -0.4483 -0.3572
 9010SOL     OW32865   4.436   0.879   3.213  0.0061 -0.0073  0.3528
 9010SOL    HW132866   4.470   0.956   3.258  0.0806 -0.2507  0.7084
 9010SOL    HW232867   4.486   0.806   3.248  0.7097 -0.1020 -0.7757
 9011SOL     OW32868   9.437   0.145  10.772  0.2938 -0.0139 -0.2711
 9011SOL    HW132869   9.482   0.223  10.803  0.7135 -0.2910 -0.1725
 9011SOL    HW232870   9.499   0.074  10.788  0.1142 -0.2963 -0.8240
 9012SOL     OW32871   5.400   2.102   5.044 -0.7099  0.4861  0.0521
 9012SOL    HW132872   5.431   2.012   5.049 -2.0665 -0.2213 -2.2578
 9012SOL    HW232873   5.467   2.154   5.088  0.8030 -1.5039  0.2219
 9013SOL     OW32874   2.177   3.793   0.723 -0.0865  0.3280  0.7232
 9013SOL    HW132875   2.108   3.845   0.682  0.5197  0.0759 -0.6766
 9013SOL    HW232876   2.220   3.854   0.782 -0.9343  0.7352  0.9318
 9014SOL     OW32877   9.423   6.953   4.672  0.3015  0.2275 -0.1088
 9014SOL    HW132878   9.416   6.873   4.619 -2.4494 -0.4551  1.0902
 9014SOL    HW232879   9.416   7.024   4.608 -1.8457 -0.5612 -0.8757
 9015SOL     OW32880   3.064   9.735   0.603  0.2611  0.3856  0.4136
 9015SOL    HW132881   3.024   9.662   0.650  0.8541  0.2352  0.7059
 9015SOL    HW232882   3.002   9.757   0.534  0.1388 -0.4958  0.2245
 9016SOL     OW32883   5.282   9.115   8.142 -0.0818 -0.1181 -0.2222
 9016SOL    HW132884   5.377   9.131   8.135 -0.4023  1.6058 -1.2443
 9016SOL    HW232885   5.259   9.149   8.228  0.2144 -0.4309 -0.0182
 9017SOL     OW32886  10.287   8.382   7.663 -0.2113  0.1116  0.2544
 9017SOL    HW132887  10.342   8.451   7.626  0.6148  0.1461  1.4828
 9017SOL    HW232888  10.227   8.358   7.593  0.4317  1.0884 -0.6466
 9018SOL     OW32889   6.404   6.846   3.258 -0.0767 -0.0902 -0.4103
 9018SOL    HW132890   6.443   6.906   3.195 -0.8377  0.1204 -0.6959
 9018SOL    HW232891   6.432   6.759   3.229  0.5584  0.0822 -0.3307
 9019SOL     OW32892   1.388   1.263   9.423  0.2496  0.4826  0.0882
 9019SOL    HW132893   1.306   1.213   9.427 -0.8264  2.0143 -1.3492
 9019SOL    HW232894   1.400   1.299   9.511  0.0291 -0.7040  0.6215
 9020SOL     OW32895   9.770   4.908   8.697 -0.9413  0.0965  0.1197
 9020SOL    HW132896   9.809   4.994   8.681  1.5085 -0.7647  1.0040
 9020SOL    HW232897   9.711   4.922   8.770 -0.5153  1.0269  0.3016
 9021SOL     OW32898   7.086   9.934   8.832 -0.0646 -0.3231  0.4398
 9021SOL    HW132899   7.174   9.948   8.867 -0.4355  0.5217  1.0734
 9021SOL    HW232900   7.043  10.019   8.839 -0.4578 -0.3344 -1.2706
 9022SOL     OW32901   7.216  10.225  10.065 -0.3062  0.0919  0.1273
 9022SOL    HW132902   7.279  10.297  10.073  2.1110 -1.9316  0.4888
 9022SOL    HW232903   7.266  10.154  10.026 -2.0571 -2.0335  1.5484
 9023SOL     OW32904   6.980   7.054   4.256  0.4624 -0.0127 -0.6393
 9023SOL    HW132905   6.890   7.064   4.223 -0.1303  1.4618  1.2468
 9023SOL    HW232906   6.984   6.964   4.287 -0.2798 -0.1619 -0.9483
 9024SOL     OW32907   9.570   8.299   1.412 -0.1444  0.0056 -0.2938
 9024SOL    HW132908   9.544   8.391   1.403 -0.1336 -0.0018 -0.3955
 9024SOL    HW232909   9.663   8.299   1.391 -0.0736  0.0223  0.0143
 9025SOL     OW32910   5.219   9.977   8.134  0.1641 -0.1342 -0.0057
 9025SOL    HW132911   5.199  10.055   8.187 -1.9398 -0.3391 -0.4007
 9025SOL    HW232912   5.154   9.912   8.162  0.7949 -1.1720 -0.8925
 9026SOL     OW32913   1.984   6.536  10.018  0.1047 -0.0419  0.6137
 9026SOL    HW132914   1.918   6.490   9.966  1.2522 -1.0361 -0.0250
 9026SOL    HW232915   1.965   6.512  10.109 -0.5490 -0.1403  0.4532
 9027SOL     OW32916   9.329   9.930   5.130 -0.5145  0.0467 -0.1829
 9027SOL    HW132917   9.335  10.023   5.112 -0.9950  0.1286  0.0850
 9027SOL    HW232918   9.236   9.909   5.120 -0.8322  0.0955  2.1402
 9028SOL     OW32919   5.936   9.163   3.533 -0.1432 -0.2641 -0.5098
 9028SOL    HW132920   6.007   9.110   3.569 -1.5004 -1.6560  0.2361
 9028SOL    HW232921   5.948   9.158   3.438  1.8657  1.1715 -0.4047
 9029SOL     OW32922   2.121   6.630   9.031  0.2509 -0.2816 -0.3428
 9029SOL    HW132923   2.139   6.652   9.123 -1.1620 -0.7999  0.0809
 9029SOL    HW232924   2.069   6.703   8.999 -0.4362 -0.7435 -0.3097
 9030SOL     OW32925   7.554   2.335   1.654  0.1971  0.3280  0.0730
 9030SOL    HW132926   7.490   2.289   1.599  0.1334 -0.7890  1.0265
 9030SOL    HW232927   7.512   2.339   1.741  1.1468  0.1609  0.5535
 9031SOL     OW32928   6.533   1.205   8.434 -0.0450 -1.0676  0.5534
 9031SOL    HW132929   6.515   1.131   8.492  1.4904 -2.0968 -0.2077
 9031SOL    HW232930   6.595   1.170   8.370  1.5709  1.1414  0.8008
 9032SOL     OW32931  10.820   3.313   8.798  0.1198  0.1014 -0.0436
 9032SOL    HW132932  10.847   3.349   8.714 -0.2221  0.3559 -0.0480
 9032SOL    HW232933  10.730   3.346   8.811 -0.1753 -0.6905 -0.0127
 9033SOL     OW32934   2.342   8.600   8.445  0.2583 -0.4244 -0.4076
 9033SOL    HW132935   2.379   8.524   8.490  1.8758  1.6628  2.0810
 9033SOL    HW232936   2.296   8.649   8.513 -0.7360  0.8563 -1.9243
 9034SOL     OW32937   2.220   7.365   1.839  0.0852 -0.0749  0.0057
 9034SOL    HW132938   2.149   7.354   1.775 -0.0311  1.2038 -0.0965
 9034SOL    HW232939   2.176   7.393   1.919  0.3727 -0.3490  0.2617
 9035SOL     OW32940   7.906   5.781   7.276  0.2035 -0.3141 -0.2557
 9035SOL    HW132941   7.978   5.763   7.215  2.1803  2.8012  0.8842
 9035SOL    HW232942   7.946   5.774   7.363 -2.1103 -2.9391  0.7630
 9036SOL     OW32943   5.451   7.262   2.183  0.4622  0.4107  0.4566
 9036SOL    HW132944   5.430   7.200   2.114  1.1548 -0.3564  0.9156
 9036SOL    HW232945   5.495   7.334   2.138  0.2473  0.2653  0.0065
 9037SOL     OW32946   4.719   0.901   3.673 -0.0963 -0.2791  0.1963
 9037SOL    HW132947   4.653   0.970   3.661  1.6593  1.6078  0.8719
 9037SOL    HW232948   4.669   0.828   3.711 -1.8498  1.0076  0.5286
 9038SOL     OW32949   8.864   6.478   2.856 -0.2086  0.3959 -0.2306
 9038SOL    HW132950   8.919   6.506   2.929  0.0700 -0.9634  0.1050
 9038SOL    HW232951   8.924   6.434   2.796 -1.0331 -2.1136  0.6642
 9039SOL     OW32952   2.546   0.406   8.458  0.2897 -0.0928 -0.6766
 9039SOL    HW132953   2.527   0.415   8.365 -0.3284  0.4547 -0.5070
 9039SOL    HW232954   2.461   0.393   8.499  0.4262  0.8038 -0.0699
 9040SOL     OW32955   0.604   1.107   1.922 -0.4453 -0.1265 -0.1815
 9040SOL    HW132956   0.659   1.059   1.984 -0.5863  0.9125  0.7843
 9040SOL    HW232957   0.518   1.067   1.930 -0.4758  0.0320  0.3594
 9041SOL     OW32958   2.960   8.609   7.367 -0.6809  0.1694  0.6665
 9041SOL    HW132959   2.890   8.547   7.350  0.5659 -0.9147 -0.7016
 9041SOL    HW232960   3.040   8.558   7.359  0.3112  1.4846  1.7220
 9042SOL     OW32961   5.799   1.492   7.860  0.1647  0.8665 -0.0558
 9042SOL    HW132962   5.847   1.534   7.931  0.8087  0.9068 -0.5084
 9042SOL    HW232963   5.779   1.404   7.892 -0.5828  1.2746  0.6265
 9043SOL     OW32964   9.939   0.655   1.726  0.1227 -0.0319  0.1318
 9043SOL    HW132965  10.024   0.695   1.743  0.7503 -0.3524 -2.0300
 9043SOL    HW232966   9.901   0.641   1.813  1.8107  1.0834  1.0885
 9044SOL     OW32967   9.380   6.778   8.389 -0.2986  0.5832  0.5511
 9044SOL    HW132968   9.473   6.798   8.377 -0.0714 -0.1792  0.9905
 9044SOL    HW232969   9.356   6.727   8.312 -1.2228  3.5193 -1.2685
 9045SOL     OW32970   0.058   9.217   5.618 -0.1746  0.0775  0.2078
 9045SOL    HW132971   0.048   9.122   5.615 -0.0517  0.0629  0.2403
 9045SOL    HW232972   0.070   9.243   5.526  0.9497 -0.0695  0.2906
 9046SOL     OW32973   6.110   2.253   0.986  0.9231  0.3806  0.1804
 9046SOL    HW132974   6.079   2.207   0.908 -0.0886  0.2292  0.6517
 9046SOL    HW232975   6.193   2.294   0.959  0.9937 -0.3321 -0.7253
 9047SOL     OW32976   7.630   5.393   2.397 -0.3028 -0.1921  0.3827
 9047SOL    HW132977   7.609   5.414   2.306  0.8667 -0.0704  0.1322
 9047SOL    HW232978   7.711   5.440   2.415 -0.5533 -0.1466  1.5270
 9048SOL     OW32979   2.172   0.198   4.494 -0.4016  0.1942  0.1075
 9048SOL    HW132980   2.135   0.111   4.480 -2.2663  0.8809  0.5018
 9048SOL    HW232981   2.158   0.216   4.586  0.6678  0.6361  0.2034
 9049SOL     OW32982   7.953   2.548   4.060  0.4706 -0.2997 -0.3736
 9049SOL    HW132983   8.022   2.483   4.067  0.1392 -0.6281 -0.0699
 9049SOL    HW232984   7.955   2.576   3.968  2.7888  1.7098  0.1797
 9050SOL     OW32985   9.789   6.063   3.456  0.4566 -0.5163  0.1795
 9050SOL    HW132986   9.773   5.970   3.470  1.0594 -0.8819 -1.3544
 9050SOL    HW232987   9.780   6.102   3.543 -3.3061 -1.4175  0.3745
 9051SOL     OW32988   6.009   9.714   6.278  0.2330 -0.1551  0.8190
 9051SOL    HW132989   6.077   9.778   6.257 -0.7694  0.5248 -0.4298
 9051SOL    HW232990   6.057   9.633   6.295  1.5144  0.8417  2.2638
 9052SOL     OW32991   5.419   3.488   8.846  0.1293  0.4422  0.1950
 9052SOL    HW132992   5.435   3.430   8.771  0.1680  1.2301 -0.4201
 9052SOL    HW232993   5.393   3.430   8.916 -1.0267 -0.2116 -0.7496
 9053SOL     OW32994   8.127   3.856   7.715 -0.1127 -0.1996  0.8401
 9053SOL    HW132995   8.130   3.951   7.730 -0.7814 -0.2996  1.6978
 9053SOL    HW232996   8.186   3.820   7.781  0.1074 -0.3867  0.5418
 9054SOL     OW32997   8.889   5.399   3.895 -0.3656 -0.7081  0.0360
 9054SOL    HW132998   8.809   5.417   3.944  0.1663 -1.9126  1.4080
 9054SOL    HW232999   8.869   5.321   3.843 -0.9836  0.6565 -1.8993
 9055SOL     OW33000   1.843   7.516   6.521  0.1813 -0.0402 -0.0905
 9055SOL    HW133001   1.894   7.488   6.597 -0.5382  0.0969  0.4545
 9055SOL    HW233002   1.757   7.538   6.557  0.5948  2.6093 -0.5193
 9056SOL     OW33003   1.403   5.339   2.881 -0.0672  0.2216  0.4735
 9056SOL    HW133004   1.345   5.358   2.807  1.4456 -1.8713 -1.4007
 9056SOL    HW233005   1.478   5.396   2.868 -0.4665  0.9641  1.3308
 9057SOL     OW33006  10.421   1.046   3.260  0.0174  0.4562  0.3375
 9057SOL    HW133007  10.400   1.051   3.353  0.9268  1.4390  0.5160
 9057SOL    HW233008  10.494   0.984   3.255 -0.7955 -0.5201  0.1066
 9058SOL     OW33009   7.205  10.132   0.852  0.3871 -0.4015  0.4940
 9058SOL    HW133010   7.167  10.105   0.769  1.1982 -1.1165  0.3504
 9058SOL    HW233011   7.245  10.053   0.887  0.7454  0.0800  1.1909
 9059SOL     OW33012   3.159  10.283   6.145 -0.0383  0.3323 -0.5282
 9059SOL    HW133013   3.195  10.202   6.109 -2.0791 -0.0550 -1.9233
 9059SOL    HW233014   3.234  10.329   6.181  1.9442 -0.2074 -3.5556
 9060SOL     OW33015  10.327   3.314   9.224  0.0224 -0.5178  0.0613
 9060SOL    HW133016  10.361   3.281   9.308  0.6741 -1.4394 -0.5456
 9060SOL    HW233017  10.348   3.407   9.225  1.7860 -0.8834  0.1061
 9061SOL     OW33018   7.874   4.821   3.072  0.3830  0.1460  0.1171
 9061SOL    HW133019   7.861   4.728   3.053  1.9943 -0.5504  2.0202
 9061SOL    HW233020   7.930   4.852   3.001  1.4232 -0.8742  0.4403
 9062SOL     OW33021   7.945   8.475   8.383  0.2382  0.2379  0.6171
 9062SOL    HW133022   7.857   8.469   8.420  0.6334 -0.4216  1.5051
 9062SOL    HW233023   7.931   8.494   8.291 -0.8161  0.8526  0.8831
 9063SOL     OW33024   6.113   2.195   4.840 -0.2539  0.0462  0.1724
 9063SOL    HW133025   6.127   2.133   4.912  0.1623 -0.2229 -0.1428
 9063SOL    HW233026   6.179   2.172   4.775 -0.7690  0.1494 -0.3935
 9064SOL     OW33027   2.338   6.716   2.552  0.2259 -0.1668  0.1914
 9064SOL    HW133028   2.396   6.760   2.615  0.7962 -0.2870 -0.2438
 9064SOL    HW233029   2.367   6.748   2.467 -0.8322  0.3390  0.0040
 9065SOL     OW33030   5.387   0.999   8.618 -0.1332  0.2387 -0.3089
 9065SOL    HW133031   5.348   0.972   8.535  1.5105 -0.2943 -0.9535
 9065SOL    HW233032   5.448   0.929   8.640  0.8045  1.2341  0.3993
 9066SOL     OW33033   0.508  10.350  10.809 -0.0346  0.0973 -0.1714
 9066SOL    HW133034   0.463  10.271  10.838 -1.0916  0.8952  0.4329
 9066SOL    HW233035   0.534  10.332  10.719 -0.5901 -0.7950 -0.1612
 9067SOL     OW33036   6.627   7.442   6.252 -0.1952 -0.5183  0.4084
 9067SOL    HW133037   6.548   7.414   6.206 -0.3061  0.2210  0.1265
 9067SOL    HW233038   6.602   7.524   6.295  0.2813 -0.5272  0.7086
 9068SOL     OW33039   5.739   5.701   9.008  1.0055  0.0695  0.1906
 9068SOL    HW133040   5.675   5.634   8.985  0.3298  0.7594  0.0200
 9068SOL    HW233041   5.812   5.653   9.047 -0.2712 -0.6068  1.8328
 9069SOL     OW33042   1.586   5.873   0.849  0.3388 -0.2532  0.2379
 9069SOL    HW133043   1.509   5.824   0.877  0.0807  0.1246  0.1893
 9069SOL    HW233044   1.552   5.956   0.816  0.8758  0.5183  1.5453
 9070SOL     OW33045   7.742   1.314   7.315 -0.1539  0.3605  0.2953
 9070SOL    HW133046   7.709   1.390   7.269 -0.0763 -0.0469 -0.4470
 9070SOL    HW233047   7.827   1.296   7.275 -0.4465 -0.4889  0.0101
 9071SOL     OW33048   5.422   8.149   8.707 -0.1463 -0.6145  0.1671
 9071SOL    HW133049   5.453   8.152   8.797 -0.5796 -0.2595  0.3062
 9071SOL    HW233050   5.327   8.160   8.713 -0.1589 -0.3859 -0.3420
 9072SOL     OW33051   1.673   8.193   7.268  0.2852  0.0343 -0.3803
 9072SOL    HW133052   1.733   8.265   7.253  0.2961 -0.0200 -0.5905
 9072SOL    HW233053   1.701   8.155   7.351  1.3037 -0.7591 -1.0716
 9073SOL     OW33054   7.997   5.816   7.612  0.1728 -0.2949 -0.2653
 9073SOL    HW133055   7.937   5.877   7.653  1.6089  0.6090  0.5931
 9073SOL    HW233056   8.082   5.859   7.616  1.2350 -2.2835  0.2705
 9074SOL     OW33057   4.904   3.585   5.461 -0.1619 -0.0461 -0.5269
 9074SOL    HW133058   4.972   3.518   5.455 -0.1631 -0.1855  0.6685
 9074SOL    HW233059   4.870   3.576   5.550 -1.6899  0.0798 -1.0646
 9075SOL     OW33060   6.223   9.996   2.675  0.2161 -0.3702  0.0903
 9075SOL    HW133061   6.182  10.082   2.669 -0.4650 -0.5561  1.6489
 9075SOL    HW233062   6.155   9.934   2.648  0.6741 -0.4531 -0.9345
 9076SOL     OW33063   1.074  10.563   6.514  0.2471 -0.1879 -0.4973
 9076SOL    HW133064   1.013  10.615   6.566  1.5857  0.7793  0.1796
 9076SOL    HW233065   1.020  10.495   6.474 -1.0953  0.0241  0.8560
 9077SOL     OW33066   5.787   0.603   3.043 -0.5330 -0.3157  0.1440
 9077SOL    HW133067   5.814   0.552   3.119  1.3030 -1.6793 -1.3358
 9077SOL    HW233068   5.855   0.669   3.032 -0.9109  0.0269 -0.1961
 9078SOL     OW33069   8.512   8.850   7.699  0.2954  0.3281  0.2962
 9078SOL    HW133070   8.476   8.901   7.772  0.9009  1.2337 -0.0171
 9078SOL    HW233071   8.438   8.839   7.639  0.0984  0.6641  0.4717
 9079SOL     OW33072   2.248   7.918   7.112 -0.3752 -0.1755  0.0155
 9079SOL    HW133073   2.167   7.871   7.132 -0.2088  1.0203  4.3636
 9079SOL    HW233074   2.315   7.873   7.163  1.1789  0.5799 -1.2740
 9080SOL     OW33075   4.852  10.176   0.947 -0.0914  0.4080 -0.2162
 9080SOL    HW133076   4.848  10.105   1.011 -0.4700  0.2585 -0.4066
 9080SOL    HW233077   4.761  10.200   0.932  0.0283  0.8902 -0.2023
 9081SOL     OW33078   8.961   6.407   9.457 -0.8424  0.4154 -0.6919
 9081SOL    HW133079   8.975   6.368   9.371  1.0026 -1.1136  0.2188
 9081SOL    HW233080   9.021   6.360   9.515 -0.8353  2.4902  1.1297
 9082SOL     OW33081   4.194   1.979   7.647  0.0598 -0.6154 -0.2802
 9082SOL    HW133082   4.109   1.967   7.689  1.6652 -1.1296  3.2012
 9082SOL    HW233083   4.212   1.894   7.605 -0.3440 -1.2002  0.6849
 9083SOL     OW33084   9.004   2.313   5.832 -0.1125  0.4826  0.2046
 9083SOL    HW133085   9.045   2.318   5.746 -0.4595 -1.5365 -0.1351
 9083SOL    HW233086   9.066   2.356   5.891  0.7139  0.7926 -0.8651
 9084SOL     OW33087   3.230   6.918   8.188 -0.3388  0.3234 -0.3859
 9084SOL    HW133088   3.142   6.889   8.214 -0.8240  0.5683 -1.6700
 9084SOL    HW233089   3.217   6.958   8.102  0.4684  3.3760  0.7931
 9085SOL     OW33090   5.115   8.634   9.297  0.3237 -0.2604 -0.1482
 9085SOL    HW133091   5.041   8.576   9.280  2.2121 -2.2749 -2.1244
 9085SOL    HW233092   5.126   8.684   9.216  1.3568 -0.3038 -0.0485
 9086SOL     OW33093   2.030   2.781  10.363 -0.6777  0.5383  0.2504
 9086SOL    HW133094   1.976   2.780  10.284 -1.2952  1.1393  0.6603
 9086SOL    HW233095   2.104   2.724  10.342 -2.0075 -1.2170  0.0657
 9087SOL     OW33096   3.498   7.868   7.392  0.0056  0.2891 -0.1116
 9087SOL    HW133097   3.403   7.867   7.379 -0.0383  4.0372 -1.3744
 9087SOL    HW233098   3.532   7.811   7.323 -1.2802 -1.4839  0.6579
 9088SOL     OW33099   5.360   2.762   4.530  0.1113  0.0509  0.7628
 9088SOL    HW133100   5.449   2.727   4.534 -0.3202 -1.1658  0.0464
 9088SOL    HW233101   5.318   2.716   4.458 -1.8960 -1.3344  2.6581
 9089SOL     OW33102   6.856   4.912   5.545 -0.3238  0.0263 -0.1182
 9089SOL    HW133103   6.800   4.954   5.479 -0.8134 -0.3449  0.0526
 9089SOL    HW233104   6.893   4.836   5.500 -0.0195  0.2299 -0.2084
 9090SOL     OW33105   1.582   3.827   8.462  0.3648  0.3054 -0.1142
 9090SOL    HW133106   1.550   3.786   8.382 -0.3452  1.0692 -0.2303
 9090SOL    HW233107   1.504   3.858   8.507  0.8112  0.5256  0.5288
 9091SOL     OW33108   3.111   2.848   3.510 -0.0839  0.3845 -0.2570
 9091SOL    HW133109   3.061   2.832   3.589 -1.0739  2.0970 -0.4737
 9091SOL    HW233110   3.045   2.871   3.444  0.8718  1.1644 -0.9755
 9092SOL     OW33111   5.663   1.124   5.810 -0.0600 -0.1613  0.2631
 9092SOL    HW133112   5.685   1.123   5.717 -1.5539  0.3096 -0.1171
 9092SOL    HW233113   5.649   1.217   5.830 -1.8449 -0.4283  0.4064
 9093SOL     OW33114   9.087   8.673   0.951 -0.2623  0.3532  0.3022
 9093SOL    HW133115   8.995   8.692   0.934 -1.1745 -1.2581  2.8612
 9093SOL    HW233116   9.108   8.724   1.029  0.0422 -1.6433  1.5841
 9094SOL     OW33117   3.294   6.491   4.773 -0.1920  0.4599 -0.0882
 9094SOL    HW133118   3.380   6.527   4.752 -0.1434 -0.0329 -0.7512
 9094SOL    HW233119   3.235   6.566   4.766 -0.2034  0.3117 -2.1529
 9095SOL     OW33120  10.855   0.518   7.652 -0.0779  0.4801  0.3611
 9095SOL    HW133121  10.886   0.435   7.614  0.9976  1.3395 -0.7118
 9095SOL    HW233122  10.760   0.513   7.646 -0.0297 -0.6569  0.2549
 9096SOL     OW33123   0.073   7.280   4.556 -0.2525 -0.0750 -0.7649
 9096SOL    HW133124   0.007   7.212   4.541 -0.4205 -1.0297  3.1239
 9096SOL    HW233125   0.152   7.246   4.515 -0.8209 -1.7214 -0.5715
 9097SOL     OW33126   2.432   1.776   0.700  0.1153 -0.0323 -0.1497
 9097SOL    HW133127   2.435   1.738   0.788 -0.1910 -1.8498 -0.8796
 9097SOL    HW233128   2.513   1.826   0.692  0.1335  0.1804  1.1526
 9098SOL     OW33129   4.479   5.132  10.687  0.1900  0.7993  0.3560
 9098SOL    HW133130   4.414   5.065  10.663  0.0664  0.9648  0.2237
 9098SOL    HW233131   4.434   5.215  10.673  0.1672  0.9030  1.0414
 9099SOL     OW33132   0.506  10.097   7.357  0.2110 -0.2393  0.0926
 9099SOL    HW133133   0.532  10.188   7.370  0.1038  0.1382 -2.0959
 9099SOL    HW233134   0.559  10.067   7.284 -0.6846 -1.5555 -0.0457
 9100SOL     OW33135  10.901   3.632   6.030  0.0306 -0.3884 -0.0462
 9100SOL    HW133136  10.815   3.655   6.066 -0.4996 -1.5546 -0.5030
 9100SOL    HW233137  10.963   3.659   6.097 -0.5885  1.4865 -0.1762
 9101SOL     OW33138   0.421   0.987   6.940  0.5475  0.4168 -0.3365
 9101SOL    HW133139   0.328   0.975   6.957  0.7908 -0.7106  0.2841
 9101SOL    HW233140   0.435   0.952   6.852  0.5146 -0.0804 -0.1437
 9102SOL     OW33141   6.720   4.584   5.074  0.0716 -0.0944  0.0193
 9102SOL    HW133142   6.792   4.587   5.010  0.7992  0.9745  0.8549
 9102SOL    HW233143   6.641   4.591   5.021  0.6792  1.5720 -0.7336
 9103SOL     OW33144   0.645  10.429   4.030 -0.1307  0.0722  0.1781
 9103SOL    HW133145   0.714  10.429   4.096 -0.4322 -1.2514  0.5174
 9103SOL    HW233146   0.586  10.359   4.056 -0.7794  0.1624 -0.9588
 9104SOL     OW33147   7.310   2.619   5.049 -0.1795  0.0518  0.3954
 9104SOL    HW133148   7.315   2.543   4.991  0.8635  0.5282 -0.1592
 9104SOL    HW233149   7.330   2.585   5.136  2.9196  0.0772 -0.2062
 9105SOL     OW33150   0.226   5.773   5.825 -0.0770 -0.3658  0.2198
 9105SOL    HW133151   0.259   5.859   5.798 -3.3849  1.5315  1.5850
 9105SOL    HW233152   0.273   5.753   5.905  0.4979  0.3310  0.0716
 9106SOL     OW33153   9.900   2.769   9.509 -0.0363  0.4841  0.4034
 9106SOL    HW133154   9.808   2.792   9.519 -0.7131 -1.4094 -0.8827
 9106SOL    HW233155   9.942   2.801   9.589 -1.9226  0.7935  1.3167
 9107SOL     OW33156   3.119   6.080   0.140 -0.0237  0.0695 -0.1353
 9107SOL    HW133157   3.202   6.077   0.092 -1.7616 -0.6556 -3.3743
 9107SOL    HW233158   3.087   5.990   0.139 -1.4357  0.5467 -0.0434
 9108SOL     OW33159   3.310   5.882   9.705  1.1461 -0.4633  0.5229
 9108SOL    HW133160   3.250   5.924   9.643  2.8702  2.1251  0.4730
 9108SOL    HW233161   3.269   5.797   9.723 -2.2892  0.9306  0.1663
 9109SOL     OW33162   5.864   1.108   3.673  0.0828 -0.5128 -0.1279
 9109SOL    HW133163   5.801   1.175   3.700  2.0666  1.0463  0.9011
 9109SOL    HW233164   5.922   1.153   3.612 -0.2369 -2.1530 -1.7135
 9110SOL     OW33165   4.218   2.847   0.674 -0.0972  0.3217 -0.4108
 9110SOL    HW133166   4.127   2.822   0.690 -0.2507  1.5204  0.7624
 9110SOL    HW233167   4.261   2.765   0.649 -1.0172 -0.7153  1.2075
 9111SOL     OW33168   5.275   1.163   7.311 -0.2149 -0.5913  0.0762
 9111SOL    HW133169   5.282   1.114   7.393 -0.9590 -2.8284 -1.0946
 9111SOL    HW233170   5.181   1.169   7.294 -0.0552 -1.0832 -1.0908
 9112SOL     OW33171   5.887   1.768   9.274 -0.3773  0.4535  0.9806
 9112SOL    HW133172   5.856   1.819   9.199  0.8281  0.7270  0.6515
 9112SOL    HW233173   5.867   1.677   9.252 -0.7892  0.6117  0.7044
 9113SOL     OW33174   0.894  10.895   8.424 -0.0248 -0.2557 -0.1615
 9113SOL    HW133175   0.845  10.837   8.365  0.9435  0.2763 -1.5244
 9113SOL    HW233176   0.829  10.959   8.453 -0.4341 -0.3281 -0.9036
 9114SOL     OW33177   3.325  10.229   4.296  0.3902  0.1660  0.0069
 9114SOL    HW133178   3.388  10.291   4.261  0.3976  0.1369 -0.0307
 9114SOL    HW233179   3.282  10.276   4.367 -0.7117  0.7604 -1.0242
 9115SOL     OW33180   2.876   5.851   7.882  0.0208 -0.5664 -0.0460
 9115SOL    HW133181   2.888   5.848   7.787 -1.0590  1.3347 -0.2811
 9115SOL    HW233182   2.938   5.918   7.912  1.5342 -2.2643  0.8606
 9116SOL     OW33183   6.230   9.943   1.626 -0.2411 -0.0393  0.1587
 9116SOL    HW133184   6.186   9.897   1.554 -0.4940 -0.9199  0.8558
 9116SOL    HW233185   6.279   9.875   1.672  2.1021  0.9506 -0.7319
 9117SOL     OW33186   2.851   2.945   3.995  0.2545 -0.4294  0.3067
 9117SOL    HW133187   2.894   2.860   3.993 -1.1274 -1.1897 -2.3589
 9117SOL    HW233188   2.768   2.930   4.040  0.4527 -0.2387  0.7394
 9118SOL     OW33189   2.550   3.701   0.952  0.0281 -0.3310  0.2690
 9118SOL    HW133190   2.517   3.708   0.863  0.6431  0.9813  0.1211
 9118SOL    HW233191   2.645   3.715   0.944 -0.0783  1.2679  1.2573
 9119SOL     OW33192   0.411   2.824   3.701 -0.1602  0.3845  0.4716
 9119SOL    HW133193   0.421   2.912   3.737 -0.2174 -0.0135  1.5106
 9119SOL    HW233194   0.330   2.792   3.741 -0.4882  0.0965 -0.4055
 9120SOL     OW33195   5.711   4.945   3.879 -0.2532 -0.0491  0.3617
 9120SOL    HW133196   5.644   4.995   3.924  1.0561  2.0562  0.0807
 9120SOL    HW233197   5.675   4.928   3.792 -0.3944  1.1708  0.1752
 9121SOL     OW33198  10.363   2.629   8.113  0.0297  0.7160  0.0519
 9121SOL    HW133199  10.362   2.545   8.068  0.6277  0.9172 -0.3440
 9121SOL    HW233200  10.354   2.694   8.044 -1.1263  0.9723  0.4143
 9122SOL     OW33201   3.745   9.196   3.380 -0.5301  0.4586 -0.9254
 9122SOL    HW133202   3.834   9.216   3.350 -0.1601 -1.2884 -1.0939
 9122SOL    HW233203   3.709   9.138   3.313 -1.1759 -0.2083 -0.0338
 9123SOL     OW33204   7.869   5.674   8.379 -0.4231  0.0482 -0.0821
 9123SOL    HW133205   7.928   5.742   8.344 -0.4790  1.2934  2.0765
 9123SOL    HW233206   7.883   5.599   8.321  3.2603  0.2868  0.2196
 9124SOL     OW33207   6.116   2.340   9.387  0.5200 -1.0003 -0.0259
 9124SOL    HW133208   6.184   2.277   9.413  2.1108  0.1431 -1.2007
 9124SOL    HW233209   6.060   2.348   9.464  1.9569 -1.6915  1.1442
 9125SOL     OW33210   1.798  10.103   0.796 -0.2646 -0.2714 -0.0747
 9125SOL    HW133211   1.840  10.043   0.735 -0.6560 -0.5679 -0.0541
 9125SOL    HW233212   1.750  10.164   0.740  0.5254  0.3293 -0.1170
 9126SOL     OW33213   4.170   7.605   7.769  0.2547  0.2544  0.1316
 9126SOL    HW133214   4.248   7.626   7.821  0.9992 -2.1130  0.0957
 9126SOL    HW233215   4.195   7.527   7.719 -1.4909  0.6335 -1.4240
 9127SOL     OW33216   2.049   1.491   5.425 -1.0667  0.1835 -0.0741
 9127SOL    HW133217   2.140   1.516   5.413 -0.8458 -0.3119  0.5232
 9127SOL    HW233218   2.017   1.473   5.337 -0.3579 -0.4175 -0.2136
 9128SOL     OW33219  10.053   8.960   9.808  0.0117  0.5701  0.1654
 9128SOL    HW133220  10.112   8.900   9.762  0.1823  0.7702  0.1254
 9128SOL    HW233221  10.103   9.041   9.818 -0.0614  0.5659  0.6083
 9129SOL     OW33222   8.318   2.439   2.942  0.3756 -0.5621 -0.2595
 9129SOL    HW133223   8.378   2.502   2.902  0.4075  0.6437  1.5463
 9129SOL    HW233224   8.376   2.378   2.989  0.3285  1.3806  2.6152
 9130SOL     OW33225   8.877   3.332   7.593 -0.2840  0.0497 -0.0685
 9130SOL    HW133226   8.815   3.397   7.628 -1.0669  0.5240 -2.2059
 9130SOL    HW233227   8.962   3.360   7.627 -0.5532  2.4357 -1.1428
 9131SOL     OW33228   1.957   3.493   6.067  0.2895  0.4503  0.3897
 9131SOL    HW133229   1.913   3.468   6.149 -0.9060  1.2616  0.0199
 9131SOL    HW233230   1.950   3.415   6.012  1.5438 -0.2778  1.2086
 9132SOL     OW33231   1.528   0.050   1.988  0.1332  0.5896  0.4384
 9132SOL    HW133232   1.555   0.072   1.899 -1.0118  0.2401 -0.0180
 9132SOL    HW233233   1.603   0.072   2.043  1.3355 -0.3607 -0.7634
 9133SOL     OW33234   9.689   7.428   0.618  0.0637 -0.6453 -0.2060
 9133SOL    HW133235   9.771   7.380   0.604  1.2406  1.1742  0.0954
 9133SOL    HW233236   9.705   7.481   0.696 -1.6705 -0.7486  0.2672
 9134SOL     OW33237   7.622   5.343  10.211  0.3200  0.5503  0.3906
 9134SOL    HW133238   7.589   5.299  10.132 -1.3913  0.5475  1.0652
 9134SOL    HW233239   7.706   5.380  10.185  0.5057 -0.7590 -0.9929
 9135SOL     OW33240   0.945   8.622   3.645 -0.2666 -0.2003  0.4058
 9135SOL    HW133241   0.873   8.569   3.612  0.1944  0.0668 -1.1072
 9135SOL    HW233242   0.903   8.686   3.702 -0.9162 -1.6325  1.5989
 9136SOL     OW33243  10.268   2.372   8.996 -0.2435 -0.4804  0.2837
 9136SOL    HW133244  10.338   2.314   8.965 -0.4418 -0.5160 -0.1126
 9136SOL    HW233245  10.190   2.317   8.999 -0.4085 -0.2662  0.0150
 9137SOL     OW33246   4.308   7.980   8.371 -0.1728 -0.1634 -0.6007
 9137SOL    HW133247   4.262   7.897   8.371 -0.3443 -0.0667 -0.2659
 9137SOL    HW233248   4.338   7.992   8.461  0.9178 -0.4542 -0.9001
 9138SOL     OW33249   5.180   7.074   6.922  0.2854  0.1813  0.0797
 9138SOL    HW133250   5.087   7.052   6.934  0.8537 -1.3856  2.3248
 9138SOL    HW233251   5.195   7.146   6.983  0.6075  0.1952 -0.0154
 9139SOL     OW33252  10.611  10.560   5.856  0.4265 -0.0612  0.0134
 9139SOL    HW133253  10.520  10.534   5.869  0.0546  1.7606  1.4139
 9139SOL    HW233254  10.615  10.585   5.764 -0.7993  0.8797  0.1837
 9140SOL     OW33255   4.170   6.107   5.501  0.1941 -0.2994 -0.3136
 9140SOL    HW133256   4.230   6.086   5.429  0.2701  0.8631 -0.6116
 9140SOL    HW233257   4.114   6.030   5.509  0.1083 -0.4059 -1.7025
 9141SOL     OW33258   7.348   3.946   2.072  0.2338  0.0510 -0.3666
 9141SOL    HW133259   7.284   3.899   2.125  0.8780 -0.2575  0.1325
 9141SOL    HW233260   7.428   3.894   2.076  1.1096  1.4098  0.5921
 9142SOL     OW33261   7.496   7.470   7.537 -0.1351 -0.0683  0.4744
 9142SOL    HW133262   7.476   7.480   7.631  0.8024  1.2128  0.5661
 9142SOL    HW233263   7.413   7.442   7.498 -0.7182  0.0425  1.5905
 9143SOL     OW33264   6.014   4.500   0.124  0.2423  0.0745 -0.6333
 9143SOL    HW133265   5.985   4.583   0.161 -0.6587 -0.3379 -0.3959
 9143SOL    HW233266   6.020   4.441   0.199  0.2489 -0.2512 -0.8872
 9144SOL     OW33267   1.329  10.035   3.083  0.0947  0.0347 -0.1556
 9144SOL    HW133268   1.344   9.941   3.085  0.3761  0.0577 -0.8439
 9144SOL    HW233269   1.371  10.068   3.162  1.2914 -0.2461 -0.6476
 9145SOL     OW33270   4.171  10.412   6.691 -0.0707 -0.0464 -0.3113
 9145SOL    HW133271   4.089  10.439   6.732 -1.1269  1.3081 -3.0760
 9145SOL    HW233272   4.229  10.487   6.702  0.5614 -0.6594  0.8300
 9146SOL     OW33273   5.501   8.740   2.602  0.6042  0.2604  1.2736
 9146SOL    HW133274   5.459   8.826   2.606 -1.4249 -0.5641 -0.4298
 9146SOL    HW233275   5.584   8.756   2.556 -0.7757  1.0271 -1.1301
 9147SOL     OW33276   4.385  10.088  10.078  0.9315 -0.6907 -0.5806
 9147SOL    HW133277   4.388  10.047   9.991 -0.5427  0.5347 -1.2560
 9147SOL    HW233278   4.316  10.154  10.071  0.7191 -0.6216  1.5710
 9148SOL     OW33279  10.086   3.975   1.158 -0.3105 -0.2711 -0.0586
 9148SOL    HW133280  10.042   3.999   1.239  1.0355  1.3998  0.2324
 9148SOL    HW233281  10.175   4.010   1.167 -0.4169  0.9292 -2.6581
 9149SOL     OW33282   7.027   2.134   3.378  0.2233  0.5930  0.1834
 9149SOL    HW133283   7.008   2.084   3.298  2.2724  0.1060 -0.0467
 9149SOL    HW233284   6.975   2.090   3.445  1.3680 -1.4480 -0.1676
 9150SOL     OW33285   9.869   6.005   9.939  0.3705 -0.2372 -0.0105
 9150SOL    HW133286   9.842   6.041  10.023 -0.8585 -0.4397 -0.3044
 9150SOL    HW233287   9.788   5.995   9.889  0.8175 -2.0549 -0.4671
 9151SOL     OW33288   1.938   1.954   4.976 -0.3199  0.2441 -0.1503
 9151SOL    HW133289   1.981   2.030   4.938 -0.2211  0.6787  0.7914
 9151SOL    HW233290   1.941   1.970   5.070 -1.8330 -0.0956 -0.0121
 9152SOL     OW33291   3.825   7.109   0.495  0.1774 -0.1328 -0.0472
 9152SOL    HW133292   3.789   7.020   0.483  0.9520 -0.4361 -0.1530
 9152SOL    HW233293   3.911   7.106   0.454  1.1941 -0.0121  1.9316
 9153SOL     OW33294   6.837   2.004   4.132  0.2045 -0.1282  0.3037
 9153SOL    HW133295   6.847   1.926   4.076 -0.0298  0.9042 -1.2440
 9153SOL    HW233296   6.848   1.971   4.221  0.1907 -1.9212 -0.3132
 9154SOL     OW33297   9.274   9.449   4.451 -0.0063  0.1217  0.5428
 9154SOL    HW133298   9.321   9.368   4.475  1.4538  0.8185  0.1488
 9154SOL    HW233299   9.336   9.497   4.397 -0.7161  1.6827  1.0573
 9155SOL     OW33300   4.485   4.401   7.745 -0.1757  0.0008  0.3889
 9155SOL    HW133301   4.442   4.480   7.710  0.2530 -0.1761 -0.5829
 9155SOL    HW233302   4.519   4.428   7.830 -0.3370  0.7680  0.2218
 9156SOL     OW33303   4.117   8.358  10.192  0.6503 -0.1901 -0.6067
 9156SOL    HW133304   4.206   8.327  10.206  0.4408 -1.8111 -2.4317
 9156SOL    HW233305   4.127   8.447  10.158  1.8202 -1.3674 -3.6625
 9157SOL     OW33306   2.457   3.021   8.336  0.0447  0.2758  0.0009
 9157SOL    HW133307   2.447   3.077   8.413 -2.0135 -1.3615  1.0185
 9157SOL    HW233308   2.374   2.974   8.329  0.6230 -0.5429 -2.5164
 9158SOL     OW33309  10.840   4.063   8.994  0.1708  0.5095 -0.2191
 9158SOL    HW133310  10.798   4.122   8.932 -1.3711 -0.0381  0.2499
 9158SOL    HW233311  10.922   4.107   9.018  0.5286  0.9850 -2.1801
 9159SOL     OW33312   3.216   8.345   6.179 -0.1036 -0.1178  0.7816
 9159SOL    HW133313   3.211   8.438   6.158  0.4216 -0.3531 -0.4560
 9159SOL    HW233314   3.309   8.324   6.175 -0.1971 -0.6637  1.2548
 9160SOL     OW33315   7.281   9.027   5.554  0.4984  0.3482 -0.0973
 9160SOL    HW133316   7.276   9.040   5.649  2.1280  1.1325 -0.0943
 9160SOL    HW233317   7.263   8.934   5.542 -0.3429  0.3660  0.9202
 9161SOL     OW33318   0.645   3.965   4.645  0.1845  0.0124 -0.0918
 9161SOL    HW133319   0.556   3.959   4.680  0.9624  1.5956  2.4601
 9161SOL    HW233320   0.656   4.058   4.623  1.3298 -0.0566  0.1122
 9162SOL     OW33321   9.342   3.682   5.538  0.0448  0.4546  0.2790
 9162SOL    HW133322   9.334   3.597   5.495 -1.1662  0.0157  1.2946
 9162SOL    HW233323   9.419   3.675   5.594 -1.0835 -0.6977  1.7974
 9163SOL     OW33324   0.254   9.545   5.944 -0.0531  0.3867 -0.1717
 9163SOL    HW133325   0.205   9.531   6.025 -1.3222  1.5617 -0.6903
 9163SOL    HW233326   0.202   9.501   5.877  0.0498  0.9200 -0.6028
 9164SOL     OW33327   6.214   2.825   4.423  0.0380  0.2914  0.3421
 9164SOL    HW133328   6.230   2.742   4.378  0.5107  0.9661 -0.7902
 9164SOL    HW233329   6.235   2.891   4.358 -0.7310  1.3034  1.0966
 9165SOL     OW33330   5.067  10.191   9.259 -0.2953 -0.0836  0.0645
 9165SOL    HW133331   5.148  10.192   9.310  0.2609  2.2407 -0.7677
 9165SOL    HW233332   4.999  10.217   9.321 -0.5946 -2.6550  0.9295
 9166SOL     OW33333   7.411   4.942   4.568  0.2125 -0.2381  0.2295
 9166SOL    HW133334   7.504   4.930   4.590  0.7057  0.3506 -1.3229
 9166SOL    HW233335   7.392   4.872   4.506  0.4538  1.2187 -1.5988
 9167SOL     OW33336   5.350   5.200   8.514  0.2165  0.0673  0.4904
 9167SOL    HW133337   5.358   5.224   8.607 -1.3578 -0.7378  0.8615
 9167SOL    HW233338   5.433   5.156   8.494  0.8841  0.9231  1.2953
 9168SOL     OW33339   2.739   9.148   0.935  0.5248  0.2780 -0.1395
 9168SOL    HW133340   2.703   9.069   0.894  0.4632 -0.0509  0.5170
 9168SOL    HW233341   2.688   9.157   1.016 -0.0238  1.4658 -0.5904
 9169SOL     OW33342   4.616   6.572   1.136  0.6260 -0.0759 -0.5022
 9169SOL    HW133343   4.549   6.585   1.203 -1.4759  1.2954 -2.7506
 9169SOL    HW233344   4.639   6.479   1.144 -0.2257 -0.1725  1.4589
 9170SOL     OW33345   8.059   2.042   2.462  0.1212 -0.1074  0.3210
 9170SOL    HW133346   8.032   2.099   2.391  0.6300 -0.3320 -0.0624
 9170SOL    HW233347   8.142   2.078   2.493 -0.7869  0.8269  1.7719
 9171SOL     OW33348   9.056   1.453  10.061 -0.0848  0.3479  0.1244
 9171SOL    HW133349   9.072   1.459   9.967  1.1039  0.9099  0.3533
 9171SOL    HW233350   9.103   1.527  10.099 -0.7148  0.2483  1.1486
 9172SOL     OW33351   0.217  10.891   4.321 -0.1891 -0.2608 -0.0412
 9172SOL    HW133352   0.239  10.799   4.331  2.9332  0.3709 -0.1018
 9172SOL    HW233353   0.247  10.913   4.232 -0.2738  0.9479  0.2164
 9173SOL     OW33354   7.596   1.004   5.945 -0.0660  0.1972 -0.5684
 9173SOL    HW133355   7.568   1.089   5.910 -0.0740  0.4432  0.0168
 9173SOL    HW233356   7.527   0.944   5.919  0.4595  0.1420 -1.9065
 9174SOL     OW33357   3.270   9.010   6.080 -0.1416 -0.2706 -0.2092
 9174SOL    HW133358   3.233   8.968   6.158  0.9077 -1.5490 -0.3524
 9174SOL    HW233359   3.208   8.990   6.011 -1.5194  1.5996  0.4208
 9175SOL     OW33360   8.320   6.664   0.525 -0.0276  0.2872 -0.6261
 9175SOL    HW133361   8.391   6.722   0.553  0.6423 -0.4329 -0.8076
 9175SOL    HW233362   8.311   6.681   0.431 -1.0507  1.3875 -0.3488
 9176SOL     OW33363   3.751   1.581   6.549 -0.4787  0.1887  0.3867
 9176SOL    HW133364   3.802   1.654   6.514 -1.9804  1.4669  0.7793
 9176SOL    HW233365   3.740   1.523   6.474  0.6211  0.4000  0.0349
 9177SOL     OW33366   9.883   8.072   6.044 -0.0095  0.1273  0.2566
 9177SOL    HW133367   9.949   8.023   6.094  0.7814 -0.7617 -1.5414
 9177SOL    HW233368   9.871   8.153   6.093 -1.9563 -2.0547  3.8443
 9178SOL     OW33369   3.750  10.516   2.097  0.4555  0.0139 -0.2192
 9178SOL    HW133370   3.765  10.556   2.183 -0.7809  1.5497 -0.6715
 9178SOL    HW233371   3.838  10.505   2.060  0.8830  2.9657 -0.3153
 9179SOL     OW33372   4.729   9.566   3.847  0.6119 -0.1180  0.0003
 9179SOL    HW133373   4.698   9.562   3.756  1.2231  2.1318 -0.3581
 9179SOL    HW233374   4.750   9.658   3.862 -0.5760 -0.1876  2.8235
 9180SOL     OW33375   1.433   6.294   7.209 -0.2228 -0.1981  0.0691
 9180SOL    HW133376   1.474   6.207   7.205  1.2336  0.3942  1.2048
 9180SOL    HW233377   1.377   6.290   7.286  0.1631 -0.0204  0.3650
 9181SOL     OW33378   8.689   3.373   2.622  0.1012  0.0531 -0.0217
 9181SOL    HW133379   8.766   3.340   2.668  1.5644  0.3653 -2.0892
 9181SOL    HW233380   8.676   3.461   2.657 -0.1069 -0.4458  1.2132
 9182SOL     OW33381   0.339   8.501   8.211 -0.2483 -0.3602 -0.3954
 9182SOL    HW133382   0.355   8.574   8.150 -0.9255  0.2101  0.1000
 9182SOL    HW233383   0.408   8.438   8.190 -0.4073 -0.1320 -1.6925
 9183SOL     OW33384   8.335   3.783   6.377 -0.5531 -0.3429  0.7282
 9183SOL    HW133385   8.314   3.817   6.290 -0.8347  1.1987  1.3610
 9183SOL    HW233386   8.409   3.724   6.363  0.4690  1.1152 -0.3793
 9184SOL     OW33387   0.931   1.928   2.212  0.2356 -0.4322 -0.2748
 9184SOL    HW133388   0.907   2.008   2.165  2.2359 -0.1399 -0.8793
 9184SOL    HW233389   0.906   1.945   2.303 -0.1637  0.5151 -0.5546
 9185SOL     OW33390   4.489   7.006   6.979 -0.4701  0.1335 -0.3382
 9185SOL    HW133391   4.404   6.996   6.936 -0.8655  0.3505  0.3830
 9185SOL    HW233392   4.491   7.096   7.011 -0.6569 -0.3286  1.0592
 9186SOL     OW33393   7.168   2.140   1.234 -0.1128 -0.1793 -1.2344
 9186SOL    HW133394   7.112   2.154   1.158  0.5645 -1.2521 -1.9586
 9186SOL    HW233395   7.223   2.218   1.238  0.3353 -0.4223 -2.2901
 9187SOL     OW33396   8.513   0.326   5.847 -0.0730 -0.2763 -0.3901
 9187SOL    HW133397   8.604   0.350   5.866 -0.0789 -0.3318 -0.2933
 9187SOL    HW233398   8.503   0.238   5.885 -0.3185 -0.0584  0.0610
 9188SOL     OW33399   1.643   8.814   7.478  0.1728  0.5548 -0.4247
 9188SOL    HW133400   1.663   8.830   7.570 -0.9482  0.0328 -0.0742
 9188SOL    HW233401   1.729   8.810   7.436  0.8076 -0.9062  0.8967
 9189SOL     OW33402   3.536   6.259   0.307  0.7816 -0.2726 -0.1506
 9189SOL    HW133403   3.440   6.260   0.318  0.9693 -0.5983  1.9781
 9189SOL    HW233404   3.556   6.171   0.277  0.3851  0.0188 -1.3454
 9190SOL     OW33405   8.967   6.230   1.775  0.2573 -0.2834 -0.1068
 9190SOL    HW133406   8.965   6.134   1.780  2.2421 -0.3615 -0.0342
 9190SOL    HW233407   9.036   6.256   1.836 -1.0590  1.3062  0.7762
 9191SOL     OW33408   3.519   2.824  10.711  0.1348  0.5203 -0.7405
 9191SOL    HW133409   3.570   2.841  10.632  0.4060  2.4774 -0.1843
 9191SOL    HW233410   3.562   2.876  10.779 -0.5179 -0.5650  0.5529
 9192SOL     OW33411   0.037   4.977   8.258  0.2395  0.2128 -0.1757
 9192SOL    HW133412  -0.032   5.002   8.320  0.6012  0.7458  0.0126
 9192SOL    HW233413   0.073   5.060   8.228  0.0019 -0.0420 -1.1812
 9193SOL     OW33414   9.883   5.901   1.907  0.0226  0.3623 -0.3735
 9193SOL    HW133415   9.791   5.911   1.929  0.3889 -2.1953  3.2020
 9193SOL    HW233416   9.921   5.988   1.922 -1.0427  0.3814  3.2569
 9194SOL     OW33417   9.444   1.511   6.870  0.1215  0.1469  0.7785
 9194SOL    HW133418   9.427   1.417   6.875 -0.4228  0.2820  1.7576
 9194SOL    HW233419   9.371   1.551   6.917  1.0347  0.9827  1.5329
 9195SOL     OW33420   8.678   9.237   7.760  0.3033 -0.2033  0.7287
 9195SOL    HW133421   8.584   9.230   7.773  0.4916 -0.5155  2.1080
 9195SOL    HW233422   8.695   9.195   7.676 -1.0678  1.9865 -0.7609
 9196SOL     OW33423   3.587   1.493   5.049  0.3107 -0.6512 -0.4903
 9196SOL    HW133424   3.628   1.407   5.035  1.4565 -0.2469  0.2482
 9196SOL    HW233425   3.536   1.482   5.129 -0.9671 -1.1214 -1.3454
 9197SOL     OW33426   0.259   8.421   3.452  0.8849 -0.7639  0.5589
 9197SOL    HW133427   0.219   8.387   3.372 -0.1489 -1.2850  1.2759
 9197SOL    HW233428   0.197   8.398   3.521  1.1685  0.7655  1.3506
 9198SOL     OW33429   9.180   8.642   4.964  0.3190 -0.3086  0.0464
 9198SOL    HW133430   9.180   8.554   5.002 -0.0522  0.4470  1.8839
 9198SOL    HW233431   9.124   8.635   4.887  1.9460 -2.1417 -1.0681
 9199SOL     OW33432   1.695   4.755   7.613 -0.1358  0.1950  0.3680
 9199SOL    HW133433   1.606   4.724   7.631 -0.6198  1.6971  0.7698
 9199SOL    HW233434   1.683   4.847   7.588  1.1003 -0.1789 -1.8814
 9200SOL     OW33435   1.381   3.400  10.691 -0.8364  0.1397  0.0246
 9200SOL    HW133436   1.307   3.443  10.735 -0.8744  0.8106 -0.6612
 9200SOL    HW233437   1.407   3.462  10.623  0.4192 -0.0435  0.3044
 9201SOL     OW33438   4.892   7.373   7.891  0.3077  0.1222  0.1403
 9201SOL    HW133439   4.938   7.418   7.963  0.7895 -1.3925  0.8226
 9201SOL    HW233440   4.811   7.341   7.931  0.4131 -0.4266 -0.0777
 9202SOL     OW33441   5.274   0.461   2.599  0.3237 -0.4930 -0.3322
 9202SOL    HW133442   5.364   0.489   2.616  0.4676 -0.2158 -1.4448
 9202SOL    HW233443   5.253   0.401   2.671  1.4952 -0.7711 -0.2017
 9203SOL     OW33444   2.837   7.608   7.612  0.1236  0.3209  0.2232
 9203SOL    HW133445   2.888   7.600   7.531  0.3676 -0.3855  0.4341
 9203SOL    HW233446   2.824   7.517   7.640 -1.2583  0.4876  0.1726
 9204SOL     OW33447   6.929   7.512   8.802 -0.0876  0.1501  0.1557
 9204SOL    HW133448   7.000   7.459   8.766 -2.0711 -3.2942  0.8097
 9204SOL    HW233449   6.946   7.516   8.896  0.5644  1.5973 -0.0085
 9205SOL     OW33450   3.929   0.327   7.720  0.1857  0.1144 -0.2860
 9205SOL    HW133451   3.837   0.307   7.701  0.6607 -2.2928 -0.3475
 9205SOL    HW233452   3.931   0.341   7.814 -0.2659  0.3039 -0.3009
 9206SOL     OW33453   1.797   8.815  10.220 -0.3982  0.2320  0.4452
 9206SOL    HW133454   1.713   8.828  10.177 -0.5596 -1.4867  0.1389
 9206SOL    HW233455   1.779   8.748  10.287  0.0586  2.1305  2.5696
 9207SOL     OW33456   8.950   2.363   0.449  0.3214 -0.1509 -0.1576
 9207SOL    HW133457   8.895   2.354   0.527  0.5242  0.0794  0.0110
 9207SOL    HW233458   9.030   2.315   0.471 -0.7304 -2.6206 -1.2964
 9208SOL     OW33459   0.984   7.509   9.101 -0.2670 -0.0945 -0.1861
 9208SOL    HW133460   1.052   7.469   9.047  0.0203  0.1389 -0.0033
 9208SOL    HW233461   0.999   7.472   9.188  1.9053  2.5800  0.7149
 9209SOL     OW33462   2.849   4.608   5.375  0.5085  0.5171  0.6242
 9209SOL    HW133463   2.813   4.587   5.288  1.2335 -0.2561  0.4977
 9209SOL    HW233464   2.935   4.567   5.375  0.7028  0.9163  1.5436
 9210SOL     OW33465   8.036   3.860   9.692  0.0960  0.1148 -0.1021
 9210SOL    HW133466   7.973   3.919   9.650  1.6722  1.2272 -1.0076
 9210SOL    HW233467   8.088   3.825   9.619  1.1011 -0.0968  0.6973
 9211SOL     OW33468   0.383   9.333   6.352 -0.2048 -0.4679  0.1791
 9211SOL    HW133469   0.452   9.279   6.314  1.2895  0.7062  1.0976
 9211SOL    HW233470   0.364   9.291   6.436 -0.6256 -0.7996 -0.0807
 9212SOL     OW33471   5.755   7.112   6.899 -0.5613 -0.5898  0.2315
 9212SOL    HW133472   5.676   7.063   6.879  0.4036 -1.3435 -2.0124
 9212SOL    HW233473   5.741   7.198   6.860 -0.0432 -0.9392 -0.7545
 9213SOL     OW33474   8.247  10.604   4.431  0.1300  0.4618  0.1145
 9213SOL    HW133475   8.217  10.519   4.397  0.9659  0.9858 -2.0914
 9213SOL    HW233476   8.335  10.614   4.396  0.2277  2.0424  0.7527
 9214SOL     OW33477  10.565   1.758  10.603  0.1397 -0.4790  0.5219
 9214SOL    HW133478  10.582   1.790  10.514 -1.8905  0.8719  0.5548
 9214SOL    HW233479  10.577   1.663  10.597 -0.5592 -0.4994 -1.3519
 9215SOL     OW33480   9.773   8.093   3.274  0.3599  0.2113 -0.8969
 9215SOL    HW133481   9.731   8.075   3.190  0.3066 -2.5868 -0.3425
 9215SOL    HW233482   9.866   8.081   3.257  0.1873 -3.0377 -0.0555
 9216SOL     OW33483   0.191   3.317   0.945 -0.3766 -0.0005 -0.6011
 9216SOL    HW133484   0.240   3.344   1.023 -1.1215 -0.8757  0.1976
 9216SOL    HW233485   0.250   3.259   0.898 -0.2742 -0.2548 -0.1643
 9217SOL     OW33486   7.080   1.737   9.104  0.2824 -0.4884 -0.4317
 9217SOL    HW133487   7.171   1.749   9.078  0.3305  0.7489  0.1971
 9217SOL    HW233488   7.084   1.701   9.193  0.1763  0.1388 -0.1663
 9218SOL     OW33489  10.566   6.320   9.623  0.1952  0.5264  0.4439
 9218SOL    HW133490  10.483   6.310   9.670 -0.0102  0.2447  0.0242
 9218SOL    HW233491  10.544   6.371   9.545  0.6861  1.7095  1.0402
 9219SOL     OW33492  10.562   1.208   4.383 -0.3520 -0.4057  0.3130
 9219SOL    HW133493  10.629   1.139   4.388  1.1754  0.8781 -1.1641
 9219SOL    HW233494  10.515   1.202   4.466  1.4345 -1.5309  1.3063
 9220SOL     OW33495   1.575   2.032   8.687 -0.2368 -0.4856  0.8466
 9220SOL    HW133496   1.545   2.021   8.596 -0.6686  0.9340  0.7927
 9220SOL    HW233497   1.509   2.088   8.727 -0.1528 -1.2717  2.1143
 9221SOL     OW33498   2.324   6.694   2.065  0.1761  0.3800  0.1031
 9221SOL    HW133499   2.408   6.706   2.020 -0.4330  2.3085 -0.6166
 9221SOL    HW233500   2.267   6.762   2.028 -0.9241  0.8216  2.4293
 9222SOL     OW33501   3.159   8.656   3.692 -0.6849 -0.2834 -0.1121
 9222SOL    HW133502   3.204   8.703   3.622  0.3089 -0.2649  0.5100
 9222SOL    HW233503   3.101   8.721   3.731  1.5693  0.8981  1.5422
 9223SOL     OW33504   8.595   9.446  10.576  0.1996 -0.3055 -0.3012
 9223SOL    HW133505   8.531   9.500  10.530 -1.0018 -1.2718  0.1940
 9223SOL    HW233506   8.568   9.356  10.559  1.5705 -0.7518 -0.2687
 9224SOL     OW33507   8.446   2.715   9.299  0.4054  0.7217  0.5285
 9224SOL    HW133508   8.380   2.743   9.362 -0.0749  1.0541 -0.1015
 9224SOL    HW233509   8.529   2.748   9.333  0.4579 -0.8073  2.0093
 9225SOL     OW33510   1.976  10.893   1.624 -0.1854 -0.3175 -0.1544
 9225SOL    HW133511   1.937  10.806   1.623 -0.2682 -0.2747 -0.4554
 9225SOL    HW233512   1.944  10.936   1.545  2.3209 -1.1056 -1.7177
 9226SOL     OW33513   5.670   0.207  10.035  0.1654  0.0598  0.2190
 9226SOL    HW133514   5.592   0.159  10.063  0.9486 -0.4809  1.5401
 9226SOL    HW233515   5.737   0.140  10.026  0.1211  0.2756 -2.5135
 9227SOL     OW33516   7.925  10.880   9.036  0.7903 -0.1092 -0.1452
 9227SOL    HW133517   7.904  10.973   9.048 -0.0212 -0.1337 -1.1707
 9227SOL    HW233518   7.840  10.836   9.041  1.2959 -0.9518  1.4832
 9228SOL     OW33519  10.676   4.340   2.176 -0.2646  0.5496 -0.1246
 9228SOL    HW133520  10.729   4.366   2.252 -1.5039  1.1959  0.5607
 9228SOL    HW233521  10.612   4.280   2.212  1.0041 -1.5875 -1.2592
 9229SOL     OW33522   5.860   3.942   2.264 -0.0611 -0.0779 -0.8929
 9229SOL    HW133523   5.902   3.902   2.188  1.9067  0.3147 -0.0625
 9229SOL    HW233524   5.923   4.006   2.296  0.6722 -2.4178  2.9655
 9230SOL     OW33525   2.779   1.122   3.042  0.0863  0.4927 -0.5439
 9230SOL    HW133526   2.687   1.095   3.044  0.8649 -2.4510 -0.2874
 9230SOL    HW233527   2.818   1.068   2.974  1.7798  1.2382 -0.1988
 9231SOL     OW33528   3.747   9.395   5.219  0.1358  0.0206 -0.1613
 9231SOL    HW133529   3.712   9.315   5.179  2.0479 -2.0702  2.0781
 9231SOL    HW233530   3.682   9.419   5.285  0.3622 -0.7026  0.3329
 9232SOL     OW33531   4.761   0.610   3.643  0.3861 -0.0140  0.0618
 9232SOL    HW133532   4.673   0.633   3.674 -0.4690 -3.0068  0.1939
 9232SOL    HW233533   4.753   0.606   3.548  1.0111  1.7718 -0.1079
 9233SOL     OW33534   2.323   4.265   9.455 -0.5926  0.4598  0.1703
 9233SOL    HW133535   2.384   4.196   9.427 -0.7530  0.7949 -1.0862
 9233SOL    HW233536   2.297   4.240   9.543 -1.7612 -1.9041 -0.7541
 9234SOL     OW33537   0.306   7.400   1.281 -0.0576  0.0013 -0.2777
 9234SOL    HW133538   0.375   7.432   1.223  1.5338 -2.1588  0.2951
 9234SOL    HW233539   0.351   7.382   1.364 -1.3206 -1.3783  0.1482
 9235SOL     OW33540   4.256   2.334   9.787  0.0553  0.5361 -0.3137
 9235SOL    HW133541   4.325   2.295   9.734 -1.1645 -1.8695 -0.2754
 9235SOL    HW233542   4.263   2.289   9.872 -0.9197  0.9749  0.0137
 9236SOL     OW33543   2.785   3.736   5.107  0.7783  0.1064  0.0819
 9236SOL    HW133544   2.721   3.793   5.064  0.9421  0.1891 -0.0523
 9236SOL    HW233545   2.814   3.677   5.038 -1.4224 -1.9917  0.8163
 9237SOL     OW33546   0.328   4.718   1.115 -0.4356 -0.4446 -0.1944
 9237SOL    HW133547   0.252   4.741   1.168 -0.2062  1.1905 -0.5083
 9237SOL    HW233548   0.320   4.775   1.038  0.2272 -1.4429 -1.0103
 9238SOL     OW33549   1.190  10.812   3.174 -0.0364  0.1093 -0.1762
 9238SOL    HW133550   1.274  10.854   3.160  0.9449 -0.8180  2.3355
 9238SOL    HW233551   1.209  10.739   3.234 -2.5928 -0.1926  0.3911
 9239SOL     OW33552   6.385   6.725   9.613  0.0036  0.1563 -0.6653
 9239SOL    HW133553   6.473   6.689   9.603 -0.2537 -0.7195  0.1191
 9239SOL    HW233554   6.387   6.771   9.697 -0.7287 -1.2616  0.1649
 9240SOL     OW33555   1.103   5.182   0.870  0.5954  0.2727 -0.7093
 9240SOL    HW133556   1.176   5.124   0.848  0.0383 -1.2378  1.1262
 9240SOL    HW233557   1.126   5.219   0.956 -0.4379  0.3319 -0.4358
 9241SOL     OW33558   0.208   8.563   7.934  0.0103  0.3226 -0.1394
 9241SOL    HW133559   0.253   8.630   7.884 -1.1433  2.2543  1.2351
 9241SOL    HW233560   0.121   8.600   7.949 -0.6662 -1.5011  0.6927
 9242SOL     OW33561   2.110  10.924   6.040 -0.8038 -1.0166 -0.5018
 9242SOL    HW133562   2.136  10.837   6.009  0.1467 -0.4522 -1.3795
 9242SOL    HW233563   2.030  10.944   5.991  0.0173 -0.6368 -1.7270
 9243SOL     OW33564   8.609   5.651   6.922 -0.3575 -0.4422  0.2196
 9243SOL    HW133565   8.526   5.682   6.886  0.4869  0.9897 -0.6055
 9243SOL    HW233566   8.676   5.691   6.866  0.8891 -2.3827  0.1949
 9244SOL     OW33567   9.410   2.632   2.410  0.2809 -0.3154  0.3522
 9244SOL    HW133568   9.324   2.596   2.432 -0.5357  1.8218  0.8337
 9244SOL    HW233569   9.398   2.726   2.411  2.6166  0.0383  0.2895
 9245SOL     OW33570   8.825   2.590   7.486  0.2015 -0.1941  0.1934
 9245SOL    HW133571   8.868   2.663   7.532  0.2429  0.5730 -1.0041
 9245SOL    HW233572   8.741   2.626   7.457  0.3867 -0.4935 -0.7444
 9246SOL     OW33573   5.352   5.959   0.702 -0.5135 -0.1208 -0.1236
 9246SOL    HW133574   5.258   5.977   0.700 -0.7259 -1.3014 -1.8552
 9246SOL    HW233575   5.360   5.865   0.687  0.9515 -0.0955  0.2892
 9247SOL     OW33576   5.269   9.940   5.177  0.9845  0.1385  0.0004
 9247SOL    HW133577   5.340   9.931   5.241 -0.4090 -0.8445  1.4964
 9247SOL    HW233578   5.204   9.995   5.221  0.0572 -0.4244 -0.6241
 9248SOL     OW33579   8.343   2.365   2.474  0.2275  0.0963  0.3269
 9248SOL    HW133580   8.383   2.449   2.496  1.0788 -0.7229  2.1058
 9248SOL    HW233581   8.284   2.345   2.547 -2.5508  0.6282 -1.6122
 9249SOL     OW33582   6.281   8.693   1.720 -0.0577 -0.1227 -0.1646
 9249SOL    HW133583   6.370   8.690   1.685 -0.2896 -0.8140 -0.7018
 9249SOL    HW233584   6.230   8.637   1.662 -0.6532 -0.4954  0.6994
 9250SOL     OW33585   2.214   0.888  10.754  0.2895  0.3977  0.6038
 9250SOL    HW133586   2.240   0.896  10.662  0.4050  2.9701  0.7785
 9250SOL    HW233587   2.296   0.881  10.801  0.2237 -1.1216  0.5379
 9251SOL     OW33588   8.320   1.094   6.165  0.1787  0.2227 -0.1456
 9251SOL    HW133589   8.402   1.054   6.135  1.1122  1.4696  0.6001
 9251SOL    HW233590   8.285   1.138   6.087  0.0984 -0.5014 -0.5220
 9252SOL     OW33591   2.531   7.838  10.162 -0.1491  0.1679 -0.0942
 9252SOL    HW133592   2.517   7.749  10.194 -3.2952  0.8311  0.7293
 9252SOL    HW233593   2.593   7.877  10.224  0.0894 -0.9788  0.4146
 9253SOL     OW33594   4.209  10.456  10.298 -0.2058  0.0978 -0.6784
 9253SOL    HW133595   4.170  10.535  10.262  1.3078 -0.2335 -3.3488
 9253SOL    HW233596   4.214  10.395  10.224  0.9329 -1.5822  0.6752
 9254SOL     OW33597   3.850   0.940   0.101  1.1737 -0.0320 -0.4297
 9254SOL    HW133598   3.774   0.946   0.043  0.2768 -0.4855  0.6587
 9254SOL    HW233599   3.859   1.027   0.139  0.9348 -0.0880 -0.2439
 9255SOL     OW33600  10.603   4.935   2.711 -0.1220 -0.5199  0.3646
 9255SOL    HW133601  10.679   4.893   2.752  0.6973 -0.2171 -0.7998
 9255SOL    HW233602  10.620   4.929   2.617 -2.3556 -1.9897 -0.0289
 9256SOL     OW33603   6.201   2.990  10.797  0.0062 -0.0420 -0.1614
 9256SOL    HW133604   6.138   3.017  10.863 -0.7676 -0.4639 -0.7144
 9256SOL    HW233605   6.253   3.069  10.780  0.8652 -0.1715  1.6262
 9257SOL     OW33606   9.138   7.158   2.339  0.1888 -0.2261  0.1607
 9257SOL    HW133607   9.132   7.068   2.371  0.7558 -0.2482  0.2067
 9257SOL    HW233608   9.100   7.211   2.409 -0.1873 -0.4280  0.1159
 9258SOL     OW33609   8.778   4.848   6.010 -0.1618  0.1814 -0.5625
 9258SOL    HW133610   8.698   4.841   5.958 -1.0372  0.4295  0.7043
 9258SOL    HW233611   8.772   4.935   6.050  0.4316 -0.0453  0.0331
 9259SOL     OW33612   1.551   0.398   7.430 -0.1756 -0.2396 -0.6263
 9259SOL    HW133613   1.619   0.420   7.493 -0.6323 -1.6261  0.3867
 9259SOL    HW233614   1.595   0.339   7.368 -0.0781  0.0599 -0.8463
 9260SOL     OW33615   8.586   4.880   5.019 -0.5704  0.6460  0.0983
 9260SOL    HW133616   8.580   4.872   5.114 -0.3211  1.8039  0.2270
 9260SOL    HW233617   8.617   4.969   5.004 -0.9146  0.5870 -1.0846
 9261SOL     OW33618   0.810   4.264   8.261 -0.2205  0.2982  0.1419
 9261SOL    HW133619   0.853   4.202   8.319  0.3499  0.3554 -0.2162
 9261SOL    HW233620   0.834   4.350   8.295  0.8684  0.3453 -0.7079
 9262SOL     OW33621   9.377   0.861   8.443 -0.4566 -0.2239 -0.3321
 9262SOL    HW133622   9.462   0.825   8.466  1.0794  2.4787 -1.3364
 9262SOL    HW233623   9.359   0.828   8.355 -0.2134 -0.3481 -0.3350
 9263SOL     OW33624   4.262   1.236   2.456 -0.4776  0.6253 -0.4573
 9263SOL    HW133625   4.292   1.300   2.391  0.0079  0.0941 -0.7684
 9263SOL    HW233626   4.305   1.155   2.430  1.0401  0.7511  1.4719
 9264SOL     OW33627   0.610   5.367  10.717  0.2552  0.3135  0.3708
 9264SOL    HW133628   0.526   5.370  10.672 -0.5043 -0.0542  1.7224
 9264SOL    HW233629   0.598   5.422  10.795  0.6215 -1.2454  1.5956
 9265SOL     OW33630   9.591   0.930   6.858  0.4195 -0.5307 -0.1293
 9265SOL    HW133631   9.584   0.886   6.942 -1.1996  0.5076  0.3297
 9265SOL    HW233632   9.610   1.021   6.881 -3.4454  0.5626 -0.5978
 9266SOL     OW33633   7.694   4.165   8.978 -0.3104 -0.1861 -0.0947
 9266SOL    HW133634   7.608   4.161   9.018  0.5899  0.2505  2.0386
 9266SOL    HW233635   7.740   4.088   9.011  0.0880 -0.5035 -1.3341
 9267SOL     OW33636   7.489   6.705   8.206 -0.3883 -0.1207  0.3756
 9267SOL    HW133637   7.559   6.647   8.236  0.0106  0.5468  0.7349
 9267SOL    HW233638   7.412   6.677   8.256 -0.8767 -2.0710 -1.2929
 9268SOL     OW33639   7.826   5.597   9.187  0.2629  0.3219 -0.7104
 9268SOL    HW133640   7.831   5.636   9.099 -1.1701 -0.1974 -1.0496
 9268SOL    HW233641   7.736   5.563   9.193  1.0271 -1.7302  0.0652
 9269SOL     OW33642   8.561   8.479   8.152  0.7137  1.0905 -0.2333
 9269SOL    HW133643   8.548   8.525   8.069  0.5204  2.0834  0.3365
 9269SOL    HW233644   8.594   8.546   8.212 -1.0933  0.9090  1.0547
 9270SOL     OW33645   0.173   7.614   7.055 -0.3775  0.1144 -0.5949
 9270SOL    HW133646   0.081   7.594   7.034 -0.3613  0.6149 -1.1576
 9270SOL    HW233647   0.168   7.694   7.107 -0.1242  1.4868 -2.6007
 9271SOL     OW33648   9.639   3.904  10.796 -0.5194  0.3128 -0.0308
 9271SOL    HW133649   9.620   3.810  10.800  0.6610  0.0541 -0.0479
 9271SOL    HW233650   9.600   3.940  10.875 -1.9340  0.0106 -0.5526
 9272SOL     OW33651   7.993   5.333   0.885 -0.5300  0.1867 -0.3433
 9272SOL    HW133652   7.979   5.424   0.861  2.1828  1.0203  0.9396
 9272SOL    HW233653   8.002   5.334   0.980  1.4458 -1.0880 -0.4607
 9273SOL     OW33654   2.120   8.487   4.362  0.8170 -0.0124  0.6006
 9273SOL    HW133655   2.027   8.474   4.345  1.2025 -0.8991 -0.9852
 9273SOL    HW233656   2.122   8.534   4.445 -1.0397  0.0429  0.6634
 9274SOL     OW33657   2.180   1.702   4.047 -0.7323 -0.1455 -0.5112
 9274SOL    HW133658   2.161   1.747   4.129 -0.2477  0.1430 -0.5517
 9274SOL    HW233659   2.248   1.755   4.006 -1.5901  0.2008 -1.5157
 9275SOL     OW33660   6.131   1.730   4.609  0.0601 -0.0073  0.3312
 9275SOL    HW133661   6.153   1.775   4.527  0.3765  2.5029  1.6710
 9275SOL    HW233662   6.049   1.770   4.637  0.2656 -0.3742  1.5157
 9276SOL     OW33663   2.456   2.409   9.403 -0.4931 -0.1758 -0.1823
 9276SOL    HW133664   2.398   2.478   9.372  0.9071  1.6846  1.1246
 9276SOL    HW233665   2.464   2.424   9.497 -0.1706 -2.1713  0.1574
 9277SOL     OW33666   6.889   0.880   9.929  0.1854  0.4467  0.3285
 9277SOL    HW133667   6.822   0.948   9.939  0.1128  0.3326  0.6153
 9277SOL    HW233668   6.886   0.857   9.836  0.5962  1.2303  0.1191
 9278SOL     OW33669   6.232   5.766   2.958  0.0029  0.3054 -0.3867
 9278SOL    HW133670   6.224   5.802   2.870  0.4343  0.9990 -0.1528
 9278SOL    HW233671   6.297   5.822   3.001  0.2747 -0.4176  0.1688
 9279SOL     OW33672   9.362   3.355   7.125 -0.2667  0.1832 -0.3421
 9279SOL    HW133673   9.280   3.353   7.174  0.2990 -1.1898  0.5967
 9279SOL    HW233674   9.335   3.365   7.033 -1.4380  0.4192  0.0155
 9280SOL     OW33675   8.440   2.484   1.675  0.5672  0.3241 -0.1147
 9280SOL    HW133676   8.471   2.553   1.616  2.0608  0.6572  1.0047
 9280SOL    HW233677   8.377   2.528   1.733  2.5768  1.1926  1.5410
 9281SOL     OW33678   5.614   8.015   2.948 -0.4320 -0.2924  0.0089
 9281SOL    HW133679   5.600   8.100   2.907  1.8498 -0.0225 -0.3108
 9281SOL    HW233680   5.681   8.030   3.013  1.0350 -2.0737 -0.9894
 9282SOL     OW33681   5.244   0.324   8.515 -0.5013 -0.0779  0.2501
 9282SOL    HW133682   5.209   0.393   8.571 -1.4749 -0.7429  0.4959
 9282SOL    HW233683   5.312   0.282   8.568 -2.9016 -2.1351  1.9051
 9283SOL     OW33684   8.394   1.837  10.756 -0.3943  0.2944  0.4428
 9283SOL    HW133685   8.451   1.765  10.782 -1.4514 -0.0808  1.8335
 9283SOL    HW233686   8.349   1.863  10.837 -1.1609  1.5057 -0.3317
 9284SOL     OW33687   3.500   2.702   3.560  0.8844 -0.5686  0.6844
 9284SOL    HW133688   3.588   2.718   3.527  0.7722 -1.2701  0.0112
 9284SOL    HW233689   3.476   2.782   3.606  0.9134  0.6169 -1.2693
 9285SOL     OW33690   5.224   5.229   9.453  0.1810 -0.0777  0.0008
 9285SOL    HW133691   5.274   5.262   9.378  0.0856  0.0038 -0.0264
 9285SOL    HW233692   5.169   5.159   9.416 -0.6656  0.6849 -0.2146
 9286SOL     OW33693   9.471   3.486   8.095  0.0902 -0.1363  0.1255
 9286SOL    HW133694   9.539   3.510   8.032 -0.5389  2.5522  0.3450
 9286SOL    HW233695   9.391   3.522   8.059 -0.4246  0.7450  2.0321
 9287SOL     OW33696   0.463   9.945   1.958  0.3232  0.1531 -0.0144
 9287SOL    HW133697   0.423   9.929   2.043  0.8709 -1.2030  0.0091
 9287SOL    HW233698   0.556   9.925   1.971  0.4083 -0.1036 -0.9397
 9288SOL     OW33699   6.162   2.256   2.683  0.4619 -0.0938  0.2611
 9288SOL    HW133700   6.225   2.307   2.633 -1.5923  1.2089 -1.0993
 9288SOL    HW233701   6.105   2.216   2.617  0.3987 -2.0247  1.4111
 9289SOL     OW33702   0.868   8.286   0.753 -0.0186 -0.3744  0.0145
 9289SOL    HW133703   0.898   8.202   0.788 -0.3132 -0.3908  0.2361
 9289SOL    HW233704   0.841   8.336   0.830 -0.7054 -0.4211 -0.1892
 9290SOL     OW33705   4.938   5.536   1.041 -0.2070  0.4642  0.4114
 9290SOL    HW133706   4.958   5.580   0.959  1.0480 -3.2378 -1.4874
 9290SOL    HW233707   4.936   5.607   1.106  2.9741  3.1612 -2.0401
 9291SOL     OW33708   8.315  10.296   7.417 -0.1685  0.0805  0.2440
 9291SOL    HW133709   8.267  10.379   7.407 -1.6025 -0.7765 -0.2881
 9291SOL    HW233710   8.247  10.229   7.413  1.1529 -1.2440 -1.1652
 9292SOL     OW33711   4.311   9.255   5.825  0.0035  0.2276  0.0889
 9292SOL    HW133712   4.287   9.170   5.861  0.3952  0.0062 -0.1721
 9292SOL    HW233713   4.365   9.295   5.893  1.7246 -0.6656 -0.6833
 9293SOL     OW33714   6.552   7.781   4.160 -0.3706 -0.7791  0.1120
 9293SOL    HW133715   6.485   7.713   4.152 -0.0331 -1.1443  0.3725
 9293SOL    HW233716   6.633   7.739   4.132 -0.1730 -0.4591  0.1961
 9294SOL     OW33717   2.257   3.649   7.015 -0.0764 -0.5069 -0.0455
 9294SOL    HW133718   2.343   3.669   6.979  0.1870 -0.3597  0.6600
 9294SOL    HW233719   2.275   3.594   7.092 -0.6368 -0.9278 -0.2057
 9295SOL     OW33720   0.901  10.783   6.644 -0.5286 -0.1213  0.0861
 9295SOL    HW133721   0.923  10.873   6.619  1.3432 -0.6442 -0.3378
 9295SOL    HW233722   0.847  10.793   6.722 -0.8448  1.3853 -0.2910
 9296SOL     OW33723  10.032   3.773   2.678 -0.4113  0.4051  0.0346
 9296SOL    HW133724  10.016   3.849   2.622 -4.0415 -1.3222 -1.6099
 9296SOL    HW233725   9.961   3.775   2.742 -0.0880 -1.1390  0.4768
 9297SOL     OW33726   4.606   0.059   7.977 -0.2304 -0.0567 -0.2301
 9297SOL    HW133727   4.672   0.006   8.023  0.1925  1.3738  0.8951
 9297SOL    HW233728   4.619   0.147   8.011 -3.5473  0.0839  1.0183
 9298SOL     OW33729   9.303  10.360   9.885 -0.1233 -0.2328  0.0450
 9298SOL    HW133730   9.245  10.388   9.956 -0.8754 -0.4538 -0.4668
 9298SOL    HW233731   9.274  10.410   9.809 -0.8522 -1.6485 -0.6511
 9299SOL     OW33732   5.317   1.673   8.621 -0.6227 -0.4926  0.0341
 9299SOL    HW133733   5.314   1.668   8.716 -1.2894 -0.5351  0.0118
 9299SOL    HW233734   5.364   1.755   8.603 -1.4439  0.0729  0.4036
 9300SOL     OW33735   5.802   9.153  10.738 -0.5099 -0.6616  0.7838
 9300SOL    HW133736   5.886   9.163  10.782  0.3399  2.2141 -1.2011
 9300SOL    HW233737   5.823   9.116  10.652 -0.8818  1.8330 -0.4831
 9301SOL     OW33738   9.733   5.543  10.257  0.0952 -0.1294 -0.2526
 9301SOL    HW133739   9.726   5.468  10.317 -2.3014  0.2002 -0.0248
 9301SOL    HW233740   9.764   5.504  10.174 -1.0138 -1.3974 -0.1138
 9302SOL     OW33741   7.298   3.497   7.000 -0.6031 -0.1219 -0.5315
 9302SOL    HW133742   7.277   3.409   7.031 -2.0552  0.8946  1.6571
 9302SOL    HW233743   7.387   3.513   7.031 -0.4697 -0.6748 -0.6209
 9303SOL     OW33744   0.706   8.285   2.093  0.4803 -0.4271 -0.1817
 9303SOL    HW133745   0.767   8.307   2.023  2.2464 -1.2375  1.0073
 9303SOL    HW233746   0.676   8.197   2.071  2.2857 -1.3569  0.8109
 9304SOL     OW33747   2.394   8.817   9.295 -0.1553  0.0932 -0.6430
 9304SOL    HW133748   2.321   8.854   9.346 -0.8406  0.0652 -1.5669
 9304SOL    HW233749   2.365   8.728   9.275 -0.4241  0.4618 -2.0219
 9305SOL     OW33750   2.859   9.759   4.005 -0.0465  0.0073  0.0300
 9305SOL    HW133751   2.835   9.834   4.059 -0.1793  0.0732 -0.1179
 9305SOL    HW233752   2.944   9.784   3.967 -0.5828  0.5501 -0.8639
 9306SOL     OW33753   7.316   4.999   0.388  0.2276 -0.3726 -0.5367
 9306SOL    HW133754   7.350   5.075   0.436 -0.9654 -0.0473 -0.1678
 9306SOL    HW233755   7.230   4.982   0.427 -0.1794 -0.9752 -1.6364
 9307SOL     OW33756   7.394   5.566  10.584  0.3008 -0.4536 -0.6079
 9307SOL    HW133757   7.453   5.639  10.568  0.2462 -0.1758  0.3662
 9307SOL    HW233758   7.402   5.510  10.507  0.7964  0.2762 -1.0888
 9308SOL     OW33759   6.765   1.570   8.082  0.4867  0.2608 -0.2343
 9308SOL    HW133760   6.683   1.571   8.131  0.0675  2.6571 -0.8249
 9308SOL    HW233761   6.739   1.564   7.990  1.0440 -0.1381 -0.3737
 9309SOL     OW33762   4.447  10.406   8.717  0.6652  0.1116 -0.4728
 9309SOL    HW133763   4.429  10.313   8.703 -2.6564  0.5654 -0.0809
 9309SOL    HW233764   4.450  10.443   8.628  0.6508 -0.1863 -0.5991
 9310SOL     OW33765  10.792   1.704   2.345 -0.2101 -0.4406 -0.2862
 9310SOL    HW133766  10.847   1.781   2.355  0.3876 -0.9499  0.4801
 9310SOL    HW233767  10.760   1.685   2.433  0.0591 -1.3522 -0.3693
 9311SOL     OW33768   4.859  10.331   4.846  0.3998  0.1510 -0.0513
 9311SOL    HW133769   4.824  10.252   4.806 -0.8105  0.7656 -0.2318
 9311SOL    HW233770   4.847  10.317   4.940 -0.9172  0.6019 -0.1320
 9312SOL     OW33771   3.065   0.480   3.793  0.1454 -0.2090 -0.1823
 9312SOL    HW133772   2.971   0.492   3.777  0.0810  2.0243  1.4293
 9312SOL    HW233773   3.102   0.568   3.784  2.1295 -1.0479 -0.8008
 9313SOL     OW33774   5.972  10.878   3.181  0.5821 -0.2745  0.0232
 9313SOL    HW133775   5.913  10.943   3.217  0.6048  0.6412 -1.4980
 9313SOL    HW233776   6.060  10.911   3.200  0.6068  0.6346 -1.4674
 9314SOL     OW33777   3.732  10.319   7.820  0.1220  0.0121 -0.2887
 9314SOL    HW133778   3.701  10.354   7.736 -1.1315  0.4232  0.3215
 9314SOL    HW233779   3.733  10.394   7.879 -0.7411 -0.5775  0.5267
 9315SOL     OW33780   8.782   2.403   4.822 -0.2191  0.4070  0.1908
 9315SOL    HW133781   8.803   2.310   4.809 -0.9994  0.3237 -0.6197
 9315SOL    HW233782   8.847   2.434   4.885 -0.9422 -1.0888  1.7492
 9316SOL     OW33783   9.896   4.501   0.549  0.1045  0.0425  0.1782
 9316SOL    HW133784   9.802   4.518   0.554  0.2296  0.6542  0.5208
 9316SOL    HW233785   9.934   4.556   0.618  0.6746 -0.4832  0.2943
 9317SOL     OW33786   3.607   5.423   6.849 -0.2161 -0.1329 -0.0537
 9317SOL    HW133787   3.665   5.420   6.925  0.8365  2.4505 -0.6275
 9317SOL    HW233788   3.587   5.517   6.839 -1.7792 -0.6082 -1.8926
 9318SOL     OW33789   9.322   2.722   9.035  0.6224 -0.5853 -0.3538
 9318SOL    HW133790   9.246   2.762   9.078  1.3330  0.4857 -0.0642
 9318SOL    HW233791   9.320   2.758   8.946 -0.8333 -2.7793 -1.3179
 9319SOL     OW33792   8.463  10.299   5.916 -0.5799  0.1381 -0.0603
 9319SOL    HW133793   8.430  10.267   6.001 -2.1521 -1.1446 -1.0876
 9319SOL    HW233794   8.470  10.394   5.928 -0.2220 -0.0659  1.6665
 9320SOL     OW33795   4.291   1.014   9.073 -0.4667  0.4898  0.0682
 9320SOL    HW133796   4.339   0.932   9.086 -2.0729 -0.5432 -0.1953
 9320SOL    HW233797   4.338   1.078   9.126  0.9235 -0.5565  0.1574
 9321SOL     OW33798   6.471   5.825   8.337  0.1155 -0.3362 -0.3335
 9321SOL    HW133799   6.523   5.770   8.396  0.8634 -1.0054 -1.5662
 9321SOL    HW233800   6.390   5.843   8.385  0.5190 -1.2110  0.7135
 9322SOL     OW33801   4.674   1.407   8.249  0.3919  0.2520 -0.2371
 9322SOL    HW133802   4.592   1.419   8.203  1.4643 -0.4292 -2.4477
 9322SOL    HW233803   4.701   1.496   8.274  0.4836  0.8184 -2.2372
 9323SOL     OW33804   5.120  10.729   7.545 -0.0803  0.5933  0.4882
 9323SOL    HW133805   5.060  10.770   7.608  0.9716  3.3399 -0.1465
 9323SOL    HW233806   5.063  10.680   7.486 -1.3839  0.6166  1.6602
 9324SOL     OW33807   2.882   5.378   5.836 -0.3890  0.4916 -0.3246
 9324SOL    HW133808   2.919   5.367   5.924 -0.4031 -1.5611 -0.5287
 9324SOL    HW233809   2.956   5.408   5.783 -0.2768  1.3256  0.2793
 9325SOL     OW33810   8.657   0.946   4.553  0.0853 -0.3276 -0.7305
 9325SOL    HW133811   8.570   0.950   4.595  0.9110  0.8690  0.9943
 9325SOL    HW233812   8.640   0.968   4.461 -1.5758 -1.2656 -0.6844
 9326SOL     OW33813   2.411   1.358   1.716 -0.1052  0.1575  0.1621
 9326SOL    HW133814   2.359   1.438   1.729 -2.2869 -0.8267 -1.7451
 9326SOL    HW233815   2.458   1.373   1.634 -2.4055 -1.3113 -1.5450
 9327SOL     OW33816  10.113   6.886   2.542  0.1288 -0.1632  0.4221
 9327SOL    HW133817  10.149   6.965   2.502  0.0110  0.0289  0.6899
 9327SOL    HW233818  10.025   6.910   2.569  0.6894  0.1770  2.1114
 9328SOL     OW33819   9.835  10.300   7.179  0.8942  0.3533  0.0161
 9328SOL    HW133820   9.781  10.368   7.138  0.2707  0.9829  1.8020
 9328SOL    HW233821   9.806  10.219   7.137 -0.2304  0.8915 -0.3020
 9329SOL     OW33822   1.373   2.460   5.318 -0.7903 -0.1300 -0.3441
 9329SOL    HW133823   1.466   2.478   5.332 -0.9781  0.2535  0.4722
 9329SOL    HW233824   1.365   2.447   5.223  0.2003 -0.8116 -0.3532
 9330SOL     OW33825   1.384   6.917  10.837  0.0537  0.0547 -0.3512
 9330SOL    HW133826   1.436   6.998  10.838  0.8348 -0.4017 -1.7128
 9330SOL    HW233827   1.312   6.935  10.897  0.3936  1.6438 -0.3626
 9331SOL     OW33828  10.432   3.229   9.529  0.3049 -0.5069 -0.1914
 9331SOL    HW133829  10.438   3.252   9.622  0.7225  0.3120 -0.4192
 9331SOL    HW233830  10.351   3.178   9.523 -0.6933  0.9520  0.3146
 9332SOL     OW33831   0.838   5.083   7.969 -0.6011 -0.4269  0.0195
 9332SOL    HW133832   0.881   5.077   7.884  0.3770 -0.1328  0.4843
 9332SOL    HW233833   0.860   5.000   8.012  1.6047  0.6734  1.2002
 9333SOL     OW33834   7.190   1.096   4.760 -0.0850 -0.0773 -0.0861
 9333SOL    HW133835   7.120   1.148   4.801  0.6478  0.1603  0.9140
 9333SOL    HW233836   7.270   1.144   4.780  0.6873 -1.8509  1.3669
 9334SOL     OW33837   4.571   4.859  10.131  0.0428  0.4625 -0.0142
 9334SOL    HW133838   4.595   4.944  10.095 -0.2430  0.1034 -1.0923
 9334SOL    HW233839   4.576   4.799  10.057 -1.3644 -0.1577  0.3531
 9335SOL     OW33840   6.166   3.292   3.836  0.4672  0.1024 -0.0058
 9335SOL    HW133841   6.229   3.229   3.799  1.5259 -0.0490  1.9181
 9335SOL    HW233842   6.080   3.257   3.813  1.0022 -2.4118  1.4679
 9336SOL     OW33843   6.683   8.138   2.353  0.2373 -0.0860 -0.4048
 9336SOL    HW133844   6.699   8.185   2.435  1.1604 -3.2149  1.3649
 9336SOL    HW233845   6.762   8.155   2.301  0.6804  0.1297  0.3068
 9337SOL     OW33846   1.942   7.297   0.839  0.5170  0.2047 -0.0473
 9337SOL    HW133847   1.873   7.356   0.870  0.2380  0.4059 -1.0251
 9337SOL    HW233848   2.016   7.354   0.821  1.0230 -0.0319  1.1598
 9338SOL     OW33849   9.590   1.893   2.047 -0.1556  0.8045  0.8997
 9338SOL    HW133850   9.571   1.945   2.125  1.2305  1.0400  1.1032
 9338SOL    HW233851   9.678   1.859   2.062  0.2935  1.1690 -0.7385
 9339SOL     OW33852   5.340   8.043   9.821 -0.1223 -0.3995 -0.5075
 9339SOL    HW133853   5.434   8.049   9.805 -0.4872 -0.1901 -2.9349
 9339SOL    HW233854   5.300   8.064   9.737 -2.4428  2.0708  1.0409
 9340SOL     OW33855   5.965   0.826   9.137  0.3205  0.8657  0.0897
 9340SOL    HW133856   6.012   0.783   9.209  0.3400 -1.1169 -1.0491
 9340SOL    HW233857   5.932   0.907   9.176 -1.2718 -0.9642  2.9130
 9341SOL     OW33858   4.513   8.837   5.187 -0.7222  0.3643  0.4538
 9341SOL    HW133859   4.430   8.865   5.224 -0.3965  1.6836  0.2328
 9341SOL    HW233860   4.555   8.917   5.157  0.9284 -0.1899  1.1401
 9342SOL     OW33861   0.939   7.788   5.600  0.2044 -0.3219 -0.1280
 9342SOL    HW133862   0.890   7.781   5.682 -1.4820 -1.1270 -1.1543
 9342SOL    HW233863   0.991   7.707   5.596 -0.2111 -0.5871 -0.1600
 9343SOL     OW33864   7.833   0.188   9.546 -0.0840 -0.3971 -0.2267
 9343SOL    HW133865   7.862   0.190   9.455  0.0136  0.0264 -0.1889
 9343SOL    HW233866   7.791   0.273   9.559  2.4823  0.7911  0.9730
 9344SOL     OW33867   4.383   0.165   6.908 -0.1764 -0.0846 -0.4827
 9344SOL    HW133868   4.380   0.183   7.002 -0.8059 -2.0357 -0.0918
 9344SOL    HW233869   4.321   0.227   6.870 -0.3356  0.3426  0.4495
 9345SOL     OW33870   2.950   0.305   3.481 -0.5765  0.0372 -0.0491
 9345SOL    HW133871   2.995   0.341   3.404 -0.3224  1.6833  0.8393
 9345SOL    HW233872   2.900   0.231   3.447 -0.5527  0.7912 -1.8200
 9346SOL     OW33873   2.142   7.793   9.477  0.0098  0.0933  0.1726
 9346SOL    HW133874   2.148   7.698   9.463 -0.1247  0.0216  0.5807
 9346SOL    HW233875   2.201   7.831   9.412 -0.2152 -0.2518 -0.2323
 9347SOL     OW33876   7.582   5.476  10.809  0.1532 -0.8884  0.2985
 9347SOL    HW133877   7.573   5.516  10.896  0.0867 -3.9090  1.8336
 9347SOL    HW233878   7.528   5.531  10.752 -0.1819  0.9601  2.2447
 9348SOL     OW33879   9.642   9.878   4.417 -0.6027 -0.5576 -0.0117
 9348SOL    HW133880   9.661   9.887   4.511 -0.9584 -0.5269  0.0587
 9348SOL    HW233881   9.622   9.785   4.406  0.3849 -0.7527 -0.2369
 9349SOL     OW33882   0.059   8.369   3.248 -0.1340 -0.1370  0.1168
 9349SOL    HW133883   0.066   8.449   3.197  1.5813 -0.8841 -0.8932
 9349SOL    HW233884  -0.036   8.355   3.257 -0.4688  1.8092  0.0771
 9350SOL     OW33885   7.559   3.101  10.225 -0.3699  0.2273  0.2255
 9350SOL    HW133886   7.580   3.091  10.318  1.0840 -1.3999 -0.2087
 9350SOL    HW233887   7.522   3.016  10.200 -0.5860  0.5884 -0.7175
 9351SOL     OW33888  10.415   8.481   5.336 -0.1411  0.0375 -0.1631
 9351SOL    HW133889  10.346   8.452   5.395 -1.1903  0.7506 -0.9798
 9351SOL    HW233890  10.487   8.420   5.350 -0.1667  0.4592  2.1554
 9352SOL     OW33891   8.404   0.419   7.488 -0.0411  0.0959  0.5566
 9352SOL    HW133892   8.386   0.327   7.507 -0.1478  0.1170  0.5580
 9352SOL    HW233893   8.489   0.436   7.529  0.0271 -0.0290  0.4650
 9353SOL     OW33894   5.806   0.256   4.004 -0.3407 -0.2869 -0.3084
 9353SOL    HW133895   5.897   0.278   4.020 -0.2361 -1.4727  1.0213
 9353SOL    HW233896   5.806   0.210   3.920  0.2413 -0.0136 -0.4569
 9354SOL     OW33897   8.848   6.477   7.443 -0.8560  0.1015  0.3221
 9354SOL    HW133898   8.836   6.383   7.440 -0.3892  0.0552 -0.5640
 9354SOL    HW233899   8.942   6.489   7.454 -0.7495  0.4510 -0.8006
 9355SOL     OW33900   8.317   9.754   9.921 -0.6132 -0.2678  0.0815
 9355SOL    HW133901   8.364   9.787   9.997 -0.9597 -0.3144  0.3189
 9355SOL    HW233902   8.243   9.705   9.958 -1.5542  0.8235 -0.2871
 9356SOL     OW33903   0.389   0.038   0.211  0.4398 -0.1329  0.0406
 9356SOL    HW133904   0.439   0.107   0.168  1.6131 -1.2097 -0.3935
 9356SOL    HW233905   0.351   0.080   0.288  1.9443  0.7626  0.3315
 9357SOL     OW33906   8.104  10.498   3.232  0.5098  0.2086  0.0984
 9357SOL    HW133907   8.184  10.460   3.268  0.3359  0.8116  1.1654
 9357SOL    HW233908   8.081  10.440   3.159  2.8291  0.9692 -1.3655
 9358SOL     OW33909   1.243   1.243   1.876  0.2393  0.1039  0.7184
 9358SOL    HW133910   1.267   1.289   1.795 -0.7423  2.2974  1.5957
 9358SOL    HW233911   1.165   1.288   1.907  0.1822 -1.1437  2.5356
 9359SOL     OW33912   7.503   4.452   2.212 -0.5742 -0.1780 -0.4319
 9359SOL    HW133913   7.474   4.542   2.227 -1.8966 -0.5318 -0.7304
 9359SOL    HW233914   7.584   4.460   2.163  0.3000  0.8754  1.1201
 9360SOL     OW33915  10.854   1.060   7.531 -0.4056 -0.6342  0.1167
 9360SOL    HW133916  10.861   0.989   7.466 -2.4859 -1.5470  0.8023
 9360SOL    HW233917  10.869   1.140   7.481 -2.7818 -1.2403 -1.7553
 9361SOL     OW33918   9.845   1.919   8.551 -0.2119  0.0197  0.7700
 9361SOL    HW133919   9.850   1.868   8.632  0.9292 -0.1240  0.6168
 9361SOL    HW233920   9.899   1.871   8.488 -0.9369  0.2261 -0.0397
 9362SOL     OW33921   2.112   8.294   0.885  0.6256  0.1772 -0.0632
 9362SOL    HW133922   2.124   8.354   0.958 -0.4038  0.8939 -0.4578
 9362SOL    HW233923   2.194   8.299   0.836  0.0807  2.4313 -0.9011
 9363SOL     OW33924   1.346   7.908   0.465 -0.1651 -0.3483 -0.1022
 9363SOL    HW133925   1.339   7.822   0.423  0.3719 -0.5116  0.1365
 9363SOL    HW233926   1.406   7.957   0.409 -0.4672 -0.1247 -0.2361
 9364SOL     OW33927   6.587   2.427   5.158 -0.1636  0.8494  0.2941
 9364SOL    HW133928   6.512   2.368   5.159  0.2384  0.3361  0.5273
 9364SOL    HW233929   6.578   2.476   5.076 -1.3620  1.5910  0.8316
 9365SOL     OW33930   8.003   7.786   2.932 -0.3489  0.0584  0.5801
 9365SOL    HW133931   8.028   7.821   2.846  0.5255  0.6426  1.0545
 9365SOL    HW233932   7.999   7.692   2.919 -0.0807  0.1315 -0.0753
 9366SOL     OW33933   0.948   8.852   5.061  0.6345 -0.6465 -0.0158
 9366SOL    HW133934   1.003   8.775   5.046 -0.1409 -0.8673 -1.9050
 9366SOL    HW233935   0.885   8.825   5.128 -0.5445 -2.1591 -1.6776
 9367SOL     OW33936   2.376   5.383   6.169 -0.0766 -0.2854 -0.1561
 9367SOL    HW133937   2.367   5.402   6.263  0.3041  0.6710 -0.2950
 9367SOL    HW233938   2.462   5.419   6.146 -0.7497  0.7687 -1.1539
 9368SOL     OW33939   3.307   0.338   5.189 -0.1749  0.1824  0.3889
 9368SOL    HW133940   3.347   0.290   5.117  0.4556  1.6119 -0.2580
 9368SOL    HW233941   3.367   0.323   5.263 -0.0467 -0.1187  0.2260
 9369SOL     OW33942   9.337  10.767   8.393 -0.1773 -0.1100 -0.3321
 9369SOL    HW133943   9.335  10.840   8.455  0.1784 -0.6499  0.3256
 9369SOL    HW233944   9.245  10.754   8.368 -0.1229  1.3713 -1.4505
 9370SOL     OW33945   8.170   8.615   7.836  0.0323  0.1312 -0.5927
 9370SOL    HW133946   8.103   8.586   7.898 -0.2420  1.8061 -0.0644
 9370SOL    HW233947   8.123   8.672   7.775  0.6870  0.0594 -1.1737
 9371SOL     OW33948   4.037   9.435   5.884 -0.1891 -0.1585 -0.2750
 9371SOL    HW133949   4.039   9.356   5.831  0.4847 -0.6053  0.3977
 9371SOL    HW233950   4.001   9.407   5.968 -0.2813  0.3217 -0.1488
 9372SOL     OW33951   2.046   4.058   1.027  0.4713  0.2200  0.1919
 9372SOL    HW133952   2.058   4.076   0.934  0.6600 -0.0110  0.1683
 9372SOL    HW233953   2.133   4.032   1.057  0.5888  1.0540  0.6085
 9373SOL     OW33954   5.478   6.993   8.711  0.0621  0.0141  0.1974
 9373SOL    HW133955   5.510   6.906   8.735  1.3362  0.0507 -1.2144
 9373SOL    HW233956   5.390   6.998   8.749  0.6962 -1.1395  1.9309
 9374SOL     OW33957   0.779   4.595   6.639 -0.0364 -0.0968  0.3369
 9374SOL    HW133958   0.870   4.620   6.652  0.0381 -1.0751  2.0443
 9374SOL    HW233959   0.728   4.669   6.672  0.1366  0.0816  0.2039
 9375SOL     OW33960   6.230  10.087   6.996  0.1574 -0.0649  0.2637
 9375SOL    HW133961   6.187  10.099   7.081 -0.7700  1.5953 -0.3799
 9375SOL    HW233962   6.159  10.058   6.938  0.4175  0.3748 -0.2822
 9376SOL     OW33963   4.655   2.995   4.064  0.3364  0.1955 -0.2053
 9376SOL    HW133964   4.674   2.992   4.157 -0.8183 -0.4329  0.0162
 9376SOL    HW233965   4.712   2.928   4.026  2.0285  1.5415 -0.2194
 9377SOL     OW33966   0.196   2.882   1.934 -0.0200 -0.6117 -0.0862
 9377SOL    HW133967   0.248   2.804   1.917  0.3214 -0.4860  0.3453
 9377SOL    HW233968   0.182   2.881   2.029  1.2176  0.5832  0.1516
 9378SOL     OW33969   3.278   7.438   4.923 -0.1978 -0.2896  0.0260
 9378SOL    HW133970   3.342   7.381   4.966 -1.4952 -0.6225  1.6407
 9378SOL    HW233971   3.197   7.387   4.925 -1.4052  1.5573  1.4798
 9379SOL     OW33972   3.461   4.075   8.904 -0.3229  0.5375  0.6857
 9379SOL    HW133973   3.378   4.108   8.939 -1.4757 -0.1088 -1.2654
 9379SOL    HW233974   3.487   4.007   8.966 -1.2615  0.7389  1.3290
 9380SOL     OW33975   1.895   4.298   0.662  0.1260 -0.5144  0.3022
 9380SOL    HW133976   1.850   4.244   0.727 -0.0769  0.4872  1.0019
 9380SOL    HW233977   1.987   4.297   0.691 -0.0114  0.1682  0.7858
 9381SOL     OW33978   8.624   5.398   5.302  0.0854  0.6444  0.2023
 9381SOL    HW133979   8.598   5.317   5.346 -0.8954 -0.0090 -1.4876
 9381SOL    HW233980   8.661   5.369   5.218  1.0596  1.8850  0.1664
 9382SOL     OW33981   8.698   2.249   9.064  0.0773  0.1937  0.2817
 9382SOL    HW133982   8.657   2.332   9.089  2.3134  1.5551 -0.3209
 9382SOL    HW233983   8.751   2.271   8.987  1.0527 -1.7231  0.3582
 9383SOL     OW33984  10.830   2.403   1.137 -0.8826 -0.2935 -0.2028
 9383SOL    HW133985  10.740   2.384   1.163 -1.3523  0.1101 -1.4774
 9383SOL    HW233986  10.871   2.317   1.127 -1.1783 -0.4798  0.1581
 9384SOL     OW33987   7.493   6.880   0.968  0.1725 -0.5879 -0.5284
 9384SOL    HW133988   7.403   6.912   0.972  0.2678 -0.2931 -0.6750
 9384SOL    HW233989   7.512   6.874   0.874  0.5577  0.0801 -0.4996
 9385SOL     OW33990   2.562  10.134   9.762 -0.6737  0.2079  0.4456
 9385SOL    HW133991   2.597  10.149   9.849 -0.3612 -0.3302  0.4124
 9385SOL    HW233992   2.502  10.208   9.747  0.4810  1.1842  0.4757
 9386SOL     OW33993   4.666   5.023   1.094  0.1133  0.6570 -0.1334
 9386SOL    HW133994   4.732   5.080   1.133  0.3591  0.6999 -0.6157
 9386SOL    HW233995   4.704   4.994   1.012  0.4841 -1.1265  0.6190
 9387SOL     OW33996   2.744   9.352   1.527 -0.0096  0.5742 -0.2906
 9387SOL    HW133997   2.773   9.362   1.617  0.1766 -1.6002 -0.0419
 9387SOL    HW233998   2.659   9.395   1.524  0.2584  1.2174  0.7369
 9388SOL     OW33999   4.054   4.443   4.127 -0.6903  0.4202 -0.4282
 9388SOL    HW134000   4.130   4.468   4.073  0.5232  1.9026  1.8068
 9388SOL    HW234001   3.997   4.520   4.123 -0.0674  1.0064  1.1974
 9389SOL     OW34002   8.514   0.864  10.392  0.2840  0.3872  0.3928
 9389SOL    HW134003   8.514   0.769  10.379 -1.6239  0.6176 -2.0607
 9389SOL    HW234004   8.476   0.876  10.480  2.2333 -1.0934  1.5146
 9390SOL     OW34005   7.396   5.993   5.336  0.4664 -0.5313  0.5430
 9390SOL    HW134006   7.372   5.924   5.399  1.5549 -0.2328  1.3219
 9390SOL    HW234007   7.378   6.075   5.382 -0.0976 -0.2891 -0.0929
 9391SOL     OW34008   4.952   8.326   5.098 -0.4905  0.2707 -0.5163
 9391SOL    HW134009   4.945   8.341   5.004 -1.2404 -1.2498 -0.7334
 9391SOL    HW234010   4.997   8.403   5.131  2.2350 -0.3346 -2.4692
 9392SOL     OW34011   2.210   6.096   8.910  0.3963  0.2296  0.4967
 9392SOL    HW134012   2.240   6.186   8.924 -0.6723  0.7744 -0.5723
 9392SOL    HW234013   2.270   6.061   8.844  0.1233  0.5476  0.0743
 9393SOL     OW34014   6.365   9.204   7.511 -0.5758  0.5090  0.5637
 9393SOL    HW134015   6.337   9.290   7.480 -1.9097  0.4036  1.4276
 9393SOL    HW234016   6.288   9.167   7.554 -0.0671 -1.1717  0.1242
 9394SOL     OW34017   4.563   4.099   8.166  0.2250  0.3520 -0.0096
 9394SOL    HW134018   4.497   4.142   8.112  0.4323  0.6188 -0.0540
 9394SOL    HW234019   4.642   4.100   8.113  0.4663  0.7397  0.3499
 9395SOL     OW34020   4.943   8.985   5.528  0.2870  0.7086  0.3375
 9395SOL    HW134021   4.980   8.956   5.445  0.0831  0.7781  0.2240
 9395SOL    HW234022   4.877   8.920   5.550  0.2998  0.7212  0.4150
 9396SOL     OW34023   7.717   4.350   3.159  0.3058  1.0617 -0.2422
 9396SOL    HW134024   7.812   4.336   3.154  0.2496  0.5128  0.2055
 9396SOL    HW234025   7.700   4.418   3.094  0.7865  0.0385 -1.4899
 9397SOL     OW34026   7.454   7.609   4.808 -0.2331  0.0377 -0.0042
 9397SOL    HW134027   7.542   7.639   4.786 -0.3318  0.5609  0.2942
 9397SOL    HW234028   7.437   7.645   4.895 -0.4417 -0.7145  0.2777
 9398SOL     OW34029  10.417   3.645   5.818 -0.2776 -0.4993  0.1817
 9398SOL    HW134030  10.481   3.715   5.831  0.1917 -1.3319  2.9380
 9398SOL    HW234031  10.355   3.655   5.890 -3.4141  0.2828 -2.3837
 9399SOL     OW34032   9.384   7.378   6.856  0.3902  0.1696 -0.2484
 9399SOL    HW134033   9.400   7.286   6.835  0.1097 -0.2264  1.1894
 9399SOL    HW234034   9.456   7.425   6.813  1.9308 -0.9645  0.9708
 9400SOL     OW34035   9.152   3.347   8.347  0.7381  0.2008  0.7483
 9400SOL    HW134036   9.120   3.259   8.364  0.8043  0.2636  1.2131
 9400SOL    HW234037   9.247   3.336   8.334  0.9227  0.3291  1.8602
 9401SOL     OW34038   9.030   6.786   2.630  0.0542 -0.5027  0.1338
 9401SOL    HW134039   8.977   6.834   2.694  1.9084  0.0521  1.3457
 9401SOL    HW234040   9.050   6.703   2.673  0.8859 -0.3378  0.0699
 9402SOL     OW34041  10.567   4.541   1.134  0.2107 -0.2265 -0.0644
 9402SOL    HW134042  10.637   4.496   1.182  0.5477  1.1790  0.8210
 9402SOL    HW234043  10.559   4.626   1.178 -1.9308 -0.2755 -0.2910
 9403SOL     OW34044   4.924   2.199   1.077 -0.0655 -0.4706  0.4505
 9403SOL    HW134045   4.870   2.222   1.001  0.1879  1.0583  0.7004
 9403SOL    HW234046   4.863   2.155   1.137 -0.6956 -0.0784  0.1089
 9404SOL     OW34047   1.523   5.077   4.313  0.0533  0.1207  0.0777
 9404SOL    HW134048   1.592   5.109   4.254  1.0182 -2.7146 -0.4540
 9404SOL    HW234049   1.521   4.983   4.300 -1.0994 -0.4015  3.1699
 9405SOL     OW34050   1.202   1.423   1.172  0.5397 -0.0237 -0.2984
 9405SOL    HW134051   1.160   1.430   1.258  3.3967 -1.1295  1.3296
 9405SOL    HW234052   1.181   1.334   1.143  0.7680 -0.1655 -0.0368
 9406SOL     OW34053   5.397   5.566   2.181 -0.1660  0.1887  0.1903
 9406SOL    HW134054   5.483   5.589   2.216 -0.3739  0.4834  0.5091
 9406SOL    HW234055   5.403   5.472   2.164  0.0211  0.0901  0.7806
 9407SOL     OW34056   1.259   9.269   7.238  0.1077  1.0469 -0.3708
 9407SOL    HW134057   1.334   9.316   7.274  0.3168  1.0785 -0.8415
 9407SOL    HW234058   1.260   9.289   7.144  0.6023 -0.4181 -0.7179
 9408SOL     OW34059   9.988   0.307   0.366 -0.2875 -0.0675  0.0004
 9408SOL    HW134060  10.049   0.246   0.409 -0.2861 -0.2727 -0.2953
 9408SOL    HW234061   9.979   0.379   0.429  1.0477  0.4616 -0.3696
 9409SOL     OW34062   3.299   5.352   4.923  0.0978 -0.5389 -0.0859
 9409SOL    HW134063   3.256   5.399   4.994  0.3023 -1.0407  0.3809
 9409SOL    HW234064   3.389   5.386   4.923  0.1348 -0.6352 -0.0124
 9410SOL     OW34065   7.173   5.367   8.982  0.0057 -0.1616  0.3269
 9410SOL    HW134066   7.216   5.297   9.031 -0.4886 -0.3743  0.4607
 9410SOL    HW234067   7.159   5.437   9.046  0.3612  0.0017  0.2294
 9411SOL     OW34068   8.644  10.085   8.512  0.6477  0.2142 -0.2636
 9411SOL    HW134069   8.719  10.101   8.454  0.9900  1.9960  0.5948
 9411SOL    HW234070   8.678  10.104   8.599 -0.8306  1.1566  0.1350
 9412SOL     OW34071   8.304   0.924   9.668 -0.0684 -0.1987 -0.4642
 9412SOL    HW134072   8.225   0.876   9.641  1.1566 -1.3929 -2.1438
 9412SOL    HW234073   8.275   0.976   9.743 -2.6108 -0.0845 -1.3915
 9413SOL     OW34074   1.499   1.762   2.253 -0.2077  0.0871  0.0917
 9413SOL    HW134075   1.498   1.754   2.348  0.2868 -1.1579  0.0081
 9413SOL    HW234076   1.588   1.737   2.227 -0.7288 -0.9032 -0.7914
 9414SOL     OW34077   7.497   5.783   8.221  0.3214  0.1707  0.7444
 9414SOL    HW134078   7.416   5.802   8.175  1.3021 -0.2279 -1.2391
 9414SOL    HW234079   7.492   5.689   8.242 -0.1194  0.3500  1.4698
 9415SOL     OW34080   3.843   9.071   0.178 -0.3794 -0.2612  0.7504
 9415SOL    HW134081   3.911   9.135   0.156 -0.4829 -0.6397 -0.7459
 9415SOL    HW234082   3.761   9.114   0.154 -0.4292 -1.0439 -0.5537
 9416SOL     OW34083   2.001   7.302   6.320 -0.3217  0.1854  0.3409
 9416SOL    HW134084   1.923   7.300   6.264  0.1615 -0.8870 -0.3270
 9416SOL    HW234085   1.976   7.358   6.393 -2.0133 -0.7668  0.5523
 9417SOL     OW34086   1.602   3.653  10.915  0.1004  0.4164 -0.9404
 9417SOL    HW134087   1.600   3.647  11.011 -0.0277  0.5942 -0.9316
 9417SOL    HW234088   1.512   3.675  10.891 -0.2310 -1.1229 -1.2013
 9418SOL     OW34089   0.607   8.041   7.513  0.5818 -0.4978 -0.4889
 9418SOL    HW134090   0.525   8.063   7.556  0.4599 -0.1478 -0.8948
 9418SOL    HW234091   0.668   8.109   7.540  0.4852 -0.2368 -0.9211
 9419SOL     OW34092   7.143   5.601   6.848 -0.0965  0.5476  0.2809
 9419SOL    HW134093   7.236   5.605   6.867  0.2419  2.7100 -1.3934
 9419SOL    HW234094   7.125   5.680   6.797 -2.4522 -0.7456 -1.1226
 9420SOL     OW34095  10.188   7.471   8.781 -0.3056  0.6742  0.1089
 9420SOL    HW134096  10.122   7.435   8.841 -0.5234  2.4329  0.9737
 9420SOL    HW234097  10.223   7.394   8.736  0.2471 -0.8116  2.8380
 9421SOL     OW34098   1.140   0.378   2.709 -0.2923 -0.6081 -0.0675
 9421SOL    HW134099   1.206   0.383   2.640  1.6105  3.7734  1.6485
 9421SOL    HW234100   1.162   0.299   2.758  1.1466 -1.3657 -1.8151
 9422SOL     OW34101   4.622   7.288   1.486 -0.2338 -0.1516  0.0537
 9422SOL    HW134102   4.609   7.375   1.450 -1.7819 -0.9715 -1.5086
 9422SOL    HW234103   4.544   7.271   1.539  0.4231 -0.3116  1.0041
 9423SOL     OW34104   1.558   7.413  10.816  0.6333  0.0414 -0.5846
 9423SOL    HW134105   1.612   7.339  10.790  1.1989  0.5118 -0.7618
 9423SOL    HW234106   1.616   7.468  10.868  0.3821  0.6531 -0.9479
 9424SOL     OW34107   0.954   9.474   9.498 -0.2125  0.8354 -0.5603
 9424SOL    HW134108   1.013   9.485   9.424 -0.6643 -2.6477 -1.6140
 9424SOL    HW234109   1.008   9.432   9.566 -0.5735  1.0644 -0.1217
 9425SOL     OW34110   3.104   7.479   2.046 -0.1916 -0.1804  0.5220
 9425SOL    HW134111   3.057   7.544   1.994  0.9883 -1.3818 -2.2806
 9425SOL    HW234112   3.162   7.530   2.102 -0.1471  1.2253 -0.7343
 9426SOL     OW34113   0.564   9.374   8.414  0.3197  0.0156  0.4006
 9426SOL    HW134114   0.469   9.387   8.412  0.1577 -1.1396 -0.7779
 9426SOL    HW234115   0.575   9.295   8.467  0.5745 -0.1080  0.1639
 9427SOL     OW34116   4.968   0.603   8.314  0.2363  0.6831  0.5815
 9427SOL    HW134117   5.032   0.605   8.243  0.9902 -0.4771  1.1945
 9427SOL    HW234118   4.921   0.521   8.301  0.4692  0.3981  1.4897
 9428SOL     OW34119   6.733   2.837   6.718  0.2029 -0.4327 -0.0123
 9428SOL    HW134120   6.782   2.897   6.775  0.4143 -1.1706  0.5999
 9428SOL    HW234121   6.738   2.753   6.763 -0.2137 -0.8784 -0.7929
 9429SOL     OW34122  10.583   6.419   6.277 -0.4776  0.1472  0.3540
 9429SOL    HW134123  10.493   6.397   6.252 -0.2180 -0.7133  0.1460
 9429SOL    HW234124  10.573   6.492   6.339 -1.2347  0.9750 -0.7015
 9430SOL     OW34125   1.687   2.635   1.286 -0.1283 -0.3711 -0.6775
 9430SOL    HW134126   1.662   2.619   1.195  1.5237 -0.3481 -1.1637
 9430SOL    HW234127   1.759   2.575   1.303  0.8607  0.9350 -0.0044
 9431SOL     OW34128  10.652   8.843   2.490 -0.0709  0.1019 -0.3481
 9431SOL    HW134129  10.728   8.823   2.544 -1.1631 -0.3454  1.1074
 9431SOL    HW234130  10.577   8.832   2.549 -1.2459  0.8946 -1.6209
 9432SOL     OW34131   1.240   2.137   9.795 -0.1334  0.4804  0.1270
 9432SOL    HW134132   1.157   2.179   9.816 -1.1528 -0.7996 -1.1021
 9432SOL    HW234133   1.277   2.191   9.725 -0.5597  0.3522 -0.2008
 9433SOL     OW34134   7.571  10.760   9.870  0.6082  0.1122  0.5158
 9433SOL    HW134135   7.602  10.819   9.801  1.6427  1.0973  1.7806
 9433SOL    HW234136   7.554  10.818   9.944  0.0495 -1.0018  1.2772
 9434SOL     OW34137   5.761   3.404   3.337 -0.1953 -0.4089 -0.4488
 9434SOL    HW134138   5.695   3.372   3.399 -1.0550 -0.0894 -1.1638
 9434SOL    HW234139   5.777   3.330   3.279 -0.2884 -0.3337 -0.5704
 9435SOL     OW34140  10.492   5.634   1.695 -0.0593  0.0290 -0.0225
 9435SOL    HW134141  10.536   5.615   1.778  0.8310 -0.4171 -0.5770
 9435SOL    HW234142  10.499   5.729   1.686  1.2003 -0.0706 -0.2999
 9436SOL     OW34143   4.213  10.765   0.515 -0.3256  0.1305 -0.4663
 9436SOL    HW134144   4.130  10.736   0.552  0.3779  2.3376  3.4510
 9436SOL    HW234145   4.195  10.854   0.484  0.4722  0.5140  0.1474
 9437SOL     OW34146   1.635   5.869   3.091  0.5233  0.2763 -0.1843
 9437SOL    HW134147   1.695   5.870   3.017 -0.2510  2.8924 -0.8745
 9437SOL    HW234148   1.587   5.952   3.085 -2.4994 -1.2271  0.8795
 9438SOL     OW34149  10.914   4.295   1.015  0.4742 -0.1990 -0.6048
 9438SOL    HW134150  10.937   4.221   0.960 -0.0224  0.3411 -1.5701
 9438SOL    HW234151  10.980   4.361   0.996  0.7948 -0.3142  0.0942
 9439SOL     OW34152   0.979   9.257   5.542 -0.1305 -0.4742 -0.2199
 9439SOL    HW134153   0.893   9.289   5.516  0.5834  0.9229 -0.9979
 9439SOL    HW234154   1.007   9.201   5.469  0.3555  0.5303 -0.8243
 9440SOL     OW34155   3.023   1.081   0.331  0.5191  0.0428  0.1654
 9440SOL    HW134156   2.993   1.004   0.283  0.5083  0.2459 -0.1493
 9440SOL    HW234157   3.102   1.109   0.285  1.3635 -0.6496  1.1368
 9441SOL     OW34158   5.284   4.829   2.699  0.0522 -0.0588  0.2995
 9441SOL    HW134159   5.193   4.801   2.695  0.0084 -0.3169  2.1119
 9441SOL    HW234160   5.284   4.905   2.758  1.1571 -0.9363  1.4958
 9442SOL     OW34161   0.329   0.001   7.687 -0.2053 -0.1216  0.1096
 9442SOL    HW134162   0.411   0.035   7.649  0.3179  0.2166  1.4818
 9442SOL    HW234163   0.342  -0.094   7.690  0.0933 -0.0788  0.2100
 9443SOL     OW34164   4.136   3.774   3.726  0.0806 -0.3533  0.0759
 9443SOL    HW134165   4.124   3.867   3.706  1.3813 -0.0895  0.4171
 9443SOL    HW234166   4.207   3.746   3.667  0.2210 -0.9272  0.5098
 9444SOL     OW34167   0.820   7.135   6.168 -0.4227  0.1616  0.2047
 9444SOL    HW134168   0.803   7.183   6.087 -0.2213  0.1676  0.1641
 9444SOL    HW234169   0.735   7.130   6.212 -1.2484 -2.5596 -1.4638
 9445SOL     OW34170  10.740   6.461   8.309 -0.4014  0.0331  1.0878
 9445SOL    HW134171  10.684   6.393   8.345 -0.6761 -1.3506 -1.7253
 9445SOL    HW234172  10.829   6.434   8.331 -0.5011 -1.3841 -0.0941
 9446SOL     OW34173   4.671  10.365   2.405  0.1949  0.6480  0.0848
 9446SOL    HW134174   4.648  10.380   2.313  0.6429 -0.6162 -0.2519
 9446SOL    HW234175   4.760  10.328   2.401 -0.7785 -1.9639  0.8020
 9447SOL     OW34176   9.169   4.312   6.092 -0.3708  0.1873 -0.2826
 9447SOL    HW134177   9.224   4.377   6.137 -0.2314  0.9980 -1.5752
 9447SOL    HW234178   9.228   4.270   6.029 -1.1524  0.9429 -1.5597
 9448SOL     OW34179   7.213  10.711   7.571  0.0977 -0.2113  0.3674
 9448SOL    HW134180   7.227  10.704   7.477  0.3774  2.1043  0.1811
 9448SOL    HW234181   7.136  10.767   7.581  0.6648  0.4070  1.5028
 9449SOL     OW34182   2.135   1.482   8.303 -0.6458 -0.3985  0.1134
 9449SOL    HW134183   2.077   1.464   8.377 -1.4121  1.0710 -0.0837
 9449SOL    HW234184   2.082   1.537   8.245  0.5224 -0.0904 -0.6880
 9450SOL     OW34185   9.836   7.145   1.112 -0.3525  0.3821  0.5272
 9450SOL    HW134186   9.874   7.105   1.190  0.4081  1.0578  0.5155
 9450SOL    HW234187   9.753   7.100   1.100  0.9382 -2.0032 -0.1300
 9451SOL     OW34188  10.654   5.920   0.411 -0.2911 -0.8804  0.1426
 9451SOL    HW134189  10.559   5.916   0.402 -0.3444  0.4071 -0.1384
 9451SOL    HW234190  10.669   5.953   0.500 -0.2468  1.8703 -0.7796
 9452SOL     OW34191   8.393   4.515  10.426  0.2044 -0.3877 -0.0599
 9452SOL    HW134192   8.445   4.507  10.506  0.3904  1.9317  0.1258
 9452SOL    HW234193   8.319   4.455  10.439  0.4841 -0.4089  1.6433
 9453SOL     OW34194   4.622   6.954  10.713  0.6423  0.0671 -0.8094
 9453SOL    HW134195   4.535   6.915  10.700  0.3896  0.3073  0.0703
 9453SOL    HW234196   4.681   6.880  10.726  0.4937 -0.0864 -1.0156
 9454SOL     OW34197   2.739   9.790   5.408 -0.0293 -0.6218  0.3768
 9454SOL    HW134198   2.712   9.804   5.498 -1.9789 -0.7974 -0.1185
 9454SOL    HW234199   2.740   9.878   5.369  2.1504 -0.3856  0.8659
 9455SOL     OW34200   3.704   2.116   2.312 -0.9043  0.4353 -0.0681
 9455SOL    HW134201   3.628   2.107   2.254 -1.0248 -0.6005  0.2322
 9455SOL    HW234202   3.695   2.044   2.374  0.9476 -0.4190 -0.7163
 9456SOL     OW34203   4.785   8.703   3.469  0.8914 -0.0966 -0.1306
 9456SOL    HW134204   4.860   8.703   3.530  1.1819  1.1099 -0.4608
 9456SOL    HW234205   4.818   8.657   3.391  0.7521 -1.0012  0.3278
 9457SOL     OW34206   1.345   9.768   3.101 -0.3089  0.8118  0.0026
 9457SOL    HW134207   1.250   9.761   3.108 -0.1110 -1.6491  1.4396
 9457SOL    HW234208   1.365   9.736   3.012 -0.7372 -0.6718  0.4063
 9458SOL     OW34209   1.658   7.429   4.320  0.6836  0.2512 -0.2026
 9458SOL    HW134210   1.600   7.500   4.347  0.6644  0.1909 -0.0857
 9458SOL    HW234211   1.645   7.422   4.225  0.4990  0.2363 -0.1759
 9459SOL     OW34212   2.348   8.238   0.401 -0.6281 -0.0276  0.2609
 9459SOL    HW134213   2.394   8.293   0.465 -0.3746  1.3012 -1.0305
 9459SOL    HW234214   2.255   8.253   0.420 -0.5620 -0.2253  0.7821
 9460SOL     OW34215  10.385  10.575   1.513 -0.6699 -0.2258  0.1747
 9460SOL    HW134216  10.403  10.669   1.512 -1.5813 -0.0265 -1.5037
 9460SOL    HW234217  10.390  10.549   1.421 -1.3924 -1.6241  0.5023
 9461SOL     OW34218   4.258   2.214   3.046 -0.0818 -0.4064  0.4270
 9461SOL    HW134219   4.296   2.275   3.108 -0.9735  0.1254  0.4755
 9461SOL    HW234220   4.326   2.200   2.980  2.0848 -3.3261  2.9843
 9462SOL     OW34221   9.908   9.970   6.029  0.8953  0.6005 -0.1425
 9462SOL    HW134222   9.993   9.957   6.071  1.0657  0.0955 -0.6190
 9462SOL    HW234223   9.914   9.918   5.949  0.5570  1.4925 -0.7564
 9463SOL     OW34224   4.115   7.655   8.842  0.2242 -0.2061  0.4826
 9463SOL    HW134225   4.175   7.646   8.767  1.0658 -1.3698  1.2551
 9463SOL    HW234226   4.143   7.586   8.902 -1.4634 -0.3102  1.1799
 9464SOL     OW34227   5.106   5.061   1.580  0.3332  0.0806  0.0631
 9464SOL    HW134228   5.140   5.016   1.503  1.1130 -1.2142  1.1266
 9464SOL    HW234229   5.172   5.046   1.648 -0.3043  1.2372  0.9817
 9465SOL     OW34230   5.170   4.303   2.004 -0.0064 -0.2752  0.5284
 9465SOL    HW134231   5.080   4.326   2.026 -0.1708 -1.5074  1.2727
 9465SOL    HW234232   5.164   4.215   1.967  0.7155  0.3064 -1.0881
 9466SOL     OW34233  10.283   1.058   0.213  0.6115 -0.3738 -0.9380
 9466SOL    HW134234  10.316   0.971   0.190  1.1243 -0.6597  0.7151
 9466SOL    HW234235  10.361   1.110   0.229  0.3517 -0.5145  1.1230
 9467SOL     OW34236   0.002   3.125   2.665  0.2717 -0.3681 -0.1008
 9467SOL    HW134237   0.048   3.207   2.645 -0.5992  0.2431  0.3544
 9467SOL    HW234238  -0.049   3.145   2.744 -1.4432 -0.7501 -1.0632
 9468SOL     OW34239   8.256   5.757   1.458  0.5396 -0.1217 -0.3123
 9468SOL    HW134240   8.283   5.689   1.519  1.4814  0.3699 -0.1688
 9468SOL    HW234241   8.306   5.834   1.484  1.3121 -0.0133 -1.9625
 9469SOL     OW34242  10.200  10.665   5.514 -0.4705 -0.1907  0.3794
 9469SOL    HW134243  10.266  10.672   5.445  0.4435  0.5003  1.2945
 9469SOL    HW234244  10.162  10.578   5.503  0.8957 -0.7714  0.0818
 9470SOL     OW34245   1.660   2.920   1.092 -0.0418 -0.4296 -0.1058
 9470SOL    HW134246   1.687   2.919   1.184  0.0483 -2.2186 -0.1023
 9470SOL    HW234247   1.680   3.008   1.061 -0.1477  0.2296  1.5999
 9471SOL     OW34248   6.984   1.341   6.257  0.2240 -0.0524 -0.1945
 9471SOL    HW134249   7.001   1.264   6.312  0.0400  0.3489  0.4392
 9471SOL    HW234250   6.978   1.414   6.319  0.3392  0.4688 -0.7815
 9472SOL     OW34251   8.148   6.202   3.084  0.2916  0.5572 -0.1514
 9472SOL    HW134252   8.102   6.163   3.158  0.6678  0.8915  0.2717
 9472SOL    HW234253   8.239   6.211   3.115  1.6365 -3.5178 -2.1872
 9473SOL     OW34254  10.794  10.569   8.356 -0.4391 -0.0751  0.2216
 9473SOL    HW134255  10.718  10.514   8.372 -1.1841  0.4205 -1.4146
 9473SOL    HW234256  10.759  10.658   8.353  0.3211  0.2296  0.2019
 9474SOL     OW34257   2.735   2.280   2.022  0.6166  0.3932  0.6023
 9474SOL    HW134258   2.715   2.246   1.935 -0.7677 -1.5640  1.6097
 9474SOL    HW234259   2.651   2.309   2.058  0.9949  0.2936  1.6258
 9475SOL     OW34260   6.247   7.499   9.468  0.2502  0.4922  0.4909
 9475SOL    HW134261   6.241   7.414   9.512  1.1053 -0.4171 -1.0588
 9475SOL    HW234262   6.318   7.488   9.405 -1.1939  1.5539 -1.4408
 9476SOL     OW34263   2.285   0.501   2.495  0.4161  0.3143  0.2100
 9476SOL    HW134264   2.316   0.534   2.411  1.6166  0.6241  0.7505
 9476SOL    HW234265   2.211   0.557   2.517 -0.4300 -0.2771 -0.9979
 9477SOL     OW34266   4.927   9.415   0.264 -0.0093  0.0176  0.0433
 9477SOL    HW134267   4.990   9.482   0.288  1.1681 -0.7753 -0.7699
 9477SOL    HW234268   4.862   9.460   0.210  0.9967  0.4152 -0.8440
 9478SOL     OW34269   3.109   5.302  10.324  0.1583  0.2682 -0.2234
 9478SOL    HW134270   3.082   5.333  10.411  0.9594 -0.7159  0.3985
 9478SOL    HW234271   3.135   5.211  10.338  2.4888  0.7500 -1.0309
 9479SOL     OW34272   4.012  10.720   8.166 -0.3604 -0.4122  0.3815
 9479SOL    HW134273   4.009  10.630   8.131 -0.3567 -0.6951  1.0916
 9479SOL    HW234274   4.084  10.761   8.119  0.0041 -0.9558  0.4513
 9480SOL     OW34275   6.471   5.744   2.350 -0.7544 -0.8023 -0.1584
 9480SOL    HW134276   6.484   5.734   2.444 -1.2447  0.0129  0.0056
 9480SOL    HW234277   6.376   5.747   2.339 -0.7914  3.1263 -0.1557
 9481SOL     OW34278   6.156   6.798   5.089  0.0972  0.2639 -0.1575
 9481SOL    HW134279   6.232   6.776   5.035 -0.4046 -0.7326 -0.4871
 9481SOL    HW234280   6.118   6.875   5.047 -0.5860 -0.7973 -1.5857
 9482SOL     OW34281   4.936  10.285   8.494  0.8933 -0.5301  0.1782
 9482SOL    HW134282   4.967  10.224   8.562  1.1953  0.7432  1.2218
 9482SOL    HW234283   4.916  10.229   8.419  1.1977 -1.9091  1.0879
 9483SOL     OW34284   8.181   2.578   5.458 -0.2913  0.2967 -0.4553
 9483SOL    HW134285   8.152   2.584   5.367 -0.3356 -0.7062 -0.5215
 9483SOL    HW234286   8.107   2.537   5.504 -0.9891  2.3779  0.4034
 9484SOL     OW34287   7.963   5.521   4.170  0.0989 -0.0344 -0.0288
 9484SOL    HW134288   7.959   5.480   4.256  1.2876  1.8942  1.0187
 9484SOL    HW234289   7.881   5.571   4.164 -0.6194 -1.2342 -0.6429
 9485SOL     OW34290   2.691   2.401  10.072  0.5937  0.2180 -0.2641
 9485SOL    HW134291   2.701   2.356  10.156  0.7080  1.0899  0.2069
 9485SOL    HW234292   2.685   2.494  10.095  1.1156  0.5157 -1.2538
 9486SOL     OW34293   4.289   5.519  10.906  0.3855 -0.1287 -0.5423
 9486SOL    HW134294   4.275   5.600  10.856  0.0641  0.5597  0.6069
 9486SOL    HW234295   4.214   5.515  10.965  0.0144 -1.6813 -1.0948
 9487SOL     OW34296   4.554  10.716   9.696 -0.5329  0.2514 -0.1239
 9487SOL    HW134297   4.580  10.642   9.641  2.1915 -0.5710  2.0605
 9487SOL    HW234298   4.610  10.710   9.773 -2.5588  2.6832  1.7175
 9488SOL     OW34299   9.731   0.103   1.362 -0.0813  0.4570  0.1272
 9488SOL    HW134300   9.798   0.061   1.308  1.0143  0.9988  1.0193
 9488SOL    HW234301   9.715   0.041   1.433 -0.3095  0.4557  0.0748
 9489SOL     OW34302   3.734   8.400   8.611  0.2691 -0.0178  0.0468
 9489SOL    HW134303   3.657   8.389   8.668  0.1596  1.6242  0.2755
 9489SOL    HW234304   3.805   8.419   8.672  0.3209  0.9452 -0.3021
 9490SOL     OW34305   5.401   6.263   5.989  0.0560 -0.7308 -0.0011
 9490SOL    HW134306   5.339   6.312   6.042  2.1664  1.5354  0.5819
 9490SOL    HW234307   5.398   6.174   6.024 -0.6275  0.0518  2.0565
 9491SOL     OW34308   4.594   9.646   9.325  0.0607  0.1733 -0.3499
 9491SOL    HW134309   4.516   9.665   9.272 -0.7795 -0.4547  0.6253
 9491SOL    HW234310   4.667   9.683   9.274 -0.8739  0.8775 -1.2279
 9492SOL     OW34311   1.696   8.340   7.958  0.8833 -0.4989  0.5763
 9492SOL    HW134312   1.735   8.299   8.036  1.7351 -1.5515 -0.3650
 9492SOL    HW234313   1.634   8.404   7.993  1.7967 -0.4118  2.1197
 9493SOL     OW34314   2.507   4.193   2.218 -0.1181 -0.7878 -0.1283
 9493SOL    HW134315   2.569   4.251   2.263 -0.6171 -0.8220  0.6089
 9493SOL    HW234316   2.421   4.219   2.251 -0.3458 -2.0330  0.3258
 9494SOL     OW34317   4.318   9.541   0.282 -0.8977 -0.4987 -0.6646
 9494SOL    HW134318   4.403   9.569   0.249 -0.9474  1.3411  0.6146
 9494SOL    HW234319   4.318   9.446   0.273  1.3677 -0.5559 -0.5020
 9495SOL     OW34320  10.805  10.538   7.481 -0.4073  0.4369  0.6260
 9495SOL    HW134321  10.805  10.443   7.492  1.7064  0.2236 -0.6032
 9495SOL    HW234322  10.730  10.556   7.426 -0.1851 -0.6855 -0.0728
 9496SOL     OW34323   0.176   5.978   2.149 -0.5792 -0.0372  0.2922
 9496SOL    HW134324   0.163   6.064   2.189 -1.9430  0.1110 -0.4405
 9496SOL    HW234325   0.102   5.926   2.178  0.1097 -0.9164  0.5319
 9497SOL     OW34326   1.568   3.214   0.101  0.1470  0.2000 -0.1771
 9497SOL    HW134327   1.552   3.148   0.169 -1.9180  0.7929 -0.0335
 9497SOL    HW234328   1.659   3.199   0.074  0.3605 -1.3750  1.2668
 9498SOL     OW34329  10.297   0.266   9.503 -0.0538  0.3075  0.4096
 9498SOL    HW134330  10.320   0.198   9.567  1.0075  0.8881  0.6724
 9498SOL    HW234331  10.201   0.267   9.501 -0.1634  1.1690  2.9877
 9499SOL     OW34332   9.164   9.736  10.401  0.3130  0.4135 -1.0384
 9499SOL    HW134333   9.070   9.720  10.408  0.5028 -0.0930  1.6497
 9499SOL    HW234334   9.174   9.792  10.324 -2.1294  0.1394 -1.6274
 9500SOL     OW34335   5.675   0.826   6.893 -0.3922 -1.0523  0.5288
 9500SOL    HW134336   5.644   0.880   6.966  1.2789  0.7123  0.0009
 9500SOL    HW234337   5.757   0.867   6.865 -0.5838 -2.1123 -1.8581
 9501SOL     OW34338  10.232  10.219   6.047  0.2037 -0.5501 -0.4556
 9501SOL    HW134339  10.322  10.242   6.069  0.2806 -1.9741  0.9015
 9501SOL    HW234340  10.240  10.153   5.979  0.0658  1.2488 -2.2896
 9502SOL     OW34341   4.882   0.578   3.972  0.0785 -0.0246 -0.0839
 9502SOL    HW134342   4.788   0.576   3.994  0.6052 -0.1789  2.5841
 9502SOL    HW234343   4.902   0.671   3.962 -0.1362  0.1188  0.6876
 9503SOL     OW34344   6.132   4.776   8.053  0.2146  0.5218  0.3908
 9503SOL    HW134345   6.147   4.870   8.061 -1.4545  0.9341 -0.7840
 9503SOL    HW234346   6.040   4.764   8.075  0.2814 -0.7677  0.0373
 9504SOL     OW34347   8.264   0.255   1.602  0.0266  0.4084 -0.2668
 9504SOL    HW134348   8.225   0.201   1.671 -0.9882 -0.4552 -1.4772
 9504SOL    HW234349   8.263   0.344   1.639 -2.9928  0.4235 -0.1188
 9505SOL     OW34350   7.224   5.337   6.065  0.1472  0.3377 -0.2077
 9505SOL    HW134351   7.201   5.396   5.994  0.2180  0.4509 -0.1357
 9505SOL    HW234352   7.315   5.356   6.085  0.7623 -1.0872 -1.4484
 9506SOL     OW34353   7.552   6.699   0.099  0.3347  0.3091  0.0356
 9506SOL    HW134354   7.485   6.729   0.038 -0.4451  2.5047  1.8847
 9506SOL    HW234355   7.513   6.623   0.142 -0.9221  1.4044  0.9021
 9507SOL     OW34356   8.371   1.532   4.108 -0.3372 -0.0573  0.2236
 9507SOL    HW134357   8.384   1.537   4.014  1.5063  0.3487  0.4543
 9507SOL    HW234358   8.326   1.614   4.131  1.8435  1.2678  0.0254
 9508SOL     OW34359   5.692   6.288   1.064  0.2459 -0.0492  0.3599
 9508SOL    HW134360   5.597   6.286   1.057  0.2479  2.6229 -2.9577
 9508SOL    HW234361   5.712   6.377   1.093  1.7266 -0.1546 -0.2374
 9509SOL     OW34362   6.307  10.445   8.928 -0.0210  0.5931 -0.3205
 9509SOL    HW134363   6.304  10.541   8.936  0.1902  0.5819 -0.0892
 9509SOL    HW234364   6.394  10.421   8.961 -0.1936  0.2944 -0.0784
 9510SOL     OW34365   2.152   5.446   2.764 -0.2668 -0.0863 -0.0879
 9510SOL    HW134366   2.200   5.400   2.833 -1.9059 -1.8065  0.0120
 9510SOL    HW234367   2.108   5.376   2.715 -1.4261  1.2746 -1.0921
 9511SOL     OW34368   7.498   8.921   9.008  0.0544 -0.3554 -0.0920
 9511SOL    HW134369   7.488   8.833   9.043  0.0314  0.3927  1.8868
 9511SOL    HW234370   7.582   8.952   9.042 -1.6555  1.7710  2.6204
 9512SOL     OW34371   2.748   8.021   3.170 -0.4728 -0.1866 -0.0469
 9512SOL    HW134372   2.777   8.036   3.261  0.6944  2.8542 -0.7782
 9512SOL    HW234373   2.819   7.970   3.131 -1.1261 -1.7838  0.7752
 9513SOL     OW34374   4.331   0.814   4.589  0.4840  0.1789  0.4269
 9513SOL    HW134375   4.253   0.762   4.570  0.8592 -0.5543  0.8434
 9513SOL    HW234376   4.339   0.874   4.514 -1.4916  1.5322  1.2186
 9514SOL     OW34377   7.768   4.274   9.792  0.0624  0.4474  0.3768
 9514SOL    HW134378   7.784   4.363   9.762 -2.2487  0.9686  0.5219
 9514SOL    HW234379   7.710   4.236   9.726 -0.5171 -0.2963  1.2827
 9515SOL     OW34380   4.197   9.868   5.433 -0.6017 -0.3536 -0.3886
 9515SOL    HW134381   4.219   9.776   5.423 -1.0460 -0.3992 -1.0220
 9515SOL    HW234382   4.186   9.880   5.527  0.9447 -0.5815 -0.1621
 9516SOL     OW34383   0.309   9.511   5.137  0.0440  0.8055 -0.5558
 9516SOL    HW134384   0.401   9.495   5.157  0.0326  0.6692 -0.6107
 9516SOL    HW234385   0.283   9.582   5.196 -0.2235 -0.1498  0.4990
 9517SOL     OW34386   3.123   8.693   2.773  0.3114 -0.2181  0.1558
 9517SOL    HW134387   3.089   8.690   2.684 -1.1095  0.2297  0.6662
 9517SOL    HW234388   3.201   8.749   2.767  0.1434 -0.0702 -0.7660
 9518SOL     OW34389   5.728   6.980   4.266 -0.2197  0.5166 -0.1429
 9518SOL    HW134390   5.765   6.987   4.353 -0.8931 -1.7908  0.3810
 9518SOL    HW234391   5.637   7.009   4.276 -0.5508 -0.5845  0.1409
 9519SOL     OW34392   5.107   1.899   0.389  0.0186 -0.5411 -0.3289
 9519SOL    HW134393   5.153   1.861   0.314  0.1824 -1.8078  0.3771
 9519SOL    HW234394   5.131   1.992   0.388  1.6122 -0.9240 -0.7141
 9520SOL     OW34395   4.154   3.776   8.550  0.1063 -0.0199  0.0616
 9520SOL    HW134396   4.202   3.814   8.476  0.7407  1.0087  0.9699
 9520SOL    HW234397   4.222   3.761   8.616 -0.8484  2.1065  1.6471
 9521SOL     OW34398   0.691   2.694   1.586  0.5585 -0.3652 -0.4654
 9521SOL    HW134399   0.643   2.744   1.652 -0.1570 -0.6744 -0.7340
 9521SOL    HW234400   0.726   2.619   1.634  2.9642  1.1242  0.2776
 9522SOL     OW34401   5.666   9.416   4.581 -0.2370  0.5005  0.1922
 9522SOL    HW134402   5.736   9.381   4.636 -0.7184 -0.3205  0.2900
 9522SOL    HW234403   5.645   9.345   4.521 -1.0035  0.7439  0.1714
 9523SOL     OW34404   8.419   5.479  10.356  0.4105 -0.9240  0.6882
 9523SOL    HW134405   8.464   5.419  10.297  2.0913 -0.1036  1.0591
 9523SOL    HW234406   8.489   5.519  10.407 -0.3940  2.7100 -0.7756
 9524SOL     OW34407   7.300   2.389   4.925 -0.2800 -0.2672  0.1046
 9524SOL    HW134408   7.383   2.344   4.939  0.6163  0.4954 -2.2946
 9524SOL    HW234409   7.246   2.325   4.877 -0.2824 -0.0058 -0.2418
 9525SOL     OW34410   9.083  10.235   5.671  0.2314 -0.5351  0.1317
 9525SOL    HW134411   9.158  10.264   5.722 -1.0840 -1.7189  2.9035
 9525SOL    HW234412   9.007  10.259   5.724 -1.3232 -0.5140 -1.9817
 9526SOL     OW34413   5.560  10.559   0.486  0.1496  0.1358 -0.2540
 9526SOL    HW134414   5.630  10.547   0.550  1.1229 -1.8847 -1.6028
 9526SOL    HW234415   5.586  10.505   0.411 -3.5384 -1.8746 -0.2820
 9527SOL     OW34416   8.342  10.050  10.705  0.0197 -0.0694  0.4167
 9527SOL    HW134417   8.328  10.134  10.749  0.9824  0.4595 -0.2415
 9527SOL    HW234418   8.432  10.027  10.726 -0.3119 -1.0666  0.7822
 9528SOL     OW34419  10.508   7.111   8.100  0.0412 -0.2633  0.3845
 9528SOL    HW134420  10.582   7.094   8.159 -1.3474 -0.2034  2.2015
 9528SOL    HW234421  10.466   7.026   8.090 -0.5947  0.0163  0.6757
 9529SOL     OW34422   8.337   4.097   1.874  0.1423 -0.0381 -0.3728
 9529SOL    HW134423   8.251   4.140   1.868 -0.0003 -0.4597 -1.8239
 9529SOL    HW234424   8.400   4.168   1.867 -0.0508  0.3445  1.2784
 9530SOL     OW34425   0.019   4.214  10.466 -0.2962  0.1876 -0.4937
 9530SOL    HW134426  -0.067   4.252  10.481 -1.0634 -0.6626 -2.4289
 9530SOL    HW234427   0.024   4.202  10.371  2.3502  1.1005 -0.5489
 9531SOL     OW34428   6.515   4.061   1.249  0.1988  0.6673  0.0667
 9531SOL    HW134429   6.502   4.083   1.341 -2.1120 -0.5486  0.0975
 9531SOL    HW234430   6.557   3.975   1.251  0.2486  0.6889 -0.0317
 9532SOL     OW34431  10.141   8.394   9.910  0.6315  0.2191  0.3346
 9532SOL    HW134432  10.127   8.371  10.002  2.8100 -0.2436  0.6015
 9532SOL    HW234433  10.165   8.487   9.912  0.1872  0.3399  0.1666
 9533SOL     OW34434   6.201  10.029   6.052 -0.1765 -0.1250 -0.1285
 9533SOL    HW134435   6.113  10.034   6.088  0.5554 -2.1465  2.2665
 9533SOL    HW234436   6.228   9.938   6.069  2.6855  0.6873  0.1200
 9534SOL     OW34437   3.838  10.166   1.443  0.1598  0.0367 -0.1816
 9534SOL    HW134438   3.843  10.261   1.428  1.0579 -0.0142 -0.2554
 9534SOL    HW234439   3.891  10.152   1.521  1.4204 -0.6048 -1.1137
 9535SOL     OW34440   3.098   2.189   0.712  0.0056  0.0429  0.0640
 9535SOL    HW134441   3.004   2.184   0.694  0.0794 -0.2168 -0.2540
 9535SOL    HW234442   3.118   2.282   0.713  0.2163  0.0677 -2.3718
 9536SOL     OW34443   3.633   1.837   6.478 -0.2225 -0.0601  0.9221
 9536SOL    HW134444   3.602   1.791   6.400 -0.7188  0.1607  0.9837
 9536SOL    HW234445   3.658   1.923   6.447  0.9432 -0.4478  0.7649
 9537SOL     OW34446   4.150   1.443   0.742 -0.2047 -1.0943 -0.8170
 9537SOL    HW134447   4.100   1.417   0.819 -0.0867  1.6155  0.2915
 9537SOL    HW234448   4.092   1.504   0.696  1.5606  1.2527 -0.0933
 9538SOL     OW34449   4.282   7.156   2.649 -0.2338 -0.5380 -0.1936
 9538SOL    HW134450   4.264   7.062   2.649  0.4846 -0.6895  0.9045
 9538SOL    HW234451   4.366   7.164   2.603  0.6334 -0.6515  1.3161
 9539SOL     OW34452   3.649   7.538   3.610 -0.2594 -0.3151  0.2431
 9539SOL    HW134453   3.560   7.537   3.644 -0.1222 -0.3821  0.5975
 9539SOL    HW234454   3.693   7.608   3.659  0.2462 -1.1375  0.9766
 9540SOL     OW34455   1.521   5.277   0.915  0.5146 -0.2772  0.3672
 9540SOL    HW134456   1.580   5.202   0.918  0.7700 -0.0557  1.7925
 9540SOL    HW234457   1.439   5.242   0.880  0.3948 -1.4070  1.7009
 9541SOL     OW34458   4.995   3.948   6.454  0.5407 -0.2746  0.3150
 9541SOL    HW134459   5.088   3.935   6.472  0.5264  0.3605  0.9010
 9541SOL    HW234460   4.978   3.896   6.376  1.8158  1.0678 -0.9115
 9542SOL     OW34461   2.451  10.719   3.665 -0.0073 -0.6788  0.3150
 9542SOL    HW134462   2.534  10.767   3.667  0.4166 -1.3911  0.2806
 9542SOL    HW234463   2.386  10.781   3.697  0.8707 -0.7338  2.4085
 9543SOL     OW34464   0.489   9.276   4.395 -0.0076  0.1348 -0.2356
 9543SOL    HW134465   0.491   9.182   4.377 -0.4157  0.1515 -0.3860
 9543SOL    HW234466   0.580   9.303   4.394  0.4826 -0.8931  3.1969
 9544SOL     OW34467   0.649   2.018   9.881 -0.2689  0.1590  0.3855
 9544SOL    HW134468   0.672   2.000   9.972  0.4514  0.1119  0.2001
 9544SOL    HW234469   0.585   2.088   9.886  0.3491  0.6994  0.8942
 9545SOL     OW34470   0.346   0.626   6.507 -0.2507 -0.3629 -0.0148
 9545SOL    HW134471   0.431   0.602   6.543 -0.1497  0.0515  0.0337
 9545SOL    HW234472   0.304   0.676   6.577 -0.0196  0.5229 -0.4888
 9546SOL     OW34473   3.892   9.330   6.458  0.7909  0.5952  0.5863
 9546SOL    HW134474   3.970   9.336   6.512  1.0596 -1.7393  0.5631
 9546SOL    HW234475   3.824   9.296   6.516  0.2529  0.9730  0.1950
 9547SOL     OW34476   7.756   2.783   1.393  0.1345 -0.5371 -0.5379
 9547SOL    HW134477   7.751   2.707   1.451 -0.7790  0.4346  0.7219
 9547SOL    HW234478   7.667   2.818   1.391  0.2496 -0.2699 -2.1999
 9548SOL     OW34479  10.795   3.837   3.760  0.3046 -0.2076  0.4465
 9548SOL    HW134480  10.741   3.903   3.717 -1.4569 -0.3714  2.2537
 9548SOL    HW234481  10.763   3.834   3.850  2.6883 -1.0671  1.3619
 9549SOL     OW34482  10.632   4.160   4.685  0.5606  0.1155  0.1650
 9549SOL    HW134483  10.555   4.117   4.721 -0.0985  1.4907  0.4497
 9549SOL    HW234484  10.617   4.254   4.700  1.1110  0.6105 -2.0236
 9550SOL     OW34485   0.343   5.627   4.191  0.0058  0.0435 -0.0852
 9550SOL    HW134486   0.323   5.550   4.137 -1.1257  1.6164 -2.0780
 9550SOL    HW234487   0.288   5.617   4.268 -2.9329  0.5171 -1.9652
 9551SOL     OW34488   2.685   0.073   8.124  0.6471  0.4297 -0.2063
 9551SOL    HW134489   2.713  -0.015   8.147  0.7531  0.8411  1.3783
 9551SOL    HW234490   2.701   0.080   8.030  2.6235 -0.5272  0.0041
 9552SOL     OW34491   9.481   4.798   1.303 -0.0453  0.1504  0.4047
 9552SOL    HW134492   9.471   4.828   1.213  2.0401  1.3238  0.5111
 9552SOL    HW234493   9.575   4.807   1.321 -0.3451 -0.5136  2.5403
 9553SOL     OW34494   7.430  10.811   8.144 -0.1890 -0.3206  0.2856
 9553SOL    HW134495   7.342  10.781   8.125 -0.4032 -1.3597  2.6342
 9553SOL    HW234496   7.487  10.748   8.099 -0.5832  0.2966 -1.1488
 9554SOL     OW34497   1.811   3.495   1.444 -0.9776  0.1552  0.3456
 9554SOL    HW134498   1.892   3.504   1.392 -0.8529  1.3875  0.7227
 9554SOL    HW234499   1.802   3.401   1.457  0.0013 -0.0553 -0.3370
 9555SOL     OW34500   8.775   6.223   0.397  0.0523  0.3201 -0.3593
 9555SOL    HW134501   8.849   6.283   0.390  2.2648 -1.9928  1.2143
 9555SOL    HW234502   8.792   6.173   0.477 -0.9478 -3.1707 -2.0881
 9556SOL     OW34503   4.540   8.827   2.333  0.1885  0.3981 -0.1706
 9556SOL    HW134504   4.490   8.746   2.338  0.0084  0.1668 -3.4465
 9556SOL    HW234505   4.474   8.896   2.326  0.3556  0.7923  1.6109
 9557SOL     OW34506   4.241   5.478   0.408  0.0854 -0.0191 -0.8497
 9557SOL    HW134507   4.231   5.481   0.503  0.7352 -0.7842 -0.7491
 9557SOL    HW234508   4.152   5.487   0.375 -0.1661  0.0868 -0.1663
 9558SOL     OW34509   5.088   1.154   5.501 -0.5522  0.4922  0.0168
 9558SOL    HW134510   5.154   1.134   5.567  0.0521  0.9531 -0.4292
 9558SOL    HW234511   5.125   1.228   5.452 -1.1882  0.4494 -0.5441
 9559SOL     OW34512   4.955   5.885   6.327 -0.0960 -0.4120  0.1356
 9559SOL    HW134513   4.882   5.839   6.287 -0.0372 -0.6232  0.2672
 9559SOL    HW234514   5.018   5.899   6.256 -1.1300  1.6056 -0.4693
 9560SOL     OW34515   6.321   4.248   7.227 -0.1277 -0.8051  0.1263
 9560SOL    HW134516   6.230   4.219   7.227  0.0420 -1.4035 -1.1745
 9560SOL    HW234517   6.372   4.167   7.222  0.4216 -0.4224 -0.7517
 9561SOL     OW34518   5.041   2.032   5.846  0.1606 -0.4387 -0.2269
 9561SOL    HW134519   5.137   2.036   5.848  0.1513 -0.4866  0.5115
 9561SOL    HW234520   5.021   1.942   5.872 -0.1105 -0.1216  0.6851
 9562SOL     OW34521   2.153   0.435   5.053 -0.2085  0.4196 -0.0639
 9562SOL    HW134522   2.191   0.463   5.136  0.6675  0.4433 -0.4678
 9562SOL    HW234523   2.223   0.388   5.008 -1.7664 -3.2458  0.9139
 9563SOL     OW34524   6.478   4.009   8.014  0.1155  0.5695 -0.1964
 9563SOL    HW134525   6.547   4.073   7.994  1.6557 -0.8414  0.4300
 9563SOL    HW234526   6.431   3.999   7.931  1.7182  0.3517 -1.1321
 9564SOL     OW34527   3.380   3.155   3.200 -0.2805  0.0349 -0.0341
 9564SOL    HW134528   3.324   3.128   3.127 -0.0538 -1.9207  0.4601
 9564SOL    HW234529   3.465   3.173   3.160 -0.5820  0.5673 -0.4518
 9565SOL     OW34530   2.972   8.702   4.010 -0.1823  0.0990 -0.2965
 9565SOL    HW134531   3.049   8.739   4.053  1.0626 -1.1150 -1.3576
 9565SOL    HW234532   2.948   8.766   3.943  0.1992  0.2704 -0.2697
 9566SOL     OW34533   6.167   1.478   4.636  0.0550 -0.2332 -0.1965
 9566SOL    HW134534   6.168   1.573   4.619  1.9436 -0.4682 -1.8121
 9566SOL    HW234535   6.184   1.471   4.730 -1.5099  1.0178  0.2310
 9567SOL     OW34536   5.334   5.263   6.827  0.3683  0.5268 -0.1678
 9567SOL    HW134537   5.417   5.305   6.802 -0.1286  0.1927 -2.6168
 9567SOL    HW234538   5.344   5.245   6.921  3.3301 -0.1099 -0.5054
 9568SOL     OW34539   4.236   5.900   3.170 -0.3083  0.0608  0.2340
 9568SOL    HW134540   4.156   5.870   3.127 -1.4756  0.9407  1.6819
 9568SOL    HW234541   4.255   5.832   3.235 -0.6888  0.5163  0.8317
 9569SOL     OW34542   5.057   2.456   4.538 -0.0972  0.0307  0.1852
 9569SOL    HW134543   5.022   2.545   4.530 -1.5152 -0.3800  1.3472
 9569SOL    HW234544   5.055   2.421   4.449  0.0081  0.9809 -0.2012
 9570SOL     OW34545   7.334   8.144   3.937 -0.3254  0.2256  0.2977
 9570SOL    HW134546   7.313   8.126   3.845 -2.2907  1.6133  0.4207
 9570SOL    HW234547   7.410   8.202   3.933 -0.5149  0.4381 -0.4532
 9571SOL     OW34548   1.370   9.517   3.675 -0.2166 -0.7862  0.1650
 9571SOL    HW134549   1.440   9.495   3.613  0.1775  0.3096  0.1927
 9571SOL    HW234550   1.290   9.486   3.633 -0.0513  0.6390 -1.2882
 9572SOL     OW34551   4.946   3.742   1.538 -0.1278 -0.7013  0.0598
 9572SOL    HW134552   4.927   3.711   1.450 -0.5414  0.2237 -0.1878
 9572SOL    HW234553   5.041   3.744   1.543 -0.0481  1.4210 -1.1828
 9573SOL     OW34554   8.193   5.573   1.221 -0.0351 -0.1415  0.4111
 9573SOL    HW134555   8.114   5.556   1.170 -0.4183 -1.2755  1.3413
 9573SOL    HW234556   8.163   5.626   1.295  0.1036 -0.4433  0.6847
 9574SOL     OW34557   1.715  10.164   2.562  0.6040  0.4134 -0.3397
 9574SOL    HW134558   1.644  10.184   2.500  1.1770  0.8847 -0.8530
 9574SOL    HW234559   1.711  10.234   2.627 -0.9333 -0.8523  1.0350
 9575SOL     OW34560   1.502   7.141   0.022 -0.6609  0.1025 -0.5362
 9575SOL    HW134561   1.554   7.217  -0.005  0.2899 -0.6402 -0.8657
 9575SOL    HW234562   1.513   7.137   0.117  1.2729 -0.9800 -0.7449
 9576SOL     OW34563   4.040   9.578   0.270 -0.3450  0.1071 -0.1441
 9576SOL    HW134564   4.046   9.652   0.209 -2.1481 -0.0065 -0.5384
 9576SOL    HW234565   4.130   9.551   0.286  0.3150  2.0304 -0.4362
 9577SOL     OW34566   7.935   6.237   5.614  0.2275  0.2118  0.1437
 9577SOL    HW134567   7.944   6.143   5.600 -0.8185  0.2761 -1.1532
 9577SOL    HW234568   8.017   6.263   5.656  0.6679 -1.2146  0.2195
 9578SOL     OW34569   4.834   5.492   1.446  0.0660  0.5631 -0.3822
 9578SOL    HW134570   4.897   5.562   1.430  0.1006  0.5673 -0.2322
 9578SOL    HW234571   4.885   5.422   1.486 -0.2516  1.0674  0.9638
 9579SOL     OW34572   2.289   9.032   3.615  0.6858 -0.1278  0.3948
 9579SOL    HW134573   2.349   8.974   3.663  0.6413 -1.9016 -1.5635
 9579SOL    HW234574   2.204   9.017   3.656  1.0665  0.3259  1.3888
 9580SOL     OW34575   7.446   5.366   7.742  0.5615 -0.1654  0.2718
 9580SOL    HW134576   7.499   5.422   7.685 -0.1872  0.4481  0.1477
 9580SOL    HW234577   7.455   5.278   7.705  0.6402  0.1113 -0.3843
 9581SOL     OW34578   9.721   9.527   3.239 -0.0693  0.0309  0.2815
 9581SOL    HW134579   9.797   9.572   3.275  0.5697  0.1360 -1.1284
 9581SOL    HW234580   9.757   9.466   3.175 -1.0259 -1.5301  1.1681
 9582SOL     OW34581   7.422   6.296   9.836  0.4529 -0.3078  0.1595
 9582SOL    HW134582   7.387   6.345   9.761  0.6108 -0.4994 -0.0379
 9582SOL    HW234583   7.406   6.204   9.815 -1.3345 -0.3012  1.2656
 9583SOL     OW34584   8.105   6.140   0.001  0.2197 -0.2000  0.4623
 9583SOL    HW134585   8.053   6.075  -0.045  1.7818 -1.9601  1.0288
 9583SOL    HW234586   8.091   6.122   0.094 -0.2399  1.0796  0.6709
 9584SOL     OW34587   5.446   1.440   6.606  0.0101  0.3917 -0.1629
 9584SOL    HW134588   5.434   1.472   6.696  0.1117  1.6490 -0.5743
 9584SOL    HW234589   5.540   1.428   6.597 -0.1792 -3.1019  0.9562
 9585SOL     OW34590   6.403   5.032   3.600 -0.5614  0.4704 -0.1076
 9585SOL    HW134591   6.428   5.038   3.507  1.0260  1.7596  0.3370
 9585SOL    HW234592   6.399   5.123   3.629 -0.0283  0.0674  1.3238
 9586SOL     OW34593   7.661   3.221   2.885 -0.1360 -0.2506 -0.1511
 9586SOL    HW134594   7.598   3.288   2.914  0.1559  0.0555 -0.2130
 9586SOL    HW234595   7.689   3.178   2.966 -0.4011 -0.3685 -0.1200
 9587SOL     OW34596   6.002   7.793   9.583 -0.0717 -0.3509  0.1901
 9587SOL    HW134597   5.919   7.827   9.618  0.1159 -0.0563  0.3562
 9587SOL    HW234598   6.013   7.839   9.499  0.5008  0.4981  0.7104
 9588SOL     OW34599   3.326   8.043   1.060 -0.8364 -0.2885 -0.2090
 9588SOL    HW134600   3.240   8.034   1.019 -1.4915 -0.4712  1.1764
 9588SOL    HW234601   3.320   7.992   1.140  0.9774 -1.3164 -0.6735
 9589SOL     OW34602   4.526   6.773   3.019  0.6318 -0.4613  0.0480
 9589SOL    HW134603   4.549   6.687   2.985 -0.5533 -0.8102  0.0862
 9589SOL    HW234604   4.445   6.796   2.974  0.4019  0.1886  0.7668
 9590SOL     OW34605   8.886  10.113   9.699 -0.3849  0.1062  0.1998
 9590SOL    HW134606   8.908  10.039   9.642  2.6765  0.1829  1.0608
 9590SOL    HW234607   8.881  10.188   9.641  1.4826 -0.0230 -0.2097
 9591SOL     OW34608   5.841   7.189   7.468  0.1076 -0.0935  0.0995
 9591SOL    HW134609   5.925   7.196   7.422  0.1932  1.6552  0.4529
 9591SOL    HW234610   5.777   7.179   7.397  0.2992  1.9743 -0.4281
 9592SOL     OW34611  10.112   7.152   4.190 -0.3230 -0.2027 -0.1162
 9592SOL    HW134612  10.095   7.209   4.116  0.1225  1.8330  1.2715
 9592SOL    HW234613  10.173   7.086   4.157 -1.0543 -0.0532 -1.8280
 9593SOL     OW34614   8.948   5.492   6.584 -0.2381 -0.1092 -0.0931
 9593SOL    HW134615   8.945   5.408   6.628 -1.3099 -0.6976 -1.2467
 9593SOL    HW234616   8.973   5.471   6.494  2.1416  1.0820  0.2029
 9594SOL     OW34617   6.611   2.296   2.744 -0.0058  0.3202 -0.4188
 9594SOL    HW134618   6.651   2.217   2.707 -1.4963 -0.7968  0.2452
 9594SOL    HW234619   6.652   2.305   2.830  0.5670  0.6163 -0.7133
 9595SOL     OW34620   0.661  10.093   3.649  0.4495 -0.0423  0.0261
 9595SOL    HW134621   0.695  10.007   3.674 -0.4762  0.3493  2.9954
 9595SOL    HW234622   0.566  10.084   3.656  0.3852  1.6762  2.4325
 9596SOL     OW34623   5.322   0.110   6.420 -1.0120  0.0681 -0.4114
 9596SOL    HW134624   5.325   0.098   6.325  0.7954  0.6625 -0.4515
 9596SOL    HW234625   5.350   0.026   6.456 -2.5843 -0.4719 -0.3301
 9597SOL     OW34626   8.223   0.698   7.063 -0.1023  0.6153  0.0196
 9597SOL    HW134627   8.236   0.718   6.970 -0.7901 -1.0141 -0.4597
 9597SOL    HW234628   8.276   0.620   7.078  0.1021  0.9326  1.0500
 9598SOL     OW34629  10.808   7.740   1.832  0.4040  0.7134  0.3437
 9598SOL    HW134630  10.883   7.690   1.863 -0.5229 -0.2545  1.1434
 9598SOL    HW234631  10.776   7.692   1.756  0.3636  0.8812  0.2551
 9599SOL     OW34632   5.933   3.103   3.910  0.0613  0.2007 -0.1492
 9599SOL    HW134633   5.973   3.145   3.986  0.1298 -0.2669  0.0735
 9599SOL    HW234634   5.881   3.173   3.869  1.0423  0.7956 -0.4062
 9600SOL     OW34635   9.395   2.521   5.792 -0.2289  0.6308  0.0469
 9600SOL    HW134636   9.358   2.450   5.845 -1.1077 -0.0328 -1.4295
 9600SOL    HW234637   9.483   2.490   5.769 -1.0595 -0.5931 -1.6498
 9601SOL     OW34638   7.418  10.065   9.134  0.0224  0.2786  0.5942
 9601SOL    HW134639   7.502  10.020   9.136 -1.3193 -2.4609  0.1581
 9601SOL    HW234640   7.385  10.058   9.224  0.1936  1.2924  0.7513
 9602SOL     OW34641   0.400   4.721   9.704  0.3485  0.6150 -0.1070
 9602SOL    HW134642   0.338   4.772   9.757  1.0570  0.1597  1.1953
 9602SOL    HW234643   0.420   4.644   9.757  1.1639  0.1864 -1.0015
 9603SOL     OW34644   3.535   6.648   4.783  0.2203 -0.6247  0.2871
 9603SOL    HW134645   3.503   6.725   4.829  1.5304  1.3326 -1.8164
 9603SOL    HW234646   3.585   6.684   4.709  1.0574 -3.5115 -0.6852
 9604SOL     OW34647   8.746   2.259   7.234  0.5155  0.0267  0.3185
 9604SOL    HW134648   8.796   2.297   7.306 -1.3754  0.3621  1.5105
 9604SOL    HW234649   8.655   2.270   7.259 -0.1753 -1.5777 -1.2506
 9605SOL     OW34650   3.914   7.445   5.866 -0.4260 -0.4133  0.1311
 9605SOL    HW134651   3.890   7.491   5.785 -2.1117  0.6877  1.2040
 9605SOL    HW234652   3.974   7.506   5.910  1.6048 -1.5953 -0.8505
 9606SOL     OW34653   8.839   8.636   5.423 -0.1738 -0.2140  0.0728
 9606SOL    HW134654   8.869   8.652   5.334 -3.0799 -0.4066 -1.0524
 9606SOL    HW234655   8.848   8.541   5.435 -0.9143 -0.3608 -0.4950
 9607SOL     OW34656   6.530   6.731   4.220  0.2064  0.1693 -0.3107
 9607SOL    HW134657   6.475   6.808   4.229  0.6264  0.5879 -1.2130
 9607SOL    HW234658   6.469   6.659   4.207 -0.1394  0.5735 -0.9537
 9608SOL     OW34659   6.559   4.630   3.422  0.4708 -0.5970 -0.9958
 9608SOL    HW134660   6.466   4.650   3.426  0.7009  0.3406 -0.1463
 9608SOL    HW234661   6.601   4.713   3.400  1.2092 -0.7260 -0.1347
 9609SOL     OW34662   0.105   4.503   3.312 -0.6456 -0.2010 -0.3773
 9609SOL    HW134663   0.047   4.434   3.281 -1.3528  0.8942 -1.6039
 9609SOL    HW234664   0.160   4.524   3.237 -1.4226  1.5448 -0.4932
 9610SOL     OW34665  10.143   6.785   8.881  0.0052 -0.0559  0.2232
 9610SOL    HW134666  10.203   6.711   8.872  1.1502  0.6176  1.7014
 9610SOL    HW234667  10.057   6.749   8.864  0.4929 -1.8233  1.2424
 9611SOL     OW34668   2.960   6.222   0.955 -0.1217  0.4002  0.1561
 9611SOL    HW134669   3.024   6.285   0.925  1.2992 -0.2854  1.5712
 9611SOL    HW234670   2.984   6.140   0.912 -0.2004  0.2021  0.4808
 9612SOL     OW34671   7.405   8.967   7.436 -0.1375  0.4344 -0.2370
 9612SOL    HW134672   7.372   8.953   7.347 -3.3347  1.8411  0.6005
 9612SOL    HW234673   7.368   8.894   7.487 -0.2236  0.8847  0.3557
 9613SOL     OW34674   2.147   4.963   5.909 -0.4370 -0.9499  0.7342
 9613SOL    HW134675   2.082   5.025   5.879 -0.1127 -1.5291 -1.3011
 9613SOL    HW234676   2.203   5.013   5.968  0.3635  1.0071 -1.5424
 9614SOL     OW34677   0.529   3.188   5.959 -0.1973  0.3509 -0.2222
 9614SOL    HW134678   0.503   3.258   6.018  1.9677  0.6356  0.4873
 9614SOL    HW234679   0.508   3.222   5.871 -0.9996  1.0350  0.2184
 9615SOL     OW34680   8.907   6.112   0.624 -0.1346 -0.9944 -0.4224
 9615SOL    HW134681   8.938   6.196   0.660 -0.9589 -1.4602  1.5297
 9615SOL    HW234682   8.987   6.064   0.604  0.5285 -1.5054  2.8771
 9616SOL     OW34683   8.284   6.225   1.135  0.1405 -0.0798  0.1699
 9616SOL    HW134684   8.277   6.303   1.190 -0.3044 -1.2006  1.7416
 9616SOL    HW234685   8.295   6.260   1.046  1.5664  1.7756  1.0105
 9617SOL     OW34686  10.051   2.640   3.549  0.1059 -0.5956 -0.0980
 9617SOL    HW134687  10.046   2.669   3.640 -2.4000 -2.5496  0.5059
 9617SOL    HW234688  10.023   2.715   3.497  1.6373  0.5687  0.6516
 9618SOL     OW34689   0.742   3.278   3.299 -0.2046 -0.3632 -0.4234
 9618SOL    HW134690   0.760   3.185   3.314  0.3270 -0.4077 -1.2758
 9618SOL    HW234691   0.720   3.313   3.385 -0.5392 -1.3069 -0.1141
 9619SOL     OW34692   5.214   1.154   8.234 -0.0023  0.3008  0.3389
 9619SOL    HW134693   5.209   1.141   8.140  1.3713  2.6859 -0.1678
 9619SOL    HW234694   5.308   1.155   8.253 -0.0123  3.7267  0.9451
 9620SOL     OW34695   0.169   0.336   4.170 -0.0205 -0.5274  0.1443
 9620SOL    HW134696   0.140   0.405   4.230  1.9390  1.8889 -1.4849
 9620SOL    HW234697   0.113   0.347   4.093  0.1563 -0.9248 -0.0437
 9621SOL     OW34698   3.118   2.264   2.747  0.7091  0.1093 -0.1414
 9621SOL    HW134699   3.092   2.183   2.792 -0.0090  1.1224  1.3352
 9621SOL    HW234700   3.038   2.295   2.705  1.0165 -0.0008 -0.8269
 9622SOL     OW34701   0.889   3.536   8.501  0.4642 -0.8999  0.5748
 9622SOL    HW134702   0.968   3.576   8.536  0.7586  0.9705 -1.9512
 9622SOL    HW234703   0.870   3.585   8.421 -4.1256 -0.2802  1.7680
 9623SOL     OW34704   1.571   2.600   3.330  0.1091 -0.5090 -0.0256
 9623SOL    HW134705   1.483   2.623   3.360  0.2632 -1.5079  1.2799
 9623SOL    HW234706   1.557   2.562   3.243 -0.4265  1.7486 -1.0014
 9624SOL     OW34707   6.518   1.820   7.146  0.0866 -0.1503  0.2319
 9624SOL    HW134708   6.510   1.728   7.172  0.0458 -0.4167 -0.7036
 9624SOL    HW234709   6.550   1.864   7.225 -1.4986 -0.6682  1.2295
 9625SOL     OW34710   2.259  10.628   9.645  0.4628  0.2005  0.1365
 9625SOL    HW134711   2.207  10.591   9.574  1.3624 -2.7510  0.8493
 9625SOL    HW234712   2.198  10.682   9.695 -0.9880 -0.3065 -1.0304
 9626SOL     OW34713  10.531   4.349   4.357  0.3263  0.0417  0.2646
 9626SOL    HW134714  10.462   4.284   4.370  0.4717  0.2044  2.1139
 9626SOL    HW234715  10.595   4.305   4.301 -1.4669  0.0723 -1.9440
 9627SOL     OW34716   3.502   6.819   6.441  0.2414  0.9016 -0.3191
 9627SOL    HW134717   3.482   6.801   6.349  0.8347 -2.5369  0.0854
 9627SOL    HW234718   3.423   6.793   6.488  0.5171  1.0651  0.2383
 9628SOL     OW34719   1.151   5.105   8.410 -0.2309  0.4933 -0.2454
 9628SOL    HW134720   1.180   5.039   8.472  0.7991  0.9593 -0.2131
 9628SOL    HW234721   1.056   5.092   8.403 -0.2432 -0.0699  0.8179
 9629SOL     OW34722   3.134   0.444   7.207 -0.4665  0.1598  0.1396
 9629SOL    HW134723   3.096   0.393   7.279 -0.6240  0.6801  0.4315
 9629SOL    HW234724   3.071   0.434   7.136 -0.8694  0.5383  0.4334
 9630SOL     OW34725   1.810   1.377   9.336 -0.4238  0.2446  0.0589
 9630SOL    HW134726   1.874   1.328   9.387  0.5612  1.0873 -0.3236
 9630SOL    HW234727   1.863   1.434   9.279 -1.4893  2.3319  1.0220
 9631SOL     OW34728   7.223   1.565   0.354 -0.4809  0.2008 -0.2715
 9631SOL    HW134729   7.315   1.547   0.336 -0.6265  0.3281 -1.2035
 9631SOL    HW234730   7.218   1.660   0.364 -0.1667  0.0461  1.9674
 9632SOL     OW34731   2.765   2.252   7.646 -0.1340 -0.1483 -0.3852
 9632SOL    HW134732   2.764   2.348   7.644 -1.2883 -0.0591 -4.7387
 9632SOL    HW234733   2.706   2.230   7.719 -0.1988  2.4059  0.4501
 9633SOL     OW34734   5.262   7.674   0.946 -0.6370  0.4818  0.0227
 9633SOL    HW134735   5.242   7.633   0.862 -0.4921 -0.6245  0.5057
 9633SOL    HW234736   5.358   7.681   0.946  0.3188 -5.7698  2.6908
 9634SOL     OW34737  10.040   4.653   0.794 -0.2140 -0.2425  0.1959
 9634SOL    HW134738  10.090   4.712   0.738  0.1043  0.3362  1.0806
 9634SOL    HW234739  10.051   4.688   0.882 -2.1750 -0.1027  0.4183
 9635SOL     OW34740  10.877   1.824   9.326 -0.5312 -0.3263  0.0439
 9635SOL    HW134741  10.923   1.785   9.401  0.6841 -0.6434 -0.8431
 9635SOL    HW234742  10.797   1.772   9.318 -0.1541 -0.9842  0.4532
 9636SOL     OW34743   0.423   4.788  10.286  0.0763 -0.3148 -0.2742
 9636SOL    HW134744   0.421   4.838  10.368 -1.6656 -1.5024  0.4874
 9636SOL    HW234745   0.443   4.699  10.313  0.8878 -0.4697 -1.3342
 9637SOL     OW34746  10.219   2.173   0.927 -0.0633  0.1954 -0.2873
 9637SOL    HW134747  10.160   2.180   1.003 -1.2102 -1.9948 -0.8926
 9637SOL    HW234748  10.161   2.177   0.851  0.9925  1.5741 -1.0753
 9638SOL     OW34749   9.993   4.872   8.015 -0.1386 -0.3363  0.0085
 9638SOL    HW134750   9.909   4.865   8.061  0.4359 -2.0096  0.9015
 9638SOL    HW234751  10.059   4.874   8.085  0.6619 -0.9601 -0.6984
 9639SOL     OW34752   3.217   4.975   4.676  0.3192  0.5582  0.3176
 9639SOL    HW134753   3.128   4.986   4.708  1.4391  4.2599  2.7619
 9639SOL    HW234754   3.229   4.880   4.671 -3.2654 -0.0749  1.1731
 9640SOL     OW34755   7.365   3.148   4.507  0.3813  0.0803 -0.2640
 9640SOL    HW134756   7.281   3.177   4.543 -1.0001 -1.9499 -1.5781
 9640SOL    HW234757   7.396   3.222   4.456 -2.3956 -0.1597 -2.5751
 9641SOL     OW34758  10.561   0.601   9.778  0.2853 -0.2918  0.0539
 9641SOL    HW134759  10.608   0.566   9.853  0.8251 -2.3057 -1.1596
 9641SOL    HW234760  10.629   0.615   9.712 -0.3975 -0.1261 -0.6304
 9642SOL     OW34761   4.886   2.776   5.126  0.2097 -0.3481  0.3307
 9642SOL    HW134762   4.940   2.807   5.054 -1.8063  1.4282 -0.5423
 9642SOL    HW234763   4.863   2.686   5.102  0.8563 -0.3119 -0.4427
 9643SOL     OW34764   0.182   2.927   5.679  0.3236 -0.6581 -0.2088
 9643SOL    HW134765   0.114   2.958   5.620  0.9214 -1.1450 -1.1632
 9643SOL    HW234766   0.148   2.947   5.767 -1.5609 -1.9535 -0.6045
 9644SOL     OW34767   3.350   1.261   9.819  0.6477 -0.0313 -0.5512
 9644SOL    HW134768   3.401   1.196   9.770 -1.0204 -2.1846  0.4050
 9644SOL    HW234769   3.379   1.250   9.910  0.0011  0.2158 -0.3121
 9645SOL     OW34770   1.326   4.638   1.394 -0.4867  0.0089  0.1335
 9645SOL    HW134771   1.278   4.711   1.433 -0.8489  0.3602 -0.9481
 9645SOL    HW234772   1.262   4.567   1.391 -0.1821 -0.3155  1.0332
 9646SOL     OW34773   7.236   1.978   5.707  0.1073 -0.5455 -0.6254
 9646SOL    HW134774   7.303   1.911   5.722 -0.6836 -1.4128 -0.8370
 9646SOL    HW234775   7.153   1.930   5.712 -0.4975  0.4855 -0.4518
 9647SOL     OW34776   0.171   3.483   5.186 -0.7742 -0.0044  0.1425
 9647SOL    HW134777   0.118   3.451   5.259 -0.9859 -1.1351 -0.4924
 9647SOL    HW234778   0.208   3.565   5.218 -1.5129 -0.0726  1.2260
 9648SOL     OW34779   0.518   3.044   6.239 -0.1026  0.1478  0.0175
 9648SOL    HW134780   0.530   3.062   6.146 -2.7701  2.3767 -0.0270
 9648SOL    HW234781   0.436   2.995   6.244 -0.5220  0.9378  1.2437
 9649SOL     OW34782   4.608   5.833   2.083 -0.0200 -0.1594  0.1623
 9649SOL    HW134783   4.584   5.918   2.046  3.9881  1.7661  1.4252
 9649SOL    HW234784   4.558   5.828   2.164  0.6224  1.6962  0.7301
 9650SOL     OW34785   2.818   7.778   8.308  0.1229 -0.6038  0.2991
 9650SOL    HW134786   2.909   7.754   8.326  0.0683  1.2222  3.9964
 9650SOL    HW234787   2.821   7.872   8.292 -0.9537 -0.8734 -1.9205
 9651SOL     OW34788   5.871   1.740   1.743  0.0274 -0.4772 -0.1556
 9651SOL    HW134789   5.960   1.714   1.718  0.3558  0.2574  0.1887
 9651SOL    HW234790   5.880   1.770   1.834 -0.6137 -0.5674 -0.0567
 9652SOL     OW34791   1.794   1.160   0.087 -0.3144 -0.2956  0.5249
 9652SOL    HW134792   1.874   1.139   0.039 -0.2490 -1.1397  0.9927
 9652SOL    HW234793   1.745   1.217   0.027  0.7349  0.4307  0.3313
 9653SOL     OW34794   3.397   0.543   3.981 -0.1432  0.1716 -0.3509
 9653SOL    HW134795   3.404   0.469   4.041  0.9695 -0.2385 -0.9576
 9653SOL    HW234796   3.369   0.504   3.898 -1.2992  0.6824 -0.2093
 9654SOL     OW34797   9.757   6.814   6.166 -0.1068  0.5921 -0.5306
 9654SOL    HW134798   9.721   6.874   6.101  0.8648  2.7372  0.8206
 9654SOL    HW234799   9.718   6.841   6.249  0.8289 -0.2540  0.2113
 9655SOL     OW34800  10.149   3.404  10.537  0.3402  0.1527  0.3271
 9655SOL    HW134801  10.098   3.383  10.459 -0.6176  2.3626  0.2689
 9655SOL    HW234802  10.239   3.408  10.507  0.1444 -0.3990 -0.3474
 9656SOL     OW34803   6.154   5.855   5.572  0.4707 -0.5027 -1.2568
 9656SOL    HW134804   6.069   5.880   5.609  1.2626 -0.1507  0.4372
 9656SOL    HW234805   6.175   5.925   5.511  0.5569  0.6211  0.0191
 9657SOL     OW34806   7.136   7.172   4.749  0.3149 -0.1925  0.1614
 9657SOL    HW134807   7.225   7.162   4.715  1.8324 -0.9262  3.8262
 9657SOL    HW234808   7.082   7.117   4.692  2.2718 -0.1896 -1.8355
 9658SOL     OW34809   1.526   0.768   8.588  0.0002 -0.6446 -0.4348
 9658SOL    HW134810   1.607   0.719   8.573 -0.6239 -1.3913 -1.4697
 9658SOL    HW234811   1.468   0.706   8.631 -0.5042 -0.5492 -0.9746
 9659SOL     OW34812   8.646   4.848   6.495  0.2803  0.1032  0.0846
 9659SOL    HW134813   8.575   4.861   6.433 -0.7964  1.8402  1.5871
 9659SOL    HW234814   8.605   4.805   6.570  1.3439 -1.0357  0.0439
 9660SOL     OW34815   0.259   8.690   9.391 -0.2285  0.2494 -0.3960
 9660SOL    HW134816   0.320   8.762   9.408  0.4086 -0.0044 -1.4484
 9660SOL    HW234817   0.270   8.673   9.297  0.6836 -2.1473  0.0817
 9661SOL     OW34818   2.475   6.180   4.909  0.5799 -0.0971 -0.0752
 9661SOL    HW134819   2.448   6.167   5.000  0.1661 -0.2678 -0.2218
 9661SOL    HW234820   2.481   6.275   4.899 -0.8248 -0.0139 -0.2855
 9662SOL     OW34821   6.244  10.771   9.320 -0.1657  0.1485  0.1332
 9662SOL    HW134822   6.338  10.755   9.314 -0.0986  0.1691  0.9878
 9662SOL    HW234823   6.218  10.798   9.232  0.8077  1.1067  0.1270
 9663SOL     OW34824   2.980   7.562   4.343 -0.4286 -0.3248  0.0988
 9663SOL    HW134825   2.968   7.467   4.350 -2.0176 -0.1039  0.9313
 9663SOL    HW234826   3.014   7.588   4.428  1.0667 -0.2590 -0.4958
 9664SOL     OW34827   9.402  10.451   0.630 -0.3241  0.3714 -0.5326
 9664SOL    HW134828   9.322  10.504   0.628 -0.0408  0.9265  1.1491
 9664SOL    HW234829   9.428  10.450   0.722  0.8862 -0.9100 -0.8530
 9665SOL     OW34830   7.370   0.755  10.894 -0.7335  0.4673 -0.5629
 9665SOL    HW134831   7.342   0.670  10.926 -1.3696  0.6566 -0.6075
 9665SOL    HW234832   7.455   0.739  10.853 -0.0526  0.1606  0.9172
 9666SOL     OW34833  10.473   9.642   5.755 -0.5680  0.3077  0.3816
 9666SOL    HW134834  10.437   9.578   5.816 -0.5133  1.2732  1.4621
 9666SOL    HW234835  10.481   9.595   5.672 -1.0331 -0.9144  1.0125
 9667SOL     OW34836   8.678   6.767   9.937 -0.3306  0.2676 -0.0848
 9667SOL    HW134837   8.604   6.708   9.926 -0.1791  0.1196 -0.3089
 9667SOL    HW234838   8.642   6.842   9.985 -0.3063 -0.4284  1.0535
 9668SOL     OW34839   2.356   2.033   3.535  0.1951  0.8190 -0.2880
 9668SOL    HW134840   2.261   2.023   3.545  0.4775 -1.9215  0.5765
 9668SOL    HW234841   2.391   1.948   3.560  2.7348  0.8890 -3.1245
 9669SOL     OW34842   9.832   0.029   4.160  0.0436 -0.0565 -0.6563
 9669SOL    HW134843   9.751  -0.011   4.191 -1.6231  1.7270 -2.4834
 9669SOL    HW234844   9.847  -0.011   4.074  2.9985 -2.7523  0.8654
 9670SOL     OW34845   3.124   3.725   0.283  0.3105 -0.3393  0.0002
 9670SOL    HW134846   3.143   3.766   0.367 -1.5303  0.2971  0.1558
 9670SOL    HW234847   3.128   3.631   0.301 -3.5448 -0.3531  1.8313
 9671SOL     OW34848   3.018   8.367   7.719  0.0030 -0.2500  0.1121
 9671SOL    HW134849   3.000   8.329   7.633 -1.7570 -1.3221  0.8949
 9671SOL    HW234850   2.935   8.360   7.766  1.0318 -0.0906  2.0571
 9672SOL     OW34851  10.774   2.334   9.648 -0.6696 -0.2192  0.0621
 9672SOL    HW134852  10.845   2.311   9.708 -0.3310  1.7441  0.4901
 9672SOL    HW234853  10.817   2.347   9.563 -0.4019  1.3557  0.4056
 9673SOL     OW34854   8.047   5.237   9.810  0.1932  0.6911  0.0624
 9673SOL    HW134855   8.085   5.269   9.892  0.5939  1.7168 -0.5013
 9673SOL    HW234856   7.967   5.287   9.799  0.2250  0.6749 -0.2572
 9674SOL     OW34857  10.500   6.550   4.389  0.0509 -0.1562  0.0899
 9674SOL    HW134858  10.548   6.473   4.421 -0.9072 -1.1079 -0.6848
 9674SOL    HW234859  10.426   6.558   4.449 -1.3212 -1.4812 -1.3495
 9675SOL     OW34860   8.754   3.727   5.976 -0.1813  0.1215 -0.0393
 9675SOL    HW134861   8.775   3.820   5.961  3.5678 -0.2196  1.7907
 9675SOL    HW234862   8.837   3.682   5.962 -1.6471 -2.8621  0.2354
 9676SOL     OW34863   6.461   2.995  10.148  0.1656 -0.7571  0.0429
 9676SOL    HW134864   6.402   2.920  10.154 -1.6390  0.7181  2.3575
 9676SOL    HW234865   6.409   3.064  10.108  0.0799  0.6676  2.4034
 9677SOL     OW34866   9.092   5.736   5.723 -0.1797 -0.0321 -0.2497
 9677SOL    HW134867   9.169   5.756   5.775  1.0901 -0.7572 -1.7612
 9677SOL    HW234868   9.019   5.772   5.773  1.1867  1.2548  0.9092
 9678SOL     OW34869   9.628   2.495  10.792  0.2767 -0.2386  0.0536
 9678SOL    HW134870   9.623   2.512  10.886 -0.4339 -1.3964  0.2427
 9678SOL    HW234871   9.722   2.484  10.775  0.4559  0.5049  0.5103
 9679SOL     OW34872   3.272   3.552   4.433  0.0097  0.0965 -0.2862
 9679SOL    HW134873   3.264   3.597   4.517  1.6409 -0.5230  0.2431
 9679SOL    HW234874   3.349   3.593   4.392  0.7259 -1.2843 -0.3664
 9680SOL     OW34875   8.968   8.080   8.051 -0.3004 -0.5941 -0.2098
 9680SOL    HW134876   9.026   8.106   8.122 -1.8309 -0.8697  1.1990
 9680SOL    HW234877   8.904   8.150   8.045  0.7524  0.2587 -2.5125
 9681SOL     OW34878   7.442   1.252   9.103  0.5554  0.1693  0.4305
 9681SOL    HW134879   7.486   1.292   9.028  1.0223 -0.8144  0.1582
 9681SOL    HW234880   7.446   1.318   9.171  1.1190  0.6681 -0.0736
 9682SOL     OW34881   5.740   3.175   7.457  0.4213 -0.3344 -0.2964
 9682SOL    HW134882   5.656   3.138   7.429  0.5277 -0.0136 -1.0763
 9682SOL    HW234883   5.738   3.265   7.424  0.5247  0.0973  0.8378
 9683SOL     OW34884   6.597   5.114   6.794 -0.4772  0.0482 -0.2764
 9683SOL    HW134885   6.579   5.125   6.887 -1.3062 -0.9351 -0.2902
 9683SOL    HW234886   6.523   5.062   6.762  1.3189 -2.3766 -0.8267
 9684SOL     OW34887   9.333   8.425   5.222 -0.5472 -0.3954  0.8125
 9684SOL    HW134888   9.392   8.353   5.245 -0.1678  0.3832  2.4499
 9684SOL    HW234889   9.284   8.392   5.147  0.1690 -2.0593  1.0146
 9685SOL     OW34890   8.778   4.239   1.566 -0.2000 -0.3584  0.0091
 9685SOL    HW134891   8.870   4.217   1.549  0.5110  1.3951  1.3124
 9685SOL    HW234892   8.781   4.319   1.618 -2.5019  0.1146 -0.4471
 9686SOL     OW34893   6.725   6.585   3.555 -0.3802 -0.3873 -0.3897
 9686SOL    HW134894   6.752   6.499   3.522  1.6221  0.8030 -2.1609
 9686SOL    HW234895   6.737   6.643   3.480 -0.5852  1.6362  1.0676
 9687SOL     OW34896   6.199   5.699   2.275 -0.5807  0.6409 -0.1750
 9687SOL    HW134897   6.109   5.692   2.308 -0.9533  0.1193 -1.2672
 9687SOL    HW234898   6.210   5.624   2.216  0.8016  0.3185  0.4494
 9688SOL     OW34899   4.019   9.267   5.475 -0.4540 -0.2024 -0.2162
 9688SOL    HW134900   3.986   9.281   5.564  0.9560 -1.7260  0.5857
 9688SOL    HW234901   4.002   9.350   5.431  0.1144  1.1074  1.8859
 9689SOL     OW34902  10.773   2.569   3.851 -0.3508  0.3494  0.4673
 9689SOL    HW134903  10.731   2.503   3.906 -1.1087 -0.9047 -1.5042
 9689SOL    HW234904  10.825   2.519   3.788  0.5956  1.7252  0.0961
 9690SOL     OW34905   6.021   8.688   0.812 -0.6084  0.2278 -0.3715
 9690SOL    HW134906   5.989   8.707   0.900 -0.3763  0.0450 -0.2478
 9690SOL    HW234907   5.980   8.755   0.757  0.2832  1.1704  0.0795
 9691SOL     OW34908   8.110   2.554   9.380  0.1546 -0.9501 -0.2834
 9691SOL    HW134909   8.084   2.481   9.323 -0.1930 -0.6992 -0.4457
 9691SOL    HW234910   8.117   2.629   9.322 -1.0149 -0.5055  0.1282
 9692SOL     OW34911   8.460   6.920   3.920 -0.3077  0.9483 -0.1798
 9692SOL    HW134912   8.453   6.960   3.833 -0.9903 -0.3292 -0.7556
 9692SOL    HW234913   8.492   6.990   3.977  1.3071  1.5198 -1.6816
 9693SOL     OW34914   9.464   4.066   5.771 -0.2476 -0.1464  0.6551
 9693SOL    HW134915   9.495   3.980   5.797  0.2797 -0.2042 -0.1094
 9693SOL    HW234916   9.518   4.089   5.695  0.5101  1.4175  1.6208
 9694SOL     OW34917   3.545   1.384   3.027  0.7388 -0.1392 -0.1084
 9694SOL    HW134918   3.591   1.337   2.957 -1.2690 -0.7789 -1.0763
 9694SOL    HW234919   3.531   1.472   2.991  0.1119 -0.3301 -0.3456
 9695SOL     OW34920   9.763  10.853   2.050  0.1350 -0.1543 -0.5394
 9695SOL    HW134921   9.713  10.779   2.016 -1.2612 -1.3566  3.4829
 9695SOL    HW234922   9.716  10.930   2.018 -2.5603 -1.2280  0.4912
 9696SOL     OW34923   6.111   9.093  10.591 -0.8029  0.7203  0.3151
 9696SOL    HW134924   6.090   9.000  10.583 -1.9801  0.9763  0.2323
 9696SOL    HW234925   6.186   9.096  10.650 -1.4855 -0.2082  1.2579
 9697SOL     OW34926   2.156   4.028   9.658 -0.0101 -0.0680  0.1048
 9697SOL    HW134927   2.128   3.987   9.576  0.7880  0.1548 -0.2846
 9697SOL    HW234928   2.191   3.955   9.710 -1.1014 -0.3178  0.5185
 9698SOL     OW34929   9.665   7.374   2.940  0.3242  0.2276  0.2405
 9698SOL    HW134930   9.713   7.456   2.931 -1.6352  1.3883 -0.4120
 9698SOL    HW234931   9.579   7.401   2.974  0.0399 -1.7044  1.1774
 9699SOL     OW34932   0.070   8.027   2.054  0.1109 -0.7194 -0.6120
 9699SOL    HW134933   0.166   8.031   2.054  0.1050  0.3199  0.8760
 9699SOL    HW234934   0.046   8.028   2.147 -1.3606 -0.3995 -0.9699
 9700SOL     OW34935   5.071   3.412   3.213 -0.1798 -0.2290 -0.0478
 9700SOL    HW134936   4.992   3.440   3.167  0.7373 -0.5568 -1.9114
 9700SOL    HW234937   5.058   3.319   3.229 -0.0671 -0.3454 -0.6101
 9701SOL     OW34938  10.296   1.792   7.000  0.6441  0.1338  0.0206
 9701SOL    HW134939  10.299   1.700   7.023  3.0067  0.2711  0.4422
 9701SOL    HW234940  10.228   1.798   6.932 -0.5040 -1.6498  0.9443
 9702SOL     OW34941   9.375   1.937   9.078  0.8851  0.7501  0.0297
 9702SOL    HW134942   9.416   2.021   9.062 -0.3856  1.4102  0.1221
 9702SOL    HW234943   9.416   1.877   9.015 -1.0236  2.3259 -2.9358
 9703SOL     OW34944  10.596  10.130   8.049 -0.3696  0.0183  0.0835
 9703SOL    HW134945  10.664  10.103   7.987 -0.3372  0.9776 -0.3199
 9703SOL    HW234946  10.644  10.145   8.131 -0.0967  0.6063 -0.1754
 9704SOL     OW34947   9.030   3.573   8.453  0.3862  0.4676  0.5613
 9704SOL    HW134948   9.050   3.490   8.410 -1.1868  0.4011 -0.1263
 9704SOL    HW234949   9.102   3.587   8.514  1.5627 -0.5383 -0.5420
 9705SOL     OW34950   6.330   8.562   8.499 -0.6593  0.2729  0.1532
 9705SOL    HW134951   6.240   8.558   8.532 -0.7632  0.0431 -0.1520
 9705SOL    HW234952   6.385   8.558   8.577 -0.9299  1.7284  0.4465
 9706SOL     OW34953  10.884  10.421   5.560 -0.1158  0.0197 -0.6368
 9706SOL    HW134954  10.901  10.407   5.467 -1.0150 -0.3182 -0.7629
 9706SOL    HW234955  10.801  10.375   5.576 -0.8823  1.5104 -0.0781
 9707SOL     OW34956   4.385   1.947   4.518 -0.1354  0.6916 -0.2828
 9707SOL    HW134957   4.443   1.874   4.498 -0.3778  0.1735  0.8075
 9707SOL    HW234958   4.314   1.908   4.569 -0.9386  1.4775 -0.7518
 9708SOL     OW34959   8.721   6.020   9.051 -0.4058 -0.1458  0.2449
 9708SOL    HW134960   8.816   6.011   9.037 -0.0897  0.6212  1.7193
 9708SOL    HW234961   8.712   6.101   9.102 -1.8181 -0.4961  0.5894
 9709SOL     OW34962   1.834   1.634   5.480  0.3701 -0.2804  0.4355
 9709SOL    HW134963   1.804   1.671   5.397  1.4167  1.5014  0.7950
 9709SOL    HW234964   1.913   1.585   5.457  1.3958  1.2657  0.4973
 9710SOL     OW34965  10.161   0.515   3.599 -0.5080 -0.3145  0.1424
 9710SOL    HW134966  10.252   0.488   3.611 -0.4626 -0.2629 -0.0770
 9710SOL    HW234967  10.150   0.520   3.504  0.4177  3.6085  0.0706
 9711SOL     OW34968   4.452   9.897   6.954 -0.1045  0.3311 -0.0108
 9711SOL    HW134969   4.500   9.975   6.983 -1.4045  0.9277  0.6088
 9711SOL    HW234970   4.497   9.824   6.997  0.3679  0.8490  0.3999
 9712SOL     OW34971   0.091   8.728   7.015 -0.3903  0.0902  0.1664
 9712SOL    HW134972   0.149   8.738   6.939  1.5164 -0.7852  1.4525
 9712SOL    HW234973   0.086   8.816   7.052  0.9926 -0.0042  0.6326
 9713SOL     OW34974   4.216  10.228   8.488  0.5690  0.2131 -0.2513
 9713SOL    HW134975   4.263  10.189   8.562  0.5744  0.2118 -0.2557
 9713SOL    HW234976   4.233  10.169   8.415  3.3475  1.9011 -1.1428
 9714SOL     OW34977   3.130   3.169  10.578  0.0371  0.9763 -0.6444
 9714SOL    HW134978   3.089   3.175  10.493  0.0245  0.0743 -0.7114
 9714SOL    HW234979   3.057   3.169  10.641 -0.0913 -0.5983 -0.7613
 9715SOL     OW34980   5.795   3.010  10.582  0.3917  0.4036 -0.6409
 9715SOL    HW134981   5.876   2.962  10.595  0.0458 -0.7036 -2.2940
 9715SOL    HW234982   5.766   2.986  10.494 -1.3528  1.3374 -0.3756
 9716SOL     OW34983   2.745  10.534   2.530  0.4397 -0.3854  0.3351
 9716SOL    HW134984   2.719  10.491   2.449 -0.2675 -0.9866  0.8583
 9716SOL    HW234985   2.783  10.617   2.503  0.3426 -0.6456 -0.6148
 9717SOL     OW34986  10.262   8.472   2.617  0.7153  0.6991 -0.6018
 9717SOL    HW134987  10.292   8.447   2.704 -0.8248 -2.0867 -0.7728
 9717SOL    HW234988  10.169   8.450   2.616  0.9548 -0.6344 -3.3466
 9718SOL     OW34989   7.825   2.500   3.400  0.0800 -0.4768 -0.3493
 9718SOL    HW134990   7.867   2.560   3.461 -3.1823  1.5220  0.1348
 9718SOL    HW234991   7.850   2.532   3.313  2.1717 -1.4212 -0.1635
 9719SOL     OW34992   9.015   2.516   0.087 -0.4512 -0.1473 -0.2142
 9719SOL    HW134993   9.103   2.506   0.122 -0.0098  0.6785 -1.0479
 9719SOL    HW234994   9.011   2.607   0.057 -1.2983 -0.4117 -0.9495
 9720SOL     OW34995   5.778   7.673   2.320 -0.3418  0.1579  0.2093
 9720SOL    HW134996   5.762   7.604   2.385  0.9519  0.3527  0.7542
 9720SOL    HW234997   5.710   7.738   2.337 -0.8337 -0.4167  0.4802
 9721SOL     OW34998   1.070   7.737   5.997 -0.0827  0.8235 -0.3065
 9721SOL    HW134999   1.115   7.798   6.055 -0.0844  0.6300 -0.0962
 9721SOL    HW235000   1.123   7.734   5.918  0.4095  0.4112  0.0329
 9722SOL     OW35001  10.525   1.094   7.335 -0.6067 -0.1461  0.2748
 9722SOL    HW135002  10.616   1.104   7.306 -0.8618 -1.1447 -0.9536
 9722SOL    HW235003  10.527   1.020   7.396 -0.4729  0.4049  0.9619
 9723SOL     OW35004   4.448   3.765   2.810 -1.2592  0.3388 -0.1462
 9723SOL    HW135005   4.518   3.750   2.746 -0.8657 -1.2446  0.6268
 9723SOL    HW235006   4.490   3.819   2.878 -1.1881  0.5540 -0.3574
 9724SOL     OW35007   9.592   8.249   7.652 -0.0131 -0.1011  0.1686
 9724SOL    HW135008   9.540   8.198   7.590 -0.5858  1.5964 -0.8292
 9724SOL    HW235009   9.592   8.197   7.732  2.0509 -3.1516 -1.6264
 9725SOL     OW35010   9.238   4.294   3.050  0.3356  0.2042 -0.2457
 9725SOL    HW135011   9.265   4.227   2.987 -2.5041 -1.5554  0.2126
 9725SOL    HW235012   9.150   4.319   3.022  0.0535  1.3801  1.5002
 9726SOL     OW35013   4.630   9.223   3.584  0.1948  0.3066  0.0317
 9726SOL    HW135014   4.630   9.223   3.488 -0.1984  0.8489  0.0224
 9726SOL    HW235015   4.538   9.233   3.608  0.1634 -0.9172  0.4867
 9727SOL     OW35016   8.289   9.008   8.826  0.6130 -0.5392 -0.0130
 9727SOL    HW135017   8.260   9.056   8.749  1.1775  0.6348  0.4744
 9727SOL    HW235018   8.209   8.976   8.866  0.3824 -2.4139 -1.8277
 9728SOL     OW35019   8.505   2.888   2.006 -0.0102 -0.0464  0.2492
 9728SOL    HW135020   8.549   2.972   2.011  2.2022 -1.1966  1.9032
 9728SOL    HW235021   8.539   2.847   1.926  0.4305 -0.1423  0.4845
 9729SOL     OW35022   4.938   9.167   6.517 -0.2695 -0.2546  0.2986
 9729SOL    HW135023   4.981   9.222   6.582 -1.2223  0.0265  0.7154
 9729SOL    HW235024   4.950   9.078   6.549 -1.8586 -0.0433  1.5999
 9730SOL     OW35025   2.434   9.852   8.622  0.2794 -0.2566 -0.0360
 9730SOL    HW135026   2.386   9.775   8.591 -2.0301  1.6443 -1.6023
 9730SOL    HW235027   2.424   9.851   8.717  1.1776 -2.3685  0.0772
 9731SOL     OW35028   2.184   6.963  10.117  0.0884 -0.1428  0.3080
 9731SOL    HW135029   2.094   6.939  10.094 -0.0109  0.7752 -0.2786
 9731SOL    HW235030   2.213   6.892  10.174 -0.3422 -1.4697 -1.0489
 9732SOL     OW35031   5.197   6.167   1.833  0.1043  0.0984 -0.6265
 9732SOL    HW135032   5.235   6.213   1.907  1.1358 -1.1032 -0.3732
 9732SOL    HW235033   5.239   6.081   1.834 -2.3836 -1.2100 -0.5201
 9733SOL     OW35034   5.442   4.354   6.562 -0.1024 -0.0521  0.4729
 9733SOL    HW135035   5.464   4.446   6.574  0.2169 -0.1562  0.7174
 9733SOL    HW235036   5.491   4.309   6.631 -0.8884 -0.3224  0.8622
 9734SOL     OW35037   6.983   4.443  10.147 -0.0119  0.3096 -0.7044
 9734SOL    HW135038   7.078   4.440  10.145 -0.0406 -1.7523 -2.2792
 9734SOL    HW235039   6.960   4.450  10.240  1.6503 -0.7171 -0.1903
 9735SOL     OW35040   5.431   0.292   8.695  0.3947  0.4259  0.2137
 9735SOL    HW135041   5.484   0.228   8.742  0.8848  2.6078  2.8964
 9735SOL    HW235042   5.491   0.365   8.678 -0.7849  1.3253 -0.2569
 9736SOL     OW35043   8.699   2.442   5.449 -0.3979  0.5135  0.1933
 9736SOL    HW135044   8.609   2.472   5.436 -0.8855 -0.7242  0.5646
 9736SOL    HW235045   8.690   2.360   5.498  0.7602 -1.0296 -2.0041
 9737SOL     OW35046   4.078   8.013   1.919  0.1913  0.5357  0.2919
 9737SOL    HW135047   4.008   8.074   1.896 -0.2483  0.1849  0.6893
 9737SOL    HW235048   4.141   8.067   1.968  1.4465  1.4434 -2.1407
 9738SOL     OW35049  10.881   4.178   6.751  0.4325 -0.1844 -0.6509
 9738SOL    HW135050  10.975   4.162   6.746  0.6678  0.2959  1.1566
 9738SOL    HW235051  10.874   4.272   6.773 -0.3791 -0.4820  0.4870
 9739SOL     OW35052   0.765   4.415   4.668  0.0983  0.2951 -0.2044
 9739SOL    HW135053   0.846   4.453   4.634  0.1300  0.2079 -0.2252
 9739SOL    HW235054   0.713   4.395   4.590 -0.4500  1.4538 -0.1724
 9740SOL     OW35055   1.448   7.722  10.224  0.5224  0.6130 -0.1608
 9740SOL    HW135056   1.505   7.710  10.300  1.0568  0.6233 -0.5517
 9740SOL    HW235057   1.411   7.635  10.208 -1.6447  1.1059  1.6708
 9741SOL     OW35058   3.488   5.586   7.596 -0.8168 -0.0675 -0.1612
 9741SOL    HW135059   3.421   5.618   7.656 -0.4174  0.8017 -0.1597
 9741SOL    HW235060   3.452   5.604   7.509 -0.0418  1.6835 -0.1726
 9742SOL     OW35061   3.746   2.456   1.016  0.4180  0.0358 -0.0003
 9742SOL    HW135062   3.762   2.449   0.922  0.7465  1.0165 -0.0352
 9742SOL    HW235063   3.759   2.367   1.050  0.0575 -0.3759 -0.9094
 9743SOL     OW35064   7.407   0.150   4.783 -0.1279 -0.1892 -0.1677
 9743SOL    HW135065   7.439   0.083   4.722  0.5255 -0.5770  0.5836
 9743SOL    HW235066   7.318   0.121   4.806 -1.2220  1.0712 -2.5239
 9744SOL     OW35067   9.660   3.441   9.158  0.1170  0.0257 -0.1283
 9744SOL    HW135068   9.706   3.518   9.190  1.7828 -0.9132 -0.1348
 9744SOL    HW235069   9.601   3.416   9.230 -0.0081  0.9492  0.0956
 9745SOL     OW35070   2.163   6.892   1.971 -0.0026  0.1238  0.5750
 9745SOL    HW135071   2.123   6.946   1.903 -1.6411 -2.1179 -0.3653
 9745SOL    HW235072   2.174   6.952   2.045 -2.6670  1.5885 -0.0638
 9746SOL     OW35073   8.457   1.419   3.238 -0.2278  0.0851 -0.3158
 9746SOL    HW135074   8.385   1.365   3.205  0.6153 -2.1367  1.2224
 9746SOL    HW235075   8.416   1.474   3.304 -0.9977  0.9200 -1.4554
 9747SOL     OW35076   9.040   3.526  10.410  0.0534 -0.4857 -0.2594
 9747SOL    HW135077   9.014   3.610  10.447  1.1116  0.0488 -0.6708
 9747SOL    HW235078   9.136   3.532  10.402  0.4510 -2.6656  1.9525
 9748SOL     OW35079   4.986   1.775  10.104 -0.0278  0.4806  0.3703
 9748SOL    HW135080   5.031   1.722  10.038 -0.8678  0.1530  0.0425
 9748SOL    HW235081   4.982   1.719  10.182  1.1226  0.9337  0.7706
 9749SOL     OW35082   3.866   1.750   3.877  0.0187 -0.2022  0.2645
 9749SOL    HW135083   3.862   1.709   3.963 -2.8401  0.3134  0.4848
 9749SOL    HW235084   3.904   1.683   3.819 -0.0482 -1.3457  1.5094
 9750SOL     OW35085   7.587   9.411   5.462 -0.4564  0.5763  0.2086
 9750SOL    HW135086   7.554   9.381   5.547  1.3495  0.5250  0.9512
 9750SOL    HW235087   7.615   9.501   5.478 -1.6313  1.1347 -0.7980
 9751SOL     OW35088   7.719   6.460   1.871  0.0285 -0.1984  0.0709
 9751SOL    HW135089   7.666   6.539   1.878 -1.3709 -1.1335  0.6010
 9751SOL    HW235090   7.758   6.449   1.957 -1.5877 -1.2392  0.7349
 9752SOL     OW35091   9.703   3.896   3.051 -0.5692  0.1373 -0.0115
 9752SOL    HW135092   9.610   3.917   3.053 -0.2136  1.7475  1.1600
 9752SOL    HW235093   9.730   3.895   3.142  0.5212 -0.6398 -0.3091
 9753SOL     OW35094   2.966   0.487   6.970  0.1031 -0.0386 -0.9376
 9753SOL    HW135095   2.924   0.572   6.958 -1.2597 -0.8140 -1.9934
 9753SOL    HW235096   3.046   0.492   6.918  0.7134  1.0197  0.0600
 9754SOL     OW35097   3.808   4.475   5.782  0.4245 -0.4178 -1.0463
 9754SOL    HW135098   3.832   4.493   5.691  0.3387 -0.8340 -1.1560
 9754SOL    HW235099   3.715   4.495   5.787  0.6513  0.6415 -0.7680
 9755SOL     OW35100   2.295   9.875   5.737  0.2217 -0.2313 -0.1943
 9755SOL    HW135101   2.284   9.865   5.642  0.5086 -1.4557 -0.1196
 9755SOL    HW235102   2.271   9.789   5.773  1.0744 -0.0958  0.7487
 9756SOL     OW35103   7.730  10.375   2.523  0.1929 -0.4180  0.1176
 9756SOL    HW135104   7.813  10.382   2.476 -0.2834 -0.3745 -0.7405
 9756SOL    HW235105   7.691  10.462   2.516 -0.9720 -1.0270 -1.5045
 9757SOL     OW35106   6.259   3.365   6.554 -0.0683  0.0562  0.0030
 9757SOL    HW135107   6.343   3.343   6.513 -0.9549  0.1917 -2.0127
 9757SOL    HW235108   6.236   3.286   6.603  1.3533  0.1284  0.8502
 9758SOL     OW35109   7.476   4.872   0.220 -0.2379  0.6363  0.1832
 9758SOL    HW135110   7.417   4.917   0.280 -1.7339 -0.9127 -0.0128
 9758SOL    HW235111   7.495   4.936   0.152 -1.5681  1.2638  0.3642
 9759SOL     OW35112   4.261   9.025  10.113  0.0367  0.5320  0.4512
 9759SOL    HW135113   4.190   9.085  10.133 -0.1690  0.5687 -0.3834
 9759SOL    HW235114   4.222   8.959  10.056  0.9681  1.2993 -1.1288
 9760SOL     OW35115   7.110   9.648   8.303  0.2079  0.3172 -0.0619
 9760SOL    HW135116   7.143   9.736   8.325  0.4468  1.0776 -3.0265
 9760SOL    HW235117   7.016   9.654   8.315  0.2205  1.0028 -0.2349
 9761SOL     OW35118   4.395   7.282   3.417  0.6267  0.9912  0.0010
 9761SOL    HW135119   4.387   7.275   3.322  0.6893  2.6565 -0.1523
 9761SOL    HW235120   4.488   7.267   3.435  0.3313 -1.1045  0.0165
 9762SOL     OW35121   1.343   7.163   6.996  0.0089 -0.0353 -0.4300
 9762SOL    HW135122   1.387   7.083   6.965 -1.9543 -0.8244 -1.3628
 9762SOL    HW235123   1.269   7.174   6.936  0.1800  2.4859 -0.2852
 9763SOL     OW35124   3.368   0.479   3.717  0.4086  0.5363  0.0737
 9763SOL    HW135125   3.378   0.567   3.681 -1.2857  0.3853 -0.8621
 9763SOL    HW235126   3.366   0.421   3.641  0.1089 -0.1608  0.5941
 9764SOL     OW35127   7.757   4.863   3.307 -0.4046 -0.3534  0.2548
 9764SOL    HW135128   7.798   4.835   3.225  1.6212  3.7074 -0.3866
 9764SOL    HW235129   7.674   4.901   3.280  0.8605  2.2656 -0.3366
 9765SOL     OW35130  10.832   5.578   7.481  0.8907 -0.9335 -0.0874
 9765SOL    HW135131  10.789   5.578   7.395 -0.3500  1.1713  0.4598
 9765SOL    HW235132  10.906   5.638   7.470 -0.4895  1.0324  0.7884
 9766SOL     OW35133   5.079  10.298   7.992 -0.1251 -0.7509 -0.3322
 9766SOL    HW135134   5.171  10.308   8.013 -0.3561 -1.4890  1.2123
 9766SOL    HW235135   5.075  10.217   7.940  0.0841 -0.7451 -0.3576
 9767SOL     OW35136   9.235  10.578   5.550 -0.3935 -0.4239  0.9794
 9767SOL    HW135137   9.268  10.560   5.462 -0.8104 -2.1387  1.1454
 9767SOL    HW235138   9.142  10.558   5.545 -0.5082 -0.0782  1.7029
 9768SOL     OW35139   8.259   8.903   5.366  0.1577 -0.2487  0.1769
 9768SOL    HW135140   8.176   8.946   5.347  0.6385 -0.0088 -1.5144
 9768SOL    HW235141   8.270   8.838   5.296  0.8115 -1.1507  1.0757
 9769SOL     OW35142   9.876   5.592   3.139  0.2621 -0.6621  0.0314
 9769SOL    HW135143   9.856   5.668   3.084 -1.0447 -1.3553 -0.4854
 9769SOL    HW235144   9.806   5.589   3.204  0.4638 -1.2594  0.2301
 9770SOL     OW35145   8.401   7.532   5.261 -0.4979 -0.3862  0.0851
 9770SOL    HW135146   8.336   7.546   5.192 -0.3510 -0.0940  0.0080
 9770SOL    HW235147   8.430   7.442   5.247 -0.6758 -0.4239 -0.0574
 9771SOL     OW35148   4.291   0.146   6.227 -0.6141  0.1909 -0.1679
 9771SOL    HW135149   4.261   0.188   6.146 -1.2527  0.9484  0.4368
 9771SOL    HW235150   4.342   0.214   6.271  0.5932 -0.5465 -0.3892
 9772SOL     OW35151   9.475   1.428   1.354  0.1484  0.2518  0.2536
 9772SOL    HW135152   9.499   1.483   1.429 -1.6195  1.1550  0.2068
 9772SOL    HW235153   9.498   1.339   1.381  1.6016  0.8050  0.9592
 9773SOL     OW35154   1.617   5.158   5.855  0.1973  0.0533 -0.8810
 9773SOL    HW135155   1.537   5.107   5.843  0.8652 -1.2799  0.0660
 9773SOL    HW235156   1.586   5.247   5.871 -1.1838 -0.6903  0.9583
 9774SOL     OW35157   0.621   5.885   2.712  0.2055  0.2840 -0.5246
 9774SOL    HW135158   0.614   5.929   2.796 -2.4546  1.1258 -1.0858
 9774SOL    HW235159   0.535   5.898   2.671  0.7160 -1.8919 -2.4853
 9775SOL     OW35160   9.693   7.796   7.632  0.7145 -0.1895  0.0120
 9775SOL    HW135161   9.601   7.823   7.629  1.3447  2.0974 -0.7054
 9775SOL    HW235162   9.737   7.856   7.572  2.3062 -2.9299 -1.7487
 9776SOL     OW35163   1.505   9.942   5.622 -0.4733  0.1821 -0.3139
 9776SOL    HW135164   1.545   9.976   5.542  0.9092  0.3827  0.4278
 9776SOL    HW235165   1.487  10.020   5.675 -1.6055  0.0709 -0.5166
 9777SOL     OW35166   2.517   3.614   0.336 -0.4693  0.0334 -0.1097
 9777SOL    HW135167   2.457   3.671   0.384 -0.4243 -0.6413  0.7658
 9777SOL    HW235168   2.503   3.527   0.374 -0.5902 -0.5700 -1.4580
 9778SOL     OW35169   7.660   4.668   4.827  0.0457  0.0503 -0.8922
 9778SOL    HW135170   7.707   4.592   4.862  0.5682  0.1710 -1.3280
 9778SOL    HW235171   7.598   4.692   4.897  1.1345  0.3488 -0.0030
 9779SOL     OW35172   3.459   4.747   5.492  0.4864  0.4339 -0.3232
 9779SOL    HW135173   3.408   4.688   5.547 -0.0366  0.9945 -0.1895
 9779SOL    HW235174   3.400   4.768   5.419  1.7773 -1.6851 -2.0871
 9780SOL     OW35175   5.016   3.425   6.373 -0.0168  0.5292 -0.5349
 9780SOL    HW135176   5.032   3.342   6.328 -1.2535  1.4370 -2.7765
 9780SOL    HW235177   4.923   3.424   6.392 -0.0694  1.4791 -0.7236
 9781SOL     OW35178   3.056   6.316   6.237 -0.0918 -0.1247 -0.1258
 9781SOL    HW135179   3.025   6.235   6.197 -2.0753  0.0722  0.8996
 9781SOL    HW235180   3.006   6.385   6.194 -1.3288  0.1909  1.7157
 9782SOL     OW35181   9.777   0.391   0.673  0.3566  0.1368  0.4558
 9782SOL    HW135182   9.715   0.331   0.633  2.2471 -1.4349 -0.2698
 9782SOL    HW235183   9.797   0.454   0.604 -1.2956  1.4322  1.0822
 9783SOL     OW35184   9.305   0.918   3.195  0.3347 -0.2276  0.1742
 9783SOL    HW135185   9.384   0.910   3.143  0.2183 -1.6453  0.1791
 9783SOL    HW235186   9.318   0.997   3.247  1.9938 -0.7619  0.6070
 9784SOL     OW35187   9.566   4.863   9.351 -0.2477 -0.9443 -0.2741
 9784SOL    HW135188   9.474   4.886   9.336 -1.2998 -2.4216  2.8654
 9784SOL    HW235189   9.566   4.767   9.358  1.0098 -0.8438  2.1358
 9785SOL     OW35190  10.472   2.069   4.811 -0.6822  0.5523 -0.3081
 9785SOL    HW135191  10.434   2.146   4.853 -0.4850  0.4617  0.0416
 9785SOL    HW235192  10.450   2.078   4.719 -3.3472 -0.5120  0.1430
 9786SOL     OW35193   6.177   5.450   4.878  0.1224  0.4064  0.4315
 9786SOL    HW135194   6.128   5.425   4.799  1.7622 -0.7766 -0.2661
 9786SOL    HW235195   6.118   5.509   4.925 -1.4699  0.0031 -0.9603
 9787SOL     OW35196   7.533   4.124  10.090  0.2943  0.7296 -0.2337
 9787SOL    HW135197   7.503   4.200  10.041 -0.8897 -1.0418 -2.4668
 9787SOL    HW235198   7.457   4.098  10.143  0.7228  1.1004  0.5886
 9788SOL     OW35199   5.526   1.123   3.628 -0.0709 -0.3287 -0.1171
 9788SOL    HW135200   5.445   1.173   3.618  0.9422  1.0630 -1.6758
 9788SOL    HW235201   5.508   1.040   3.583 -0.8341 -0.3135  0.1313
 9789SOL     OW35202   4.801   3.168   0.633  0.4002  0.3671  0.4766
 9789SOL    HW135203   4.835   3.247   0.590  1.2917  0.8296  1.9466
 9789SOL    HW235204   4.877   3.111   0.641  0.4189  0.5608  1.9706
 9790SOL     OW35205  10.156   2.591   0.386 -0.4707 -0.6634 -0.1025
 9790SOL    HW135206  10.247   2.563   0.394 -0.8980 -2.4540 -1.0167
 9790SOL    HW235207  10.126   2.554   0.303 -1.8779  0.3939 -0.1130
 9791SOL     OW35208   5.909   1.550   9.713 -0.2376  0.3931 -0.0176
 9791SOL    HW135209   5.972   1.478   9.709 -0.2075  0.4530 -1.3656
 9791SOL    HW235210   5.958   1.626   9.681 -1.0820  0.3505 -1.5002
 9792SOL     OW35211   2.970   3.100   9.738 -0.2527 -1.0754  0.4362
 9792SOL    HW135212   2.896   3.161   9.742 -0.0860 -0.7756  5.4160
 9792SOL    HW235213   2.931   3.018   9.708 -1.2472  0.3749 -2.6841
 9793SOL     OW35214   1.320   9.695   7.789 -0.6021 -0.0497  0.2091
 9793SOL    HW135215   1.243   9.653   7.827 -1.2676 -0.8346 -1.8773
 9793SOL    HW235216   1.345   9.639   7.716  0.2254  1.6750 -0.9145
 9794SOL     OW35217   2.136   5.138   4.354  0.4210 -0.3731  0.0781
 9794SOL    HW135218   2.090   5.170   4.432 -0.4093 -0.5659 -0.3200
 9794SOL    HW235219   2.178   5.057   4.381 -0.2516 -0.6790  0.1990
 9795SOL     OW35220  10.405   7.498   2.843  0.5638  0.1992  0.7095
 9795SOL    HW135221  10.367   7.514   2.756 -0.0430  1.9347  1.2449
 9795SOL    HW235222  10.330   7.479   2.899  0.8973 -0.3385  0.9868
 9796SOL     OW35223   4.719   8.738   0.772  0.1714  0.3598 -0.0514
 9796SOL    HW135224   4.749   8.651   0.801  1.0394  0.1690 -1.4293
 9796SOL    HW235225   4.636   8.751   0.818  0.5097 -0.7605  0.9532
 9797SOL     OW35226  10.475   3.145   6.324  0.0113 -0.1671  0.5290
 9797SOL    HW135227  10.453   3.080   6.391 -2.1696 -0.9422 -0.8389
 9797SOL    HW235228  10.427   3.223   6.350  3.3763  1.3931  2.6994
 9798SOL     OW35229   7.432   2.831   9.534 -0.1691 -0.2240 -0.5814
 9798SOL    HW135230   7.486   2.835   9.455 -1.6578  2.4233 -1.5815
 9798SOL    HW235231   7.347   2.867   9.507 -1.2680 -0.8010  1.8370
 9799SOL     OW35232   0.306  10.652  10.860  0.0698 -0.5693  0.1956
 9799SOL    HW135233   0.336  10.562  10.876  1.4876 -0.1970 -0.1701
 9799SOL    HW235234   0.310  10.695  10.945  1.6325 -0.2644  0.0164
 9800SOL     OW35235   3.089   4.260   3.779 -0.6051 -0.0277  0.2215
 9800SOL    HW135236   3.163   4.222   3.826  1.7377  1.5734 -1.9705
 9800SOL    HW235237   3.098   4.354   3.791 -1.7570  0.2476 -0.8759
 9801SOL     OW35238   5.392   8.999   2.452 -0.5973  0.1105 -0.6481
 9801SOL    HW135239   5.304   9.010   2.416 -0.5881  1.7857 -0.2673
 9801SOL    HW235240   5.443   8.961   2.381 -1.4633 -0.2271 -1.1051
 9802SOL     OW35241   4.193   3.716   2.811 -0.1288  0.1634  0.3000
 9802SOL    HW135242   4.197   3.621   2.803 -2.1299 -0.0578  1.3097
 9802SOL    HW235243   4.284   3.745   2.804  0.6870 -1.9496  1.4287
 9803SOL     OW35244   3.541   3.029   6.136  0.4337  0.3308  0.5316
 9803SOL    HW135245   3.480   3.102   6.147  0.3967  0.7443 -1.7662
 9803SOL    HW235246   3.521   2.994   6.049 -1.8436 -4.7066  2.7012
 9804SOL     OW35247   6.624   8.042   0.664  0.6502  0.1509 -0.1387
 9804SOL    HW135248   6.603   7.971   0.603  0.7423  0.2906 -0.3341
 9804SOL    HW235249   6.702   8.010   0.711  1.1800  0.4615 -0.7969
 9805SOL     OW35250  10.431   5.138  10.114  0.4929  0.3535  0.2731
 9805SOL    HW135251  10.399   5.054  10.080  0.5360  0.3273  0.2968
 9805SOL    HW235252  10.526   5.131  10.109  0.4941  0.4402  0.1831
 9806SOL     OW35253   5.734   3.193   9.405 -0.9806  0.0976  0.3055
 9806SOL    HW135254   5.721   3.281   9.440 -1.9529 -0.1413  0.5866
 9806SOL    HW235255   5.647   3.167   9.375 -0.4706 -0.3211 -0.8464
 9807SOL     OW35256  10.762   0.364   7.371  0.5317  0.4017 -0.0583
 9807SOL    HW135257  10.816   0.316   7.435  1.0153 -0.9225 -1.3881
 9807SOL    HW235258  10.749   0.301   7.300 -3.3631  0.4290  0.4530
 9808SOL     OW35259   3.531   3.174   7.393  0.1307  0.2728 -0.3219
 9808SOL    HW135260   3.561   3.083   7.402  2.9420  1.0109 -1.2436
 9808SOL    HW235261   3.460   3.169   7.329  0.4277 -1.2428 -0.5913
 9809SOL     OW35262   9.281   5.540   6.286 -0.0607 -0.3921 -0.4861
 9809SOL    HW135263   9.251   5.631   6.295  1.5745  0.2498 -1.1115
 9809SOL    HW235264   9.246   5.496   6.363 -1.1790  0.6813 -0.3442
 9810SOL     OW35265   8.967  10.571   5.550  0.6825  0.3216 -0.1798
 9810SOL    HW135266   8.941  10.622   5.473 -1.6191  2.5167  1.8487
 9810SOL    HW235267   8.919  10.489   5.542 -1.0381  1.2857 -0.2457
 9811SOL     OW35268   2.017   4.203   8.356  0.2157  0.6218  0.4632
 9811SOL    HW135269   1.972   4.129   8.396  1.1896 -0.4943 -0.4368
 9811SOL    HW235270   1.962   4.227   8.281  0.2504  0.3806  0.3619
 9812SOL     OW35271   0.535   5.727   4.892 -0.5239 -0.1307  0.0098
 9812SOL    HW135272   0.480   5.754   4.966 -1.4938 -2.5344  0.2647
 9812SOL    HW235273   0.620   5.706   4.931 -0.7350 -0.4617  0.2957
 9813SOL     OW35274   5.301   5.936  10.765  0.0670  0.1964 -0.4192
 9813SOL    HW135275   5.253   5.868  10.811  1.5180 -0.4692  0.1748
 9813SOL    HW235276   5.321   5.897  10.679 -0.3806  0.4498 -0.6433
 9814SOL     OW35277   4.383  10.746  10.188 -0.0379 -0.1948 -0.2188
 9814SOL    HW135278   4.305  10.799  10.172 -0.3355 -0.9648 -1.5078
 9814SOL    HW235279   4.382  10.728  10.282 -1.5799 -0.4298 -0.2517
 9815SOL     OW35280   4.586   5.595   1.390 -0.0630 -0.4044 -0.4451
 9815SOL    HW135281   4.525   5.524   1.412  0.0866 -0.2900  0.3963
 9815SOL    HW235282   4.671   5.552   1.385  0.1718 -0.1657  0.9773
 9816SOL     OW35283   3.915  10.208   8.759 -0.2367 -0.0950  0.4558
 9816SOL    HW135284   3.820  10.212   8.749 -0.1915  1.4335  0.4164
 9816SOL    HW235285   3.930  10.230   8.851  0.0553 -0.9428  0.6160
 9817SOL     OW35286   8.976   3.607   6.039  0.5374 -0.1643 -0.9068
 9817SOL    HW135287   8.984   3.546   5.965 -0.9899 -0.1454 -1.1148
 9817SOL    HW235288   9.005   3.556   6.115 -0.8896 -1.2346 -1.0498
 9818SOL     OW35289   5.106   7.602   9.151  0.1759  0.3941 -0.5708
 9818SOL    HW135290   5.084   7.518   9.191  0.0168  0.2463 -0.9633
 9818SOL    HW235291   5.115   7.662   9.226 -0.1593  0.1331 -0.3124
 9819SOL     OW35292   1.156   4.913   1.910 -0.1572  0.3889 -0.2357
 9819SOL    HW135293   1.168   4.818   1.906 -2.0307 -0.0711  2.6584
 9819SOL    HW235294   1.235   4.946   1.953 -0.5697 -0.2138  1.0308
 9820SOL     OW35295   3.998   3.027   9.149  0.5337  0.5222  0.7057
 9820SOL    HW135296   3.973   3.069   9.231  0.2980  1.1413  0.3240
 9820SOL    HW235297   4.084   3.063   9.129 -0.0817  1.5848 -0.1203
 9821SOL     OW35298   9.809   5.544   9.616  0.2920 -0.3214  0.2511
 9821SOL    HW135299   9.764   5.525   9.699  1.2961 -1.9691  0.4571
 9821SOL    HW235300   9.835   5.635   9.624 -2.4579  0.5643  0.3616
 9822SOL     OW35301   5.505   4.657   2.227 -0.5028  0.3117 -0.3384
 9822SOL    HW135302   5.424   4.647   2.177 -1.4703  1.8407  0.8405
 9822SOL    HW235303   5.477   4.683   2.315  1.1322 -2.3536  1.1149
 9823SOL     OW35304   4.127   5.147  10.534  0.3873 -0.5513 -0.1439
 9823SOL    HW135305   4.096   5.206  10.603  1.1591 -0.8781  0.5042
 9823SOL    HW235306   4.060   5.152  10.466 -1.0663 -1.2058  1.1728
 9824SOL     OW35307   6.211   5.170   6.837  0.2272  0.2346  0.2844
 9824SOL    HW135308   6.242   5.260   6.823 -1.9829  0.9831 -0.2223
 9824SOL    HW235309   6.151   5.154   6.764 -1.2413 -0.7623  1.6511
 9825SOL     OW35310   3.274   4.150   6.085 -0.5484  0.0168  0.2707
 9825SOL    HW135311   3.250   4.132   5.994  2.0451  1.6858 -0.8615
 9825SOL    HW235312   3.260   4.245   6.095 -0.1291 -0.0232  1.3753
 9826SOL     OW35313   3.121  10.229   2.325  0.1806 -0.5235  0.0675
 9826SOL    HW135314   3.177  10.151   2.322 -0.8070 -1.2236 -1.7097
 9826SOL    HW235315   3.162  10.290   2.263  0.2192 -0.1449  0.4611
 9827SOL     OW35316   4.580   2.653   2.022 -0.2375  0.1281 -0.1637
 9827SOL    HW135317   4.658   2.666   1.968  0.9294 -1.2392  1.1098
 9827SOL    HW235318   4.591   2.714   2.095  0.3327 -0.9733  0.6994
 9828SOL     OW35319   5.413   0.357   0.856  0.1403  0.4361  0.0670
 9828SOL    HW135320   5.457   0.349   0.772  0.1573  2.0640 -0.1014
 9828SOL    HW235321   5.341   0.418   0.840 -0.5283 -0.0819  0.9817
 9829SOL     OW35322   9.076   1.348   7.794 -0.1854  0.2118  0.3458
 9829SOL    HW135323   9.094   1.255   7.782  1.5144  0.5236  0.1346
 9829SOL    HW235324   9.076   1.384   7.705 -1.4930  0.3263  0.3756
 9830SOL     OW35325   2.279   5.441   9.080 -0.6881  0.1910  0.4427
 9830SOL    HW135326   2.248   5.472   8.995  2.3244  0.8303 -0.5268
 9830SOL    HW235327   2.231   5.359   9.094 -0.7679 -0.3165 -2.2282
 9831SOL     OW35328   4.359   8.301   4.705  0.0519  0.3562  0.5273
 9831SOL    HW135329   4.437   8.299   4.760 -0.2558  0.6090  0.9817
 9831SOL    HW235330   4.392   8.292   4.616  0.7719  2.4645  0.5338
 9832SOL     OW35331   0.648   3.320   1.865  0.0898  0.2615 -0.4177
 9832SOL    HW135332   0.704   3.343   1.791 -0.8926 -0.8665 -1.5520
 9832SOL    HW235333   0.707   3.275   1.926  1.1388  2.1214  0.0282
 9833SOL     OW35334   0.114   7.413   9.915  1.3136 -0.1324 -0.0055
 9833SOL    HW135335   0.053   7.341   9.901  1.0400  0.0428  0.2793
 9833SOL    HW235336   0.200   7.376   9.895  1.0577 -0.1983 -1.0817
 9834SOL     OW35337  10.194   6.630   6.561 -0.3653 -0.0339  0.5855
 9834SOL    HW135338  10.159   6.550   6.524 -1.4861  0.0224  1.4498
 9834SOL    HW235339  10.229   6.604   6.646 -1.6574  0.5318  1.3265
 9835SOL     OW35340   5.769   2.291   6.877  0.1905  0.5983 -0.4459
 9835SOL    HW135341   5.743   2.205   6.910  1.1960 -0.2686 -1.8504
 9835SOL    HW235342   5.781   2.344   6.956  1.7663 -1.1811  0.5827
 9836SOL     OW35343   7.498   2.554   0.189  0.3527  0.0783 -0.0902
 9836SOL    HW135344   7.591   2.538   0.174  0.8372  1.0315  1.7002
 9836SOL    HW235345   7.492   2.649   0.202 -0.7606 -0.0692  0.5680
 9837SOL     OW35346   0.249   7.739   1.512 -0.2510  0.3830  0.1786
 9837SOL    HW135347   0.165   7.746   1.466  0.6888 -0.2152 -1.7380
 9837SOL    HW235348   0.263   7.645   1.522 -0.9425  0.4910  2.7978
 9838SOL     OW35349   1.712   2.525   6.184 -0.0040 -0.2468 -0.4080
 9838SOL    HW135350   1.739   2.611   6.151  0.7726  0.1281  1.0859
 9838SOL    HW235351   1.795   2.477   6.195  0.0891  0.4722  3.0901
 9839SOL     OW35352   3.076   7.539   5.179  0.1678  0.0150  0.4663
 9839SOL    HW135353   3.031   7.493   5.108  1.8573  0.0325 -0.6873
 9839SOL    HW235354   3.045   7.630   5.172 -0.1109 -0.1064  0.0893
 9840SOL     OW35355   0.845   7.948   9.108  0.2963 -0.1166  0.0977
 9840SOL    HW135356   0.889   7.973   9.027  0.5529  0.3061  0.3564
 9840SOL    HW235357   0.915   7.911   9.163  0.0162 -0.9199 -0.0810
 9841SOL     OW35358   1.785   1.002   7.986  0.2601  0.2570 -0.3323
 9841SOL    HW135359   1.847   1.075   7.986  0.5603  0.0434  1.1993
 9841SOL    HW235360   1.702   1.041   8.014 -0.0433  0.3424 -1.3264
 9842SOL     OW35361  10.137   4.373   7.640 -0.1356  0.1594  0.3918
 9842SOL    HW135362  10.139   4.284   7.675  2.1619 -0.2794 -0.6834
 9842SOL    HW235363  10.204   4.374   7.571 -0.6871  2.4935 -0.2163
 9843SOL     OW35364   6.285   3.429   7.693 -0.4718 -0.0220  0.3658
 9843SOL    HW135365   6.215   3.398   7.634  0.0690  0.0027 -0.3079
 9843SOL    HW235366   6.358   3.448   7.634  0.5323 -1.2386  1.1641
 9844SOL     OW35367   7.372   9.002   6.110 -0.0580  0.3474  0.3487
 9844SOL    HW135368   7.397   9.086   6.072  1.4908 -0.5225 -0.6306
 9844SOL    HW235369   7.290   9.021   6.157  0.3792  2.4324  0.3650
 9845SOL     OW35370   7.288   0.764  10.215 -0.4800  0.2787 -0.1510
 9845SOL    HW135371   7.280   0.808  10.300  0.2763 -0.7930  0.5067
 9845SOL    HW235372   7.215   0.798  10.163 -0.6846  1.2947  0.7738
 9846SOL     OW35373  10.443   8.797   9.192 -0.2878 -0.0916 -0.3594
 9846SOL    HW135374  10.507   8.868   9.189 -1.8973  1.6185  2.0604
 9846SOL    HW235375  10.466   8.746   9.269  0.2808 -1.7016 -1.5437
 9847SOL     OW35376   9.846   6.245   2.576 -0.4892 -0.1928 -0.2842
 9847SOL    HW135377   9.792   6.311   2.533 -0.0054 -0.4363 -1.2852
 9847SOL    HW235378   9.874   6.286   2.658 -0.1848  0.8487 -0.8983
 9848SOL     OW35379   1.016  10.152  10.327 -0.6190  0.3454  0.0343
 9848SOL    HW135380   1.010  10.085  10.395  0.1689  1.5136  1.3157
 9848SOL    HW235381   1.014  10.235  10.375 -0.8731  1.2301 -1.4447
 9849SOL     OW35382   7.981  10.364   7.855  0.1429  0.6539 -0.9354
 9849SOL    HW135383   8.065  10.354   7.810  0.3698  4.5546 -1.7716
 9849SOL    HW235384   7.922  10.399   7.787 -1.4702  0.3067  0.2260
 9850SOL     OW35385   0.448   8.652   8.745 -0.1043 -0.1919 -0.2866
 9850SOL    HW135386   0.421   8.604   8.823  0.2537 -0.7485 -0.5021
 9850SOL    HW235387   0.530   8.695   8.770 -0.5276  0.4906 -0.0286
 9851SOL     OW35388   7.005   1.214   0.509  0.3331  0.1879  0.2462
 9851SOL    HW135389   7.021   1.308   0.518  1.7317  0.0720 -0.6729
 9851SOL    HW235390   6.962   1.205   0.424 -0.4549  0.0497  0.6521
 9852SOL     OW35391   5.828   2.297   5.103 -0.4509 -0.2592 -0.1220
 9852SOL    HW135392   5.792   2.367   5.048 -0.4265  1.1491  1.5708
 9852SOL    HW235393   5.754   2.269   5.157  0.1340  0.2946  1.0065
 9853SOL     OW35394  10.706  10.890   5.974  0.2354 -0.6230  0.2035
 9853SOL    HW135395  10.704  10.796   5.955  0.2013 -1.1099  2.4044
 9853SOL    HW235396  10.791  10.904   6.016  0.9053  0.6605 -1.4964
 9854SOL     OW35397   1.245   4.701   5.516  0.1614  0.2788 -0.4183
 9854SOL    HW135398   1.311   4.680   5.583  1.3551  1.2355 -1.2597
 9854SOL    HW235399   1.185   4.627   5.519 -0.4066  0.7412  2.3948
 9855SOL     OW35400   8.199   5.739   0.725 -0.1580 -0.4504  0.3939
 9855SOL    HW135401   8.132   5.718   0.660 -0.1119 -0.0778  0.2244
 9855SOL    HW235402   8.219   5.832   0.710 -0.0323 -0.4057  0.8344
 9856SOL     OW35403   8.054   3.112   3.677  0.2538 -0.3986 -0.2594
 9856SOL    HW135404   8.142   3.073   3.680  0.8916  0.9009 -1.1422
 9856SOL    HW235405   8.066   3.199   3.715 -0.1280  0.6703 -2.4470
 9857SOL     OW35406  10.540   3.220   0.040 -0.2270 -0.4017 -0.7396
 9857SOL    HW135407  10.546   3.274  -0.039  1.5899 -2.9543 -2.5348
 9857SOL    HW235408  10.598   3.264   0.103  0.8337  0.0399 -1.9679
 9858SOL     OW35409   5.084   9.053   0.116 -0.8236 -0.4526 -0.0408
 9858SOL    HW135410   5.020   9.097   0.173 -1.4482 -1.5008  0.0918
 9858SOL    HW235411   5.126   9.125   0.069 -1.0816  0.3598  0.9220
 9859SOL     OW35412   5.799   7.615   7.318 -0.0154  0.6022  0.1532
 9859SOL    HW135413   5.714   7.591   7.354  0.8639 -0.7945  1.4063
 9859SOL    HW235414   5.858   7.545   7.346  2.0314  2.6223  1.2131
 9860SOL     OW35415   3.871  10.902   5.640 -0.6357 -0.9970  0.0756
 9860SOL    HW135416   3.847  10.893   5.732  2.5782 -0.9566  1.0434
 9860SOL    HW235417   3.883  10.812   5.609  2.2142 -1.0362  0.9883
 9861SOL     OW35418  10.289   8.472   4.593  0.2298  0.2974  0.5193
 9861SOL    HW135419  10.339   8.395   4.621  0.2295 -0.6705 -1.8616
 9861SOL    HW235420  10.198   8.450   4.611  0.3104  0.1679  0.7656
 9862SOL     OW35421  10.087   2.391   3.422 -0.5097 -0.2704 -0.3571
 9862SOL    HW135422  10.068   2.469   3.475 -1.0722 -0.7107  0.1046
 9862SOL    HW235423  10.048   2.411   3.337  2.5299  1.4968 -1.4939
 9863SOL     OW35424   9.293   2.794   7.229 -0.0464 -0.5463 -0.2202
 9863SOL    HW135425   9.326   2.758   7.147  0.4206 -0.0331 -0.2668
 9863SOL    HW235426   9.230   2.861   7.203  0.2772 -0.2174 -0.1709
 9864SOL     OW35427   4.565  10.378   1.480 -0.3527  0.1932 -0.1824
 9864SOL    HW135428   4.582  10.292   1.519 -0.3486  0.4282  0.3326
 9864SOL    HW235429   4.484  10.365   1.429 -1.0702  0.2048  0.9254
 9865SOL     OW35430   4.882   3.923   0.538  0.5399  0.0256  0.2923
 9865SOL    HW135431   4.964   3.951   0.497  1.3542 -0.6415  1.3898
 9865SOL    HW235432   4.898   3.833   0.565 -0.2225  0.1890  1.3623
 9866SOL     OW35433   8.743   0.248   3.426  0.0940  0.4344  0.6187
 9866SOL    HW135434   8.785   0.213   3.505 -1.3088 -0.0652  1.1742
 9866SOL    HW235435   8.668   0.190   3.411 -0.2722  1.1580 -0.4762
 9867SOL     OW35436   3.020   2.985   0.401  0.0429  0.3765  0.5617
 9867SOL    HW135437   3.011   3.057   0.339  1.8292  1.6708  1.7001
 9867SOL    HW235438   3.111   2.957   0.393 -0.5649 -1.6893  0.2743
 9868SOL     OW35439   3.780   2.374   7.261  0.0621  0.0646  0.2017
 9868SOL    HW135440   3.744   2.411   7.180 -1.1453 -2.4255 -0.4882
 9868SOL    HW235441   3.845   2.310   7.231 -0.5657 -1.0529  1.1743
 9869SOL     OW35442   2.437   9.000   0.154  0.4678 -0.5207 -0.5940
 9869SOL    HW135443   2.391   8.948   0.219  1.2058 -0.8260 -0.3091
 9869SOL    HW235444   2.460   9.081   0.200  0.8424 -0.6672 -0.5194
 9870SOL     OW35445   3.169   6.601   2.476  0.1237 -0.1885  0.8498
 9870SOL    HW135446   3.188   6.508   2.484  0.6961 -0.2289 -0.5981
 9870SOL    HW235447   3.231   6.643   2.536  1.3979 -0.6362 -0.1020
 9871SOL     OW35448   7.310   8.596   7.036 -0.1625 -0.1337 -0.2950
 9871SOL    HW135449   7.335   8.670   6.981  1.2186 -0.5291 -0.2435
 9871SOL    HW235450   7.251   8.544   6.981 -1.1955  1.0105 -0.3091
 9872SOL     OW35451   8.005  10.707   8.716 -0.0003 -0.2994 -0.1552
 9872SOL    HW135452   8.037  10.776   8.657  0.6889 -1.3173 -1.0246
 9872SOL    HW235453   7.911  10.722   8.721  0.2190  1.1487  0.2940
 9873SOL     OW35454   1.756   0.072   0.725 -0.2114 -0.2618  0.0073
 9873SOL    HW135455   1.722   0.086   0.636 -0.5654  0.7459  0.2897
 9873SOL    HW235456   1.851   0.080   0.715 -0.2715  0.1847 -0.2176
 9874SOL     OW35457   4.840   6.160   6.315  0.1644  0.3510  0.1744
 9874SOL    HW135458   4.898   6.084   6.320  0.5102  0.4899 -1.3108
 9874SOL    HW235459   4.766   6.138   6.372  0.2990 -1.0725 -0.1764
 9875SOL     OW35460   7.655   6.907   5.766  0.4746  0.6597 -0.4035
 9875SOL    HW135461   7.731   6.961   5.786  0.9395  0.7526 -2.2417
 9875SOL    HW235462   7.690   6.836   5.712 -0.1089 -1.5533  1.8901
 9876SOL     OW35463   2.973   2.015   2.784  0.2726  0.0517  0.1711
 9876SOL    HW135464   2.973   1.961   2.704  1.1575 -1.1173  0.9378
 9876SOL    HW235465   2.894   2.069   2.775  0.8861  0.7252 -1.9910
 9877SOL     OW35466   3.508   1.712   8.437 -0.1602  0.2017 -0.1835
 9877SOL    HW135467   3.425   1.664   8.445  1.0291 -1.9592 -0.1606
 9877SOL    HW235468   3.528   1.709   8.344  0.6322 -0.6415  0.0026
 9878SOL     OW35469   6.437   9.847   7.118  0.1823 -0.4875 -0.0542
 9878SOL    HW135470   6.392   9.876   7.038 -1.1360 -0.4099  0.6852
 9878SOL    HW235471   6.433   9.923   7.176  0.2246 -0.8759  0.4581
 9879SOL     OW35472   2.215   3.609   7.817 -0.4864 -0.7583  0.0334
 9879SOL    HW135473   2.288   3.671   7.829 -0.0615 -1.2567  0.0596
 9879SOL    HW235474   2.140   3.665   7.799  0.1105 -0.2791 -1.0599
 9880SOL     OW35475   9.919   3.818   6.934 -0.4380  0.1941  0.4535
 9880SOL    HW135476   9.851   3.821   7.001 -0.3447  3.5493  0.5925
 9880SOL    HW235477   9.958   3.905   6.936  1.8614 -0.6563 -1.6927
 9881SOL     OW35478   5.781  10.783  10.509  0.3021  0.0790 -0.0454
 9881SOL    HW135479   5.748  10.758  10.423 -1.7309 -1.0438  0.9936
 9881SOL    HW235480   5.822  10.704  10.544  0.2642  0.2564  0.4098
 9882SOL     OW35481   5.447   9.922   5.404  0.0309  0.4737  0.1720
 9882SOL    HW135482   5.390   9.946   5.477  0.2341 -1.0194  0.8460
 9882SOL    HW235483   5.509   9.860   5.442  0.5452  0.1745 -1.1299
 9883SOL     OW35484   3.558   2.067   6.195  0.0979  0.6645 -0.5464
 9883SOL    HW135485   3.637   2.077   6.249 -0.8741 -0.1831  1.0834
 9883SOL    HW235486   3.532   2.157   6.174  1.5127  0.9648 -1.1955
 9884SOL     OW35487   5.094   3.667   4.522 -0.2114 -0.3522  0.0858
 9884SOL    HW135488   5.050   3.631   4.445  0.6620 -0.9789 -0.1248
 9884SOL    HW235489   5.089   3.598   4.588  0.8940 -0.6174 -0.1030
 9885SOL     OW35490   6.175   4.463   2.028 -0.0172  0.0211  0.1703
 9885SOL    HW135491   6.165   4.557   2.039  0.5777  0.4133 -2.0684
 9885SOL    HW235492   6.252   4.453   1.972 -2.0334 -1.5447 -2.5763
 9886SOL     OW35493   4.152   6.733   6.777  0.0747 -0.0633  0.0717
 9886SOL    HW135494   4.221   6.697   6.721  0.2677  2.0652 -1.1592
 9886SOL    HW235495   4.180   6.823   6.795 -1.0034 -0.0425  1.9417
 9887SOL     OW35496  10.550   3.506   6.714  0.4593 -0.2062  0.1373
 9887SOL    HW135497  10.628   3.463   6.680 -0.7591 -0.7881 -2.1424
 9887SOL    HW235498  10.557   3.596   6.684  0.3383 -0.2196  0.0676
 9888SOL     OW35499   0.131   2.831   1.496 -0.2045 -0.1512  0.1500
 9888SOL    HW135500   0.052   2.863   1.540 -0.2103 -1.5119  1.2122
 9888SOL    HW235501   0.097   2.767   1.432 -0.0409  0.2624 -0.3590
 9889SOL     OW35502   2.931   1.215   6.327 -0.5040  0.8813 -0.2449
 9889SOL    HW135503   2.905   1.281   6.392 -1.2652  0.2203  0.1517
 9889SOL    HW235504   2.968   1.265   6.255 -2.9429  1.9456 -0.8830
 9890SOL     OW35505  10.916   7.115   1.440  0.1816 -0.2701 -0.6245
 9890SOL    HW135506  10.963   7.093   1.359 -1.4187 -1.3044 -1.3270
 9890SOL    HW235507  10.844   7.053   1.443 -1.1456  1.2431  0.4078
 9891SOL     OW35508   0.960   1.177   8.231  0.2288  0.2605 -0.0730
 9891SOL    HW135509   1.050   1.172   8.197  0.3770  1.3150  0.1434
 9891SOL    HW235510   0.912   1.225   8.163 -0.1079 -0.0528 -0.0577
 9892SOL     OW35511   3.386   5.353   7.801  0.5740 -0.3414 -0.0732
 9892SOL    HW135512   3.341   5.277   7.837  0.6221  0.0331  0.7882
 9892SOL    HW235513   3.365   5.425   7.861 -0.7679  0.7131 -1.6910
 9893SOL     OW35514  10.384   4.911  10.896 -0.0697  0.5196 -0.6901
 9893SOL    HW135515  10.316   4.849  10.869  1.4182 -1.0964 -0.9060
 9893SOL    HW235516  10.462   4.885  10.847  0.9519  1.7614  0.1931
 9894SOL     OW35517   5.584   0.746   9.289  0.2301 -0.1702  0.7094
 9894SOL    HW135518   5.580   0.689   9.366 -1.3071  0.0090  0.7930
 9894SOL    HW235519   5.494   0.773   9.275  0.0733 -1.8867 -2.4457
 9895SOL     OW35520   4.893   4.341   9.902 -0.1225  0.7160  0.6627
 9895SOL    HW135521   4.949   4.374   9.973  1.9001 -0.6074 -0.1979
 9895SOL    HW235522   4.950   4.280   9.854 -3.2488 -3.4437  1.6664
 9896SOL     OW35523   0.334   2.055   1.453 -0.2784 -0.3741 -0.3422
 9896SOL    HW135524   0.422   2.089   1.433  0.0687 -1.9901 -1.7430
 9896SOL    HW235525   0.345   1.960   1.456 -2.0129 -0.6187 -0.7061
 9897SOL     OW35526   3.574   5.445   4.552 -0.0964  0.1431 -0.2158
 9897SOL    HW135527   3.566   5.488   4.467  0.4084 -1.2598 -0.9959
 9897SOL    HW235528   3.666   5.423   4.559 -0.2711 -0.4297  0.3541
 9898SOL     OW35529   0.985   3.871   7.504 -0.4129 -0.4517 -0.1649
 9898SOL    HW135530   0.973   3.842   7.595 -1.3602 -0.9115 -0.4315
 9898SOL    HW235531   0.952   3.799   7.451  2.4829 -1.3336 -0.9850
 9899SOL     OW35532   8.873   4.831   1.410  0.3705  0.0308 -0.1345
 9899SOL    HW135533   8.809   4.898   1.436  2.2416  1.9048 -0.1002
 9899SOL    HW235534   8.893   4.851   1.319  2.1797  0.6152  0.3515
 9900SOL     OW35535  10.522  10.077   7.731 -0.5071 -0.3318 -0.1387
 9900SOL    HW135536  10.569  10.158   7.750  0.0033 -0.1197 -2.1308
 9900SOL    HW235537  10.468  10.062   7.809  1.0528  0.7073  1.1962
 9901SOL     OW35538   7.702   8.870   4.667  0.0272 -0.5447 -0.9206
 9901SOL    HW135539   7.738   8.816   4.737  2.8855  1.0071 -1.0420
 9901SOL    HW235540   7.635   8.923   4.709  1.7256  0.3960  0.7556
 9902SOL     OW35541   2.996   6.734   8.063  0.5026  0.7770  0.0475
 9902SOL    HW135542   2.905   6.718   8.036  0.3267  0.8345  0.5781
 9902SOL    HW235543   3.038   6.772   7.986  0.2063  0.2859 -0.3634
 9903SOL     OW35544   4.380  10.162   7.856  0.2486 -0.4210 -0.3086
 9903SOL    HW135545   4.402  10.242   7.808  0.1764 -0.4369 -0.3683
 9903SOL    HW235546   4.314  10.189   7.919  0.3403 -0.4015 -0.2197
 9904SOL     OW35547   0.462   2.743   7.371  0.4250  0.0398 -0.4030
 9904SOL    HW135548   0.417   2.826   7.356 -1.5861 -1.0796 -1.0083
 9904SOL    HW235549   0.411   2.679   7.321  1.6315 -1.6457  0.4203
 9905SOL     OW35550   1.218   6.445   1.720  0.2716 -0.8019  0.6624
 9905SOL    HW135551   1.237   6.538   1.712 -1.7177 -0.4384 -0.5661
 9905SOL    HW235552   1.303   6.402   1.711  1.0425  0.8263 -0.1728
 9906SOL     OW35553   6.960   7.547   3.255 -0.6968 -0.0478 -0.1548
 9906SOL    HW135554   7.049   7.515   3.264 -0.5971 -0.7615 -2.8212
 9906SOL    HW235555   6.905   7.473   3.278 -0.6119  0.1155  0.6057
 9907SOL     OW35556  10.686   5.833   4.527  0.4171 -0.5583 -0.8247
 9907SOL    HW135557  10.649   5.746   4.511  1.4683 -0.7679 -2.3324
 9907SOL    HW235558  10.697   5.871   4.440 -0.3157  1.2342 -0.1740
 9908SOL     OW35559   7.715   3.208   8.662  0.3066 -0.3087  0.2287
 9908SOL    HW135560   7.735   3.296   8.693  1.5846 -0.7414  0.6895
 9908SOL    HW235561   7.664   3.222   8.582  1.0270  0.8600 -0.0535
 9909SOL     OW35562   6.703   6.991   4.243 -0.0474  0.2903 -0.4996
 9909SOL    HW135563   6.644   6.978   4.168 -0.0787 -0.7733 -0.3117
 9909SOL    HW235564   6.762   6.916   4.240  1.0250  1.1102 -0.4179
 9910SOL     OW35565   9.922   8.954   4.352 -0.3558  0.2040 -0.1797
 9910SOL    HW135566   9.915   9.049   4.342  0.5390  0.1171 -2.1329
 9910SOL    HW235567   9.877   8.919   4.276  0.3665 -0.8987 -0.1192
 9911SOL     OW35568  10.076   5.329   0.333 -0.3846 -0.0033 -0.0319
 9911SOL    HW135569  10.065   5.235   0.324  1.3422 -0.3634  0.9981
 9911SOL    HW235570  10.170   5.343   0.321 -0.6365  1.6177 -0.3683
 9912SOL     OW35571   4.560   9.099   7.957 -0.2546 -0.0165  0.4779
 9912SOL    HW135572   4.528   9.076   7.870 -1.2709 -2.1076  1.3386
 9912SOL    HW235573   4.652   9.072   7.956 -0.3066 -0.1850  0.1105
 9913SOL     OW35574   0.869   9.685   1.959  0.1307 -0.1805  0.3953
 9913SOL    HW135575   0.919   9.727   1.890 -1.9111  0.8051 -0.5676
 9913SOL    HW235576   0.823   9.757   2.003 -3.1915 -1.2129 -1.0708
 9914SOL     OW35577   5.430   1.979   0.252 -0.2307 -0.1229  0.2807
 9914SOL    HW135578   5.517   1.948   0.280 -0.9992 -1.1625  1.6340
 9914SOL    HW235579   5.388   1.901   0.216 -1.0158  0.1158  0.6706
 9915SOL     OW35580   7.027   0.505   8.500  0.0840  0.2176  0.0909
 9915SOL    HW135581   7.069   0.577   8.453  0.1944 -1.8416 -3.2737
 9915SOL    HW235582   6.936   0.507   8.472  0.1338 -1.0530 -0.2110
 9916SOL     OW35583   8.377  10.480   9.822  0.8861 -0.6317 -0.2232
 9916SOL    HW135584   8.336  10.481   9.909  1.0507  0.2986 -0.1491
 9916SOL    HW235585   8.313  10.524   9.765  2.1149  1.6897  0.0745
 9917SOL     OW35586  10.565   8.543   2.293  0.0346  0.3856  0.0052
 9917SOL    HW135587  10.644   8.529   2.242  1.1816  0.0427  1.7899
 9917SOL    HW235588  10.536   8.631   2.270  1.0914  0.6191 -0.4669
 9918SOL     OW35589   8.605   2.861   7.524 -0.7048  0.2616 -0.7480
 9918SOL    HW135590   8.662   2.937   7.537 -1.5179  0.8003 -0.3107
 9918SOL    HW235591   8.641   2.793   7.581 -0.4785  0.5823 -0.5104
 9919SOL     OW35592   0.131   7.657   9.754 -0.5580  0.3191  0.1246
 9919SOL    HW135593   0.182   7.716   9.809  1.6215 -1.4798  0.1257
 9919SOL    HW235594   0.100   7.588   9.813 -0.2018 -0.3610 -0.4681
 9920SOL     OW35595   3.404   4.991   6.899  0.1194  0.2209 -0.0557
 9920SOL    HW135596   3.494   5.007   6.926  0.3105 -1.0705  0.1725
 9920SOL    HW235597   3.351   5.047   6.956  0.7404  0.4456  0.3025
 9921SOL     OW35598   0.627   9.752   3.944 -0.3874 -0.0663  0.1598
 9921SOL    HW135599   0.548   9.699   3.934 -0.1062 -1.1041  2.7809
 9921SOL    HW235600   0.681   9.704   4.006  2.4989  0.4571 -1.7325
 9922SOL     OW35601   5.299   3.678   8.431 -0.2530  0.3149 -0.4158
 9922SOL    HW135602   5.288   3.771   8.450  0.1603  0.0902  1.1136
 9922SOL    HW235603   5.233   3.635   8.486  0.7795 -0.3827  0.3246
 9923SOL     OW35604  10.546   4.932   0.404  0.1469  0.3767  0.5345
 9923SOL    HW135605  10.486   5.007   0.408 -1.7053 -0.9206 -0.9067
 9923SOL    HW235606  10.491   4.859   0.378  2.1861 -1.1757  0.3264
 9924SOL     OW35607   5.520   3.859   6.221 -0.0711 -0.1666  0.4791
 9924SOL    HW135608   5.473   3.780   6.194  0.3745 -0.0450 -0.6943
 9924SOL    HW235609   5.455   3.929   6.212  0.5455  0.1821 -2.2150
 9925SOL     OW35610   7.954   2.439   5.559  0.0275  0.5145 -0.2839
 9925SOL    HW135611   7.921   2.384   5.487  0.3197 -0.8832  0.6168
 9925SOL    HW235612   7.890   2.428   5.629  2.2497 -2.3549  1.5531
 9926SOL     OW35613   9.176   5.960   3.746 -0.2571  0.4698 -0.2077
 9926SOL    HW135614   9.210   6.031   3.691  0.9282 -0.0208 -0.1461
 9926SOL    HW235615   9.240   5.952   3.817 -0.1733 -0.8872 -0.4108
 9927SOL     OW35616   4.557   3.222   1.062 -0.2310 -0.1372  0.1502
 9927SOL    HW135617   4.619   3.178   1.118 -0.4859 -1.0656 -0.2808
 9927SOL    HW235618   4.611   3.269   0.998  0.0413  0.2833  0.6847
 9928SOL     OW35619   3.204   2.067   4.630  0.4672  0.2200  0.3132
 9928SOL    HW135620   3.243   1.999   4.576  0.0010  0.9428 -0.9833
 9928SOL    HW235621   3.123   2.091   4.584  0.6948  1.7505  0.6411
 9929SOL     OW35622   7.366   9.144   3.118 -0.4709 -0.0303  0.4183
 9929SOL    HW135623   7.362   9.052   3.091  0.4876  0.2390 -0.7269
 9929SOL    HW235624   7.386   9.141   3.212  0.9722 -0.9952  0.1143
 9930SOL     OW35625   3.978   6.910   3.408  1.1687 -0.1765  0.2651
 9930SOL    HW135626   3.994   6.856   3.331 -2.4124 -1.3851  0.2303
 9930SOL    HW235627   3.963   6.848   3.479 -1.3647  0.6941  0.5923
 9931SOL     OW35628   5.404   8.320   0.353 -0.1917  0.1147  0.7960
 9931SOL    HW135629   5.496   8.296   0.364 -0.2938 -0.0308  1.3790
 9931SOL    HW235630   5.404   8.415   0.348  0.2671  0.0644 -1.9660
 9932SOL     OW35631   7.337   6.150   3.853  0.2179  0.4769 -0.0678
 9932SOL    HW135632   7.337   6.063   3.814 -1.2810  0.2965  0.2759
 9932SOL    HW235633   7.328   6.210   3.779  0.6111  0.3068 -0.2539
 9933SOL     OW35634   4.565   4.898   3.121 -0.1454 -0.1430 -0.3606
 9933SOL    HW135635   4.524   4.821   3.082  1.4917 -1.8539  1.0827
 9933SOL    HW235636   4.498   4.933   3.181 -0.3130 -1.5234  0.2902
 9934SOL     OW35637   6.050   9.146   6.268  0.2552 -0.0764  0.0266
 9934SOL    HW135638   6.094   9.158   6.184 -1.4742 -1.1662 -1.1130
 9934SOL    HW235639   6.075   9.058   6.296  1.9929  0.8163  1.4432
 9935SOL     OW35640   8.230   5.956   5.577  1.0445  0.2042 -0.1739
 9935SOL    HW135641   8.304   5.901   5.603  0.2538 -0.9169 -0.2432
 9935SOL    HW235642   8.221   5.941   5.483 -0.1179 -0.7383  0.0750
 9936SOL     OW35643   6.187  10.825   2.783 -0.2006  0.4616 -0.2584
 9936SOL    HW135644   6.276  10.810   2.750 -0.1679  1.1543 -0.4963
 9936SOL    HW235645   6.198  10.890   2.851 -0.5354  0.5903 -0.3287
 9937SOL     OW35646   4.904   3.626   2.934  0.0858 -0.1092 -0.4036
 9937SOL    HW135647   4.989   3.667   2.924 -0.0054  0.6939  1.7203
 9937SOL    HW235648   4.847   3.676   2.875  0.8378  0.0775 -0.9887
 9938SOL     OW35649   7.142   6.017   7.869 -0.0443  0.1245 -0.4547
 9938SOL    HW135650   7.146   6.112   7.871 -0.3752  0.1395 -0.4951
 9938SOL    HW235651   7.187   5.993   7.788  0.5136  0.2171 -0.1775
 9939SOL     OW35652   1.691   6.421  10.475 -0.4988 -1.1559  0.3393
 9939SOL    HW135653   1.653   6.444  10.391  2.8937  1.0435 -0.7826
 9939SOL    HW235654   1.716   6.329  10.467  0.2634 -0.8274 -1.3117
 9940SOL     OW35655   9.243  10.747   2.593 -0.1098 -0.5164 -0.1431
 9940SOL    HW135656   9.316  10.731   2.534  0.1081  0.9096 -0.2946
 9940SOL    HW235657   9.174  10.784   2.538 -0.1288  0.2427  0.3613
 9941SOL     OW35658   2.433   3.104   2.270  0.2892  0.6773  0.6552
 9941SOL    HW135659   2.400   3.193   2.256  0.3469  0.8058  1.2700
 9941SOL    HW235660   2.432   3.094   2.366  1.4280  0.4595  0.6581
 9942SOL     OW35661   1.210   2.237   0.631 -0.5921  0.0310  0.0102
 9942SOL    HW135662   1.183   2.152   0.666 -1.8885  0.3733 -0.1006
 9942SOL    HW235663   1.141   2.297   0.660  0.2106  1.0082 -0.0804
 9943SOL     OW35664   9.023   7.277   6.460  0.2159  0.3281  0.3941
 9943SOL    HW135665   9.102   7.329   6.444 -0.0118  0.8821  1.0218
 9943SOL    HW235666   8.998   7.299   6.550  0.0600 -0.8128  0.6408
 9944SOL     OW35667  10.581   1.482   1.722 -0.1899  0.5358 -0.5391
 9944SOL    HW135668  10.524   1.431   1.664 -1.0480  1.0270 -0.1546
 9944SOL    HW235669  10.640   1.528   1.663  0.4565 -0.7170 -0.9008
 9945SOL     OW35670   9.801   8.115  10.395  0.0017  0.0944 -0.0953
 9945SOL    HW135671   9.810   8.134  10.301 -0.9064  1.7000  0.1180
 9945SOL    HW235672   9.891   8.099  10.424  0.2095 -1.3178 -1.3978
 9946SOL     OW35673   0.456   3.622   6.136 -0.4835 -0.4462  0.3886
 9946SOL    HW135674   0.432   3.530   6.147 -1.1487 -0.6844 -2.3491
 9946SOL    HW235675   0.406   3.669   6.202  0.9655 -2.1083  2.8356
 9947SOL     OW35676   4.587   5.639  10.671  0.4127  0.3368 -0.1369
 9947SOL    HW135677   4.529   5.678  10.606 -1.1200 -3.2568 -1.1860
 9947SOL    HW235678   4.668   5.620  10.624 -0.0920 -0.7515 -0.5987
 9948SOL     OW35679   4.345   4.452  10.783  0.3479 -0.0433  0.4500
 9948SOL    HW135680   4.254   4.464  10.812  0.8240  1.3480  1.4723
 9948SOL    HW235681   4.347   4.489  10.695 -0.6383 -2.4445 -0.6800
 9949SOL     OW35682   0.247   4.349   6.897  0.0536  0.6745  0.2355
 9949SOL    HW135683   0.304   4.374   6.971  1.0122 -0.0149 -0.2464
 9949SOL    HW235684   0.286   4.269   6.863 -0.6489  0.7316 -0.7400
 9950SOL     OW35685   3.891   3.307   3.578 -0.4301 -0.2168 -0.2209
 9950SOL    HW135686   3.905   3.400   3.596 -1.3778 -0.2707  0.9672
 9950SOL    HW235687   3.931   3.292   3.492  0.8277  1.0035  0.1147
 9951SOL     OW35688   1.601   5.722   0.577  0.0124  0.5280 -0.2829
 9951SOL    HW135689   1.521   5.676   0.549 -0.4072  0.5484  0.8650
 9951SOL    HW235690   1.581   5.756   0.664  0.6209  2.1726 -0.7532
 9952SOL     OW35691   9.717   1.303   5.540  1.0394  0.0371 -0.3018
 9952SOL    HW135692   9.646   1.354   5.500 -0.1026 -0.4337  1.0412
 9952SOL    HW235693   9.690   1.212   5.530  0.4441 -0.0868  1.9037
 9953SOL     OW35694   2.156   0.838   5.619  0.1823 -0.2525  0.2068
 9953SOL    HW135695   2.193   0.902   5.558  0.0468 -1.2070 -0.9028
 9953SOL    HW235696   2.090   0.887   5.668 -0.2081  0.3586 -0.8982
 9954SOL     OW35697   0.900   9.198   9.609  0.1023 -0.2156 -0.5545
 9954SOL    HW135698   0.863   9.216   9.523 -0.7437  0.1431 -0.1331
 9954SOL    HW235699   0.884   9.278   9.659 -0.5187 -0.8472  0.2908
 9955SOL     OW35700   0.741   5.160   1.410  0.1920 -0.1962 -0.0159
 9955SOL    HW135701   0.722   5.240   1.362  0.6571  0.8200  1.4239
 9955SOL    HW235702   0.696   5.091   1.361 -1.6307  1.1758 -0.3538
 9956SOL     OW35703   0.578   6.078  10.321  0.0747 -0.4161 -0.2369
 9956SOL    HW135704   0.652   6.070  10.383 -1.0595 -2.0520  0.9886
 9956SOL    HW235705   0.520   6.006  10.345 -1.8098  0.6885 -1.3436
 9957SOL     OW35706   6.571   8.182   6.161 -0.0789 -0.3222 -0.3953
 9957SOL    HW135707   6.572   8.204   6.068 -0.1266 -4.6364 -1.6481
 9957SOL    HW235708   6.481   8.155   6.179 -0.9179  3.3636  1.9264
 9958SOL     OW35709   7.102   2.259   5.468  0.5638 -0.1402 -0.0990
 9958SOL    HW135710   7.172   2.300   5.419 -0.3641 -0.6062 -1.8925
 9958SOL    HW235711   7.089   2.174   5.427 -2.1260  0.5823 -0.9457
 9959SOL     OW35712   3.306   0.722  10.559 -0.3775  0.4353  0.5160
 9959SOL    HW135713   3.400   0.704  10.556 -0.7088 -1.4211  0.5052
 9959SOL    HW235714   3.280   0.725  10.467 -0.5197 -0.1672  0.5337
 9960SOL     OW35715   3.670   7.194   6.925 -0.6228  0.3863 -0.5075
 9960SOL    HW135716   3.647   7.151   7.008  2.1774 -1.6560 -0.6449
 9960SOL    HW235717   3.613   7.152   6.860 -0.0883 -0.9066 -0.1689
 9961SOL     OW35718   5.569   5.484   6.817 -0.1298  0.5249 -0.6259
 9961SOL    HW135719   5.650   5.435   6.831 -1.1337 -1.1135 -0.2814
 9961SOL    HW235720   5.553   5.476   6.722 -1.5644 -2.0769 -0.2759
 9962SOL     OW35721   2.166   5.641   2.173  0.4779 -0.0759 -0.0932
 9962SOL    HW135722   2.258   5.651   2.148  1.0799 -0.6540  1.7068
 9962SOL    HW235723   2.143   5.553   2.143  0.1705  0.4737 -1.4987
 9963SOL     OW35724   2.281   9.561   3.701 -0.0619  0.1716  0.3962
 9963SOL    HW135725   2.301   9.620   3.628 -0.1473  0.2498  0.4360
 9963SOL    HW235726   2.360   9.562   3.755  0.7266 -1.2972 -0.6387
 9964SOL     OW35727   0.912   1.009   6.365 -0.6474  0.9567 -0.1862
 9964SOL    HW135728   0.870   0.993   6.280 -1.6134 -0.0148  0.4474
 9964SOL    HW235729   0.855   1.071   6.409 -0.4880  0.9682  0.0074
 9965SOL     OW35730  10.173   7.842   4.341  0.1164 -0.3631  0.2981
 9965SOL    HW135731  10.239   7.911   4.351  1.0733 -0.9794 -1.2807
 9965SOL    HW235732  10.200   7.775   4.403 -0.6340  0.5040  1.6110
 9966SOL     OW35733   8.223   0.775  10.253  0.0575  0.8583 -0.6569
 9966SOL    HW135734   8.216   0.805  10.344 -0.2976 -0.0249 -0.3820
 9966SOL    HW235735   8.308   0.733  10.248  0.3003  1.3651 -0.8826
 9967SOL     OW35736  10.371   2.279   6.178 -0.2741 -0.6625 -0.1247
 9967SOL    HW135737  10.291   2.329   6.160  0.3549  1.1060  1.6916
 9967SOL    HW235738  10.382   2.284   6.273  1.1760 -2.1887 -0.1755
 9968SOL     OW35739   6.561   0.662   6.281 -0.1846  0.1917  0.6962
 9968SOL    HW135740   6.633   0.600   6.266 -0.6407 -0.0333 -0.6573
 9968SOL    HW235741   6.575   0.693   6.371  0.2749 -1.5716  1.2699
 9969SOL     OW35742   2.003   6.656   0.433 -0.2418  0.1261  0.2533
 9969SOL    HW135743   1.909   6.664   0.414  0.0449  1.3909 -0.7889
 9969SOL    HW235744   2.012   6.690   0.522 -0.5788  1.5428 -0.2238
 9970SOL     OW35745   2.083   4.325   2.872 -0.1582  0.7726 -0.0884
 9970SOL    HW135746   2.122   4.387   2.933  0.0343  1.9051 -1.3140
 9970SOL    HW235747   2.130   4.244   2.887  0.7630  1.3809  0.3800
 9971SOL     OW35748   3.046   8.037  10.714  0.1437  0.9680  0.4170
 9971SOL    HW135749   3.097   8.109  10.677  0.2427 -0.1934 -1.9169
 9971SOL    HW235750   3.103   7.960  10.703 -0.7261  0.2205  1.0159
 9972SOL     OW35751   1.090   8.081   3.281  0.1905 -0.2761  0.0982
 9972SOL    HW135752   1.118   8.163   3.323 -2.7561  2.0006 -1.9623
 9972SOL    HW235753   1.167   8.053   3.232  1.2316  1.3922  0.6696
 9973SOL     OW35754   7.534   9.551   6.777  0.2255 -0.4198 -0.1147
 9973SOL    HW135755   7.574   9.613   6.716  0.2159  0.7587  1.0469
 9973SOL    HW235756   7.444   9.541   6.745  0.0739  0.5759 -0.0279
 9974SOL     OW35757   2.675   6.946   9.348 -0.3120 -0.1371 -0.4981
 9974SOL    HW135758   2.742   6.950   9.281  0.0114 -0.3800 -0.1931
 9974SOL    HW235759   2.717   6.981   9.426 -0.2747 -1.0309 -0.1003
 9975SOL     OW35760   1.549   4.522   0.792  0.3355  0.0251  0.5050
 9975SOL    HW135761   1.491   4.464   0.842 -0.5231  0.2508 -0.2075
 9975SOL    HW235762   1.510   4.525   0.704  0.9183  0.9046  0.2669
 9976SOL     OW35763   1.866   6.848   1.601 -0.3816  0.3127 -0.2414
 9976SOL    HW135764   1.810   6.771   1.607 -0.1572  0.1556 -0.1509
 9976SOL    HW235765   1.828   6.900   1.531  0.5061 -0.7349 -1.5398
 9977SOL     OW35766   2.890   6.105   2.639  0.5646 -0.5468 -0.1816
 9977SOL    HW135767   2.956   6.143   2.696 -0.4308  1.2715 -0.1589
 9977SOL    HW235768   2.812   6.097   2.695 -0.5762  1.7151 -1.3138
 9978SOL     OW35769   0.989   2.708   7.772 -0.2084  0.6933 -0.0893
 9978SOL    HW135770   0.942   2.792   7.778 -2.2542 -0.4381  0.8064
 9978SOL    HW235771   0.927   2.650   7.727  1.5163 -0.1318 -1.4942
 9979SOL     OW35772   6.817   2.918   3.543  0.2407  0.5848 -0.3172
 9979SOL    HW135773   6.897   2.875   3.512  0.1388  1.2980 -1.6106
 9979SOL    HW235774   6.756   2.912   3.470 -0.1833  1.8933 -0.1019
 9980SOL     OW35775   3.834   8.744   8.665 -0.1719 -0.6220  0.4406
 9980SOL    HW135776   3.823   8.703   8.751 -1.0913  1.1752  1.2284
 9980SOL    HW235777   3.866   8.832   8.684  0.5217 -0.5040 -1.1194
 9981SOL     OW35778   5.595   3.317   6.727 -0.3959  0.3125  0.4717
 9981SOL    HW135779   5.674   3.346   6.773  0.7928  0.2680 -1.4435
 9981SOL    HW235780   5.603   3.222   6.722 -0.0772  0.3769 -0.5221
 9982SOL     OW35781   3.486   2.842   9.265  0.3718 -0.5534 -0.2046
 9982SOL    HW135782   3.508   2.867   9.176  1.3401  0.4155  0.2834
 9982SOL    HW235783   3.435   2.916   9.299  0.6188 -0.5904  0.2645
 9983SOL     OW35784   8.289   9.976   1.088  1.1305  0.0407  0.1944
 9983SOL    HW135785   8.292   9.906   1.022 -0.5673 -0.9340  1.0630
 9983SOL    HW235786   8.195   9.988   1.105  1.4453  1.7798  0.8714
 9984SOL     OW35787   6.492  10.143   1.770 -0.4889 -0.8477 -0.3340
 9984SOL    HW135788   6.436  10.216   1.742  0.0126 -0.2634  0.1393
 9984SOL    HW235789   6.528  10.171   1.854 -0.6007 -1.8269  0.0500
 9985SOL     OW35790   0.747   3.834   8.722 -0.0380 -0.1791  0.0694
 9985SOL    HW135791   0.796   3.755   8.745  1.0182  0.4077 -0.1164
 9985SOL    HW235792   0.743   3.884   8.803  2.1844  1.0853 -0.5138
 9986SOL     OW35793   8.227   3.740   3.790 -0.3183  0.1928 -0.3726
 9986SOL    HW135794   8.260   3.821   3.828  1.6759  0.4346 -2.4072
 9986SOL    HW235795   8.284   3.672   3.826 -1.4199 -0.2369  0.6319
 9987SOL     OW35796   9.312   4.437   7.852  0.0663  0.0903  0.3976
 9987SOL    HW135797   9.382   4.408   7.911 -0.6511  1.0319  1.7837
 9987SOL    HW235798   9.232   4.404   7.891 -0.5999  2.2451  1.0255
 9988SOL     OW35799   8.756  10.558   3.092 -0.6938 -0.1044 -0.5654
 9988SOL    HW135800   8.776  10.622   3.161 -0.9126  1.1243 -1.5934
 9988SOL    HW235801   8.768  10.607   3.011 -0.2860 -1.5705 -1.4160
 9989SOL     OW35802   2.561   0.381   7.144  0.3423  0.5673 -0.1031
 9989SOL    HW135803   2.612   0.428   7.077  1.7047  0.6137  0.9168
 9989SOL    HW235804   2.478   0.428   7.149  1.8874  3.3971  1.3656
 9990SOL     OW35805   3.053   5.784   9.846  0.4483 -0.1281 -0.4443
 9990SOL    HW135806   3.075   5.877   9.840  0.3954 -0.0196  0.8310
 9990SOL    HW235807   3.127   5.745   9.892 -1.2375 -0.0090  2.5970
 9991SOL     OW35808   1.518   0.072   5.273  0.2337 -0.5104 -0.1005
 9991SOL    HW135809   1.599   0.081   5.222  0.8358 -1.5205  0.6294
 9991SOL    HW235810   1.482  -0.012   5.244  0.0475 -0.6008  0.3875
 9992SOL     OW35811   9.484   0.546   7.174  0.1208 -0.6556  0.5154
 9992SOL    HW135812   9.419   0.482   7.143  0.2202 -0.7706  0.5463
 9992SOL    HW235813   9.569   0.507   7.154  0.1808 -0.3021  0.0583
 9993SOL     OW35814   0.607   2.346   1.835 -0.0032  0.4759  0.6405
 9993SOL    HW135815   0.588   2.253   1.851  1.0808  0.1209  0.0274
 9993SOL    HW235816   0.529   2.381   1.794 -0.6367 -0.0231  1.3904
 9994SOL     OW35817  10.082   1.341   7.808 -0.5000  0.1666 -0.3000
 9994SOL    HW135818  10.047   1.268   7.859 -0.4911 -0.4730 -1.1835
 9994SOL    HW235819  10.005   1.381   7.768 -0.2870 -1.1686 -2.1507
 9995SOL     OW35820  10.470   3.723   7.951  0.0802  0.0797  0.7797
 9995SOL    HW135821  10.445   3.755   7.864  0.1949 -3.2285 -0.5847
 9995SOL    HW235822  10.392   3.679   7.984  0.5438 -0.0995  1.6688
 9996SOL     OW35823   9.008   5.470   2.128 -0.4187  0.2026  0.4376
 9996SOL    HW135824   9.087   5.478   2.076 -0.1524  1.2053  0.9720
 9996SOL    HW235825   8.987   5.376   2.127 -0.4876  0.2127 -1.5278
 9997SOL     OW35826   0.473   9.245   4.705 -0.2722 -0.2569  0.5185
 9997SOL    HW135827   0.383   9.224   4.730 -0.4078  0.8251  1.0053
 9997SOL    HW235828   0.465   9.285   4.618 -0.5428  1.8326  1.4475
 9998SOL     OW35829   5.267   1.726   5.590 -0.5308  0.3688 -0.8004
 9998SOL    HW135830   5.358   1.725   5.563 -0.1645 -0.1492  0.3712
 9998SOL    HW235831   5.260   1.804   5.646 -0.7158  0.2065 -0.5960
 9999SOL     OW35832   8.284   3.878   6.125  0.2574 -0.2569 -0.3114
 9999SOL    HW135833   8.237   3.825   6.061  1.0724 -0.0713 -1.0820
 9999SOL    HW235834   8.244   3.964   6.120 -0.6506 -0.6153  0.4950
10000SOL     OW35835   9.319  10.628  10.587 -0.2844 -0.1077 -0.3569
10000SOL    HW135836   9.238  10.676  10.570 -0.1168  0.3584  0.1400
10000SOL    HW235837   9.352  10.664  10.669  2.7821  2.9969 -2.6501
10001SOL     OW35838   9.565   1.378   4.535 -0.3568  0.1033  0.4014
10001SOL    HW135839   9.599   1.306   4.587 -0.6402  0.2944  0.8474
10001SOL    HW235840   9.536   1.443   4.598 -3.5000 -0.8886  0.1154
10002SOL     OW35841  10.894   8.655   8.028  0.8772 -0.7948 -0.5078
10002SOL    HW135842  10.862   8.726   8.083  3.5664  1.5624 -1.7000
10002SOL    HW235843  10.841   8.660   7.948  0.2456 -0.9997 -0.1122
10003SOL     OW35844   8.998   7.955   6.476  0.0844  0.1786  0.3463
10003SOL    HW135845   9.039   7.946   6.562 -0.3167  0.3594  0.5592
10003SOL    HW235846   9.031   8.038   6.441  0.6101 -0.1151  0.1202
10004SOL     OW35847   2.759   0.764   2.795  0.1331 -0.1024 -0.0398
10004SOL    HW135848   2.679   0.816   2.787 -0.1872 -0.7520 -1.3148
10004SOL    HW235849   2.830   0.828   2.786 -0.2574  0.1541 -1.5694
10005SOL     OW35850   5.688   4.323   7.354  0.1563 -0.9063 -0.2209
10005SOL    HW135851   5.781   4.345   7.344 -0.3107  0.8443 -1.2304
10005SOL    HW235852   5.687   4.246   7.410  2.1064  0.4614  1.8814
10006SOL     OW35853   1.122   3.013   2.383  0.2617 -0.2963  0.1500
10006SOL    HW135854   1.133   2.962   2.463  0.3803 -0.4228  0.0537
10006SOL    HW235855   1.135   3.104   2.410 -1.7717 -0.1241  0.6882
10007SOL     OW35856   0.604   0.577   9.487 -0.2458 -0.5442  0.1982
10007SOL    HW135857   0.527   0.625   9.457  1.0015  1.5475  0.1057
10007SOL    HW235858   0.612   0.503   9.427  0.1171  1.4931 -2.4120
10008SOL     OW35859   8.442   5.871   2.013 -0.2027 -0.3453  0.5598
10008SOL    HW135860   8.491   5.791   1.997  0.9965  0.2816  0.9423
10008SOL    HW235861   8.363   5.863   1.960  0.4885 -1.2373 -0.3556
10009SOL     OW35862   0.158   8.038  10.580  0.1358 -0.7986  0.4208
10009SOL    HW135863   0.222   8.078  10.522 -0.3345 -2.5646 -1.4501
10009SOL    HW235864   0.164   8.089  10.661  0.8020  1.8091 -1.1440
10010SOL     OW35865   6.315   0.147   4.064 -0.5289 -0.4793 -0.4312
10010SOL    HW135866   6.361   0.126   4.145 -1.0214  0.3623  0.0853
10010SOL    HW235867   6.343   0.080   4.002  0.0528 -0.9850  0.3617
10011SOL     OW35868   2.078   3.317   9.945  0.2800 -0.2893 -0.2720
10011SOL    HW135869   2.004   3.377   9.935  0.1902 -0.1498  1.0629
10011SOL    HW235870   2.054   3.240   9.894 -0.4886  0.0185 -0.3909
10012SOL     OW35871   0.509   6.556   3.200 -0.5031  0.7163 -0.0721
10012SOL    HW135872   0.461   6.608   3.136 -1.3376  0.4012  0.2836
10012SOL    HW235873   0.461   6.473   3.204  0.9684 -0.2116 -0.8536
10013SOL     OW35874   0.504   3.024   3.361  0.4657  0.4430 -0.3661
10013SOL    HW135875   0.505   3.032   3.266 -2.1485 -0.5878 -0.5646
10013SOL    HW235876   0.596   3.023   3.386  1.2319  0.3789 -2.9141
10014SOL     OW35877   6.933   1.318   1.770 -0.4743  0.0200  0.2758
10014SOL    HW135878   6.979   1.245   1.811 -0.3299  0.4483  0.8939
10014SOL    HW235879   6.897   1.281   1.689 -1.0903 -0.9458  0.9680
10015SOL     OW35880   6.751   2.294   2.995  0.4170  0.6897  0.1954
10015SOL    HW135881   6.760   2.198   2.996  1.0821  0.7430 -0.0004
10015SOL    HW235882   6.729   2.317   3.085 -1.1980  0.2366 -0.0550
10016SOL     OW35883   7.050   9.773   6.880  0.0373 -0.4329  0.1030
10016SOL    HW135884   7.001   9.750   6.958  1.2869 -1.3824  0.6487
10016SOL    HW235885   7.069   9.867   6.889 -0.5956 -0.3439  0.4876
10017SOL     OW35886   0.827   8.224   3.485  0.2166 -0.1922  0.1620
10017SOL    HW135887   0.893   8.164   3.521  0.7695 -0.3986 -1.1296
10017SOL    HW235888   0.758   8.226   3.551  0.7778 -1.2540  0.8154
10018SOL     OW35889   3.065   0.478   0.756  0.1947  0.0366 -0.3641
10018SOL    HW135890   3.004   0.509   0.690 -0.2510 -0.5114 -0.2118
10018SOL    HW235891   3.143   0.533   0.744 -0.4730  1.0274 -0.2862
10019SOL     OW35892   2.762   9.636   8.843 -0.1913  0.4478  0.2244
10019SOL    HW135893   2.680   9.624   8.794 -0.1385  0.4955  0.1248
10019SOL    HW235894   2.744   9.597   8.929  0.6487 -2.2596 -0.7360
10020SOL     OW35895  10.466   9.581   5.379 -0.2038 -0.3039  0.2136
10020SOL    HW135896  10.552   9.574   5.421  0.1674  1.3696 -0.1904
10020SOL    HW235897  10.448   9.492   5.346  0.4634 -1.1451  1.9793
10021SOL     OW35898   8.947   2.503   3.391 -0.1164  0.5058 -0.0157
10021SOL    HW135899   8.864   2.544   3.417  0.1704 -0.2440  2.3474
10021SOL    HW235900   9.014   2.550   3.440  0.6617 -0.1111 -0.4506
10022SOL     OW35901   7.187  10.408   4.313 -0.5091 -0.2189  0.6448
10022SOL    HW135902   7.241  10.329   4.316  0.8164  0.6880  1.2727
10022SOL    HW235903   7.248  10.479   4.293 -1.3850  0.8944  1.7336
10023SOL     OW35904   2.546   7.221   7.529  0.4505  0.2613  0.5455
10023SOL    HW135905   2.465   7.212   7.579  0.9595  0.3934  1.4019
10023SOL    HW235906   2.526   7.289   7.464  0.2572  1.1759  1.5448
10024SOL     OW35907  10.673   4.801   4.635 -0.1899 -0.4544  0.5754
10024SOL    HW135908  10.580   4.822   4.637 -0.3983 -1.2251 -0.2623
10024SOL    HW235909  10.677   4.706   4.641  0.5683 -0.4118  0.9540
10025SOL     OW35910   7.284   1.591   3.492 -0.2796 -0.4669 -0.3751
10025SOL    HW135911   7.221   1.520   3.482 -0.6045 -0.1649 -0.5057
10025SOL    HW235912   7.231   1.671   3.487  0.1437 -0.2033 -0.7056
10026SOL     OW35913   4.256   9.306   4.140  0.1171  0.0758 -0.0216
10026SOL    HW135914   4.235   9.214   4.152  0.2239  0.1837  1.1079
10026SOL    HW235915   4.278   9.314   4.047  2.1540 -1.4652  0.2475
10027SOL     OW35916   9.556   1.310  10.730 -0.2426 -0.6332 -0.3340
10027SOL    HW135917   9.629   1.326  10.670 -0.0977  1.8785  0.3944
10027SOL    HW235918   9.598   1.290  10.814 -0.4149 -1.4332 -0.4365
10028SOL     OW35919   5.709   8.810   5.010 -0.4454 -0.1061  0.1460
10028SOL    HW135920   5.746   8.898   5.020 -0.6231 -0.1204  1.0512
10028SOL    HW235921   5.730   8.765   5.092  0.2164 -1.1390 -0.5700
10029SOL     OW35922   4.405   4.774   5.773  0.3424  0.3576 -0.0744
10029SOL    HW135923   4.324   4.726   5.792  1.1736 -1.9328 -1.8442
10029SOL    HW235924   4.475   4.718   5.806  1.2972  1.6782  0.2386
10030SOL     OW35925   4.227   4.584   7.739  0.0704 -0.0120  0.0112
10030SOL    HW135926   4.147   4.589   7.688  0.7042 -2.0308 -1.3467
10030SOL    HW235927   4.222   4.499   7.784  2.0245 -0.9250 -1.3161
10031SOL     OW35928   5.510   6.691   9.708 -0.1564 -0.0746 -0.5003
10031SOL    HW135929   5.585   6.739   9.673  0.3292  0.8109  1.5520
10031SOL    HW235930   5.541   6.601   9.717 -0.1476 -0.2160 -1.8585
10032SOL     OW35931   6.859   6.072   4.854  0.1309  0.2764 -0.0805
10032SOL    HW135932   6.952   6.056   4.872  0.5141  2.7354  0.5232
10032SOL    HW235933   6.858   6.146   4.793 -1.4409 -1.2785 -2.1184
10033SOL     OW35934   0.752   5.722  10.232  0.9166  0.6774 -0.5723
10033SOL    HW135935   0.685   5.739  10.166  0.0501 -1.6517 -0.3805
10033SOL    HW235936   0.706   5.737  10.315  0.9016  0.0081 -0.4569
10034SOL     OW35937   7.834   9.768   3.313  0.4036  0.1188 -0.3292
10034SOL    HW135938   7.779   9.696   3.345 -0.1676  0.6041 -0.2013
10034SOL    HW235939   7.921   9.729   3.304  0.2940 -0.3664  0.5812
10035SOL     OW35940  10.787   0.190   0.492 -0.2737  0.5653  0.3198
10035SOL    HW135941  10.742   0.259   0.541 -0.4057  2.0713 -1.8073
10035SOL    HW235942  10.716   0.140   0.451 -0.1141  0.1698  0.5177
10036SOL     OW35943   6.055   8.217   2.684 -0.2433  0.0316  0.0562
10036SOL    HW135944   5.982   8.276   2.664 -0.3379 -0.3236 -0.6796
10036SOL    HW235945   6.025   8.131   2.658  0.9004  0.0648 -1.5295
10037SOL     OW35946   6.875   3.552  10.245 -0.3003 -0.2487  0.6019
10037SOL    HW135947   6.947   3.508  10.201 -0.2002 -0.8767  1.3688
10037SOL    HW235948   6.800   3.539  10.188  0.0050 -0.3258  0.2155
10038SOL     OW35949   6.369   5.085   0.483  0.3758 -0.3614 -0.1849
10038SOL    HW135950   6.437   5.142   0.447 -0.4036  0.4461 -0.4069
10038SOL    HW235951   6.411   4.999   0.491  1.4012  0.1166 -0.3566
10039SOL     OW35952   4.840   7.490   1.459  0.6425  0.3665  0.2090
10039SOL    HW135953   4.829   7.396   1.444  0.4397  0.2557  0.9828
10039SOL    HW235954   4.843   7.498   1.554  0.7114  1.1404  0.1451
10040SOL     OW35955   9.596   2.037   3.019 -0.1361 -0.3387 -0.5151
10040SOL    HW135956   9.611   1.955   2.973 -1.9232 -2.2551  2.0366
10040SOL    HW235957   9.675   2.050   3.071  0.5127  0.0636 -1.5773
10041SOL     OW35958   3.760   9.908   3.590  0.3373  0.1338  0.1679
10041SOL    HW135959   3.668   9.890   3.570  0.2976  1.7383 -1.2996
10041SOL    HW235960   3.808   9.865   3.520  0.6226  0.4614  0.1637
10042SOL     OW35961   0.869   4.500   7.005 -0.7133 -0.0116 -0.4900
10042SOL    HW135962   0.883   4.464   7.093  1.7688 -1.8933 -1.5404
10042SOL    HW235963   0.787   4.461   6.976 -0.1823 -1.5945  0.0132
10043SOL     OW35964   8.657   6.284   1.859  0.2069 -0.6302 -0.0362
10043SOL    HW135965   8.741   6.264   1.819  0.0561 -0.5035 -0.4175
10043SOL    HW235966   8.600   6.309   1.786  0.6371  2.1054  0.4401
10044SOL     OW35967   5.356   3.840   1.815 -0.3300 -0.1793  0.0252
10044SOL    HW135968   5.432   3.826   1.871 -0.0127 -0.8831 -0.5596
10044SOL    HW235969   5.381   3.913   1.758 -0.1165 -0.3584 -0.1136
10045SOL     OW35970   8.687   4.266   3.791 -0.2118 -0.1791 -0.4360
10045SOL    HW135971   8.740   4.274   3.712 -0.3758  1.3572 -0.4264
10045SOL    HW235972   8.730   4.324   3.854 -0.0546 -1.4246  0.6244
10046SOL     OW35973   0.229   5.535   8.315  0.0089 -0.1387 -0.1948
10046SOL    HW135974   0.202   5.456   8.362 -0.4242 -0.4147 -0.8921
10046SOL    HW235975   0.255   5.504   8.229 -1.0574  0.5790 -0.7986
10047SOL     OW35976   2.771   5.657   3.593  0.3974  0.2851 -0.3383
10047SOL    HW135977   2.685   5.651   3.550  0.2908  1.8796 -0.4158
10047SOL    HW235978   2.752   5.639   3.686  0.5914 -2.9299 -0.8111
10048SOL     OW35979   7.264   2.882   8.994 -0.4906  0.7289  0.0056
10048SOL    HW135980   7.219   2.809   8.952 -0.2642  0.5860  0.0122
10048SOL    HW235981   7.204   2.956   8.984 -1.0072  0.3937  0.5599
10049SOL     OW35982   3.892   9.031   6.036  0.7155  0.0803  0.1384
10049SOL    HW135983   3.805   9.062   6.011 -0.4943 -1.8882  1.5896
10049SOL    HW235984   3.929   8.996   5.955 -1.0879 -1.6714 -0.0172
10050SOL     OW35985   3.201   6.428   9.751  0.4302  0.1253 -0.2451
10050SOL    HW135986   3.178   6.406   9.841  0.5860 -0.8392 -0.4306
10050SOL    HW235987   3.120   6.412   9.702  1.0751 -2.0314 -0.6953
10051SOL     OW35988   9.436   4.730   6.793  0.1794  0.4286  0.2650
10051SOL    HW135989   9.350   4.718   6.753 -0.2763  0.0334  1.3075
10051SOL    HW235990   9.466   4.816   6.762  0.6869 -0.5990 -2.3414
10052SOL     OW35991  10.534   4.443   5.432 -0.1617 -0.2106  0.6131
10052SOL    HW135992  10.602   4.391   5.389 -0.9456 -1.4624  0.8321
10052SOL    HW235993  10.561   4.534   5.418  2.1151 -0.6505  1.5596
10053SOL     OW35994   9.083   7.185   6.218  0.3397  0.3591 -0.4070
10053SOL    HW135995   9.065   7.218   6.307  1.1061  0.0703 -0.1350
10053SOL    HW235996   9.070   7.091   6.225 -0.6378  0.4494 -0.8784
10054SOL     OW35997   6.399   6.603   9.998 -0.4534 -0.2495 -0.6138
10054SOL    HW135998   6.382   6.559   9.915 -3.0272  1.7794 -1.2906
10054SOL    HW235999   6.374   6.540  10.065 -0.3922 -1.1413 -1.4079
10055SOL     OW36000   7.285   0.654   9.912  0.1792  0.3750  0.5294
10055SOL    HW136001   7.371   0.687   9.886 -0.1802  1.1326  0.2571
10055SOL    HW236002   7.249   0.723   9.968 -1.0534  1.0280 -0.9596
10056SOL     OW36003   4.454   6.878   9.888  0.9897 -0.5829 -0.2940
10056SOL    HW136004   4.421   6.900   9.975 -0.0828 -1.4695 -0.4613
10056SOL    HW236005   4.524   6.815   9.905  1.3921 -0.0731 -0.0322
10057SOL     OW36006   6.834   8.044   1.204  0.5355 -0.0693  0.4040
10057SOL    HW136007   6.871   8.058   1.291  1.8385 -0.8487  0.0146
10057SOL    HW236008   6.863   8.121   1.153 -1.5092  1.1734  0.9931
10058SOL     OW36009   3.793   0.061   5.391 -0.1065 -0.5835 -0.4382
10058SOL    HW136010   3.843   0.020   5.461  2.4651  1.2737 -1.0347
10058SOL    HW236011   3.707   0.077   5.429  1.4801  1.3332  2.7753
10059SOL     OW36012   0.550  10.604   0.400 -0.2780  0.4132  0.6374
10059SOL    HW136013   0.546  10.585   0.307 -0.8491 -0.3749  0.8162
10059SOL    HW236014   0.579  10.695   0.404  1.3961 -0.0351 -0.2611
10060SOL     OW36015   2.040   3.866   1.687  0.2799 -0.3763  0.2749
10060SOL    HW136016   1.995   3.932   1.740  0.9692  1.3797 -1.1882
10060SOL    HW236017   2.128   3.860   1.725  0.5368  0.3410 -0.1693
10061SOL     OW36018   2.672   3.218   7.041 -0.3074  0.3091  0.2160
10061SOL    HW136019   2.611   3.150   7.067 -0.9282  0.8465  0.1877
10061SOL    HW236020   2.683   3.207   6.947 -1.2430  0.9123  0.0285
10062SOL     OW36021   2.437   1.175   9.564 -0.0079  0.2517 -0.0639
10062SOL    HW136022   2.458   1.179   9.471 -0.3342 -0.1571 -0.1599
10062SOL    HW236023   2.515   1.209   9.608  0.2606  0.1721 -0.4731
10063SOL     OW36024   9.961  10.865   6.734 -0.6914 -0.4124  0.3961
10063SOL    HW136025  10.005  10.781   6.731  0.3690  0.0174  2.2767
10063SOL    HW236026  10.025  10.927   6.699 -0.6240 -0.0941  1.0664
10064SOL     OW36027   3.099   4.572   7.548 -0.2425  0.1634 -0.7727
10064SOL    HW136028   3.129   4.504   7.609 -1.5609  0.9992  0.8873
10064SOL    HW236029   3.169   4.636   7.547  0.3047 -0.4247 -1.0831
10065SOL     OW36030   1.524   4.256   0.230 -0.2092 -0.6147  0.9826
10065SOL    HW136031   1.531   4.162   0.245  0.9608 -0.4208  1.8464
10065SOL    HW236032   1.589   4.295   0.289 -2.0642  0.8877  2.1393
10066SOL     OW36033   3.824   9.583   4.007  0.0142  0.0276  0.4515
10066SOL    HW136034   3.789   9.563   3.920  0.0020  1.5585  0.0724
10066SOL    HW236035   3.889   9.652   3.992  0.2446  0.0892  1.6160
10067SOL     OW36036   6.445  10.022   4.463  0.1656  0.5602  0.1569
10067SOL    HW136037   6.399  10.071   4.395  2.2861  1.5672 -0.6557
10067SOL    HW236038   6.465   9.937   4.422 -0.6830  0.2308  0.4112
10068SOL     OW36039   6.061   1.355   2.557  0.3037 -0.4224  0.1735
10068SOL    HW136040   6.107   1.343   2.640  0.2177 -1.1329  0.1203
10068SOL    HW236041   6.125   1.398   2.500  0.6062 -0.6086  0.3719
10069SOL     OW36042   6.644   9.169   0.403 -0.3763  0.2330 -0.0196
10069SOL    HW136043   6.648   9.246   0.460 -0.1066 -0.9149  1.5969
10069SOL    HW236044   6.727   9.171   0.355  0.0851  0.4152  0.7547
10070SOL     OW36045   2.285   5.986   1.075  0.2200 -0.2723 -0.0954
10070SOL    HW136046   2.220   6.039   1.029 -0.3113  1.0107  1.9703
10070SOL    HW236047   2.297   5.909   1.020 -0.3538  1.1453 -2.3085
10071SOL     OW36048   4.503  10.397   3.838  0.0469 -0.7519 -0.6906
10071SOL    HW136049   4.469  10.444   3.914 -1.6064 -2.2962 -0.3902
10071SOL    HW236050   4.597  10.413   3.839  0.8155 -3.8291  4.0746
10072SOL     OW36051   5.338   8.339   6.848  0.2031  0.5069  0.2781
10072SOL    HW136052   5.277   8.269   6.871 -2.0255  2.2357  0.0541
10072SOL    HW236053   5.363   8.378   6.931  2.0654 -0.9704  0.4586
10073SOL     OW36054   7.718   4.297   4.113  0.2819 -0.1924  0.4537
10073SOL    HW136055   7.734   4.291   4.019 -0.5125 -0.8428  0.3529
10073SOL    HW236056   7.628   4.330   4.120  0.7947  1.1974  1.0022
10074SOL     OW36057   1.979   9.900   6.415 -0.7023  0.0550  0.0038
10074SOL    HW136058   1.969   9.816   6.461 -0.8116  0.0257 -0.0713
10074SOL    HW236059   2.042   9.882   6.345 -0.9018 -0.0272 -0.1577
10075SOL     OW36060   5.453   5.107   9.927 -0.3473  0.0424 -0.1944
10075SOL    HW136061   5.448   5.155  10.010  0.6299  0.2129 -0.2217
10075SOL    HW236062   5.397   5.157   9.868  0.8432  1.3541 -0.2915
10076SOL     OW36063   2.852   8.975   5.122 -0.1176  0.2468  0.6665
10076SOL    HW136064   2.822   8.892   5.159  1.4170  0.4378  2.4397
10076SOL    HW236065   2.783   9.038   5.146 -1.0145 -0.3621 -0.2139
10077SOL     OW36066   7.925   8.690   4.566 -0.3266  0.2635  0.4691
10077SOL    HW136067   7.964   8.682   4.653  0.2292  1.8358  0.3965
10077SOL    HW236068   7.834   8.716   4.582 -0.3463  0.1322  0.5744
10078SOL     OW36069   8.996   6.954   3.887  0.3462 -0.1897  0.4225
10078SOL    HW136070   8.905   6.922   3.885  0.6047 -1.0188  1.1514
10078SOL    HW236071   9.005   7.006   3.808 -0.5069 -0.8284 -0.1158
10079SOL     OW36072   2.324   4.414   7.028  0.0768  0.3629  0.3474
10079SOL    HW136073   2.339   4.386   7.118 -0.3347 -0.6783  0.1026
10079SOL    HW236074   2.229   4.408   7.017  0.2620 -1.0352 -0.6310
10080SOL     OW36075   5.383   3.846   1.416 -0.0613  0.1655  0.7816
10080SOL    HW136076   5.337   3.796   1.483 -0.0960  0.6003  1.0898
10080SOL    HW236077   5.371   3.937   1.442  0.0852  0.3310  0.2857
10081SOL     OW36078   4.128   6.661  10.388  0.1349  0.2591 -0.3231
10081SOL    HW136079   4.217   6.625  10.388  0.6632  1.5337  0.2927
10081SOL    HW236080   4.096   6.644  10.299  0.9064 -0.4062 -0.4836
10082SOL     OW36081   2.479   6.082   3.520  0.0276 -0.3785  0.1558
10082SOL    HW136082   2.564   6.059   3.558  0.6093  0.4742 -0.5873
10082SOL    HW236083   2.418   6.079   3.594  0.8446 -0.2480  0.8517
10083SOL     OW36084   6.130   0.043  10.107  0.1015  0.0476  0.2548
10083SOL    HW136085   6.063   0.036  10.175 -0.5056 -0.5656 -0.4001
10083SOL    HW236086   6.124   0.134  10.077  0.3810  0.3245  1.0208
10084SOL     OW36087   0.710   1.316   6.413  0.3030 -0.5961  0.1437
10084SOL    HW136088   0.652   1.271   6.351 -0.4804  0.4110  0.1165
10084SOL    HW236089   0.681   1.288   6.499 -0.7614  0.4930  0.1620
10085SOL     OW36090   9.745   6.117   2.928 -0.8529  0.3089 -0.3031
10085SOL    HW136091   9.793   6.034   2.930 -1.9944 -0.3703  0.0544
10085SOL    HW236092   9.805   6.178   2.886  0.4043 -0.4437  0.3297
10086SOL     OW36093   6.901   7.162   2.450  0.4162 -0.3889 -0.2464
10086SOL    HW136094   6.837   7.232   2.460  0.6206 -0.3141  0.5284
10086SOL    HW236095   6.853   7.082   2.472  0.2567 -0.4785 -0.8762
10087SOL     OW36096   7.584  10.052  10.315 -0.1841 -0.2818 -0.7182
10087SOL    HW136097   7.636  10.126  10.348  1.9521 -2.1629  0.3792
10087SOL    HW236098   7.624  10.030  10.231  0.3017 -1.2035 -0.2618
10088SOL     OW36099   6.354   1.897   5.768  0.0545  0.6690 -0.1889
10088SOL    HW136100   6.297   1.825   5.742 -0.7540  1.2847 -0.1358
10088SOL    HW236101   6.303   1.948   5.831  0.8341  0.9671  0.2254
10089SOL     OW36102   4.899   9.729   7.366 -0.4300 -0.1519  0.0626
10089SOL    HW136103   4.981   9.707   7.410 -0.0938  1.2691  0.2008
10089SOL    HW236104   4.864   9.803   7.417 -0.0437  1.5453 -1.9909
10090SOL     OW36105  10.767   5.633   1.508  0.6236  0.3889  0.0835
10090SOL    HW136106  10.711   5.601   1.437  0.3823  2.7520 -0.9129
10090SOL    HW236107  10.854   5.599   1.487  0.4401  0.5749 -1.0580
10091SOL     OW36108   1.576   6.288   1.996 -0.3756 -0.6285 -0.6981
10091SOL    HW136109   1.628   6.207   1.996  0.0322 -0.3740 -1.2728
10091SOL    HW236110   1.531   6.287   2.080  2.2454  0.2292  0.8400
10092SOL     OW36111   0.317   4.823   7.306 -0.1040 -0.0647  0.4277
10092SOL    HW136112   0.271   4.870   7.236 -0.7295 -0.6525  0.4308
10092SOL    HW236113   0.325   4.733   7.273  1.5893  0.1465  0.1795
10093SOL     OW36114  10.897  10.470   7.825 -0.0971  0.2333 -0.2205
10093SOL    HW136115  10.861  10.470   7.914  0.5124 -0.2949  0.0438
10093SOL    HW236116  10.883  10.559   7.793  0.3403  0.6541  0.6968
10094SOL     OW36117   1.321   2.101   3.060  0.4610 -0.0036 -0.2984
10094SOL    HW136118   1.364   2.097   2.974  0.1895  1.6698 -0.5531
10094SOL    HW236119   1.366   2.034   3.112  1.8118  0.1157 -1.2426
10095SOL     OW36120  10.157   0.389   1.012 -0.3554 -0.5697  0.1050
10095SOL    HW136121  10.124   0.342   0.936 -1.2680 -1.3238  0.9408
10095SOL    HW236122  10.127   0.479   0.999 -0.6920 -0.7415 -0.3290
10096SOL     OW36123   1.293   4.248  10.410 -0.3424  0.4455 -0.1060
10096SOL    HW136124   1.337   4.334  10.415 -1.3184  1.0117 -0.8940
10096SOL    HW236125   1.220   4.263  10.350 -0.2638 -1.0612 -0.6034
10097SOL     OW36126   3.421   7.861   4.435  0.0929 -0.1401  0.1423
10097SOL    HW136127   3.373   7.942   4.454  0.9437  0.7082 -1.1352
10097SOL    HW236128   3.406   7.806   4.511 -1.0853  0.9487  0.7424
10098SOL     OW36129   3.766   6.911   2.036  0.1980 -0.3689  0.4200
10098SOL    HW136130   3.857   6.914   2.007  0.0425 -3.2560 -0.7399
10098SOL    HW236131   3.715   6.902   1.956 -1.1261  0.8551  1.0744
10099SOL     OW36132   2.814   6.608   9.183  0.1396  0.2938 -0.3510
10099SOL    HW136133   2.801   6.540   9.117 -2.5110 -0.2494  0.5871
10099SOL    HW236134   2.818   6.690   9.134 -0.0814 -0.2464 -1.2896
10100SOL     OW36135   4.759   4.591   3.107 -0.3530  0.0452 -0.7518
10100SOL    HW136136   4.794   4.531   3.042 -0.7232 -0.3548 -0.5858
10100SOL    HW236137   4.727   4.535   3.178 -0.2277  0.4618 -0.3607
10101SOL     OW36138  10.738   3.914   0.925  0.0437 -0.0821  0.6765
10101SOL    HW136139  10.679   3.839   0.928  1.1520 -0.9634  1.4302
10101SOL    HW236140  10.694   3.982   0.976 -1.2467  0.0185 -0.5163
10102SOL     OW36141   1.422   2.812   1.400 -0.3079  0.0669 -0.1789
10102SOL    HW136142   1.478   2.741   1.369  1.2361  1.8000 -1.5603
10102SOL    HW236143   1.402   2.863   1.322 -0.8365  1.5225  0.8620
10103SOL     OW36144   0.834   8.541   7.304 -0.4291  0.5993 -0.3603
10103SOL    HW136145   0.753   8.589   7.323 -0.8482  0.1221 -0.9041
10103SOL    HW236146   0.903   8.605   7.319 -0.7906  0.6270  1.4667
10104SOL     OW36147   9.400   2.965   6.064 -0.0421  0.1283 -0.7535
10104SOL    HW136148   9.307   2.976   6.047 -0.7004 -0.6041  1.8732
10104SOL    HW236149   9.416   2.871   6.049 -0.4147 -0.3196  1.2568
10105SOL     OW36150   4.996   7.298  10.761  0.3920 -0.7134 -0.2484
10105SOL    HW136151   5.078   7.250  10.748 -0.3237 -2.4932  1.2692
10105SOL    HW236152   4.983   7.297  10.856 -0.8641  0.4842 -0.3759
10106SOL     OW36153   7.986   4.082   7.130 -0.0363 -0.5360 -0.3444
10106SOL    HW136154   8.040   4.008   7.160 -0.2717 -0.6718 -0.2469
10106SOL    HW236155   7.977   4.068   7.036 -0.8026 -1.1189 -0.1962
10107SOL     OW36156   3.880  10.191   5.971  0.3556 -0.2120 -0.1629
10107SOL    HW136157   3.835  10.107   5.961  2.2733 -1.3235  0.0266
10107SOL    HW236158   3.907  10.193   6.063  1.0162  0.2624 -0.3642
10108SOL     OW36159   9.402  10.469   9.610 -0.5300  0.2932  0.7185
10108SOL    HW136160   9.444  10.431   9.533 -1.5384  0.4283  0.0957
10108SOL    HW236161   9.471  10.467   9.677  0.4014  0.3056 -0.2070
10109SOL     OW36162   5.142   7.017   2.346 -0.1700 -0.2222 -0.0055
10109SOL    HW136163   5.218   6.966   2.318  0.8254  1.6346 -0.8335
10109SOL    HW236164   5.148   7.098   2.296 -1.8683  0.5965  1.0466
10110SOL     OW36165   1.946   0.661   3.481  0.1751  0.1056 -0.3512
10110SOL    HW136166   2.014   0.683   3.545  0.7282  1.1544 -1.2488
10110SOL    HW236167   1.865   0.692   3.520  0.7285  2.4346 -0.8715
10111SOL     OW36168   0.323  10.487   4.229 -0.6133 -0.2279 -0.4652
10111SOL    HW136169   0.379  10.508   4.304 -0.3493 -1.7993 -0.1948
10111SOL    HW236170   0.261  10.560   4.225 -0.5872 -0.0714  1.2462
10112SOL     OW36171   4.146   8.404   3.042 -0.6097  0.2694  0.2272
10112SOL    HW136172   4.089   8.347   3.092  1.3253 -0.2609  1.9198
10112SOL    HW236173   4.175   8.351   2.968 -0.9941  0.0070  0.2632
10113SOL     OW36174   4.864   0.827   1.803  0.1234 -0.1546  0.5050
10113SOL    HW136175   4.948   0.853   1.767 -0.1995 -0.1913 -0.2862
10113SOL    HW236176   4.866   0.859   1.894  0.9537 -0.0984  0.4775
10114SOL     OW36177   7.294   1.727   4.518 -0.3396 -0.1899  0.8767
10114SOL    HW136178   7.377   1.761   4.486 -0.1930 -0.2674  1.1680
10114SOL    HW236179   7.312   1.635   4.540 -0.7505 -0.4863  0.0232
10115SOL     OW36180   3.099   6.056   7.932 -0.9102 -0.5415 -0.3048
10115SOL    HW136181   3.055   6.046   8.017  0.0566  0.3373  0.3236
10115SOL    HW236182   3.163   6.126   7.947 -0.8116 -0.2980 -1.8012
10116SOL     OW36183  10.857  10.832   4.384  0.4204  0.2449 -0.3404
10116SOL    HW136184  10.826  10.890   4.453  1.5786  0.7460 -0.2202
10116SOL    HW236185  10.926  10.881   4.340  2.1237 -1.3698  0.3693
10117SOL     OW36186   1.443   5.697   5.173 -0.1755  0.2115  0.0206
10117SOL    HW136187   1.445   5.773   5.231 -3.0720  0.2180  0.2485
10117SOL    HW236188   1.395   5.727   5.096  0.4075 -0.8406 -0.7776
10118SOL     OW36189   3.031   1.040   5.644 -0.0584 -0.7748 -0.1902
10118SOL    HW136190   3.089   0.970   5.672 -1.3150 -1.1372  1.6325
10118SOL    HW236191   3.073   1.120   5.677 -0.6307 -1.0484  1.2644
10119SOL     OW36192   4.085   9.092   7.041 -0.0293  0.2143 -0.1612
10119SOL    HW136193   4.053   9.083   7.130  1.3690 -0.2055  0.3208
10119SOL    HW236194   4.131   9.176   7.040  1.5935 -0.6413  0.0638
10120SOL     OW36195   4.378   8.911   7.996 -0.4556 -0.2185 -0.2426
10120SOL    HW136196   4.299   8.957   7.969 -0.2693 -0.4842 -1.2804
10120SOL    HW236197   4.449   8.972   7.976 -0.3540 -0.2212  0.1129
10121SOL     OW36198   1.647   9.447   0.928  0.7191  0.0654 -0.6657
10121SOL    HW136199   1.633   9.355   0.952  1.5299  0.2093  0.4210
10121SOL    HW236200   1.567   9.471   0.882  0.1177 -0.9436 -0.2021
10122SOL     OW36201   7.894   0.043   7.038  0.3495 -0.5527  0.3319
10122SOL    HW136202   7.978   0.020   7.078  1.1878  0.0296 -1.0338
10122SOL    HW236203   7.911   0.125   6.992 -1.4690  0.6076  1.5759
10123SOL     OW36204   5.696   4.553   7.650 -0.2516  0.2266  0.1058
10123SOL    HW136205   5.638   4.567   7.724  0.0788  3.2705 -0.0604
10123SOL    HW236206   5.783   4.573   7.684  0.0838  0.2398 -0.7386
10124SOL     OW36207   2.889   9.127   5.391  0.0097 -0.1170 -0.0738
10124SOL    HW136208   2.954   9.197   5.394 -1.0904  0.9157  0.5759
10124SOL    HW236209   2.850   9.126   5.478 -0.5463 -1.0200 -0.3140
10125SOL     OW36210   4.796   5.935   1.069 -0.0510 -0.1038  0.5582
10125SOL    HW136211   4.854   6.011   1.070 -0.5157  0.3244 -1.2810
10125SOL    HW236212   4.850   5.864   1.103  1.4997  0.3648 -0.7782
10126SOL     OW36213   4.457   5.148   5.095 -0.5222  0.2979 -0.4342
10126SOL    HW136214   4.481   5.201   5.170  0.0280 -0.2625 -0.2047
10126SOL    HW236215   4.376   5.105   5.121  1.5054 -2.8020  1.3922
10127SOL     OW36216   1.914   9.373  10.784 -0.3803  0.4949  0.5610
10127SOL    HW136217   1.888   9.461  10.812  0.8383  0.9692  0.2618
10127SOL    HW236218   1.975   9.387  10.712 -0.0023 -0.5949  0.6449
10128SOL     OW36219   3.114   8.046   3.242  0.8086  0.3678  0.0446
10128SOL    HW136220   3.169   8.030   3.319  1.9928 -1.4804 -1.1168
10128SOL    HW236221   3.171   8.097   3.183  0.9673 -0.6681 -0.7372
10129SOL     OW36222   0.462   6.866   7.182 -0.3636 -0.2386 -0.1888
10129SOL    HW136223   0.495   6.932   7.121 -1.3022  1.0512  0.6419
10129SOL    HW236224   0.442   6.915   7.262  1.4739 -1.9831  1.4496
10130SOL     OW36225   3.543   7.754   4.788  0.5133  0.0860 -0.0804
10130SOL    HW136226   3.599   7.829   4.809  0.2082  0.3678 -0.2709
10130SOL    HW236227   3.599   7.678   4.804  1.3316  0.3827 -1.3100
10131SOL     OW36228   1.926   1.334   3.111  0.1312 -0.1695  0.1881
10131SOL    HW136229   2.017   1.306   3.121  0.7509  1.9317  0.9722
10131SOL    HW236230   1.900   1.361   3.199 -0.8813  0.3009 -0.2444
10132SOL     OW36231   0.492   7.312  10.512  0.1443 -0.5440 -0.6400
10132SOL    HW136232   0.491   7.251  10.438  0.4693 -0.5720 -0.6209
10132SOL    HW236233   0.474   7.397  10.474  0.4834 -0.5318 -0.7763
10133SOL     OW36234   2.551   2.292   6.516 -0.2380  0.1818 -0.5548
10133SOL    HW136235   2.482   2.341   6.561  0.9270  1.7106 -0.3282
10133SOL    HW236236   2.572   2.346   6.440 -0.8642 -1.4251 -1.8982
10134SOL     OW36237   5.863   8.460   8.127  0.4692 -0.0310  0.0812
10134SOL    HW136238   5.808   8.522   8.079 -0.8239  0.3829  1.9697
10134SOL    HW236239   5.928   8.514   8.172 -0.6937  0.0595  1.7750
10135SOL     OW36240  10.905  10.869   0.783  0.0618 -0.2584  0.8058
10135SOL    HW136241  10.842  10.808   0.744 -1.1911  0.1409  2.1348
10135SOL    HW236242  10.973  10.878   0.717 -2.0771  0.5854 -1.4097
10136SOL     OW36243   1.090  10.918   8.234 -0.0023  0.1933 -0.0961
10136SOL    HW136244   1.021  10.958   8.287 -0.2405  1.1217 -1.0728
10136SOL    HW236245   1.043  10.869   8.166  0.2436  1.7709 -1.4696
10137SOL     OW36246   6.040   3.698   5.676  0.3340  0.0630  0.1873
10137SOL    HW136247   6.094   3.646   5.736  2.5362  2.0646  0.1380
10137SOL    HW236248   6.018   3.776   5.726 -1.4131 -0.0914 -0.2883
10138SOL     OW36249   3.500   0.819   1.119  0.3648 -0.0101  0.8030
10138SOL    HW136250   3.517   0.840   1.027  0.1339 -0.2412  0.7026
10138SOL    HW236251   3.583   0.833   1.164  0.4517  0.1986  0.5739
10139SOL     OW36252   4.471   2.596   8.134 -0.1823 -0.5289 -0.2272
10139SOL    HW136253   4.470   2.552   8.219  0.7149 -0.4909 -0.1938
10139SOL    HW236254   4.562   2.620   8.120 -0.6682  1.5697 -0.1179
10140SOL     OW36255   1.843   4.211   8.151 -0.4007 -0.0297  0.1443
10140SOL    HW136256   1.807   4.123   8.164  2.0956 -1.2263 -0.5428
10140SOL    HW236257   1.816   4.235   8.063  0.4021 -0.8991 -0.3525
10141SOL     OW36258   0.358   6.787  10.593 -0.4072  0.3632  0.6289
10141SOL    HW136259   0.326   6.817  10.509  0.6829 -0.0300  0.0577
10141SOL    HW236260   0.383   6.866  10.640  1.6805  0.4468 -0.5445
10142SOL     OW36261   0.829  10.606   0.613  0.0126 -0.1299 -0.0651
10142SOL    HW136262   0.820  10.545   0.540 -0.8480  1.6599 -1.5231
10142SOL    HW236263   0.739  10.629   0.637  0.3158  0.5772  0.4254
10143SOL     OW36264   2.735   0.688   5.436  0.0987  0.8990  0.1564
10143SOL    HW136265   2.681   0.753   5.391  0.2721  2.3771  1.9617
10143SOL    HW236266   2.683   0.607   5.434 -0.2027  1.0882 -1.9592
10144SOL     OW36267   8.623   8.088   0.718  0.3602 -0.0922 -1.4612
10144SOL    HW136268   8.624   8.002   0.760 -1.9729  0.7804  0.6061
10144SOL    HW236269   8.703   8.131   0.749 -0.0103 -0.4320  0.0294
10145SOL     OW36270   7.010   1.948   2.364  0.2870  0.1673  0.2376
10145SOL    HW136271   6.966   1.863   2.364  1.5164 -0.5189  1.6428
10145SOL    HW236272   7.087   1.935   2.307  1.0174  0.0027  1.2319
10146SOL     OW36273   4.706   6.249   1.053  0.5899 -0.2926 -0.5646
10146SOL    HW136274   4.761   6.214   1.123 -1.0096 -0.7419  0.5173
10146SOL    HW236275   4.768   6.285   0.990  2.1345 -1.2215  0.3569
10147SOL     OW36276   8.240   7.525   0.488 -0.1962  0.3172  0.0648
10147SOL    HW136277   8.279   7.584   0.423  1.2114 -0.7559 -0.1116
10147SOL    HW236278   8.202   7.454   0.436 -0.3890  0.2053  0.3545
10148SOL     OW36279   4.283   4.774   1.559  0.1984  0.4393  0.1495
10148SOL    HW136280   4.330   4.842   1.607  0.3992  0.4777 -0.1002
10148SOL    HW236281   4.306   4.693   1.604  0.5845  0.4459 -0.0311
10149SOL     OW36282   8.897   1.329   5.062 -0.7391  0.4494 -0.2872
10149SOL    HW136283   8.933   1.370   4.983  1.0315  1.2796  0.8784
10149SOL    HW236284   8.974   1.294   5.107 -1.7191 -0.0619  1.0382
10150SOL     OW36285   1.875   9.644  10.877  0.1633  0.0558 -0.0912
10150SOL    HW136286   1.933   9.719  10.883  0.3576 -0.0491 -0.6039
10150SOL    HW236287   1.855   9.621  10.968  0.8895  0.1167  0.0850
10151SOL     OW36288   5.722   3.006   5.282  0.4459 -0.1495  0.4547
10151SOL    HW136289   5.766   3.044   5.358 -0.2627  0.0379  0.7802
10151SOL    HW236290   5.753   2.915   5.280 -0.8555 -0.6755  2.0245
10152SOL     OW36291   4.798   3.655  10.739 -0.3529  0.4948 -0.1709
10152SOL    HW136292   4.712   3.696  10.748 -0.9563 -0.6733 -0.4820
10152SOL    HW236293   4.826   3.636  10.828  0.1055  1.8776  0.0080
10153SOL     OW36294   8.585   8.565   7.380  0.5775  0.3510  0.1800
10153SOL    HW136295   8.517   8.523   7.433  0.1520 -1.0944 -1.4306
10153SOL    HW236296   8.639   8.611   7.444 -0.4921 -0.4758  1.7605
10154SOL     OW36297   5.622   1.887  10.668  0.6935  0.1694 -0.2061
10154SOL    HW136298   5.683   1.941  10.619  0.4574  1.6955  1.1049
10154SOL    HW236299   5.644   1.902  10.760 -0.6757 -0.4098  0.2564
10155SOL     OW36300   1.365   7.137   1.537 -0.5020 -0.4248 -0.1285
10155SOL    HW136301   1.349   7.231   1.547 -0.7002 -0.5161  0.3927
10155SOL    HW236302   1.368   7.103   1.626 -0.4006 -0.9127 -0.3153
10156SOL     OW36303   0.933   7.426   1.034 -0.1464 -0.1470 -0.2192
10156SOL    HW136304   1.005   7.448   1.093  0.0104 -1.4403  0.0917
10156SOL    HW236305   0.976   7.411   0.950 -0.2036  0.2216 -0.3196
10157SOL     OW36306   1.319   5.879   1.453 -0.1858 -0.6069  0.4417
10157SOL    HW136307   1.323   5.875   1.549 -1.0039 -1.4777  0.4532
10157SOL    HW236308   1.226   5.868   1.432 -0.2451  1.0769 -0.4102
10158SOL     OW36309   4.072   4.094   8.626  0.1995  0.3031  0.3577
10158SOL    HW136310   4.065   4.122   8.535  1.2030  0.3053  0.2709
10158SOL    HW236311   4.076   3.999   8.622 -0.6146  0.2533  0.4724
10159SOL     OW36312   2.794   7.662   6.811 -0.5051  0.3746 -0.0072
10159SOL    HW136313   2.705   7.697   6.821 -0.7934 -0.2740 -0.1960
10159SOL    HW236314   2.793   7.582   6.864  0.3169  0.9382  0.8941
10160SOL     OW36315  10.778   8.725   5.290 -0.1912 -0.1050 -0.1221
10160SOL    HW136316  10.741   8.809   5.318 -0.6906  0.0104 -1.1008
10160SOL    HW236317  10.872   8.735   5.305 -0.0579  1.1761 -1.5228
10161SOL     OW36318   1.829   7.462   3.515 -0.0318 -0.1616 -0.5850
10161SOL    HW136319   1.816   7.543   3.465 -1.0480  0.4161  0.5641
10161SOL    HW236320   1.796   7.393   3.457 -0.3381  0.3934 -1.0827
10162SOL     OW36321   8.024   6.851   1.238  0.0932 -0.0025 -0.5558
10162SOL    HW136322   7.993   6.934   1.204 -1.2377 -1.0504 -2.0233
10162SOL    HW236323   8.099   6.828   1.183  0.7611  0.4195  0.1531
10163SOL     OW36324   9.424   1.258   6.944  0.1698 -0.3629 -0.2930
10163SOL    HW136325   9.409   1.201   7.019  3.0160  0.7850  1.3399
10163SOL    HW236326   9.514   1.240   6.917  1.1675  3.0590  0.1970
10164SOL     OW36327   2.564   1.268   6.428 -0.0140  0.1893 -0.3191
10164SOL    HW136328   2.646   1.296   6.468 -1.1495  0.4072  2.0108
10164SOL    HW236329   2.584   1.184   6.388  0.8719 -0.8788  2.1726
10165SOL     OW36330   1.140   8.151   7.153  0.1174 -0.9558  0.0916
10165SOL    HW136331   1.224   8.110   7.171  1.4317  0.7962 -1.7385
10165SOL    HW236332   1.147   8.240   7.188  0.0608  0.0765 -2.3492
10166SOL     OW36333   5.601   5.802   5.898  0.6389  0.0346  0.1452
10166SOL    HW136334   5.512   5.835   5.894  0.7292  0.2409 -0.1706
10166SOL    HW236335   5.614   5.778   5.989 -0.0318 -0.7934  0.0358
10167SOL     OW36336   5.808   0.299   4.967  0.0793  0.0405 -0.5888
10167SOL    HW136337   5.835   0.292   4.876 -0.6257 -1.1924 -0.7303
10167SOL    HW236338   5.889   0.313   5.016  0.3701  1.5776 -1.4629
10168SOL     OW36339   5.022   8.641   8.806 -0.4888 -0.3374 -0.1940
10168SOL    HW136340   5.070   8.685   8.735 -0.1730 -0.6381 -0.1721
10168SOL    HW236341   4.931   8.639   8.776 -0.4801  0.2027 -0.2567
10169SOL     OW36342  10.596   8.478   7.998 -0.2309  0.2037  0.1651
10169SOL    HW136343  10.527   8.541   7.977 -0.0428  0.0207 -1.0708
10169SOL    HW236344  10.676   8.518   7.964  0.4438  0.7438  2.2014
10170SOL     OW36345   1.071   9.532   1.602 -0.5556  0.4359 -0.5594
10170SOL    HW136346   1.077   9.493   1.515 -1.9160  0.3495 -0.6357
10170SOL    HW236347   1.019   9.611   1.590  2.4408  2.6242 -0.4798
10171SOL     OW36348   3.090   8.754  10.000  0.2134 -0.0397  0.0700
10171SOL    HW136349   3.115   8.716   9.915  1.8246  2.7291 -0.8170
10171SOL    HW236350   3.143   8.706  10.064  0.4193 -0.8736 -0.7020
10172SOL     OW36351  10.522   2.991   2.152  0.1267  0.0018 -0.1331
10172SOL    HW136352  10.588   2.956   2.093  0.7173  1.8930 -0.6707
10172SOL    HW236353  10.494   2.916   2.205  1.2672 -1.2357 -1.2238
10173SOL     OW36354   9.587   7.470   3.447  0.5691  0.1592 -0.2927
10173SOL    HW136355   9.504   7.508   3.477  0.9854  0.2825  0.7555
10173SOL    HW236356   9.633   7.447   3.528  1.6889  0.3766 -0.8552
10174SOL     OW36357  10.445   9.939   8.203  0.6945 -0.0678  0.3220
10174SOL    HW136358  10.467   9.948   8.295  0.2420 -1.3093  0.5855
10174SOL    HW236359  10.509   9.992   8.157 -1.1942  3.5269  1.5069
10175SOL     OW36360   9.553   0.513   5.440  0.2006  0.2093 -0.3216
10175SOL    HW136361   9.593   0.499   5.354  0.9748  0.8600 -0.0763
10175SOL    HW236362   9.465   0.477   5.431  0.1645  0.5401 -1.4831
10176SOL     OW36363   2.192  10.729  10.686  0.3302  0.5405 -0.6263
10176SOL    HW136364   2.116  10.777  10.719 -1.8261 -2.8815 -0.0510
10176SOL    HW236365   2.162  10.691  10.604  0.5609 -2.5234  0.5772
10177SOL     OW36366   6.901   5.348   4.524  0.0123  0.3577  0.4027
10177SOL    HW136367   6.865   5.432   4.553  0.3361  1.0685 -1.1564
10177SOL    HW236368   6.829   5.286   4.538 -1.0923  1.3442 -0.6207
10178SOL     OW36369   9.672   6.098   9.335  0.7920  0.4561  0.2602
10178SOL    HW136370   9.700   6.187   9.359 -0.9433  1.3339 -0.7859
10178SOL    HW236371   9.579   6.106   9.317  0.9349 -1.2159 -1.5856
10179SOL     OW36372   6.207   7.142   7.823 -0.4562 -0.2716 -0.5050
10179SOL    HW136373   6.236   7.225   7.784  0.3470 -0.3243 -0.0580
10179SOL    HW236374   6.122   7.125   7.784 -1.2765  1.4703  0.3816
10180SOL     OW36375   3.770   0.093   2.132 -0.3730  0.4467 -0.2984
10180SOL    HW136376   3.731   0.178   2.116 -0.4312  0.1389 -1.8994
10180SOL    HW236377   3.862   0.112   2.153 -0.5569  0.9331  0.0986
10181SOL     OW36378   7.539   3.616   0.413 -0.2050 -0.5310  0.3349
10181SOL    HW136379   7.471   3.640   0.475 -0.7760 -0.5924 -0.2534
10181SOL    HW236380   7.602   3.687   0.417  0.3182 -1.0494  1.7680
10182SOL     OW36381   8.339   6.184   7.946  0.2258 -0.3101  0.4319
10182SOL    HW136382   8.433   6.185   7.929  0.0469 -0.9132 -0.6735
10182SOL    HW236383   8.299   6.209   7.863 -0.6297 -1.4357  0.4762
10183SOL     OW36384   9.087   7.202   5.458 -0.1230  0.8101 -0.1201
10183SOL    HW136385   9.130   7.158   5.385  0.1858 -0.7490  0.9495
10183SOL    HW236386   9.016   7.143   5.484  0.3468  0.8698  1.4140
10184SOL     OW36387   2.352   4.128   7.943 -0.1427  0.1160 -0.0973
10184SOL    HW136388   2.354   4.038   7.912 -0.3482  0.1076 -0.0852
10184SOL    HW236389   2.270   4.163   7.910 -0.1485  0.2449  0.0531
10185SOL     OW36390   1.117  10.131   2.954 -0.1383 -0.3171 -0.3433
10185SOL    HW136391   1.067  10.060   2.914 -0.6961 -0.3593  0.4181
10185SOL    HW236392   1.190  10.087   2.998  0.5166 -0.2654 -1.3428
10186SOL     OW36393  10.350   6.213   3.395 -0.4820 -0.4022  0.3069
10186SOL    HW136394  10.363   6.238   3.486 -1.7228 -0.2853  0.4663
10186SOL    HW236395  10.425   6.250   3.349 -0.4001  0.4667  1.1179
10187SOL     OW36396   5.513   4.191   9.284  0.0246 -0.4354 -0.2179
10187SOL    HW136397   5.554   4.245   9.351  1.6231 -1.6846 -0.1249
10187SOL    HW236398   5.431   4.161   9.323 -0.0373  0.4714  0.3763
10188SOL     OW36399   0.755   5.236   2.986 -0.5960  0.1437 -0.0102
10188SOL    HW136400   0.779   5.146   3.010 -0.6813  0.3321  0.8378
10188SOL    HW236401   0.780   5.245   2.894 -0.7419 -0.8025 -0.1500
10189SOL     OW36402   0.096   5.268   1.946 -0.7319  0.5291  0.4222
10189SOL    HW136403   0.168   5.326   1.920 -1.9005  1.7304 -0.3016
10189SOL    HW236404   0.068   5.227   1.864 -1.9416  1.3797  0.3756
10190SOL     OW36405   2.220  10.656   1.173 -0.0841  0.4002  0.1430
10190SOL    HW136406   2.205  10.727   1.110  0.0482 -0.1580 -0.5260
10190SOL    HW236407   2.245  10.701   1.254 -0.9876  1.1601  0.0186
10191SOL     OW36408   7.332   5.389   1.152  0.3168 -0.3525 -1.0155
10191SOL    HW136409   7.275   5.313   1.166 -1.8922  1.2136 -1.0101
10191SOL    HW236410   7.394   5.387   1.224 -0.5246 -1.4485 -0.2986
10192SOL     OW36411   0.476   9.354   1.977  0.3190 -0.7108  0.2352
10192SOL    HW136412   0.444   9.318   1.895 -0.3857 -0.3424  0.3414
10192SOL    HW236413   0.571   9.358   1.966  0.2466 -0.8451 -0.4861
10193SOL     OW36414   0.389   0.202   5.862 -0.2691 -0.1471 -0.0375
10193SOL    HW136415   0.346   0.265   5.804  0.2451  0.0674 -0.1969
10193SOL    HW236416   0.463   0.170   5.810 -1.5007 -2.1949 -0.6189
10194SOL     OW36417  10.382   7.653   4.645  0.3909 -0.7507  0.1695
10194SOL    HW136418  10.361   7.620   4.557  0.8020  1.4625 -0.8253
10194SOL    HW236419  10.477   7.646   4.651  0.3359 -1.1970  0.5892
10195SOL     OW36420  10.256   6.909   4.103 -0.0895  0.3587 -0.2020
10195SOL    HW136421  10.253   6.866   4.188 -1.1595  0.2812 -0.2644
10195SOL    HW236422  10.329   6.867   4.057 -0.1892 -0.3466  0.2720
10196SOL     OW36423   3.519   7.905   7.003  0.4441  0.3262 -0.2063
10196SOL    HW136424   3.579   7.862   6.942  0.9799  0.0382  0.5144
10196SOL    HW236425   3.435   7.907   6.956  0.5355 -1.0087 -0.4799
10197SOL     OW36426  10.198   5.876  10.081 -0.7544 -0.1953 -0.2777
10197SOL    HW136427  10.172   5.785  10.068  0.7910 -0.6093 -0.7693
10197SOL    HW236428  10.293   5.872  10.094 -0.7230  1.3059  0.1882
10198SOL     OW36429   5.393   8.435   4.632 -0.1450  0.3414 -0.2706
10198SOL    HW136430   5.380   8.526   4.657 -1.4954  0.1286 -0.1262
10198SOL    HW236431   5.413   8.389   4.714 -1.5954  0.1566 -0.0009
10199SOL     OW36432   9.289   4.544   6.193 -0.1405  0.1464  0.5054
10199SOL    HW136433   9.255   4.633   6.185  1.2263  0.8038  1.5052
10199SOL    HW236434   9.378   4.550   6.158  0.3437 -0.5458  1.5526
10200SOL     OW36435   3.413   5.551   8.012 -0.2965  0.2885  0.3331
10200SOL    HW136436   3.343   5.607   8.045 -2.0241 -0.3731 -1.9416
10200SOL    HW236437   3.475   5.546   8.084 -1.9790  1.9065  2.0253
10201SOL     OW36438   8.552   1.987   8.612  0.1641 -0.1167  0.0543
10201SOL    HW136439   8.620   1.964   8.676  0.8403 -0.5778 -0.8095
10201SOL    HW236440   8.587   2.062   8.565 -0.2485  0.1051  0.1017
10202SOL     OW36441   2.437   1.286   0.684 -0.3036  0.3487 -0.0461
10202SOL    HW136442   2.441   1.377   0.655  0.5693  0.5140  0.5359
10202SOL    HW236443   2.529   1.261   0.696 -0.4778 -0.9478 -1.1886
10203SOL     OW36444   0.531   8.883   6.242  0.3663  0.2090  0.3115
10203SOL    HW136445   0.450   8.854   6.200  0.8338 -1.7267  0.6398
10203SOL    HW236446   0.601   8.854   6.183  0.9099 -0.3455  1.1931
10204SOL     OW36447   5.189   1.093  10.706 -0.1165  0.0341 -0.1582
10204SOL    HW136448   5.184   1.001  10.731  0.6966 -0.2784 -1.0426
10204SOL    HW236449   5.111   1.133  10.744 -0.4705 -1.0121  0.2594
10205SOL     OW36450   1.779   0.486   6.732  0.0372  0.1225 -0.5418
10205SOL    HW136451   1.790   0.465   6.825 -3.5693 -0.7225 -0.1631
10205SOL    HW236452   1.835   0.423   6.687 -1.8950 -2.9639  1.0076
10206SOL     OW36453   4.280   0.831   5.698 -0.2052  0.0701 -0.2051
10206SOL    HW136454   4.337   0.874   5.634 -0.4752  1.5049  0.4893
10206SOL    HW236455   4.276   0.740   5.668 -1.8808  1.0545 -3.3932
10207SOL     OW36456   2.421   6.982  10.005 -0.0076 -0.3744 -0.2903
10207SOL    HW136457   2.336   6.989  10.047 -0.0981  2.0477 -0.7267
10207SOL    HW236458   2.406   6.925   9.929 -0.7019 -1.6858  0.7954
10208SOL     OW36459   2.098   0.961   0.661  0.2343 -0.2927 -0.2115
10208SOL    HW136460   2.170   0.915   0.704 -1.4269 -1.1912  1.7826
10208SOL    HW236461   2.135   1.045   0.636  1.9358 -0.6487  0.9235
10209SOL     OW36462   1.422   7.175   3.155  0.1444 -0.5215  0.0490
10209SOL    HW136463   1.457   7.139   3.236  0.2109  0.9018  0.6887
10209SOL    HW236464   1.498   7.216   3.112 -0.2343  0.4508  0.2624
10210SOL     OW36465  10.840   9.014   6.726 -0.6309  0.4469  0.2426
10210SOL    HW136466  10.903   9.067   6.776 -1.4025  1.6211  0.0184
10210SOL    HW236467  10.779   8.981   6.790 -1.2556  1.4369  0.1862
10211SOL     OW36468   9.830   3.092   6.234 -0.0135  0.0520 -0.3927
10211SOL    HW136469   9.827   2.997   6.226 -0.3520  0.0360 -0.0743
10211SOL    HW236470   9.769   3.112   6.304  0.6234  0.4491  0.0497
10212SOL     OW36471   9.315   8.033   7.222 -0.1946  0.6428  0.1770
10212SOL    HW136472   9.327   8.063   7.132  0.1939 -0.1273 -0.0345
10212SOL    HW236473   9.220   8.035   7.236 -0.3295 -0.1045 -0.5619
10213SOL     OW36474   6.769   0.868   7.119 -0.2129 -0.6601 -0.3322
10213SOL    HW136475   6.814   0.787   7.142 -1.1135 -0.7436  1.3045
10213SOL    HW236476   6.815   0.936   7.169 -0.3442 -0.3811 -0.5867
10214SOL     OW36477  10.543   6.585   7.203  0.5235 -0.0995  0.6722
10214SOL    HW136478  10.551   6.548   7.291 -0.4729 -1.9235  0.0690
10214SOL    HW236479  10.448   6.589   7.188  0.6870 -0.7071 -0.6448
10215SOL     OW36480   8.784   6.305   8.876 -0.1439  0.7306  0.1820
10215SOL    HW136481   8.811   6.317   8.967 -0.8871 -0.8352  0.6395
10215SOL    HW236482   8.861   6.266   8.834 -0.0934  0.6424  0.3534
10216SOL     OW36483   0.788   7.119   4.452 -0.2439 -0.0016 -0.1642
10216SOL    HW136484   0.731   7.060   4.402  1.2653 -0.3205 -1.5914
10216SOL    HW236485   0.863   7.065   4.477 -0.0208  0.6901  0.7455
10217SOL     OW36486   7.760   5.074  10.210 -0.1129  0.1644 -0.2573
10217SOL    HW136487   7.729   5.165  10.201 -0.5888  0.0449  0.1117
10217SOL    HW236488   7.849   5.083  10.243 -0.5635  0.4970  0.9252
10218SOL     OW36489   6.626   6.242   3.127  0.1360  0.6848  0.6382
10218SOL    HW136490   6.550   6.183   3.136 -1.1146  1.9559 -0.9202
10218SOL    HW236491   6.630   6.262   3.034  2.6714  0.3829  0.6077
10219SOL     OW36492   3.981   1.622   7.316 -0.0695  0.2550 -0.3289
10219SOL    HW136493   3.966   1.642   7.408 -0.4701 -0.2195 -0.2839
10219SOL    HW236494   3.995   1.527   7.315 -0.0418  0.2636 -0.7530
10220SOL     OW36495   6.931   4.786   5.809  0.3924  0.1596 -0.5780
10220SOL    HW136496   6.843   4.775   5.845  0.6270  0.3539  0.0850
10220SOL    HW236497   6.918   4.830   5.726 -0.0597  1.3351  0.0904
10221SOL     OW36498   0.833   8.381   1.045  0.2196 -0.1507 -0.3203
10221SOL    HW136499   0.762   8.337   1.091  0.6225 -0.3417  0.1249
10221SOL    HW236500   0.907   8.380   1.107  0.6031  0.0641 -0.7646
10222SOL     OW36501   5.949   5.204   2.630 -0.5394  0.4463  0.4065
10222SOL    HW136502   5.996   5.239   2.555 -0.7149 -1.0325 -0.4250
10222SOL    HW236503   5.858   5.228   2.615 -0.6424 -0.2484 -0.1021
10223SOL     OW36504   9.326   1.949   1.681 -0.1756  0.4101 -0.4990
10223SOL    HW136505   9.287   1.925   1.597 -0.7754  3.3518 -1.1450
10223SOL    HW236506   9.253   1.979   1.734  0.4319  0.1533  0.5281
10224SOL     OW36507   1.065  10.321  10.034 -0.0864  0.3194  0.4561
10224SOL    HW136508   1.035  10.231  10.018  1.9045 -0.2639 -0.2755
10224SOL    HW236509   1.143  10.311  10.089  1.1872  1.4482 -1.0540
10225SOL     OW36510   4.843   6.736   7.967 -0.2994  0.2579  0.0620
10225SOL    HW136511   4.898   6.686   7.907 -0.1443  1.1665 -0.5756
10225SOL    HW236512   4.803   6.670   8.023  1.3613 -0.4458  0.4947
10226SOL     OW36513   7.534   0.728   9.813 -0.0750  0.2935 -0.3103
10226SOL    HW136514   7.581   0.781   9.878 -0.1114 -0.3939  0.2913
10226SOL    HW236515   7.517   0.788   9.741 -1.4083  1.5052  0.9528
10227SOL     OW36516   4.278   7.183   9.998  0.1256 -0.0647  0.1944
10227SOL    HW136517   4.344   7.164   9.932 -2.4767 -2.1350 -2.0686
10227SOL    HW236518   4.306   7.135  10.075  1.3990 -0.6666 -0.6113
10228SOL     OW36519   3.846   9.126   5.325 -0.2230 -0.3994  0.2140
10228SOL    HW136520   3.891   9.061   5.271  0.4552 -0.6255  1.0258
10228SOL    HW236521   3.917   9.180   5.361 -0.7550  0.6326 -0.2263
10229SOL     OW36522  10.817   8.149   7.806 -0.2385 -0.0510  0.0127
10229SOL    HW136523  10.759   8.111   7.872 -1.3347 -0.2845 -1.0638
10229SOL    HW236524  10.878   8.203   7.857 -0.7035 -0.6521  1.2611
10230SOL     OW36525   1.738   0.040   7.491 -0.0411 -0.1576 -0.2839
10230SOL    HW136526   1.701   0.073   7.409  0.5381 -0.3220 -0.6171
10230SOL    HW236527   1.709   0.103   7.557  0.4800  0.6444 -0.8081
10231SOL     OW36528   3.505   3.076   1.643 -0.2964  0.5386 -0.0254
10231SOL    HW136529   3.429   3.129   1.667 -0.5843  0.7152 -1.2450
10231SOL    HW236530   3.580   3.132   1.664 -0.5343  0.7200  0.3512
10232SOL     OW36531   7.387   0.864   5.859  0.0489 -0.6227  0.1358
10232SOL    HW136532   7.329   0.916   5.804 -0.4144 -1.2135  0.0600
10232SOL    HW236533   7.382   0.775   5.822 -0.2361 -1.0182  1.0993
10233SOL     OW36534   1.205   0.006   9.026  0.0975  0.0249 -0.1917
10233SOL    HW136535   1.121  -0.039   9.028 -1.0809  1.9948 -1.6114
10233SOL    HW236536   1.206   0.058   9.107  0.4509 -0.7943  0.3417
10234SOL     OW36537   8.308   5.732   6.406 -0.2413  0.0849  0.0402
10234SOL    HW136538   8.309   5.799   6.474 -0.2716 -0.9628  1.1088
10234SOL    HW236539   8.234   5.676   6.429  1.8366 -2.3601  1.2604
10235SOL     OW36540   9.818   4.714  10.778 -0.0694  0.6650 -0.5281
10235SOL    HW136541   9.908   4.703  10.749  0.0558 -0.4105  0.1771
10235SOL    HW236542   9.810   4.655  10.853 -1.2519  1.0220 -0.3496
10236SOL     OW36543   4.024   9.423  10.524 -0.4340  0.4515  0.1188
10236SOL    HW136544   4.011   9.504  10.476  0.3310  1.2587  1.2435
10236SOL    HW236545   4.060   9.362  10.459  0.2176  1.3974 -0.4216
10237SOL     OW36546   6.246   4.609   8.245 -0.1071  0.8851  0.2558
10237SOL    HW136547   6.189   4.532   8.253  0.1671  0.7438  1.0246
10237SOL    HW236548   6.221   4.650   8.163  0.4087 -0.5707 -0.6764
10238SOL     OW36549   0.337   2.699   8.280  0.0069  0.0821 -0.1881
10238SOL    HW136550   0.321   2.609   8.306 -1.4046  0.2891 -0.2737
10238SOL    HW236551   0.251   2.735   8.262  0.4839  1.6110  0.3648
10239SOL     OW36552   2.662   3.949   1.880 -0.0627 -0.6465 -0.1358
10239SOL    HW136553   2.745   3.949   1.833 -0.1137  0.4532 -0.2686
10239SOL    HW236554   2.667   4.027   1.937 -0.2746 -1.5683  1.1909
10240SOL     OW36555   4.555   1.202   6.701 -0.2516  0.4459  0.3032
10240SOL    HW136556   4.584   1.176   6.789  1.0750  0.8441  0.0098
10240SOL    HW236557   4.539   1.119   6.656 -2.0653  0.2425  1.2456
10241SOL     OW36558   5.377   5.598   3.848 -0.2468 -0.2646  0.3669
10241SOL    HW136559   5.336   5.679   3.818 -1.0029 -0.6036  0.4572
10241SOL    HW236560   5.337   5.530   3.794  1.2295 -0.4732 -0.5273
10242SOL     OW36561   8.483   5.319   1.702  0.0698 -0.2151 -0.2402
10242SOL    HW136562   8.443   5.321   1.615  1.0238 -0.0960 -0.6855
10242SOL    HW236563   8.420   5.270   1.756 -1.2881  1.0835 -0.5918
10243SOL     OW36564   1.729   8.628   9.928 -0.9779  0.0470  0.0193
10243SOL    HW136565   1.679   8.624   9.847  0.4118 -0.3640 -0.8539
10243SOL    HW236566   1.753   8.721   9.936 -0.5879 -0.0111 -0.3957
10244SOL     OW36567   1.066   9.157   1.491 -0.2017  0.1955 -0.4657
10244SOL    HW136568   1.000   9.177   1.424 -0.8408  0.7354  0.3124
10244SOL    HW236569   1.037   9.204   1.569  0.9814  0.2419 -0.0300
10245SOL     OW36570   8.636   5.057   8.183 -0.5369 -0.4104  0.6761
10245SOL    HW136571   8.639   5.066   8.087  2.0582  0.8886  0.8029
10245SOL    HW236572   8.612   4.965   8.197 -0.0026 -0.8960 -1.2377
10246SOL     OW36573  10.419   3.249   2.972  0.0870 -0.0415  0.2371
10246SOL    HW136574  10.406   3.160   2.940 -1.9735  0.5916 -0.9005
10246SOL    HW236575  10.452   3.238   3.062 -0.6292 -1.9566  0.3117
10247SOL     OW36576   9.900   6.917   8.074  0.6517  0.2711  0.5685
10247SOL    HW136577   9.909   6.866   7.994  0.8910  0.3002  0.5759
10247SOL    HW236578   9.976   6.974   8.075  0.9707 -0.1489  1.1139
10248SOL     OW36579   8.432   4.474   0.074 -0.4930  0.2355 -0.2562
10248SOL    HW136580   8.402   4.446   0.160 -1.9215  3.1606  0.3134
10248SOL    HW236581   8.372   4.545   0.049  0.1714 -0.1689 -3.4638
10249SOL     OW36582   7.331   0.584   5.817 -0.4914 -0.6793  0.0217
10249SOL    HW136583   7.312   0.552   5.906 -1.6206  1.3142  0.5647
10249SOL    HW236584   7.259   0.551   5.764 -0.2082 -1.2608 -0.0071
10250SOL     OW36585   3.617   8.927   0.697  0.3167  0.7144  0.0913
10250SOL    HW136586   3.576   8.976   0.769 -0.5689  1.1456 -0.6853
10250SOL    HW236587   3.656   8.850   0.739 -0.7689  0.6120  0.9553
10251SOL     OW36588   2.997   3.813   2.055 -0.1840  0.2498  0.1772
10251SOL    HW136589   3.053   3.844   2.126 -1.2695  0.8414  0.7958
10251SOL    HW236590   2.942   3.746   2.095  0.9747 -1.3321 -0.7511
10252SOL     OW36591  10.070   0.068   3.571 -0.1580  0.0950  0.4943
10252SOL    HW136592  10.102   0.141   3.518  0.5794 -0.9333 -0.5218
10252SOL    HW236593  10.149   0.031   3.610 -0.6441  0.5621  2.0125
10253SOL     OW36594   1.723   8.356   4.125 -0.0550 -0.0239  0.5946
10253SOL    HW136595   1.655   8.408   4.082  0.2867 -0.8606 -1.0313
10253SOL    HW236596   1.804   8.407   4.112 -0.2479  0.7390  2.1179
10254SOL     OW36597   4.086   0.749   1.995 -0.2712  0.0559 -0.5598
10254SOL    HW136598   4.013   0.688   2.003 -0.1469 -0.2533 -1.7316
10254SOL    HW236599   4.132   0.741   2.079  0.9556 -3.0441 -1.3670
10255SOL     OW36600   6.757   4.021   2.690  0.2287  0.1005 -0.3388
10255SOL    HW136601   6.813   3.943   2.687  1.4423  0.9598 -0.9064
10255SOL    HW236602   6.812   4.088   2.730 -0.8804  0.6199  0.3546
10256SOL     OW36603   0.456   9.735   6.767 -0.1303 -0.2926  0.1094
10256SOL    HW136604   0.491   9.725   6.679  0.7141  0.8866  0.2734
10256SOL    HW236605   0.523   9.787   6.813 -1.3522  0.6243  0.9157
10257SOL     OW36606   9.094   1.079   7.804  0.2562 -0.0107 -0.4200
10257SOL    HW136607   9.018   1.037   7.846  1.3041  0.2784  1.9012
10257SOL    HW236608   9.169   1.031   7.838  1.2236  0.8784 -1.2604
10258SOL     OW36609   0.658   5.728  10.895  0.4750  0.2796  0.0795
10258SOL    HW136610   0.654   5.637  10.927 -0.9848  0.3748  0.2349
10258SOL    HW236611   0.591   5.733  10.827 -0.6664  1.6546  1.2333
10259SOL     OW36612   5.360   6.468   0.513  0.1847  0.2089  0.4073
10259SOL    HW136613   5.434   6.494   0.459 -1.2722  0.6813 -1.4452
10259SOL    HW236614   5.384   6.382   0.547  1.9666  0.7654  0.6402
10260SOL     OW36615   9.791   2.817   8.660 -0.2697 -0.7449  0.0786
10260SOL    HW136616   9.752   2.839   8.575 -1.7956 -2.5020  0.2632
10260SOL    HW236617   9.735   2.860   8.724 -1.1027 -2.1081  0.2932
10261SOL     OW36618   8.585  10.831   6.396  0.4073 -0.0688 -0.4564
10261SOL    HW136619   8.664  10.863   6.440 -0.5607  0.3737  1.0524
10261SOL    HW236620   8.573  10.890   6.322  1.6000 -0.2770 -0.8312
10262SOL     OW36621   2.173   1.058   5.416  0.0418  0.4320 -0.8529
10262SOL    HW136622   2.226   1.112   5.475 -0.7702  0.1297  0.1958
10262SOL    HW236623   2.108   1.119   5.380 -1.4514  0.0751  1.0227
10263SOL     OW36624  10.435   1.782   4.442 -0.2355 -0.1704  0.3201
10263SOL    HW136625  10.464   1.792   4.533  0.4506 -1.7805  0.2984
10263SOL    HW236626  10.516   1.784   4.391 -0.6118  0.6262 -0.2605
10264SOL     OW36627   4.088   5.885   3.865 -0.0123  0.3989 -0.4795
10264SOL    HW136628   4.041   5.825   3.807 -0.5470 -0.1744  0.5173
10264SOL    HW236629   4.037   5.965   3.864 -0.0513  0.3714 -0.7465
10265SOL     OW36630   9.176   0.544   3.937 -0.4521  0.4642 -0.1835
10265SOL    HW136631   9.229   0.477   3.895 -0.1584  1.6511 -1.8272
10265SOL    HW236632   9.094   0.544   3.888 -1.0923  0.1975  0.8659
10266SOL     OW36633   5.275   2.496   1.319  0.1317 -0.1037  0.3032
10266SOL    HW136634   5.231   2.421   1.278 -0.5602  0.6782 -0.4055
10266SOL    HW236635   5.203   2.551   1.352  0.6446  0.0276  1.2391
10267SOL     OW36636   4.367   1.063   3.020 -0.5544  0.2942 -0.4587
10267SOL    HW136637   4.286   1.102   3.051 -0.8064 -0.1474 -0.5542
10267SOL    HW236638   4.391   1.000   3.089  0.9905  2.0910  0.7751
10268SOL     OW36639   3.433   0.192   2.919 -0.1500 -0.1911 -0.3246
10268SOL    HW136640   3.446   0.172   3.012  1.4890 -2.7119 -0.9852
10268SOL    HW236641   3.347   0.234   2.915  0.5424  1.7703  2.5032
10269SOL     OW36642   7.926   7.487   7.543 -0.6988  0.0388 -0.5565
10269SOL    HW136643   7.891   7.441   7.466  1.1310 -3.5729  0.5630
10269SOL    HW236644   7.868   7.459   7.615  0.1548 -0.1496  0.0670
10270SOL     OW36645   3.735   9.118  10.186 -0.0450 -0.2460  0.2180
10270SOL    HW136646   3.738   9.207  10.153  2.8107 -0.9539 -1.8406
10270SOL    HW236647   3.690   9.068  10.117  1.9718 -0.9915 -0.6291
10271SOL     OW36648   3.065   4.908   6.733  0.2942  0.6396  0.6308
10271SOL    HW136649   3.006   4.885   6.805 -1.0539  0.0208 -0.6190
10271SOL    HW236650   3.132   4.963   6.773 -1.8842  2.5554  1.8951
10272SOL     OW36651  10.133   1.198   1.271 -0.1959 -0.9588 -0.5339
10272SOL    HW136652  10.139   1.169   1.362 -1.5515 -2.2207 -0.8141
10272SOL    HW236653  10.224   1.201   1.240  0.2422 -0.9430  0.7131
10273SOL     OW36654   3.272   6.563   3.144 -0.2898 -0.1224  0.3582
10273SOL    HW136655   3.187   6.519   3.152 -0.2930 -0.7868 -2.4718
10273SOL    HW236656   3.335   6.502   3.182 -0.8349 -0.5553  0.5655
10274SOL     OW36657   3.012   3.238   3.474 -0.1246  0.5143 -0.1642
10274SOL    HW136658   3.101   3.206   3.463 -0.8571 -1.0686 -2.1348
10274SOL    HW236659   2.995   3.233   3.568  0.8154 -2.2235 -0.0655
10275SOL     OW36660   7.145  10.711   6.988  0.1781 -0.0739  0.6195
10275SOL    HW136661   7.073  10.772   6.970 -1.3613 -2.2094 -0.8607
10275SOL    HW236662   7.222  10.752   6.948 -0.5693  1.3464  0.5657
10276SOL     OW36663   3.061  10.450   4.051  0.1772 -0.5541  0.5079
10276SOL    HW136664   3.054  10.413   4.139  0.1505 -1.8829 -0.0362
10276SOL    HW236665   2.977  10.494   4.037  0.2469 -0.1829  1.2021
10277SOL     OW36666   7.353   2.686   0.612  0.2779  0.3776  0.5061
10277SOL    HW136667   7.410   2.763   0.606  0.4400  0.3567  1.6180
10277SOL    HW236668   7.352   2.663   0.705  0.5482 -1.2050  0.1543
10278SOL     OW36669   7.864   0.737   6.982  0.4454  0.0771 -0.3293
10278SOL    HW136670   7.927   0.722   7.052  0.6105  0.0687 -0.4806
10278SOL    HW236671   7.790   0.779   7.025  0.4199 -0.2028 -0.0937
10279SOL     OW36672   4.249   0.453   6.885  0.6543  0.3525 -0.3592
10279SOL    HW136673   4.272   0.520   6.821 -1.4006  0.0780 -1.4690
10279SOL    HW236674   4.216   0.503   6.961 -0.3057  0.6430 -0.9471
10280SOL     OW36675   3.168   8.673   3.067 -0.1745  0.3912  0.1850
10280SOL    HW136676   3.087   8.681   3.117 -0.0571  2.2706  0.1438
10280SOL    HW236677   3.140   8.647   2.980 -0.4648 -1.8648  0.8869
10281SOL     OW36678   8.707   2.460   2.106  0.3852  0.3617  0.6161
10281SOL    HW136679   8.642   2.448   2.037 -0.9545 -0.6930  1.9824
10281SOL    HW236680   8.737   2.371   2.127  2.3366  0.8211  0.0109
10282SOL     OW36681  10.280   9.078   4.716 -0.0657 -0.0869 -0.1531
10282SOL    HW136682  10.228   9.039   4.646 -1.8756 -0.4435  1.3073
10282SOL    HW236683  10.362   9.030   4.715  0.3059  0.4610 -2.5076
10283SOL     OW36684   4.857   1.014   5.588  0.1770 -0.1923 -0.7144
10283SOL    HW136685   4.785   1.076   5.575 -0.6334 -0.9039  0.2366
10283SOL    HW236686   4.936   1.064   5.568 -0.5098  0.9499 -0.6273
10284SOL     OW36687   6.274   2.685   3.201 -0.2019 -0.0192 -0.7960
10284SOL    HW136688   6.241   2.692   3.112 -1.6843 -3.1064 -0.5887
10284SOL    HW236689   6.291   2.592   3.214  0.4939  0.4011  1.9974
10285SOL     OW36690  10.490   6.452   3.166  0.6774  0.1117 -0.4126
10285SOL    HW136691  10.442   6.424   3.244  2.3125 -1.1148  0.2029
10285SOL    HW236692  10.479   6.547   3.165 -1.1230 -0.0378  0.0925
10286SOL     OW36693   9.933   5.235   8.952  0.0034  0.0029  0.1137
10286SOL    HW136694  10.015   5.204   8.912 -0.2026  0.2583 -0.5143
10286SOL    HW236695   9.934   5.330   8.939 -0.1535  0.0668  0.5591
10287SOL     OW36696   8.257   1.928   9.684  0.4023 -0.1060 -0.4494
10287SOL    HW136697   8.245   1.969   9.769  0.4593 -0.1772 -0.4073
10287SOL    HW236698   8.318   1.986   9.638  2.3100 -1.3227  0.4336
10288SOL     OW36699   6.881   6.030   3.706  0.0494 -0.1038 -0.0827
10288SOL    HW136700   6.959   5.975   3.700  0.9446  1.2426 -1.1823
10288SOL    HW236701   6.872   6.069   3.619 -2.5306 -1.0995 -0.3454
10289SOL     OW36702   1.774   2.587   5.491 -0.3629  0.3939  0.6051
10289SOL    HW136703   1.749   2.584   5.398  0.9570 -0.9334  0.2419
10289SOL    HW236704   1.696   2.558   5.538 -0.8390  0.4216 -0.1426
10290SOL     OW36705   5.498   1.495   6.871  0.2749  0.3903  0.3553
10290SOL    HW136706   5.449   1.543   6.937  1.8419 -0.6102  2.3501
10290SOL    HW236707   5.586   1.486   6.908  0.5450 -2.3792 -0.7233
10291SOL     OW36708   4.576   7.346   5.970 -0.0766  0.6129 -0.3383
10291SOL    HW136709   4.664   7.327   5.937  0.6446 -2.0665  2.5357
10291SOL    HW236710   4.528   7.264   5.957 -0.8640  0.7193  1.5786
10292SOL     OW36711   5.336   2.063   6.713 -0.1790  0.5861  0.3275
10292SOL    HW136712   5.354   2.064   6.807  3.2190 -0.3995 -0.1967
10292SOL    HW236713   5.351   1.972   6.687 -0.4007  0.9819 -1.2791
10293SOL     OW36714   0.293   7.151   8.400  0.2610  0.4337  0.5623
10293SOL    HW136715   0.330   7.221   8.346 -0.3802 -0.9138 -1.7635
10293SOL    HW236716   0.202   7.176   8.413 -0.1758 -0.2955 -0.9334
10294SOL     OW36717   9.547   4.902   7.874  0.2934 -0.4328 -0.1073
10294SOL    HW136718   9.517   4.814   7.851  0.6601 -0.7529  0.6118
10294SOL    HW236719   9.471   4.944   7.914 -0.1713 -0.0767 -1.3191
10295SOL     OW36720  10.544   7.897   9.682 -0.5738  0.6859 -0.0118
10295SOL    HW136721  10.563   7.961   9.613  0.0185  1.5401  0.9366
10295SOL    HW236722  10.480   7.838   9.641  1.7434 -0.4724 -2.2438
10296SOL     OW36723   6.120  10.273   6.453 -0.2698 -0.2726  0.1627
10296SOL    HW136724   6.027  10.273   6.476 -0.4808  1.7879 -0.5246
10296SOL    HW236725   6.127  10.333   6.378  1.4399 -1.3435 -0.5963
10297SOL     OW36726   3.724  10.133   7.479  0.1384  0.4861 -0.0943
10297SOL    HW136727   3.664  10.198   7.514 -0.6247  1.1893 -2.5236
10297SOL    HW236728   3.668  10.072   7.430  1.2481  0.6165 -1.6112
10298SOL     OW36729   6.884   5.276   8.451 -0.3877 -0.1052  0.5010
10298SOL    HW136730   6.917   5.187   8.436 -0.0507  0.4682 -2.6085
10298SOL    HW236731   6.947   5.315   8.512  1.8253 -0.7028 -1.3044
10299SOL     OW36732   1.735   8.722   0.592 -0.4598  0.1077 -0.5803
10299SOL    HW136733   1.766   8.793   0.536 -3.0893  3.4899  1.8348
10299SOL    HW236734   1.804   8.710   0.657  1.2607 -1.7519 -2.5914
10300SOL     OW36735   0.504  10.720   4.659 -0.2602 -0.3818  0.3271
10300SOL    HW136736   0.554  10.795   4.691  1.8887 -1.2189 -0.9153
10300SOL    HW236737   0.552  10.644   4.690 -2.7580 -1.3643  2.1397
10301SOL     OW36738   3.166   8.937   9.702 -0.6116 -0.1088 -0.0842
10301SOL    HW136739   3.181   8.845   9.678  2.4827  0.0849  0.7756
10301SOL    HW236740   3.071   8.942   9.714 -1.1948 -2.5869 -2.4168
10302SOL     OW36741   3.866   1.309   6.746  0.0366 -0.3897  0.3092
10302SOL    HW136742   3.911   1.393   6.754 -0.8697  0.2391 -0.8712
10302SOL    HW236743   3.933   1.243   6.767  0.9348  0.5880  0.5900
10303SOL     OW36744   4.480   0.559   5.133 -0.0616  0.3058 -0.0872
10303SOL    HW136745   4.506   0.564   5.041  0.1736  1.2287  0.0204
10303SOL    HW236746   4.481   0.465   5.153  3.9062  0.2191  0.0898
10304SOL     OW36747   1.224   4.135   1.960  0.4434  0.1801 -0.7950
10304SOL    HW136748   1.180   4.051   1.975  1.4986 -0.5991 -1.9118
10304SOL    HW236749   1.224   4.145   1.865 -0.3504  1.8467 -0.6575
10305SOL     OW36750  10.420   2.167   8.924  0.0945  0.4608  0.0061
10305SOL    HW136751  10.375   2.108   8.863 -1.3116 -0.5183  1.9070
10305SOL    HW236752  10.497   2.117   8.953 -1.4396 -0.8194  2.1127
10306SOL     OW36753   8.229   2.383   4.425  0.2914  0.3546  0.1388
10306SOL    HW136754   8.248   2.388   4.518  0.4345  1.3888  0.0661
10306SOL    HW236755   8.193   2.295   4.412  3.5219 -1.1492  0.5627
10307SOL     OW36756   4.217   0.402   0.789 -0.5347 -0.6467 -0.4453
10307SOL    HW136757   4.256   0.450   0.716 -0.2926 -2.4896 -1.5812
10307SOL    HW236758   4.264   0.319   0.791 -1.7512 -1.3396  0.6864
10308SOL     OW36759   7.546   0.032   5.784 -0.2075  0.1799  0.2422
10308SOL    HW136760   7.557   0.106   5.725  0.8576 -1.2678 -1.4782
10308SOL    HW236761   7.614  -0.030   5.758 -0.1114 -0.8014  2.6022
10309SOL     OW36762   8.386   9.556   7.770 -0.1122 -0.3713 -0.3430
10309SOL    HW136763   8.339   9.489   7.819 -0.5196  0.7524  0.8670
10309SOL    HW236764   8.327   9.579   7.698  0.4130 -1.9008 -1.3245
10310SOL     OW36765   6.144   4.307   3.294  0.3298  0.3668  0.3098
10310SOL    HW136766   6.098   4.372   3.347  2.2522  0.9555  1.3116
10310SOL    HW236767   6.216   4.277   3.349  1.4355 -0.1970 -1.3830
10311SOL     OW36768   0.219   8.839   7.726 -1.1720 -0.4481 -0.4266
10311SOL    HW136769   0.175   8.900   7.785 -0.4520 -0.2210 -0.1159
10311SOL    HW236770   0.194   8.868   7.638 -0.6917  0.4175 -0.2898
10312SOL     OW36771   9.715   2.712   1.339 -0.2159  0.3216  0.4461
10312SOL    HW136772   9.748   2.628   1.373 -1.7490 -1.0095 -1.1349
10312SOL    HW236773   9.656   2.744   1.407 -0.5786 -0.5273  0.5431
10313SOL     OW36774   4.733   6.942   7.805  0.0897  0.3915  0.2184
10313SOL    HW136775   4.756   6.885   7.878 -0.4644 -1.3267 -0.9077
10313SOL    HW236776   4.809   6.940   7.747  0.2015  1.0849  0.3337
10314SOL     OW36777   5.403   1.557   1.881 -0.2551  0.4604 -0.2142
10314SOL    HW136778   5.423   1.636   1.932 -2.1999 -0.4094  2.0876
10314SOL    HW236779   5.471   1.554   1.814  1.0902  2.9621  0.8977
10315SOL     OW36780   8.044   5.007   5.676 -0.4677 -0.1600 -0.0435
10315SOL    HW136781   8.026   4.936   5.737  0.1421 -0.1316  0.1776
10315SOL    HW236782   7.959   5.028   5.637 -0.8713 -0.1475  0.8218
10316SOL     OW36783  10.535   8.545   4.326  0.5111 -0.6008 -0.0124
10316SOL    HW136784  10.607   8.566   4.386  1.8932 -1.7805 -1.1441
10316SOL    HW236785  10.535   8.449   4.322 -0.3992 -0.5802 -0.9007
10317SOL     OW36786   2.908   5.220  10.139  0.4076  0.0669 -0.2730
10317SOL    HW136787   2.866   5.305  10.157 -1.3830 -0.7463 -0.3738
10317SOL    HW236788   2.999   5.232  10.166 -0.1785  1.5329  1.2409
10318SOL     OW36789   8.243   2.642   0.040  0.5532  0.1610  0.0675
10318SOL    HW136790   8.291   2.725   0.042  0.7296  0.0961 -0.9287
10318SOL    HW236791   8.152   2.666   0.025  0.4528  0.2192  0.7421
10319SOL     OW36792   6.098  10.092   7.744  0.3166  0.7968 -0.2118
10319SOL    HW136793   6.116  10.079   7.651  0.1042  1.6466 -0.3773
10319SOL    HW236794   6.028  10.030   7.764  0.3607  0.6137 -0.6150
10320SOL     OW36795   9.632   5.277   5.349 -0.2349 -0.0342  0.4456
10320SOL    HW136796   9.659   5.196   5.306 -2.4801  0.5586 -2.3482
10320SOL    HW236797   9.550   5.255   5.393  0.3596  0.1985  1.7340
10321SOL     OW36798   5.672   9.600   9.813 -0.0294  0.4006  0.9258
10321SOL    HW136799   5.654   9.508   9.795  0.8780  0.2242  0.8431
10321SOL    HW236800   5.750   9.620   9.762  0.1037  1.0644  1.3670
10322SOL     OW36801   2.695  10.005   4.116  0.1314 -0.1897  0.6219
10322SOL    HW136802   2.608  10.032   4.147  0.8367  2.1013  0.7763
10322SOL    HW236803   2.705  10.051   4.033  2.5745  2.5542  2.2752
10323SOL     OW36804   2.619   0.580   9.040 -0.0085 -0.3581 -0.2171
10323SOL    HW136805   2.694   0.635   9.062  0.1620 -0.9923  0.8812
10323SOL    HW236806   2.631   0.558   8.948  0.3410  0.7650 -0.4653
10324SOL     OW36807   0.891   9.288   1.311  0.1238 -0.0721 -0.1884
10324SOL    HW136808   0.862   9.379   1.316  2.3404  0.6648  0.6143
10324SOL    HW236809   0.819   9.238   1.350 -0.2984  1.5752  1.2974
10325SOL     OW36810   8.181   9.623   5.113 -0.0391  0.2519 -0.4628
10325SOL    HW136811   8.176   9.597   5.021 -0.6343  1.5616 -0.8254
10325SOL    HW236812   8.091   9.611   5.146 -0.0393  0.6747 -0.3090
10326SOL     OW36813   3.050   7.250   4.374 -0.4191 -0.9507 -0.4461
10326SOL    HW136814   3.070   7.175   4.317 -2.2688  0.0040 -2.4734
10326SOL    HW236815   2.958   7.240   4.396 -0.2617 -0.1390  0.6634
10327SOL     OW36816  10.239   1.515   1.559 -0.5246 -0.0836  0.1882
10327SOL    HW136817  10.306   1.450   1.581 -0.9353  0.1039  2.1259
10327SOL    HW236818  10.157   1.465   1.560 -0.6823  0.1775  0.1895
10328SOL     OW36819   5.143   0.678   4.165 -0.2264  0.3345 -0.7144
10328SOL    HW136820   5.105   0.601   4.207 -1.3883  0.7061 -1.0486
10328SOL    HW236821   5.204   0.642   4.100  0.3587 -0.2601  0.1345
10329SOL     OW36822   2.256   1.197   0.346  0.1964 -0.0469 -0.2877
10329SOL    HW136823   2.333   1.175   0.292  0.5014 -1.5315  0.6787
10329SOL    HW236824   2.189   1.135   0.318  0.1022 -0.2946  0.4739
10330SOL     OW36825   0.612   4.227   4.818 -0.1361 -0.1388 -0.5461
10330SOL    HW136826   0.540   4.289   4.825 -0.4710 -0.4525 -1.1383
10330SOL    HW236827   0.678   4.271   4.766  0.3785  0.3916  0.5238
10331SOL     OW36828   0.322   1.184   6.452  0.2834  0.0195  0.1749
10331SOL    HW136829   0.383   1.181   6.378  0.1300 -1.7522  0.0648
10331SOL    HW236830   0.340   1.104   6.501 -2.8242 -1.3374 -0.6265
10332SOL     OW36831  10.032   4.182   1.420 -0.3443  0.3330 -0.2187
10332SOL    HW136832  10.069   4.115   1.478  1.0351 -0.1634 -1.5996
10332SOL    HW236833  10.085   4.260   1.437  0.4507  0.0268 -1.1602
10333SOL     OW36834   1.359   3.145   1.662 -0.1974 -0.0648  0.2447
10333SOL    HW136835   1.308   3.198   1.601 -0.6271 -1.3461 -0.5714
10333SOL    HW236836   1.446   3.185   1.662 -0.3298  0.2510 -0.8384
10334SOL     OW36837   2.053   8.917   2.063  0.5854 -0.0393 -0.1225
10334SOL    HW136838   2.120   8.955   2.120 -0.1303  2.0958 -0.5916
10334SOL    HW236839   2.099   8.896   1.982  1.2081 -1.2254  0.5141
10335SOL     OW36840   4.204   6.489   1.406  0.6337 -0.3801 -0.0845
10335SOL    HW136841   4.257   6.433   1.349  0.1746 -1.1121  0.1898
10335SOL    HW236842   4.122   6.440   1.418  1.1074 -0.7474  2.0445
10336SOL     OW36843   2.073   5.708   1.844 -0.0404  0.2840 -0.2068
10336SOL    HW136844   2.102   5.676   1.930  1.7259  1.3657 -0.3330
10336SOL    HW236845   1.994   5.658   1.825  0.4310 -1.1492  1.3167
10337SOL     OW36846   4.611   7.595   4.091 -0.0920  0.0655  0.1358
10337SOL    HW136847   4.651   7.533   4.031  0.6104  1.3960 -0.8276
10337SOL    HW236848   4.522   7.606   4.059  0.7183  1.9393 -1.7173
10338SOL     OW36849   6.878   0.739   6.316  0.2087 -0.2262 -0.2419
10338SOL    HW136850   6.856   0.672   6.251 -0.9956 -0.4942  0.4029
10338SOL    HW236851   6.962   0.713   6.351  1.3068  0.3771 -2.2641
10339SOL     OW36852   6.136  10.241   9.574  0.2380 -0.0396  0.0675
10339SOL    HW136853   6.228  10.239   9.546  0.6797  2.6253  0.9445
10339SOL    HW236854   6.121  10.156   9.616  2.4603 -0.3786  0.2926
10340SOL     OW36855   2.802   1.272   2.166 -0.2731  0.1016  0.6452
10340SOL    HW136856   2.854   1.193   2.152  1.0304  0.9610  0.4578
10340SOL    HW236857   2.863   1.335   2.204 -1.2232  1.1032  0.5721
10341SOL     OW36858   0.780   2.996   1.321 -0.0304  0.1747 -0.2884
10341SOL    HW136859   0.729   3.068   1.359  2.0063  1.9721 -0.7743
10341SOL    HW236860   0.746   2.987   1.232 -0.5611  0.2708 -0.1003
10342SOL     OW36861   1.381   0.953   1.572 -0.1429  0.2090  0.4818
10342SOL    HW136862   1.336   0.870   1.556  0.2948 -0.1099  0.8835
10342SOL    HW236863   1.310   1.016   1.587 -0.4750 -0.1094  0.2812
10343SOL     OW36864   8.900   3.206   8.527 -0.0888 -0.2183 -0.8259
10343SOL    HW136865   8.939   3.170   8.447  0.6726 -1.2525 -0.0201
10343SOL    HW236866   8.855   3.132   8.567 -1.3886  0.5516 -0.8305
10344SOL     OW36867   6.868   1.892   5.970  0.0499 -0.2664  0.2563
10344SOL    HW136868   6.881   1.897   6.064  1.2519  0.6583  0.0648
10344SOL    HW236869   6.795   1.951   5.952  0.4026  0.2550  0.5149
10345SOL     OW36870   1.217   6.523   3.466  0.1442  0.7985  0.3208
10345SOL    HW136871   1.219   6.530   3.370  1.2560  0.9065  0.3385
10345SOL    HW236872   1.295   6.570   3.495  2.3963 -2.9859  1.0256
10346SOL     OW36873   9.857   7.369   7.205  0.1894 -0.1967 -0.2672
10346SOL    HW136874   9.811   7.439   7.251 -1.7687 -1.2334 -0.5672
10346SOL    HW236875   9.788   7.309   7.176  1.8062 -2.3877  0.1729
10347SOL     OW36876   0.520   4.190   2.226  0.3756  0.2820  0.0298
10347SOL    HW136877   0.426   4.172   2.220  0.8700 -2.4210 -1.5031
10347SOL    HW236878   0.543   4.172   2.317 -0.3242 -0.6762  0.0231
10348SOL     OW36879   1.208  10.325   6.984  0.2272 -0.6057 -0.6933
10348SOL    HW136880   1.248  10.399   7.029 -1.8658 -0.6609  1.4726
10348SOL    HW236881   1.255  10.319   6.901  3.3034  0.4760  0.8171
10349SOL     OW36882   9.601   6.253   9.841  0.2605 -0.4367 -0.3527
10349SOL    HW136883   9.579   6.260   9.934 -0.4463 -2.5627 -0.3092
10349SOL    HW236884   9.561   6.331   9.801 -0.4854 -0.1264  0.9390
10350SOL     OW36885   4.913   8.884   4.311  0.1664  0.3732  0.1538
10350SOL    HW136886   4.893   8.794   4.286  2.3375 -1.0342  2.8704
10350SOL    HW236887   4.997   8.902   4.269  0.6573  0.3796  1.1008
10351SOL     OW36888   2.126   2.120   9.293 -0.3987 -0.3896  0.3740
10351SOL    HW136889   2.213   2.103   9.331  0.1533  2.5387  0.6447
10351SOL    HW236890   2.065   2.082   9.357  0.6120 -2.4302  0.2174
10352SOL     OW36891   8.109   2.448   7.435 -0.0430  0.3927 -1.1848
10352SOL    HW136892   8.178   2.455   7.369  0.3182 -0.0371 -0.8593
10352SOL    HW236893   8.155   2.454   7.518 -0.3243 -0.5215 -0.9589
10353SOL     OW36894  10.738  10.521   2.947 -0.3505 -0.4340 -0.3991
10353SOL    HW136895  10.797  10.576   2.895 -2.4240  1.9412 -0.4365
10353SOL    HW236896  10.701  10.459   2.884  2.1205 -2.0982 -0.3383
10354SOL     OW36897   4.981  10.657   4.353 -0.2862  0.2657  0.1260
10354SOL    HW136898   4.946  10.674   4.441  1.7138 -1.2971  1.3051
10354SOL    HW236899   4.919  10.596   4.314  0.6693 -1.9943  1.9406
10355SOL     OW36900   5.410   0.114   2.220  0.2014  0.4659  0.1783
10355SOL    HW136901   5.353   0.137   2.146 -0.6085  0.9858  0.9504
10355SOL    HW236902   5.374   0.163   2.294 -0.1605 -1.4999  1.3614
10356SOL     OW36903   1.795   6.963   2.164  0.0394 -0.0455 -0.0609
10356SOL    HW136904   1.729   6.912   2.118 -2.8730  2.2685  1.1680
10356SOL    HW236905   1.818   6.909   2.240 -0.6680 -0.8006 -0.3626
10357SOL     OW36906   5.858   8.049   4.455 -1.1511  0.2380  0.5451
10357SOL    HW136907   5.855   8.142   4.477 -1.4914 -0.0204  1.6445
10357SOL    HW236908   5.815   8.006   4.529 -0.2744 -0.8648  0.4331
10358SOL     OW36909   4.797   7.461   8.217  0.1291  0.1252  0.1889
10358SOL    HW136910   4.803   7.501   8.304 -1.0299 -1.3808  1.0197
10358SOL    HW236911   4.876   7.489   8.172  0.1081  2.0424  1.2470
10359SOL     OW36912   5.704   3.033   3.056  0.0098  0.2833 -0.0697
10359SOL    HW136913   5.701   3.016   3.150 -2.0983  0.7140 -0.0095
10359SOL    HW236914   5.704   3.129   3.049  0.0474  0.2519 -0.5078
10360SOL     OW36915   4.269   9.858   7.154  0.3283  0.2731 -0.4962
10360SOL    HW136916   4.340   9.890   7.099  1.1541  1.6831  1.2840
10360SOL    HW236917   4.190   9.903   7.122 -0.1718 -2.3074 -3.3743
10361SOL     OW36918   6.747   3.674   2.227 -0.2610 -0.0728  0.1094
10361SOL    HW136919   6.713   3.585   2.221 -0.5983  0.0777 -0.3464
10361SOL    HW236920   6.772   3.696   2.137  0.0122  0.2188  0.2551
10362SOL     OW36921   2.422   2.249   3.311  0.0489 -0.3912  0.1410
10362SOL    HW136922   2.338   2.237   3.266 -0.1235 -2.4983  0.9235
10362SOL    HW236923   2.420   2.186   3.383  1.0994  1.5671  1.9879
10363SOL     OW36924   8.335   3.944   1.265 -0.3081  0.3269 -0.3098
10363SOL    HW136925   8.321   4.004   1.339 -3.1895 -1.2783  0.6251
10363SOL    HW236926   8.316   3.997   1.188  0.4624  1.4448  0.2442
10364SOL     OW36927   3.363   4.978   6.487 -0.2340 -0.2387  0.0925
10364SOL    HW136928   3.371   5.030   6.567  0.3796 -0.9846  0.5299
10364SOL    HW236929   3.285   5.013   6.444 -0.6853  0.0637  1.1056
10365SOL     OW36930   2.840   2.149   3.664 -0.5177  0.2993 -0.5116
10365SOL    HW136931   2.831   2.241   3.638 -0.8320 -0.3961 -3.2085
10365SOL    HW236932   2.934   2.133   3.664 -0.4995  0.3655 -1.1708
10366SOL     OW36933   6.359   1.911   2.280 -1.0930  0.1100  0.0650
10366SOL    HW136934   6.423   1.964   2.327 -0.7180 -0.1078 -0.1914
10366SOL    HW236935   6.412   1.854   2.224 -1.4868 -0.5811  0.3841
10367SOL     OW36936   8.728   1.635   8.094  0.1717 -0.0844  1.0396
10367SOL    HW136937   8.759   1.652   8.005  0.7228 -2.9905  0.5553
10367SOL    HW236938   8.731   1.719   8.138  1.4760  1.1340 -1.2166
10368SOL     OW36939   6.556   7.630   9.473  0.4508  0.3691 -0.5875
10368SOL    HW136940   6.519   7.543   9.490 -1.3319  1.4219  1.6493
10368SOL    HW236941   6.647   7.624   9.502 -0.0660 -0.3959  0.9780
10369SOL     OW36942   2.160   3.758   5.314  0.6832 -0.0326  0.1671
10369SOL    HW136943   2.164   3.688   5.248 -0.3476 -1.0804  1.1695
10369SOL    HW236944   2.103   3.723   5.382 -0.2846  2.0023  0.4701
10370SOL     OW36945   1.647   3.953   6.493 -0.3254 -0.3657  0.2449
10370SOL    HW136946   1.627   4.040   6.458 -1.4087  0.2636  2.2685
10370SOL    HW236947   1.742   3.949   6.494 -0.1886 -0.6013 -3.0139
10371SOL     OW36948   1.824   1.271   5.693 -0.1515  0.3644  0.2140
10371SOL    HW136949   1.916   1.256   5.675 -0.3762  1.3465 -2.1280
10371SOL    HW236950   1.821   1.359   5.731 -0.1113  0.2279  0.5369
10372SOL     OW36951   3.833   9.765   0.092 -0.3403  0.0505 -0.0410
10372SOL    HW136952   3.842   9.857   0.114  0.6180 -0.6276  2.8342
10372SOL    HW236953   3.917   9.742   0.052 -0.1939  0.2148  0.1675
10373SOL     OW36954   9.779   6.708   7.811  0.3422  0.4032  0.5021
10373SOL    HW136955   9.752   6.627   7.854  1.4243 -0.2714 -0.0473
10373SOL    HW236956   9.849   6.682   7.752 -0.0665  1.5488 -0.5533
10374SOL     OW36957   6.510   6.482   2.627 -0.0188  0.2544 -0.5007
10374SOL    HW136958   6.467   6.523   2.552  0.6443 -1.7500 -2.0905
10374SOL    HW236959   6.571   6.419   2.588  0.7192 -0.5194  1.7383
10375SOL     OW36960   5.926   8.564   7.464  0.4222 -0.5036  0.0047
10375SOL    HW136961   5.884   8.526   7.542  3.1410 -0.3437  1.6832
10375SOL    HW236962   5.904   8.657   7.468  0.7621 -0.4490  0.7460
10376SOL     OW36963   8.238   2.035  10.278 -0.1328 -0.0667  0.6948
10376SOL    HW136964   8.238   2.108  10.340 -2.8509 -0.4067  1.2198
10376SOL    HW236965   8.252   1.957  10.332 -1.9289 -0.3063  0.9008
10377SOL     OW36966   7.325   4.990   8.502 -0.2378 -0.4777  0.0379
10377SOL    HW136967   7.271   4.960   8.429 -0.1054 -1.4645  0.3223
10377SOL    HW236968   7.408   4.942   8.491  0.2519  0.3256  0.1249
10378SOL     OW36969   8.006   2.747   6.619  0.2811 -0.8567  0.4827
10378SOL    HW136970   7.919   2.773   6.647 -0.0911 -0.9997 -0.5031
10378SOL    HW236971   8.051   2.722   6.700 -0.6410 -0.9466  0.9820
10379SOL     OW36972  10.526   7.328   8.801  0.0222  0.2814 -0.0006
10379SOL    HW136973  10.460   7.386   8.839  1.1117  1.6204 -0.0682
10379SOL    HW236974  10.573   7.293   8.877  0.6135  1.0314 -0.0085
10380SOL     OW36975   5.061   1.427   0.015 -0.2731  0.5795 -0.0377
10380SOL    HW136976   4.995   1.471   0.068 -0.9341  0.8093 -1.0188
10380SOL    HW236977   5.082   1.347   0.064 -0.0690  1.2935  1.0803
10381SOL     OW36978   3.291   9.609   3.266 -0.2092 -0.6690  0.4213
10381SOL    HW136979   3.255   9.677   3.322 -0.1964  0.1265 -0.5318
10381SOL    HW236980   3.226   9.595   3.198  1.2947  0.9483 -1.4575
10382SOL     OW36981   7.899   1.540   3.741  0.7059  0.4243 -0.3590
10382SOL    HW136982   7.913   1.493   3.824  2.8419 -0.7190 -1.2950
10382SOL    HW236983   7.920   1.631   3.761  0.2312  0.3480  0.5711
10383SOL     OW36984   7.637   4.220   2.639 -0.1505  0.0020  0.1435
10383SOL    HW136985   7.733   4.220   2.634 -0.0530  0.8041  1.6139
10383SOL    HW236986   7.609   4.259   2.556  0.6707 -2.5163 -1.4224
10384SOL     OW36987   3.459   1.849  10.023 -0.2737 -0.3900 -0.1235
10384SOL    HW136988   3.490   1.808  10.103  0.6254 -1.6783 -1.0923
10384SOL    HW236989   3.367   1.825  10.017  0.1241 -1.9601 -0.4420
10385SOL     OW36990   4.326   2.557   8.868 -0.5657 -0.2380 -0.3004
10385SOL    HW136991   4.300   2.533   8.779 -1.6945  1.4352 -0.4721
10385SOL    HW236992   4.411   2.515   8.880  0.0414  0.2070 -2.5249
10386SOL     OW36993   4.889   1.771   0.433 -0.3455 -0.5249  0.1892
10386SOL    HW136994   4.972   1.819   0.433 -0.0505 -1.0097 -0.9235
10386SOL    HW236995   4.907   1.692   0.484 -0.6032  0.1323  1.3357
10387SOL     OW36996   1.180   6.706   8.593 -0.5044 -0.0349  0.3922
10387SOL    HW136997   1.271   6.692   8.619 -0.6830  0.2970  1.2147
10387SOL    HW236998   1.174   6.666   8.506 -0.5117 -3.4879  1.8231
10388SOL     OW36999   6.667   1.221   8.794  0.1668  0.0651  0.7336
10388SOL    HW137000   6.645   1.148   8.737 -0.8226 -0.4920  1.7780
10388SOL    HW237001   6.738   1.266   8.750  0.5941 -1.3606 -0.0815
10389SOL     OW37002   4.999   1.002   7.203 -0.3572 -0.6363  0.2996
10389SOL    HW137003   5.038   0.929   7.253 -0.1331 -0.0407  1.0201
10389SOL    HW237004   4.990   1.072   7.268  1.4938  0.7505 -0.8392
10390SOL     OW37005  10.559   2.004  10.750  0.3175  0.0728 -0.3541
10390SOL    HW137006  10.572   1.913  10.723 -1.7922 -0.3940  0.0125
10390SOL    HW237007  10.539   2.051  10.669  1.4723  0.2517 -0.5515
10391SOL     OW37008  10.913   3.136   4.017 -0.3099  0.2639 -0.3382
10391SOL    HW137009  10.864   3.086   4.082 -0.4782 -0.1646 -0.7882
10391SOL    HW237010  11.000   3.096   4.018 -0.9680 -1.3551 -2.0640
10392SOL     OW37011   4.026   6.788   0.636  0.2330  0.6302  0.1769
10392SOL    HW137012   3.953   6.754   0.584 -0.4644  0.6817  1.1156
10392SOL    HW237013   4.101   6.733   0.610 -0.1648  0.4709 -0.6655
10393SOL     OW37014   5.395   3.853   2.274  0.0279 -0.3691  0.9277
10393SOL    HW137015   5.409   3.792   2.346 -0.1490  0.8784  2.0594
10393SOL    HW237016   5.471   3.911   2.276 -0.6149  0.4942  0.9725
10394SOL     OW37017   7.499   9.561   3.245 -0.2680 -0.5371  0.2748
10394SOL    HW137018   7.473   9.553   3.336  0.1726 -2.1015  0.2878
10394SOL    HW237019   7.536   9.476   3.222  0.9007  0.2450 -0.9688
10395SOL     OW37020   3.553   0.004   2.756  0.4203  0.6004  0.0199
10395SOL    HW137021   3.518   0.071   2.815 -0.6186 -1.1232  1.4592
10395SOL    HW237022   3.615   0.051   2.700 -0.3968  2.7702  0.8533
10396SOL     OW37023   0.997   3.640   5.066  0.1895  0.2510 -0.4998
10396SOL    HW137024   0.946   3.676   5.139  1.3084  0.1349  0.3742
10396SOL    HW237025   1.084   3.679   5.077  0.8529 -1.1264 -0.7539
10397SOL     OW37026   7.636   2.985   8.251  0.2674 -0.5324  0.3425
10397SOL    HW137027   7.649   2.949   8.163  0.4445 -0.0081  0.1505
10397SOL    HW237028   7.663   2.914   8.310  0.6441 -0.7038 -0.0289
10398SOL     OW37029   5.204   0.714   7.076 -0.3710  0.5555  0.4219
10398SOL    HW137030   5.251   0.726   7.158  0.2298  0.5940  0.0796
10398SOL    HW237031   5.271   0.687   7.013 -0.9963 -0.4929  0.1778
10399SOL     OW37032   0.601   1.461   8.690  0.0468  0.2644  0.3125
10399SOL    HW137033   0.620   1.444   8.598  1.6144 -0.2216  0.6868
10399SOL    HW237034   0.509   1.436   8.701 -0.1585  0.3289 -1.1059
10400SOL     OW37035   8.636   2.473   6.782 -0.2878 -0.4069 -0.3283
10400SOL    HW137036   8.700   2.482   6.712  0.5289 -1.7882  0.1977
10400SOL    HW237037   8.674   2.519   6.856 -1.4318  1.5965 -0.9014
10401SOL     OW37038   2.806   8.270   2.997 -0.4309  0.0472 -0.2785
10401SOL    HW137039   2.777   8.189   3.040  1.3204  0.6187  2.1742
10401SOL    HW237040   2.726   8.306   2.957 -1.8837 -1.3167  1.2293
10402SOL     OW37041  10.211   2.483   1.406  0.1405  0.5320  0.1506
10402SOL    HW137042  10.249   2.494   1.319 -0.3808  0.4104 -0.0998
10402SOL    HW237043  10.278   2.437   1.456  0.2317  0.0928 -0.3587
10403SOL     OW37044   8.430   1.656   8.350 -0.6756  0.0563  0.8281
10403SOL    HW137045   8.513   1.610   8.335 -1.8180 -2.2669  1.1172
10403SOL    HW237046   8.410   1.638   8.442 -1.1833  1.1723  0.9465
10404SOL     OW37047   6.155   7.186   7.397 -0.5751  0.1393 -0.2083
10404SOL    HW137048   6.159   7.094   7.425 -1.1912  0.4733  1.0051
10404SOL    HW237049   6.245   7.206   7.372 -0.4374 -0.8075 -0.5460
10405SOL     OW37050   1.209   1.698   0.496 -0.1938  0.2467  0.3597
10405SOL    HW137051   1.209   1.793   0.510 -1.2349  0.2447  0.4559
10405SOL    HW237052   1.180   1.687   0.405 -0.7775  0.0045  0.5695
10406SOL     OW37053   6.369   3.295   5.452 -0.7207 -0.4263 -0.1488
10406SOL    HW137054   6.404   3.377   5.417 -0.6321  0.3028  1.5732
10406SOL    HW237055   6.281   3.289   5.416 -0.4252 -0.0245 -0.9715
10407SOL     OW37056   9.473   8.257   9.160  0.3457 -0.0186  0.1626
10407SOL    HW137057   9.504   8.218   9.078  0.1553  3.3979 -1.7082
10407SOL    HW237058   9.548   8.307   9.193  0.3427 -1.1429  2.0331
10408SOL     OW37059   4.578  10.689   4.104  0.5123 -0.4647  0.3146
10408SOL    HW137060   4.535  10.762   4.059 -1.5243 -1.2965  0.8127
10408SOL    HW237061   4.509  10.623   4.114  2.4187 -2.7186 -0.6089
10409SOL     OW37062   3.433   6.254   6.872  0.1941  0.7767 -0.5404
10409SOL    HW137063   3.406   6.246   6.781  0.0589 -0.4183 -0.4063
10409SOL    HW237064   3.473   6.170   6.894  1.2566  1.4363  0.1827
10410SOL     OW37065   1.801   6.019   4.300 -0.4626 -0.4860 -0.4610
10410SOL    HW137066   1.759   6.076   4.365  1.0146 -0.2847  0.3788
10410SOL    HW237067   1.732   5.960   4.271 -0.9050 -1.5348  2.3738
10411SOL     OW37068   8.568   6.870   8.816  0.1136 -0.2631  0.2279
10411SOL    HW137069   8.524   6.785   8.821 -2.3835  0.9234  0.1325
10411SOL    HW237070   8.648   6.853   8.768 -0.2772 -2.5657  0.2656
10412SOL     OW37071  10.252   6.377   2.983 -0.3849  0.9913 -0.1911
10412SOL    HW137072  10.302   6.389   3.064 -1.2456 -0.0773  0.5258
10412SOL    HW237073  10.218   6.288   2.989 -0.0533  0.7242 -1.9774
10413SOL     OW37074   7.096   4.921   1.705  0.2575  0.0217 -0.4773
10413SOL    HW137075   7.151   4.986   1.662  0.8182 -0.7495 -0.9640
10413SOL    HW237076   7.123   4.924   1.797  0.6393  0.1233 -0.5914
10414SOL     OW37077   6.483   5.731   5.253 -0.2933  0.5452 -0.2035
10414SOL    HW137078   6.561   5.691   5.289 -2.4744 -2.6109  1.5020
10414SOL    HW237079   6.447   5.784   5.324  0.7208  2.9548 -1.3408
10415SOL     OW37080  10.054   3.254   8.659  0.6761  0.9231 -0.2801
10415SOL    HW137081  10.143   3.222   8.667  0.5023  0.4013 -0.3870
10415SOL    HW237082  10.036   3.254   8.565  0.2878  0.2411 -0.2106
10416SOL     OW37083   6.364   6.351   4.099  0.3197  0.3209 -0.3646
10416SOL    HW137084   6.334   6.426   4.150  0.9981 -0.4446  1.2379
10416SOL    HW237085   6.289   6.326   4.045  0.0900  2.1350 -0.9548
10417SOL     OW37086   9.546  10.256   5.815  0.0666  0.0515  0.0734
10417SOL    HW137087   9.507  10.247   5.728 -0.8763  0.0470  0.4854
10417SOL    HW237088   9.594  10.339   5.812 -1.8457  1.2169  0.2435
10418SOL     OW37089   2.694   5.903   5.727  0.0018  0.3245 -0.3170
10418SOL    HW137090   2.624   5.926   5.788  0.2229  0.2715 -0.0348
10418SOL    HW237091   2.765   5.964   5.749 -0.0962  0.6360 -0.8617
10419SOL     OW37092   3.064   8.369   4.420  0.2096 -0.2324  0.2677
10419SOL    HW137093   3.117   8.334   4.349  0.0506  0.6831 -0.3175
10419SOL    HW237094   3.054   8.296   4.481  2.5914 -0.2670  0.6783
10420SOL     OW37095  10.502   5.347   5.678  0.1006  0.0929  0.6585
10420SOL    HW137096  10.447   5.425   5.686 -0.4420 -0.4295  2.4370
10420SOL    HW237097  10.476   5.308   5.595 -0.8150  0.9168  0.5414
10421SOL     OW37098  10.028   4.220   4.921 -0.2973  0.4436 -0.6418
10421SOL    HW137099   9.963   4.214   4.991 -0.1355 -1.8834 -0.5806
10421SOL    HW237100  10.058   4.310   4.923 -0.3267  0.4816  2.2822
10422SOL     OW37101   1.721   2.639   3.615 -0.2364 -0.1212 -0.3839
10422SOL    HW137102   1.640   2.628   3.665  0.8544  0.8752  1.7711
10422SOL    HW237103   1.747   2.550   3.591 -1.8206 -0.4670 -0.9386
10423SOL     OW37104   8.507  10.382   4.620  0.1317  0.0760 -0.1017
10423SOL    HW137105   8.534  10.297   4.587  1.3231  0.8205 -1.1178
10423SOL    HW237106   8.565  10.398   4.695  0.3965  0.3076 -0.3558
10424SOL     OW37107   4.065   7.796  10.425 -0.2469  0.3694  0.0425
10424SOL    HW137108   4.027   7.709  10.429  1.9186 -0.7510 -1.5168
10424SOL    HW237109   4.094   7.815  10.514  0.8704 -1.3353  0.0773
10425SOL     OW37110   9.904   7.200   9.072  0.1611 -0.1364  0.0215
10425SOL    HW137111   9.868   7.112   9.060 -0.1145 -0.1651  0.9925
10425SOL    HW237112   9.916   7.209   9.166  0.5363  0.7344 -0.0952
10426SOL     OW37113   3.169   2.224  10.593 -0.4920  0.4270 -0.9785
10426SOL    HW137114   3.258   2.258  10.588 -0.6319  1.3026  1.4463
10426SOL    HW237115   3.153   2.210  10.686 -1.5436 -3.4882 -1.5503
10427SOL     OW37116   8.560   9.317   8.139 -0.1949  0.0136  0.4199
10427SOL    HW137117   8.506   9.357   8.070 -0.0665  0.9035  0.8255
10427SOL    HW237118   8.523   9.229   8.149 -0.5549  0.0533 -0.4167
10428SOL     OW37119   1.603   5.020   3.603  0.4706  0.1864  0.0403
10428SOL    HW137120   1.622   5.021   3.509 -0.5515  1.1889 -0.1841
10428SOL    HW237121   1.569   5.107   3.621  0.4348 -0.0728  1.3082
10429SOL     OW37122   4.000   9.799   3.952  0.1633 -0.3295 -0.1645
10429SOL    HW137123   4.086   9.768   3.978  0.3258 -0.2088 -0.5551
10429SOL    HW237124   4.012   9.835   3.864 -0.3030 -0.4074 -0.2672
10430SOL     OW37125  10.664   2.892   9.979  0.8573  0.0011 -0.1559
10430SOL    HW137126  10.585   2.901   9.926 -0.9638 -0.7596  2.2501
10430SOL    HW237127  10.710   2.817   9.943 -0.9624 -1.2543  0.0413
10431SOL     OW37128   4.774   6.058   8.498  0.2545  0.5177  0.5185
10431SOL    HW137129   4.740   6.115   8.567  0.1176  0.0976  0.8033
10431SOL    HW237130   4.869   6.057   8.511  0.2467  0.5919  0.5786
10432SOL     OW37131   1.191   5.676   6.352 -0.3840 -0.4340  0.2210
10432SOL    HW137132   1.246   5.602   6.326  0.5784 -0.1981  1.4658
10432SOL    HW237133   1.158   5.652   6.439 -0.2639  0.4702  0.5303
10433SOL     OW37134   2.178   7.801  10.407 -0.5946  0.1511 -0.7789
10433SOL    HW137135   2.136   7.780  10.490 -0.4822 -3.1139 -1.3831
10433SOL    HW237136   2.105   7.815  10.346 -0.6993  0.8296 -0.5009
10434SOL     OW37137  10.792   7.455   6.034 -0.5102 -0.0352 -0.0018
10434SOL    HW137138  10.810   7.501   6.116 -1.7230 -1.1260  0.8973
10434SOL    HW237139  10.879   7.434   5.999  0.0152  0.2288  1.1021
10435SOL     OW37140   8.360   1.382   5.060 -0.2863 -0.3262  0.5236
10435SOL    HW137141   8.385   1.463   5.104  1.8653 -0.8346  0.3237
10435SOL    HW237142   8.430   1.365   4.998 -1.7928 -1.2095 -1.0159
10436SOL     OW37143   2.583   5.221   4.060  0.4312  0.3761 -0.4675
10436SOL    HW137144   2.620   5.134   4.044  1.2788  0.5024  0.6891
10436SOL    HW237145   2.499   5.203   4.104  1.9516  0.0985  2.5868
10437SOL     OW37146   9.767   5.770   3.500 -0.3332  0.0672  0.0913
10437SOL    HW137147   9.854   5.753   3.537  0.0854 -0.0070 -0.9033
10437SOL    HW237148   9.782   5.775   3.406 -1.3769  0.2928 -0.0680
10438SOL     OW37149   1.862   9.751   8.454 -0.1434 -0.2439 -0.2874
10438SOL    HW137150   1.817   9.738   8.371  1.3392  0.1169 -1.1819
10438SOL    HW237151   1.862   9.846   8.467  1.6456 -0.0961 -1.0838
10439SOL     OW37152   8.251   5.340   8.408 -0.0802  0.0486 -0.2074
10439SOL    HW137153   8.279   5.287   8.482  1.3788  0.3182 -0.5335
10439SOL    HW237154   8.166   5.374   8.433  0.7529  0.8225  1.7125
10440SOL     OW37155   8.845  10.771  10.149  0.2516 -0.3138 -0.4864
10440SOL    HW137156   8.889  10.707  10.204  1.0742  0.1119 -0.6245
10440SOL    HW237157   8.859  10.740  10.060 -1.2896 -1.1375 -0.4820
10441SOL     OW37158   1.327   3.064   4.377  0.3335  0.1634  0.0263
10441SOL    HW137159   1.261   3.017   4.428 -0.0404  0.6233 -0.0296
10441SOL    HW237160   1.383   3.106   4.442  1.2325 -1.0887  0.1068
10442SOL     OW37161   6.871   6.167   7.788 -0.7024 -0.3917 -0.0622
10442SOL    HW137162   6.873   6.076   7.758 -2.6812 -0.0027 -1.5818
10442SOL    HW237163   6.780   6.194   7.775 -0.0445  1.9638 -0.1639
10443SOL     OW37164   8.972   5.972   4.140  0.2365  0.1414 -0.1829
10443SOL    HW137165   9.034   6.021   4.086  1.3504 -0.0350  0.9020
10443SOL    HW237166   9.024   5.940   4.214 -1.0003 -0.6061  0.3974
10444SOL     OW37167   6.922   4.969   1.482  0.0616  0.0127 -0.4852
10444SOL    HW137168   7.010   4.954   1.516 -0.2149 -1.0946 -0.2295
10444SOL    HW237169   6.887   5.040   1.536  0.8231  0.5378 -0.6591
10445SOL     OW37170   5.937   7.089   2.401 -0.0877 -0.3383  0.2908
10445SOL    HW137171   5.946   7.088   2.305  1.3810  1.6194  0.3461
10445SOL    HW237172   6.021   7.058   2.433 -0.0327  0.4748  0.9461
10446SOL     OW37173   2.859   7.738   9.218  0.1315 -0.3882 -0.4902
10446SOL    HW137174   2.933   7.766   9.164  1.4553 -2.2264  0.2364
10446SOL    HW237175   2.881   7.648   9.244 -1.9889 -0.7054  0.4402
10447SOL     OW37176   2.194   9.333   4.885 -0.2165  0.0301  0.4815
10447SOL    HW137177   2.215   9.345   4.978  1.5493 -0.7170  0.2093
10447SOL    HW237178   2.249   9.397   4.839  0.1973 -0.7727 -0.1558
10448SOL     OW37179   2.258   7.988   2.435 -0.3174  0.2928 -0.0708
10448SOL    HW137180   2.345   7.950   2.443 -0.8108 -1.5856 -2.6066
10448SOL    HW237181   2.269   8.078   2.466  1.8566 -0.6268  2.2121
10449SOL     OW37182   9.524   4.762   5.848  1.1128 -0.0783  0.2553
10449SOL    HW137183   9.475   4.720   5.776 -0.0012 -0.5818  1.2620
10449SOL    HW237184   9.584   4.822   5.804 -0.5292  0.7046 -1.0592
10450SOL     OW37185   6.349   4.957   1.512 -0.3004 -0.1511  0.2769
10450SOL    HW137186   6.423   5.015   1.526 -1.2856  0.8916  1.4450
10450SOL    HW237187   6.357   4.890   1.581  0.2722 -0.8269 -0.4318
10451SOL     OW37188   4.275   7.117   7.480  0.6957  0.1827 -0.0058
10451SOL    HW137189   4.302   7.161   7.561  2.5547  0.0263 -0.4947
10451SOL    HW237190   4.220   7.044   7.509 -0.4288  1.3599  0.9609
10452SOL     OW37191   1.530   4.900   2.798 -0.5875 -0.5927  0.0953
10452SOL    HW137192   1.574   4.828   2.845 -3.0676 -1.9116  0.5610
10452SOL    HW237193   1.507   4.963   2.867  1.0075  0.4051 -0.2300
10453SOL     OW37194   3.561   7.425   6.664  0.0888  0.4922  0.2810
10453SOL    HW137195   3.643   7.466   6.636  0.3993 -0.2680  0.0529
10453SOL    HW237196   3.576   7.331   6.652 -0.5707  0.3015  0.8909
10454SOL     OW37197   2.754   1.016   4.695  0.6048 -0.3373  0.3786
10454SOL    HW137198   2.819   1.082   4.721  1.4262 -0.5601 -0.9971
10454SOL    HW237199   2.714   1.051   4.615  1.7202 -1.8616 -0.9237
10455SOL     OW37200   7.093   3.433   2.419 -0.5342 -0.3927 -0.4830
10455SOL    HW137201   7.184   3.423   2.444 -0.7508  0.1476  0.5928
10455SOL    HW237202   7.067   3.518   2.455 -1.2572 -0.1951 -1.4177
10456SOL     OW37203   5.066   6.762   8.425 -0.7766 -0.0841 -0.6112
10456SOL    HW137204   4.977   6.756   8.391 -1.5951  0.9723  1.2351
10456SOL    HW237205   5.088   6.673   8.451 -0.9441 -0.5045 -1.8327
10457SOL     OW37206   3.933   0.685   9.423  0.5879  0.0859  0.0968
10457SOL    HW137207   3.883   0.677   9.504 -1.6542  1.5316 -1.0506
10457SOL    HW237208   3.994   0.757   9.439  0.2898  0.2319  0.5848
10458SOL     OW37209  10.282   7.767   9.150  0.0875  0.0965  0.5932
10458SOL    HW137210  10.233   7.765   9.068  0.7348 -0.1172  0.2052
10458SOL    HW237211  10.303   7.675   9.168  0.6002  0.2133  0.5986
10459SOL     OW37212   7.711   8.670   5.960  0.1360  0.2640 -0.3135
10459SOL    HW137213   7.759   8.706   5.886 -1.3621  0.4547 -1.2157
10459SOL    HW237214   7.742   8.579   5.966 -0.3511 -0.0136 -1.7286
10460SOL     OW37215   6.185   3.043   0.775 -0.2462 -0.5563  0.0623
10460SOL    HW137216   6.141   2.999   0.848 -0.3581 -0.5756 -0.0158
10460SOL    HW237217   6.126   3.030   0.701 -1.0044  1.0062  0.3598
10461SOL     OW37218  10.516   9.281   9.129 -0.1916 -0.1327  0.3120
10461SOL    HW137219  10.512   9.376   9.115  1.0684 -0.3632 -2.1070
10461SOL    HW237220  10.471   9.244   9.053  3.4779 -1.4746 -1.4460
10462SOL     OW37221   7.283   4.364  10.474  0.1751  0.2626 -0.1687
10462SOL    HW137222   7.285   4.285  10.421  0.7206 -0.4126  0.8340
10462SOL    HW237223   7.348   4.349  10.543 -2.0388  0.1622  2.0226
10463SOL     OW37224   3.897   2.637   7.250 -0.3152  0.0805  0.2058
10463SOL    HW137225   3.880   2.718   7.299  0.4415 -0.1391  0.8620
10463SOL    HW237226   3.826   2.632   7.187 -2.5219 -0.6574  2.5587
10464SOL     OW37227   9.674   9.306   5.411 -0.0137 -0.1637  0.6180
10464SOL    HW137228   9.631   9.385   5.380  1.4644 -0.0007 -1.2095
10464SOL    HW237229   9.695   9.257   5.331  1.1072 -1.3132  1.5670
10465SOL     OW37230   6.149   9.054   6.710 -0.5888  0.8127 -0.1256
10465SOL    HW137231   6.222   9.040   6.650  0.1032  0.7594  0.7004
10465SOL    HW237232   6.081   8.994   6.680 -0.9492  2.0686 -1.9227
10466SOL     OW37233   5.837   0.405   7.355 -0.0310 -0.9945  0.1103
10466SOL    HW137234   5.794   0.344   7.296 -0.6162  0.0419 -0.5535
10466SOL    HW237235   5.804   0.382   7.442 -0.4310 -1.4627 -0.1606
10467SOL     OW37236   1.601   9.059   9.061  0.3622 -0.0870  0.0761
10467SOL    HW137237   1.520   9.072   9.110  0.1810 -1.2348  0.1158
10467SOL    HW237238   1.593   9.116   8.985 -0.8383 -0.7479 -0.3229
10468SOL     OW37239   0.848  10.200   4.640 -0.0803  0.0798 -0.5516
10468SOL    HW137240   0.901  10.274   4.671  0.1867 -0.2247 -0.2672
10468SOL    HW237241   0.800  10.170   4.717 -1.2350  0.8050 -0.9636
10469SOL     OW37242   9.504   5.345   6.577  1.2173 -0.6175 -0.0847
10469SOL    HW137243   9.580   5.403   6.578  1.4050 -0.8613  0.2448
10469SOL    HW237244   9.535   5.265   6.620  0.9161 -0.9003 -0.3896
10470SOL     OW37245   9.889   4.409   9.532  0.5237  0.5066  0.5001
10470SOL    HW137246   9.810   4.452   9.566  0.2818  1.0067 -0.6387
10470SOL    HW237247   9.922   4.357   9.606  0.3817  2.0192  1.6901
10471SOL     OW37248   8.887   3.910   0.241  0.1767 -0.6547 -0.0653
10471SOL    HW137249   8.841   3.827   0.243  1.1753 -1.2362  2.4157
10471SOL    HW237250   8.820   3.975   0.263 -0.7640 -0.6223 -2.7025
10472SOL     OW37251  10.489   8.639   6.334 -0.2263  0.6504 -0.7272
10472SOL    HW137252  10.435   8.563   6.313  2.5828 -1.9641  0.5728
10472SOL    HW237253  10.508   8.680   6.250 -1.4905 -0.3184 -1.5178
10473SOL     OW37254   7.527   6.643   1.783  0.2879 -0.6872  0.0356
10473SOL    HW137255   7.515   6.638   1.688 -0.1669 -0.5289  0.0797
10473SOL    HW237256   7.443   6.675   1.816 -0.3828 -2.9765  0.7118
10474SOL     OW37257   6.545   3.632   8.679 -0.3326 -0.1690  0.0905
10474SOL    HW137258   6.458   3.598   8.660 -0.1297  0.1282 -1.5078
10474SOL    HW237259   6.593   3.623   8.597  0.5401  1.5138  0.3763
10475SOL     OW37260   8.097   5.446  10.383 -0.2371  0.2812 -0.1654
10475SOL    HW137261   8.176   5.427  10.433 -0.6314 -1.6161 -0.1686
10475SOL    HW237262   8.075   5.536  10.405  1.4225  0.5597  0.5053
10476SOL     OW37263   4.527   2.080   8.434  0.3036 -0.3952 -0.1690
10476SOL    HW137264   4.604   2.029   8.410  1.9978  1.6092  0.6516
10476SOL    HW237265   4.531   2.086   8.530 -0.9686 -0.3918 -0.1014
10477SOL     OW37266   0.937   9.123   7.554 -0.2808  0.2234  0.3465
10477SOL    HW137267   1.006   9.075   7.508  0.7403  0.7654  1.2643
10477SOL    HW237268   0.928   9.076   7.637 -0.3759  0.6930  0.6029
10478SOL     OW37269   7.740   9.986   4.241 -0.2568 -0.0655  0.1350
10478SOL    HW137270   7.781   9.900   4.228  0.5170  0.3317 -0.1251
10478SOL    HW237271   7.802  10.048   4.202  1.1888  1.0485  3.7790
10479SOL     OW37272   9.131  10.271   5.029 -0.1012  0.7170 -0.3109
10479SOL    HW137273   9.193  10.334   5.067  1.4478 -0.4313 -0.8222
10479SOL    HW237274   9.159  10.187   5.064  0.4189 -0.1939 -2.7203
10480SOL     OW37275  10.308   2.258   3.320 -0.5922 -0.4053  0.6726
10480SOL    HW137276  10.226   2.286   3.362 -0.8695  0.0663 -0.1468
10480SOL    HW237277  10.343   2.338   3.280  0.1855 -0.6393  0.8697
10481SOL     OW37278   9.267   1.932   7.820 -0.3921 -0.6352 -0.0552
10481SOL    HW137279   9.233   1.865   7.760 -1.9139 -0.7697  0.8963
10481SOL    HW237280   9.315   1.993   7.764 -0.8830 -1.3200 -1.2511
10482SOL     OW37281   3.110   9.115   6.422 -0.3304 -0.1108 -0.0796
10482SOL    HW137282   3.137   9.041   6.367  0.4553  0.3057 -0.2731
10482SOL    HW237283   3.065   9.175   6.362 -0.5243 -0.2019 -0.0252
10483SOL     OW37284   8.536   2.155   7.913 -0.4925  0.7594 -0.1560
10483SOL    HW137285   8.556   2.120   7.827  0.5984  0.5119  0.1856
10483SOL    HW237286   8.609   2.127   7.968 -0.7706  1.5947  0.6602
10484SOL     OW37287   0.751   1.083   4.454 -0.0867  0.2706 -0.4791
10484SOL    HW137288   0.692   1.123   4.518 -0.7174  0.8329 -1.4044
10484SOL    HW237289   0.758   1.147   4.383  2.2373  0.5580 -0.0818
10485SOL     OW37290   5.274   9.964   3.257  0.3522  0.1868 -0.0214
10485SOL    HW137291   5.361   9.943   3.291  0.2085  0.1465  0.3266
10485SOL    HW237292   5.217   9.896   3.295  0.1469  0.2981 -0.1305
10486SOL     OW37293   7.181   6.904   8.557  0.1370 -0.1426 -0.0255
10486SOL    HW137294   7.273   6.920   8.536 -0.2944  0.7588 -1.3085
10486SOL    HW237295   7.143   6.991   8.570 -0.5898 -0.4944  0.2970
10487SOL     OW37296   6.693   2.057   9.318  0.0719  0.9545 -0.5597
10487SOL    HW137297   6.680   2.129   9.380  0.1255  0.8893 -0.4737
10487SOL    HW237298   6.755   1.998   9.361  1.0801  1.5227 -1.1941
10488SOL     OW37299   1.950   7.129   9.032 -0.1640 -0.2210 -0.1876
10488SOL    HW137300   2.015   7.090   9.091 -0.5629 -0.1734  0.2863
10488SOL    HW237301   2.002   7.164   8.959  0.4243  0.6353  0.6317
10489SOL     OW37302   5.497   6.937   6.427 -0.4211 -0.1820 -0.4305
10489SOL    HW137303   5.560   6.959   6.358  0.4665 -0.5150  0.2483
10489SOL    HW237304   5.520   6.994   6.500 -0.5654 -0.6763  0.0100
10490SOL     OW37305   7.337   2.250   6.214 -0.5468 -0.4770 -0.5312
10490SOL    HW137306   7.271   2.197   6.260  0.5999 -1.2261  0.3218
10490SOL    HW237307   7.323   2.230   6.121 -1.0657 -1.1586 -0.3182
10491SOL     OW37308   6.911   5.509   0.778  0.2149  0.2512 -0.3220
10491SOL    HW137309   7.004   5.526   0.763  0.3378 -0.2760 -0.1745
10491SOL    HW237310   6.870   5.596   0.775  0.8318  0.5852  0.4262
10492SOL     OW37311   0.922   3.051   4.954 -0.0308  0.2874 -0.6774
10492SOL    HW137312   0.850   3.114   4.955 -0.1852  0.1328 -1.4012
10492SOL    HW237313   0.929   3.021   5.045 -0.9548  0.2253 -0.6139
10493SOL     OW37314   6.970   6.011   2.145  0.0658 -0.4944  0.4044
10493SOL    HW137315   6.882   5.987   2.115 -0.8838  1.4321  1.4637
10493SOL    HW237316   6.976   5.973   2.233  0.3305 -0.6928  0.3007
10494SOL     OW37317  10.778   3.991   4.886 -0.6270 -0.3279 -0.4995
10494SOL    HW137318  10.752   4.062   4.827  1.0300  2.1350  1.4840
10494SOL    HW237319  10.827   3.930   4.831  2.1082  2.5728 -1.6156
10495SOL     OW37320   3.022   9.864   6.197  0.0944 -0.5454 -0.0539
10495SOL    HW137321   3.065   9.917   6.263  0.5032  0.0446 -0.7805
10495SOL    HW237322   2.988   9.927   6.134 -1.8297 -0.9974  0.4772
10496SOL     OW37323   8.343   3.544   7.662  0.2729 -0.3060 -0.2264
10496SOL    HW137324   8.348   3.449   7.660 -0.8171 -0.3714 -1.4337
10496SOL    HW237325   8.421   3.573   7.613 -0.7030 -0.6863 -2.1031
10497SOL     OW37326   3.826   8.842   7.467  0.2603 -0.1381 -0.0689
10497SOL    HW137327   3.837   8.790   7.547  1.9520  0.4974  0.1676
10497SOL    HW237328   3.765   8.792   7.413 -0.0458 -1.1326  1.1653
10498SOL     OW37329   4.824   0.677   6.425 -0.1148 -0.0088 -0.2815
10498SOL    HW137330   4.732   0.652   6.433 -0.5185  1.5304  0.3394
10498SOL    HW237331   4.865   0.605   6.378 -1.3457 -1.3820  0.6553
10499SOL     OW37332   7.775   5.286  10.817 -0.3038 -0.2747  0.1824
10499SOL    HW137333   7.703   5.349  10.822 -0.5560 -0.4042 -1.2185
10499SOL    HW237334   7.820   5.294  10.901 -0.3506  1.7454  0.0800
10500SOL     OW37335   3.378   4.497   5.139 -0.5453  0.6689  0.0540
10500SOL    HW137336   3.295   4.487   5.092 -0.4605  1.3840 -0.2528
10500SOL    HW237337   3.376   4.427   5.204 -1.1513  0.3440 -0.2994
10501SOL     OW37338   1.143   2.484   4.825  0.1040  0.3017 -0.7256
10501SOL    HW137339   1.101   2.561   4.864  1.1882  0.2596  0.6079
10501SOL    HW237340   1.074   2.417   4.825 -0.1073  0.4730  0.6758
10502SOL     OW37341   8.398   8.627  10.042 -0.1079  0.0445 -0.1635
10502SOL    HW137342   8.476   8.574  10.058  0.1269  0.3439 -0.3167
10502SOL    HW237343   8.431   8.714  10.021 -0.5318  1.2638  3.5015
10503SOL     OW37344   7.713   8.767   9.938 -0.1072  0.5735 -0.2608
10503SOL    HW137345   7.688   8.778   9.846  1.1470 -0.5169 -0.7499
10503SOL    HW237346   7.781   8.701   9.937  0.3286  0.9535  1.4136
10504SOL     OW37347   6.497   8.003   4.989  0.5436 -0.0831 -0.0536
10504SOL    HW137348   6.462   8.031   4.904 -2.5217 -2.4937  0.2218
10504SOL    HW237349   6.438   8.044   5.053  0.2429 -1.5410  0.6429
10505SOL     OW37350   9.441   7.143   7.933 -0.0931  0.4949  0.1666
10505SOL    HW137351   9.469   7.062   7.892  0.2189 -0.1617  1.6198
10505SOL    HW237352   9.511   7.165   7.995  0.1538  2.2442 -0.6741
10506SOL     OW37353   7.961   4.989   7.391  0.7369 -0.1283  0.4475
10506SOL    HW137354   8.019   4.956   7.460 -0.1096  0.4253  1.4568
10506SOL    HW237355   7.990   5.079   7.377  1.1074 -0.3383 -0.1459
10507SOL     OW37356   4.415   1.840   0.347 -0.4005 -0.2895 -0.4125
10507SOL    HW137357   4.367   1.771   0.393 -1.9513  0.5708 -0.6352
10507SOL    HW237358   4.501   1.803   0.328 -0.8392 -1.7645  0.3941
10508SOL     OW37359  10.308   8.061   0.127 -0.0866  0.0601  0.6634
10508SOL    HW137360  10.395   8.100   0.135  0.2732 -0.2739 -1.1131
10508SOL    HW237361  10.316   7.975   0.169  0.9873 -0.6971 -0.9786
10509SOL     OW37362   9.543   4.355   2.427  0.0487  0.2849  0.6903
10509SOL    HW137363   9.612   4.416   2.400  1.1754 -0.9049  0.7809
10509SOL    HW237364   9.506   4.394   2.506  1.3817  0.4301  1.2767
10510SOL     OW37365   7.060   8.353   2.656 -0.4288 -0.2933 -0.1851
10510SOL    HW137366   7.001   8.310   2.718  0.2061 -0.1495  0.5415
10510SOL    HW237367   7.144   8.308   2.669 -0.3155 -0.3492 -1.0426
10511SOL     OW37368   3.538  10.292   5.329 -0.3421 -0.2790 -0.0627
10511SOL    HW137369   3.613  10.235   5.342 -0.8909 -0.6749  1.6477
10511SOL    HW237370   3.524  10.334   5.414 -1.4357  0.5616 -0.6144
10512SOL     OW37371   7.364   1.959   2.941 -0.1037 -0.0660 -0.3679
10512SOL    HW137372   7.353   1.868   2.970  1.0847 -0.1605 -0.1563
10512SOL    HW237373   7.312   1.965   2.861 -0.1385 -0.9506 -0.4264
10513SOL     OW37374   5.498   6.918   4.801 -0.4322 -0.1989  0.0958
10513SOL    HW137375   5.511   6.835   4.755 -0.9035  1.0599 -2.4518
10513SOL    HW237376   5.405   6.918   4.824 -0.6527  0.0572 -0.7960
10514SOL     OW37377   2.169   9.166  10.680  0.6264  0.2564 -0.3175
10514SOL    HW137378   2.232   9.203  10.742  0.1462 -1.9381  1.6048
10514SOL    HW237379   2.123   9.099  10.730 -1.3468 -0.1057 -2.4617
10515SOL     OW37380   4.153   4.448   8.641  0.1105 -0.1380 -0.2762
10515SOL    HW137381   4.117   4.401   8.566 -0.3713  0.4711 -0.4332
10515SOL    HW237382   4.108   4.532   8.640 -1.8924 -1.0349  2.2155
10516SOL     OW37383   7.333   0.823   7.935 -0.0736 -0.4470  0.0368
10516SOL    HW137384   7.424   0.849   7.948 -0.7874  4.0718 -2.0540
10516SOL    HW237385   7.335   0.769   7.855  0.7233  0.2153 -0.4051
10517SOL     OW37386   9.362   7.667   3.536  0.1558 -0.5124 -0.6813
10517SOL    HW137387   9.293   7.723   3.572  0.1386 -0.6108 -0.5633
10517SOL    HW237388   9.428   7.729   3.503  1.7213 -0.3598  2.4088
10518SOL     OW37389   6.561   8.233   0.265  0.1744 -0.9040  0.3841
10518SOL    HW137390   6.572   8.188   0.181 -0.4123 -1.7419  0.7398
10518SOL    HW237391   6.485   8.291   0.252 -0.4580 -1.6671  0.5764
10519SOL     OW37392   2.216   1.085  10.301 -0.2217 -0.0640 -0.1026
10519SOL    HW137393   2.238   1.003  10.257  1.5160 -1.1555  2.5124
10519SOL    HW237394   2.226   1.153  10.234  2.6601 -1.5408 -1.3280
10520SOL     OW37395   0.873   1.553   5.341  0.0111 -0.5002  0.2446
10520SOL    HW137396   0.954   1.603   5.338 -1.0051  1.2203 -0.2287
10520SOL    HW237397   0.855   1.531   5.250 -0.6515  0.2003  0.1923
10521SOL     OW37398   6.621   5.735   1.861  0.1237 -0.3045  0.2119
10521SOL    HW137399   6.556   5.760   1.927 -0.0196 -0.4594  0.1288
10521SOL    HW237400   6.611   5.640   1.852 -0.7393 -0.1301 -0.9632
10522SOL     OW37401   5.516   3.524   8.459 -0.2175  0.1032  0.1001
10522SOL    HW137402   5.472   3.456   8.511  0.4625  0.9416  1.8585
10522SOL    HW237403   5.451   3.594   8.451 -0.0385  0.3322  0.5955
10523SOL     OW37404   7.555  10.556   8.698  0.2208 -0.4459  0.7353
10523SOL    HW137405   7.627  10.611   8.668 -1.6857  2.0620  0.5076
10523SOL    HW237406   7.484  10.617   8.718 -2.0422 -2.8254  0.4901
10524SOL     OW37407   9.859   6.171   6.200 -0.4786 -0.3314  0.8189
10524SOL    HW137408   9.904   6.233   6.143 -0.6017 -0.8330  0.1657
10524SOL    HW237409   9.850   6.092   6.147 -0.7307 -0.7557  1.4845
10525SOL     OW37410   5.049   3.987   4.299 -0.0878  0.0674  0.2445
10525SOL    HW137411   5.110   3.976   4.225  0.0198  2.3034 -0.0650
10525SOL    HW237412   5.098   4.037   4.363 -1.6976  2.4467 -0.2510
10526SOL     OW37413   6.968   5.399   6.835  0.5553 -0.0665 -0.2538
10526SOL    HW137414   7.031   5.465   6.863  0.5819 -0.1325 -0.1558
10526SOL    HW237415   7.020   5.337   6.784  0.1933  0.9463 -1.8897
10527SOL     OW37416   6.245   2.276   9.662 -0.1508 -0.4992  0.1279
10527SOL    HW137417   6.182   2.206   9.679  0.7381 -1.7879 -1.6302
10527SOL    HW237418   6.297   2.245   9.588  3.6027 -0.2262  2.3773
10528SOL     OW37419   3.559   1.096   4.298 -0.1389  0.2630 -0.6357
10528SOL    HW137420   3.523   1.020   4.344  2.9244 -0.4204  0.8568
10528SOL    HW237421   3.591   1.153   4.368  0.4950  1.4011 -1.8171
10529SOL     OW37422   8.926   8.205   0.219  0.1185  0.1998  0.0529
10529SOL    HW137423   8.858   8.269   0.199  0.0180  0.7970  2.0202
10529SOL    HW237424   8.896   8.124   0.177 -1.0400  0.8230 -0.3613
10530SOL     OW37425   0.508   7.499   6.212 -0.4783  0.3934 -0.3131
10530SOL    HW137426   0.521   7.406   6.231  0.5304  0.4617 -0.5852
10530SOL    HW237427   0.593   7.528   6.179  0.4225  2.2960  3.2219
10531SOL     OW37428  10.416  10.504   0.639 -0.2479  0.1220  0.4575
10531SOL    HW137429  10.489  10.537   0.587 -0.7379 -2.7370 -2.4013
10531SOL    HW237430  10.338  10.521   0.585 -0.9986 -1.5704  0.9353
10532SOL     OW37431   8.642   9.918  10.828 -0.0364 -0.0434  0.1531
10532SOL    HW137432   8.579   9.849  10.848 -0.7008  1.2329  2.9797
10532SOL    HW237433   8.660   9.959  10.913  3.0904  0.9491 -0.8560
10533SOL     OW37434   7.671   6.646  10.090 -0.9940  0.8252  0.5464
10533SOL    HW137435   7.728   6.573  10.115 -0.8027  0.4888 -0.7709
10533SOL    HW237436   7.632   6.617  10.007 -1.0496  2.1484  0.0988
10534SOL     OW37437   3.125   0.205   7.627  0.1412 -0.3136  0.3151
10534SOL    HW137438   3.179   0.166   7.559 -0.3052 -0.0902 -0.1800
10534SOL    HW237439   3.187   0.253   7.683  0.3397  1.1184 -1.0438
10535SOL     OW37440   7.775   1.254   9.801  0.0680 -0.3379 -0.2605
10535SOL    HW137441   7.810   1.311   9.733 -0.9896  3.4763  2.0479
10535SOL    HW237442   7.685   1.236   9.773 -0.0201  0.3272 -0.4421
10536SOL     OW37443   3.171   2.754   2.434 -0.2024  0.2686  0.2295
10536SOL    HW137444   3.126   2.688   2.487 -2.2211  1.8407  0.6176
10536SOL    HW237445   3.102   2.791   2.379  1.1338  1.1922 -0.8856
10537SOL     OW37446   2.042  10.458   5.706  0.1762  0.2861 -0.3443
10537SOL    HW137447   2.108  10.499   5.651 -0.2669  0.9289 -0.4090
10537SOL    HW237448   2.057  10.364   5.696  2.7193  0.3626  1.6150
10538SOL     OW37449   4.649   0.888   9.426 -0.7316 -0.1008  0.3084
10538SOL    HW137450   4.717   0.821   9.417 -1.1096 -0.5917  0.9639
10538SOL    HW237451   4.646   0.907   9.520 -2.0858 -0.7489  0.4326
10539SOL     OW37452   5.009   1.090   4.679  0.5751  0.1235 -0.0589
10539SOL    HW137453   5.098   1.111   4.709  1.5754  0.0078 -2.6279
10539SOL    HW237454   4.954   1.156   4.720  2.3003  2.0245 -0.5922
10540SOL     OW37455   6.567   9.200   4.938  0.0360  0.2391 -0.3463
10540SOL    HW137456   6.539   9.132   4.878  0.5232  0.1183 -0.4453
10540SOL    HW237457   6.662   9.190   4.942  0.1663  1.1989 -0.7140
10541SOL     OW37458   9.778   4.921   6.812 -0.5506  0.4038  0.1193
10541SOL    HW137459   9.830   4.960   6.742 -2.0779  1.3556 -0.5511
10541SOL    HW237460   9.814   4.958   6.893  1.6544 -1.2039 -0.0352
10542SOL     OW37461   1.093   0.815   9.039  0.5070  0.1379  0.3523
10542SOL    HW137462   1.069   0.906   9.052 -0.1946 -0.0578  0.4429
10542SOL    HW237463   1.123   0.811   8.948 -1.1952  0.1011 -0.2402
10543SOL     OW37464   0.809   2.872   1.804 -0.4480  0.4203  0.0700
10543SOL    HW137465   0.813   2.800   1.866  1.1002 -0.0167 -0.4855
10543SOL    HW237466   0.719   2.902   1.807 -0.6827 -0.3731  1.6325
10544SOL     OW37467   2.067   2.644   3.017  0.3720 -0.3327  0.3200
10544SOL    HW137468   2.014   2.684   2.948  1.4482 -0.8481 -0.8278
10544SOL    HW237469   2.002   2.605   3.076 -0.5986  0.9134  0.1242
10545SOL     OW37470   8.187   6.483   5.033  0.2815 -0.1052 -0.0299
10545SOL    HW137471   8.137   6.479   5.115 -0.0600 -1.7459 -0.2929
10545SOL    HW237472   8.275   6.451   5.056  0.6085  0.7753 -0.0181
10546SOL     OW37473   4.271   2.923   5.643  0.6147  0.2024  0.2123
10546SOL    HW137474   4.350   2.965   5.611  1.2499  0.7103  2.3131
10546SOL    HW237475   4.216   2.995   5.674  0.0722 -0.2722  0.3785
10547SOL     OW37476   2.511   1.507   6.689  0.0315 -0.4025  0.3455
10547SOL    HW137477   2.510   1.518   6.594 -1.0196 -0.2057  0.3696
10547SOL    HW237478   2.585   1.560   6.719 -0.2196  0.3132 -0.2706
10548SOL     OW37479   7.928   2.598   0.595  0.2314  0.1899  0.1938
10548SOL    HW137480   8.004   2.548   0.626 -0.3019 -0.5486  0.3467
10548SOL    HW237481   7.894   2.546   0.522  0.3829  0.9674 -0.4443
10549SOL     OW37482   9.273   9.420   3.975  0.3658 -0.5133  0.4360
10549SOL    HW137483   9.308   9.419   3.885 -0.8581 -0.6456 -0.0601
10549SOL    HW237484   9.323   9.353   4.021 -0.0195 -1.5108 -0.5587
10550SOL     OW37485   9.264   5.810   9.820  0.2856 -0.4499  0.5323
10550SOL    HW137486   9.305   5.760   9.751  0.8526  1.2031 -0.3923
10550SOL    HW237487   9.172   5.783   9.818  0.3689 -0.6924 -0.6299
10551SOL     OW37488   7.500   8.210   2.347 -0.2466 -0.0533 -0.3647
10551SOL    HW137489   7.465   8.121   2.348 -0.2285 -0.0742 -1.3273
10551SOL    HW237490   7.538   8.220   2.260 -2.5684  1.8006 -1.2414
10552SOL     OW37491   2.163   1.621   9.605 -0.1194 -0.0119  0.2118
10552SOL    HW137492   2.252   1.644   9.632  0.0707  0.0071 -0.4214
10552SOL    HW237493   2.174   1.545   9.549 -0.7363 -1.5941  2.1325
10553SOL     OW37494   2.680   2.706   2.219  0.0439 -0.0724  0.2269
10553SOL    HW137495   2.617   2.740   2.155  1.4450  2.5515  0.1090
10553SOL    HW237496   2.749   2.666   2.166  1.2952  2.2631 -0.0037
10554SOL     OW37497   0.170   5.594   5.626  0.0618  0.5126  0.5141
10554SOL    HW137498   0.191   5.684   5.650 -0.9642  1.0775 -0.6127
10554SOL    HW237499   0.155   5.549   5.709 -0.7004  1.6975  1.0303
10555SOL     OW37500   5.078   1.466   6.645 -0.3157  0.4871 -0.2958
10555SOL    HW137501   5.046   1.387   6.687  0.3098  0.5822  0.3826
10555SOL    HW237502   5.160   1.440   6.603 -1.3910  0.1640 -2.2981
10556SOL     OW37503   7.997   7.385  10.268 -0.3460 -0.0913 -0.0099
10556SOL    HW137504   7.990   7.333  10.188 -0.1704 -0.2005  0.0459
10556SOL    HW237505   8.011   7.321  10.337 -1.5238 -0.0838  0.2580
10557SOL     OW37506   3.227   8.611  10.189 -0.0968  0.2288 -0.9510
10557SOL    HW137507   3.312   8.651  10.210 -1.6555  2.2535  2.3395
10557SOL    HW237508   3.239   8.519  10.210  0.3283  1.0985  3.7674
10558SOL     OW37509   4.431   4.022   8.395 -0.7762  0.0401 -0.1125
10558SOL    HW137510   4.357   3.979   8.353 -0.0319 -0.6818 -0.7301
10558SOL    HW237511   4.491   4.042   8.323  0.0885 -0.3318  0.4867
10559SOL     OW37512   6.830   1.589   3.057 -1.1515 -0.2448 -0.2046
10559SOL    HW137513   6.789   1.653   3.116 -2.7821  0.0271 -1.5394
10559SOL    HW237514   6.826   1.506   3.106 -2.0622  0.0568  0.2663
10560SOL     OW37515   5.730   6.519   7.569  0.3730 -0.0063 -0.4341
10560SOL    HW137516   5.759   6.530   7.660 -2.1904 -3.5808  1.0284
10560SOL    HW237517   5.791   6.456   7.532 -0.6227 -1.3358  0.0798
10561SOL     OW37518   2.627   9.231   3.407  0.3659  0.1969 -0.0107
10561SOL    HW137519   2.652   9.323   3.397 -0.2544  0.1686 -2.9191
10561SOL    HW237520   2.534   9.234   3.428  0.0196  0.2873 -1.4358
10562SOL     OW37521   7.406   3.363   4.776  0.6508  0.2769 -0.5576
10562SOL    HW137522   7.311   3.357   4.777  0.6612  0.2376  0.1147
10562SOL    HW237523   7.425   3.436   4.716  0.2843 -1.0788 -2.4346
10563SOL     OW37524  10.848   5.696   0.716 -0.0291 -0.0910 -0.3591
10563SOL    HW137525  10.877   5.703   0.626 -0.4212  1.3834 -0.3922
10563SOL    HW237526  10.754   5.678   0.710  0.1031 -0.8659 -0.2352
10564SOL     OW37527   5.628   1.391   3.623 -0.1213  0.1074 -0.4887
10564SOL    HW137528   5.621   1.297   3.608 -0.8556  0.1530 -0.4419
10564SOL    HW237529   5.559   1.411   3.686  0.4278  0.5770 -0.0266
10565SOL     OW37530   5.142   7.783   9.372  0.3885  0.7732 -0.4735
10565SOL    HW137531   5.118   7.831   9.451 -0.0658  0.4163 -0.3941
10565SOL    HW237532   5.235   7.761   9.385  0.3053  0.6761 -0.0183
10566SOL     OW37533   1.286   6.064   6.690 -0.1132  0.4842  0.1143
10566SOL    HW137534   1.330   6.091   6.771 -1.1770 -1.3522  1.3903
10566SOL    HW237535   1.277   6.144   6.639 -0.7354  2.0021  2.4761
10567SOL     OW37536   3.113   8.733   8.143 -0.2078 -0.0956  0.0265
10567SOL    HW137537   3.176   8.735   8.071  0.8120 -2.2189  0.7562
10567SOL    HW237538   3.058   8.656   8.124 -1.0070  0.3083  0.6499
10568SOL     OW37539   1.499   1.873   7.763  0.1897  0.4418 -0.6964
10568SOL    HW137540   1.436   1.897   7.696 -1.7983  2.2157  1.6245
10568SOL    HW237541   1.570   1.937   7.754 -0.6522  1.4400 -0.3822
10569SOL     OW37542   0.067   5.217   9.576  0.2266  0.4514 -0.0066
10569SOL    HW137543   0.031   5.216   9.665  1.1839  1.3194  0.3988
10569SOL    HW237544   0.021   5.289   9.533 -2.4117 -1.7310 -1.1966
10570SOL     OW37545   8.932   9.994   4.154  0.1909 -0.3455 -0.2370
10570SOL    HW137546   8.895   9.962   4.236  2.1223 -0.1909  0.7375
10570SOL    HW237547   8.912   9.925   4.090 -3.3870  0.5307 -0.3247
10571SOL     OW37548   5.450   3.712   2.613  0.1091 -0.3663 -0.1465
10571SOL    HW137549   5.367   3.705   2.567 -0.2521 -0.1093  0.4566
10571SOL    HW237550   5.489   3.792   2.579 -0.6279  0.3847  0.7282
10572SOL     OW37551  10.113   1.657   1.900 -0.1564  0.1233 -0.5432
10572SOL    HW137552  10.207   1.638   1.911 -0.3607 -0.8279 -0.3359
10572SOL    HW237553  10.084   1.594   1.834 -0.7201  0.2095 -0.3759
10573SOL     OW37554   4.966   5.605   6.853  0.2655  0.3379  0.3773
10573SOL    HW137555   4.998   5.517   6.837 -0.5772  0.1282 -0.2063
10573SOL    HW237556   5.012   5.634   6.931 -0.6968 -1.2715  1.5995
10574SOL     OW37557   6.543   2.127  10.096 -0.0170 -0.3236  0.0762
10574SOL    HW137558   6.592   2.208  10.076 -0.7188 -0.0731 -0.6724
10574SOL    HW237559   6.552   2.117  10.191 -0.4232  0.9788  0.2750
10575SOL     OW37560   9.804   1.104   9.052  0.4079 -0.1546  0.2193
10575SOL    HW137561   9.857   1.121   9.130 -0.7511 -0.4678  1.0998
10575SOL    HW237562   9.771   1.015   9.065  0.8264 -0.5053 -1.0115
10576SOL     OW37563   9.923   5.497   8.660 -0.0377 -0.2571 -0.6886
10576SOL    HW137564   9.905   5.585   8.626  0.6616 -1.2135 -3.8541
10576SOL    HW237565  10.000   5.468   8.611  0.6786 -2.0969  1.3900
10577SOL     OW37566   8.644   8.612   7.667  0.0967  0.5661  0.0541
10577SOL    HW137567   8.582   8.545   7.694 -1.1329  0.8792 -1.8191
10577SOL    HW237568   8.603   8.695   7.692  0.3567  0.7196 -0.0210
10578SOL     OW37569   6.862   3.258   5.628  0.2253 -0.1350  0.7188
10578SOL    HW137570   6.843   3.167   5.609  1.3978 -0.4557  1.0126
10578SOL    HW237571   6.776   3.299   5.637 -0.4227 -1.8664  3.7197
10579SOL     OW37572   7.115   9.082   6.240 -0.1695 -0.4210 -0.5543
10579SOL    HW137573   7.027   9.121   6.232 -0.4221 -0.9983 -0.6065
10579SOL    HW237574   7.116   9.043   6.327 -0.2653 -1.1422 -0.8703
10580SOL     OW37575   1.442  10.436   5.558  0.1946 -0.0240  0.1026
10580SOL    HW137576   1.393  10.487   5.622 -0.2572 -0.7824  0.3703
10580SOL    HW237577   1.499  10.500   5.516  0.0845  0.5928  0.8569
10581SOL     OW37578   3.734   7.315   3.210  0.0005 -0.2728  0.1542
10581SOL    HW137579   3.824   7.315   3.240  0.6990  0.4064 -1.8097
10581SOL    HW237580   3.716   7.405   3.184 -1.5227 -0.2248  1.1767
10582SOL     OW37581   9.753   2.412   8.985 -0.3020 -0.0020  0.5851
10582SOL    HW137582   9.746   2.323   8.951  1.1497 -0.7717  2.1339
10582SOL    HW237583   9.760   2.467   8.907 -0.8257 -1.2717 -0.3995
10583SOL     OW37584   2.248  10.890   7.785 -0.2141  0.2403  0.5208
10583SOL    HW137585   2.210  10.893   7.874 -1.3173  0.3897  0.0643
10583SOL    HW237586   2.181  10.846   7.732  0.8970 -0.8427 -0.0355
10584SOL     OW37587   1.020   1.672   3.203  0.3271 -0.0752  0.1590
10584SOL    HW137588   1.066   1.660   3.120 -0.2777 -0.2494 -0.1591
10584SOL    HW237589   1.089   1.672   3.269  0.9366  1.2783 -0.4508
10585SOL     OW37590   9.735   9.837   6.297  0.1618  0.0599  0.4535
10585SOL    HW137591   9.798   9.766   6.313 -0.6032 -0.5859  0.6680
10585SOL    HW237592   9.767   9.910   6.349  0.5445 -0.3714  0.8331
10586SOL     OW37593   8.947   9.946   8.546 -0.0170  0.0918 -0.4822
10586SOL    HW137594   8.912   9.960   8.458  0.0252 -0.1896 -0.5444
10586SOL    HW237595   9.042   9.941   8.533 -0.0280 -0.2055 -0.4570
10587SOL     OW37596  10.408   8.313   1.219 -0.2284  0.9394  0.2054
10587SOL    HW137597  10.490   8.320   1.169 -0.9895  1.3956 -1.0371
10587SOL    HW237598  10.356   8.388   1.191 -2.5678 -1.2614 -1.9191
10588SOL     OW37599   7.962   3.688   3.763 -0.1402 -0.4305  0.2815
10588SOL    HW137600   8.053   3.713   3.746  0.1254 -1.7733 -0.4081
10588SOL    HW237601   7.968   3.611   3.819 -0.8722 -0.2471  0.6243
10589SOL     OW37602   6.957   7.765   5.591 -0.7363 -0.7011  0.1872
10589SOL    HW137603   6.993   7.854   5.596 -2.1743 -0.0639 -0.1456
10589SOL    HW237604   6.864   7.779   5.573 -1.1266 -2.2719  0.8897
10590SOL     OW37605   1.550   3.573   5.036 -0.6087 -0.2552 -0.3437
10590SOL    HW137606   1.559   3.653   5.086 -0.3295 -0.1021 -0.6370
10590SOL    HW237607   1.639   3.552   5.008 -0.6135 -0.9107  0.1088
10591SOL     OW37608   3.818   6.225   7.156  0.0997 -0.2429  0.3575
10591SOL    HW137609   3.806   6.311   7.115  0.6428 -0.0023  0.6844
10591SOL    HW237610   3.768   6.230   7.237 -0.2159 -0.3892  0.1737
10592SOL     OW37611   4.040   0.897   1.573  0.1462  0.3729 -0.0684
10592SOL    HW137612   3.976   0.966   1.589  0.8869  0.9047  0.7088
10592SOL    HW237613   4.097   0.900   1.650  1.0729 -0.1141 -0.7234
10593SOL     OW37614   5.562   7.676  10.144  0.3348  0.0214  0.2936
10593SOL    HW137615   5.652   7.696  10.118  0.2924  0.0405  0.1576
10593SOL    HW237616   5.509   7.740  10.096  0.2529  0.0413  0.4112
10594SOL     OW37617   4.372   9.209   9.816 -0.1893 -0.3777  0.2300
10594SOL    HW137618   4.356   9.176   9.727  1.9691 -0.4262 -0.1872
10594SOL    HW237619   4.462   9.184   9.835 -0.0721  1.0671  1.8097
10595SOL     OW37620   9.701   6.466   0.576 -0.3601  0.0688  0.0404
10595SOL    HW137621   9.712   6.432   0.665 -1.3443 -0.1138  0.1062
10595SOL    HW237622   9.717   6.391   0.519  1.2483  0.4179  0.0082
10596SOL     OW37623   2.995   3.939   3.191  0.2446  0.0227  0.4184
10596SOL    HW137624   3.001   4.012   3.130  1.4508  0.2614  0.7905
10596SOL    HW237625   2.906   3.944   3.226 -0.1566  0.4270 -0.6320
10597SOL     OW37626   4.026   7.388   1.636  0.4373  0.1788 -0.3595
10597SOL    HW137627   4.106   7.397   1.584  0.9245  1.2070  0.5127
10597SOL    HW237628   4.035   7.455   1.704 -1.2468  0.4207 -0.3383
10598SOL     OW37629   5.542   2.501   2.065  0.6359  0.3821  0.2044
10598SOL    HW137630   5.564   2.553   2.143  0.0941 -0.1727  0.7437
10598SOL    HW237631   5.459   2.459   2.088  0.5304  0.1243 -0.6372
10599SOL     OW37632   3.066   0.274   6.787  0.0492 -0.6335 -0.5881
10599SOL    HW137633   3.111   0.358   6.776 -1.2677 -0.0758 -2.0858
10599SOL    HW237634   3.018   0.284   6.869  1.7864 -0.8687  0.5075
10600SOL     OW37635   4.125   1.102   2.048 -0.2406  0.5459  0.0172
10600SOL    HW137636   4.166   1.054   2.121  0.1930  1.7206  0.5809
10600SOL    HW237637   4.069   1.167   2.091 -0.6624  0.6733 -0.7190
10601SOL     OW37638   8.231   2.777   6.045  0.0490  0.2410 -0.1575
10601SOL    HW137639   8.267   2.811   5.963  2.0522  0.3294  0.7002
10601SOL    HW237640   8.199   2.855   6.091 -0.5102  0.2637 -0.5737
10602SOL     OW37641   6.408  10.377   9.542 -0.1860 -0.4072 -0.1159
10602SOL    HW137642   6.398  10.415   9.454  0.8472 -0.7117 -0.3721
10602SOL    HW237643   6.472  10.307   9.531  0.3032 -0.1479  0.9714
10603SOL     OW37644   6.195   6.791   2.963  0.2731 -0.0860 -0.1642
10603SOL    HW137645   6.168   6.759   3.049  1.2756  0.0108  0.1974
10603SOL    HW237646   6.197   6.712   2.909 -0.2845 -0.1583 -0.0903
10604SOL     OW37647   2.026   3.870   8.715  0.0806  0.2033 -0.0934
10604SOL    HW137648   2.063   3.802   8.659  2.5830  0.9295  0.5738
10604SOL    HW237649   1.959   3.912   8.661  1.3119 -0.1593 -1.9785
10605SOL     OW37650   9.529   8.505   7.766  0.0626 -0.0467 -0.3285
10605SOL    HW137651   9.548   8.430   7.709  1.7928  0.1267 -0.0436
10605SOL    HW237652   9.601   8.506   7.829 -0.6034  1.1240  0.4601
10606SOL     OW37653   6.884   3.567   5.891  0.7155 -0.2054 -0.3969
10606SOL    HW137654   6.815   3.607   5.944  2.8860  0.5427  2.0363
10606SOL    HW237655   6.887   3.622   5.812 -0.5281  0.5700  0.0547
10607SOL     OW37656   8.227   8.048   1.649 -0.1911  0.1215 -0.0689
10607SOL    HW137657   8.144   8.096   1.646  0.1037  0.5958 -0.9312
10607SOL    HW237658   8.254   8.053   1.740 -1.6085 -0.9173  0.4525
10608SOL     OW37659   3.501   2.691   1.637 -0.0049 -0.3110  0.2582
10608SOL    HW137660   3.471   2.747   1.566  0.0281 -1.8227 -0.9720
10608SOL    HW237661   3.576   2.739   1.674 -1.5819  1.7355  1.0230
10609SOL     OW37662   2.468   2.526  10.540 -0.3224  0.3435 -0.5527
10609SOL    HW137663   2.529   2.472  10.490 -0.4756 -0.2895 -0.0723
10609SOL    HW237664   2.452   2.602  10.484 -0.1359 -0.1283 -1.2655
10610SOL     OW37665   1.236   4.252   1.168 -0.2011  0.4256  0.1261
10610SOL    HW137666   1.317   4.295   1.196 -0.6269  1.6250 -0.4435
10610SOL    HW237667   1.167   4.298   1.215 -0.6526  0.1955 -0.3139
10611SOL     OW37668   6.049   0.369   5.086  0.6436  0.3493 -0.5884
10611SOL    HW137669   6.085   0.451   5.053 -0.0338  0.8205 -0.1848
10611SOL    HW237670   6.125   0.321   5.119  0.8518  1.6818  1.0329
10612SOL     OW37671   7.338   0.529   6.488  0.1640  0.2416 -0.2252
10612SOL    HW137672   7.418   0.560   6.447  0.0164 -1.0511 -1.5689
10612SOL    HW237673   7.274   0.527   6.417 -0.4067 -0.9823  0.2957
10613SOL     OW37674   2.844   6.003   6.627  0.5475  0.0534 -0.2455
10613SOL    HW137675   2.828   6.049   6.710 -0.5862 -0.9993  0.1620
10613SOL    HW237676   2.758   6.001   6.585  1.0354  0.1949 -1.2573
10614SOL     OW37677   2.737   0.756   3.154 -0.2297  0.0720  0.1425
10614SOL    HW137678   2.649   0.792   3.142  0.0256  0.4291 -0.7566
10614SOL    HW237679   2.748   0.694   3.081  0.1031 -0.3058  0.5024
10615SOL     OW37680   5.338   6.553   3.659 -0.4230  0.2337  0.2224
10615SOL    HW137681   5.342   6.468   3.703 -1.3051  0.5632  0.9844
10615SOL    HW237682   5.395   6.609   3.711 -1.7913  0.7329  1.2656
10616SOL     OW37683   7.291   1.556  10.867  0.9139  0.2995 -0.3622
10616SOL    HW137684   7.347   1.526  10.796  1.5475 -0.0943  0.2906
10616SOL    HW237685   7.291   1.651  10.860 -0.3843  0.2353 -1.9021
10617SOL     OW37686  10.259   5.896   4.936 -0.4393 -1.1920  0.4193
10617SOL    HW137687  10.165   5.903   4.951 -0.7039 -1.1812 -1.0715
10617SOL    HW237688  10.279   5.803   4.948 -0.7161 -1.2621  0.3337
10618SOL     OW37689   0.375   6.706   5.739 -0.1347 -0.6770  0.8281
10618SOL    HW137690   0.362   6.789   5.692  1.3145  0.6105  2.5568
10618SOL    HW237691   0.430   6.654   5.680 -1.8357 -0.8769 -0.6932
10619SOL     OW37692   8.943   5.134   2.641  0.3313  0.1924  0.6266
10619SOL    HW137693   8.969   5.223   2.619 -0.8003  0.4809  0.3872
10619SOL    HW237694   8.854   5.143   2.676 -0.3210 -0.9733 -0.6296
10620SOL     OW37695   1.285   7.896  10.064 -0.0172  0.7757 -0.2813
10620SOL    HW137696   1.297   7.859   9.976 -0.3122  1.8466 -0.7817
10620SOL    HW237697   1.346   7.846  10.119  0.2667  0.1806 -1.1121
10621SOL     OW37698   9.897   3.731  10.011  0.6314  0.1277 -0.4677
10621SOL    HW137699   9.947   3.650  10.026  0.6442  0.5982  2.5248
10621SOL    HW237700   9.824   3.704   9.956  0.2660 -2.1016  0.9996
10622SOL     OW37701   8.945   8.139   2.642 -0.0502 -0.3238  0.2876
10622SOL    HW137702   8.928   8.233   2.652 -1.7464 -0.6079  0.3040
10622SOL    HW237703   8.982   8.130   2.554 -1.7768  0.1465 -0.5181
10623SOL     OW37704   5.580   1.522   7.390 -0.7173 -0.5424  0.2102
10623SOL    HW137705   5.642   1.451   7.371 -0.5438 -0.9441  2.0884
10623SOL    HW237706   5.618   1.567   7.466 -0.3627  2.1527 -1.4381
10624SOL     OW37707   0.788   1.552   7.796  0.2906 -0.3515 -0.1143
10624SOL    HW137708   0.802   1.461   7.821 -0.3867 -0.7314 -1.0318
10624SOL    HW237709   0.866   1.575   7.745  0.0851 -0.6981 -0.5943
10625SOL     OW37710   5.069   8.330   9.672  0.1128  0.0394 -0.4154
10625SOL    HW137711   5.138   8.366   9.727 -0.3526  0.0627  0.1577
10625SOL    HW237712   5.106   8.249   9.637 -0.2936 -1.0660  1.5563
10626SOL     OW37713   2.876  10.302   5.069 -0.4146 -0.3488 -0.6620
10626SOL    HW137714   2.865  10.207   5.074 -1.5320 -0.2212 -0.5389
10626SOL    HW237715   2.909  10.326   5.156 -0.3922 -0.5955 -0.5996
10627SOL     OW37716   5.992   0.827  10.550  0.1268  0.2561  0.3798
10627SOL    HW137717   5.925   0.892  10.572  1.0328  0.6911  1.9620
10627SOL    HW237718   6.071   0.857  10.595  0.2427 -2.6841  2.4259
10628SOL     OW37719   2.301   2.855   6.137 -0.2708 -0.1437  0.0155
10628SOL    HW137720   2.336   2.886   6.220 -2.3273  1.0035  0.5258
10628SOL    HW237721   2.320   2.926   6.075  0.5846 -0.6663 -0.3390
10629SOL     OW37722   3.726   3.822   5.542  0.4276  0.0536 -0.4258
10629SOL    HW137723   3.815   3.823   5.507  0.9274 -0.0616  0.7683
10629SOL    HW237724   3.716   3.907   5.586  0.0086 -0.0002 -0.4100
10630SOL     OW37725   2.682   5.892   6.908 -0.2912 -0.1934  0.5334
10630SOL    HW137726   2.733   5.966   6.941 -1.7185  1.4584 -0.7408
10630SOL    HW237727   2.636   5.927   6.831 -0.8216 -2.4966 -0.2963
10631SOL     OW37728   1.270   6.612   2.869 -0.2553 -0.0914  0.1650
10631SOL    HW137729   1.299   6.521   2.880  2.5212  0.6613 -0.2317
10631SOL    HW237730   1.247   6.618   2.776  0.6430 -0.1521 -0.0758
10632SOL     OW37731   2.349   8.060   0.976  0.3660 -0.3692  0.1334
10632SOL    HW137732   2.337   8.101   0.890 -0.6597 -0.9473 -0.0148
10632SOL    HW237733   2.319   8.126   1.038  0.6998 -0.1137  0.0280
10633SOL     OW37734   0.409   6.266   2.217  0.3580  0.0318  0.1292
10633SOL    HW137735   0.464   6.317   2.277 -0.1558 -0.8380  1.3833
10633SOL    HW237736   0.431   6.299   2.130  0.4653  1.9691  0.8521
10634SOL     OW37737   6.168   5.315   3.063 -0.2798  0.4663  0.1329
10634SOL    HW137738   6.210   5.389   3.018  0.4490  0.0066  0.0571
10634SOL    HW237739   6.086   5.303   3.015 -0.2644  1.0260 -0.0500
10635SOL     OW37740   6.335   5.842   4.411  0.4842  0.1065  0.1953
10635SOL    HW137741   6.416   5.871   4.452  0.2615 -1.4343  1.8325
10635SOL    HW237742   6.268   5.855   4.478  0.1148 -2.5393  0.4297
10636SOL     OW37743   8.925   7.695  10.415  0.2488 -0.1134 -0.1546
10636SOL    HW137744   8.915   7.788  10.433  0.4973 -0.1874  0.3896
10636SOL    HW237745   8.857   7.653  10.468  0.1473 -0.2443 -0.3864
10637SOL     OW37746   2.198   0.212   8.838  0.0972 -0.0858  0.1907
10637SOL    HW137747   2.228   0.198   8.927 -1.0677 -0.8594  0.4848
10637SOL    HW237748   2.169   0.304   8.836  1.6312  0.4199  0.1241
10638SOL     OW37749   4.201   2.274   7.195 -0.4671 -0.0697 -0.3218
10638SOL    HW137750   4.184   2.364   7.224  1.6656  0.7820 -1.4334
10638SOL    HW237751   4.210   2.224   7.277  1.2062  1.3681  0.4485
10639SOL     OW37752   5.003   7.173   3.716  0.3727  0.8524 -0.0387
10639SOL    HW137753   5.053   7.193   3.795  0.0180  2.5840 -0.2157
10639SOL    HW237754   4.927   7.124   3.747 -0.1047  2.0922  0.8021
10640SOL     OW37755   7.204   0.849   4.246  0.5328 -0.1456  0.8235
10640SOL    HW137756   7.177   0.869   4.156 -1.0189  1.5146  1.5903
10640SOL    HW237757   7.206   0.934   4.289  0.2059 -1.0063  2.6296
10641SOL     OW37758   2.831   0.574   2.618  0.5606  0.4566 -0.0531
10641SOL    HW137759   2.806   0.636   2.687 -2.7682 -0.6724 -0.1062
10641SOL    HW237760   2.875   0.503   2.664  0.4411  0.7846  0.5786
10642SOL     OW37761   5.416   5.172   4.592  0.3171  0.5302 -0.7596
10642SOL    HW137762   5.376   5.123   4.664  0.1765 -1.2711 -2.0111
10642SOL    HW237763   5.410   5.264   4.619 -2.5450  0.1606  0.1404
10643SOL     OW37764   4.671   9.950   6.242 -0.3007 -0.2234 -0.5927
10643SOL    HW137765   4.685  10.009   6.168 -1.6543 -1.2395 -1.7023
10643SOL    HW237766   4.648   9.866   6.202  0.2897 -1.1721  0.9713
10644SOL     OW37767   2.873   9.498   4.128  0.6778 -0.1288 -0.2187
10644SOL    HW137768   2.876   9.572   4.068  1.0316 -0.0019 -0.0455
10644SOL    HW237769   2.783   9.466   4.122  0.7882 -0.3047 -1.0374
10645SOL     OW37770  10.727   3.157   8.103 -0.0617  0.0537 -0.6252
10645SOL    HW137771  10.680   3.174   8.185 -0.3297  0.1202 -0.7949
10645SOL    HW237772  10.664   3.111   8.048  0.6820 -1.6565 -0.1326
10646SOL     OW37773   7.815   4.189   1.479 -0.0209 -0.5521  0.0124
10646SOL    HW137774   7.729   4.201   1.441  0.3626  1.7914 -0.2750
10646SOL    HW237775   7.808   4.109   1.531 -2.0933 -0.8557 -0.6565
10647SOL     OW37776   2.624   1.784   0.290 -0.2015  0.1827  0.0059
10647SOL    HW137777   2.659   1.713   0.237 -0.9631 -1.5174  1.6874
10647SOL    HW237778   2.665   1.863   0.253 -0.4567 -0.8876 -2.8813
10648SOL     OW37779   5.262   9.914   2.343  0.1396  0.5739  0.0480
10648SOL    HW137780   5.353   9.929   2.320 -0.0025  1.2704 -0.0723
10648SOL    HW237781   5.260   9.916   2.438  0.1580  1.1227  0.0382
10649SOL     OW37782  10.880   1.753   5.062  0.2213 -0.1557  0.1054
10649SOL    HW137783  10.828   1.807   5.003 -0.3184  0.6498  1.2735
10649SOL    HW237784  10.911   1.813   5.129  2.7759 -0.5823 -0.5696
10650SOL     OW37785   1.549   5.501   9.438 -0.2471 -0.5144 -0.5248
10650SOL    HW137786   1.494   5.574   9.409 -0.4982 -0.3462  0.3383
10650SOL    HW237787   1.548   5.508   9.534  1.6529 -0.2170 -0.4911
10651SOL     OW37788   3.628   0.704   3.784  0.3891 -0.7575  0.0707
10651SOL    HW137789   3.541   0.684   3.749 -0.8297 -0.5454  2.7492
10651SOL    HW237790   3.626   0.798   3.802  1.4174 -0.6341 -0.3662
10652SOL     OW37791   0.428   4.984   2.422  0.8284 -0.1921 -0.1431
10652SOL    HW137792   0.490   5.037   2.372  0.0422  0.0934 -0.8422
10652SOL    HW237793   0.361   5.047   2.451 -0.1388 -0.7859 -1.0142
10653SOL     OW37794   5.841   8.890   2.793 -0.3017  0.1305  0.2928
10653SOL    HW137795   5.877   8.823   2.851 -1.3734  0.8621  1.8774
10653SOL    HW237796   5.917   8.928   2.749  0.3147 -2.2769 -0.8795
10654SOL     OW37797   5.211   0.066   0.619 -0.2696 -0.0270 -0.6019
10654SOL    HW137798   5.148   0.010   0.665  1.1960  0.1078  1.7352
10654SOL    HW237799   5.173   0.154   0.624 -0.5985 -0.1699 -0.5483
10655SOL     OW37800   7.876   6.897   6.672 -0.2671  0.4749  0.5827
10655SOL    HW137801   7.814   6.832   6.640 -0.0871  0.3785  0.4279
10655SOL    HW237802   7.903   6.864   6.758  1.4455 -0.7917 -0.3714
10656SOL     OW37803  10.617   7.732   6.619  0.0062 -0.1801  0.1898
10656SOL    HW137804  10.560   7.656   6.613  1.0326 -1.1690  2.0320
10656SOL    HW237805  10.567   7.795   6.671 -0.6434  0.2417 -0.9124
10657SOL     OW37806   5.656   5.713   8.051 -0.2929  0.0616  0.2153
10657SOL    HW137807   5.620   5.752   7.971  2.9141 -1.1808 -2.0204
10657SOL    HW237808   5.652   5.784   8.115 -1.0455  1.8138 -1.6564
10658SOL     OW37809   5.447   9.656   5.682  0.1552  0.4273  0.6304
10658SOL    HW137810   5.391   9.731   5.662  0.9501  0.7974 -0.2860
10658SOL    HW237811   5.534   9.694   5.693  0.5784 -0.3763  0.0817
10659SOL     OW37812  10.701   5.096  10.175  0.1564 -0.3879 -0.3654
10659SOL    HW137813  10.776   5.150  10.151 -0.9173  1.9302  1.0850
10659SOL    HW237814  10.689   5.111  10.269 -1.7284 -1.1778 -0.4178
10660SOL     OW37815   9.342   3.607   4.519  0.0519 -0.7706 -0.1528
10660SOL    HW137816   9.351   3.571   4.431  2.6965  1.4093 -0.9227
10660SOL    HW237817   9.384   3.542   4.576 -0.5510 -1.6123 -0.6525
10661SOL     OW37818   2.862   5.034  10.661  0.5828 -0.0168  0.2544
10661SOL    HW137819   2.904   5.103  10.713  0.4320 -0.3736  0.8579
10661SOL    HW237820   2.856   5.071  10.573  2.0022  0.1124  0.1865
10662SOL     OW37821   5.048   8.459   9.013  0.0147 -0.6719 -0.0774
10662SOL    HW137822   4.985   8.491   9.078 -1.8768 -2.9791 -0.6056
10662SOL    HW237823   5.036   8.517   8.938  0.1139  0.2343  0.5902
10663SOL     OW37824   3.754   0.383   6.752 -0.6067  0.1008  0.3926
10663SOL    HW137825   3.728   0.291   6.763  0.2068 -0.2669 -0.5400
10663SOL    HW237826   3.679   0.425   6.712 -1.3500  0.0828  1.7122
10664SOL     OW37827  10.394   2.914   6.070  0.1770  0.1610  0.3972
10664SOL    HW137828  10.394   2.962   6.153 -1.4854  0.1309  0.4440
10664SOL    HW237829  10.301   2.905   6.048  0.5430 -1.1787 -0.6878
10665SOL     OW37830   0.276   5.924   4.613  0.0000  0.0032  0.4800
10665SOL    HW137831   0.209   5.867   4.650  0.8932 -0.8187  0.8630
10665SOL    HW237832   0.293   5.989   4.681 -0.7523  0.5130  0.1886
10666SOL     OW37833   0.581   8.712   2.202 -0.2181  0.3700 -0.2633
10666SOL    HW137834   0.575   8.619   2.226 -2.7007  0.4429 -0.3291
10666SOL    HW237835   0.608   8.756   2.283 -0.6691 -0.2296  0.2248
10667SOL     OW37836   2.842   0.779   0.303  0.0327 -0.4256 -0.4347
10667SOL    HW137837   2.827   0.794   0.396 -0.0399  0.7368 -0.6168
10667SOL    HW237838   2.923   0.728   0.299 -0.5014 -1.3601  0.2919
10668SOL     OW37839  10.156   3.180   1.086 -0.1782  0.0318 -0.0078
10668SOL    HW137840  10.163   3.094   1.043 -1.5768  0.1900 -0.6160
10668SOL    HW237841  10.233   3.228   1.057  1.0024 -1.2337  0.8923
10669SOL     OW37842   6.193   5.083   6.325 -0.8982 -0.6398  0.0246
10669SOL    HW137843   6.269   5.038   6.286 -0.9076 -0.0098 -0.7626
10669SOL    HW237844   6.231   5.160   6.367 -0.9307 -1.1472  1.0108
10670SOL     OW37845  10.146   6.190   7.884 -0.2284  0.1378 -0.3780
10670SOL    HW137846  10.220   6.221   7.832  1.5027  0.5573  2.1515
10670SOL    HW237847  10.155   6.095   7.883  0.8100  0.2040  0.4670
10671SOL     OW37848  10.109   0.793  10.296 -0.0503  0.0692 -0.2312
10671SOL    HW137849  10.040   0.729  10.285  1.3665 -1.7297  0.8466
10671SOL    HW237850  10.174   0.771  10.228 -0.3808  1.5961 -1.0954
10672SOL     OW37851   4.470   8.622   9.076  0.6575 -0.4328  0.4626
10672SOL    HW137852   4.461   8.618   8.981  1.7110  0.5781  0.2995
10672SOL    HW237853   4.386   8.657   9.107 -0.2185 -2.0894  0.0560
10673SOL     OW37854   0.661   4.873   7.600  0.7351 -0.3120 -0.5302
10673SOL    HW137855   0.715   4.800   7.570  0.0828 -1.2673  0.5327
10673SOL    HW237856   0.704   4.904   7.680  0.7325  0.1349 -0.6998
10674SOL     OW37857   2.398   6.663  10.474  0.2245 -0.4462 -0.3743
10674SOL    HW137858   2.422   6.655  10.566 -2.6078  2.3680  0.8332
10674SOL    HW237859   2.387   6.573  10.444  2.4995 -1.5025  1.5801
10675SOL     OW37860   9.302   4.495   8.375  0.4116  0.2160  0.1198
10675SOL    HW137861   9.311   4.530   8.464  0.1336  2.3570 -0.6483
10675SOL    HW237862   9.237   4.551   8.333  0.7718 -0.5451 -1.5622
10676SOL     OW37863   0.554   4.032   2.003 -0.3545  0.3682 -0.2902
10676SOL    HW137864   0.489   3.964   2.019 -0.3280  0.2355 -0.7264
10676SOL    HW237865   0.534   4.101   2.066 -0.3864 -0.0401  0.1556
10677SOL     OW37866   4.998   0.484   2.204  0.3060  0.5840  0.3664
10677SOL    HW137867   5.011   0.487   2.299  2.1462 -0.8195  0.2158
10677SOL    HW237868   4.967   0.395   2.187 -0.3347  0.9316 -0.3274
10678SOL     OW37869   3.574   1.301   3.306 -0.3642  0.2892  0.2264
10678SOL    HW137870   3.494   1.332   3.348 -0.8951 -0.6862 -0.0227
10678SOL    HW237871   3.579   1.349   3.224 -0.3402  0.8288  0.5417
10679SOL     OW37872  10.562   2.450   4.505 -0.7133 -0.2016 -0.2308
10679SOL    HW137873  10.641   2.502   4.493 -0.2632 -1.2121 -1.9009
10679SOL    HW237874  10.530   2.476   4.592  0.1750  1.8878 -0.4538
10680SOL     OW37875   5.694   2.314   3.946 -0.2502 -0.2822  0.4312
10680SOL    HW137876   5.680   2.226   3.981 -1.0039  0.1104  1.1394
10680SOL    HW237877   5.618   2.331   3.891  1.1165 -1.0594 -1.8478
10681SOL     OW37878  10.391   1.926   0.925 -0.1274 -0.1448 -0.1217
10681SOL    HW137879  10.357   2.015   0.916  0.6280  0.0469 -1.3674
10681SOL    HW237880  10.326   1.881   0.979  0.5087  1.6964  2.4005
10682SOL     OW37881   1.421   4.431   3.393  0.0339  0.1309  0.3101
10682SOL    HW137882   1.381   4.416   3.308 -1.6794  0.8645  0.9543
10682SOL    HW237883   1.403   4.351   3.443 -1.7174  0.9096  0.9824
10683SOL     OW37884   6.545   0.501   4.576 -0.2547  0.0375 -0.5913
10683SOL    HW137885   6.464   0.543   4.548 -0.3202  0.7949  0.6684
10683SOL    HW237886   6.591   0.481   4.495  0.7112  4.3710 -1.3300
10684SOL     OW37887  10.577   2.798   9.252 -0.3867 -0.2577  0.2072
10684SOL    HW137888  10.484   2.795   9.276 -0.4689 -0.6883 -0.1587
10684SOL    HW237889  10.615   2.719   9.288 -0.1079  0.0292  0.5519
10685SOL     OW37890   7.394   6.132   4.124  0.2829 -0.2966  0.6368
10685SOL    HW137891   7.482   6.106   4.151  0.1918 -2.1769 -0.6844
10685SOL    HW237892   7.394   6.123   4.028 -0.6231  2.1252  0.3276
10686SOL     OW37893   7.843   7.409   0.281  0.0194  0.3239 -0.3634
10686SOL    HW137894   7.917   7.359   0.246  1.8435  0.3446  3.0929
10686SOL    HW237895   7.829   7.373   0.369 -1.7056  2.7565  0.4632
10687SOL     OW37896   4.924   4.369   2.100  0.1222 -0.1132 -0.1348
10687SOL    HW137897   4.882   4.296   2.056 -0.5560  0.2645 -0.1291
10687SOL    HW237898   4.852   4.414   2.146  0.7834 -0.4240  1.2400
10688SOL     OW37899   4.473   7.964   7.438  0.1858 -0.4424 -0.3730
10688SOL    HW137900   4.485   7.939   7.347 -1.7414 -0.2505 -0.7255
10688SOL    HW237901   4.484   8.059   7.439 -2.4378 -0.0671 -0.9696
10689SOL     OW37902   3.596   4.133   2.971 -0.0803  0.4961  0.0017
10689SOL    HW137903   3.657   4.205   2.955 -3.1528  2.8874 -2.1515
10689SOL    HW237904   3.525   4.173   3.020 -1.3670 -1.3713 -0.2461
10690SOL     OW37905   2.180   7.769   2.093  0.5322 -0.3404  0.2927
10690SOL    HW137906   2.261   7.818   2.078 -0.1231  0.7476  0.1524
10690SOL    HW237907   2.143   7.757   2.006  0.5019 -0.7827  0.3627
10691SOL     OW37908   3.772  10.428   6.206 -0.1774  0.2014 -0.3651
10691SOL    HW137909   3.732  10.342   6.194 -0.6367  0.4873 -0.9378
10691SOL    HW237910   3.738  10.481   6.133  0.9789  0.5529 -0.6766
10692SOL     OW37911   2.482   2.252   3.676 -0.4953  0.3624  0.4038
10692SOL    HW137912   2.475   2.172   3.624 -0.8204  1.6949 -1.7177
10692SOL    HW237913   2.547   2.305   3.630 -1.7818  2.1651  0.5702
10693SOL     OW37914  10.100   6.434   3.754  0.4171  0.2033  0.1197
10693SOL    HW137915  10.113   6.526   3.776  1.4139  0.1483 -0.1771
10693SOL    HW237916  10.028   6.434   3.690 -0.8284  0.5884  1.4614
10694SOL     OW37917   9.259   0.084   4.121 -0.1183 -0.1547  0.1919
10694SOL    HW137918   9.340   0.126   4.146  0.7218 -1.0985 -0.8179
10694SOL    HW237919   9.243   0.019   4.189  0.5371 -0.6516 -0.1102
10695SOL     OW37920   5.508   9.398   8.536  0.0784  0.4488  0.2227
10695SOL    HW137921   5.525   9.464   8.468  1.7608 -0.4484 -0.2905
10695SOL    HW237922   5.594   9.380   8.574 -0.5052 -0.7125  1.0594
10696SOL     OW37923   7.174   8.393   5.451  0.0636 -0.8412  0.1799
10696SOL    HW137924   7.150   8.465   5.509  0.4582 -0.9838  0.5234
10696SOL    HW237925   7.158   8.427   5.363  0.6771 -0.1625  0.3173
10697SOL     OW37926   3.724  10.113   5.371  0.7330 -0.0233  0.2289
10697SOL    HW137927   3.791  10.044   5.366 -0.8824 -1.8027  1.6185
10697SOL    HW237928   3.760  10.177   5.432  1.6687 -0.3436  0.0365
10698SOL     OW37929   1.915   2.162   0.763  0.0828 -0.3883  0.1388
10698SOL    HW137930   1.917   2.160   0.859  0.4794 -0.0146  0.1434
10698SOL    HW237931   1.924   2.071   0.737 -0.1747 -0.5101  0.4597
10699SOL     OW37932  10.375   1.949  10.489  0.1220  0.3266  0.0610
10699SOL    HW137933  10.320   1.904  10.424 -2.5759  0.8637  1.8119
10699SOL    HW237934  10.445   1.887  10.508 -0.6217 -1.0094 -1.2993
10700SOL     OW37935   6.369   1.697   1.079 -1.2203 -0.3357 -0.1762
10700SOL    HW137936   6.443   1.750   1.049 -0.7819  0.0550  1.4830
10700SOL    HW237937   6.293   1.756   1.073 -1.0900 -0.1704 -0.1945
10701SOL     OW37938   7.279   2.581  10.113 -0.1588 -0.1936  0.5322
10701SOL    HW137939   7.328   2.530  10.050 -2.4904  0.3617 -1.8911
10701SOL    HW237940   7.255   2.519  10.182  1.0635 -1.1922  0.0830
10702SOL     OW37941   9.520  10.135   6.362 -0.2305 -0.2477 -0.2915
10702SOL    HW137942   9.589  10.134   6.296  1.6040 -0.1187  1.5225
10702SOL    HW237943   9.466  10.058   6.343  0.8465 -0.7734 -1.3199
10703SOL     OW37944   0.490   6.159   2.609  0.1214  0.2789  0.0258
10703SOL    HW137945   0.447   6.079   2.577 -0.2530  1.3659 -2.4562
10703SOL    HW237946   0.424   6.201   2.665 -0.8842  0.3381 -1.1563
10704SOL     OW37947   6.785   4.551   6.274  0.7529 -0.2928  0.3398
10704SOL    HW137948   6.841   4.474   6.281 -0.2821 -0.9943  1.4990
10704SOL    HW237949   6.714   4.534   6.337  0.6743  1.7628  0.8668
10705SOL     OW37950   5.633   3.671   4.053  0.0636  0.9239  0.3434
10705SOL    HW137951   5.656   3.589   4.008 -0.3243  1.4481 -0.8577
10705SOL    HW237952   5.698   3.680   4.122 -1.1987 -1.5461  2.0057
10706SOL     OW37953   0.301   0.556   2.084 -0.1974 -0.6883 -0.1995
10706SOL    HW137954   0.222   0.508   2.058  0.8634 -2.0038 -1.1493
10706SOL    HW237955   0.349   0.495   2.139  0.6406 -0.3036 -0.4806
10707SOL     OW37956   4.048   4.382  10.784 -0.2629 -0.4874 -0.8079
10707SOL    HW137957   3.953   4.398  10.790 -0.2771 -0.3014 -1.4771
10707SOL    HW237958   4.057   4.324  10.708 -0.0165 -2.0255  0.3459
10708SOL     OW37959   9.785   7.035   0.725 -0.1756 -0.3176 -0.1228
10708SOL    HW137960   9.758   7.014   0.635 -0.1260  1.1063 -0.5007
10708SOL    HW237961   9.704   7.062   0.769 -0.2922 -1.5222  0.4395
10709SOL     OW37962   3.250   6.558   8.101  0.5052  0.1837 -0.3627
10709SOL    HW137963   3.171   6.603   8.071  0.1712 -0.6302 -0.7507
10709SOL    HW237964   3.301   6.543   8.022 -0.5322 -2.2670 -0.6861
10710SOL     OW37965   8.585   4.601   3.704 -0.0181  0.0936  0.1269
10710SOL    HW137966   8.495   4.568   3.704  0.2380 -0.6357  0.4842
10710SOL    HW237967   8.627   4.556   3.630  0.1371  0.1860  0.1585
10711SOL     OW37968   4.997   8.256   7.872 -0.3626  1.0380 -0.4308
10711SOL    HW137969   4.998   8.345   7.906 -0.2992  0.7595  0.3163
10711SOL    HW237970   5.089   8.236   7.855 -0.1347  0.4112  1.3306
10712SOL     OW37971   2.221   5.861   5.299 -0.4335  0.3376 -0.1455
10712SOL    HW137972   2.230   5.862   5.394  1.7798 -0.8720 -0.2647
10712SOL    HW237973   2.208   5.952   5.275 -0.9706  0.6650  1.3183
10713SOL     OW37974   4.433   8.434   3.228  0.4440  0.4144  0.0127
10713SOL    HW137975   4.431   8.504   3.292  0.5027  0.7690 -0.3685
10713SOL    HW237976   4.457   8.477   3.146 -1.0244  0.2186 -0.5448
10714SOL     OW37977   4.000   0.486   2.782 -0.2696 -0.1892  0.2548
10714SOL    HW137978   4.024   0.578   2.772 -1.5123  0.1089 -0.2065
10714SOL    HW237979   4.070   0.438   2.739 -1.1984  0.7085 -2.4808
10715SOL     OW37980   9.521   8.830   8.104  0.0339 -0.1038  0.1076
10715SOL    HW137981   9.478   8.814   8.188 -0.3257 -2.0261 -0.4031
10715SOL    HW237982   9.612   8.802   8.118  0.0073 -0.2979 -0.1092
10716SOL     OW37983   5.880   6.137   2.278 -0.0217 -0.5929 -0.5155
10716SOL    HW137984   5.928   6.216   2.253 -1.4383  0.8429  1.0331
10716SOL    HW237985   5.939   6.065   2.256  1.8068  0.9478 -0.9162
10717SOL     OW37986   8.647   5.781   6.076 -0.2361  0.0066  0.5436
10717SOL    HW137987   8.555   5.801   6.059  0.0854 -0.3739 -2.1413
10717SOL    HW237988   8.646   5.733   6.159 -2.3947  0.3564  0.7823
10718SOL     OW37989   9.221   5.245   7.805  0.1260 -0.2412  0.3318
10718SOL    HW137990   9.181   5.250   7.891  0.6669 -1.1933  0.6531
10718SOL    HW237991   9.150   5.219   7.746  0.1826 -1.6151  0.8443
10719SOL     OW37992   4.196   0.491   3.375  0.1735  0.1264  0.2860
10719SOL    HW137993   4.219   0.515   3.465 -0.0576 -0.7473  0.5943
10719SOL    HW237994   4.237   0.405   3.362 -1.7779 -0.8928  0.4212
10720SOL     OW37995   9.129   6.437   4.890  0.5029 -0.0357  0.2097
10720SOL    HW137996   9.190   6.487   4.835  0.1093  0.3191  0.0849
10720SOL    HW237997   9.056   6.497   4.903  0.2423 -0.4113  0.4688
10721SOL     OW37998   0.681   8.081   7.834  0.2681  0.4634 -0.3084
10721SOL    HW137999   0.750   8.092   7.899  2.1421  1.2216 -2.2936
10721SOL    HW238000   0.649   7.992   7.848  1.8777 -0.0251  0.5004
10722SOL     OW38001   1.652   8.900  10.626  0.1129  0.0881  0.4401
10722SOL    HW138002   1.626   8.990  10.648  0.7504  0.7169 -1.1933
10722SOL    HW238003   1.596   8.845  10.680 -2.1302  1.4314 -0.4013
10723SOL     OW38004   5.589   3.888   3.789  0.6730 -0.2217 -0.2851
10723SOL    HW138005   5.521   3.837   3.832  0.8596 -0.2317  0.0013
10723SOL    HW238006   5.547   3.972   3.768  0.4123 -0.4330 -0.6140
10724SOL     OW38007   6.293   6.886   9.387 -0.7642  0.4645  0.0531
10724SOL    HW138008   6.224   6.948   9.411 -1.4695 -0.6663  1.0940
10724SOL    HW238009   6.307   6.834   9.467  1.7731  1.0759  0.0906
10725SOL     OW38010   3.064   2.473   6.246 -0.0289  0.4949 -0.7296
10725SOL    HW138011   3.076   2.530   6.323 -0.4717  0.5278 -0.6840
10725SOL    HW238012   3.139   2.414   6.248 -0.2431  0.2318 -0.0368
10726SOL     OW38013   5.021   0.199  10.484 -0.1784 -0.4388  0.0531
10726SOL    HW138014   4.978   0.225  10.566  1.5668  0.2280  0.8001
10726SOL    HW238015   5.106   0.166  10.511  0.5076 -0.0215 -1.5065
10727SOL     OW38016   6.676   2.926   9.541 -0.2952 -0.2591 -0.9135
10727SOL    HW138017   6.766   2.947   9.515 -0.4926  1.4740 -0.3855
10727SOL    HW238018   6.630   3.010   9.535 -1.7728 -1.0284 -0.7480
10728SOL     OW38019   9.792   0.248   0.147  0.2643 -0.2227 -0.4905
10728SOL    HW138020   9.885   0.228   0.136  0.4361  0.3406 -0.1354
10728SOL    HW238021   9.790   0.319   0.212 -0.3397  0.4604 -1.2234
10729SOL     OW38022   8.496   2.914   4.522  0.6783 -0.5587  0.2402
10729SOL    HW138023   8.541   2.831   4.535 -1.0031 -1.4555  0.6574
10729SOL    HW238024   8.445   2.927   4.602 -0.2759  0.0795 -0.4373
10730SOL     OW38025   7.779   3.754   0.287 -0.7311 -0.3485 -0.6029
10730SOL    HW138026   7.856   3.795   0.326 -0.4758  2.7520 -3.8022
10730SOL    HW238027   7.807   3.665   0.265  1.6916  0.4401 -0.9643
10731SOL     OW38028   4.133   3.987  10.463 -0.1910  0.0456 -0.0026
10731SOL    HW138029   4.167   3.966  10.550  0.9000  1.7324  0.0406
10731SOL    HW238030   4.127   4.083  10.463 -1.3528 -0.0038 -1.3630
10732SOL     OW38031   9.670   3.076   5.515 -0.2357  0.0404  0.2674
10732SOL    HW138032   9.750   3.078   5.462  0.4326  0.7614  1.2792
10732SOL    HW238033   9.681   3.147   5.578 -1.6041  0.0330  0.5367
10733SOL     OW38034   0.955   0.551   2.570 -0.3970  0.0342  0.2950
10733SOL    HW138035   1.001   0.477   2.611 -0.7528 -0.2549  0.1786
10733SOL    HW238036   1.004   0.628   2.599  1.7040 -0.3974 -1.8331
10734SOL     OW38037   1.391   0.472   1.506  0.1778  0.2478  0.3234
10734SOL    HW138038   1.346   0.389   1.492 -1.7883  1.2900  0.1304
10734SOL    HW238039   1.424   0.497   1.420  2.0907 -0.9809  0.6306
10735SOL     OW38040   0.666   1.913   4.818  0.1053  0.0435  0.5008
10735SOL    HW138041   0.751   1.956   4.811 -0.6861  1.5315 -0.5409
10735SOL    HW238042   0.621   1.934   4.736 -0.6799 -2.0729  0.3290
10736SOL     OW38043   3.536   2.868   5.249  0.4111  0.6339 -0.7193
10736SOL    HW138044   3.592   2.910   5.314 -0.8447  0.4831  0.5127
10736SOL    HW238045   3.453   2.915   5.254 -0.7992 -1.4432  0.1927
10737SOL     OW38046   4.108   1.535   2.129  0.1026  0.5221 -0.1310
10737SOL    HW138047   4.046   1.579   2.187  1.0767  1.4328  0.2549
10737SOL    HW238048   4.128   1.600   2.062  1.0679  0.4493  0.0734
10738SOL     OW38049   3.539   2.818   7.982 -0.4516  0.4608 -0.4473
10738SOL    HW138050   3.583   2.750   7.931  0.5764  0.4441  0.4362
10738SOL    HW238051   3.605   2.887   7.992 -0.7054  0.5678  0.6362
10739SOL     OW38052   2.157   1.606  10.541 -0.0218 -0.4879 -0.6169
10739SOL    HW138053   2.250   1.586  10.551 -0.0147  0.3532  1.8356
10739SOL    HW238054   2.114   1.553  10.608 -1.0480  0.7149 -0.2817
10740SOL     OW38055   5.210   4.225   4.828  0.0708 -0.8078 -0.1986
10740SOL    HW138056   5.128   4.255   4.790  0.0120 -0.7403 -0.0207
10740SOL    HW238057   5.192   4.135   4.855  0.3366 -1.1153 -1.0075
10741SOL     OW38058   3.040   5.800   5.072  0.0531 -0.4800  0.2534
10741SOL    HW138059   3.063   5.735   5.005 -0.6414 -0.8097  0.3236
10741SOL    HW238060   3.024   5.880   5.023  1.6063 -0.1413  0.2258
10742SOL     OW38061   2.666   2.840   6.914 -0.3238  0.7576  0.0415
10742SOL    HW138062   2.687   2.873   6.826 -2.1517  0.5786 -0.5068
10742SOL    HW238063   2.622   2.757   6.898  0.0400  0.3310  1.1910
10743SOL     OW38064   7.163   3.732   9.107  0.6547  0.1598  0.4396
10743SOL    HW138065   7.126   3.817   9.128  1.2591  0.8299 -1.0461
10743SOL    HW238066   7.258   3.745   9.113  0.8344  0.1334 -1.5069
10744SOL     OW38067   7.042   3.178  10.790  0.6436 -0.2400  0.0446
10744SOL    HW138068   7.010   3.268  10.783  1.0910 -0.1070 -0.3498
10744SOL    HW238069   7.131   3.187  10.825  0.4668 -0.5696  0.5845
10745SOL     OW38070   4.712   0.015   8.313  0.0703  0.1856 -0.2081
10745SOL    HW138071   4.787   0.072   8.296 -0.5040  1.0162 -0.0276
10745SOL    HW238072   4.739  -0.071   8.281  1.1479  0.4373 -0.0229
10746SOL     OW38073   7.883   2.692   3.716 -0.2056 -0.1681 -0.2246
10746SOL    HW138074   7.812   2.630   3.699 -0.9175  0.3619  0.6940
10746SOL    HW238075   7.929   2.700   3.632 -1.0511 -0.7494 -0.7587
10747SOL     OW38076   1.666   1.031   5.778 -0.2643 -0.0625  0.0362
10747SOL    HW138077   1.728   1.102   5.759 -0.3232 -0.3882 -1.4425
10747SOL    HW238078   1.580   1.074   5.780 -0.5583 -0.3324 -2.9007
10748SOL     OW38079   2.635   0.638   1.502 -0.1818  0.3399  0.3284
10748SOL    HW138080   2.555   0.591   1.477 -0.4919  2.1673 -2.7174
10748SOL    HW238081   2.706   0.582   1.471 -0.3672 -0.0077  0.5194
10749SOL     OW38082   8.134   6.427   9.289 -0.4013  0.4409 -0.5895
10749SOL    HW138083   8.124   6.339   9.326 -1.8467 -1.3811 -4.7444
10749SOL    HW238084   8.114   6.486   9.362  1.9717 -2.4611  2.8046
10750SOL     OW38085   0.142  10.459  10.411 -0.7068  0.1978  0.2110
10750SOL    HW138086   0.065  10.427  10.459 -1.0861  1.0260  0.1739
10750SOL    HW238087   0.199  10.494  10.478 -0.2488 -0.6153  0.2602
10751SOL     OW38088   7.308   3.425   7.820  0.7744 -0.2026  0.6979
10751SOL    HW138089   7.348   3.506   7.854  1.5339  0.4791 -1.5782
10751SOL    HW238090   7.375   3.388   7.762 -0.4127 -1.2304 -0.0807
10752SOL     OW38091   1.956   1.278   4.070  0.2164  0.1129 -0.3978
10752SOL    HW138092   1.898   1.204   4.052 -0.4856  0.4941  0.2227
10752SOL    HW238093   1.907   1.355   4.040  0.2689  0.4630  0.3842
10753SOL     OW38094   9.602   0.113   5.307 -0.0996  0.3453 -0.5067
10753SOL    HW138095   9.686   0.118   5.352 -0.2778  2.1234 -0.2988
10753SOL    HW238096   9.605   0.183   5.242 -0.6945 -0.8021 -1.8122
10754SOL     OW38097   1.333   7.358   6.117  0.3263 -0.2703 -0.0606
10754SOL    HW138098   1.256   7.366   6.174  0.5007 -0.3625  0.1921
10754SOL    HW238099   1.354   7.264   6.120  1.2073 -0.0633  0.8883
10755SOL     OW38100   8.558   1.591   4.671  0.4854  0.3080 -0.2713
10755SOL    HW138101   8.522   1.505   4.650  2.7955 -0.6539 -0.5084
10755SOL    HW238102   8.597   1.623   4.590  1.6885  0.5198  0.3636
10756SOL     OW38103   8.522   4.379  10.761 -0.2152  0.2192  0.2547
10756SOL    HW138104   8.522   4.424  10.845  0.2032 -1.5705  1.2813
10756SOL    HW238105   8.429   4.366  10.740 -0.4098  2.8236 -0.8620
10757SOL     OW38106  10.198   5.831   1.104  0.1113  0.0089 -0.2259
10757SOL    HW138107  10.250   5.910   1.114 -0.1666  0.0264  1.3595
10757SOL    HW238108  10.198   5.813   1.010  0.5942  1.5965 -0.5461
10758SOL     OW38109   9.015   0.683   5.640 -0.0967 -0.4008 -0.0296
10758SOL    HW138110   8.971   0.674   5.725  0.9602  1.0698  0.7155
10758SOL    HW238111   9.081   0.613   5.639  0.3636  0.0099  0.6933
10759SOL     OW38112   1.377   6.994   6.291 -0.4102  0.2688  0.3005
10759SOL    HW138113   1.409   6.904   6.303 -1.0684  0.0746  0.6706
10759SOL    HW238114   1.455   7.045   6.271  0.2879 -0.0187  2.0986
10760SOL     OW38115   7.941   1.340   2.553  0.2995  0.1027 -0.5784
10760SOL    HW138116   7.872   1.338   2.486  0.4882 -0.2096 -0.7645
10760SOL    HW238117   7.979   1.253   2.551 -0.0122 -0.0640  0.2793
10761SOL     OW38118   7.726   9.982   5.969 -0.3031  0.4159  0.5658
10761SOL    HW138119   7.654  10.045   5.970 -2.3409 -1.7269 -1.3121
10761SOL    HW238120   7.762   9.988   5.880  1.6009  1.0890  1.3179
10762SOL     OW38121   1.858   8.097   7.469 -0.8632  0.2630  0.0491
10762SOL    HW138122   1.913   8.080   7.393 -0.7447 -0.8691  0.3732
10762SOL    HW238123   1.877   8.188   7.492  1.1857 -0.1908  0.3821
10763SOL     OW38124   5.088   6.573   3.866  0.3748 -0.0396 -0.0307
10763SOL    HW138125   5.166   6.616   3.832  0.9060 -1.5511 -0.8582
10763SOL    HW238126   5.117   6.532   3.948 -0.1906  1.3274  0.8828
10764SOL     OW38127   2.462   1.679   0.943 -0.0573 -0.3425  0.0903
10764SOL    HW138128   2.443   1.585   0.950  0.1161 -0.4378 -0.7250
10764SOL    HW238129   2.557   1.684   0.933 -0.1616 -0.1482 -0.9037
10765SOL     OW38130   5.604  10.570   5.686 -0.0176 -0.2866 -0.4167
10765SOL    HW138131   5.674  10.515   5.652  0.2274 -2.0565  2.5887
10765SOL    HW238132   5.524  10.521   5.669 -0.0893 -0.2324 -0.2379
10766SOL     OW38133   9.576   4.215   0.533  0.4401 -0.4335  0.4718
10766SOL    HW138134   9.633   4.159   0.480  1.0989 -1.0339  1.7912
10766SOL    HW238135   9.501   4.159   0.553  0.7923 -0.6423  1.2382
10767SOL     OW38136  10.693   8.061  10.024 -0.0334 -0.2797 -0.0687
10767SOL    HW138137  10.745   7.989   9.986 -1.0562 -0.3346 -1.4288
10767SOL    HW238138  10.607   8.053   9.983 -0.2492  1.5774 -0.0573
10768SOL     OW38139   8.472   1.568   5.806 -0.1166  0.8944 -0.1301
10768SOL    HW138140   8.507   1.479   5.814 -2.3931 -0.1001 -0.4057
10768SOL    HW238141   8.426   1.582   5.889 -1.9136  0.7664 -1.0654
10769SOL     OW38142   4.811   0.558   7.499  0.3119  0.5009 -0.3545
10769SOL    HW138143   4.768   0.630   7.452 -1.2233 -0.0537  0.1157
10769SOL    HW238144   4.886   0.599   7.542 -0.9235  2.0235  0.4874
10770SOL     OW38145   1.470   8.033   6.620 -0.4501 -0.4782  0.5880
10770SOL    HW138146   1.466   8.094   6.694  2.7917  0.4484  0.1554
10770SOL    HW238147   1.381   8.033   6.584 -0.7783  3.5924  0.9440
10771SOL     OW38148   5.621   6.220   7.089  0.2239  0.3012 -0.2228
10771SOL    HW138149   5.614   6.276   7.012  1.6255 -0.4344 -0.9256
10771SOL    HW238150   5.648   6.279   7.159  1.1861  0.6202 -0.8357
10772SOL     OW38151   9.387   5.837   0.515  0.1548 -0.0777 -0.0758
10772SOL    HW138152   9.419   5.864   0.601 -0.2397 -0.2373  0.1227
10772SOL    HW238153   9.378   5.742   0.521 -0.7225  0.0079 -0.0039
10773SOL     OW38154   8.921   1.779   6.790 -0.1755  0.6573 -0.2269
10773SOL    HW138155   8.860   1.780   6.864 -1.8281 -0.1242 -1.5003
10773SOL    HW238156   8.867   1.802   6.714  0.4869 -2.3830 -1.7888
10774SOL     OW38157   8.696   2.598   3.439  0.4042 -0.0560 -0.1847
10774SOL    HW138158   8.623   2.599   3.377 -0.2836  0.3545  0.6204
10774SOL    HW238159   8.734   2.685   3.432 -1.0542  0.7829  1.5450
10775SOL     OW38160   3.681   0.762   4.797  0.0991  0.2909 -0.1301
10775SOL    HW138161   3.776   0.762   4.805  0.2019  0.0310 -1.1395
10775SOL    HW238162   3.665   0.754   4.703 -0.9214 -0.5997  0.0931
10776SOL     OW38163   0.045   7.586  10.108 -0.3031  0.4259 -0.4820
10776SOL    HW138164   0.010   7.530  10.177  3.9642 -0.9610  0.8778
10776SOL    HW238165   0.060   7.527  10.034  0.4188  0.6442 -0.5182
10777SOL     OW38166   9.797   5.205   1.065  0.4754 -0.0910 -0.1779
10777SOL    HW138167   9.862   5.139   1.040  1.8935 -0.0622  2.9548
10777SOL    HW238168   9.838   5.289   1.043  1.4344 -0.0941  1.3902
10778SOL     OW38169   1.762   4.760   1.504 -0.6589  0.0828 -0.3538
10778SOL    HW138170   1.826   4.749   1.574 -0.0541  1.0553 -0.7227
10778SOL    HW238171   1.677   4.754   1.548 -0.3407 -1.5505  0.0926
10779SOL     OW38172   2.691  10.348   2.360  0.2835  0.2082 -0.1796
10779SOL    HW138173   2.682  10.281   2.427  0.6253 -0.9552 -1.2601
10779SOL    HW238174   2.632  10.321   2.290  2.0740 -0.2525 -1.5997
10780SOL     OW38175  10.457   1.883   7.217 -0.5888  0.4291 -0.4635
10780SOL    HW138176  10.542   1.923   7.197  0.2878 -0.7937  0.7007
10780SOL    HW238177  10.427   1.847   7.133 -0.5629  1.9246 -1.1465
10781SOL     OW38178  10.701   9.176   4.768 -0.2011 -0.3841  0.3322
10781SOL    HW138179  10.640   9.116   4.811 -0.7498  1.5227  2.4677
10781SOL    HW238180  10.733   9.232   4.839  0.4982  1.6371 -1.4663
10782SOL     OW38181   9.338   5.729   7.623 -0.6917  0.0176  0.7076
10782SOL    HW138182   9.353   5.790   7.695 -3.6138 -1.0416  2.4034
10782SOL    HW238183   9.360   5.643   7.659 -0.4447 -0.3489 -0.2881
10783SOL     OW38184   9.146   2.371   3.801  0.2487 -0.2344  0.3775
10783SOL    HW138185   9.084   2.316   3.849  0.8239  0.3830  1.8648
10783SOL    HW238186   9.230   2.326   3.811  0.4588  0.1524  0.3267
10784SOL     OW38187   1.182   8.909   6.847  0.1342 -0.2667 -0.0654
10784SOL    HW138188   1.127   8.894   6.924 -0.7612 -0.4735 -0.7216
10784SOL    HW238189   1.259   8.854   6.860  0.6159  0.6911  1.2858
10785SOL     OW38190   5.981   6.544   7.178  0.1582  0.6149 -0.0206
10785SOL    HW138191   5.976   6.569   7.085 -1.0830  1.2452  0.2005
10785SOL    HW238192   6.075   6.536   7.195  0.4348  1.2122 -1.1488
10786SOL     OW38193   0.262   1.750   5.807  0.1680 -0.4978 -0.4463
10786SOL    HW138194   0.345   1.797   5.804  0.7698 -1.4373  0.5693
10786SOL    HW238195   0.213   1.781   5.731  2.0810 -1.1008 -2.0064
10787SOL     OW38196   3.038   9.751   3.417  0.9395 -0.2021  0.0677
10787SOL    HW138197   3.006   9.816   3.479 -2.5111 -0.2892 -1.4039
10787SOL    HW238198   2.977   9.677   3.426  0.6152 -0.4382 -2.9295
10788SOL     OW38199   8.325   5.676   0.090 -0.0114 -0.2298  0.5571
10788SOL    HW138200   8.367   5.762   0.081  1.5283 -0.9557  0.4522
10788SOL    HW238201   8.284   5.661   0.005  0.3543  0.0785  0.3187
10789SOL     OW38202   4.053   0.099   4.869  0.2271  0.1164  0.3620
10789SOL    HW138203   4.134   0.087   4.819  0.6501  1.0174  0.7827
10789SOL    HW238204   4.071   0.059   4.954  0.1740  0.1802  0.4036
10790SOL     OW38205   1.476   6.565   6.898  0.6450 -0.1283  0.5795
10790SOL    HW138206   1.400   6.529   6.853  0.0700  2.6260 -0.8607
10790SOL    HW238207   1.549   6.510   6.869 -0.5040 -1.6856  0.5399
10791SOL     OW38208   2.796   3.720   0.824  0.2998  0.0304  0.3846
10791SOL    HW138209   2.809   3.770   0.744  1.2618  0.8000  0.9971
10791SOL    HW238210   2.850   3.642   0.814 -0.6809 -0.5843 -0.2901
10792SOL     OW38211   2.643   5.351   9.671 -0.1386 -0.0428  0.2571
10792SOL    HW138212   2.669   5.347   9.763  0.5571  0.6924  0.1035
10792SOL    HW238213   2.556   5.390   9.672 -0.4816 -0.8008  0.6560
10793SOL     OW38214   4.100   4.890   0.772  0.2898  1.1476 -0.2333
10793SOL    HW138215   4.111   4.928   0.860 -0.4734 -1.9198  1.3350
10793SOL    HW238216   4.188   4.866   0.745  0.3043 -0.3322  0.9747
10794SOL     OW38217   4.054   2.616   0.346 -0.1092 -0.3520 -0.0591
10794SOL    HW138218   4.073   2.561   0.422  0.8940  0.4365  0.2906
10794SOL    HW238219   4.125   2.681   0.345 -0.5708  0.1670 -1.1798
10795SOL     OW38220   9.653   7.159   9.825  0.2405 -0.5132  0.2872
10795SOL    HW138221   9.702   7.131   9.748 -1.5540 -0.8436 -0.8034
10795SOL    HW238222   9.685   7.103   9.896  2.1750  0.0363 -0.0954
10796SOL     OW38223   5.709   0.109   5.848 -0.0659  0.1913 -0.1372
10796SOL    HW138224   5.729   0.202   5.857 -2.0668  0.8393 -1.6408
10796SOL    HW238225   5.639   0.093   5.912  1.1663 -0.6629  1.0658
10797SOL     OW38226   2.424  10.564   6.654  0.5950  0.5797 -0.2217
10797SOL    HW138227   2.431  10.469   6.660  0.6556  0.6517  1.0168
10797SOL    HW238228   2.432  10.583   6.560  0.1024 -0.6679 -0.5310
10798SOL     OW38229  10.313   9.803  10.667 -0.3323 -0.0755 -0.1132
10798SOL    HW138230  10.260   9.848  10.732  0.2964 -1.2848  1.2770
10798SOL    HW238231  10.311   9.711  10.692 -0.2583 -0.6220 -1.9483
10799SOL     OW38232   6.604   9.145   1.151  0.0975 -0.2452 -0.4478
10799SOL    HW138233   6.583   9.067   1.099  1.5895  0.3656 -2.0369
10799SOL    HW238234   6.642   9.109   1.232 -0.8283 -1.1764 -0.3964
10800SOL     OW38235   4.287   1.894   6.204  0.3379  1.0131 -0.3450
10800SOL    HW138236   4.207   1.933   6.239 -1.5262 -0.9142 -2.1294
10800SOL    HW238237   4.339   1.872   6.281 -1.1137  1.7769  0.9129
10801SOL     OW38238  10.632   7.195  10.800 -0.0755  0.1516  0.5432
10801SOL    HW138239  10.708   7.202  10.857 -0.4542  2.5097  0.8604
10801SOL    HW238240  10.634   7.275  10.747 -1.2121 -0.7061 -0.8813
10802SOL     OW38241   3.437   9.619   5.273 -0.4242 -0.4104  0.3628
10802SOL    HW138242   3.406   9.677   5.204 -1.1832 -0.1593  0.9029
10802SOL    HW238243   3.409   9.531   5.245  0.9673 -0.5744 -0.5894
10803SOL     OW38244   0.446   7.775   6.130 -0.0531 -0.0792  0.3985
10803SOL    HW138245   0.538   7.802   6.138 -0.0702  0.0473  0.1744
10803SOL    HW238246   0.438   7.702   6.191  0.2507 -0.2340  0.2573
10804SOL     OW38247   8.388   4.426   5.239  0.0828  0.1192 -0.6227
10804SOL    HW138248   8.296   4.437   5.216  0.3769  0.8817 -1.4911
10804SOL    HW238249   8.429   4.509   5.216  1.0376 -0.2962 -0.4859
10805SOL     OW38250   9.069   3.453   7.057 -0.2015  0.3420 -0.1537
10805SOL    HW138251   9.132   3.524   7.068  1.6813 -1.1875 -0.4799
10805SOL    HW238252   9.011   3.461   7.133  2.3481 -0.0583  1.9700
10806SOL     OW38253   6.153   5.629   8.255  0.5402  0.3694  0.2896
10806SOL    HW138254   6.097   5.633   8.178  0.2590  1.1124  0.5209
10806SOL    HW238255   6.190   5.717   8.262  0.6550  0.2767  0.9326
10807SOL     OW38256   7.741   7.288   6.230  0.1608  0.2046  0.0820
10807SOL    HW138257   7.648   7.272   6.218  0.2617  0.6924 -1.6530
10807SOL    HW238258   7.784   7.211   6.193  0.4532  0.0103  0.8146
10808SOL     OW38259   2.638   9.234   7.750 -0.0168  0.3331  0.1782
10808SOL    HW138260   2.683   9.247   7.833 -0.2440  1.8263  0.0982
10808SOL    HW238261   2.698   9.271   7.684 -1.0354  1.7623  0.0052
10809SOL     OW38262   2.813   2.940   1.661 -0.5797  0.5020  0.1918
10809SOL    HW138263   2.857   2.856   1.646 -0.0742  0.7490  0.2515
10809SOL    HW238264   2.727   2.931   1.621 -0.4564  0.0203  0.0381
10810SOL     OW38265   1.908   7.261  10.271  0.0937 -0.2554 -0.4322
10810SOL    HW138266   1.910   7.225  10.360 -3.6527 -0.8888 -0.4450
10810SOL    HW238267   1.874   7.190  10.217 -4.4691  2.0079 -1.0203
10811SOL     OW38268   3.211   5.271   4.299 -0.2886 -0.0238 -0.3823
10811SOL    HW138269   3.144   5.339   4.294  0.2924  0.5775 -0.1418
10811SOL    HW238270   3.199   5.219   4.219 -2.4390 -1.2722  0.6692
10812SOL     OW38271   5.509   0.067   9.319  0.1200  0.4656  0.2358
10812SOL    HW138272   5.474   0.064   9.409  0.1274 -1.6421  0.2156
10812SOL    HW238273   5.446   0.120   9.271 -2.1879 -1.7198  0.6223
10813SOL     OW38274   4.253   3.044   7.645  0.2668 -0.1678 -0.0130
10813SOL    HW138275   4.258   2.960   7.690 -2.2794  0.3033  1.3735
10813SOL    HW238276   4.214   3.024   7.560  1.5906 -0.6068 -0.5324
10814SOL     OW38277   9.592   7.630   5.306  0.0228 -0.2888  0.0194
10814SOL    HW138278   9.571   7.680   5.385  0.5838  0.4118 -0.2710
10814SOL    HW238279   9.638   7.553   5.338 -0.2994 -0.3207  0.4196
10815SOL     OW38280   1.898   9.840   3.399  0.5502 -0.1369 -0.2164
10815SOL    HW138281   1.863   9.923   3.431 -0.3043 -0.5786  0.0164
10815SOL    HW238282   1.935   9.798   3.477 -1.1417 -1.0192  0.1497
10816SOL     OW38283   0.272   7.040   8.792 -0.3458 -0.5548  0.0946
10816SOL    HW138284   0.244   7.130   8.811 -0.5987 -0.3404 -1.2312
10816SOL    HW238285   0.200   7.003   8.741  1.0347 -0.4955 -2.0350
10817SOL     OW38286   8.502   4.663   8.981  0.2535 -0.4929 -0.3170
10817SOL    HW138287   8.482   4.755   9.000 -1.6052 -0.2770 -2.7421
10817SOL    HW238288   8.444   4.613   9.039 -0.2631 -0.0587 -0.4460
10818SOL     OW38289   7.959   5.179   1.362 -0.1603  1.1843 -0.0071
10818SOL    HW138290   7.910   5.119   1.306  1.1423  0.1707 -0.1059
10818SOL    HW238291   7.906   5.186   1.441  0.4356 -1.5157  0.7479
10819SOL     OW38292   4.422   1.679   2.034  0.0600 -0.1408 -0.6423
10819SOL    HW138293   4.330   1.699   2.016 -0.2906  0.1092  1.2267
10819SOL    HW238294   4.443   1.731   2.111  1.4183 -1.1017 -0.3335
10820SOL     OW38295   0.634   3.632   3.343 -0.1439 -0.1839  0.3826
10820SOL    HW138296   0.701   3.589   3.396  0.5573  0.7201  0.2656
10820SOL    HW238297   0.569   3.663   3.407  0.3240  0.2537  0.6565
10821SOL     OW38298   2.200   5.078   1.660  0.2367 -0.5592  0.3511
10821SOL    HW138299   2.211   5.164   1.699 -0.2847 -0.7922  1.0312
10821SOL    HW238300   2.236   5.017   1.725  1.4816 -0.8031 -0.5221
10822SOL     OW38301   3.900   0.503   6.346  0.4784  0.5074 -0.2413
10822SOL    HW138302   3.966   0.485   6.278 -0.8003  0.6906 -1.5753
10822SOL    HW238303   3.816   0.495   6.301 -0.4516 -0.0800  1.5060
10823SOL     OW38304   7.413   1.375   3.269  0.3085  0.3418 -0.4738
10823SOL    HW138305   7.411   1.445   3.203  1.8390  0.0765 -0.8217
10823SOL    HW238306   7.386   1.296   3.222  1.8493  0.0618 -0.9221
10824SOL     OW38307   0.541  10.683   0.673  0.2999 -0.3157 -0.1325
10824SOL    HW138308   0.523  10.756   0.614 -0.6847 -1.1113 -0.8570
10824SOL    HW238309   0.562  10.724   0.757  1.7578  0.8465 -1.0014
10825SOL     OW38310   5.867   8.673   5.203  0.1159 -0.3575  0.1554
10825SOL    HW138311   5.926   8.610   5.245  1.0795  0.3046 -0.1826
10825SOL    HW238312   5.905   8.759   5.223  0.1868  0.0007 -1.4296
10826SOL     OW38313   0.121  10.518   6.436 -0.3003  0.6736 -0.0443
10826SOL    HW138314   0.171  10.590   6.474 -0.7465  0.7868  0.3419
10826SOL    HW238315   0.078  10.557   6.360 -0.2144  0.7096 -0.0739
10827SOL     OW38316   1.994   2.811   5.845  0.2182 -0.1763 -0.1965
10827SOL    HW138317   2.090   2.810   5.845  0.2573 -0.2353  1.9707
10827SOL    HW238318   1.970   2.800   5.937 -1.9006 -1.7880 -0.8675
10828SOL     OW38319   8.719   5.584   9.910 -0.4787  0.3560  0.2923
10828SOL    HW138320   8.719   5.495   9.874 -0.5515  0.3896  0.2082
10828SOL    HW238321   8.761   5.637   9.843  1.1070  0.1150  1.0381
10829SOL     OW38322   2.165   7.519   7.877  0.3660  0.4366 -0.1219
10829SOL    HW138323   2.120   7.555   7.800  0.2560  1.6051  0.4607
10829SOL    HW238324   2.164   7.591   7.941  2.0438  0.1073  0.3293
10830SOL     OW38325   5.692   1.015   2.333  0.0512  0.2796  0.4553
10830SOL    HW138326   5.699   0.999   2.427 -1.0331  0.1330  0.5212
10830SOL    HW238327   5.783   1.013   2.301  0.2758 -2.0666  1.0989
10831SOL     OW38328   6.961   3.177   2.295  0.3398 -0.2635  0.2328
10831SOL    HW138329   6.898   3.163   2.365 -1.4734  0.5115 -1.1565
10831SOL    HW238330   6.926   3.127   2.221  0.6538  1.1660 -0.9408
10832SOL     OW38331   4.994   5.756   2.737  0.4010  0.4257 -0.4379
10832SOL    HW138332   5.036   5.840   2.755 -0.3709  0.6367  0.4208
10832SOL    HW238333   4.928   5.746   2.805  1.3972 -1.5388  0.3332
10833SOL     OW38334   4.821   2.565   2.204  0.6090  0.2654 -0.3411
10833SOL    HW138335   4.895   2.508   2.227 -0.2978 -0.2964  1.4186
10833SOL    HW238336   4.837   2.646   2.252  0.1386  0.1585  0.0113
10834SOL     OW38337   7.627   7.421   4.250 -0.1551 -0.3126  0.7750
10834SOL    HW138338   7.535   7.430   4.225  0.2838  0.5870 -0.6165
10834SOL    HW238339   7.667   7.373   4.177  0.6818  0.1964  0.8862
10835SOL     OW38340   3.707   8.129   8.431  0.4753  0.1405 -0.0077
10835SOL    HW138341   3.788   8.181   8.431  0.0748  0.7988  1.2345
10835SOL    HW238342   3.706   8.086   8.516 -0.1680 -0.3989 -0.2758
10836SOL     OW38343   1.164   7.690   0.835  0.0522  0.2474 -0.1302
10836SOL    HW138344   1.174   7.624   0.904  0.9998  2.1747  1.6944
10836SOL    HW238345   1.128   7.642   0.761  1.3560 -2.4599  0.8455
10837SOL     OW38346  10.173   0.887   6.207  0.0096  0.0804  0.0107
10837SOL    HW138347  10.153   0.981   6.208 -3.5396 -0.5470  0.1052
10837SOL    HW238348  10.137   0.854   6.288  1.7306 -1.3544  0.2481
10838SOL     OW38349   2.595   8.220  10.493  0.2956 -0.1915 -0.0587
10838SOL    HW138350   2.658   8.153  10.522  0.6543  0.1322 -0.0867
10838SOL    HW238351   2.514   8.171  10.478  1.2167 -1.1059 -2.6187
10839SOL     OW38352  10.655   7.666   3.557  0.2918  0.0098  0.2507
10839SOL    HW138353  10.589   7.711   3.610 -0.0409 -0.4108  0.1941
10839SOL    HW238354  10.604   7.618   3.491  0.5665 -1.5081  1.1101
10840SOL     OW38355   0.852   9.265   8.855  0.3767 -0.0052  0.2889
10840SOL    HW138356   0.810   9.180   8.869  1.1909 -0.2979  1.0892
10840SOL    HW238357   0.820   9.294   8.770 -1.4330 -0.2090  0.8520
10841SOL     OW38358   5.582   1.305   1.646 -0.0289 -0.2911 -0.5331
10841SOL    HW138359   5.555   1.264   1.728 -0.8763 -1.4521 -1.3616
10841SOL    HW238360   5.575   1.399   1.663 -1.0715 -0.5193  0.4464
10842SOL     OW38361   4.970   0.952   5.074  0.4913 -0.5075  0.3739
10842SOL    HW138362   5.034   0.897   5.029  2.1874 -0.8461  3.0403
10842SOL    HW238363   4.996   0.950   5.166 -2.8904  0.0306  1.4745
10843SOL     OW38364   1.023   8.693   2.561  0.3733  0.5876 -0.2345
10843SOL    HW138365   1.050   8.751   2.632 -0.6335  1.0255 -0.1855
10843SOL    HW238366   0.944   8.650   2.594  1.4705 -1.3689  0.0053
10844SOL     OW38367   3.171   3.068   5.582  0.5621  1.1279  0.0674
10844SOL    HW138368   3.103   3.130   5.608  0.0100  0.6246 -0.1700
10844SOL    HW238369   3.189   3.089   5.490  0.2536  0.8275 -0.0628
10845SOL     OW38370   5.025   4.070  10.332 -0.1165 -0.0473  0.0043
10845SOL    HW138371   5.063   3.989  10.366  1.5896  0.0899 -1.4187
10845SOL    HW238372   5.089   4.137  10.355 -0.4773  0.5431 -0.6818
10846SOL     OW38373   6.798   9.050   4.666  0.4159  0.4202 -0.4468
10846SOL    HW138374   6.801   9.065   4.760  0.3909  2.0459 -0.6731
10846SOL    HW238375   6.706   9.031   4.647  0.4799 -0.2642 -0.1148
10847SOL     OW38376   4.656   0.620   6.738  0.3554  0.4317  0.3175
10847SOL    HW138377   4.651   0.622   6.643 -0.2744  0.5357  0.3473
10847SOL    HW238378   4.745   0.649   6.758  0.6534 -0.0849 -0.2511
10848SOL     OW38379   0.709   2.091  10.671  0.1866 -0.1737 -0.1243
10848SOL    HW138380   0.674   2.127  10.589  1.9681  0.4897 -0.6476
10848SOL    HW238381   0.657   2.012  10.686  0.1459 -0.5965 -2.1734
10849SOL     OW38382   8.999   6.859   3.065 -0.8836 -0.1348 -0.2018
10849SOL    HW138383   8.916   6.842   3.109 -0.0240 -0.9067  1.1706
10849SOL    HW238384   9.048   6.777   3.073 -0.7595 -0.4017 -2.8246
10850SOL     OW38385   4.476  10.658   6.510  0.3135  0.1184  0.2803
10850SOL    HW138386   4.565  10.668   6.542  1.0758  0.0354 -1.6854
10850SOL    HW238387   4.465  10.730   6.447 -1.3100  0.6308  1.1036
10851SOL     OW38388   7.297   3.115   3.844 -0.1105 -0.1533 -0.5260
10851SOL    HW138389   7.390   3.091   3.844  0.2552  0.9917  1.8205
10851SOL    HW238390   7.292   3.192   3.788  0.7802  1.0004  0.9053
10852SOL     OW38391   7.868   8.823   7.702  0.0758  0.1646 -0.2721
10852SOL    HW138392   7.784   8.869   7.696 -0.6304 -1.1376 -0.7682
10852SOL    HW238393   7.922   8.862   7.634 -0.4888  0.2947 -0.6453
10853SOL     OW38394   5.501   1.121   1.472 -0.0230 -0.3690 -0.2245
10853SOL    HW138395   5.582   1.109   1.423 -0.2949 -0.2594 -0.7075
10853SOL    HW238396   5.522   1.189   1.537  0.4367 -0.7636  0.0440
10854SOL     OW38397   5.387   7.169  10.583  0.3890 -0.1877 -0.0303
10854SOL    HW138398   5.319   7.103  10.582  0.0149  0.1187  1.8302
10854SOL    HW238399   5.359   7.234  10.518 -1.0928 -0.0846  0.6782
10855SOL     OW38400   5.061  10.883   4.592 -0.1766 -0.1773  0.8444
10855SOL    HW138401   4.998  10.948   4.561 -1.7521 -1.4336  1.2484
10855SOL    HW238402   5.007  10.808   4.619  1.5483 -1.6506  0.4245
10856SOL     OW38403   4.620   2.277   2.993 -0.3048  0.1783  0.2141
10856SOL    HW138404   4.691   2.212   2.992  0.0776  0.5468 -2.0341
10856SOL    HW238405   4.639   2.332   3.068  0.4028 -1.2060  1.0906
10857SOL     OW38406   3.809   6.995   5.447  0.1488 -0.2326  0.2582
10857SOL    HW138407   3.747   7.056   5.486  0.2953  0.5170 -0.6252
10857SOL    HW238408   3.831   6.934   5.517 -0.9065  0.0198  0.8288
10858SOL     OW38409   3.965   5.495   0.174  0.4494  0.7985  0.5582
10858SOL    HW138410   3.932   5.475   0.262 -0.2835 -0.4074  0.0390
10858SOL    HW238411   3.897   5.463   0.115  1.4877  0.4205 -0.4892
10859SOL     OW38412   0.245   2.436   9.336  0.1731 -0.3236 -1.1419
10859SOL    HW138413   0.187   2.361   9.321 -1.7322  1.1364 -1.4596
10859SOL    HW238414   0.227   2.462   9.427 -0.2035  0.5667 -1.4652
10860SOL     OW38415   5.173   0.064   6.658 -0.0288  0.0553  0.3598
10860SOL    HW138416   5.095   0.078   6.604  0.6117 -0.0301 -0.6129
10860SOL    HW238417   5.241   0.117   6.617  0.4223  0.1640  1.2254
10861SOL     OW38418   2.534   7.544   3.090 -0.3546 -0.8568 -0.3013
10861SOL    HW138419   2.564   7.634   3.098  0.0057 -1.0918  1.3300
10861SOL    HW238420   2.442   7.551   3.066 -0.9479  0.0107  2.0260
10862SOL     OW38421   0.169   2.716   3.926 -0.4958  0.0612 -0.4117
10862SOL    HW138422   0.089   2.687   3.970  0.0956 -1.4302 -0.2595
10862SOL    HW238423   0.232   2.646   3.943  0.0272 -0.1722 -2.8732
10863SOL     OW38424   3.403   0.337   4.191  0.5278 -0.2039  0.0922
10863SOL    HW138425   3.405   0.250   4.152  0.0290 -1.0522  1.8645
10863SOL    HW238426   3.358   0.325   4.275 -0.0537  1.8651  0.1357
10864SOL     OW38427   7.983   6.269   0.749  0.2122 -0.0596  0.6273
10864SOL    HW138428   7.990   6.273   0.653 -1.5920 -1.0429  0.4188
10864SOL    HW238429   7.891   6.251   0.766  0.8056 -1.7574  2.4785
10865SOL     OW38430   9.402   2.762   9.561  0.0183 -0.1099 -0.4592
10865SOL    HW138431   9.340   2.767   9.488 -0.0722  0.6053 -0.3401
10865SOL    HW238432   9.348   2.774   9.639  0.3899  1.2139 -0.3903
10866SOL     OW38433   7.353   1.221   5.572 -0.2534  0.3712 -0.3785
10866SOL    HW138434   7.279   1.209   5.512  0.1264 -0.1941 -0.7390
10866SOL    HW238435   7.429   1.230   5.515 -0.2188  2.5436 -0.0736
10867SOL     OW38436   3.947   0.114   1.209 -0.2377  0.3177 -0.4568
10867SOL    HW138437   3.967   0.205   1.191 -0.7797  0.2552 -1.4576
10867SOL    HW238438   3.920   0.113   1.301  0.4335  1.0383 -0.2414
10868SOL     OW38439   0.967   5.096   0.241  0.1708 -0.2856 -0.1566
10868SOL    HW138440   0.903   5.067   0.177  2.4296 -0.4185 -2.5533
10868SOL    HW238441   0.917   5.149   0.304 -2.0147  0.9411 -2.7376
10869SOL     OW38442   1.727   1.921   4.159  0.0247 -0.6009 -0.2241
10869SOL    HW138443   1.796   1.913   4.094 -0.9970 -0.2365 -1.4078
10869SOL    HW238444   1.755   1.994   4.215  0.0716  0.3226 -1.4048
10870SOL     OW38445   2.418   1.494   6.380 -0.1332  0.2468 -0.1819
10870SOL    HW138446   2.352   1.453   6.324  0.5348  1.6572 -2.0936
10870SOL    HW238447   2.471   1.420   6.411  0.2626 -0.5252 -2.4911
10871SOL     OW38448   8.084   4.799   4.711 -0.3916  0.3298  0.0406
10871SOL    HW138449   8.146   4.870   4.729  0.1529  0.1187 -0.9114
10871SOL    HW238450   8.009   4.843   4.670 -0.3827  0.4457  0.1478
10872SOL     OW38451  10.374   3.694   1.511 -0.4967 -0.7035 -0.3250
10872SOL    HW138452  10.350   3.745   1.589 -0.8644 -1.0526 -0.2094
10872SOL    HW238453  10.308   3.625   1.506 -1.8153  0.5756 -2.1710
10873SOL     OW38454   9.959   3.959   7.570 -0.0379  0.1085  0.4642
10873SOL    HW138455   9.915   3.993   7.492  0.2591  0.9737  0.6618
10873SOL    HW238456   9.918   3.873   7.586 -0.6238  0.2585 -0.1972
10874SOL     OW38457  10.621  10.152   8.985 -0.6686 -0.2371  0.4499
10874SOL    HW138458  10.705  10.106   8.986  0.2826  1.3176 -1.1828
10874SOL    HW238459  10.594  10.157   9.076  1.4388 -0.0786  1.1049
10875SOL     OW38460   0.271   7.609   6.301  0.5020 -0.4521  0.0922
10875SOL    HW138461   0.197   7.553   6.325  0.5832 -0.3568  0.5859
10875SOL    HW238462   0.348   7.551   6.306  0.3091 -0.9598 -1.9459
10876SOL     OW38463   0.518   1.620   3.272  0.1302 -0.1099 -0.3669
10876SOL    HW138464   0.609   1.637   3.251 -0.4026  0.6512 -2.2235
10876SOL    HW238465   0.518   1.604   3.367  2.1228  0.1562 -0.2857
10877SOL     OW38466   0.802   5.746   1.913  0.4620 -0.7411  0.3349
10877SOL    HW138467   0.886   5.743   1.867  1.0154 -1.4326  1.3640
10877SOL    HW238468   0.775   5.655   1.920  1.1673 -0.8279  2.7153
10878SOL     OW38469   6.437   5.997   7.991 -0.0746  0.1353  0.4236
10878SOL    HW138470   6.405   6.036   8.073  1.1168  3.0296 -0.3502
10878SOL    HW238471   6.362   5.947   7.958 -0.6640 -0.9257  3.0937
10879SOL     OW38472   3.334   7.099   2.391 -0.0504 -0.4666 -0.4292
10879SOL    HW138473   3.247   7.066   2.366  0.6242 -0.9849 -2.2938
10879SOL    HW238474   3.340   7.184   2.349 -0.4654  0.5888  1.5466
10880SOL     OW38475  10.505   2.981   1.019  0.7232  0.4131  0.2955
10880SOL    HW138476  10.446   2.967   0.945 -1.5437  0.1369  2.0397
10880SOL    HW238477  10.571   2.913   1.011 -0.3045 -0.5013 -0.7136
10881SOL     OW38478   3.150   0.672   3.270  0.1459 -0.2847  0.0567
10881SOL    HW138479   3.213   0.742   3.283  0.7358 -0.9539  0.9346
10881SOL    HW238480   3.196   0.593   3.299 -0.8431 -0.8853  0.0314
10882SOL     OW38481  10.069   7.012  10.185 -0.1826  0.1264  0.4101
10882SOL    HW138482  10.003   7.066  10.228 -0.1141  0.9905 -0.5190
10882SOL    HW238483  10.143   7.012  10.246 -1.0876 -1.0160  1.5459
10883SOL     OW38484   0.539  10.200   0.330  0.1581  0.0026 -0.1707
10883SOL    HW138485   0.481  10.246   0.391  0.1228  0.2083 -0.3572
10883SOL    HW238486   0.486  10.127   0.298  0.7335 -1.0974  1.2978
10884SOL     OW38487   5.518   8.134   6.607 -0.0348  0.0594 -0.3958
10884SOL    HW138488   5.503   8.043   6.580  0.2246 -0.1454  0.1378
10884SOL    HW238489   5.448   8.184   6.565 -1.3202 -0.6487  0.8138
10885SOL     OW38490   7.090  10.867   4.380 -0.1688 -0.2137 -0.4323
10885SOL    HW138491   7.070  10.889   4.289 -0.3893 -0.6265 -0.4876
10885SOL    HW238492   7.081  10.950   4.428 -0.2498 -0.0354 -0.7536
10886SOL     OW38493   1.596   8.222   9.404 -0.1003  0.7017  0.2284
10886SOL    HW138494   1.598   8.210   9.309 -1.4186  4.5517 -0.4454
10886SOL    HW238495   1.504   8.207   9.428 -0.0803  1.2054  0.6359
10887SOL     OW38496   7.998   4.400   4.221  0.0606  0.0037 -0.4809
10887SOL    HW138497   8.017   4.403   4.127  0.1211  1.3760 -0.4515
10887SOL    HW238498   7.904   4.380   4.226  0.0645 -0.1090 -0.8353
10888SOL     OW38499   7.079   6.535   7.244  0.3462  0.1888  0.5805
10888SOL    HW138500   7.173   6.521   7.241  0.4968  1.2246  0.0904
10888SOL    HW238501   7.047   6.498   7.162  0.4095  0.3504  0.4810
10889SOL     OW38502   7.775   7.148   2.016 -0.3726  0.0389  0.3359
10889SOL    HW138503   7.706   7.082   2.008 -1.9766  1.8110 -2.0917
10889SOL    HW238504   7.772   7.175   2.107 -1.5904 -1.2610  0.7280
10890SOL     OW38505   6.472   3.958   2.565 -0.1520 -0.3106  0.3610
10890SOL    HW138506   6.526   3.935   2.489  1.0319  1.2177  0.7028
10890SOL    HW238507   6.386   3.978   2.527  0.6396  1.2125 -0.7090
10891SOL     OW38508   0.368   0.855   7.294 -0.4332 -0.2689  0.3005
10891SOL    HW138509   0.339   0.938   7.255  0.1056 -0.6009 -0.8413
10891SOL    HW238510   0.421   0.814   7.226  0.1801 -1.0760  1.2441
10892SOL     OW38511   7.860   8.375   9.823  0.0776 -0.0617  0.3870
10892SOL    HW138512   7.911   8.311   9.773  0.4419 -0.6423  1.4633
10892SOL    HW238513   7.892   8.366   9.913 -0.9571  0.5499  0.8377
10893SOL     OW38514   2.076   3.866   3.621  0.2247 -0.0564 -0.4099
10893SOL    HW138515   2.151   3.807   3.614 -0.5274 -1.0265 -0.4533
10893SOL    HW238516   2.007   3.813   3.661 -0.6515  0.6271 -0.9888
10894SOL     OW38517   7.955   7.438   3.989  0.4043  0.4411 -0.2098
10894SOL    HW138518   7.935   7.530   3.972 -0.8943  0.4145  0.9622
10894SOL    HW238519   7.874   7.391   3.968  0.3959 -0.1727  1.0476
10895SOL     OW38520   1.955   7.932   0.613  0.0200  0.7448 -0.0531
10895SOL    HW138521   2.011   7.886   0.550  0.9731  0.1388  1.1969
10895SOL    HW238522   1.955   7.877   0.691 -0.5235  1.8412  0.7601
10896SOL     OW38523   1.511  10.841   2.604  0.5455  0.2693 -0.0217
10896SOL    HW138524   1.426  10.807   2.631  1.0747 -2.4611 -1.5204
10896SOL    HW238525   1.568  10.823   2.678  0.1382  0.8871  0.4559
10897SOL     OW38526   8.760  10.668   8.670 -0.0935 -0.1027  0.6056
10897SOL    HW138527   8.842  10.684   8.623 -0.1735  0.9609  0.8155
10897SOL    HW238528   8.777  10.699   8.759 -0.5742 -0.3197  0.7794
10898SOL     OW38529   8.575  10.237   0.831 -0.0686  0.4780  0.2949
10898SOL    HW138530   8.529  10.321   0.830 -2.0003 -0.5217  0.1796
10898SOL    HW238531   8.663  10.258   0.801 -0.3292  2.5452  0.8015
10899SOL     OW38532   1.987   3.119   2.295 -0.3470 -0.1986  0.4100
10899SOL    HW138533   2.037   3.132   2.215 -0.1959 -0.6019  0.4357
10899SOL    HW238534   1.926   3.193   2.298 -1.1594 -0.7811 -0.6767
10900SOL     OW38535   9.071   9.416   3.165  0.0866 -0.7396  0.1281
10900SOL    HW138536   9.130   9.382   3.233  0.4752  1.1506  0.7901
10900SOL    HW238537   9.028   9.491   3.206 -0.5884 -0.2962 -1.3272
10901SOL     OW38538   3.376   2.686   4.144  0.1868 -0.2813 -0.2787
10901SOL    HW138539   3.352   2.723   4.229 -1.1780 -2.1851  0.2398
10901SOL    HW238540   3.329   2.739   4.080 -1.8214 -1.0752  0.4487
10902SOL     OW38541   0.524   2.072   1.781 -0.0469 -0.2944  0.8703
10902SOL    HW138542   0.589   2.009   1.813 -0.9503 -0.8072  1.7575
10902SOL    HW238543   0.448   2.018   1.759 -0.4850  0.3891  0.6801
10903SOL     OW38544   4.271   2.224   3.656  0.4963 -0.0500  0.0857
10903SOL    HW138545   4.207   2.269   3.600 -0.1433 -0.7227  0.2552
10903SOL    HW238546   4.346   2.282   3.658 -0.7517  1.6297  1.2758
10904SOL     OW38547   8.095   7.414   1.995 -0.9874  0.8329  0.2263
10904SOL    HW138548   8.062   7.324   1.987 -1.1687  0.5687  2.9093
10904SOL    HW238549   8.097   7.430   2.090  0.3058  3.2044 -0.1278
10905SOL     OW38550   6.350   0.347   4.931  0.7287  0.5703 -0.2035
10905SOL    HW138551   6.433   0.390   4.912 -0.1497  2.6575  0.3228
10905SOL    HW238552   6.295   0.365   4.855  1.3156 -2.5754 -1.4946
10906SOL     OW38553   3.516   7.773   9.130  0.4384 -0.0074  0.6266
10906SOL    HW138554   3.563   7.691   9.148  2.2886  1.2860  2.0698
10906SOL    HW238555   3.455   7.751   9.060  1.7583 -2.3067  0.1084
10907SOL     OW38556   0.444   5.800  10.361  0.4068  0.1554  0.1549
10907SOL    HW138557   0.533   5.792  10.395  0.0951 -0.0440  0.9485
10907SOL    HW238558   0.453   5.789  10.267  1.1834 -0.2027  0.2655
10908SOL     OW38559   6.686   0.310   8.291  0.3632 -0.3605  0.5121
10908SOL    HW138560   6.727   0.343   8.211  0.6111  0.7708  1.0907
10908SOL    HW238561   6.737   0.233   8.314 -0.7760 -1.7805 -1.3599
10909SOL     OW38562   0.404   7.125   0.920 -0.2654 -0.3073  0.3277
10909SOL    HW138563   0.322   7.120   0.871 -0.2989  1.4435  0.1351
10909SOL    HW238564   0.465   7.069   0.871 -0.9989 -0.6191 -0.2360
10910SOL     OW38565   1.763   3.929  10.805  0.3339  0.1498  0.5525
10910SOL    HW138566   1.753   3.909  10.898  0.6597  0.1109  0.5811
10910SOL    HW238567   1.802   3.850  10.767  0.2974  0.2034  0.4031
10911SOL     OW38568   8.491  10.232   7.008  0.2857 -0.1331  0.5490
10911SOL    HW138569   8.476  10.323   6.982 -2.0822 -1.3582 -3.1900
10911SOL    HW238570   8.580  10.213   6.978 -0.5821 -0.0126 -2.4461
10912SOL     OW38571   4.016   8.347   8.772  0.4870  0.1014 -0.6109
10912SOL    HW138572   3.955   8.327   8.843  0.8380  1.2210  0.0203
10912SOL    HW238573   4.084   8.279   8.779 -0.1725 -0.5925 -0.7334
10913SOL     OW38574   8.642   7.164   9.835  0.4246  0.4592  1.0047
10913SOL    HW138575   8.589   7.141   9.911  1.6459  1.6007  2.2545
10913SOL    HW238576   8.727   7.190   9.871  1.0599  1.0013 -0.7473
10914SOL     OW38577   6.358   3.877   6.084 -0.2049  0.4536  0.1388
10914SOL    HW138578   6.424   3.918   6.028 -0.7373 -0.1543 -0.9654
10914SOL    HW238579   6.362   3.926   6.166  0.4670  1.4918 -0.4935
10915SOL     OW38580   9.220   5.195   2.007  0.2958  0.1720  0.3168
10915SOL    HW138581   9.249   5.125   1.947 -0.1461  0.3159 -0.0679
10915SOL    HW238582   9.125   5.200   1.994  0.0765 -0.3276  1.6051
10916SOL     OW38583   5.066   8.089   7.507 -0.4894 -0.2785 -0.3492
10916SOL    HW138584   5.002   8.042   7.561  0.3754 -1.4893 -0.3368
10916SOL    HW238585   5.126   8.021   7.476  0.2090  0.6878 -1.1807
10917SOL     OW38586   0.615   7.225   7.688  0.7268  0.1337 -0.2415
10917SOL    HW138587   0.670   7.266   7.755 -0.5900  1.0133  0.3389
10917SOL    HW238588   0.560   7.297   7.654 -1.0430 -0.9522  0.2022
10918SOL     OW38589   5.140   7.061   8.691 -0.2369 -0.0883  0.1148
10918SOL    HW138590   5.054   7.071   8.733  0.1857  1.7325  0.6259
10918SOL    HW238591   5.137   6.974   8.651 -2.2885 -0.1077  0.1959
10919SOL     OW38592   8.569   3.668   2.693 -0.5119  0.7405 -0.6835
10919SOL    HW138593   8.535   3.737   2.749  2.3254  0.5837  1.4667
10919SOL    HW238594   8.662   3.687   2.684  0.8616 -3.5931  1.5095
10920SOL     OW38595   7.804   1.016   7.872 -0.1250 -0.4164  0.2071
10920SOL    HW138596   7.897   1.033   7.883 -0.2502  2.1927 -1.7664
10920SOL    HW238597   7.794   0.987   7.781 -1.2710 -0.2070  0.2409
10921SOL     OW38598   0.771   3.896   3.370 -0.1638 -0.3410  0.4111
10921SOL    HW138599   0.855   3.868   3.334  0.6806 -0.8830  2.5957
10921SOL    HW238600   0.715   3.818   3.365  0.4727 -0.9096  1.6555
10922SOL     OW38601   0.048   9.409   5.818 -0.3674 -0.2929 -0.4294
10922SOL    HW138602   0.054   9.352   5.741 -1.4001  1.2200 -1.6919
10922SOL    HW238603  -0.008   9.361   5.879  2.4423 -2.6653  0.5566
10923SOL     OW38604   8.923   0.747   3.829 -0.6231  0.3700  0.3780
10923SOL    HW138605   8.830   0.736   3.850 -0.7035  0.5409  0.1101
10923SOL    HW238606   8.945   0.668   3.779 -0.8228  0.7013 -0.2391
10924SOL     OW38607   5.929   4.364   5.139 -0.0464 -0.3110 -0.5362
10924SOL    HW138608   5.965   4.291   5.088  1.1554  0.6195 -1.0502
10924SOL    HW238609   5.969   4.355   5.225 -1.0712 -1.1212 -0.1255
10925SOL     OW38610   5.002   1.753   1.716 -0.0067 -0.2755  0.1642
10925SOL    HW138611   5.092   1.735   1.689 -0.5326 -2.3088 -0.4130
10925SOL    HW238612   4.971   1.818   1.653  0.5290 -0.8174 -0.6840
10926SOL     OW38613   7.784   1.198   3.816 -0.2625  0.0499  0.0265
10926SOL    HW138614   7.715   1.179   3.753 -0.5362 -0.8078  0.5754
10926SOL    HW238615   7.809   1.113   3.851  0.8148  0.3832  0.1113
10927SOL     OW38616   4.253   0.415   9.777  0.2985  0.6819 -0.3898
10927SOL    HW138617   4.231   0.492   9.725  0.3055  0.5989 -0.5151
10927SOL    HW238618   4.305   0.450   9.850 -1.5691  1.1093  0.8150
10928SOL     OW38619   6.533   0.581   8.976 -0.6600 -0.1162 -0.1311
10928SOL    HW138620   6.576   0.506   9.017 -0.3369  0.2974  0.2979
10928SOL    HW238621   6.596   0.612   8.911 -0.3281  0.4333  0.4331
10929SOL     OW38622   0.620   6.553   0.790 -0.7386  0.2367 -0.1708
10929SOL    HW138623   0.648   6.481   0.733  0.1010 -0.5127  1.1509
10929SOL    HW238624   0.530   6.570   0.764 -0.8169 -1.0072 -0.8000
10930SOL     OW38625   0.442   8.874   3.659 -0.3215  0.2226  0.1730
10930SOL    HW138626   0.446   8.891   3.565  0.1695 -1.4595 -0.1564
10930SOL    HW238627   0.413   8.783   3.666  4.3479 -1.4861  1.3773
10931SOL     OW38628   8.229   0.811  10.534 -0.0088 -0.1410 -0.0024
10931SOL    HW138629   8.294   0.845  10.595 -0.1465 -0.9680  0.6250
10931SOL    HW238630   8.146   0.814  10.583 -0.6992  2.0292 -1.1944
10932SOL     OW38631   9.643   0.227   4.739  0.3025 -0.6076 -0.0114
10932SOL    HW138632   9.667   0.311   4.780 -1.4925 -0.4292  0.7826
10932SOL    HW238633   9.567   0.197   4.790  0.1060 -2.0742 -1.1235
10933SOL     OW38634   8.119  10.779  10.261 -0.0494  0.4007  0.1978
10933SOL    HW138635   8.169  10.860  10.255  0.9163 -0.2639 -3.9698
10933SOL    HW238636   8.184  10.711  10.278 -0.1705  0.0528 -0.6628
10934SOL     OW38637   9.815   4.995   3.150  0.0218 -0.1780 -0.1966
10934SOL    HW138638   9.770   5.012   3.067  0.7139  1.8733 -0.2035
10934SOL    HW238639   9.908   5.006   3.130  0.2631 -0.5374  0.6680
10935SOL     OW38640   1.059   5.281   6.550  0.3477  0.4915  0.6934
10935SOL    HW138641   1.146   5.285   6.511  0.6730  0.5130  1.4065
10935SOL    HW238642   1.001   5.318   6.483  1.0759  1.8209  0.7706
10936SOL     OW38643   8.489   6.022   0.507 -0.7877  0.5130  0.3149
10936SOL    HW138644   8.528   6.087   0.448 -0.5342 -0.0144 -0.1036
10936SOL    HW238645   8.420   5.981   0.455  0.8795 -1.5247 -0.4378
10937SOL     OW38646   9.618   5.856   0.306 -0.1116 -0.0640  0.0754
10937SOL    HW138647   9.588   5.943   0.279 -2.9230 -1.1336 -0.6572
10937SOL    HW238648   9.562   5.833   0.380  1.1355 -0.9604  0.7815
10938SOL     OW38649   6.345   0.233   8.999 -0.4034 -0.3594 -0.0749
10938SOL    HW138650   6.325   0.290   8.925 -2.4823  0.1822  0.8375
10938SOL    HW238651   6.287   0.263   9.069  0.0918 -2.1217  1.1610
10939SOL     OW38652  10.062   9.070   6.368  0.1817 -0.5400 -0.5167
10939SOL    HW138653  10.094   9.102   6.284 -0.3773 -0.3326 -0.6508
10939SOL    HW238654  10.123   9.000   6.392  0.5978 -0.3060 -0.8804
10940SOL     OW38655   3.949  10.317   7.551  0.5188 -0.4781 -0.4906
10940SOL    HW138656   3.957  10.346   7.460  0.8025  0.6677 -0.1153
10940SOL    HW238657   3.885  10.246   7.548  0.9326 -0.8237 -1.6589
10941SOL     OW38658   9.409   3.195   5.062 -0.0072 -0.1080  0.1044
10941SOL    HW138659   9.477   3.252   5.026  2.6684 -3.3743 -0.6623
10941SOL    HW238660   9.444   3.166   5.146 -0.6606 -1.4828 -0.0642
10942SOL     OW38661   9.492   7.633  10.274 -0.2319 -0.0057  0.2292
10942SOL    HW138662   9.536   7.590  10.347  0.3638 -0.2031 -0.2384
10942SOL    HW238663   9.510   7.726  10.286 -2.2245  0.2655  1.7185
10943SOL     OW38664   6.754   3.862   6.980 -0.4338 -0.3310  0.6441
10943SOL    HW138665   6.774   3.837   6.890 -0.8377  0.7358  0.2422
10943SOL    HW238666   6.684   3.803   7.006 -1.0218  0.0161 -0.1072
10944SOL     OW38667   0.840   0.567  10.201 -0.3574  0.2366 -0.1853
10944SOL    HW138668   0.918   0.514  10.186 -0.2169  0.5407 -0.5663
10944SOL    HW238669   0.784   0.551  10.125  0.2669  1.6274 -0.9964
10945SOL     OW38670   8.262   3.044   2.250 -0.0882  0.2670 -0.2486
10945SOL    HW138671   8.217   2.994   2.319  1.7273  1.0404  1.6174
10945SOL    HW238672   8.355   3.039   2.274  0.3745  2.6039 -1.2738
10946SOL     OW38673   4.334   4.671   1.284  0.1073  0.1706  1.0020
10946SOL    HW138674   4.404   4.725   1.247  0.6832 -1.6184 -0.6803
10946SOL    HW238675   4.326   4.702   1.375  2.0558  1.4232  0.8149
10947SOL     OW38676   9.145   6.746  10.798  0.5445 -1.0328 -0.0335
10947SOL    HW138677   9.209   6.742  10.869 -0.4698  1.4170  1.1624
10947SOL    HW238678   9.195   6.775  10.722  1.0936 -0.3668  0.5706
10948SOL     OW38679   7.168  10.171   9.736  0.3758 -0.4603 -0.5161
10948SOL    HW138680   7.211  10.255   9.722  1.3915 -0.8432  0.1375
10948SOL    HW238681   7.175  10.156   9.831  0.3451 -1.3357 -0.6427
10949SOL     OW38682   6.711   0.837   3.148  0.1360 -0.2987  0.8033
10949SOL    HW138683   6.638   0.892   3.118  0.7226  0.6454  1.0471
10949SOL    HW238684   6.752   0.805   3.068  0.2578  0.2755  0.6268
10950SOL     OW38685   5.952   9.084   5.706 -0.4248 -0.2358  0.6555
10950SOL    HW138686   5.914   9.091   5.619  1.0399 -1.3747 -0.1112
10950SOL    HW238687   5.959   9.174   5.737 -2.0185  0.1133  0.0924
10951SOL     OW38688   8.869   4.931   2.405  0.2119 -0.3913  0.2141
10951SOL    HW138689   8.947   4.984   2.390 -0.3974  0.2415 -0.8058
10951SOL    HW238690   8.887   4.887   2.488  1.3760  0.2346  0.3291
10952SOL     OW38691   8.845   4.269   2.879 -0.2954  0.2611  0.5541
10952SOL    HW138692   8.855   4.179   2.909 -0.4800  0.3561  0.8957
10952SOL    HW238693   8.808   4.316   2.953  0.0383  0.6764  0.4648
10953SOL     OW38694   3.694  10.812   8.948  0.5644  0.1830  0.0907
10953SOL    HW138695   3.665  10.871   9.017  2.8051  0.4659  0.8613
10953SOL    HW238696   3.733  10.869   8.881 -0.4755 -0.1845 -0.8643
10954SOL     OW38697   7.760   6.278   4.234 -0.6265 -0.1260  0.3528
10954SOL    HW138698   7.731   6.296   4.144  0.9159  0.2304 -0.1025
10954SOL    HW238699   7.854   6.298   4.234 -0.1603 -1.9797  1.5335
10955SOL     OW38700   4.945   5.414   0.192 -0.0813  0.4191  0.2035
10955SOL    HW138701   5.012   5.438   0.257 -0.9481 -0.9844  1.6719
10955SOL    HW238702   4.867   5.462   0.219 -0.2311  0.4706 -0.3076
10956SOL     OW38703   0.665   8.020   7.009  0.0982 -0.2163  0.1726
10956SOL    HW138704   0.727   7.958   6.969 -0.2060 -1.7990  1.9996
10956SOL    HW238705   0.721   8.085   7.051  0.4367  0.3744 -1.1450
10957SOL     OW38706   1.209   7.276   5.670 -0.8622  0.3367  0.1006
10957SOL    HW138707   1.235   7.309   5.584  1.9934 -1.6605  0.0595
10957SOL    HW238708   1.166   7.192   5.651 -0.1468 -0.1490  0.5962
10958SOL     OW38709   8.290   0.988   8.231  0.0505 -0.0567 -0.1941
10958SOL    HW138710   8.357   0.942   8.179 -1.5472 -0.6860 -1.7824
10958SOL    HW238711   8.292   0.944   8.316  1.7267  0.0238 -0.1540
10959SOL     OW38712   9.206  10.545   4.066  0.0263 -0.4324  0.0434
10959SOL    HW138713   9.168  10.463   4.033 -1.0708 -0.6093  1.6334
10959SOL    HW238714   9.146  10.613   4.035 -0.0395 -0.4206  0.1974
10960SOL     OW38715   8.194   8.118   3.641 -0.2729  0.5049 -0.4272
10960SOL    HW138716   8.142   8.039   3.657  1.7633 -0.8303  0.1279
10960SOL    HW238717   8.168   8.179   3.709 -2.0630  0.4433 -1.0097
10961SOL     OW38718   1.794   0.895   2.602  0.1337 -0.0310 -0.0493
10961SOL    HW138719   1.746   0.946   2.667 -2.0215 -1.3499 -0.5060
10961SOL    HW238720   1.811   0.811   2.644 -1.5648 -1.0157 -1.2087
10962SOL     OW38721   9.912   1.779  10.617 -0.3698  0.4432  0.2515
10962SOL    HW138722   9.817   1.784  10.611 -0.3529  0.7289  0.2293
10962SOL    HW238723   9.934   1.836  10.691 -0.0906  1.5878 -0.6968
10963SOL     OW38724  10.057   2.554   1.618 -0.0519 -0.1460 -0.0509
10963SOL    HW138725  10.127   2.533   1.557  0.7248 -1.7290  1.3260
10963SOL    HW238726  10.007   2.623   1.574  0.1439 -1.5802 -2.7008
10964SOL     OW38727   2.917   8.402   9.109 -0.7080  0.9557 -0.2322
10964SOL    HW138728   2.872   8.446   9.037 -1.1497 -0.8466 -1.1192
10964SOL    HW238729   2.856   8.408   9.183 -1.1772  0.9911 -0.6189
10965SOL     OW38730   1.981   7.153   2.226 -0.7468 -0.1074 -0.3032
10965SOL    HW138731   1.913   7.089   2.203  1.1388 -1.8122 -1.4769
10965SOL    HW238732   2.063   7.107   2.209  0.7169  2.1596  0.2905
10966SOL     OW38733   9.419  10.527   1.675  0.3054  0.1458 -0.0260
10966SOL    HW138734   9.357  10.456   1.695 -0.2873  0.7487  0.3156
10966SOL    HW238735   9.504  10.492   1.699  0.0638 -0.5861 -0.2063
10967SOL     OW38736  10.496   0.836   7.044  0.2050  0.1414  0.3882
10967SOL    HW138737  10.461   0.747   7.034 -1.5304  0.7924  0.2818
10967SOL    HW238738  10.580   0.824   7.088  1.6934 -1.8020 -2.6204
10968SOL     OW38739   6.114   6.573   0.236  0.4029 -0.0038  0.0365
10968SOL    HW138740   6.049   6.631   0.196  0.5256  0.7457  0.8961
10968SOL    HW238741   6.194   6.587   0.185  0.7731  1.5198  0.9681
10969SOL     OW38742   3.408  10.840   7.881 -0.0275 -0.2988 -0.0217
10969SOL    HW138743   3.461  10.761   7.883  0.8220  0.2444 -0.3318
10969SOL    HW238744   3.386  10.852   7.788  0.4539  0.2050 -0.0799
10970SOL     OW38745   7.870   8.067   1.179 -0.4658 -0.3330  0.1551
10970SOL    HW138746   7.939   8.133   1.189 -0.0451 -0.5728 -0.9681
10970SOL    HW238747   7.817   8.076   1.258 -0.0239  0.8919  0.3451
10971SOL     OW38748   0.398   0.194   9.343  0.0980 -0.0705  0.2804
10971SOL    HW138749   0.368   0.202   9.433 -1.6157  1.1693 -0.3344
10971SOL    HW238750   0.478   0.246   9.339  0.7036 -0.9098  1.2863
10972SOL     OW38751   6.389   7.932   9.374  0.2204  0.5264  0.2037
10972SOL    HW138752   6.383   8.025   9.352  1.5621  0.4836 -0.4577
10972SOL    HW238753   6.377   7.887   9.290  2.3338  0.2312  0.0149
10973SOL     OW38754   6.396   1.170   2.782 -0.0712 -0.1345 -0.1084
10973SOL    HW138755   6.352   1.196   2.862  0.6617  0.5900  0.0678
10973SOL    HW238756   6.408   1.251   2.733  0.7453 -0.3641 -0.3089
10974SOL     OW38757   1.837  10.353  10.726  0.1525 -0.7187 -0.5679
10974SOL    HW138758   1.885  10.348  10.643 -0.3385  0.3317 -0.9275
10974SOL    HW238759   1.884  10.293  10.784  1.1676 -0.6254 -1.2653
10975SOL     OW38760   6.785   8.902   7.132  0.1848 -0.7252 -0.0283
10975SOL    HW138761   6.830   8.903   7.217  1.3827  0.1461 -0.6527
10975SOL    HW238762   6.852   8.930   7.069 -0.5663 -1.7329 -1.3297
10976SOL     OW38763   9.623   5.647   5.187  0.1659 -0.4645 -0.5332
10976SOL    HW138764   9.564   5.664   5.260  0.1387  0.8949 -0.8519
10976SOL    HW238765   9.580   5.688   5.112  1.5506  0.6681 -0.7483
10977SOL     OW38766   6.205   9.267   5.061 -0.0111  0.3916 -0.3553
10977SOL    HW138767   6.190   9.337   4.997  0.1275  1.0451  0.3094
10977SOL    HW238768   6.162   9.190   5.024 -0.0745  0.8070 -1.1484
10978SOL     OW38769   1.133   3.013   1.350  0.3620 -0.0621 -0.1119
10978SOL    HW138770   1.074   3.011   1.425 -0.2949 -0.8102 -0.6292
10978SOL    HW238771   1.199   2.946   1.371  0.7848  0.4624  0.2634
10979SOL     OW38772   2.182   8.229   2.209 -0.1575  0.4681 -0.3320
10979SOL    HW138773   2.232   8.182   2.276  0.8140  0.7300 -0.8613
10979SOL    HW238774   2.204   8.321   2.222 -1.7341  0.7784  0.4302
10980SOL     OW38775   4.277   8.707   8.158  0.4865  0.3306 -0.4036
10980SOL    HW138776   4.220   8.779   8.185 -1.7230 -1.6010  0.3571
10980SOL    HW238777   4.338   8.747   8.095 -1.2217  2.6434 -0.7115
10981SOL     OW38778   4.428   0.377   1.313  0.0926 -0.3159  0.2334
10981SOL    HW138779   4.516   0.367   1.349 -0.1526  3.1888  2.1655
10981SOL    HW238780   4.372   0.325   1.371  0.5449 -0.1871  0.7857
10982SOL     OW38781   2.233   3.635   7.421  0.0844  0.6352  0.0422
10982SOL    HW138782   2.152   3.584   7.427  1.3361 -1.3159  1.2611
10982SOL    HW238783   2.286   3.589   7.356  0.5400  1.4578 -0.1866
10983SOL     OW38784   2.945   7.966   8.553 -0.2418  0.1093  0.0439
10983SOL    HW138785   2.904   8.016   8.483 -1.6902 -0.0728  0.7274
10983SOL    HW238786   3.036   7.954   8.524  0.1814  3.0574 -0.1912
10984SOL     OW38787   5.039  10.230  10.621  0.3934  0.2707 -0.1294
10984SOL    HW138788   5.034  10.312  10.671 -2.8232  0.6736 -0.9213
10984SOL    HW238789   4.993  10.249  10.540 -0.2737 -2.2835 -0.4003
10985SOL     OW38790   9.267   5.182   0.191 -0.0126 -0.3292  0.3189
10985SOL    HW138791   9.233   5.208   0.106 -3.1838  0.5130  1.6773
10985SOL    HW238792   9.244   5.090   0.200 -1.5215  0.0648  0.9510
10986SOL     OW38793   7.937   9.067  10.159 -0.5335  0.5326  0.9172
10986SOL    HW138794   7.892   9.014  10.224  1.1101 -1.4583  0.5225
10986SOL    HW238795   8.021   9.089  10.199  1.0302 -1.7599 -0.8726
10987SOL     OW38796   8.449   0.059   7.745 -0.3240  0.2437 -0.0610
10987SOL    HW138797   8.524   0.116   7.765  0.0850 -0.2904 -0.0570
10987SOL    HW238798   8.415   0.091   7.662  0.7225 -0.3308 -0.7328
10988SOL     OW38799   1.791   5.941   2.892 -0.8256  0.0602 -0.5566
10988SOL    HW138800   1.859   5.999   2.927 -0.7803 -0.6784  0.6208
10988SOL    HW238801   1.748   5.993   2.824  0.6502  0.6815 -1.0587
10989SOL     OW38802   6.783   6.798   0.003  0.0427 -0.2767  0.0295
10989SOL    HW138803   6.773   6.763  -0.085  2.4318 -3.1363  0.7565
10989SOL    HW238804   6.863   6.850  -0.001 -0.6134  0.7719  0.2199
10990SOL     OW38805   0.845   8.203   5.585 -0.0595  0.2576  0.4028
10990SOL    HW138806   0.853   8.156   5.668 -1.4127  2.1768  1.6994
10990SOL    HW238807   0.751   8.212   5.570  0.1434 -0.1449 -1.4534
10991SOL     OW38808   6.870   9.348  10.304 -0.2368  0.6927 -0.2874
10991SOL    HW138809   6.827   9.405  10.369 -0.0947  1.8176 -1.1432
10991SOL    HW238810   6.821   9.266  10.308 -0.2246  0.7235  1.2354
10992SOL     OW38811   7.673   6.287   2.094 -0.6087 -0.7090 -0.4315
10992SOL    HW138812   7.638   6.255   2.011 -0.6051 -0.9088 -0.3551
10992SOL    HW238813   7.612   6.356   2.120  0.9175  1.3988 -2.0262
10993SOL     OW38814   1.331   8.283   3.277 -0.5312 -0.2842 -0.4186
10993SOL    HW138815   1.330   8.379   3.283  1.3811 -0.2796  0.7099
10993SOL    HW238816   1.336   8.266   3.183 -1.6305  0.6774 -0.6755
10994SOL     OW38817   7.865   6.859   9.041 -0.7572  0.3562  0.2561
10994SOL    HW138818   7.788   6.864   9.097 -1.6501  1.8685 -0.9945
10994SOL    HW238819   7.878   6.949   9.010  1.9000  0.2798  0.8707
10995SOL     OW38820   9.556   8.185   8.904 -0.5573 -0.2386  0.7086
10995SOL    HW138821   9.625   8.172   8.969  0.5234 -1.1653 -0.5629
10995SOL    HW238822   9.557   8.104   8.852 -0.8255  0.7910 -0.9519
10996SOL     OW38823  10.304   1.535   8.484  0.1708  0.4343  0.2316
10996SOL    HW138824  10.339   1.621   8.506 -0.8742  0.5819  1.4412
10996SOL    HW238825  10.364   1.473   8.526  1.5883  0.4770 -1.5935
10997SOL     OW38826   7.256   6.066   0.124 -0.2132  0.6197 -0.1839
10997SOL    HW138827   7.177   6.020   0.098  0.2901  0.7846 -2.1744
10997SOL    HW238828   7.309   6.000   0.168 -0.3607 -0.1813 -1.1855
10998SOL     OW38829   5.269   5.864  10.455 -0.3147 -0.2092 -0.2859
10998SOL    HW138830   5.278   5.949  10.413  0.2012  0.3005  0.8108
10998SOL    HW238831   5.321   5.805  10.400  0.6319  0.5105 -0.1938
10999SOL     OW38832   1.418   4.940   6.139 -0.0492  0.6156  0.0133
10999SOL    HW138833   1.383   4.920   6.053 -0.4750 -0.7885  0.4946
10999SOL    HW238834   1.415   4.857   6.187  1.2978  1.0889  0.9933
11000SOL     OW38835   8.020   7.007   9.546  0.1946  0.0503 -0.1944
11000SOL    HW138836   8.084   6.946   9.584  1.6255  1.0763 -0.8284
11000SOL    HW238837   7.936   6.961   9.551  1.0957 -1.6656  0.0048
11001SOL     OW38838   6.780   5.338  10.756  0.2570 -0.4696  0.1308
11001SOL    HW138839   6.737   5.423  10.756 -1.2500 -1.1989  0.1224
11001SOL    HW238840   6.745   5.293  10.833  1.6242 -0.8159  0.5773
11002SOL     OW38841   0.708   2.038   8.821  0.3084 -0.1917  0.8922
11002SOL    HW138842   0.795   2.002   8.837 -0.0208 -1.2523  0.4061
11002SOL    HW238843   0.711   2.126   8.857  1.3278 -0.5040  1.6005
11003SOL     OW38844   1.133   8.234   0.018 -0.7929  0.5116  0.0371
11003SOL    HW138845   1.203   8.241   0.083  0.3827  0.3791 -1.1745
11003SOL    HW238846   1.150   8.152  -0.028 -1.0408  1.0438 -1.0486
11004SOL     OW38847   4.311   0.616   9.058  0.2491  0.0459  0.0637
11004SOL    HW138848   4.219   0.632   9.081 -0.2610  0.6283 -2.2035
11004SOL    HW238849   4.315   0.521   9.045  0.1347 -0.0632  0.7639
11005SOL     OW38850   8.801   4.028  10.317 -0.3519  0.0795  0.0192
11005SOL    HW138851   8.799   4.118  10.349 -2.9514 -0.1707  0.8185
11005SOL    HW238852   8.788   4.035  10.223 -3.0814  0.5652  0.3407
11006SOL     OW38853   0.467   4.529   6.000 -0.0446  0.1765  0.5084
11006SOL    HW138854   0.477   4.524   5.905  0.5457  0.4456  0.5546
11006SOL    HW238855   0.392   4.587   6.013 -1.3930 -1.3917  0.1782
11007SOL     OW38856   3.904   5.685   6.779  0.0352 -0.3004  0.5401
11007SOL    HW138857   3.913   5.617   6.845 -2.3016 -0.2446  0.9902
11007SOL    HW238858   3.883   5.638   6.698 -1.9512 -0.1517  0.9311
11008SOL     OW38859   1.243   4.132   0.926  0.1256 -0.5468 -0.3038
11008SOL    HW138860   1.230   4.166   1.014 -1.8782 -1.4940 -0.1732
11008SOL    HW238861   1.155   4.107   0.897  0.9991 -2.0345 -1.8303
11009SOL     OW38862   1.796   6.813  10.314  0.0736 -0.2637 -0.0876
11009SOL    HW138863   1.881   6.801  10.356 -0.1028  0.6177  0.5417
11009SOL    HW238864   1.732   6.804  10.385 -0.2431  1.0097 -0.1965
11010SOL     OW38865   1.494   1.982   9.732  0.5239 -0.4262  0.0888
11010SOL    HW138866   1.519   2.058   9.678  0.8173 -0.3941  0.2659
11010SOL    HW238867   1.577   1.937   9.748  0.2589 -1.2113 -0.6477
11011SOL     OW38868   7.123  10.432   7.160 -0.1001  0.3684  0.2205
11011SOL    HW138869   7.212  10.463   7.147  0.3026 -0.6423  0.5196
11011SOL    HW238870   7.099  10.465   7.247 -0.5345  1.8056 -0.4169
11012SOL     OW38871   1.725   4.604   3.874  1.0612  0.0641  0.2304
11012SOL    HW138872   1.681   4.685   3.849  0.4380 -0.9584 -2.2902
11012SOL    HW238873   1.675   4.571   3.949  0.9227  1.6334  0.8634
11013SOL     OW38874   2.392   6.903   9.348 -0.1059 -0.6520  0.0183
11013SOL    HW138875   2.382   6.831   9.285 -0.6582  2.3214 -3.6664
11013SOL    HW238876   2.487   6.919   9.351 -0.0520 -1.0054  0.1615
11014SOL     OW38877   2.169   9.943   1.170 -0.9202  0.5448  0.6003
11014SOL    HW138878   2.074   9.951   1.184 -0.8800  0.6325  0.8198
11014SOL    HW238879   2.193  10.025   1.126 -0.9059  0.6257  0.7583
11015SOL     OW38880   2.800   9.574   7.667  0.1788  0.2268  0.1614
11015SOL    HW138881   2.859   9.573   7.592  1.4167  2.3457  1.0306
11015SOL    HW238882   2.762   9.661   7.667 -2.8388 -0.9693 -0.1776
11016SOL     OW38883   0.134   5.975   2.461 -0.2560  0.3291 -0.2741
11016SOL    HW138884   0.060   5.933   2.416 -1.0921  1.8175 -0.3526
11016SOL    HW238885   0.144   6.059   2.417 -0.5461  1.4825  1.7293
11017SOL     OW38886   0.803   7.478   9.705  0.0353  0.1312 -0.2531
11017SOL    HW138887   0.723   7.505   9.751 -0.6571 -3.0157  0.6581
11017SOL    HW238888   0.777   7.401   9.654  2.5285 -1.3141  0.4590
11018SOL     OW38889   3.860   5.323   6.053 -0.5009 -0.0043 -0.2332
11018SOL    HW138890   3.850   5.394   6.116  0.6106  1.4652 -1.6331
11018SOL    HW238891   3.893   5.249   6.105 -0.7713  0.7625  1.0807
11019SOL     OW38892   5.940   8.263   4.613 -0.3526 -0.0087  0.0563
11019SOL    HW138893   5.987   8.321   4.673  0.4111 -0.7983  0.2283
11019SOL    HW238894   5.864   8.315   4.586 -0.2226  0.7000  0.9836
11020SOL     OW38895   7.991   8.057   8.916 -0.1937 -0.4431  0.1047
11020SOL    HW138896   7.929   8.090   8.981  0.6053 -1.3982  1.4038
11020SOL    HW238897   8.007   8.132   8.858 -0.3401  0.6825  1.4619
11021SOL     OW38898   0.761   1.148   2.880  0.1991  0.1902  0.5812
11021SOL    HW138899   0.851   1.120   2.862 -0.3011  0.2805 -2.8046
11021SOL    HW238900   0.717   1.069   2.913  1.1606 -0.2643  0.8033
11022SOL     OW38901   0.918   0.636   3.260 -0.3718 -0.5153  0.0457
11022SOL    HW138902   0.930   0.665   3.170  0.2763 -0.2065  0.2263
11022SOL    HW238903   0.824   0.647   3.277 -0.1102  1.8547  0.2308
11023SOL     OW38904   0.263   6.606   5.059 -0.1908 -0.6595  0.3171
11023SOL    HW138905   0.308   6.617   5.143 -1.8671 -0.6167  1.2492
11023SOL    HW238906   0.264   6.693   5.020 -0.0748 -0.5018  0.6629
11024SOL     OW38907   7.658  10.220   6.542 -0.4053 -0.2083 -0.2618
11024SOL    HW138908   7.692  10.247   6.457  0.4039 -3.1081 -0.9780
11024SOL    HW238909   7.707  10.272   6.605  0.5673  0.4320 -1.4917
11025SOL     OW38910   7.188   8.670   8.197  0.1464  0.0375 -0.0581
11025SOL    HW138911   7.133   8.592   8.206 -1.5200  0.8225 -2.3713
11025SOL    HW238912   7.239   8.674   8.278 -2.9078 -0.9839  2.0573
11026SOL     OW38913   4.394  10.540   5.080  0.0875  0.3270 -0.0986
11026SOL    HW138914   4.411  10.543   5.174 -1.0182 -1.2870  0.1931
11026SOL    HW238915   4.299  10.548   5.072  0.0350 -0.8786 -0.9633
11027SOL     OW38916   3.001   1.814   9.099  0.8648 -0.0358  0.0731
11027SOL    HW138917   2.982   1.770   9.182  1.4654  0.5875  0.5534
11027SOL    HW238918   3.080   1.772   9.067  0.3187 -0.6581 -0.4704
11028SOL     OW38919   7.485   9.799   4.228 -0.2549  0.3939  0.1374
11028SOL    HW138920   7.500   9.757   4.314  0.4287  0.3273 -0.0051
11028SOL    HW238921   7.549   9.870   4.225  1.4375 -1.0637 -1.2787
11029SOL     OW38922   9.957   7.338   4.321 -0.3829 -0.1081 -0.0264
11029SOL    HW138923   9.892   7.360   4.253 -0.1528  0.9872  0.0847
11029SOL    HW238924  10.008   7.266   4.284 -1.0123 -0.3026 -0.5309
11030SOL     OW38925   4.296   0.558   7.339 -0.6931  0.4652  0.0590
11030SOL    HW138926   4.328   0.491   7.399  0.3654  0.4103 -0.5561
11030SOL    HW238927   4.375   0.595   7.299 -1.2227  2.2252  0.5267
11031SOL     OW38928   4.996   8.355   0.727  0.0505 -0.3890  0.4337
11031SOL    HW138929   5.080   8.398   0.710 -0.4408  0.8969  1.1081
11031SOL    HW238930   5.016   8.290   0.794  0.5155 -0.0896  0.5961
11032SOL     OW38931   4.238   6.056   5.762 -0.1790  0.1818  0.7926
11032SOL    HW138932   4.241   6.077   5.669  0.0855 -3.2291 -0.0922
11032SOL    HW238933   4.299   6.119   5.803  0.5648  1.0305 -1.4838
11033SOL     OW38934   8.481   7.316   7.250 -0.4392  0.0455 -0.2344
11033SOL    HW138935   8.502   7.262   7.326  1.1269 -0.4585 -0.9767
11033SOL    HW238936   8.566   7.348   7.219 -1.0512  0.3808 -1.6747
11034SOL     OW38937   6.209   6.453   5.392 -0.0988  0.8766  0.6111
11034SOL    HW138938   6.295   6.484   5.420 -0.0893  0.8022  0.6628
11034SOL    HW238939   6.164   6.532   5.362  0.4974  0.7205 -0.7873
11035SOL     OW38940   1.669   3.470  10.368 -0.1405  0.5721  0.3091
11035SOL    HW138941   1.683   3.418  10.447  0.5935 -0.7002 -0.6466
11035SOL    HW238942   1.752   3.515  10.353  0.6270 -1.2295 -1.1791
11036SOL     OW38943   6.875   4.747   9.912 -0.0631  0.2714  0.5089
11036SOL    HW138944   6.960   4.766   9.873 -0.0887  0.2896  0.4614
11036SOL    HW238945   6.886   4.765  10.005 -0.6452  2.5208  0.2110
11037SOL     OW38946   5.042  10.140   8.737 -0.2045  0.5681  0.1487
11037SOL    HW138947   5.020  10.196   8.811  1.1991  0.4505  0.6916
11037SOL    HW238948   5.024  10.051   8.767  1.3721  0.4227  0.7960
11038SOL     OW38949   6.983   1.968   2.069 -0.4334  0.3056  0.3263
11038SOL    HW138950   6.923   1.988   2.141  0.2367  1.0928  0.6716
11038SOL    HW238951   6.955   2.025   1.998 -1.4635 -0.8757 -0.2697
11039SOL     OW38952   9.954   1.511   9.896 -0.0269  0.1360  0.3662
11039SOL    HW138953  10.046   1.528   9.874  0.1831 -0.7470  0.5337
11039SOL    HW238954   9.938   1.422   9.865 -0.8404  0.2918  0.3199
11040SOL     OW38955   5.840   4.737   7.957 -0.0672  0.2754  0.3941
11040SOL    HW138956   5.758   4.688   7.957  0.5942 -0.8738  0.1835
11040SOL    HW238957   5.815   4.826   7.933 -1.3888  0.2003  1.3934
11041SOL     OW38958   6.136   3.692   4.533  0.3480  0.5927 -0.4257
11041SOL    HW138959   6.075   3.630   4.493  0.7543  0.2348 -0.5084
11041SOL    HW238960   6.214   3.687   4.477  0.8813  0.1727  0.3333
11042SOL     OW38961   9.448   3.422   1.830  0.5656  0.5553 -0.3986
11042SOL    HW138962   9.508   3.468   1.888  0.2445  0.6804 -0.1613
11042SOL    HW238963   9.411   3.490   1.774  0.7871  0.4515 -0.6711
11043SOL     OW38964   1.118   6.622   1.381 -0.0922 -0.1212  0.3253
11043SOL    HW138965   1.115   6.567   1.458  1.3163 -1.9126 -0.8167
11043SOL    HW238966   1.144   6.708   1.413  0.7831 -0.9088  1.8124
11044SOL     OW38967  10.350   4.919   1.833  0.2106  0.4212 -0.3657
11044SOL    HW138968  10.319   4.959   1.915 -0.4760  0.3986 -0.6106
11044SOL    HW238969  10.435   4.880   1.856  0.0111  0.3907  0.3409
11045SOL     OW38970   9.916   4.865   4.393 -0.4766  0.3522  0.1374
11045SOL    HW138971   9.961   4.821   4.322  0.0873  1.0728  0.0345
11045SOL    HW238972   9.823   4.851   4.375 -0.3206 -0.0350 -0.3749
11046SOL     OW38973   9.327   0.402   5.775 -0.1960 -0.0718 -0.1623
11046SOL    HW138974   9.300   0.493   5.786  1.5016  0.3937  0.4615
11046SOL    HW238975   9.422   0.403   5.787 -0.3605 -2.2482  2.1671
11047SOL     OW38976   7.391   1.363  10.352 -0.2986 -0.4336  0.0538
11047SOL    HW138977   7.336   1.439  10.369 -0.5488 -0.5403 -0.2725
11047SOL    HW238978   7.430   1.343  10.437  1.6861  1.5180 -0.3147
11048SOL     OW38979   2.436  10.660   4.484 -0.1282 -0.0011 -0.6081
11048SOL    HW138980   2.381  10.638   4.408  1.5339 -2.9224 -1.1395
11048SOL    HW238981   2.490  10.732   4.454 -0.7919  0.1308 -1.5476
11049SOL     OW38982   1.085   4.506   9.522  0.3634  0.7895  0.2782
11049SOL    HW138983   1.037   4.555   9.456  0.6744  0.0203 -0.5395
11049SOL    HW238984   1.112   4.571   9.587 -0.9895  1.3586  0.2779
11050SOL     OW38985   7.468   2.952   6.151  0.1816  0.3169  0.3446
11050SOL    HW138986   7.501   2.977   6.065 -0.9172  1.5735  0.2610
11050SOL    HW238987   7.373   2.943   6.139 -0.1106  1.4174  1.6141
11051SOL     OW38988   6.064   4.188   7.221 -0.6901  0.1493 -0.2096
11051SOL    HW138989   5.998   4.127   7.255  0.3646 -1.0826 -0.2699
11051SOL    HW238990   6.017   4.270   7.208 -2.5259 -1.0162 -1.4354
11052SOL     OW38991   2.511   9.417   2.836  0.2748  0.1288  0.1366
11052SOL    HW138992   2.486   9.429   2.745  1.3763  0.8554 -0.0942
11052SOL    HW238993   2.428   9.413   2.884 -0.3121 -0.3146 -0.8973
11053SOL     OW38994   0.006   0.318   4.735  0.2498  0.2258 -0.6418
11053SOL    HW138995  -0.058   0.292   4.801  1.5095 -1.8625 -0.1396
11053SOL    HW238996  -0.014   0.263   4.660 -0.5175  1.8592 -1.6987
11054SOL     OW38997   9.074  10.488  10.914 -0.1579  0.3746 -0.4517
11054SOL    HW138998   9.136  10.562  10.913  0.9727 -0.5573 -0.6684
11054SOL    HW238999   9.019  10.505  10.991  0.0203  1.4878 -0.5512
11055SOL     OW39000   8.420   4.633   0.597  0.1237  0.7738 -0.2401
11055SOL    HW139001   8.469   4.623   0.679 -0.9399 -0.8015  0.2384
11055SOL    HW239002   8.334   4.596   0.615 -1.3526  3.5248 -1.0406
11056SOL     OW39003   7.109   4.778   5.168  0.2716 -0.8884  0.4944
11056SOL    HW139004   7.108   4.853   5.227 -0.4790 -0.7807  0.3594
11056SOL    HW239005   7.150   4.810   5.088 -0.1905 -0.5759  0.3814
11057SOL     OW39006   3.715   5.566   2.294  0.0458  0.2056  0.4108
11057SOL    HW139007   3.802   5.602   2.306  1.2819 -2.2863 -0.3407
11057SOL    HW239008   3.708   5.550   2.200  0.3659 -3.0012  0.8043
11058SOL     OW39009   1.560   5.820   2.406  0.9177  0.3384 -0.5110
11058SOL    HW139010   1.474   5.841   2.370  0.9602  2.7386  0.5871
11058SOL    HW239011   1.615   5.802   2.330 -0.5132 -1.2647 -1.2228
11059SOL     OW39012   5.443   7.394   0.059  0.1096  0.6176 -0.1662
11059SOL    HW139013   5.458   7.482   0.094  0.6366  0.1460  0.8148
11059SOL    HW239014   5.517   7.343   0.090  0.0756 -0.0584 -1.1659
11060SOL     OW39015   8.634   4.316   7.130  0.2588 -0.6480 -0.5231
11060SOL    HW139016   8.680   4.275   7.057 -0.3175  0.0652 -1.3050
11060SOL    HW239017   8.614   4.404   7.099 -0.2817 -0.4450  0.3746
11061SOL     OW39018   8.124   3.685   0.962 -0.3315 -0.5607  0.0151
11061SOL    HW139019   8.187   3.639   0.906  1.7873  1.7118  0.4051
11061SOL    HW239020   8.159   3.676   1.050 -1.1497 -0.1473  0.3918
11062SOL     OW39021   4.838   8.935   5.104 -0.1337 -0.5218 -0.0062
11062SOL    HW139022   4.892   8.863   5.134 -1.7986 -2.8290 -2.0574
11062SOL    HW239023   4.839   8.928   5.008  0.0857  2.6095 -0.3550
11063SOL     OW39024   8.111   9.436   3.257 -0.4667 -0.0417 -0.8059
11063SOL    HW139025   8.071   9.371   3.315 -1.0912  1.3186  0.3433
11063SOL    HW239026   8.194   9.459   3.299 -0.5396  0.3589 -0.8779
11064SOL     OW39027   2.325   6.143   7.079  0.1010 -0.4531  0.0456
11064SOL    HW139028   2.306   6.205   7.149  0.9728  1.1091 -1.0448
11064SOL    HW239029   2.253   6.153   7.017 -0.7334 -1.9212  0.6984
11065SOL     OW39030   8.786   8.303   8.021 -0.3149 -0.4629  0.3071
11065SOL    HW139031   8.831   8.352   8.090 -1.4223  0.7523  0.2195
11065SOL    HW239032   8.693   8.322   8.036 -0.5261  0.9479 -2.3182
11066SOL     OW39033   3.077   8.113   6.157 -0.2120 -0.5146  0.0578
11066SOL    HW139034   3.127   8.193   6.143  1.5874 -1.5721  0.0484
11066SOL    HW239035   3.013   8.111   6.086  0.6535  0.2130 -0.7606
11067SOL     OW39036   9.630   1.611   5.578 -1.2505 -0.2298 -0.0973
11067SOL    HW139037   9.636   1.534   5.522  1.2628 -0.2191  0.0607
11067SOL    HW239038   9.607   1.682   5.518  0.2558 -0.4290 -0.9716
11068SOL     OW39039  10.423   6.203   0.287 -0.3871  0.0953 -0.3135
11068SOL    HW139040  10.330   6.218   0.274 -0.4840 -0.5772 -0.3894
11068SOL    HW239041  10.465   6.282   0.252 -0.9631  0.7181  0.3725
11069SOL     OW39042   9.787   3.168   9.940 -0.0424  0.0272  0.2970
11069SOL    HW139043   9.768   3.121   9.858  1.0415 -0.8496  0.5218
11069SOL    HW239044   9.737   3.120  10.006  0.2676 -0.1935  0.3725
11070SOL     OW39045   0.518   0.962   9.513  0.0316 -0.0116 -0.0312
11070SOL    HW139046   0.544   0.996   9.598 -0.6427  1.0965 -0.2336
11070SOL    HW239047   0.454   0.893   9.532 -2.1283  1.9616  0.3820
11071SOL     OW39048   2.220   5.956   7.720 -0.0826 -0.3929  0.1597
11071SOL    HW139049   2.204   5.888   7.786 -0.6087  0.4031  0.8656
11071SOL    HW239050   2.312   5.980   7.731  0.6772 -2.2837 -1.3585
11072SOL     OW39051  10.120   3.086   2.462 -0.5368  0.3951  0.1227
11072SOL    HW139052  10.057   3.157   2.469 -0.7553  0.2634 -0.4320
11072SOL    HW239053  10.069   3.006   2.478 -0.4727  0.3014 -0.1360
11073SOL     OW39054   0.738   3.396   9.216  0.5544  0.3255 -0.0620
11073SOL    HW139055   0.670   3.341   9.176  2.2235 -0.8814 -1.4130
11073SOL    HW239056   0.773   3.344   9.287  1.0467  0.3024 -0.3143
11074SOL     OW39057   6.867   4.233  10.721 -0.3717  0.6013 -0.0162
11074SOL    HW139058   6.828   4.316  10.746  0.5407  1.1199 -0.2717
11074SOL    HW239059   6.955   4.235  10.758  0.8033  1.1353 -2.6276
11075SOL     OW39060   7.700   9.587   3.490  0.2211  0.0825  0.0618
11075SOL    HW139061   7.675   9.584   3.582 -0.1426  1.0852 -0.0029
11075SOL    HW239062   7.727   9.497   3.470  0.9501 -0.0012  1.3220
11076SOL     OW39063   4.221   6.260   0.697  0.4425 -0.2273 -0.0951
11076SOL    HW139064   4.198   6.315   0.622 -0.6987  1.3457  1.3220
11076SOL    HW239065   4.309   6.288   0.722 -0.0211  0.8190  0.4424
11077SOL     OW39066   4.025   2.671   5.510 -0.2627 -0.0232  0.2517
11077SOL    HW139067   4.104   2.678   5.457  0.0786  0.3880  0.7958
11077SOL    HW239068   3.965   2.734   5.472  0.3306  0.9752  0.9366
11078SOL     OW39069   0.598   2.552   5.605 -0.0895  0.1646 -0.0426
11078SOL    HW139070   0.572   2.492   5.674 -0.9616  0.1915 -0.3268
11078SOL    HW239071   0.523   2.553   5.545  0.6699  0.0985 -1.0148
11079SOL     OW39072   0.442   2.991   9.105 -0.1554  0.8107  0.6574
11079SOL    HW139073   0.450   2.939   9.025  0.1583 -0.1736  1.3203
11079SOL    HW239074   0.349   3.013   9.110 -0.6498 -1.2223  1.3016
11080SOL     OW39075   1.322   2.172   5.132 -0.0989 -0.4659 -0.5430
11080SOL    HW139076   1.304   2.255   5.088 -1.0492 -0.4408 -0.1298
11080SOL    HW239077   1.414   2.154   5.113  0.9399  2.0335  1.5720
11081SOL     OW39078   4.168  10.348   3.668 -0.8792 -0.0381 -0.1459
11081SOL    HW139079   4.120  10.413   3.616 -1.0118  0.0415  0.0733
11081SOL    HW239080   4.159  10.267   3.618  2.3298  0.7843 -2.3321
11082SOL     OW39081   2.792   6.940   9.589  0.8355 -0.0882  0.1367
11082SOL    HW139082   2.855   6.998   9.631  1.1647 -0.4189  0.1042
11082SOL    HW239083   2.845   6.870   9.551  0.3067 -2.4119  3.2135
11083SOL     OW39084   9.784   8.227   1.907 -0.1671 -0.1718 -0.0942
11083SOL    HW139085   9.873   8.205   1.879  0.0563  0.3228  0.2205
11083SOL    HW239086   9.730   8.210   1.829  0.3532  0.5275 -0.6227
11084SOL     OW39087   3.066   8.791   6.948  0.0807 -0.4198  0.3450
11084SOL    HW139088   3.071   8.818   7.039  0.6486 -1.3196  0.5940
11084SOL    HW239089   3.155   8.800   6.915  0.1148 -1.1843  0.2086
11085SOL     OW39090   0.818   4.390   7.825 -0.0904 -0.2853  0.2027
11085SOL    HW139091   0.813   4.479   7.859  0.9416 -0.0567 -0.1803
11085SOL    HW239092   0.741   4.346   7.859 -1.1197  1.0158 -0.3471
11086SOL     OW39093   7.321   1.485   9.221  0.1156 -0.0630 -0.3921
11086SOL    HW139094   7.231   1.487   9.254 -0.5749 -1.5489 -2.0485
11086SOL    HW239095   7.334   1.571   9.182 -0.2822  0.4497  0.5599
11087SOL     OW39096   4.306   7.428   4.260  0.5533 -0.3434  0.0436
11087SOL    HW139097   4.215   7.397   4.262  0.3390 -0.1657 -3.0448
11087SOL    HW239098   4.359   7.348   4.261  0.2590 -0.5515 -0.6318
11088SOL     OW39099   5.587   3.453   0.408  0.3753 -0.0785 -0.1927
11088SOL    HW139100   5.613   3.364   0.429  0.1489 -0.3568 -1.0623
11088SOL    HW239101   5.495   3.446   0.383  0.7894  0.1294 -1.8725
11089SOL     OW39102   8.202   0.992   6.812 -0.3031  0.1782 -0.2810
11089SOL    HW139103   8.214   1.074   6.765 -1.6426  0.7330  0.2864
11089SOL    HW239104   8.185   0.927   6.744 -0.3911  0.5973 -0.6614
11090SOL     OW39105  10.317   8.126   3.032 -0.5503 -0.2238  0.0993
11090SOL    HW139106  10.396   8.124   2.979  0.3433 -0.4691  1.4070
11090SOL    HW239107  10.257   8.066   2.988 -0.4231  0.7507 -1.4841
11091SOL     OW39108   0.505   4.558   6.293  0.2237 -0.5096 -0.5269
11091SOL    HW139109   0.533   4.647   6.313  3.0105 -1.2642 -0.5667
11091SOL    HW239110   0.494   4.557   6.198  2.3391 -0.6707 -0.8145
11092SOL     OW39111   4.032   0.687   7.525  0.1395 -0.1561 -0.4196
11092SOL    HW139112   4.010   0.771   7.566  1.7777  0.6618 -1.1398
11092SOL    HW239113   4.105   0.653   7.578  1.1546  0.1009 -1.6299
11093SOL     OW39114  10.672   5.534   8.768  0.5746  0.0272  0.5262
11093SOL    HW139115  10.618   5.613   8.764 -0.6922 -0.8062  0.4581
11093SOL    HW239116  10.659   5.501   8.857  0.3708 -0.5948  0.2688
11094SOL     OW39117   2.397   1.810   5.172  0.3288 -0.4538 -0.1050
11094SOL    HW139118   2.379   1.828   5.080  1.9872 -1.9842 -0.7857
11094SOL    HW239119   2.332   1.861   5.219 -0.3411  0.6540 -2.1031
11095SOL     OW39120   5.784   2.579   2.901 -0.0925 -0.0565  0.2517
11095SOL    HW139121   5.698   2.553   2.868  0.6862 -0.1026 -1.8892
11095SOL    HW239122   5.774   2.578   2.996 -2.2912 -0.5972  0.0772
11096SOL     OW39123   1.084   3.527   3.910  0.2902  0.1395 -0.2331
11096SOL    HW139124   1.117   3.511   3.998  0.8687 -3.5923 -0.9319
11096SOL    HW239125   0.993   3.498   3.913 -0.2169  1.6172 -0.5221
11097SOL     OW39126   7.558   0.355   1.866 -0.3039 -0.7056 -0.2132
11097SOL    HW139127   7.607   0.437   1.874  1.1147 -1.6742  2.2141
11097SOL    HW239128   7.466   0.382   1.863  0.2055  1.0389 -1.5267
11098SOL     OW39129   2.163   5.440   5.673 -0.3168  0.5735 -0.4718
11098SOL    HW139130   2.243   5.483   5.705  0.3331 -0.0043 -1.2587
11098SOL    HW239131   2.116   5.509   5.626 -1.7613  1.7051  2.3699
11099SOL     OW39132   6.231   1.711   2.427 -0.1644 -0.5799 -0.8914
11099SOL    HW139133   6.277   1.782   2.382 -3.2242  1.6327 -0.8257
11099SOL    HW239134   6.278   1.701   2.510  0.9825  0.6005 -1.3627
11100SOL     OW39135   6.340   8.553   8.905 -1.0723  0.0629 -0.2047
11100SOL    HW139136   6.391   8.495   8.848 -2.0677 -0.8989 -0.1538
11100SOL    HW239137   6.255   8.511   8.910 -1.2661  0.6077  1.2928
11101SOL     OW39138   6.128   6.334   7.569 -0.5643  0.0051  0.1848
11101SOL    HW139139   6.176   6.255   7.546 -1.0354  0.1584 -1.4648
11101SOL    HW239140   6.072   6.351   7.493  0.7369  2.8534 -0.2957
11102SOL     OW39141   8.039   5.631   5.563 -0.0299  0.2333 -0.0785
11102SOL    HW139142   8.069   5.642   5.653  1.0530  1.6133 -0.5726
11102SOL    HW239143   7.969   5.565   5.569  0.2025  0.0943  1.7121
11103SOL     OW39144   8.871   4.670   4.075  0.2630  0.9653 -0.3305
11103SOL    HW139145   8.838   4.695   4.161 -0.6543  0.5241 -0.5428
11103SOL    HW239146   8.812   4.711   4.012  1.0289  1.4325 -0.7665
11104SOL     OW39147   2.954  10.567   1.805  0.0752  0.3054 -0.3936
11104SOL    HW139148   2.959  10.474   1.827  0.1840  0.0158 -1.5935
11104SOL    HW239149   3.035  10.605   1.840 -0.1799  0.0508  0.5016
11105SOL     OW39150   8.961   0.612   7.403  0.0812  0.0331 -0.3206
11105SOL    HW139151   9.030   0.668   7.368  0.1649  0.5787  0.6691
11105SOL    HW239152   8.880   0.661   7.385  0.0708  0.0273 -0.2908
11106SOL     OW39153   9.400   9.955   6.663 -0.1000 -0.3325  0.0678
11106SOL    HW139154   9.412   9.910   6.580 -0.8383 -0.7871  0.1961
11106SOL    HW239155   9.386   9.884   6.727 -2.2882  0.0502  0.1075
11107SOL     OW39156   3.175   6.016   1.474 -0.6238  0.1720  0.6393
11107SOL    HW139157   3.201   6.102   1.506 -0.1093  1.0039 -1.8175
11107SOL    HW239158   3.108   6.034   1.408 -0.9240 -1.3562  0.4818
11108SOL     OW39159   3.288   6.628   1.627  0.0144  0.7370 -0.1104
11108SOL    HW139160   3.248   6.714   1.633  0.0421  0.8533 -1.2699
11108SOL    HW239161   3.215   6.570   1.604 -0.2325  0.2235  1.8332
11109SOL     OW39162   6.056   8.482   8.577 -0.1535 -0.5006 -0.3260
11109SOL    HW139163   6.075   8.426   8.653 -0.3261  0.1424  0.1969
11109SOL    HW239164   5.985   8.438   8.532  0.7437 -1.5162 -0.7863
11110SOL     OW39165   7.701   7.698   8.458 -0.4555  0.1162 -0.5810
11110SOL    HW139166   7.666   7.714   8.371  0.3068 -2.1949 -1.3817
11110SOL    HW239167   7.659   7.617   8.487 -0.7950  0.8928  1.3020
11111SOL     OW39168   3.881   4.866   8.664  0.1200 -0.1923 -0.4361
11111SOL    HW139169   3.786   4.877   8.675 -0.1355 -2.2518 -0.0091
11111SOL    HW239170   3.919   4.905   8.743 -0.7112 -2.4931  1.2480
11112SOL     OW39171   8.857  10.473   2.591 -0.4021 -0.7762 -0.1118
11112SOL    HW139172   8.762  10.469   2.575 -0.3328 -0.9437 -0.4944
11112SOL    HW239173   8.875  10.398   2.646 -0.5363 -0.5913  0.1852
11113SOL     OW39174   4.087   0.754   4.455  0.0570 -0.8524  0.0233
11113SOL    HW139175   4.069   0.670   4.413 -2.2247 -1.2976  1.7021
11113SOL    HW239176   4.009   0.772   4.508  1.1116  1.6011  0.8967
11114SOL     OW39177   4.605   0.627   5.452  0.5246 -0.0255 -0.2224
11114SOL    HW139178   4.675   0.614   5.388  1.2712  0.4515  0.4742
11114SOL    HW239179   4.602   0.721   5.466  1.7680 -0.2444  1.9314
11115SOL     OW39180   1.422  10.589   9.684  0.1258 -0.5725 -0.0390
11115SOL    HW139181   1.391  10.679   9.670  0.1697 -0.3744  1.0269
11115SOL    HW239182   1.347  10.543   9.720  0.1330 -0.9479 -0.4940
11116SOL     OW39183   0.986   1.225  10.120  0.4675  0.1743  0.2244
11116SOL    HW139184   1.037   1.248  10.198  1.2186 -1.4222  0.2512
11116SOL    HW239185   0.925   1.157  10.150  0.0007  0.3361 -0.3402
11117SOL     OW39186   7.772   2.747   2.933 -0.4634 -0.7412  0.4870
11117SOL    HW139187   7.868   2.749   2.937 -0.4114  0.7702 -0.4835
11117SOL    HW239188   7.752   2.665   2.888  0.3448 -1.2496  1.0169
11118SOL     OW39189   1.672   1.882   5.988  0.3585  0.2703 -0.0116
11118SOL    HW139190   1.630   1.968   5.987  2.8234  1.5954 -1.4218
11118SOL    HW239191   1.755   1.897   6.034  1.3430 -1.0673 -1.2538
11119SOL     OW39192   8.276   4.204   4.074 -0.1609 -0.3038  0.5668
11119SOL    HW139193   8.366   4.175   4.057  0.0314  1.0024 -0.8727
11119SOL    HW239194   8.230   4.124   4.100  1.1433 -1.2215  0.1913
11120SOL     OW39195  10.220   3.207   4.874  0.1489 -0.0993  0.9029
11120SOL    HW139196  10.263   3.292   4.876  1.4648 -0.7070  0.0582
11120SOL    HW239197  10.182   3.202   4.786  0.0818 -0.4003  0.9483
11121SOL     OW39198   8.101   1.470   9.397 -0.4296  0.4406  0.1662
11121SOL    HW139199   8.186   1.468   9.352 -0.7918 -2.6643 -0.6054
11121SOL    HW239200   8.053   1.540   9.355 -0.2343 -1.3845 -3.4505
11122SOL     OW39201   4.650   8.987   1.244  0.8131 -0.0274  0.0075
11122SOL    HW139202   4.689   9.057   1.296  0.1903 -0.4252  1.0346
11122SOL    HW239203   4.573   9.026   1.203  0.5898 -0.0447  0.4053
11123SOL     OW39204   1.584   5.734   6.352 -0.1379 -0.0031 -0.0759
11123SOL    HW139205   1.506   5.747   6.298 -0.7151  1.5175  1.0650
11123SOL    HW239206   1.551   5.695   6.433  0.6246 -1.5577 -0.4719
11124SOL     OW39207   5.793   5.895   8.551 -0.2620  0.4169 -0.4199
11124SOL    HW139208   5.716   5.952   8.557 -0.2695  0.3913 -0.2541
11124SOL    HW239209   5.829   5.895   8.640 -0.6300 -0.3305 -0.2602
11125SOL     OW39210   4.791   2.729   7.603  0.4091  0.2695  0.5922
11125SOL    HW139211   4.812   2.753   7.693  3.9518 -0.5097  0.1218
11125SOL    HW239212   4.811   2.807   7.551 -1.0892  0.5394  0.3741
11126SOL     OW39213   1.592   6.234   8.530 -0.4339 -0.3449 -0.6218
11126SOL    HW139214   1.599   6.313   8.584 -1.9311 -0.1053 -0.7349
11126SOL    HW239215   1.611   6.264   8.441 -0.3089 -0.2451 -0.5609
11127SOL     OW39216   8.163  10.073   8.514  0.0447  0.0708 -0.8243
11127SOL    HW139217   8.241  10.127   8.528 -0.3327  0.5734 -0.6222
11127SOL    HW239218   8.133  10.051   8.603 -0.7793  0.9615 -0.8651
11128SOL     OW39219   1.477  10.882   5.530  0.3805 -0.2666  0.3099
11128SOL    HW139220   1.460  10.932   5.450 -3.6181 -0.4753  0.8150
11128SOL    HW239221   1.505  10.796   5.498 -0.3552 -0.1054 -0.8586
11129SOL     OW39222   5.073   3.410   0.779  0.7005  0.4017  0.0962
11129SOL    HW139223   5.134   3.336   0.770  0.0552  0.0354 -1.8304
11129SOL    HW239224   5.108   3.461   0.852  2.0238 -0.9998  0.5050
11130SOL     OW39225   5.578   2.054   0.686 -0.1275 -0.4225  0.2276
11130SOL    HW139226   5.564   1.974   0.635 -4.9008  0.2084  0.0865
11130SOL    HW239227   5.556   2.125   0.626  2.3415  1.0262  0.8804
11131SOL     OW39228   7.598   1.861  10.116 -0.2215 -0.3798 -0.0496
11131SOL    HW139229   7.632   1.845  10.204  3.0336 -1.6673 -1.3912
11131SOL    HW239230   7.540   1.787  10.099 -0.4177 -0.4282  0.7823
11132SOL     OW39231   5.095   0.496   9.954  0.5800 -0.0378  0.0157
11132SOL    HW139232   5.028   0.446  10.000  0.3424  0.3025  0.0459
11132SOL    HW239233   5.067   0.588   9.963  1.8403  0.2469  1.3234
11133SOL     OW39234   2.938   9.322   6.640 -0.2865 -0.1426 -0.0078
11133SOL    HW139235   2.878   9.249   6.626  0.1513 -0.5498  0.2229
11133SOL    HW239236   2.916   9.385   6.571 -0.5119 -0.5911 -0.3490
11134SOL     OW39237  10.884  10.661   8.078 -0.1571 -0.4383  0.5434
11134SOL    HW139238  10.880  10.750   8.041  0.5829 -1.4634 -2.3142
11134SOL    HW239239  10.944  10.668   8.152  1.1264  1.1802 -0.5831
11135SOL     OW39240   3.816   5.428  10.479  0.0185  0.5195 -0.0654
11135SOL    HW139241   3.822   5.464  10.567 -1.4521  0.7205 -0.0275
11135SOL    HW239242   3.895   5.458  10.435  0.3449  1.1426  0.9240
11136SOL     OW39243  10.167   9.521   6.611 -0.0079  0.2548  0.4332
11136SOL    HW139244  10.106   9.536   6.683 -1.0267 -0.3360 -0.2733
11136SOL    HW239245  10.165   9.427   6.596  2.7438 -0.1183  1.7672
11137SOL     OW39246   2.689   0.171   1.667  0.3855  0.5051  0.4049
11137SOL    HW139247   2.618   0.174   1.603  0.9670  0.2197 -0.2652
11137SOL    HW239248   2.645   0.158   1.751 -0.4406  1.6845  0.1712
11138SOL     OW39249   9.926  10.832   1.209 -0.1541 -0.0119 -0.7955
11138SOL    HW139250  10.011  10.810   1.170  0.0862 -1.2799  0.3800
11138SOL    HW239251   9.864  10.823   1.137  0.4713 -0.8917 -1.2463
11139SOL     OW39252   6.202  10.497   2.300 -0.0484 -0.5113  0.0013
11139SOL    HW139253   6.222  10.567   2.361 -1.4422 -0.3741  0.3344
11139SOL    HW239254   6.288  10.465   2.271  0.6114  0.6371  0.6153
11140SOL     OW39255  10.442   5.514   1.209  0.1782 -0.0547  0.2981
11140SOL    HW139256  10.447   5.482   1.299 -0.7937 -0.0739  0.3588
11140SOL    HW239257  10.349   5.510   1.187  0.0509  2.4276  0.1829
11141SOL     OW39258  10.029   6.257   8.588 -0.2869 -0.3590  0.0114
11141SOL    HW139259   9.957   6.265   8.651 -0.6053 -1.5378 -0.1749
11141SOL    HW239260   9.985   6.242   8.504  0.1710 -0.6442 -0.1785
11142SOL     OW39261   0.299  10.370   7.392 -0.1153 -0.5673 -0.5617
11142SOL    HW139262   0.280  10.421   7.313 -0.9608  1.9411  1.1078
11142SOL    HW239263   0.374  10.414   7.432 -0.3042 -1.1624  0.5070
11143SOL     OW39264   0.084   3.625   4.475  0.0082  0.1121  0.2219
11143SOL    HW139265   0.069   3.531   4.485  1.0417 -0.0467  0.3348
11143SOL    HW239266   0.034   3.648   4.396  1.3254 -0.9328 -0.9734
11144SOL     OW39267   2.063  10.109   0.343 -0.8681 -0.2438 -0.2653
11144SOL    HW139268   2.122  10.157   0.401 -0.8210 -1.3978  0.6783
11144SOL    HW239269   2.074  10.017   0.369 -1.8053 -0.6476 -1.2439
11145SOL     OW39270   4.773   9.876  10.432 -0.3565 -0.1147 -0.6462
11145SOL    HW139271   4.754   9.911  10.519 -1.1584 -2.7076  0.3035
11145SOL    HW239272   4.686   9.861  10.393 -0.0284 -0.3650 -1.2983
11146SOL     OW39273   1.080   1.730   9.394 -0.1102 -0.1430 -0.0675
11146SOL    HW139274   1.044   1.819   9.396  0.2434  0.0068 -0.2149
11146SOL    HW239275   1.026   1.681   9.456  1.0029  0.6850  1.6308
11147SOL     OW39276   5.774   1.173  10.032 -0.1393  0.6374 -0.2081
11147SOL    HW139277   5.729   1.099  10.072 -1.2879  0.8982 -0.9389
11147SOL    HW239278   5.866   1.160  10.051 -0.4227 -0.5035  0.4288
11148SOL     OW39279   2.170   0.863   7.148  0.1694  0.5231  0.1906
11148SOL    HW139280   2.139   0.780   7.111 -0.9850  0.1395  1.8852
11148SOL    HW239281   2.264   0.862   7.133 -0.0642 -0.2625 -1.4049
11149SOL     OW39282   0.678   4.146  10.165 -0.6067 -0.1724 -0.2787
11149SOL    HW139283   0.683   4.164  10.071 -1.0563  1.3305 -0.0389
11149SOL    HW239284   0.638   4.059  10.170 -0.5430 -0.2936 -1.4704
11150SOL     OW39285   4.513   7.531   8.939 -0.3823  0.2166 -0.2720
11150SOL    HW139286   4.602   7.524   8.974 -1.0482  1.5322  1.8878
11150SOL    HW239287   4.457   7.503   9.012 -1.7834  0.4394 -1.2357
11151SOL     OW39288   0.926   7.591   3.556  0.0362  0.2599  0.1715
11151SOL    HW139289   0.839   7.614   3.590  0.0248  1.5492 -0.6665
11151SOL    HW239290   0.909   7.552   3.471  0.2558 -0.0501  0.2663
11152SOL     OW39291   7.515   3.443   2.035 -0.1414 -0.4081  0.1495
11152SOL    HW139292   7.420   3.455   2.028 -0.3162 -1.8135 -0.1161
11152SOL    HW239293   7.545   3.436   1.944  0.5251  1.9688  0.1168
11153SOL     OW39294   4.347   7.338   6.547 -0.2567 -0.1590  0.2562
11153SOL    HW139295   4.419   7.337   6.484  0.6405 -0.4924  1.2632
11153SOL    HW239296   4.277   7.385   6.501  0.4223 -0.2349 -0.9185
11154SOL     OW39297   1.006   0.716   3.020 -0.3833 -0.0339 -0.3886
11154SOL    HW139298   1.009   0.764   2.937  2.5528 -1.1751 -1.0562
11154SOL    HW239299   1.000   0.624   2.995  3.3883 -0.6662  0.3644
11155SOL     OW39300   4.507   3.760   4.927 -0.4225 -0.4000 -0.1655
11155SOL    HW139301   4.546   3.787   4.844 -0.8104  1.1806  0.1351
11155SOL    HW239302   4.412   3.761   4.910 -0.6326  1.7967  0.7559
11156SOL     OW39303   3.928   7.154   5.871  0.3561 -0.4861  0.1271
11156SOL    HW139304   3.926   7.117   5.782  0.6780 -0.5141  0.1304
11156SOL    HW239305   3.927   7.249   5.857  1.4254 -0.4674  0.0524
11157SOL     OW39306   4.991   4.371   4.720 -0.1116  0.6291  0.2711
11157SOL    HW139307   4.932   4.390   4.794 -0.7804 -0.3778  0.0125
11157SOL    HW239308   5.006   4.457   4.679  0.2519  1.1974  1.5473
11158SOL     OW39309   6.586   7.012   7.686  0.7407  0.2553  0.2056
11158SOL    HW139310   6.580   7.006   7.782 -2.1412  1.5327  0.2147
11158SOL    HW239311   6.650   6.946   7.662  1.1506 -0.4988  2.9821
11159SOL     OW39312   2.011   7.709   7.101  0.8313  0.3674 -0.5803
11159SOL    HW139313   2.012   7.613   7.098  0.8832  0.2893  1.1651
11159SOL    HW239314   1.989   7.735   7.011  0.6307 -1.2717 -1.0443
11160SOL     OW39315   9.766   0.148   6.393 -0.2631 -0.0875 -0.5225
11160SOL    HW139316   9.685   0.128   6.345 -0.1576 -0.1344 -0.6812
11160SOL    HW239317   9.764   0.088   6.469 -0.3465 -0.1315 -0.5594
11161SOL     OW39318   7.529   3.932   3.891  0.3057 -0.4844 -0.4790
11161SOL    HW139319   7.530   3.977   3.976  1.6326 -0.1951 -0.6249
11161SOL    HW239320   7.474   3.988   3.836 -0.2683 -0.4817  0.0811
11162SOL     OW39321   3.955   2.276   2.822  0.3777 -0.1096 -0.5217
11162SOL    HW139322   4.024   2.248   2.882 -0.2737  0.6196  0.5946
11162SOL    HW239323   3.965   2.371   2.816 -0.0026 -0.0971 -1.0164
11163SOL     OW39324   8.820   0.163   9.265  0.2138 -0.7400 -0.6037
11163SOL    HW139325   8.913   0.180   9.250  0.2432 -1.5518 -1.4460
11163SOL    HW239326   8.805   0.190   9.356  1.3443 -0.8736 -0.3574
11164SOL     OW39327   4.759   6.305   9.735 -0.8965  0.7447  0.2176
11164SOL    HW139328   4.686   6.251   9.764 -0.4551 -0.5716 -0.9830
11164SOL    HW239329   4.758   6.297   9.639  1.0232  0.3471  0.1850
11165SOL     OW39330   8.117   0.176   6.278  0.1041 -0.4799 -0.5433
11165SOL    HW139331   8.030   0.216   6.272  0.7394  0.9816 -0.4973
11165SOL    HW239332   8.128   0.159   6.371  1.0379  2.2316 -0.0512
11166SOL     OW39333   4.997   5.099   2.877 -0.2442 -0.2856  0.1735
11166SOL    HW139334   5.048   5.035   2.927 -0.8696 -0.2795  0.8376
11166SOL    HW239335   5.043   5.107   2.794  0.4476 -0.7932  0.4992
11167SOL     OW39336   2.643   1.900   0.550 -0.0075 -0.7350  0.0051
11167SOL    HW139337   2.699   1.827   0.578 -2.4435 -2.4617  0.7030
11167SOL    HW239338   2.610   1.872   0.465 -0.4752 -0.1564 -0.0042
11168SOL     OW39339   6.633   2.090   7.723  0.0182  0.5869  0.3861
11168SOL    HW139340   6.666   2.176   7.695  0.6953 -0.2555 -1.5783
11168SOL    HW239341   6.539   2.093   7.704 -0.3484  1.5125  2.1048
11169SOL     OW39342   2.496   8.066   3.739  0.0088  0.5108 -0.1424
11169SOL    HW139343   2.489   8.026   3.652 -0.1920  0.2239  0.0041
11169SOL    HW239344   2.469   7.996   3.799  3.4155 -0.4647  0.4445
11170SOL     OW39345   4.041   8.310   0.013 -0.9165  0.1503 -0.2418
11170SOL    HW139346   4.020   8.362   0.091 -2.5762  2.0151 -1.8109
11170SOL    HW239347   3.976   8.338  -0.052  0.8412 -0.7843 -2.5301
11171SOL     OW39348   9.584   6.859   5.241  0.6134 -0.1806 -0.0052
11171SOL    HW139349   9.560   6.790   5.178  0.5863 -0.8901  0.7580
11171SOL    HW239350   9.564   6.821   5.326  1.0130  0.6210  0.4548
11172SOL     OW39351  10.271   5.607   4.223 -0.3582 -0.5712  0.3740
11172SOL    HW139352  10.292   5.659   4.146 -0.6894  0.4541  0.9613
11172SOL    HW239353  10.310   5.521   4.205 -0.1284 -0.2462 -0.7707
11173SOL     OW39354   9.135   1.920   7.386 -0.3245 -0.2639  0.1259
11173SOL    HW139355   9.085   1.895   7.464 -0.5261 -1.0579 -0.2471
11173SOL    HW239356   9.147   2.015   7.395  1.9679 -0.6509  2.4688
11174SOL     OW39357   6.882   9.819   8.285 -0.2692  0.8662  0.2713
11174SOL    HW139358   6.859   9.905   8.251 -0.9187  1.4699  2.1089
11174SOL    HW239359   6.808   9.794   8.340  0.1695 -0.6208  0.2502
11175SOL     OW39360   6.229  10.850   9.065  0.1755  0.3571  0.2213
11175SOL    HW139361   6.217  10.944   9.059  2.4270  0.6168 -1.6253
11175SOL    HW239362   6.175  10.814   8.994 -0.1758  0.2993  0.5140
11176SOL     OW39363   2.332   8.310   6.406 -0.2671 -0.2117 -0.2697
11176SOL    HW139364   2.282   8.304   6.487 -1.2680 -0.4172 -0.8775
11176SOL    HW239365   2.265   8.309   6.337  0.5897 -0.5917 -1.1171
11177SOL     OW39366   1.087   8.197   0.378  0.2967 -0.7585  0.0115
11177SOL    HW139367   1.136   8.164   0.453  1.0464  1.5783  0.6318
11177SOL    HW239368   1.144   8.264   0.340 -1.2162  0.0289 -0.9724
11178SOL     OW39369   0.703   1.085   4.127 -0.2326 -0.4317 -0.0061
11178SOL    HW139370   0.710   0.996   4.094 -0.2133  0.0749 -1.4394
11178SOL    HW239371   0.617   1.114   4.100 -0.1916  0.0347  0.3446
11179SOL     OW39372   3.303   5.928   7.622  0.2911 -0.3289  0.0939
11179SOL    HW139373   3.374   5.876   7.586  0.3256 -0.1219 -0.1417
11179SOL    HW239374   3.293   5.898   7.712  0.4777 -0.5649  0.0338
11180SOL     OW39375   2.070   3.401   2.224  0.5707  0.4754  0.3147
11180SOL    HW139376   2.018   3.481   2.232 -0.9534 -0.2812 -1.3191
11180SOL    HW239377   2.120   3.396   2.306 -0.1284  2.4982  0.9140
11181SOL     OW39378   2.095   3.677   6.578 -0.6711 -0.6048  0.2743
11181SOL    HW139379   2.041   3.683   6.656 -1.7211 -0.4471 -0.4468
11181SOL    HW239380   2.043   3.719   6.509  0.4172 -0.3411 -0.4182
11182SOL     OW39381   7.626   7.831   8.164 -0.0535  0.0077 -0.5250
11182SOL    HW139382   7.692   7.771   8.130  2.3214  1.0734  1.7995
11182SOL    HW239383   7.611   7.894   8.094  1.2004 -0.4450 -1.2215
11183SOL     OW39384   0.480   4.042   0.036  0.1158 -0.4360  0.2362
11183SOL    HW139385   0.473   4.034  -0.059 -1.0846 -1.2004  0.3653
11183SOL    HW239386   0.417   4.111   0.059 -1.9925 -2.4153  0.7430
11184SOL     OW39387   6.697   6.921   3.618 -0.1321  0.4094 -0.2324
11184SOL    HW139388   6.720   6.877   3.699 -1.1722  2.1298  1.0730
11184SOL    HW239389   6.610   6.889   3.596 -0.1701  0.5246 -0.2496
11185SOL     OW39390  10.077   2.642   6.648 -0.1534 -0.5754  0.4948
11185SOL    HW139391  10.074   2.665   6.741 -1.1644 -0.6879  0.4965
11185SOL    HW239392   9.986   2.629   6.623 -0.6623  4.8458 -1.8610
11186SOL     OW39393   0.750   6.482  10.475  0.3800  0.8475  0.1169
11186SOL    HW139394   0.666   6.447  10.445  0.6279 -0.4123  0.8599
11186SOL    HW239395   0.791   6.515  10.395 -0.9394  1.7876 -0.2118
11187SOL     OW39396   5.157   2.114  10.901  0.2136  0.3572  0.2558
11187SOL    HW139397   5.178   2.022  10.882 -0.9405 -0.1477  1.2335
11187SOL    HW239398   5.098   2.140  10.830  1.0803  0.5656 -0.3951
11188SOL     OW39399   9.702   7.703   8.684  0.2131  0.2025  0.2055
11188SOL    HW139400   9.677   7.669   8.598 -0.9677 -0.4544  0.7835
11188SOL    HW239401   9.619   7.732   8.724  0.9508  2.1458  0.4441
11189SOL     OW39402   0.852   8.102   9.510 -0.1066  0.2026  0.6163
11189SOL    HW139403   0.887   8.014   9.521  0.6238  0.1840 -1.4074
11189SOL    HW239404   0.793   8.096   9.435  0.6878  1.5885 -0.1634
11190SOL     OW39405   3.974   2.417   6.941 -0.2097  0.0854 -0.3892
11190SOL    HW139406   3.969   2.344   7.002  0.1607 -0.0932 -0.5747
11190SOL    HW239407   3.992   2.493   6.996  1.2517 -0.2446 -0.3859
11191SOL     OW39408   1.222   7.332   7.441  0.1134 -0.0626 -0.0688
11191SOL    HW139409   1.209   7.342   7.347 -0.0729  0.0661 -0.0290
11191SOL    HW239410   1.135   7.314   7.475  0.2467 -0.5666  0.0217
11192SOL     OW39411   8.885   9.849   3.756 -0.0651 -0.1263  0.8707
11192SOL    HW139412   8.946   9.777   3.738 -0.3228 -0.2363  0.3973
11192SOL    HW239413   8.938   9.916   3.800  1.1693  1.0389 -2.0900
11193SOL     OW39414   9.381   3.608   6.034 -0.3856  0.6923 -0.0547
11193SOL    HW139415   9.476   3.618   6.045 -0.3045  0.0671 -0.1831
11193SOL    HW239416   9.354   3.553   6.107 -0.6607  0.9105  0.0090
11194SOL     OW39417   2.635   8.232   1.374  0.0968 -0.1622 -0.3734
11194SOL    HW139418   2.648   8.196   1.462 -0.4911  0.2961 -0.0877
11194SOL    HW239419   2.611   8.324   1.389 -0.0674 -0.0941 -1.0067
11195SOL     OW39420   7.083   5.870   6.676  0.0968  0.3561  0.5775
11195SOL    HW139421   7.091   5.846   6.584  0.4183 -0.3167  0.7689
11195SOL    HW239422   7.156   5.930   6.692  0.2067  0.2546  0.4603
11196SOL     OW39423   1.276   0.246   8.106 -0.2610 -0.0982  0.0996
11196SOL    HW139424   1.276   0.337   8.075 -0.1003 -0.8245 -2.1439
11196SOL    HW239425   1.186   0.231   8.135 -0.0582  1.0452  1.4356
11197SOL     OW39426   0.255   8.362   7.726  0.4562 -0.0329 -0.0812
11197SOL    HW139427   0.230   8.441   7.773 -1.2257 -0.6696  0.1634
11197SOL    HW239428   0.329   8.327   7.775  2.7604  2.5282 -1.4645
11198SOL     OW39429   2.810   2.158   3.357 -0.0963  0.0263 -0.1173
11198SOL    HW139430   2.791   2.083   3.301  0.3175  0.0820 -0.3426
11198SOL    HW239431   2.818   2.121   3.445  0.1736 -0.2057 -0.2371
11199SOL     OW39432   6.362   6.130   5.821 -0.0751  0.1724  0.5399
11199SOL    HW139433   6.397   6.213   5.854  2.1768 -0.5553  0.1011
11199SOL    HW239434   6.403   6.119   5.735 -0.6033 -1.2363  0.4460
11200SOL     OW39435   2.352   7.806   1.074  0.2201  0.0881 -0.4486
11200SOL    HW139436   2.273   7.791   1.022  0.6334 -0.1673 -1.0160
11200SOL    HW239437   2.386   7.889   1.042  0.0604  0.3102 -0.0453
11201SOL     OW39438   6.395   7.797   6.174  0.0457  0.3331 -0.4625
11201SOL    HW139439   6.327   7.783   6.109  0.3528 -1.2761 -0.4724
11201SOL    HW239440   6.473   7.819   6.123 -0.4990  2.5743 -0.4343
11202SOL     OW39441   7.320   7.669   0.992 -0.2594  0.5573  0.0730
11202SOL    HW139442   7.291   7.699   0.905  0.6506  0.3565 -0.3078
11202SOL    HW239443   7.414   7.654   0.982 -0.1205  0.6670  1.1402
11203SOL     OW39444   8.076   5.878   3.106  0.0292  0.1618  0.2063
11203SOL    HW139445   8.027   5.949   3.147  1.1653  1.3769 -0.4463
11203SOL    HW239446   8.055   5.884   3.013 -2.0011 -2.1429  0.4236
11204SOL     OW39447   7.620   6.775   3.449  0.0721  0.1105 -0.2038
11204SOL    HW139448   7.596   6.762   3.541 -1.1365 -1.6630 -0.7193
11204SOL    HW239449   7.642   6.868   3.443 -1.2607  0.5899  1.5538
11205SOL     OW39450   3.242   5.897   9.132 -0.1836  0.6604  0.0760
11205SOL    HW139451   3.171   5.876   9.192  1.4385  0.9094  2.2205
11205SOL    HW239452   3.309   5.831   9.150  0.8728  1.5360 -0.4977
11206SOL     OW39453   7.948   3.775   2.486  0.6131 -0.0038 -0.2681
11206SOL    HW139454   7.881   3.789   2.552  0.3599  1.5499 -0.8209
11206SOL    HW239455   7.972   3.862   2.456  1.6320 -0.6093 -1.3289
11207SOL     OW39456   8.575   7.790   5.952  0.0723  0.0264  0.2705
11207SOL    HW139457   8.584   7.808   5.858  0.0583  0.1925  0.3006
11207SOL    HW239458   8.613   7.703   5.963 -2.1344 -1.0645 -0.3107
11208SOL     OW39459   7.097   7.188   0.410  0.1329 -0.0849  0.1743
11208SOL    HW139460   7.012   7.217   0.378 -0.5435 -1.4447  0.6529
11208SOL    HW239461   7.155   7.262   0.395 -1.1939  0.9778  0.0898
11209SOL     OW39462   2.376   0.508   4.261 -0.6494  1.0123 -0.1696
11209SOL    HW139463   2.290   0.466   4.265  0.1937 -0.6904  1.8367
11209SOL    HW239464   2.361   0.595   4.300 -1.1975  0.1312  1.7194
11210SOL     OW39465   4.165   5.399   1.202  0.2838 -0.9712 -0.3238
11210SOL    HW139466   4.078   5.359   1.207 -1.1044  1.6129 -1.7682
11210SOL    HW239467   4.197   5.375   1.115  0.2719 -0.5317 -0.4504
11211SOL     OW39468   2.991  10.691   7.834 -0.2619  0.1547 -0.6462
11211SOL    HW139469   3.050  10.624   7.867 -0.4242 -0.3866 -1.4134
11211SOL    HW239470   3.036  10.774   7.850  0.1875 -0.1776 -0.1878
11212SOL     OW39471   0.115   1.961   7.590  0.4539  1.1077  0.0435
11212SOL    HW139472   0.117   1.891   7.656  0.7684  0.9597 -0.1140
11212SOL    HW239473   0.200   2.005   7.601 -0.2110  2.2099  0.9169
11213SOL     OW39474   1.512  10.127   7.642 -0.2350  0.1084 -0.3700
11213SOL    HW139475   1.600  10.144   7.676  0.7512 -2.5484 -1.2900
11213SOL    HW239476   1.488  10.043   7.681 -2.0726  0.4290 -0.7269
11214SOL     OW39477   7.800   8.753   8.412 -0.1606  0.4999 -0.4784
11214SOL    HW139478   7.751   8.695   8.355 -0.4503 -0.4397  0.6795
11214SOL    HW239479   7.891   8.727   8.400 -0.2544  0.0550 -0.2538
11215SOL     OW39480   6.295   4.643  10.918  0.6634  0.0654 -0.1927
11215SOL    HW139481   6.357   4.572  10.905  1.0038  0.6543 -1.9886
11215SOL    HW239482   6.214   4.613  10.877  0.8525  0.7538 -1.0941
11216SOL     OW39483   0.262   8.626   0.481 -0.5398  0.2583  0.1666
11216SOL    HW139484   0.244   8.559   0.547  0.4186 -1.9135 -1.6223
11216SOL    HW239485   0.346   8.662   0.506 -1.5632  1.6604  1.7583
11217SOL     OW39486   0.665   1.147   2.556  0.1742  1.0477 -0.0042
11217SOL    HW139487   0.731   1.182   2.615  0.2223  0.8853  0.0379
11217SOL    HW239488   0.704   1.154   2.469  0.7690 -0.2346  0.1406
11218SOL     OW39489  10.699   2.580   7.170 -0.1124  0.2924 -0.2353
11218SOL    HW139490  10.727   2.592   7.260 -0.5500  2.1490 -0.3110
11218SOL    HW239491  10.773   2.534   7.128  0.2782 -0.1819  0.9301
11219SOL     OW39492   8.870   8.522   8.233  0.5174  0.0055  0.2998
11219SOL    HW139493   8.882   8.587   8.163 -1.8491 -1.1284 -1.2786
11219SOL    HW239494   8.807   8.562   8.293 -0.1842 -0.4028 -0.1496
11220SOL     OW39495   9.538   2.989   2.527 -0.9098 -0.1195 -0.2619
11220SOL    HW139496   9.557   3.083   2.530  0.6559 -0.4192  0.6474
11220SOL    HW239497   9.575   2.960   2.443  0.3059 -0.2077  0.2728
11221SOL     OW39498  10.886   3.662   3.956  0.5598  0.7438 -0.1931
11221SOL    HW139499  10.793   3.685   3.966  0.3595  0.4456 -1.2455
11221SOL    HW239500  10.887   3.566   3.950  0.9537  0.7352 -0.0297
11222SOL     OW39501   5.050   9.818   4.560  0.6950 -0.6411  0.0968
11222SOL    HW139502   5.136   9.818   4.519 -0.1224 -2.1366 -1.7857
11222SOL    HW239503   5.026   9.910   4.565  2.4390 -0.1861  0.8200
11223SOL     OW39504   4.166   7.254   6.179  0.1562 -0.2024 -0.1334
11223SOL    HW139505   4.160   7.315   6.253 -0.4719 -0.0030 -0.3389
11223SOL    HW239506   4.191   7.309   6.105 -0.9210 -0.0913 -0.4304
11224SOL     OW39507   9.201   3.352   4.680 -0.1316  0.0398  0.4218
11224SOL    HW139508   9.273   3.414   4.673 -0.3109  0.0744 -1.9203
11224SOL    HW239509   9.242   3.270   4.705  0.1877  0.8629  2.8930
11225SOL     OW39510   3.157  10.837   4.728  0.3202 -0.1236  0.1150
11225SOL    HW139511   3.208  10.854   4.649  2.1087 -0.8248  1.0651
11225SOL    HW239512   3.201  10.888   4.796 -1.0311  0.2477  0.7469
11226SOL     OW39513   4.743   3.833   7.014  0.3151 -0.2196 -0.1614
11226SOL    HW139514   4.660   3.800   7.048 -0.2194  0.0619 -1.1292
11226SOL    HW239515   4.767   3.770   6.945  0.7118 -0.1022 -0.1305
11227SOL     OW39516   9.690   5.755   4.305  0.0875  0.4027 -0.7735
11227SOL    HW139517   9.640   5.834   4.326 -0.2186  0.2900 -1.0767
11227SOL    HW239518   9.692   5.706   4.388 -0.3083  0.4053 -0.7587
11228SOL     OW39519  10.007   1.921   0.148 -0.1821  0.0310  0.2684
11228SOL    HW139520  10.039   1.931   0.058  1.2551  1.7283  0.9164
11228SOL    HW239521   9.919   1.960   0.146  0.2400  0.9946 -0.1998
11229SOL     OW39522   0.434   0.405  10.089  0.4300  0.2025 -0.1351
11229SOL    HW139523   0.425   0.488  10.135  0.4140  1.1258 -1.7567
11229SOL    HW239524   0.527   0.398  10.068  0.2316  0.4224 -1.1031
11230SOL     OW39525   6.070   0.532   6.511 -0.9843  0.1889  0.2902
11230SOL    HW139526   6.070   0.508   6.418 -0.7081  0.2863  0.2636
11230SOL    HW239527   6.020   0.462   6.554  0.6426 -1.0078  0.3497
11231SOL     OW39528   6.600   0.675   2.769  0.3676  0.3018 -0.2305
11231SOL    HW139529   6.567   0.763   2.786 -2.7257 -0.4867 -1.5764
11231SOL    HW239530   6.649   0.684   2.687 -0.3326  0.6935 -0.6126
11232SOL     OW39531   2.903   7.898   3.534 -0.5533  0.3805  1.1576
11232SOL    HW139532   2.876   7.834   3.600 -0.7807 -0.8713 -0.1078
11232SOL    HW239533   2.985   7.863   3.500 -1.2013  0.1966 -0.2714
11233SOL     OW39534   2.684   4.344   9.348  0.0484  0.3215  0.4019
11233SOL    HW139535   2.632   4.351   9.268  1.3387 -0.8004 -0.5811
11233SOL    HW239536   2.633   4.285   9.404 -1.6715  2.3822  1.1497
11234SOL     OW39537   0.956   8.025  10.470  0.1933  0.2859 -0.0252
11234SOL    HW139538   1.028   7.970  10.440  1.8999  1.6960  1.2611
11234SOL    HW239539   0.926   7.982  10.550 -0.0467 -0.0183 -0.2763
11235SOL     OW39540   9.229   4.448   2.013 -0.0468 -0.5667  0.3703
11235SOL    HW139541   9.228   4.486   2.100  0.4350 -2.1144  1.0807
11235SOL    HW239542   9.147   4.397   2.007 -0.4871  0.1977 -0.4072
11236SOL     OW39543   8.812   5.344   9.192 -0.1364 -0.4665 -0.2445
11236SOL    HW139544   8.798   5.308   9.104  2.0210 -1.9228 -0.0940
11236SOL    HW239545   8.870   5.419   9.178 -3.2409  2.1025 -0.3809
11237SOL     OW39546   8.750  10.702   2.700  1.0893  0.5304 -0.3132
11237SOL    HW139547   8.808  10.630   2.676 -0.1047 -0.8309  0.7164
11237SOL    HW239548   8.695  10.716   2.623 -1.0114 -2.0753  0.6092
11238SOL     OW39549  10.770   4.736   0.050 -0.3287 -0.5501  0.0643
11238SOL    HW139550  10.780   4.801   0.119  0.4406 -0.4789 -0.0960
11238SOL    HW239551  10.762   4.788  -0.031  0.5537 -0.6329 -0.0955
11239SOL     OW39552   3.650   5.536   2.026 -0.4810 -0.9292 -0.0763
11239SOL    HW139553   3.721   5.486   1.985 -1.2565 -0.9076 -1.4831
11239SOL    HW239554   3.571   5.487   2.005 -0.9896 -0.4528  0.6928
11240SOL     OW39555   3.572   8.031   9.491 -0.5928 -0.9119 -0.0227
11240SOL    HW139556   3.652   7.984   9.464 -0.3681 -0.3579 -0.3386
11240SOL    HW239557   3.587   8.052   9.583 -0.0954 -0.2716 -0.2388
11241SOL     OW39558   1.722   8.019   8.212  0.4622  0.3890 -0.1545
11241SOL    HW139559   1.748   8.109   8.195  0.3585  0.8731  2.0397
11241SOL    HW239560   1.636   8.025   8.253 -0.5227 -0.8803 -1.8563
11242SOL     OW39561  10.081   2.166   7.953 -0.2058  0.1451  0.4512
11242SOL    HW139562  10.028   2.220   8.013 -0.4426  0.2556  0.1442
11242SOL    HW239563  10.016   2.114   7.905  0.0114 -0.2703  0.6035
11243SOL     OW39564  10.022   4.501   6.011 -0.5494 -0.1671 -0.5204
11243SOL    HW139565  10.042   4.431   6.074 -0.1793  0.3499 -0.0547
11243SOL    HW239566  10.061   4.471   5.929  0.8534  0.1151  0.0077
11244SOL     OW39567   5.354   1.250   2.862 -0.1567  0.3169 -0.3114
11244SOL    HW139568   5.425   1.311   2.884 -0.7482  0.8996  0.0212
11244SOL    HW239569   5.317   1.285   2.781  0.5686 -0.5636 -1.0576
11245SOL     OW39570   5.743   3.056   3.329 -0.4118 -0.2297  0.3703
11245SOL    HW139571   5.665   3.002   3.344 -0.2398 -0.2009  1.5124
11245SOL    HW239572   5.760   3.096   3.414 -1.5261  3.0194 -0.8171
11246SOL     OW39573   7.957   7.970   9.277  0.2120 -0.1360  0.0629
11246SOL    HW139574   8.030   7.917   9.243  0.1153  1.4316 -2.8626
11246SOL    HW239575   7.880   7.914   9.267  0.2135  0.2008 -2.3428
11247SOL     OW39576   2.234   2.252   8.835  0.2016 -0.3026 -0.4707
11247SOL    HW139577   2.298   2.320   8.859  1.4564 -1.5205 -0.2640
11247SOL    HW239578   2.279   2.200   8.768 -0.8698 -0.7544 -0.8593
11248SOL     OW39579   0.547   4.412  10.090 -0.5367  0.4540  0.5642
11248SOL    HW139580   0.619   4.411  10.027 -0.6036  1.7784  0.4518
11248SOL    HW239581   0.590   4.400  10.175  0.0354  2.7957  0.6660
11249SOL     OW39582   1.497   4.094   2.665 -0.0232 -0.0544  0.1128
11249SOL    HW139583   1.519   4.166   2.725 -2.5544 -1.0491  2.4447
11249SOL    HW239584   1.406   4.110   2.641 -0.8620 -2.6849  1.1501
11250SOL     OW39585   8.494   3.992   3.026 -0.2585  0.3832 -0.3116
11250SOL    HW139586   8.468   3.991   3.118  0.7046  1.6883  0.0080
11250SOL    HW239587   8.443   4.062   2.987  0.4976  0.9010 -0.3880
11251SOL     OW39588   5.588   3.885   8.014 -0.2402  0.2293 -0.0377
11251SOL    HW139589   5.580   3.819   8.082  2.0707 -1.4456 -1.2486
11251SOL    HW239590   5.648   3.950   8.051 -2.0528  1.4344  0.9269
11252SOL     OW39591   4.546   4.923   3.951 -0.0033 -0.2597 -0.4115
11252SOL    HW139592   4.554   4.976   3.872 -1.0858  1.4653  0.5609
11252SOL    HW239593   4.478   4.859   3.929 -0.9752  0.7969 -0.6277
11253SOL     OW39594   4.022   6.935   1.919 -0.1628  0.0461 -0.0765
11253SOL    HW139595   3.994   7.009   1.865 -1.1799 -1.7911 -2.3060
11253SOL    HW239596   4.090   6.892   1.867  0.2340 -0.7166  1.0354
11254SOL     OW39597   6.801   5.509   3.976 -0.0486  0.5117  0.6044
11254SOL    HW139598   6.866   5.509   4.047 -0.1329  0.7626  0.6855
11254SOL    HW239599   6.717   5.496   4.020  0.0985 -1.6572  0.3274
11255SOL     OW39600   0.475   2.370   2.553 -0.1649  0.1482 -0.0746
11255SOL    HW139601   0.457   2.464   2.554  1.5201  0.5251 -1.2092
11255SOL    HW239602   0.522   2.353   2.634  1.8360  0.8486 -1.0151
11256SOL     OW39603   5.970   6.857   1.941  0.2721 -0.4666  0.2042
11256SOL    HW139604   5.906   6.805   1.989  2.0342 -1.6430  1.4029
11256SOL    HW239605   6.049   6.804   1.941  0.9293  0.3776 -2.3334
11257SOL     OW39606   0.367   6.905   6.711  0.1810  0.0445  0.0755
11257SOL    HW139607   0.282   6.941   6.686 -0.5854 -0.7563  1.4308
11257SOL    HW239608   0.416   6.903   6.629 -1.7489 -1.2181 -1.1474
11258SOL     OW39609   8.808   2.569   4.607 -0.2073  0.3245 -0.4018
11258SOL    HW139610   8.811   2.503   4.676  0.5999  0.1520 -0.5974
11258SOL    HW239611   8.720   2.607   4.614  0.6405  2.0210  2.3073
11259SOL     OW39612  10.009   2.942   5.604  0.3312 -0.2292 -0.5937
11259SOL    HW139613  10.059   3.021   5.580 -0.0889  0.4740  0.7853
11259SOL    HW239614   9.943   2.973   5.665 -0.5060 -1.5027 -0.8265
11260SOL     OW39615   1.548   4.439   6.315 -0.1340 -0.1529  0.1726
11260SOL    HW139616   1.501   4.521   6.330  1.1297  0.4012  1.3013
11260SOL    HW239617   1.488   4.386   6.262 -1.8925  0.6534  1.2704
11261SOL     OW39618   5.804   5.786   0.608 -0.3558  0.1874 -0.1891
11261SOL    HW139619   5.856   5.854   0.565 -1.0473  0.5446 -0.4724
11261SOL    HW239620   5.837   5.783   0.697 -1.6675  2.3599  0.4459
11262SOL     OW39621  10.140   7.238   1.232  0.3396  0.0061  0.2903
11262SOL    HW139622  10.224   7.214   1.270  1.4704  1.7813 -0.9584
11262SOL    HW239623  10.081   7.166   1.256  2.0776 -1.0547  1.5654
11263SOL     OW39624   2.634   1.324   3.599  0.0463 -0.1229 -0.3522
11263SOL    HW139625   2.542   1.322   3.571  0.4517  1.3679 -1.9291
11263SOL    HW239626   2.674   1.391   3.544  2.1284 -0.8477  0.2178
11264SOL     OW39627   2.586   7.138   9.708  0.0132 -0.2436  0.4659
11264SOL    HW139628   2.644   7.144   9.783  2.7321  0.6361 -1.5274
11264SOL    HW239629   2.619   7.064   9.658 -0.3647  0.4585 -0.8790
11265SOL     OW39630   3.556   9.129   7.342  0.0919  0.4389  0.2694
11265SOL    HW139631   3.536   9.059   7.404  1.0885 -2.1528 -2.0973
11265SOL    HW239632   3.471   9.162   7.314 -0.5213 -1.5989 -0.3924
11266SOL     OW39633   2.673   7.389   1.943 -0.1685 -0.2038  0.3641
11266SOL    HW139634   2.606   7.439   1.896  0.1279  0.2542  0.4200
11266SOL    HW239635   2.638   7.300   1.946  0.5183 -0.6403 -2.1529
11267SOL     OW39636   1.827   5.061   5.540  0.1807 -0.3265  0.0324
11267SOL    HW139637   1.742   5.066   5.495  0.8797  1.8529 -1.2131
11267SOL    HW239638   1.882   5.008   5.483 -0.0736 -0.9451  0.3614
11268SOL     OW39639  10.133   9.527   4.307 -0.5702  0.4388 -0.0240
11268SOL    HW139640  10.177   9.443   4.294 -1.4078  0.0606 -0.4656
11268SOL    HW239641  10.202   9.592   4.293  0.2749 -0.1794  1.0887
11269SOL     OW39642   4.882   8.090   9.703 -0.1682 -0.2803 -0.4656
11269SOL    HW139643   4.945   8.161   9.709 -2.6935  2.0286  0.9884
11269SOL    HW239644   4.907   8.029   9.772  1.2642 -0.2147 -0.8903
11270SOL     OW39645   8.272   8.932  10.171 -0.4688 -0.0871  0.0883
11270SOL    HW139646   8.291   8.994  10.241  1.6066 -0.4534 -0.0844
11270SOL    HW239647   8.274   8.846  10.214  0.4865 -0.2887 -0.3247
11271SOL     OW39648   6.985   0.202   9.337  0.2914 -0.2347  0.1690
11271SOL    HW139649   7.028   0.218   9.421 -0.2272  1.3352  0.1631
11271SOL    HW239650   6.892   0.191   9.358 -0.1557  2.0408 -0.3126
11272SOL     OW39651   7.947   4.304   6.233 -0.2479 -0.1177  0.0950
11272SOL    HW139652   7.866   4.282   6.188 -1.9439 -0.5696  3.1149
11272SOL    HW239653   7.921   4.370   6.298  2.3134  1.5142 -0.3789
11273SOL     OW39654   5.666   9.225   7.287 -0.0926  0.4626  0.1050
11273SOL    HW139655   5.721   9.296   7.255  0.0293 -0.0549 -0.8771
11273SOL    HW239656   5.588   9.228   7.231 -0.9833  1.0465  1.3267
11274SOL     OW39657   7.350   2.212   3.862 -0.0320  0.3360 -0.1032
11274SOL    HW139658   7.345   2.273   3.788 -0.1983  0.7340  0.2319
11274SOL    HW239659   7.262   2.174   3.868 -0.7746  2.1195  1.3985
11275SOL     OW39660  10.284   7.953   4.646  0.2112  0.0500  0.4895
11275SOL    HW139661  10.203   7.902   4.655 -0.4304  0.9243 -0.0350
11275SOL    HW239662  10.351   7.888   4.627 -0.1933 -0.7895  1.8083
11276SOL     OW39663   0.507   7.357   3.072 -0.3680 -0.6696 -0.4728
11276SOL    HW139664   0.490   7.390   2.984 -1.1099 -2.2985 -0.9872
11276SOL    HW239665   0.586   7.304   3.063 -0.0317 -0.2615  0.0096
11277SOL     OW39666   8.529   4.664   7.147 -0.0537 -0.3512  0.2452
11277SOL    HW139667   8.449   4.616   7.128 -0.1781  0.7194 -2.4791
11277SOL    HW239668   8.586   4.646   7.073  1.4668  0.4785  1.1543
11278SOL     OW39669   8.832   7.196   2.948  0.0110 -0.3089  0.1258
11278SOL    HW139670   8.903   7.149   2.992 -0.5575 -3.8053 -2.3590
11278SOL    HW239671   8.754   7.174   2.999  0.0511 -0.0588  0.3031
11279SOL     OW39672   9.888   3.078   5.368  0.1964  0.0145  0.2677
11279SOL    HW139673   9.908   3.148   5.305  0.2510 -1.2989 -1.2581
11279SOL    HW239674   9.970   3.028   5.374 -0.4197 -1.0876 -0.2558
11280SOL     OW39675  10.053   0.157  10.557 -0.1379 -0.5718  0.3041
11280SOL    HW139676  10.137   0.140  10.600  0.2663 -1.7745 -0.8904
11280SOL    HW239677  10.076   0.199  10.474 -0.6607 -1.4248 -0.2893
11281SOL     OW39678   2.068   1.558   0.604  0.0482  0.0061  0.1340
11281SOL    HW139679   2.114   1.525   0.527 -0.8030  0.0587 -0.4166
11281SOL    HW239680   2.045   1.648   0.581 -0.9148 -0.2312  0.1047
11282SOL     OW39681   3.721  10.736   8.081  0.1920 -0.3647 -0.2079
11282SOL    HW139682   3.688  10.651   8.111 -2.0993  0.7098  0.6136
11282SOL    HW239683   3.799  10.752   8.135 -1.6350 -0.2286  2.6611
11283SOL     OW39684   0.870   5.690   6.860 -0.0426  0.1898 -0.3195
11283SOL    HW139685   0.826   5.702   6.944 -1.8057 -1.6755 -0.8827
11283SOL    HW239686   0.961   5.671   6.883 -0.4431 -0.0945  1.1523
11284SOL     OW39687   5.478   5.597   3.370 -0.2135 -0.2669  0.5155
11284SOL    HW139688   5.503   5.532   3.435 -0.6063  0.0587  0.9978
11284SOL    HW239689   5.383   5.588   3.363 -0.0717 -1.0225 -0.7865
11285SOL     OW39690   0.677   2.058   3.779  0.0826 -0.3490  0.3296
11285SOL    HW139691   0.700   2.030   3.867 -0.0941 -0.9144  0.2009
11285SOL    HW239692   0.713   2.146   3.771  0.3392 -0.4054  0.8678
11286SOL     OW39693  10.554   7.319   3.006  0.7269 -0.2398  0.2071
11286SOL    HW139694  10.512   7.369   2.936  1.2694  1.0468  0.7794
11286SOL    HW239695  10.559   7.229   2.971  0.7957  0.3271 -1.3208
11287SOL     OW39696   4.017   6.409   2.281 -0.6299 -0.3384  0.1484
11287SOL    HW139697   3.930   6.398   2.320 -1.5327  0.1465 -1.6102
11287SOL    HW239698   4.073   6.350   2.330 -2.0864 -1.1233  0.9332
11288SOL     OW39699   3.550   3.257   8.766 -0.0497 -0.0900  0.3464
11288SOL    HW139700   3.630   3.298   8.797 -0.7190 -0.1653  2.3377
11288SOL    HW239701   3.535   3.295   8.680  1.3548  0.9852  0.5447
11289SOL     OW39702   7.643   1.772  10.864  0.1941 -0.4936 -0.1959
11289SOL    HW139703   7.673   1.725  10.942 -1.3353 -0.4219  0.4804
11289SOL    HW239704   7.686   1.857  10.869 -0.1649 -0.3547  0.7916
11290SOL     OW39705   8.903   1.779   9.818  0.2089  0.9894  0.7300
11290SOL    HW139706   8.864   1.830   9.889  0.8267 -1.1296  2.7565
11290SOL    HW239707   8.833   1.720   9.790 -0.0693  1.9040 -0.5736
11291SOL     OW39708   1.116   4.385   6.342 -0.2341 -0.5239 -0.0029
11291SOL    HW139709   1.168   4.463   6.363  0.3823 -0.3835 -1.8817
11291SOL    HW239710   1.067   4.367   6.422  1.0349  0.6690  1.0981
11292SOL     OW39711   8.445   9.691   7.032 -0.3842 -0.3661 -0.7379
11292SOL    HW139712   8.353   9.670   7.047 -0.8532  1.5825 -0.6327
11292SOL    HW239713   8.451   9.785   7.048  2.1157 -0.8179  1.6007
11293SOL     OW39714   6.283   2.456   7.522  0.3124  0.6562  0.0128
11293SOL    HW139715   6.261   2.422   7.609  0.4158 -1.8541 -0.8674
11293SOL    HW239716   6.199   2.471   7.480  0.2682  1.2565  0.3052
11294SOL     OW39717   4.029   1.645   1.689  0.3193  0.3793  0.4515
11294SOL    HW139718   3.940   1.619   1.712  0.6924 -2.7331 -1.1835
11294SOL    HW239719   4.018   1.700   1.611 -0.1782  0.2219  0.4053
11295SOL     OW39720   1.313   4.357   7.619  0.2681  0.5202 -0.0297
11295SOL    HW139721   1.285   4.272   7.653 -1.6520  2.4843  4.0516
11295SOL    HW239722   1.406   4.363   7.645  0.4825 -0.3673 -0.5441
11296SOL     OW39723  10.918  10.738   7.657  0.0757  0.1149  0.1803
11296SOL    HW139724  10.880  10.701   7.577  1.0841  2.3125 -1.4286
11296SOL    HW239725  11.012  10.717   7.650  0.1139 -0.0258  1.0174
11297SOL     OW39726   9.726   8.598  10.183 -0.1848  0.9854  0.7427
11297SOL    HW139727   9.688   8.526  10.233  0.5057  0.6003  0.7200
11297SOL    HW239728   9.676   8.675  10.210 -1.6954  0.3389 -0.0457
11298SOL     OW39729   6.877   8.932   0.194 -0.7038 -0.2837 -0.0076
11298SOL    HW139730   6.881   9.028   0.191  2.1371 -0.3243 -1.2532
11298SOL    HW239731   6.958   8.907   0.238 -1.6255 -2.1293  0.7073
11299SOL     OW39732   2.459   3.622   5.822 -0.1045  0.0740  0.0660
11299SOL    HW139733   2.498   3.704   5.852  0.7197  0.4849 -1.9719
11299SOL    HW239734   2.402   3.648   5.750 -1.0611 -0.9955  0.4027
11300SOL     OW39735   5.881   4.806   0.770  0.1235 -0.5353 -0.1048
11300SOL    HW139736   5.801   4.842   0.731  0.5143 -0.2255 -0.6346
11300SOL    HW239737   5.855   4.780   0.858 -0.4284  0.0852 -0.0743
11301SOL     OW39738   0.431   8.809  10.540 -0.1069  0.2956 -0.3848
11301SOL    HW139739   0.390   8.730  10.575  0.6190  0.8276  1.7760
11301SOL    HW239740   0.437   8.792  10.446 -1.9982 -1.2562 -0.2932
11302SOL     OW39741   3.843   5.949   5.146  0.5073  0.4795  0.3590
11302SOL    HW139742   3.829   5.856   5.131 -0.6000  0.8364 -0.9776
11302SOL    HW239743   3.938   5.959   5.151  0.6148 -0.9315  2.1876
11303SOL     OW39744   4.217   0.703  10.783 -0.3091 -0.0409  0.0976
11303SOL    HW139745   4.267   0.727  10.706  0.3462  1.1891  0.8759
11303SOL    HW239746   4.220   0.607  10.785 -0.3698 -0.0944 -1.3887
11304SOL     OW39747   1.671   8.150   9.147  0.0973 -0.0227 -0.2317
11304SOL    HW139748   1.642   8.067   9.108  0.1207  0.4669 -1.3207
11304SOL    HW239749   1.767   8.145   9.146  0.0941 -0.0966 -0.0609
11305SOL     OW39750   6.579   1.811   3.964 -0.3400 -0.4078  0.3569
11305SOL    HW139751   6.498   1.861   3.977  0.1452  0.2301  1.0504
11305SOL    HW239752   6.573   1.739   4.027 -0.9948 -1.1980 -0.5740
11306SOL     OW39753   9.507   0.019   7.525  0.0133  0.3578 -0.0904
11306SOL    HW139754   9.509   0.088   7.458 -0.5326  2.0667  1.5624
11306SOL    HW239755   9.573   0.046   7.589 -1.1403  0.0726  1.2557
11307SOL     OW39756   7.054   1.140   6.421  0.5210  0.5288  0.1753
11307SOL    HW139757   7.128   1.119   6.478  0.5294  0.5542  0.1741
11307SOL    HW239758   7.030   1.057   6.380  1.7358  0.8363 -1.2458
11308SOL     OW39759   6.234   9.239   3.440  0.4046  0.1496  0.1697
11308SOL    HW139760   6.279   9.259   3.523  1.8941  0.5958 -0.7025
11308SOL    HW239761   6.189   9.157   3.457 -0.5609  0.9677  1.8769
11309SOL     OW39762   7.152   0.147   5.058 -0.5764  0.4658 -0.2413
11309SOL    HW139763   7.218   0.085   5.027 -0.0925  0.8690 -0.0160
11309SOL    HW239764   7.076   0.129   5.002  0.1611  0.9239 -1.4342
11310SOL     OW39765   4.653   1.505   3.607 -0.0786  0.3704  0.6709
11310SOL    HW139766   4.706   1.577   3.641  0.1591  0.5641 -0.0836
11310SOL    HW239767   4.625   1.534   3.520  0.0018 -0.4274  0.3622
11311SOL     OW39768   7.085   7.363   0.775 -0.2971  0.2397  0.0735
11311SOL    HW139769   7.117   7.411   0.698 -1.5987  0.1666 -0.5556
11311SOL    HW239770   7.112   7.417   0.849  0.9593  0.3334 -0.4227
11312SOL     OW39771   2.741   9.581   9.766 -0.1000  0.8934 -0.0977
11312SOL    HW139772   2.671   9.601   9.704  0.9529  2.2000 -0.9180
11312SOL    HW239773   2.696   9.547   9.843 -1.7086  2.4749 -0.2862
11313SOL     OW39774   5.357   4.794   0.408  0.1411 -0.5228 -0.2881
11313SOL    HW139775   5.287   4.850   0.374 -0.9122 -2.1979 -1.0195
11313SOL    HW239776   5.434   4.852   0.414 -0.9618  1.0451 -0.6996
11314SOL     OW39777   6.626   5.559   9.847  0.6846  0.5430 -0.1988
11314SOL    HW139778   6.550   5.616   9.859  0.7475  0.6553 -0.3356
11314SOL    HW239779   6.643   5.562   9.753  0.8130  0.4578 -0.1770
11315SOL     OW39780   2.215   8.949   7.471 -0.2738  0.4064  0.2954
11315SOL    HW139781   2.254   8.872   7.514  0.3200  0.8559  0.5739
11315SOL    HW239782   2.138   8.968   7.524 -1.1258 -0.7229 -0.4856
11316SOL     OW39783   0.068   4.042   7.820  0.1236 -0.0619 -0.5903
11316SOL    HW139784   0.153   4.009   7.792  0.1188 -0.0099 -0.6684
11316SOL    HW239785   0.015   3.964   7.837  0.2250 -0.0934 -0.4252
11317SOL     OW39786   2.668  10.348   6.502  0.0121 -0.2583  0.1572
11317SOL    HW139787   2.631  10.422   6.454  1.6231  0.4598 -0.0160
11317SOL    HW239788   2.593  10.288   6.515 -0.7236  0.0733 -2.1639
11318SOL     OW39789   4.002   1.720   6.230  0.0980  0.3886  0.4410
11318SOL    HW139790   3.974   1.769   6.308  0.8017  0.2404  0.7952
11318SOL    HW239791   3.952   1.758   6.158 -0.5215  0.5677  0.9542
11319SOL     OW39792   5.105   9.441   5.462 -0.0073 -0.1256 -0.0086
11319SOL    HW139793   5.168   9.383   5.505 -2.0401 -1.1311  1.7354
11319SOL    HW239794   5.021   9.398   5.471 -1.4151  2.4228  0.0719
11320SOL     OW39795   6.508   4.467   6.100  0.3262  1.2200 -0.8179
11320SOL    HW139796   6.451   4.437   6.028 -0.2039  0.3013 -0.0472
11320SOL    HW239797   6.477   4.418   6.176  2.4490  0.3352 -0.4573
11321SOL     OW39798   3.497   3.280   1.379 -0.3222  0.6088 -0.0466
11321SOL    HW139799   3.418   3.248   1.335  1.0047  0.9261 -2.8903
11321SOL    HW239800   3.507   3.370   1.348  1.5377  0.3149 -0.4205
11322SOL     OW39801   2.790   0.852  10.134  0.6801 -0.5343  0.3853
11322SOL    HW139802   2.851   0.790  10.093 -0.3664  0.4244 -2.9784
11322SOL    HW239803   2.725   0.797  10.177  1.0507 -1.7282 -0.5219
11323SOL     OW39804   3.770   0.282   8.810 -0.1088  0.0824  0.3825
11323SOL    HW139805   3.689   0.294   8.860  0.5047  1.0120  1.2038
11323SOL    HW239806   3.743   0.287   8.719 -0.8255  1.5887  0.6439
11324SOL     OW39807   0.139   1.537   7.945 -0.3512 -0.3040  0.0549
11324SOL    HW139808   0.216   1.537   7.887 -0.5270 -0.3426 -0.1796
11324SOL    HW239809   0.175   1.550   8.033 -0.2345  1.6433 -0.2479
11325SOL     OW39810  10.791   5.096   5.624  0.5950 -0.3790 -0.4691
11325SOL    HW139811  10.848   5.078   5.699 -0.7398 -2.7910  0.0644
11325SOL    HW239812  10.707   5.121   5.664  0.3406 -0.0312 -1.2023
11326SOL     OW39813   3.927   8.775   2.062  0.1065  0.6412 -0.2694
11326SOL    HW139814   3.903   8.703   2.003 -1.1223  0.6511  0.1882
11326SOL    HW239815   4.018   8.794   2.041 -0.1872  0.3830 -1.8943
11327SOL     OW39816   0.491  10.845   1.803 -0.2787  0.2251 -0.4880
11327SOL    HW139817   0.491  10.758   1.841 -0.5861 -0.0134 -1.0313
11327SOL    HW239818   0.450  10.901   1.869  0.9455  0.1866  0.3513
11328SOL     OW39819   6.957   2.384   1.586 -0.8500 -0.3895  0.4026
11328SOL    HW139820   6.882   2.336   1.621 -1.7331  1.3370  0.9877
11328SOL    HW239821   6.929   2.475   1.584  0.6258  0.0919 -1.0462
11329SOL     OW39822   2.374   4.024   6.236  0.1525  0.0773 -0.2731
11329SOL    HW139823   2.417   4.096   6.282 -0.7081  0.9016 -0.7259
11329SOL    HW239824   2.376   4.049   6.144 -1.5161  0.2854 -0.2829
11330SOL     OW39825   5.777   1.623   0.851 -0.3192  0.3909  0.3411
11330SOL    HW139826   5.855   1.656   0.894 -0.0787  0.1363  0.1102
11330SOL    HW239827   5.797   1.531   0.834 -1.6663 -0.4115  2.6094
11331SOL     OW39828   7.841   3.400  10.673 -0.2653  0.1681 -0.1293
11331SOL    HW139829   7.770   3.346  10.706 -2.0919  1.2835 -1.9732
11331SOL    HW239830   7.890   3.427  10.751 -2.0240 -0.4002  1.2250
11332SOL     OW39831   4.455   3.078   3.474 -0.0307 -0.2324  0.1039
11332SOL    HW139832   4.386   3.022   3.509  0.1663  0.5320  1.8094
11332SOL    HW239833   4.410   3.157   3.444  0.1369  0.7299  2.2052
11333SOL     OW39834   4.742   3.266   7.949 -0.1921 -0.0470 -0.5101
11333SOL    HW139835   4.755   3.261   8.044  0.3240 -0.2728 -0.5858
11333SOL    HW239836   4.648   3.280   7.938  0.0352  2.4810  0.1057
11334SOL     OW39837   7.422   1.766   8.784 -0.1001  0.4291  0.5908
11334SOL    HW139838   7.432   1.843   8.728  1.7540 -0.5577 -0.4749
11334SOL    HW239839   7.327   1.760   8.798 -0.3749  2.2850 -0.1345
11335SOL     OW39840   2.421   9.265   0.217  0.3558 -0.3992  0.0484
11335SOL    HW139841   2.491   9.322   0.249 -0.1927 -0.0607  0.6694
11335SOL    HW239842   2.368   9.247   0.295 -0.7036 -0.0075 -0.5711
11336SOL     OW39843   1.743   1.948   3.411  0.2466 -0.3122 -0.2136
11336SOL    HW139844   1.821   1.897   3.387  0.3616 -0.3888  0.3027
11336SOL    HW239845   1.681   1.933   3.340  0.9537  0.2986 -0.9717
11337SOL     OW39846   6.542   0.900   6.969 -0.1530 -0.3704  0.0204
11337SOL    HW139847   6.489   0.845   7.027 -0.5648 -1.0321 -0.9626
11337SOL    HW239848   6.620   0.921   7.021 -1.0864  0.1467  1.2892
11338SOL     OW39849   7.567   1.628   0.730 -0.3923  0.2033  0.2973
11338SOL    HW139850   7.645   1.616   0.676  0.5034 -1.0753  1.8189
11338SOL    HW239851   7.573   1.718   0.762  0.1974  0.2634  0.0227
11339SOL     OW39852   6.172   4.706   3.658 -0.0670 -0.0048  0.8046
11339SOL    HW139853   6.102   4.687   3.721 -0.4751  1.2567  0.7728
11339SOL    HW239854   6.192   4.799   3.672  0.2447  0.1529 -0.5371
11340SOL     OW39855   0.923   9.601   3.415  0.2592 -0.7451  0.3243
11340SOL    HW139856   0.918   9.696   3.403  1.2988 -0.6240  0.7251
11340SOL    HW239857   0.840   9.568   3.381 -0.2617  0.3401  0.4978
11341SOL     OW39858   7.813   4.075  10.032 -0.1561  0.2995 -0.1912
11341SOL    HW139859   7.830   4.167  10.011  1.2923  0.0683 -0.1429
11341SOL    HW239860   7.718   4.068  10.034 -0.3152  1.4572 -1.7106
11342SOL     OW39861   6.851   8.109   5.759  0.2331 -0.4418 -0.3128
11342SOL    HW139862   6.938   8.081   5.786 -0.2448 -0.4667  1.2562
11342SOL    HW239863   6.807   8.027   5.735  0.0951 -0.6298  0.5520
11343SOL     OW39864   4.208   6.570   9.866  0.0228 -0.5769 -0.5458
11343SOL    HW139865   4.166   6.498   9.819  0.4185 -1.2989  0.1618
11343SOL    HW239866   4.271   6.526   9.924  0.9989  0.4095 -0.8320
11344SOL     OW39867   0.501   6.362   0.577 -0.3738  0.2332  0.1352
11344SOL    HW139868   0.501   6.304   0.501 -1.5519  0.3553  0.0215
11344SOL    HW239869   0.593   6.369   0.602 -0.1372 -1.1365 -0.2631
11345SOL     OW39870   1.043   5.156   4.990  0.4645 -0.2092 -0.0530
11345SOL    HW139871   1.133   5.188   4.986  1.6361 -3.2943 -1.9283
11345SOL    HW239872   0.994   5.216   4.934  1.5909  0.8123  0.0056
11346SOL     OW39873   4.426   4.533   3.128 -0.1797 -0.0561  0.2424
11346SOL    HW139874   4.436   4.444   3.093  1.2070  0.8238 -1.7774
11346SOL    HW239875   4.499   4.542   3.190  0.1548 -0.0655 -0.1474
11347SOL     OW39876   9.001   0.509   4.356 -0.5972 -0.7063  0.3451
11347SOL    HW139877   9.003   0.603   4.339  0.7767 -1.0400 -1.6802
11347SOL    HW239878   9.027   0.501   4.448  1.3217  0.8317  0.0006
11348SOL     OW39879   9.895   4.479   7.593  0.1305 -0.6246 -0.2950
11348SOL    HW139880   9.875   4.458   7.501 -0.5215 -2.0963  0.1562
11348SOL    HW239881   9.969   4.423   7.615  1.7515  1.3177 -0.5252
11349SOL     OW39882   3.627   8.513  10.675  0.7021 -0.3604  0.4836
11349SOL    HW139883   3.613   8.554  10.761 -0.6771 -0.9047  0.5548
11349SOL    HW239884   3.626   8.586  10.613 -1.5132 -0.1909  0.6303
11350SOL     OW39885   0.404   8.331   7.024 -0.2170  0.1725  0.7634
11350SOL    HW139886   0.327   8.278   7.048 -0.9478  0.9602  0.2406
11350SOL    HW239887   0.422   8.307   6.934 -1.8100  2.1889 -0.1873
11351SOL     OW39888   3.530   5.627   8.346  0.1224  0.3677  0.1078
11351SOL    HW139889   3.571   5.686   8.409  1.0699  0.3594 -0.4673
11351SOL    HW239890   3.602   5.598   8.290  0.1060 -2.9668  1.5647
11352SOL     OW39891   4.491   8.000   1.459 -0.4928  0.5770  0.8311
11352SOL    HW139892   4.440   8.077   1.483  1.2172  1.6997  1.1048
11352SOL    HW239893   4.527   7.968   1.542 -0.3417  0.1351  0.5959
11353SOL     OW39894   3.848   5.795   7.846  0.5099  0.4046 -0.1868
11353SOL    HW139895   3.837   5.708   7.808  2.8354  0.6520 -1.6161
11353SOL    HW239896   3.763   5.837   7.833 -0.7313 -1.6441  0.6988
11354SOL     OW39897   4.360   3.440   8.989  0.0089  0.4041  0.0457
11354SOL    HW139898   4.307   3.374   9.032 -0.5462  1.4446  1.0153
11354SOL    HW239899   4.357   3.417   8.896  0.7029 -1.5077  0.4717
11355SOL     OW39900   9.937   4.747   9.217 -0.1696 -0.5130  0.3399
11355SOL    HW139901   9.915   4.835   9.248  0.5119 -0.4936  0.8076
11355SOL    HW239902   9.876   4.731   9.145 -0.8401  0.0167  0.7774
11356SOL     OW39903   6.011   8.379   3.010 -0.0960 -0.2822 -0.4216
11356SOL    HW139904   6.051   8.456   2.970  1.9538 -1.0165  0.1294
11356SOL    HW239905   6.069   8.306   2.986 -1.5219 -1.5491 -0.2216
11357SOL     OW39906  10.099   6.476   6.056 -0.4444  0.1970  0.1447
11357SOL    HW139907  10.058   6.397   6.020  0.4906  0.1931 -0.9887
11357SOL    HW239908  10.030   6.518   6.106 -1.3369 -0.6745 -0.3142
11358SOL     OW39909   4.199   4.951   3.927 -0.0409 -0.0404  0.1321
11358SOL    HW139910   4.233   4.878   3.875  1.5957 -0.5125  1.7602
11358SOL    HW239911   4.272   5.013   3.931 -0.8373  0.9208  0.2017
11359SOL     OW39912  10.465   9.144   0.890  0.2109 -0.0559 -0.0068
11359SOL    HW139913  10.423   9.065   0.925  0.1934  0.4968  1.2659
11359SOL    HW239914  10.539   9.111   0.840 -0.8044 -0.9681 -0.9688
11360SOL     OW39915   4.373   9.418   3.554  0.2240  0.1277  0.4529
11360SOL    HW139916   4.291   9.407   3.602  0.1782  3.5713  1.3931
11360SOL    HW239917   4.366   9.356   3.481 -1.6739 -2.0727  2.3212
11361SOL     OW39918  10.148  10.412   5.446  0.0030 -0.0417 -0.2410
11361SOL    HW139919  10.137  10.328   5.492 -1.9260  0.5510  0.4804
11361SOL    HW239920  10.160  10.387   5.354 -0.3209 -1.1361 -0.0129
11362SOL     OW39921   1.649   1.310   4.703 -0.0258  0.3635  0.3078
11362SOL    HW139922   1.580   1.335   4.764  0.0961  1.3829  0.0537
11362SOL    HW239923   1.729   1.344   4.742  0.5185 -1.6862  1.1040
11363SOL     OW39924   1.038   5.760   8.756 -0.1654  0.4501  0.1575
11363SOL    HW139925   1.061   5.735   8.666  0.8840 -1.9013  0.9981
11363SOL    HW239926   1.115   5.808   8.787  0.5448 -0.8975  0.5564
11364SOL     OW39927   6.901   3.922  10.628  0.3618 -0.1152 -0.8458
11364SOL    HW139928   6.922   3.844  10.577 -1.3552 -1.5503  0.5127
11364SOL    HW239929   6.945   3.993  10.582  1.0316 -1.7017 -2.8021
11365SOL     OW39930   2.228   0.997   7.592 -0.2161 -0.0377  0.2736
11365SOL    HW139931   2.300   1.035   7.642 -2.4514  1.3687  2.6732
11365SOL    HW239932   2.185   0.937   7.653 -0.3841 -1.8423 -1.5217
11366SOL     OW39933   2.610   8.761   6.999 -0.6331 -0.2050  0.1199
11366SOL    HW139934   2.611   8.668   7.019  0.0800 -0.9675 -2.9245
11366SOL    HW239935   2.518   8.781   6.981 -0.6618 -0.5870 -0.1685
11367SOL     OW39936   7.904   4.159   8.365  0.7510  0.6419  0.5350
11367SOL    HW139937   7.893   4.085   8.424  0.3098  0.1777 -0.1131
11367SOL    HW239938   7.998   4.163   8.348  1.0504  1.5204  2.1791
11368SOL     OW39939   0.001   8.318   0.824 -0.3994  0.4558 -0.2260
11368SOL    HW139940   0.023   8.225   0.832 -1.0128 -0.0194 -2.9203
11368SOL    HW239941  -0.058   8.322   0.748 -2.1065  2.8091  1.0909
11369SOL     OW39942   7.585   5.676   6.184 -0.6471  0.2652  0.2354
11369SOL    HW139943   7.661   5.665   6.126  0.5481  0.2729  1.7558
11369SOL    HW239944   7.566   5.769   6.182 -0.0478  0.3913  0.5631
11370SOL     OW39945   7.773   6.808   0.230 -0.1387  0.0252 -0.0663
11370SOL    HW139946   7.688   6.775   0.202  0.4943 -1.9648  0.2260
11370SOL    HW239947   7.792   6.760   0.310  1.4602  0.1028 -0.3759
11371SOL     OW39948  10.524   4.484   0.628  0.0993  0.5175  0.2694
11371SOL    HW139949  10.585   4.557   0.627  2.2672 -1.1355 -2.4139
11371SOL    HW239950  10.573   4.413   0.670 -1.0827 -0.0656  0.6950
11372SOL     OW39951   9.334   8.332   0.455 -0.0164  0.3662 -0.1974
11372SOL    HW139952   9.430   8.332   0.445  0.1336 -0.3582  1.1134
11372SOL    HW239953   9.302   8.291   0.374  0.8979 -1.1416  0.1685
11373SOL     OW39954   6.485  10.446   5.945  0.1593  0.0510 -0.1266
11373SOL    HW139955   6.394  10.469   5.960 -0.0452 -1.8142  1.9814
11373SOL    HW239956   6.524  10.525   5.907 -1.8125  1.6356  0.9495
11374SOL     OW39957   3.715   1.457   6.318  0.0013 -0.4980  0.1337
11374SOL    HW139958   3.738   1.391   6.253  1.1235  0.3775 -0.3872
11374SOL    HW239959   3.619   1.460   6.317 -0.0059 -0.7943 -1.1587
11375SOL     OW39960   3.635   1.875   4.345  0.0951 -0.7382  0.0816
11375SOL    HW139961   3.686   1.955   4.357 -1.3043  0.1503  0.3020
11375SOL    HW239962   3.616   1.872   4.251 -0.9291 -0.1096  0.2558
11376SOL     OW39963   7.433   2.414   7.762  0.1475  0.0342  0.4444
11376SOL    HW139964   7.373   2.439   7.691 -0.2769 -1.0391  0.4123
11376SOL    HW239965   7.486   2.493   7.776 -0.7638  0.7677 -0.0376
11377SOL     OW39966   2.238   1.476   0.382  0.0426  0.1919  0.2711
11377SOL    HW139967   2.231   1.384   0.356  2.1005 -0.1499  0.7726
11377SOL    HW239968   2.249   1.523   0.299  0.5459 -0.2102  0.1017
11378SOL     OW39969   5.434   2.998   5.622  0.2341 -0.1113  0.3347
11378SOL    HW139970   5.520   2.963   5.645  0.9285  0.2565 -1.4965
11378SOL    HW239971   5.373   2.929   5.646  1.0142 -0.3631  1.7144
11379SOL     OW39972   3.722   7.790   5.773  0.1326 -0.7451  0.7615
11379SOL    HW139973   3.804   7.809   5.728  0.1403  0.4062  1.2470
11379SOL    HW239974   3.654   7.817   5.711  0.1011 -1.4922  0.4504
11380SOL     OW39975   0.886   9.486   2.463  0.0034  0.4486 -0.1524
11380SOL    HW139976   0.820   9.485   2.393  0.3144 -0.4487 -0.4469
11380SOL    HW239977   0.894   9.394   2.490 -0.4393  0.8304  1.3828
11381SOL     OW39978   5.344   1.627   7.951 -0.7352 -0.5211  0.3479
11381SOL    HW139979   5.391   1.628   8.034  0.2216 -0.5822 -0.1689
11381SOL    HW239980   5.287   1.704   7.955  0.7235  0.6171  0.3043
11382SOL     OW39981   2.562   3.486   7.070  0.7214  0.0272  0.3216
11382SOL    HW139982   2.527   3.489   6.981 -0.0480  1.1501  0.6508
11382SOL    HW239983   2.605   3.400   7.075 -0.2168 -0.5427 -0.7553
11383SOL     OW39984   4.879   2.753   0.338  0.0558  0.4302  0.1468
11383SOL    HW139985   4.956   2.785   0.290  0.1126 -0.5288 -0.4288
11383SOL    HW239986   4.886   2.794   0.424  0.3190  1.6469 -0.4342
11384SOL     OW39987   7.601   8.350   9.708 -0.0822 -0.1968 -0.6819
11384SOL    HW139988   7.668   8.373   9.773  0.7080  1.9064 -2.1424
11384SOL    HW239989   7.636   8.272   9.665 -1.4938 -2.8417  2.4997
11385SOL     OW39990   2.195   7.258   9.753  0.2248 -0.4587 -0.2780
11385SOL    HW139991   2.215   7.164   9.747  0.1795 -0.3874 -1.8389
11385SOL    HW239992   2.126   7.263   9.819  0.6732 -1.4440  0.3018
11386SOL     OW39993   6.692   1.107   6.822 -0.0884 -0.3705 -0.4885
11386SOL    HW139994   6.621   1.131   6.761 -0.0795  1.5857  0.1986
11386SOL    HW239995   6.657   1.033   6.871 -1.8330  0.7225  0.0322
11387SOL     OW39996   4.294   8.298   8.340 -0.1177 -0.4439  0.0103
11387SOL    HW139997   4.225   8.248   8.385  0.4775 -1.3366 -0.0355
11387SOL    HW239998   4.247   8.368   8.295 -1.1033 -1.4798 -0.6429
11388SOL     OW39999   7.375   8.507   1.320 -0.1497  0.3160  0.0267
11388SOL    HW140000   7.394   8.418   1.350  1.5381  0.2920 -0.9925
11388SOL    HW240001   7.360   8.556   1.400 -1.8679 -1.0185  0.5779
11389SOL     OW40002   9.760   2.736   2.334 -0.9860 -0.1659  0.2208
11389SOL    HW140003   9.718   2.819   2.313  2.0748  1.2843 -0.6275
11389SOL    HW240004   9.696   2.670   2.306 -2.7002  1.8433 -0.9300
11390SOL     OW40005   7.832   3.921   8.498 -0.0018  0.4610  0.4869
11390SOL    HW140006   7.908   3.864   8.499  0.6723  1.3014 -0.5016
11390SOL    HW240007   7.771   3.882   8.561  0.9095 -0.6692  0.6906
11391SOL     OW40008   7.084   5.617   1.645  0.4760  0.1030  0.7042
11391SOL    HW140009   6.993   5.607   1.619  0.3817 -1.3594  1.5038
11391SOL    HW240010   7.132   5.557   1.589  1.1029  1.5095 -0.3312
11392SOL     OW40011   1.704   2.401   3.441 -0.1461  0.2337 -0.6469
11392SOL    HW140012   1.648   2.461   3.391 -0.8540  0.4312  0.3780
11392SOL    HW240013   1.649   2.368   3.511  1.9150  3.3920  2.8171
11393SOL     OW40014   6.725   7.590   3.834  0.0077  0.2441 -0.5684
11393SOL    HW140015   6.724   7.506   3.880  0.9148 -0.1201 -1.1762
11393SOL    HW240016   6.804   7.587   3.780  0.4940  1.8147 -0.0131
11394SOL     OW40017   0.405   4.164   5.625 -0.3152  0.5206 -0.0575
11394SOL    HW140018   0.416   4.200   5.713 -3.0156  4.0246 -0.9182
11394SOL    HW240019   0.460   4.220   5.569 -0.6281  0.0033 -0.9082
11395SOL     OW40020   9.967   3.289   5.217  0.1662 -0.0086 -0.4623
11395SOL    HW140021   9.948   3.298   5.124  0.0367  0.8247 -0.3641
11395SOL    HW240022  10.059   3.315   5.226 -0.3218  1.6959 -0.1167
11396SOL     OW40023   4.652   9.931   0.858  0.2014  0.2794 -0.0688
11396SOL    HW140024   4.592   9.864   0.825  1.3076 -0.1051 -1.3855
11396SOL    HW240025   4.669   9.988   0.782  1.0252  0.7363  0.4401
11397SOL     OW40026   6.515   0.153  10.286  0.0786  0.0799 -0.2303
11397SOL    HW140027   6.467   0.235  10.287 -2.0192 -1.0758 -0.8805
11397SOL    HW240028   6.520   0.126  10.378 -4.2042 -1.7015 -0.2877
11398SOL     OW40029   7.685   1.103  10.265  0.3147  0.2737 -0.3959
11398SOL    HW140030   7.691   1.052  10.346 -0.0359  2.5299  1.1330
11398SOL    HW240031   7.744   1.057  10.205  1.3598 -0.9465  1.4246
11399SOL     OW40032   4.624   3.412   9.117  0.4478 -0.1474 -0.1248
11399SOL    HW140033   4.598   3.446   9.203  0.1937 -0.1925 -0.1826
11399SOL    HW240034   4.544   3.417   9.064  0.8151  0.7588 -0.6403
11400SOL     OW40035   1.230   0.575   9.968  0.4620  0.3019 -0.0884
11400SOL    HW140036   1.142   0.594   9.937  0.6222  0.7722 -0.2740
11400SOL    HW240037   1.249   0.645  10.031  0.7789  0.3356 -0.2145
11401SOL     OW40038   9.078   5.062   0.814  0.0977 -0.1976  0.2564
11401SOL    HW140039   9.154   5.007   0.829  0.6849  0.3029 -0.7292
11401SOL    HW240040   9.006   5.001   0.798  0.4510 -0.6738  0.4909
11402SOL     OW40041   2.825   0.176   3.016 -0.2661 -0.1481  1.0170
11402SOL    HW140042   2.742   0.130   3.006 -1.5298  2.0131  0.7316
11402SOL    HW240043   2.878   0.120   3.072 -1.3285 -2.3033 -0.0357
11403SOL     OW40044   6.262   7.236   4.113 -0.0920 -0.4279 -0.0353
11403SOL    HW140045   6.200   7.170   4.080 -1.4268  1.1426 -0.8366
11403SOL    HW240046   6.243   7.242   4.207 -0.6857 -0.4643 -0.1484
11404SOL     OW40047   0.997   5.944   1.716  0.9113 -0.6414  0.0444
11404SOL    HW140048   1.055   5.877   1.681  0.5653 -0.8949 -0.0487
11404SOL    HW240049   0.910   5.919   1.685  1.1857  2.1584 -3.7740
11405SOL     OW40050   1.654   4.956   7.824 -0.0657 -0.5541 -0.3138
11405SOL    HW140051   1.623   4.965   7.734  0.2686 -0.3480 -0.4078
11405SOL    HW240052   1.594   5.011   7.875  0.6710  0.5669 -0.6123
11406SOL     OW40053   4.959   3.939   5.918 -0.2964 -0.2295  0.1329
11406SOL    HW140054   5.016   4.011   5.892 -0.5673 -0.6512 -1.7800
11406SOL    HW240055   5.019   3.867   5.937 -0.1351 -0.3681 -0.8675
11407SOL     OW40056   9.875   8.763   9.883  0.7507 -0.5846 -0.7415
11407SOL    HW140057   9.920   8.757   9.967 -0.5486 -0.6130 -0.0254
11407SOL    HW240058   9.930   8.822   9.831  0.8226  0.6362  0.6453
11408SOL     OW40059   3.072   7.030   4.212  0.6054  0.4756 -0.3589
11408SOL    HW140060   3.078   7.017   4.118  0.9761 -0.3120 -0.2378
11408SOL    HW240061   3.050   6.944   4.247  0.4431  0.7671  0.2748
11409SOL     OW40062   7.930   1.214   1.815 -0.0217  0.5611 -0.4641
11409SOL    HW140063   7.955   1.305   1.800 -0.6883  0.7560 -0.4359
11409SOL    HW240064   8.000   1.163   1.774  0.4503  1.0821 -0.3269
11410SOL     OW40065   9.950   3.335   4.931  0.0253  0.0819 -0.6424
11410SOL    HW140066   9.968   3.413   4.879  3.5410 -0.5747 -0.6565
11410SOL    HW240067   9.968   3.262   4.872  0.1197 -0.7001  0.3277
11411SOL     OW40068   7.820   6.801   3.249  0.0581  0.0988 -0.2191
11411SOL    HW140069   7.874   6.751   3.310  0.3672 -0.8953 -1.2714
11411SOL    HW240070   7.730   6.783   3.278  0.2191  0.2615  0.4045
11412SOL     OW40071  10.332   1.964   9.784  0.3047  0.8298 -0.3499
11412SOL    HW140072  10.289   2.025   9.844 -0.9820 -2.1471  2.0386
11412SOL    HW240073  10.264   1.938   9.723  0.8866  1.7609 -1.4463
11413SOL     OW40074  10.523   7.835   3.758 -0.4639 -0.3561 -0.3580
11413SOL    HW140075  10.489   7.774   3.823  0.8738 -0.2555  0.4745
11413SOL    HW240076  10.488   7.920   3.785 -1.1493 -0.5240 -0.6813
11414SOL     OW40077   9.703   2.557   1.750  0.2731  0.4658  0.4225
11414SOL    HW140078   9.756   2.560   1.830 -1.6175 -0.6870  1.8017
11414SOL    HW240079   9.645   2.482   1.763  0.0660  0.0992 -2.1736
11415SOL     OW40080   9.438   5.252   6.205  0.4624  0.1937  0.5723
11415SOL    HW140081   9.399   5.176   6.162  0.6861  0.9811 -1.1024
11415SOL    HW240082   9.446   5.227   6.297  0.1105 -1.6226  0.1312
11416SOL     OW40083   1.008   4.125   7.762 -0.1660  0.4354  0.0235
11416SOL    HW140084   1.060   4.111   7.683 -1.2762 -1.8246 -0.4099
11416SOL    HW240085   1.036   4.210   7.795 -0.6655  2.1726 -3.5565
11417SOL     OW40086   0.545  10.827   7.540  0.2706 -0.0383  0.1203
11417SOL    HW140087   0.628  10.782   7.526  0.9909  1.3978 -0.4028
11417SOL    HW240088   0.527  10.871   7.457 -0.5257  0.4429  0.5357
11418SOL     OW40089   3.087   4.431   5.008 -0.1937  0.0286 -0.4435
11418SOL    HW140090   3.053   4.397   4.925 -0.2125  0.7342 -0.7308
11418SOL    HW240091   3.039   4.382   5.075 -0.2166 -0.5074 -0.8456
11419SOL     OW40092  10.593   6.016   8.244 -0.2523  0.1822 -0.4622
11419SOL    HW140093  10.571   5.968   8.324  1.4190 -0.9432 -0.6281
11419SOL    HW240094  10.655   5.960   8.198 -1.9199  0.3333 -3.0982
11420SOL     OW40095   0.753   7.747   1.014 -0.5552  0.0991 -0.6412
11420SOL    HW140096   0.718   7.669   1.056 -0.5008  0.2832 -0.2490
11420SOL    HW240097   0.745   7.729   0.920 -1.8563  0.2085 -0.5718
11421SOL     OW40098   7.872   8.686   5.757  0.3901  0.1828  0.0596
11421SOL    HW140099   7.950   8.630   5.758  1.2235  1.1339  3.7625
11421SOL    HW240100   7.907   8.775   5.751 -0.2835  0.6455  2.1906
11422SOL     OW40101   4.885   3.020   4.551  0.5607  0.1573 -0.5103
11422SOL    HW140102   4.899   3.113   4.571  0.2681  0.6664 -2.4106
11422SOL    HW240103   4.813   2.993   4.608  1.1132  0.8899  0.5694
11423SOL     OW40104   1.529   0.602   3.258  0.0131 -0.1675 -0.0657
11423SOL    HW140105   1.518   0.587   3.164  0.8907  0.5912 -0.3093
11423SOL    HW240106   1.498   0.692   3.271  0.1640 -0.1689  0.3131
11424SOL     OW40107   6.008   5.349   9.746  0.0517  0.4004 -0.0204
11424SOL    HW140108   5.944   5.324   9.679 -0.0889  1.0330 -0.1293
11424SOL    HW240109   6.038   5.266   9.782 -1.5410  0.1111  0.7043
11425SOL     OW40110   1.475   3.275   3.716 -0.1649 -0.4562  0.4815
11425SOL    HW140111   1.543   3.341   3.729 -0.1780 -0.8286  2.9133
11425SOL    HW240112   1.393   3.323   3.726 -0.2383 -0.3927 -0.3532
11426SOL     OW40113   5.267   9.215   2.886  0.1492 -0.6964 -0.5271
11426SOL    HW140114   5.323   9.254   2.953  2.9818 -3.1978 -1.2204
11426SOL    HW240115   5.285   9.266   2.807  1.0628 -1.1435 -0.6146
11427SOL     OW40116   5.127   8.344   3.083 -0.0488 -0.1675 -0.3302
11427SOL    HW140117   5.104   8.404   3.013 -1.6029 -0.8882 -0.4851
11427SOL    HW240118   5.222   8.333   3.075 -0.1299  0.0477 -2.1016
11428SOL     OW40119   5.612   8.072   9.710  0.1336 -0.3871  0.6003
11428SOL    HW140120   5.609   8.035   9.622  0.2867  2.0261 -0.4990
11428SOL    HW240121   5.680   8.139   9.705 -1.4712  1.4439  1.8372
11429SOL     OW40122   0.913   8.577   4.115 -0.3784  0.0601 -0.1442
11429SOL    HW140123   0.978   8.509   4.097  1.3277  1.6519 -0.2771
11429SOL    HW240124   0.856   8.577   4.038 -0.4029 -1.1802 -0.1495
11430SOL     OW40125   3.745   5.503   9.826  0.0878  0.2247 -0.0046
11430SOL    HW140126   3.763   5.597   9.818  0.4951  0.2957  1.4379
11430SOL    HW240127   3.811   5.471   9.888  0.3495 -1.1499 -0.9368
11431SOL     OW40128   9.962   2.011   3.272 -0.0302 -0.2678 -0.8341
11431SOL    HW140129   9.976   2.094   3.318  0.5383 -0.2078 -1.1103
11431SOL    HW240130  10.038   1.957   3.296 -1.0297 -1.1926  0.3821
11432SOL     OW40131   3.329   1.895   4.470  0.0276  0.4669 -0.0501
11432SOL    HW140132   3.424   1.903   4.476  0.1042  0.0217 -0.5570
11432SOL    HW240133   3.311   1.805   4.499  0.0356 -0.3845 -2.4449
11433SOL     OW40134   0.400  10.214   1.598  0.3024  0.0019 -0.8101
11433SOL    HW140135   0.373  10.247   1.512 -1.4586  3.7987  0.9595
11433SOL    HW240136   0.480  10.263   1.618 -1.4787  2.3442  1.2225
11434SOL     OW40137   8.358   6.408   9.737  0.4423 -0.3078 -0.1348
11434SOL    HW140138   8.304   6.336   9.704  0.3446  0.2384 -1.2446
11434SOL    HW240139   8.317   6.434   9.819 -0.0730 -0.8900 -0.1986
11435SOL     OW40140   0.780   2.915  10.560 -0.5555 -0.1021 -0.2679
11435SOL    HW140141   0.730   2.983  10.605 -0.4505 -1.1196  1.5231
11435SOL    HW240142   0.721   2.881  10.493 -1.8605 -0.4961  1.0317
11436SOL     OW40143   2.103   4.972   6.263  0.4586  0.0616 -0.3201
11436SOL    HW140144   2.129   4.917   6.337  0.5636  0.4560 -0.0620
11436SOL    HW240145   2.057   4.913   6.204  4.2332 -1.3984 -2.1292
11437SOL     OW40146   7.238   8.008   8.359 -0.1814  0.3615  0.1784
11437SOL    HW140147   7.212   8.063   8.286  0.7530  0.0486 -0.4080
11437SOL    HW240148   7.177   8.030   8.429 -0.7176  1.0915 -0.5062
11438SOL     OW40149   3.713   6.280   6.426 -0.5982  0.4533  0.4744
11438SOL    HW140150   3.747   6.243   6.344  1.6020  1.6830  0.7554
11438SOL    HW240151   3.618   6.277   6.416 -0.4128 -0.9281 -1.4287
11439SOL     OW40152   9.647   8.533   3.047 -0.4876 -0.4335  0.1849
11439SOL    HW140153   9.598   8.561   3.124 -4.1866 -0.5010 -1.9378
11439SOL    HW240154   9.644   8.438   3.049 -0.6779 -0.4336 -0.1000
11440SOL     OW40155   4.066   6.498   7.907  0.5465  0.3333  0.0800
11440SOL    HW140156   4.142   6.491   7.848  0.4358 -1.3922  0.1076
11440SOL    HW240157   4.024   6.412   7.902 -0.4191  0.7109  1.4086
11441SOL     OW40158   1.933   9.454   0.601 -0.2141  0.8361 -0.7581
11441SOL    HW140159   1.909   9.404   0.523  1.4936 -0.6445 -0.4105
11441SOL    HW240160   2.021   9.487   0.582 -0.2489  1.4389  0.0832
11442SOL     OW40161   0.936   4.847   8.331 -0.5803 -0.3879  0.1923
11442SOL    HW140162   0.881   4.812   8.261 -0.3533  0.2361 -0.3106
11442SOL    HW240163   1.017   4.875   8.287 -1.0029  1.3692  0.4311
11443SOL     OW40164   8.563   7.566   9.693  0.0686 -0.7299 -0.2785
11443SOL    HW140165   8.509   7.490   9.716 -0.5994  0.1821  1.3877
11443SOL    HW240166   8.648   7.549   9.733  0.7535 -1.7202 -2.0698
11444SOL     OW40167   0.637   2.451  10.860  0.0920 -0.2175 -0.2249
11444SOL    HW140168   0.635   2.435  10.955  0.4460  1.6131  0.1119
11444SOL    HW240169   0.646   2.546  10.851  0.0934 -0.3575 -2.1045
11445SOL     OW40170   9.087   3.264   6.877 -0.3123  0.2544 -0.1051
11445SOL    HW140171   9.072   3.184   6.927 -0.6207 -0.0341 -0.6479
11445SOL    HW240172   9.084   3.334   6.942  1.4231 -0.2867  0.6012
11446SOL     OW40173   4.056   5.748   5.816 -0.2289  0.5172  0.3557
11446SOL    HW140174   4.028   5.834   5.848 -1.0827 -0.1829  1.5876
11446SOL    HW240175   4.097   5.707   5.892 -0.1876 -0.3233 -0.1127
11447SOL     OW40176   9.905   4.541   3.234  0.1824 -0.1141  1.0062
11447SOL    HW140177   9.932   4.478   3.300  0.0418  0.5474  1.7152
11447SOL    HW240178   9.813   4.560   3.255  0.1928  0.2522  0.7438
11448SOL     OW40179   7.014   4.504   9.676 -0.4014  0.7538  0.2528
11448SOL    HW140180   6.983   4.515   9.587  0.7559 -0.6041 -0.3669
11448SOL    HW240181   7.032   4.592   9.707 -1.2046  1.2659 -0.7046
11449SOL     OW40182   2.065  10.786   0.059 -0.1692 -0.0601  0.1136
11449SOL    HW140183   2.026  10.838  -0.011  0.4590 -0.6443 -0.6824
11449SOL    HW240184   1.996  10.722   0.082  0.1119 -0.7800 -0.9595
11450SOL     OW40185   7.727   7.053   5.129  0.4455  0.4956  0.3027
11450SOL    HW140186   7.658   7.118   5.116 -1.8300 -2.2157 -3.5252
11450SOL    HW240187   7.805   7.104   5.150 -1.4767  4.2771 -0.8501
11451SOL     OW40188   1.718   0.093   2.174 -0.2401  0.1186 -0.3504
11451SOL    HW140189   1.789   0.031   2.193 -1.6495 -1.7805 -1.0029
11451SOL    HW240190   1.741   0.171   2.224  1.6803 -0.8745  0.4279
11452SOL     OW40191   2.150   4.809   8.680  0.8262 -0.0660  0.1017
11452SOL    HW140192   2.186   4.747   8.616 -0.0538  0.0137 -0.4867
11452SOL    HW240193   2.076   4.763   8.719  0.7198  0.2798  0.3064
11453SOL     OW40194   1.137   6.261   3.506 -0.1523  0.7681 -1.1489
11453SOL    HW140195   1.187   6.340   3.485 -0.4472  1.2540 -0.1199
11453SOL    HW240196   1.045   6.290   3.507 -0.2493  0.4608 -0.6038
11454SOL     OW40197  10.571   5.924   6.634 -1.1706 -0.3721 -0.2629
11454SOL    HW140198  10.589   6.012   6.601 -1.5470  0.1044  0.7486
11454SOL    HW240199  10.655   5.894   6.669 -1.0424 -0.4257 -0.6097
11455SOL     OW40200   1.688   8.586   6.286  0.1711 -0.3155 -0.4725
11455SOL    HW140201   1.744   8.640   6.231  0.2442 -0.5137 -0.5923
11455SOL    HW240202   1.673   8.639   6.364  0.7724 -0.3765 -0.3093
11456SOL     OW40203   8.431   1.616   8.983 -0.3057 -0.0270 -0.0059
11456SOL    HW140204   8.519   1.653   8.996 -0.1737  0.2292 -1.4048
11456SOL    HW240205   8.372   1.691   8.993 -0.1240  0.3899 -1.7615
11457SOL     OW40206   5.985   7.088   7.683  0.0784  0.1191 -0.0429
11457SOL    HW140207   5.951   7.000   7.703 -1.4520  0.7398  0.1760
11457SOL    HW240208   5.933   7.118   7.609  0.2108  1.0745  0.2411
11458SOL     OW40209   1.446   0.301   4.037  0.4239 -0.0612 -0.3802
11458SOL    HW140210   1.455   0.269   3.947  1.4164 -0.7037 -0.0631
11458SOL    HW240211   1.399   0.384   4.028  0.5660 -0.0864 -1.4977
11459SOL     OW40212   4.915  10.744   7.748  0.0055  0.1220 -0.5358
11459SOL    HW140213   4.952  10.658   7.768 -0.6927  0.0894  0.7122
11459SOL    HW240214   4.836  10.725   7.699 -1.1352 -0.0731  1.2936
11460SOL     OW40215   0.852   6.206   0.195 -0.1161 -0.1735 -0.3512
11460SOL    HW140216   0.858   6.247   0.108  0.9807  0.3851 -0.0304
11460SOL    HW240217   0.810   6.122   0.179  1.8615 -0.9651 -1.7410
11461SOL     OW40218   1.767   7.758  10.398  0.1770  0.9486 -0.3557
11461SOL    HW140219   1.771   7.668  10.365 -0.0580  0.8795 -0.1996
11461SOL    HW240220   1.840   7.765  10.459 -1.1194  0.1492  1.3774
11462SOL     OW40221   9.157   0.254  10.380 -0.4417 -0.0390 -0.2858
11462SOL    HW140222   9.066   0.224  10.378 -0.2415 -0.8673  1.2836
11462SOL    HW240223   9.195   0.210  10.456  1.8280 -1.3037 -1.9940
11463SOL     OW40224   0.958   4.121   8.454  0.1474  0.2411 -0.4478
11463SOL    HW140225   0.897   4.050   8.476 -0.5877  0.9801 -0.0589
11463SOL    HW240226   1.007   4.137   8.534  0.4995  0.0019 -0.6119
11464SOL     OW40227   4.653   4.469   6.965 -0.1987 -0.7975  0.1855
11464SOL    HW140228   4.702   4.387   6.961  0.5921 -0.3446  0.3310
11464SOL    HW240229   4.699   4.521   7.031 -1.2502 -0.5909  0.7796
11465SOL     OW40230   6.890   8.416   2.451 -0.4850  0.0387 -0.0273
11465SOL    HW140231   6.947   8.405   2.374 -0.6293 -0.3961 -0.0742
11465SOL    HW240232   6.950   8.408   2.526 -0.5673 -1.0785 -0.0575
11466SOL     OW40233   1.110   8.826   9.320 -0.3173  0.5525  0.5694
11466SOL    HW140234   1.153   8.910   9.338  0.3351  0.3563 -0.0205
11466SOL    HW240235   1.162   8.762   9.368  1.0467  0.1069 -1.3951
11467SOL     OW40236   0.111   1.666   8.905  0.0900 -0.4518  0.6404
11467SOL    HW140237   0.096   1.734   8.970  1.8288 -2.0048  2.8256
11467SOL    HW240238   0.171   1.706   8.842  0.7531  0.2103  1.6566
11468SOL     OW40239   8.870   9.824   9.613 -0.0463 -0.0410 -0.1494
11468SOL    HW140240   8.776   9.823   9.597 -0.3529  0.0414  1.4128
11468SOL    HW240241   8.883   9.761   9.684  0.9673  0.4562  0.1288
11469SOL     OW40242  10.635   4.886   1.770  0.5346  0.2541  0.3295
11469SOL    HW140243  10.641   4.953   1.702  3.5006  0.0972  0.3011
11469SOL    HW240244  10.673   4.808   1.729 -1.0648 -0.9354  1.0066
11470SOL     OW40245   9.370   9.293   8.108 -0.1266  0.7056  0.3861
11470SOL    HW140246   9.376   9.387   8.092  0.2917  0.7292  0.6831
11470SOL    HW240247   9.327   9.258   8.030 -1.0443  1.2467  0.6341
11471SOL     OW40248   3.542   8.821   5.514  0.1863 -0.0592 -0.3011
11471SOL    HW140249   3.603   8.781   5.453 -0.5673  0.9777 -1.7993
11471SOL    HW240250   3.466   8.762   5.513  0.1911 -0.0649 -0.3364
11472SOL     OW40251   2.529   2.753   6.583  0.3541 -0.5349  0.3267
11472SOL    HW140252   2.568   2.667   6.566  1.9267 -0.2235  2.0397
11472SOL    HW240253   2.597   2.815   6.559 -0.2111  0.1728  0.5205
11473SOL     OW40254   5.669   8.893   8.993  0.0680 -0.3717 -0.7692
11473SOL    HW140255   5.609   8.900   8.919 -0.1008  0.4473 -0.5605
11473SOL    HW240256   5.746   8.944   8.967 -0.6485  1.3202  0.2482
11474SOL     OW40257   6.340   9.956   8.828 -0.0085  0.0950 -0.0624
11474SOL    HW140258   6.286   9.928   8.902  0.8467  1.5773  1.1834
11474SOL    HW240259   6.424   9.979   8.867  0.8818 -0.2529 -1.6944
11475SOL     OW40260   3.572   8.827   6.716  0.3816 -0.3234  0.4602
11475SOL    HW140261   3.656   8.868   6.735 -0.9506  1.8704  2.0545
11475SOL    HW240262   3.551   8.776   6.794  0.7865 -2.0004 -0.4666
11476SOL     OW40263   6.277   5.854   0.776  0.2764  0.3672 -0.1177
11476SOL    HW140264   6.193   5.893   0.797  0.1727  0.1920 -0.2088
11476SOL    HW240265   6.308   5.902   0.699 -0.3116 -0.3870 -0.8469
11477SOL     OW40266   2.873   6.456   7.592 -0.2932 -0.5550  0.7406
11477SOL    HW140267   2.788   6.481   7.630  0.8404  0.1760  2.9915
11477SOL    HW240268   2.863   6.471   7.498 -1.6818  2.5742  1.2566
11478SOL     OW40269   6.353   7.066   8.918 -0.2677  0.3277 -0.2232
11478SOL    HW140270   6.367   7.152   8.879 -2.9020  1.5974  1.3914
11478SOL    HW240271   6.309   7.015   8.850  0.0978  0.6618 -0.7184
11479SOL     OW40272   4.098  10.113   9.594  0.5204 -0.6016 -0.5222
11479SOL    HW140273   4.119  10.199   9.557  0.5738 -0.1195  0.5738
11479SOL    HW240274   4.008  10.096   9.565  0.1990  0.2265 -0.0587
11480SOL     OW40275   1.790   2.997   4.197  0.3246 -0.2115 -0.2418
11480SOL    HW140276   1.866   2.938   4.190 -0.9423 -1.8086 -1.2816
11480SOL    HW240277   1.778   3.030   4.108 -0.5522 -0.4144 -0.1991
11481SOL     OW40278   4.224   2.940   1.508  0.7390 -0.5138 -0.7613
11481SOL    HW140279   4.167   2.867   1.487 -1.9427  0.9703  0.8179
11481SOL    HW240280   4.282   2.908   1.577 -0.7899 -1.0345  0.3197
11482SOL     OW40281   1.216   5.052   7.160  0.6302 -0.6261  0.4807
11482SOL    HW140282   1.307   5.024   7.146 -0.1003 -1.9567 -2.3540
11482SOL    HW240283   1.167   4.970   7.169 -0.3043  0.0826  2.3456
11483SOL     OW40284   2.889   8.464   1.052 -0.2794  0.2530  0.0331
11483SOL    HW140285   2.939   8.531   1.004 -0.8748  1.8185  1.4799
11483SOL    HW240286   2.917   8.475   1.143 -0.3137 -1.5920  0.2908
11484SOL     OW40287   5.565   5.637   0.619  0.1243 -0.0366  0.3923
11484SOL    HW140288   5.642   5.694   0.620  0.9437 -1.1215  0.5456
11484SOL    HW240289   5.574   5.583   0.697 -0.1513 -1.0103 -0.2302
11485SOL     OW40290   2.681   1.927   3.755 -0.7357 -0.6842  0.2764
11485SOL    HW140291   2.717   2.001   3.705 -1.4617 -0.6250 -0.1646
11485SOL    HW240292   2.647   1.867   3.689 -0.2259 -1.3885  0.6376
11486SOL     OW40293   1.147   6.683   5.413 -0.5761 -0.5027  0.0705
11486SOL    HW140294   1.149   6.682   5.509 -1.5728  0.6908  0.1418
11486SOL    HW240295   1.128   6.593   5.388 -1.6341 -0.5804  1.0685
11487SOL     OW40296   9.530  10.602  10.225 -0.2792  0.8408  0.2890
11487SOL    HW140297   9.570  10.516  10.241  4.4178  2.0580 -2.7494
11487SOL    HW240298   9.536  10.647  10.309  0.4379 -0.6828  1.1104
11488SOL     OW40299   2.470   9.400   9.698  0.3889 -0.2776  0.4925
11488SOL    HW140300   2.483   9.481   9.648 -0.2303  0.8450  2.0359
11488SOL    HW240301   2.424   9.429   9.777  0.2281 -2.1501  1.1273
11489SOL     OW40302   7.684   4.119   8.697  0.5990 -0.1513  0.4179
11489SOL    HW140303   7.717   4.200   8.658 -0.1226  0.0260  0.1550
11489SOL    HW240304   7.663   4.142   8.787  0.8550 -0.1741  0.4844
11490SOL     OW40305   2.466   3.252   2.712 -0.2742  0.4611 -0.2109
11490SOL    HW140306   2.492   3.162   2.733 -2.3915 -0.1723 -0.0611
11490SOL    HW240307   2.497   3.265   2.622  1.2092  0.0913  0.2125
11491SOL     OW40308   2.003   6.773   8.403 -0.2688  0.0056  0.7278
11491SOL    HW140309   1.938   6.734   8.344  0.3019 -2.6905  1.7874
11491SOL    HW240310   1.952   6.805   8.477 -0.4979 -1.0817  1.0416
11492SOL     OW40311   4.958   4.372   0.958 -0.1939  0.6324  0.1949
11492SOL    HW140312   4.911   4.330   0.886  0.5369  0.2285 -0.0597
11492SOL    HW240313   5.006   4.444   0.916  0.9954 -0.1894  0.0906
11493SOL     OW40314   6.829   0.895   4.333  0.6484  0.3942 -0.4614
11493SOL    HW140315   6.861   0.950   4.261 -0.2137  1.2691 -0.2018
11493SOL    HW240316   6.827   0.955   4.408 -1.5996  0.4004 -0.4763
11494SOL     OW40317   5.699   5.175   4.524 -0.4392  0.5070 -0.3970
11494SOL    HW140318   5.706   5.202   4.433 -0.7825 -2.0094 -1.2495
11494SOL    HW240319   5.606   5.156   4.537 -1.0280  3.9266  1.5317
11495SOL     OW40320   0.036   2.972   1.747  0.0665  0.3083 -0.0895
11495SOL    HW140321   0.090   2.945   1.821 -0.3684  0.0441  0.1330
11495SOL    HW240322  -0.015   2.894   1.725  0.8984  0.0758 -1.3020
11496SOL     OW40323   3.734   9.897   4.731 -0.3941 -0.2763 -0.5087
11496SOL    HW140324   3.777   9.852   4.659 -0.0149  1.6922 -1.5729
11496SOL    HW240325   3.692   9.827   4.781  2.4671 -2.1258 -0.4313
11497SOL     OW40326   2.195   8.801   6.669 -0.3804  0.2615  0.3930
11497SOL    HW140327   2.288   8.788   6.648 -0.5585  1.4111 -1.3866
11497SOL    HW240328   2.159   8.712   6.673  0.3831 -0.1545 -1.1157
11498SOL     OW40329   7.948   1.469   5.305 -0.5336 -1.1597 -0.1880
11498SOL    HW140330   7.859   1.504   5.297  0.3671  1.1799 -0.8756
11498SOL    HW240331   7.952   1.433   5.393 -1.1769  1.8408  1.1808
11499SOL     OW40332   8.753   5.995   1.863 -0.1821 -0.4637 -0.2011
11499SOL    HW140333   8.659   6.015   1.855 -0.0093  0.2588 -0.4962
11499SOL    HW240334   8.780   6.037   1.945  0.3389  1.2040 -1.1790
11500SOL     OW40335   1.684   8.358   6.141 -0.1034 -0.4748 -0.3970
11500SOL    HW140336   1.603   8.352   6.091 -0.7809 -2.0134  0.7646
11500SOL    HW240337   1.685   8.447   6.176 -1.6702 -0.6324  0.1289
11501SOL     OW40338   8.902   6.908   2.814  0.1617 -0.4894 -0.1731
11501SOL    HW140339   8.818   6.951   2.833 -0.2115 -0.9532 -0.7433
11501SOL    HW240340   8.943   6.899   2.900  1.0129  2.4762 -0.1717
11502SOL     OW40341   9.636   6.854   1.274 -0.0160  0.3464 -0.1917
11502SOL    HW140342   9.609   6.920   1.210 -0.7947  0.3754  0.1633
11502SOL    HW240343   9.585   6.777   1.253 -1.7579  0.9363  1.5833
11503SOL     OW40344   7.893   7.043   5.864  0.4562 -0.6405 -0.1072
11503SOL    HW140345   7.950   7.021   5.790  0.0404 -2.0938 -0.0274
11503SOL    HW240346   7.863   7.132   5.845 -0.4020 -1.3035 -2.2189
11504SOL     OW40347   5.567   1.846   6.865 -0.5377  0.1444 -0.5015
11504SOL    HW140348   5.486   1.823   6.820 -1.0211  2.2846 -0.8305
11504SOL    HW240349   5.551   1.823   6.956 -1.2180 -0.1905 -0.6994
11505SOL     OW40350   1.288   0.265   7.139  0.7571  0.1755  0.1198
11505SOL    HW140351   1.241   0.237   7.060  0.1503  1.3693  0.0446
11505SOL    HW240352   1.368   0.307   7.106  0.4655  0.7447  0.1313
11506SOL     OW40353   9.220   9.179   5.013 -0.6435 -0.3475 -1.0633
11506SOL    HW140354   9.237   9.139   5.098 -0.5390  1.3430 -0.2500
11506SOL    HW240355   9.142   9.234   5.027 -1.0178 -0.5465 -2.2326
11507SOL     OW40356   0.947   1.751   6.378  0.6017 -0.6250 -0.3565
11507SOL    HW140357   0.955   1.780   6.287  0.5707 -2.1767 -0.8857
11507SOL    HW240358   0.886   1.677   6.374  2.6832 -2.5088  0.4746
11508SOL     OW40359   2.721   8.161   0.874  0.2337  0.5482  0.8519
11508SOL    HW140360   2.719   8.257   0.872  1.0751  0.6325  2.3539
11508SOL    HW240361   2.729   8.135   0.783  0.1941  1.9154  0.4358
11509SOL     OW40362   4.490  10.369   9.526  0.1526 -0.1260  0.0288
11509SOL    HW140363   4.519  10.291   9.575  1.5503 -0.5042 -1.3452
11509SOL    HW240364   4.449  10.333   9.447  0.3279  0.5278 -0.3593
11510SOL     OW40365   4.354   0.278   3.412  0.3591  0.0803 -0.1196
11510SOL    HW140366   4.439   0.247   3.445  0.8184  0.3940 -0.9758
11510SOL    HW240367   4.340   0.228   3.332 -1.4978 -1.8253  1.2755
11511SOL     OW40368  10.057   0.576   9.220 -0.2663 -0.6136 -0.1543
11511SOL    HW140369  10.049   0.670   9.208  0.4829 -0.3651  1.1820
11511SOL    HW240370  10.150   0.560   9.230 -0.3984 -1.4860 -0.1843
11512SOL     OW40371  10.151   3.324   1.977 -0.2644  0.2039  0.5895
11512SOL    HW140372  10.061   3.345   1.952  0.0384 -0.0016 -0.7895
11512SOL    HW240373  10.144   3.245   2.030 -0.8569 -0.1255  0.0335
11513SOL     OW40374   0.434   0.144   1.061  0.4668  0.4564  0.1393
11513SOL    HW140375   0.437   0.169   1.154  1.3102  0.4216  0.1252
11513SOL    HW240376   0.414   0.051   1.062 -0.7646  0.7039  0.2437
11514SOL     OW40377   4.307   2.469   0.956  0.0689 -0.2450  0.7772
11514SOL    HW140378   4.287   2.392   0.903  2.7549  0.3418 -1.3317
11514SOL    HW240379   4.370   2.438   1.021  1.5681  0.1658 -0.4107
11515SOL     OW40380   4.860   6.888   9.957 -0.2488  0.3156  0.1322
11515SOL    HW140381   4.794   6.846  10.012 -0.1570  0.8464  0.6529
11515SOL    HW240382   4.943   6.851   9.985 -0.3636 -0.8903 -1.0114
11516SOL     OW40383   2.259   8.654   7.620  1.0196  0.3623  0.5254
11516SOL    HW140384   2.246   8.659   7.715 -0.8319 -1.8678  0.4681
11516SOL    HW240385   2.332   8.594   7.609  0.1022 -0.7792  0.5366
11517SOL     OW40386   7.983   0.627   4.088  0.1979 -0.1250  0.1465
11517SOL    HW140387   7.983   0.646   3.994  0.2711  0.5602  0.2730
11517SOL    HW240388   7.921   0.555   4.098  0.9846 -0.9241 -0.5554
11518SOL     OW40389   9.057   9.629   8.569 -0.2835 -0.4326 -0.8137
11518SOL    HW140390   9.019   9.670   8.491  0.8890  1.3114 -0.5408
11518SOL    HW240391   9.003   9.661   8.641 -0.9590 -1.5131 -0.8177
11519SOL     OW40392   9.051   1.595   2.678  0.0967  0.6750 -0.3599
11519SOL    HW140393   9.138   1.556   2.675 -0.5095 -0.7489 -0.4039
11519SOL    HW240394   9.066   1.687   2.699  1.6576  0.6680 -1.3480
11520SOL     OW40395   5.102  10.180   3.011 -0.0120  0.8793 -0.2184
11520SOL    HW140396   5.196  10.169   3.001  0.0967  0.7798  0.8238
11520SOL    HW240397   5.064  10.109   2.959  0.4357  1.6015 -1.5969
11521SOL     OW40398   9.833   7.867   5.350  0.2622 -0.0283 -0.1932
11521SOL    HW140399   9.911   7.887   5.402  0.5844  0.6540 -0.9121
11521SOL    HW240400   9.852   7.782   5.310  0.5960  0.0794 -0.2709
11522SOL     OW40401   1.063   9.534   3.814 -0.2775 -0.4876 -0.1911
11522SOL    HW140402   1.047   9.515   3.907 -0.4466 -2.5835 -0.6040
11522SOL    HW240403   1.109   9.617   3.815  0.0178 -0.6134  1.8014
11523SOL     OW40404   3.474   6.071   7.161 -0.0193 -0.3708  0.3395
11523SOL    HW140405   3.386   6.042   7.184 -0.6848  0.1714 -1.3281
11523SOL    HW240406   3.490   6.147   7.217 -1.2642  0.4593 -0.3974
11524SOL     OW40407   1.417   6.524   4.879 -0.7324  0.1743 -0.1710
11524SOL    HW140408   1.433   6.487   4.792 -1.0886  0.3863 -0.3281
11524SOL    HW240409   1.357   6.597   4.864 -1.1336 -0.0484  0.2987
11525SOL     OW40410   6.456   5.730   0.978 -0.1703 -0.0223 -0.2819
11525SOL    HW140411   6.411   5.781   1.046  0.8381 -0.4275  0.7350
11525SOL    HW240412   6.430   5.770   0.896 -1.6777  0.2964  0.3254
11526SOL     OW40413   6.941   8.722   0.547  0.0327  0.2517 -0.1401
11526SOL    HW140414   6.879   8.653   0.523  0.9341 -0.2681 -1.0835
11526SOL    HW240415   6.903   8.802   0.511  0.3429 -0.2111 -1.5909
11527SOL     OW40416   3.617   3.574   9.302 -0.0255  0.2986 -0.2214
11527SOL    HW140417   3.589   3.646   9.358  2.6186  1.5668 -0.3809
11527SOL    HW240418   3.544   3.561   9.241 -0.9830  2.1600  0.4664
11528SOL     OW40419   9.259   2.692   5.623  1.3211  0.1529  0.7305
11528SOL    HW140420   9.279   2.642   5.544 -1.1134  0.4587 -0.1517
11528SOL    HW240421   9.285   2.635   5.695 -0.0249 -1.8138 -0.2654
11529SOL     OW40422   2.567   6.180   5.523 -0.5404 -0.0403 -0.3938
11529SOL    HW140423   2.553   6.205   5.615  0.0049 -1.2066  0.0236
11529SOL    HW240424   2.502   6.111   5.507  0.2711 -0.8118 -0.4484
11530SOL     OW40425   8.575   2.307   1.348  0.0851 -0.2250 -0.4410
11530SOL    HW140426   8.653   2.278   1.396 -1.1422  1.6116  3.0402
11530SOL    HW240427   8.592   2.400   1.331 -0.5521 -0.2782 -1.3904
11531SOL     OW40428   4.868   5.279  10.440 -0.3100 -0.4711  0.1631
11531SOL    HW140429   4.948   5.227  10.437 -0.0102 -0.0138  0.2921
11531SOL    HW240430   4.814   5.243  10.369  0.3316 -0.2521 -0.4445
11532SOL     OW40431   3.111   6.067   3.602  0.0695 -0.1123  0.7018
11532SOL    HW140432   3.149   6.018   3.529 -0.1597  0.1000  0.4360
11532SOL    HW240433   3.021   6.035   3.607 -0.5957  1.4323 -0.5359
11533SOL     OW40434   6.037   5.519   9.483  0.1578 -0.2737  0.1715
11533SOL    HW140435   6.058   5.597   9.535  1.4019  0.4631 -1.3360
11533SOL    HW240436   6.089   5.449   9.524 -1.1439 -0.4028  1.6737
11534SOL     OW40437   9.605   4.360   3.539 -0.1035 -0.5926 -0.5986
11534SOL    HW140438   9.623   4.332   3.450 -0.5830 -1.1108 -0.5370
11534SOL    HW240439   9.602   4.279   3.590 -0.0684 -0.3199 -0.1562
11535SOL     OW40440   7.733   6.606   8.817  0.0779 -0.2349 -0.3259
11535SOL    HW140441   7.720   6.511   8.821 -0.2512 -0.1705  0.2268
11535SOL    HW240442   7.665   6.642   8.874 -0.7270  0.4255 -1.6516
11536SOL     OW40443   2.303   2.504   8.661 -0.3540 -0.1566 -0.0183
11536SOL    HW140444   2.375   2.523   8.722  0.1731 -0.8882 -0.3919
11536SOL    HW240445   2.260   2.588   8.648  0.1394  0.2024  0.5921
11537SOL     OW40446  10.925   3.238   9.369 -0.3477 -0.3346 -0.0936
11537SOL    HW140447  10.985   3.245   9.443 -1.4986 -0.2323  0.8582
11537SOL    HW240448  10.839   3.226   9.409 -0.8914 -1.0946 -1.4344
11538SOL     OW40449   1.108   7.557   0.300 -0.3327 -0.5189  0.2512
11538SOL    HW140450   1.095   7.493   0.230  0.7023  0.4383 -0.8605
11538SOL    HW240451   1.052   7.630   0.276  0.5740  0.1119  0.0069
11539SOL     OW40452  10.170   1.180   7.615  0.5106  0.0581  0.7047
11539SOL    HW140453  10.192   1.243   7.546 -0.2896 -0.0406  0.3483
11539SOL    HW240454  10.137   1.233   7.686 -0.0387  0.0578  0.4542
11540SOL     OW40455   5.246   2.261   4.038  0.7523  0.3816 -0.7305
11540SOL    HW140456   5.277   2.170   4.037 -3.3878 -1.2785 -1.3402
11540SOL    HW240457   5.229   2.279   4.130 -1.1902 -0.7159 -0.8046
11541SOL     OW40458   5.938   3.874   7.445  0.2351 -0.0007 -0.3089
11541SOL    HW140459   5.980   3.798   7.406 -0.4261 -0.2618 -0.5248
11541SOL    HW240460   5.851   3.844   7.469  0.0860  0.5943 -0.0791
11542SOL     OW40461   3.630  10.503   9.456  0.0513  0.0233 -0.0204
11542SOL    HW140462   3.717  10.513   9.496 -0.0742  1.0908  0.0068
11542SOL    HW240463   3.592  10.590   9.460 -1.3789 -0.6016  0.7501
11543SOL     OW40464   5.655   9.306   5.335  0.1931 -0.2775  0.0024
11543SOL    HW140465   5.588   9.306   5.267 -0.4446 -0.2805  0.6166
11543SOL    HW240466   5.615   9.353   5.408  0.1419 -1.8803  1.0661
11544SOL     OW40467   6.406   8.968   0.405  0.6073  0.2752 -0.0476
11544SOL    HW140468   6.449   8.885   0.427 -0.3013 -0.3718 -0.6608
11544SOL    HW240469   6.373   9.001   0.489 -2.6071 -2.0429 -0.2279
11545SOL     OW40470  10.788   0.934   5.034 -0.1888 -0.0938 -0.3072
11545SOL    HW140471  10.877   0.932   5.071  0.3947 -2.3302 -1.6141
11545SOL    HW240472  10.766   1.027   5.028  1.7583  0.4870  0.7621
11546SOL     OW40473   2.965  10.057  10.595 -0.1491  0.5665 -0.1474
11546SOL    HW140474   2.950   9.969  10.628  0.4586  0.9569  1.2374
11546SOL    HW240475   2.930  10.056  10.506  1.2557 -1.5309 -0.7492
11547SOL     OW40476   7.613  10.808   8.964 -0.2742  0.3548  0.1061
11547SOL    HW140477   7.573  10.772   8.884  0.0767 -1.9274  0.8732
11547SOL    HW240478   7.621  10.902   8.947 -0.7385  0.0257 -2.2968
11548SOL     OW40479   6.286   3.310   2.266 -0.4068 -0.2055 -0.2567
11548SOL    HW140480   6.320   3.311   2.177  0.2329 -0.0274 -0.0213
11548SOL    HW240481   6.363   3.296   2.321 -0.6472  0.6751  0.3258
11549SOL     OW40482   4.803  10.446   3.842 -0.5450 -0.1887  0.2957
11549SOL    HW140483   4.873  10.503   3.810 -0.1863 -1.0869 -0.5918
11549SOL    HW240484   4.788  10.474   3.932  0.6436  0.3322  0.3512
11550SOL     OW40485   3.605   5.432   1.352  0.1493 -0.5568  0.7803
11550SOL    HW140486   3.533   5.412   1.293  1.5291  0.4822 -1.3952
11550SOL    HW240487   3.563   5.444   1.438 -2.4735  1.3914 -0.6241
11551SOL     OW40488  10.402   4.557   4.276  0.3542 -0.3017 -0.1918
11551SOL    HW140489  10.482   4.569   4.224  2.2808  1.7603  2.8804
11551SOL    HW240490  10.418   4.477   4.326 -0.9270 -1.5607 -1.6920
11552SOL     OW40491   7.298   0.430   8.641  0.1491 -0.1265 -0.7784
11552SOL    HW140492   7.204   0.430   8.622  0.0067  0.3322 -0.1057
11552SOL    HW240493   7.319   0.521   8.661  0.4716 -0.4247  0.2991
11553SOL     OW40494   8.347   9.097   5.550  0.1745  0.1971  0.0246
11553SOL    HW140495   8.312   9.036   5.485 -1.2102 -1.4595  2.1525
11553SOL    HW240496   8.271   9.150   5.576  0.7546  0.9799  0.1575
11554SOL     OW40497   9.977   9.369   8.609 -0.3308  0.2250  0.5418
11554SOL    HW140498   9.889   9.374   8.646 -0.3484 -0.7055  0.6414
11554SOL    HW240499   9.988   9.277   8.585  1.2332 -0.0379  2.0714
11555SOL     OW40500   3.722   1.789  10.607 -0.8331 -0.1070  0.3128
11555SOL    HW140501   3.711   1.790  10.511 -0.4109 -1.0392  0.2387
11555SOL    HW240502   3.805   1.835  10.622  0.6592 -2.5063 -0.0511
11556SOL     OW40503   0.202   4.457   0.978 -0.3114  0.4519  0.1661
11556SOL    HW140504   0.270   4.523   0.994 -0.5824  0.9305 -0.5693
11556SOL    HW240505   0.242   4.374   1.004  0.3453  0.8039  0.3015
11557SOL     OW40506   4.134   8.516   9.151  0.3072 -0.3465 -0.1923
11557SOL    HW140507   4.137   8.610   9.134  0.8549 -0.4652 -0.8056
11557SOL    HW240508   4.047   8.500   9.189 -0.0294  0.3052 -0.6875
11558SOL     OW40509   9.938   6.760   4.977  1.0026 -0.2799  0.4532
11558SOL    HW140510   9.868   6.813   5.015 -0.3740 -0.9598 -0.9951
11558SOL    HW240511  10.015   6.817   4.978 -0.4070  1.8006 -1.0421
11559SOL     OW40512   8.415   6.666   4.250 -0.0029 -0.2702  0.5715
11559SOL    HW140513   8.365   6.701   4.323  0.6365 -0.2381  1.0072
11559SOL    HW240514   8.367   6.693   4.172 -1.0030 -0.7931  0.9854
11560SOL     OW40515   3.466   3.289   6.241 -0.4424  0.7790 -0.6324
11560SOL    HW140516   3.518   3.328   6.171  0.8080 -0.3871 -0.3920
11560SOL    HW240517   3.524   3.287   6.317 -1.3862  0.9362  0.1249
11561SOL     OW40518   2.459   7.048   6.250 -0.5729 -0.4248  0.3086
11561SOL    HW140519   2.518   7.061   6.176 -1.4788 -2.8861 -0.9845
11561SOL    HW240520   2.503   7.090   6.324  0.5031  1.8852 -1.5149
11562SOL     OW40521   0.092   7.302   9.635  0.1938 -0.1537  0.4175
11562SOL    HW140522   0.119   7.259   9.716  1.2942 -1.1735 -0.4439
11562SOL    HW240523   0.173   7.338   9.600 -0.3331  0.5734 -0.0608
11563SOL     OW40524   6.697   6.565   7.573  0.0191  0.2516 -0.1403
11563SOL    HW140525   6.621   6.577   7.630 -0.7357 -0.4701 -0.9785
11563SOL    HW240526   6.718   6.472   7.580 -0.8997 -0.1386 -2.0287
11564SOL     OW40527   2.858   6.700   4.032 -0.1711  0.0661 -0.2575
11564SOL    HW140528   2.889   6.757   4.103  1.3625  0.6800 -1.3634
11564SOL    HW240529   2.938   6.673   3.987 -0.9747 -1.8200 -0.6473
11565SOL     OW40530   0.532   6.834   5.083 -0.4016  0.4009 -0.0438
11565SOL    HW140531   0.439   6.854   5.097 -0.5718 -0.2231 -0.2513
11565SOL    HW240532   0.545   6.850   4.989 -0.2870  0.5199 -0.0079
11566SOL     OW40533   1.487   8.477   8.088 -0.1035  0.1113 -0.3535
11566SOL    HW140534   1.413   8.494   8.030  0.9935  0.8811 -1.5928
11566SOL    HW240535   1.491   8.554   8.145 -0.3350  0.0200 -0.2182
11567SOL     OW40536   8.942   0.011   6.957  0.1814  0.5674 -0.3495
11567SOL    HW140537   8.999  -0.063   6.934 -0.2406 -0.1722  0.9154
11567SOL    HW240538   8.992   0.088   6.929  0.8891 -0.1534 -1.1490
11568SOL     OW40539   4.040   7.217   3.281  0.5671 -0.2623  0.3559
11568SOL    HW140540   4.026   7.172   3.364  1.6371  0.7886  1.1242
11568SOL    HW240541   4.075   7.149   3.223 -1.2768 -1.2931  0.3594
11569SOL     OW40542   8.756  10.678   4.362  0.2833 -0.6251 -0.8400
11569SOL    HW140543   8.785  10.613   4.298  1.0555 -0.5499 -0.5730
11569SOL    HW240544   8.828  10.740   4.368 -0.2818  0.0401 -0.7865
11570SOL     OW40545   7.551   4.741   5.089  0.0043  0.7916 -0.6044
11570SOL    HW140546   7.636   4.695   5.088  0.4579  1.6136 -0.8399
11570SOL    HW240547   7.527   4.745   5.181 -0.5085 -0.7468 -0.6487
11571SOL     OW40548   4.869   4.517   7.252 -0.3457  0.1371 -0.3215
11571SOL    HW140549   4.882   4.499   7.345 -0.3739  1.8959  0.0594
11571SOL    HW240550   4.955   4.508   7.212 -0.1020  0.5183  0.1102
11572SOL     OW40551   5.516   3.698   9.731 -0.4735  0.5480 -0.0224
11572SOL    HW140552   5.428   3.720   9.701  0.4276  1.7699 -2.0046
11572SOL    HW240553   5.516   3.720   9.824 -2.6745 -0.9413  0.4006
11573SOL     OW40554   7.833   4.805  10.803 -0.0440  0.2543  0.2622
11573SOL    HW140555   7.817   4.860  10.726  0.5976 -1.9752 -1.5537
11573SOL    HW240556   7.746   4.782  10.835 -0.3232  2.0893  0.9452
11574SOL     OW40557   6.163   4.481   4.641 -0.5663  0.2185 -0.0558
11574SOL    HW140558   6.138   4.488   4.549 -0.1164  1.7123 -0.0912
11574SOL    HW240559   6.122   4.556   4.683  0.2318  0.2407  0.7251
11575SOL     OW40560   0.660   3.054   3.713  0.5007  0.2584 -0.1266
11575SOL    HW140561   0.734   3.115   3.718  1.0043 -0.0880 -2.1886
11575SOL    HW240562   0.584   3.104   3.741  1.1371  1.3918 -0.3941
11576SOL     OW40563   0.923   2.922   8.615  0.1390  0.1097 -0.2227
11576SOL    HW140564   0.981   2.993   8.587  1.2744 -0.6310  0.2121
11576SOL    HW240565   0.898   2.878   8.533  1.1515 -0.2919 -0.3260
11577SOL     OW40566   0.998   4.579   2.589  0.3841 -0.1765 -0.1610
11577SOL    HW140567   0.914   4.623   2.577 -0.5842 -1.6454  0.8174
11577SOL    HW240568   1.064   4.648   2.581 -0.9497  1.0863 -0.4968
11578SOL     OW40569   1.181   9.327   1.241 -0.2108  0.4499 -0.1059
11578SOL    HW140570   1.096   9.311   1.281 -0.8442 -0.9002 -1.9013
11578SOL    HW240571   1.161   9.365   1.155  0.9844  0.2422 -0.4999
11579SOL     OW40572  10.828   4.764   5.660  0.1452 -0.2857 -0.2641
11579SOL    HW140573  10.907   4.795   5.617  0.4579 -0.5974  0.0714
11579SOL    HW240574  10.847   4.772   5.754 -0.3471 -0.0481 -0.1805
11580SOL     OW40575   5.320   0.567   1.689 -0.1970 -0.0518 -0.5560
11580SOL    HW140576   5.319   0.604   1.601  0.3330 -2.4617 -1.6555
11580SOL    HW240577   5.379   0.624   1.738 -0.1615  1.0894 -1.8822
11581SOL     OW40578   4.107   1.099   5.462 -0.0084  0.4247 -0.0643
11581SOL    HW140579   4.085   1.046   5.538 -0.2534 -1.7068 -1.5364
11581SOL    HW240580   4.187   1.059   5.427 -0.3591  0.8300 -1.3874
11582SOL     OW40581   0.225   6.191   1.102  0.2152 -0.5926  0.0082
11582SOL    HW140582   0.252   6.247   1.029  0.4782 -0.1929  0.4087
11582SOL    HW240583   0.173   6.248   1.158  0.6539 -0.6898  0.5213
11583SOL     OW40584   3.790   6.253   3.525  0.3058  0.6034  0.3181
11583SOL    HW140585   3.748   6.183   3.575  0.3818  0.9548  0.8870
11583SOL    HW240586   3.785   6.224   3.434 -1.5096  0.8109  0.3172
11584SOL     OW40587   6.642   0.869   0.971  0.0727 -0.2669 -0.2204
11584SOL    HW140588   6.705   0.869   0.900  0.6606  0.3308  0.2880
11584SOL    HW240589   6.681   0.814   1.038 -0.0500 -0.0867  0.0020
11585SOL     OW40590  10.451   7.579   1.276 -0.6251 -0.3626 -0.1456
11585SOL    HW140591  10.527   7.539   1.235 -0.6047 -1.1376  0.6197
11585SOL    HW240592  10.378   7.555   1.219 -0.4953 -0.7926 -0.1365
11586SOL     OW40593   7.164   1.794   7.114 -0.1121 -0.2128 -0.3069
11586SOL    HW140594   7.216   1.714   7.114 -2.3559 -1.8080 -1.4623
11586SOL    HW240595   7.158   1.820   7.206  0.4864 -1.5108  0.1173
11587SOL     OW40596   8.010   6.952   3.052  0.1795  0.0473 -0.4136
11587SOL    HW140597   7.978   6.920   2.968  0.3801 -2.2031  0.3099
11587SOL    HW240598   7.932   6.950   3.109  0.7930 -2.3555  0.4780
11588SOL     OW40599   0.395   7.224   1.484  0.2930 -0.5630 -0.7447
11588SOL    HW140600   0.365   7.134   1.471  1.6601 -1.7033  2.7056
11588SOL    HW240601   0.490   7.217   1.484  0.4573  0.2643  2.1990
11589SOL     OW40602   3.098   2.111   4.021 -0.0904  0.3306  0.0400
11589SOL    HW140603   3.003   2.120   4.012 -0.0883  0.9120  0.5614
11589SOL    HW240604   3.112   2.097   4.114  0.3527  0.4265 -0.0122
11590SOL     OW40605   6.046   4.692   1.671  0.1241 -0.8377 -0.0189
11590SOL    HW140606   5.993   4.645   1.606  0.1862 -2.1158  0.8438
11590SOL    HW240607   5.991   4.695   1.749  0.1657  0.4559 -0.0157
11591SOL     OW40608   0.968  10.780   2.424  0.1125 -0.2576  0.4284
11591SOL    HW140609   1.014  10.705   2.387  2.7056  0.8942  1.0803
11591SOL    HW240610   1.016  10.856   2.390 -3.8017  1.3858 -2.1618
11592SOL     OW40611   0.486   9.957   5.128 -0.1337  0.3390 -0.1261
11592SOL    HW140612   0.473   9.966   5.223  2.4557 -0.8180  0.4295
11592SOL    HW240613   0.454  10.039   5.091  1.2033  1.9564  2.0673
11593SOL     OW40614   5.495   8.116   4.544 -0.0585  0.3902  0.7598
11593SOL    HW140615   5.513   8.211   4.541 -0.1547  0.3850 -0.0870
11593SOL    HW240616   5.559   8.083   4.608  1.9621  0.6132 -1.0273
11594SOL     OW40617   3.223   7.701   6.575 -0.3558  0.4200  0.1587
11594SOL    HW140618   3.246   7.736   6.661  0.3870  0.4269 -0.0357
11594SOL    HW240619   3.243   7.771   6.514  1.6873 -0.5007 -0.2941
11595SOL     OW40620  10.058   0.357   8.331  0.2351 -0.3193  0.0877
11595SOL    HW140621   9.966   0.367   8.357 -1.0290 -1.9430 -3.1070
11595SOL    HW240622  10.084   0.445   8.303 -0.3073  0.1727  1.0623
11596SOL     OW40623   6.388   9.769   1.735 -0.4752  0.1529 -0.2434
11596SOL    HW140624   6.389   9.711   1.812  1.7905 -0.3776 -0.5889
11596SOL    HW240625   6.474   9.812   1.737 -0.3804  0.1448 -2.4533
11597SOL     OW40626   1.036   6.606   3.747  0.0277  1.0043 -0.2285
11597SOL    HW140627   0.960   6.659   3.725  0.2608  1.3634 -0.1804
11597SOL    HW240628   1.043   6.542   3.676 -0.8370  0.3981  0.2128
11598SOL     OW40629   5.318   6.276   1.522  0.4162  0.7382 -0.1891
11598SOL    HW140630   5.275   6.328   1.454 -0.0278 -0.3416 -0.7507
11598SOL    HW240631   5.320   6.334   1.598  1.0192  2.0158 -1.1320
11599SOL     OW40632  10.152   0.140   8.025  0.2082 -0.4818 -0.3018
11599SOL    HW140633  10.106   0.103   8.100 -0.5145  0.4257 -0.2855
11599SOL    HW240634  10.088   0.198   7.984  0.4438 -1.2742 -1.8729
11600SOL     OW40635   2.956   5.958  10.493  0.1388  0.1437 -0.1472
11600SOL    HW140636   2.996   6.040  10.462 -1.8594  2.0961  2.0680
11600SOL    HW240637   2.998   5.940  10.577 -0.9313  0.1296  0.4048
11601SOL     OW40638  10.548   4.444   1.947  0.4274  0.0153  0.1443
11601SOL    HW140639  10.616   4.416   1.886  1.6149  0.0941  1.3840
11601SOL    HW240640  10.579   4.416   2.033 -1.0143  0.2491  0.7771
11602SOL     OW40641   5.972   1.714   7.294 -0.7411 -0.1491 -0.3701
11602SOL    HW140642   6.067   1.720   7.306 -0.7524  0.6514 -0.5658
11602SOL    HW240643   5.955   1.621   7.285 -0.0789 -0.3676  0.4848
11603SOL     OW40644   9.123   4.391   8.638  0.5999  0.5108 -0.3299
11603SOL    HW140645   9.070   4.369   8.561 -0.6540  1.1508  0.3346
11603SOL    HW240646   9.113   4.485   8.648  0.5989  0.4062  0.7331
11604SOL     OW40647   8.604   6.514   9.843 -0.4468 -0.3209  0.2474
11604SOL    HW140648   8.668   6.525   9.772 -1.9991  0.0612 -1.1349
11604SOL    HW240649   8.531   6.468   9.803 -0.6301 -1.7557  2.0831
11605SOL     OW40650   0.284   1.569   9.418 -0.2115 -0.4322  0.2857
11605SOL    HW140651   0.374   1.601   9.412  0.0651 -0.9608  1.3455
11605SOL    HW240652   0.268   1.526   9.334  0.3459  0.1018 -0.0989
11606SOL     OW40653   0.761   4.466   8.658 -0.3553 -0.2014  0.0324
11606SOL    HW140654   0.797   4.506   8.578  0.7083 -0.5436  0.3228
11606SOL    HW240655   0.734   4.378   8.630  0.8392 -0.6432  0.2352
11607SOL     OW40656   3.192   4.581   8.557  0.2380  0.0529 -0.0449
11607SOL    HW140657   3.107   4.539   8.545  1.0013 -1.0032 -2.6331
11607SOL    HW240658   3.235   4.529   8.625 -0.4106 -0.7759 -0.2457
11608SOL     OW40659   3.751   5.928   6.399 -0.0453 -0.5624  0.1893
11608SOL    HW140660   3.768   5.928   6.305  0.4770  1.3978  0.2321
11608SOL    HW240661   3.655   5.935   6.405 -0.0357  0.1907 -0.2424
11609SOL     OW40662   0.937   6.268   4.941 -0.1016 -0.3012  0.2943
11609SOL    HW140663   0.919   6.180   4.975 -0.4274 -0.7980 -1.0948
11609SOL    HW240664   1.011   6.298   4.992  0.3334 -1.5897  0.4697
11610SOL     OW40665   6.270   6.529   7.258 -0.3388  0.5422 -0.6466
11610SOL    HW140666   6.273   6.607   7.313  0.7142  0.4479 -0.5544
11610SOL    HW240667   6.347   6.478   7.284 -0.6180 -0.1882 -1.2103
11611SOL     OW40668   9.512   8.433  10.525 -0.5144  0.0516  0.4337
11611SOL    HW140669   9.484   8.524  10.516 -3.1220 -0.5347  1.6861
11611SOL    HW240670   9.563   8.431  10.606 -2.6496  0.0353  1.8624
11612SOL     OW40671   2.805   7.346   7.662  0.0890 -0.2231  0.1668
11612SOL    HW140672   2.733   7.284   7.671 -0.1781  0.2629  1.8076
11612SOL    HW240673   2.883   7.291   7.657 -0.2182 -0.7208  0.7032
11613SOL     OW40674   9.266   0.406   4.606  0.5963  0.2303 -0.6063
11613SOL    HW140675   9.341   0.390   4.663  0.5863 -0.6234 -0.8226
11613SOL    HW240676   9.215   0.473   4.651  0.9350  0.0428  0.0583
11614SOL     OW40677   3.912   8.048   5.408  0.1325  0.2555 -0.2238
11614SOL    HW140678   3.899   8.062   5.314  0.8896  0.3467 -0.3213
11614SOL    HW240679   3.992   8.097   5.429  0.2165 -0.1205  0.3748
11615SOL     OW40680   8.338   5.552   3.141  0.3981 -0.7397 -0.1578
11615SOL    HW140681   8.348   5.566   3.235  1.0383  0.6973 -0.4222
11615SOL    HW240682   8.243   5.550   3.127  0.2814  0.8543  0.2859
11616SOL     OW40683   4.806   4.199   3.037  0.7456 -0.4276 -0.0589
11616SOL    HW140684   4.810   4.285   2.997 -0.3783  0.2697  1.1992
11616SOL    HW240685   4.870   4.202   3.108 -0.3331 -0.0393  0.9455
11617SOL     OW40686   7.931   3.275   6.283 -0.3137  0.1305  1.0120
11617SOL    HW140687   7.995   3.323   6.335  0.9698  1.3891 -1.5164
11617SOL    HW240688   7.981   3.205   6.241 -0.9017  0.1562  0.2338
11618SOL     OW40689  10.696   3.268   1.953  0.5511  0.2849  0.1781
11618SOL    HW140690  10.716   3.234   1.865 -0.6025 -0.0280  0.0315
11618SOL    HW240691  10.670   3.191   2.003 -0.7876  0.7468  0.2173
11619SOL     OW40692   3.320   9.183   0.903  0.3442  0.6638 -0.2431
11619SOL    HW140693   3.235   9.137   0.897  0.7523 -0.0829 -0.4539
11619SOL    HW240694   3.296   9.276   0.908 -0.4757  0.5144 -0.9883
11620SOL     OW40695   7.238   9.038   8.680  0.1265  0.9621 -0.3434
11620SOL    HW140696   7.301   8.966   8.674  0.6241  1.2270  1.2333
11620SOL    HW240697   7.289   9.116   8.658 -0.2023  0.9512 -1.1916
11621SOL     OW40698   1.270   5.030   3.725  0.4760 -0.0347 -0.0056
11621SOL    HW140699   1.300   5.084   3.799 -1.0251  0.6404  0.1579
11621SOL    HW240700   1.250   4.945   3.764  0.1532  0.1711  0.2893
11622SOL     OW40701   0.657   2.705   2.175  0.2501  0.3786 -0.2068
11622SOL    HW140702   0.662   2.791   2.217  0.8423  0.4745 -0.4606
11622SOL    HW240703   0.635   2.645   2.246  0.2432  0.6807  0.0506
11623SOL     OW40704   8.615   1.827   4.086  0.0679 -0.0211  0.1142
11623SOL    HW140705   8.531   1.804   4.128  0.0406 -2.5883 -1.1503
11623SOL    HW240706   8.643   1.746   4.044  1.5749  1.6473 -2.3032
11624SOL     OW40707   8.077   0.543   1.046 -0.1333 -0.4260  0.5054
11624SOL    HW140708   7.993   0.587   1.060  0.3067  0.6811 -0.1555
11624SOL    HW240709   8.142   0.607   1.076  0.6006  0.0835 -1.9305
11625SOL     OW40710   5.678   6.169  10.601  0.1921  0.3988  0.8381
11625SOL    HW140711   5.663   6.074  10.592  1.7244  0.2427 -0.6363
11625SOL    HW240712   5.722   6.178  10.685  0.3868 -0.2545  0.8170
11626SOL     OW40713   8.512   3.731   1.201 -0.4394  0.3146 -0.2602
11626SOL    HW140714   8.450   3.803   1.188  0.9753  1.3083 -1.9727
11626SOL    HW240715   8.580   3.768   1.257 -1.6029 -0.9466  2.0930
11627SOL     OW40716   1.726  10.779   3.459 -0.1093  0.2200  0.2094
11627SOL    HW140717   1.717  10.856   3.403 -1.4637  1.3435  1.8416
11627SOL    HW240718   1.711  10.813   3.548 -1.1331 -2.0008  0.9528
11628SOL     OW40719   2.811   0.620   8.346 -0.0774  0.3247 -0.3391
11628SOL    HW140720   2.730   0.606   8.297 -0.1103  1.4280 -0.6231
11628SOL    HW240721   2.834   0.711   8.328  0.9102  0.1921  0.2162
11629SOL     OW40722   2.536   2.317   4.604  0.2223 -0.1240 -0.9445
11629SOL    HW140723   2.481   2.332   4.681  0.8647 -0.0275 -0.4979
11629SOL    HW240724   2.580   2.401   4.590  0.7587 -0.3922 -0.8914
11630SOL     OW40725   5.094   5.302   7.115 -0.3548  0.0157  0.2497
11630SOL    HW140726   5.139   5.235   7.168  1.2371  0.2075 -0.7805
11630SOL    HW240727   5.020   5.257   7.076 -0.0899 -0.7818  0.6465
11631SOL     OW40728   7.093   4.751   0.633  0.4941 -0.4629  0.3340
11631SOL    HW140729   7.013   4.804   0.640  0.6876 -0.0114 -0.6532
11631SOL    HW240730   7.062   4.666   0.600  0.4622 -0.1248 -0.5389
11632SOL     OW40731   0.800  10.759   5.950  0.6110  0.3242  0.2243
11632SOL    HW140732   0.806  10.680   5.896  1.4343 -0.4042  1.3175
11632SOL    HW240733   0.830  10.830   5.893 -0.1101 -0.1391 -0.7683
11633SOL     OW40734   3.553   7.979   2.961  0.5679 -0.4695 -0.3546
11633SOL    HW140735   3.543   7.886   2.940  2.7040 -0.6044 -0.9560
11633SOL    HW240736   3.543   7.983   3.056  2.2891 -1.6507 -0.0695
11634SOL     OW40737   6.030   8.648   8.322 -0.0800  0.6960 -0.4145
11634SOL    HW140738   6.043   8.604   8.406 -1.4273 -0.2303 -0.6628
11634SOL    HW240739   6.119   8.662   8.289  0.4567  0.6256  0.9292
11635SOL     OW40740   3.348   9.969   4.327 -0.3901  0.3130 -0.2459
11635SOL    HW140741   3.340  10.064   4.313  0.7648  0.4638  0.0760
11635SOL    HW240742   3.277   9.949   4.388  0.3847  1.2725  1.0195
11636SOL     OW40743   0.863   5.378   9.598  0.8564 -0.2217  0.8929
11636SOL    HW140744   0.909   5.423   9.528 -0.8174  0.2811  0.0494
11636SOL    HW240745   0.847   5.290   9.563 -1.6495  0.5877 -0.2445
11637SOL     OW40746  10.786   1.576   4.768 -0.0719 -0.3214  0.1475
11637SOL    HW140747  10.834   1.501   4.733 -0.0051  0.2315 -0.9994
11637SOL    HW240748  10.706   1.538   4.806 -0.0603 -0.9739 -0.4559
11638SOL     OW40749   2.718   6.669   0.187 -0.0993 -0.7688 -0.6447
11638SOL    HW140750   2.633   6.681   0.143  0.2890 -2.3554 -1.9477
11638SOL    HW240751   2.773   6.738   0.151 -0.3688 -0.7904 -1.1194
11639SOL     OW40752   6.931   4.305   1.745 -0.0643 -0.2010  0.8816
11639SOL    HW140753   6.899   4.393   1.767  2.3908  1.2594 -0.8808
11639SOL    HW240754   6.964   4.271   1.828 -1.4137  0.3230  1.6762
11640SOL     OW40755   8.735   0.507   3.586 -0.4954 -0.1220 -0.2756
11640SOL    HW140756   8.763   0.483   3.674 -0.2892  0.9649 -0.0263
11640SOL    HW240757   8.648   0.546   3.598 -0.0233  1.0107 -0.3921
11641SOL     OW40758   0.389   4.030   8.582  0.3773  0.3166 -0.2007
11641SOL    HW140759   0.415   4.052   8.492  0.1809  1.4739  0.0081
11641SOL    HW240760   0.294   4.026   8.579  0.1188  3.4363  0.5495
11642SOL     OW40761   2.851   5.458   5.187 -0.0187 -0.1517  0.1229
11642SOL    HW140762   2.912   5.470   5.260  1.5583 -0.2034 -1.1485
11642SOL    HW240763   2.768   5.495   5.219  0.7718  0.3168  1.7309
11643SOL     OW40764   6.835   0.306   5.559  0.0707  0.1233 -0.0171
11643SOL    HW140765   6.843   0.300   5.464 -0.7455 -0.1141 -0.0761
11643SOL    HW240766   6.803   0.394   5.575  0.6467  0.3172  0.0685
11644SOL     OW40767   1.293   5.026   2.514 -0.4510  0.0833  0.3399
11644SOL    HW140768   1.380   5.034   2.552 -0.2763  2.5762 -0.4357
11644SOL    HW240769   1.236   5.076   2.572 -0.2439  3.6172 -2.1948
11645SOL     OW40770   2.618   3.806  10.120  0.4982  0.1230 -0.0712
11645SOL    HW140771   2.652   3.832  10.034 -0.7712  2.4561  0.0458
11645SOL    HW240772   2.572   3.724  10.104  2.6123 -0.9316 -1.0248
11646SOL     OW40773  10.274   5.675   7.880  0.3156 -0.1759  0.1068
11646SOL    HW140774  10.282   5.659   7.787  0.5388  2.8505 -0.5152
11646SOL    HW240775  10.360   5.654   7.916  1.1972  1.4490 -0.9365
11647SOL     OW40776   6.925   4.695   1.604  0.3192 -0.2581  0.1861
11647SOL    HW140777   7.006   4.659   1.566  0.3060 -2.7776  2.2774
11647SOL    HW240778   6.954   4.772   1.653  1.7212 -1.6738  1.7205
11648SOL     OW40779   7.525   3.057   0.975 -0.1261 -0.0994  0.1705
11648SOL    HW140780   7.553   2.974   1.014  1.7538 -0.2332 -1.2983
11648SOL    HW240781   7.511   3.036   0.882 -2.6419  0.6101  0.3101
11649SOL     OW40782   3.146   2.168   7.161 -0.0200  0.1019  0.5490
11649SOL    HW140783   3.068   2.122   7.129 -0.2575  0.8167  0.0820
11649SOL    HW240784   3.112   2.248   7.201  0.5807  1.4962 -1.5551
11650SOL     OW40785   6.225   6.507   9.603  0.6455  0.6888 -0.2983
11650SOL    HW140786   6.276   6.436   9.565  0.5565  1.3389 -1.6898
11650SOL    HW240787   6.274   6.586   9.582  0.2818  1.1251  0.4391
11651SOL     OW40788   4.131   3.011   6.138  0.3844 -0.2426 -0.2114
11651SOL    HW140789   4.179   3.039   6.216 -0.4333 -0.5687  0.4293
11651SOL    HW240790   4.040   3.002   6.168  0.1318 -0.7918 -1.0945
11652SOL     OW40791   9.535   8.098   7.396  0.1528 -0.0402  0.2142
11652SOL    HW140792   9.477   8.071   7.325  0.5610  0.7564 -0.4512
11652SOL    HW240793   9.535   8.025   7.457 -0.2684 -0.7154 -0.5760
11653SOL     OW40794   4.819   5.725   2.944  0.5017  0.0900 -0.0885
11653SOL    HW140795   4.760   5.650   2.954  0.7016 -0.2599 -1.3603
11653SOL    HW240796   4.808   5.775   3.025  0.0360 -1.0789  0.5966
11654SOL     OW40797  10.515   4.115   5.317 -0.0572  0.2213 -0.3719
11654SOL    HW140798  10.521   4.098   5.411 -0.3699 -1.8659 -0.6612
11654SOL    HW240799  10.508   4.210   5.309  1.0334  0.5256  1.6400
11655SOL     OW40800   9.027   1.390   8.893  0.4306  0.3258  0.0509
11655SOL    HW140801   8.991   1.476   8.872  0.3456  0.3089  0.1272
11655SOL    HW240802   8.969   1.328   8.849 -1.1865  0.1675  2.2955
11656SOL     OW40803   1.627   0.073   1.300 -0.4420  0.4475 -0.0509
11656SOL    HW140804   1.614   0.039   1.212 -0.0679  0.8301 -0.2557
11656SOL    HW240805   1.637  -0.005   1.355 -0.0461  0.2205 -0.4453
11657SOL     OW40806  10.350   6.151   2.460  0.5762 -0.5568 -0.4033
11657SOL    HW140807  10.425   6.183   2.409  1.7700 -0.1998  1.5002
11657SOL    HW240808  10.286   6.223   2.456  0.6123 -0.5552 -1.3914
11658SOL     OW40809   7.175   1.826   1.566 -0.2093  0.4031  0.0409
11658SOL    HW140810   7.174   1.908   1.517  1.2598  0.2474 -0.2941
11658SOL    HW240811   7.242   1.773   1.523 -0.7651 -0.7680  0.5861
11659SOL     OW40812   7.835   1.499   4.926  0.3608 -0.1236  0.1637
11659SOL    HW140813   7.833   1.473   4.834  0.5002  0.0826  0.1007
11659SOL    HW240814   7.868   1.423   4.973  1.1448  0.0701 -0.0654
11660SOL     OW40815   3.226   9.470   4.417  0.3908  0.3601 -0.0543
11660SOL    HW140816   3.184   9.459   4.332 -1.1770  0.4068  0.6781
11660SOL    HW240817   3.272   9.388   4.433 -1.1975 -0.5377  0.0403
11661SOL     OW40818   2.252   9.019   2.256 -0.3710 -0.6158 -0.0007
11661SOL    HW140819   2.214   8.946   2.305 -0.4146 -0.5682  0.0373
11661SOL    HW240820   2.326   9.048   2.309  0.0251 -1.0270 -0.3218
11662SOL     OW40821   1.818   8.367   4.594 -0.5813  0.1467  0.2340
11662SOL    HW140822   1.766   8.309   4.650  0.1771  0.2972  1.1367
11662SOL    HW240823   1.761   8.389   4.521 -2.2039  1.2096  1.7556
11663SOL     OW40824   5.572   0.042   4.084  0.7615  0.4305 -0.3263
11663SOL    HW140825   5.595   0.078   3.999  3.9956  2.9178  1.3842
11663SOL    HW240826   5.645  -0.015   4.107  0.4338  0.5913  1.2077
11664SOL     OW40827   3.471   8.704   7.696  0.1493 -0.4417 -0.6783
11664SOL    HW140828   3.420   8.634   7.654 -1.0473 -0.6841  1.0594
11664SOL    HW240829   3.536   8.658   7.748 -0.2351 -0.2593 -0.0249
11665SOL     OW40830  10.293   5.810   8.598 -0.3931  0.1448  0.2049
11665SOL    HW140831  10.289   5.746   8.669 -0.9871  0.6263  0.6218
11665SOL    HW240832  10.245   5.886   8.632 -0.4447  0.4844 -0.6084
11666SOL     OW40833   2.835   2.747   4.569  0.0872  0.2236 -0.0725
11666SOL    HW140834   2.782   2.817   4.606 -2.1246 -1.0028 -0.7597
11666SOL    HW240835   2.878   2.788   4.493  0.5518  1.3658  0.7776
11667SOL     OW40836   4.533   2.229   1.247  0.0196 -0.2121  0.1790
11667SOL    HW140837   4.539   2.323   1.262 -1.5617 -0.4042  2.6214
11667SOL    HW240838   4.505   2.192   1.331 -0.9923 -2.6727 -1.1005
11668SOL     OW40839   8.181   2.790  10.416 -0.0354  0.8462  0.8483
11668SOL    HW140840   8.220   2.736  10.485  0.7888  0.0690 -0.1857
11668SOL    HW240841   8.256   2.819  10.363 -0.8185 -2.2686 -2.3422
11669SOL     OW40842   4.548   5.116  10.078 -0.4968  0.4095 -0.6709
11669SOL    HW140843   4.608   5.167  10.023  0.1249  1.1990  0.6646
11669SOL    HW240844   4.471   5.172  10.088 -0.2264  0.6847 -0.0196
11670SOL     OW40845   8.362   9.909   5.506 -0.3121 -0.1106  0.1405
11670SOL    HW140846   8.323   9.945   5.427  0.4800 -1.8158 -1.0876
11670SOL    HW240847   8.292   9.912   5.571 -1.5396 -0.3296 -1.1301
11671SOL     OW40848   1.180   9.626   0.385 -0.0192 -0.1105  0.5948
11671SOL    HW140849   1.273   9.607   0.384 -0.0826 -0.4394 -0.1161
11671SOL    HW240850   1.143   9.567   0.319 -0.6144  0.5836  0.2905
11672SOL     OW40851   8.107   9.888   3.608 -0.2605 -0.0736  0.3325
11672SOL    HW140852   8.042   9.923   3.547 -0.4703 -0.7866  0.1396
11672SOL    HW240853   8.163   9.963   3.629  0.7065 -0.1182 -1.8598
11673SOL     OW40854   2.379   2.041   1.218  0.3929 -0.0850 -0.2989
11673SOL    HW140855   2.326   2.076   1.147 -1.6193  0.4712  1.3748
11673SOL    HW240856   2.359   1.948   1.220 -1.0192  0.2144  0.6703
11674SOL     OW40857   2.316   8.815   6.066  0.2722  1.2322  0.3679
11674SOL    HW140858   2.409   8.811   6.045  0.2409 -0.2680  0.4139
11674SOL    HW240859   2.308   8.772   6.151 -0.8278 -1.7669 -1.1256
11675SOL     OW40860   2.505   8.877   3.705  0.2367 -0.2652 -0.3866
11675SOL    HW140861   2.508   8.844   3.794 -0.0245 -0.2352 -0.3654
11675SOL    HW240862   2.531   8.803   3.650  1.7778  0.1102 -0.1968
11676SOL     OW40863   0.989   2.659   1.312  0.1061  0.1823  0.4196
11676SOL    HW140864   0.898   2.685   1.303 -0.4138 -1.7577 -0.4572
11676SOL    HW240865   1.035   2.709   1.244 -0.6485 -0.2047 -0.3995
11677SOL     OW40866   0.144   9.012   6.269  0.0954  0.3925  0.5386
11677SOL    HW140867   0.101   8.930   6.249  0.3291 -0.1695  2.1808
11677SOL    HW240868   0.171   9.047   6.184 -0.6611 -0.8454 -0.2356
11678SOL     OW40869   3.207   5.582   9.662  0.1905 -0.4101 -0.5927
11678SOL    HW140870   3.138   5.540   9.610 -0.2321  0.1740 -0.5029
11678SOL    HW240871   3.255   5.508   9.700  0.3731 -0.8434 -1.6370
11679SOL     OW40872   3.526   6.432  10.174  0.1193  0.0594 -0.2486
11679SOL    HW140873   3.600   6.467  10.222  0.3237  0.5065 -0.8752
11679SOL    HW240874   3.559   6.418  10.085 -0.6165  0.5188 -0.6029
11680SOL     OW40875   0.311   9.733   0.060  0.2107  0.3964  0.1303
11680SOL    HW140876   0.389   9.764   0.014 -0.6397 -0.2423 -1.8307
11680SOL    HW240877   0.271   9.813   0.095  0.9355  0.8920 -0.1487
11681SOL     OW40878   6.495   2.027   0.947 -0.1451  0.1152  0.4329
11681SOL    HW140879   6.428   2.036   1.014 -0.9295 -0.8469 -0.2035
11681SOL    HW240880   6.493   2.111   0.900 -0.5378  0.2870  0.7510
11682SOL     OW40881   2.612   5.670   9.928 -0.6926  0.1038  0.3436
11682SOL    HW140882   2.544   5.735   9.944 -1.5353 -0.4360 -0.8762
11682SOL    HW240883   2.694   5.717   9.940 -1.2601  1.7388 -1.6498
11683SOL     OW40884   3.861   5.805   2.175  0.3715 -0.2171 -0.1851
11683SOL    HW140885   3.866   5.753   2.094 -3.0753 -0.1650 -0.5708
11683SOL    HW240886   3.873   5.895   2.146  1.1186 -0.3480 -0.3070
11684SOL     OW40887  10.428   5.007   4.779 -0.6656  0.1407  0.2567
11684SOL    HW140888  10.407   5.069   4.849  0.5107  0.3956  0.4142
11684SOL    HW240889  10.371   4.932   4.795 -1.2356  0.6824  0.7975
11685SOL     OW40890   0.919   2.459   9.310 -0.4381 -0.2531 -0.4279
11685SOL    HW140891   0.862   2.386   9.333 -1.1769  0.1323 -1.0271
11685SOL    HW240892   0.938   2.447   9.217  0.8185 -0.6140 -0.1564
11686SOL     OW40893   5.231   5.436   4.842 -0.0318  0.0506 -0.1518
11686SOL    HW140894   5.166   5.503   4.823 -1.2440 -1.3550 -1.1365
11686SOL    HW240895   5.181   5.355   4.851  1.3645 -0.7224  1.2189
11687SOL     OW40896   1.326   0.976   0.016 -0.0643 -0.1788 -0.2451
11687SOL    HW140897   1.384   0.933   0.078  1.5036 -0.1525 -1.6168
11687SOL    HW240898   1.262   1.023   0.070  1.2703 -0.1219  1.3348
11688SOL     OW40899   5.186   3.230   0.281  0.0086  0.1101  0.0252
11688SOL    HW140900   5.116   3.296   0.278  0.2819  0.3792 -0.3917
11688SOL    HW240901   5.267   3.280   0.289  0.2020 -0.1814 -0.0843
11689SOL     OW40902   1.641   6.237  10.119  0.2852  0.3463 -0.3002
11689SOL    HW140903   1.670   6.206  10.205 -0.6659 -2.3480 -0.8563
11689SOL    HW240904   1.546   6.239  10.125  0.2602  2.0560 -0.7334
11690SOL     OW40905   2.610   7.362   8.239  0.1630  0.2679  0.2146
11690SOL    HW140906   2.600   7.405   8.154  2.3751  0.3519 -0.0584
11690SOL    HW240907   2.701   7.332   8.240 -0.2319 -1.0191  1.9774
11691SOL     OW40908   6.873   1.348   7.157  0.1466  0.6441 -0.0946
11691SOL    HW140909   6.955   1.397   7.145 -0.1792  1.2790  0.2277
11691SOL    HW240910   6.814   1.383   7.090  0.8847 -1.5547 -2.0200
11692SOL     OW40911   9.339   7.134   9.987  0.3026 -0.3734  0.2902
11692SOL    HW140912   9.322   7.058   9.932 -0.6950  0.1164 -0.1063
11692SOL    HW240913   9.255   7.154  10.028  0.6245  0.3140  0.6435
11693SOL     OW40914  10.197   1.691   8.061 -0.2455 -0.5356  0.4170
11693SOL    HW140915  10.203   1.780   8.028 -1.1028 -0.2245  1.0511
11693SOL    HW240916  10.243   1.638   7.997  0.3270  0.3713  0.0614
11694SOL     OW40917   1.064  10.910   0.976  0.3140  0.0209 -0.4838
11694SOL    HW140918   1.025  10.824   0.960  0.8065 -0.0137 -1.6314
11694SOL    HW240919   1.121  10.896   1.052  0.7615 -0.8049 -0.9526
11695SOL     OW40920   0.093   7.839   4.110 -0.4436  0.5780  0.2662
11695SOL    HW140921   0.031   7.771   4.137  0.6830 -1.1512 -1.2070
11695SOL    HW240922   0.075   7.852   4.017  1.3831 -0.0114 -0.2102
11696SOL     OW40923   4.750   9.372  10.639  0.0435 -0.0955 -0.6594
11696SOL    HW140924   4.798   9.379  10.556 -0.7877 -1.4352 -1.2818
11696SOL    HW240925   4.753   9.461  10.675  2.1408  0.0717 -1.1256
11697SOL     OW40926   9.680   4.620   2.322 -0.6351  0.1064 -0.0666
11697SOL    HW140927   9.664   4.569   2.242  2.1566 -1.1773  0.0893
11697SOL    HW240928   9.715   4.703   2.290 -1.5463  0.4562 -0.1985
11698SOL     OW40929   4.969   8.420   1.534  0.4372  0.0259  0.0463
11698SOL    HW140930   5.045   8.478   1.529  0.0498  0.4181 -2.0138
11698SOL    HW240931   4.971   8.370   1.453 -1.1429 -0.4085  0.2458
11699SOL     OW40932   2.829   6.330   1.968  0.7029  0.1953 -0.2822
11699SOL    HW140933   2.891   6.291   2.030  1.0752 -0.9114 -1.3117
11699SOL    HW240934   2.783   6.255   1.930  1.7113  0.6739 -2.6179
11700SOL     OW40935   4.587   3.845  10.588  0.4174 -0.2306 -0.3859
11700SOL    HW140936   4.539   3.773  10.548 -1.9232  1.2617 -0.4812
11700SOL    HW240937   4.531   3.872  10.661  1.8254  0.7324  0.3712
11701SOL     OW40938   9.831   2.118   1.350 -0.2616  0.7331  0.1447
11701SOL    HW140939   9.775   2.195   1.341 -1.1581  0.5933  3.1885
11701SOL    HW240940   9.771   2.043   1.345  0.1893  0.3842 -0.1062
11702SOL     OW40941   7.990   2.569   1.753  0.0286  0.5141  0.0690
11702SOL    HW140942   7.926   2.529   1.813 -1.5444  1.4121 -0.9475
11702SOL    HW240943   8.018   2.497   1.697  1.5079 -0.3414  1.8022
11703SOL     OW40944   4.790   6.459   7.056  0.4912 -0.3024 -0.0540
11703SOL    HW140945   4.808   6.551   7.035 -0.3421 -0.1970 -0.3387
11703SOL    HW240946   4.764   6.461   7.149  3.1267 -0.6296  0.7760
11704SOL     OW40947   5.258   7.888   7.688 -0.4912  0.4613  0.1939
11704SOL    HW140948   5.190   7.821   7.694 -0.3254  0.2227 -0.4938
11704SOL    HW240949   5.300   7.871   7.604 -1.0977  2.0612 -0.4661
11705SOL     OW40950   5.397   7.763   3.355  0.4734  0.4982  0.0463
11705SOL    HW140951   5.472   7.735   3.302  0.7792 -1.3260  1.3676
11705SOL    HW240952   5.321   7.726   3.311  0.7808 -1.5849  1.1594
11706SOL     OW40953   8.004   7.967   5.266 -0.1989  0.2424 -0.0463
11706SOL    HW140954   7.949   7.901   5.308  0.4571  0.4512  1.1854
11706SOL    HW240955   8.089   7.924   5.255  0.5413  1.1714  1.7101
11707SOL     OW40956   4.953   3.730   2.087 -0.5195  0.1867 -0.1752
11707SOL    HW140957   4.964   3.687   2.002  0.0671  2.7457 -1.4874
11707SOL    HW240958   5.040   3.762   2.110 -0.7277 -0.1876  1.2683
11708SOL     OW40959   9.746   3.599   1.340  0.1602 -0.2110  0.1318
11708SOL    HW140960   9.677   3.627   1.400  1.4582  1.9509  0.7279
11708SOL    HW240961   9.806   3.548   1.394  0.1701 -0.1901  0.1408
11709SOL     OW40962   7.386   3.062   8.236  0.3545 -0.8271 -0.4400
11709SOL    HW140963   7.370   3.106   8.153  0.5758  1.9041  0.8537
11709SOL    HW240964   7.481   3.050   8.238  0.4128 -0.3742 -0.3562
11710SOL     OW40965   3.434   1.726   1.869  0.4200  0.2994  0.6916
11710SOL    HW140966   3.347   1.743   1.834  1.1269  1.2507 -0.6955
11710SOL    HW240967   3.429   1.637   1.903 -0.9863  0.2151  0.3414
11711SOL     OW40968   2.320   4.016   2.550 -0.4027 -0.7156 -0.3805
11711SOL    HW140969   2.319   4.054   2.638  0.4265 -1.9805  0.2024
11711SOL    HW240970   2.241   3.963   2.546  0.5600 -2.2750  0.3792
11712SOL     OW40971   0.850   6.104  10.388 -0.1344  0.6013  0.1358
11712SOL    HW140972   0.919   6.040  10.372  0.6623  1.5263 -0.2214
11712SOL    HW240973   0.847   6.157  10.308 -0.0207  1.6868  0.8214
11713SOL     OW40974   4.786   4.999   1.564  0.0880 -0.0919  0.0745
11713SOL    HW140975   4.749   5.084   1.590  2.1987  1.0714 -0.4388
11713SOL    HW240976   4.877   5.003   1.594  0.7878 -1.3438 -1.7322
11714SOL     OW40977   6.319   9.889   4.172 -0.3435 -0.5466  0.4522
11714SOL    HW140978   6.301   9.826   4.242  0.0704  0.0719  1.1282
11714SOL    HW240979   6.412   9.908   4.181 -0.3032 -0.4083 -0.2310
11715SOL     OW40980   0.925   5.516   3.631  0.0631  0.4575 -1.1789
11715SOL    HW140981   0.891   5.494   3.545  0.8331 -1.1144 -1.1250
11715SOL    HW240982   1.008   5.560   3.614  1.2831 -1.7312 -1.2912
11716SOL     OW40983   8.667   3.130   2.107  0.2287 -0.6125 -0.2104
11716SOL    HW140984   8.635   3.192   2.041  0.6465 -0.0220  0.1341
11716SOL    HW240985   8.759   3.154   2.120  0.2574 -0.9814  0.2944
11717SOL     OW40986   4.878   0.267   2.538 -0.5049 -0.4051  0.8560
11717SOL    HW140987   4.809   0.303   2.483  0.3648  0.3152  0.2199
11717SOL    HW240988   4.832   0.211   2.600 -1.6836  0.2509  0.5960
11718SOL     OW40989   9.470   3.243   0.816 -0.2853  0.5116  0.6659
11718SOL    HW140990   9.489   3.267   0.725  1.1512  1.1872  1.1077
11718SOL    HW240991   9.483   3.148   0.819 -2.7383  0.0639 -0.3451
11719SOL     OW40992   7.156   1.685   5.075  0.2574  0.1165  0.1326
11719SOL    HW140993   7.169   1.770   5.116  1.0685 -0.1496  0.4430
11719SOL    HW240994   7.120   1.706   4.988  0.8041  0.7869  0.0623
11720SOL     OW40995   7.955   3.339   1.059 -0.3136 -0.1138 -0.1509
11720SOL    HW140996   7.920   3.423   1.030  1.3507 -0.3075 -3.2208
11720SOL    HW240997   7.948   3.283   0.982  3.4956 -1.0869  0.0064
11721SOL     OW40998   7.929   8.282   7.511 -0.1906  0.6162  0.6633
11721SOL    HW140999   7.983   8.347   7.555 -0.3152  1.3005 -0.1727
11721SOL    HW241000   7.990   8.236   7.452 -0.5235  1.4806 -0.3825
11722SOL     OW41001   3.930   9.038   7.254 -0.2024  0.0770  0.5258
11722SOL    HW141002   3.858   9.049   7.191 -0.6649  1.7868  1.3144
11722SOL    HW241003   3.902   8.966   7.310 -1.3158  0.7164  0.8141
11723SOL     OW41004   3.184   8.642   0.288  0.0541  0.2101 -0.2354
11723SOL    HW141005   3.257   8.660   0.346 -0.2238  1.6202 -0.2751
11723SOL    HW241006   3.202   8.694   0.209 -1.0744  0.7655 -0.1594
11724SOL     OW41007   3.283   3.821   9.157 -0.2503  0.4293 -0.8606
11724SOL    HW141008   3.368   3.860   9.135  0.4514 -0.1853  0.6025
11724SOL    HW241009   3.294   3.728   9.139 -1.2438  0.5736 -2.3820
11725SOL     OW41010   9.027   8.830   5.547  0.6009  0.2521  0.0365
11725SOL    HW141011   8.965   8.767   5.510  0.4951  0.7407 -0.6293
11725SOL    HW241012   9.018   8.908   5.492  1.6858  0.3847  0.0306
11726SOL     OW41013   1.964   2.797   6.120  0.3552  0.2651 -0.2821
11726SOL    HW141014   1.875   2.809   6.087  0.5079 -0.1409 -0.8609
11726SOL    HW241015   1.976   2.867   6.183 -0.9507 -0.6206  1.0064
11727SOL     OW41016   0.458   7.135   3.296 -0.6755  0.0557  0.1918
11727SOL    HW141017   0.548   7.105   3.287 -0.7821 -0.6643  1.3754
11727SOL    HW241018   0.458   7.223   3.257  0.1406 -0.5717 -1.3124
11728SOL     OW41019   3.250   5.698   2.155  0.4995 -0.0047  0.1161
11728SOL    HW141020   3.179   5.678   2.216  0.0561 -0.9767 -0.6767
11728SOL    HW241021   3.214   5.675   2.069  0.9892  1.6378 -0.5603
11729SOL     OW41022   3.964   7.615   6.551 -0.7791  0.1738 -0.5445
11729SOL    HW141023   3.940   7.630   6.642  2.4111 -2.5078  0.9436
11729SOL    HW241024   3.889   7.568   6.514 -0.9870 -1.4003  1.6651
11730SOL     OW41025   1.908   7.476   4.423  0.2325  0.0283 -0.2117
11730SOL    HW141026   1.816   7.461   4.402 -0.0246  1.8158 -0.4880
11730SOL    HW241027   1.948   7.497   4.338  0.9292 -0.8183 -0.1068
11731SOL     OW41028   1.706   4.555   1.025 -0.2600  0.3080  0.3975
11731SOL    HW141029   1.667   4.546   0.938 -1.4642  1.1397  0.8356
11731SOL    HW241030   1.682   4.474   1.071  1.0248 -0.4897 -0.2435
11732SOL     OW41031   3.746   9.923   7.995 -0.5061  0.3206  0.5831
11732SOL    HW141032   3.819   9.914   8.056 -1.2607 -1.7967  1.3009
11732SOL    HW241033   3.784   9.961   7.916  0.7469  1.9833  1.9230
11733SOL     OW41034   9.340   3.233   1.377 -0.0340 -0.5177 -0.2069
11733SOL    HW141035   9.289   3.227   1.296 -0.5989 -1.7364  0.2208
11733SOL    HW241036   9.398   3.308   1.362 -0.9764  0.0560 -1.2525
11734SOL     OW41037   3.671   8.953   8.100 -0.3500  0.5914  0.0675
11734SOL    HW141038   3.759   8.955   8.062  0.1428  2.3166  1.1879
11734SOL    HW241039   3.659   8.863   8.130  1.1073  0.3742  0.0315
11735SOL     OW41040   8.589   8.764   5.455  0.1884 -0.0073 -0.1565
11735SOL    HW141041   8.676   8.725   5.446  0.3178  0.3333 -0.4003
11735SOL    HW241042   8.593   8.844   5.404 -0.1855  0.1486  0.0518
11736SOL     OW41043   3.249   2.044   9.774 -0.2636 -0.3881 -0.3474
11736SOL    HW141044   3.284   2.117   9.825 -1.9471  0.8380 -0.8543
11736SOL    HW241045   3.323   2.012   9.722  0.5770  0.7231  0.1290
11737SOL     OW41046   1.480   9.591   1.448 -0.1032  0.4136  0.4413
11737SOL    HW141047   1.437   9.613   1.530  2.8287  0.8144  2.0229
11737SOL    HW241048   1.521   9.506   1.464  2.4080  1.5114  0.2909
11738SOL     OW41049   3.548   0.755   2.107 -0.1773 -0.2087  0.3576
11738SOL    HW141050   3.496   0.679   2.081  0.2634 -0.2972 -0.2997
11738SOL    HW241051   3.594   0.780   2.027 -0.1498  0.6153  0.6283
11739SOL     OW41052   1.393   4.501   5.985  0.4419 -0.1518 -0.8760
11739SOL    HW141053   1.465   4.455   5.942 -0.5856 -1.5535 -1.1573
11739SOL    HW241054   1.340   4.432   6.024 -0.6298  0.8640 -0.4844
11740SOL     OW41055   0.755   4.956   3.037 -0.1414  0.6645  0.2756
11740SOL    HW141056   0.666   4.945   3.004 -0.4257 -1.0512  1.4727
11740SOL    HW241057   0.811   4.936   2.962 -0.7733 -0.4264  0.0700
11741SOL     OW41058   8.141   7.406   3.800 -0.0940  0.4029  0.1256
11741SOL    HW141059   8.095   7.403   3.884 -1.0712 -1.8800 -0.3922
11741SOL    HW241060   8.126   7.494   3.767 -1.5841  0.6602  1.3656
11742SOL     OW41061   5.505  10.060   4.932 -0.3899  0.3038 -1.0057
11742SOL    HW141062   5.427  10.011   4.907 -0.4333  0.1438 -0.5767
11742SOL    HW241063   5.482  10.152   4.919 -1.3574  0.3902  0.9641
11743SOL     OW41064   2.199   3.408   0.774  0.2981 -0.1226  0.5223
11743SOL    HW141065   2.129   3.404   0.709 -1.6233 -2.4040  2.5273
11743SOL    HW241066   2.161   3.456   0.847  0.0291 -2.9246  2.3671
11744SOL     OW41067   6.340   2.206   4.695 -0.1947  0.0827  0.2523
11744SOL    HW141068   6.354   2.115   4.722 -2.2866 -0.9681 -1.8119
11744SOL    HW241069   6.422   2.250   4.716  1.0004 -2.3433  1.0829
11745SOL     OW41070   3.199   8.209   7.523  0.1129 -0.2465  0.1874
11745SOL    HW141071   3.292   8.214   7.503  0.1730  1.4577  0.7266
11745SOL    HW241072   3.196   8.163   7.607  0.6583  1.4890  1.1951
11746SOL     OW41073  10.681   2.693   8.719 -0.6744  0.4440 -0.5802
11746SOL    HW141074  10.681   2.751   8.795  2.7542  0.5711 -0.5092
11746SOL    HW241075  10.654   2.608   8.754  1.9789  0.1960  1.2117
11747SOL     OW41076   6.940   3.829   2.759 -0.3259 -0.7696  0.2656
11747SOL    HW141077   6.975   3.900   2.812 -0.1915  1.6756 -2.8261
11747SOL    HW241078   7.017   3.777   2.734  0.4311  1.1357 -1.6616
11748SOL     OW41079   7.966   4.946   0.538  0.4096 -0.1703  0.2828
11748SOL    HW141080   8.009   4.861   0.551  2.5704  0.8584  0.1598
11748SOL    HW241081   7.957   4.982   0.625 -0.3932 -0.4452  0.3222
11749SOL     OW41082   3.472   1.483   1.987  0.6760 -0.2171  0.3512
11749SOL    HW141083   3.530   1.524   2.052  0.4247 -2.6068  2.1971
11749SOL    HW241084   3.524   1.411   1.951 -0.0641 -0.4534 -0.2677
11750SOL     OW41085  10.447   0.839   0.066 -0.4915  0.2146 -0.2785
11750SOL    HW141086  10.449   0.744   0.052  0.2874  0.3702 -1.4026
11750SOL    HW241087  10.538   0.862   0.086  0.1028  1.1246 -3.3916
11751SOL     OW41088   5.320   3.724  10.591  0.4817  0.0049 -0.2477
11751SOL    HW141089   5.242   3.677  10.562  0.9520 -0.7635 -0.2999
11751SOL    HW241090   5.299   3.756  10.679  0.4771 -1.0848  0.1540
11752SOL     OW41091   8.842   0.137   4.624  0.4871 -0.1733  0.9983
11752SOL    HW141092   8.861   0.061   4.570 -0.4701  1.2953 -1.5935
11752SOL    HW241093   8.749   0.156   4.608  0.9523  2.1453  0.6413
11753SOL     OW41094   9.946   8.426   8.923  0.0138  0.5673  0.0355
11753SOL    HW141095  10.036   8.450   8.904  0.6026 -1.8175 -0.5879
11753SOL    HW241096   9.915   8.493   8.984  2.7859  0.5285  1.6445
11754SOL     OW41097   3.279   1.151   9.361 -0.3911 -0.4243  0.4505
11754SOL    HW141098   3.223   1.180   9.434 -1.1035 -0.6960  0.0238
11754SOL    HW241099   3.235   1.184   9.283 -0.8731 -2.0656 -0.0101
11755SOL     OW41100   3.952   7.690   3.360  0.2833 -0.0599  0.1117
11755SOL    HW141101   3.969   7.617   3.300  1.1381 -0.2324  0.5446
11755SOL    HW241102   3.915   7.758   3.304  0.0748 -0.5962 -0.4185
11756SOL     OW41103   9.261   2.395   0.147 -0.1186  0.3433  0.1918
11756SOL    HW141104   9.307   2.313   0.126  0.6862  0.8958 -0.2583
11756SOL    HW241105   9.190   2.368   0.206  0.9812 -0.4822  1.1895
11757SOL     OW41106   5.725   7.984   7.891  0.0032 -0.1871 -0.2951
11757SOL    HW141107   5.646   8.011   7.938 -0.0164 -1.8756  0.7123
11757SOL    HW241108   5.694   7.967   7.801 -0.4153  0.8408 -0.3583
11758SOL     OW41109   4.342   9.720   5.011 -0.0712  0.2214  0.4831
11758SOL    HW141110   4.430   9.687   4.996  0.0892  0.2177  1.4151
11758SOL    HW241111   4.304   9.662   5.076 -0.9842 -0.1375 -0.3438
11759SOL     OW41112   2.097   4.051   8.906 -0.1026 -0.1900  0.4184
11759SOL    HW141113   2.054   3.986   8.850  1.2252 -0.5386 -0.2294
11759SOL    HW241114   2.033   4.122   8.913 -1.6237 -1.5777  1.2253
11760SOL     OW41115   3.310   8.320   0.337 -0.0960  0.2905  0.0876
11760SOL    HW141116   3.305   8.408   0.374  0.6681  0.2554  0.2886
11760SOL    HW241117   3.372   8.273   0.394 -1.4571 -0.7622  0.7513
11761SOL     OW41118   8.176  10.841   3.358 -0.0898 -0.0336 -0.1442
11761SOL    HW141119   8.214  10.774   3.415  0.0348 -0.3741 -0.6146
11761SOL    HW241120   8.223  10.921   3.380  1.8580 -0.6900 -1.5768
11762SOL     OW41121   8.054   5.092  10.356 -0.0051 -1.0784 -0.0491
11762SOL    HW141122   8.026   5.100  10.447 -2.3996  0.6015 -0.8365
11762SOL    HW241123   8.140   5.135  10.354 -0.5702  0.1754  1.1601
11763SOL     OW41124   0.725  10.115   7.856 -0.4550 -0.1873  0.6485
11763SOL    HW141125   0.697  10.102   7.765  4.8874  0.8615 -1.5619
11763SOL    HW241126   0.716  10.029   7.897  0.5623 -1.8215 -2.2304
11764SOL     OW41127   3.504   3.886   6.253  0.7354 -0.4576  0.3554
11764SOL    HW141128   3.426   3.941   6.241  1.0398 -0.0871  0.0502
11764SOL    HW241129   3.478   3.823   6.320 -0.1154 -0.8703 -0.3291
11765SOL     OW41130   0.213   8.679   6.306 -0.4931 -0.0622  0.2193
11765SOL    HW141131   0.232   8.671   6.213 -2.0045 -0.5795 -0.0757
11765SOL    HW241132   0.230   8.771   6.327  0.5644 -0.1014 -0.3714
11766SOL     OW41133   1.820   8.256   8.181  0.2745  0.5028  0.4256
11766SOL    HW141134   1.906   8.281   8.147  0.3585  0.9769  0.9639
11766SOL    HW241135   1.807   8.313   8.256  1.0361 -1.9092  2.5293
11767SOL     OW41136  10.906   1.636   9.785 -0.0156  0.2642 -0.2560
11767SOL    HW141137  10.908   1.686   9.867 -1.3548 -0.1154  0.0378
11767SOL    HW241138  10.967   1.563   9.800 -0.8720 -0.2688  0.7383
11768SOL     OW41139   2.282   5.385   4.241 -0.2113  0.1968 -0.3873
11768SOL    HW141140   2.375   5.362   4.251  0.0751  1.8236  1.4360
11768SOL    HW241141   2.235   5.318   4.290  0.0871 -0.0566 -0.4472
11769SOL     OW41142  10.240   3.669   8.139  0.0874 -0.4603 -0.0360
11769SOL    HW141143  10.231   3.611   8.216 -1.2497 -2.1573 -1.3932
11769SOL    HW241144  10.190   3.747   8.162  1.8632  0.2371  1.8134
11770SOL     OW41145   2.827   7.486   9.561 -0.0838  0.2205 -0.0316
11770SOL    HW141146   2.869   7.435   9.630  0.9694 -0.7080 -1.2966
11770SOL    HW241147   2.810   7.422   9.491 -0.8480  1.1771 -0.7442
11771SOL     OW41148   9.158   9.404   8.300  0.3908 -0.2611  0.8874
11771SOL    HW141149   9.245   9.410   8.260  0.2168 -1.5943  0.2582
11771SOL    HW241150   9.148   9.485   8.348  0.3415  1.7933 -2.2941
11772SOL     OW41151   4.839   6.734   4.473  0.2102  0.0831  0.0914
11772SOL    HW141152   4.827   6.664   4.409  0.9108  0.2838 -0.2727
11772SOL    HW241153   4.933   6.752   4.472  0.0680  0.9121  0.2992
11773SOL     OW41154   6.568   5.309   3.016  0.0380  0.6315  0.2806
11773SOL    HW141155   6.547   5.354   3.098 -3.4685  1.1254 -0.7220
11773SOL    HW241156   6.523   5.225   3.023  2.4569 -0.7687  0.1089
11774SOL     OW41157   4.259   4.354   4.705  0.6813 -1.0975  0.2902
11774SOL    HW141158   4.280   4.361   4.612 -0.0692 -2.2518  0.0121
11774SOL    HW241159   4.200   4.428   4.721  2.5534  0.4416  0.4130
11775SOL     OW41160   6.191   2.176   6.182 -0.1546  0.3372 -0.1056
11775SOL    HW141161   6.098   2.154   6.188 -0.2798  0.7838 -0.4199
11775SOL    HW241162   6.194   2.271   6.180  0.1922  0.3197 -1.8323
11776SOL     OW41163   8.672   6.879   8.004  0.0846 -0.2085  0.5803
11776SOL    HW141164   8.588   6.839   7.984 -0.2199  1.1284 -0.9884
11776SOL    HW241165   8.658   6.926   8.086  0.1136 -2.2035  1.7962
11777SOL     OW41166   7.901   7.846   1.013 -0.0796 -0.1797 -0.1464
11777SOL    HW141167   7.899   7.932   1.056 -1.1033 -0.4485  0.3968
11777SOL    HW241168   7.873   7.864   0.923  0.3540  0.1459 -0.2204
11778SOL     OW41169   7.638   6.423   7.896  0.4812 -0.2766  0.1791
11778SOL    HW141170   7.662   6.493   7.956  1.3075 -2.0344  2.0400
11778SOL    HW241171   7.714   6.413   7.839  0.4577  0.1644  0.0684
11779SOL     OW41172   0.320   1.236   5.150  0.6710  0.5868 -0.6937
11779SOL    HW141173   0.400   1.278   5.182  0.1375  0.0093  1.5717
11779SOL    HW241174   0.322   1.148   5.187 -0.8612  0.4619 -0.8242
11780SOL     OW41175   6.051   6.066   4.085  0.0854  0.2943 -0.1985
11780SOL    HW141176   5.977   6.010   4.063 -0.6147  0.3671  1.8359
11780SOL    HW241177   6.124   6.030   4.034 -0.4069 -2.2694  0.7950
11781SOL     OW41178   4.994   6.729   6.012  0.5010  0.4592 -0.1426
11781SOL    HW141179   5.021   6.764   6.098  1.2702 -1.6450  0.5291
11781SOL    HW241180   4.973   6.638   6.029 -0.6303  0.3429 -1.9871
11782SOL     OW41181  10.556   7.357   6.179 -0.0676  0.2602  0.3771
11782SOL    HW141182  10.542   7.417   6.106  0.6383  1.4068  1.1478
11782SOL    HW241183  10.650   7.362   6.197  0.1255 -1.6099  0.0374
11783SOL     OW41184   4.218   0.884   4.856  0.5635  0.3603  0.4728
11783SOL    HW141185   4.269   0.944   4.910  1.0128 -0.4413  0.9548
11783SOL    HW241186   4.274   0.867   4.780  0.5055  0.4192  0.4167
11784SOL     OW41187   5.976   6.773   0.499  0.1194 -0.0485  0.4141
11784SOL    HW141188   6.063   6.749   0.469 -0.1784 -0.3045 -0.2709
11784SOL    HW241189   5.938   6.691   0.531  0.3964  0.2030  1.4072
11785SOL     OW41190   1.200   5.761  10.539 -0.4246 -0.3953  0.0038
11785SOL    HW141191   1.191   5.669  10.564  1.2250 -0.4859  0.3893
11785SOL    HW241192   1.212   5.807  10.621 -1.6810  0.2504 -0.1532
11786SOL     OW41193   2.981   5.185   7.156  0.1692 -0.4527 -0.2707
11786SOL    HW141194   2.924   5.244   7.204  1.2168  0.6245 -0.3155
11786SOL    HW241195   2.963   5.098   7.193  0.6949  0.2776  1.8351
11787SOL     OW41196   1.621   8.721   7.095 -0.3776 -0.1300 -0.0289
11787SOL    HW141197   1.614   8.739   7.189  1.2052 -0.6079  0.2103
11787SOL    HW241198   1.699   8.666   7.087  0.4645  1.2307 -1.7955
11788SOL     OW41199   1.385   6.716  10.621  0.6687  0.0674 -0.3428
11788SOL    HW141200   1.299   6.715  10.579 -0.1150 -3.3062  1.0125
11788SOL    HW241201   1.373   6.775  10.696 -0.1884  0.3039 -0.6450
11789SOL     OW41202   9.301   4.250   6.379 -0.3597 -0.5735  0.8622
11789SOL    HW141203   9.325   4.162   6.408 -0.2146 -1.3126 -1.3513
11789SOL    HW241204   9.228   4.236   6.318  1.0664  0.5672 -1.2331
11790SOL     OW41205   9.789   8.905   8.873 -0.0773 -0.6208 -0.6635
11790SOL    HW141206   9.728   8.870   8.808 -0.3115 -1.4513 -0.0195
11790SOL    HW241207   9.873   8.865   8.852  0.2306  0.4181 -1.4682
11791SOL     OW41208   4.321   2.060   9.341 -0.1468 -0.4032 -0.1783
11791SOL    HW141209   4.265   1.986   9.317 -0.2305 -0.8869  1.4166
11791SOL    HW241210   4.362   2.086   9.258  0.5169 -2.7516 -0.6727
11792SOL     OW41211   2.814  10.514   7.681  0.2310 -0.1649 -0.7665
11792SOL    HW141212   2.719  10.512   7.691 -0.0736  1.7797 -2.5554
11792SOL    HW241213   2.842  10.591   7.731  0.6578  0.1344 -1.4489
11793SOL     OW41214   0.764   2.158   7.666 -0.4756 -0.0595  0.0495
11793SOL    HW141215   0.813   2.100   7.608 -0.4891  2.1206 -2.3467
11793SOL    HW241216   0.830   2.215   7.705 -0.6740 -0.0896  0.4319
11794SOL     OW41217   8.551   0.680   7.738  0.1887 -0.1856 -0.1370
11794SOL    HW141218   8.527   0.695   7.647 -0.3588 -1.9302 -0.3063
11794SOL    HW241219   8.644   0.705   7.742  0.2165 -0.0698 -1.1627
11795SOL     OW41220   0.348   4.951  10.065  0.7164  0.3956 -0.7913
11795SOL    HW141221   0.388   4.879  10.114  0.1070  1.1833  0.9634
11795SOL    HW241222   0.340   5.022  10.129  0.8347  1.8679 -2.3308
11796SOL     OW41223   9.674   0.279   8.686 -0.5121  0.0424 -0.3111
11796SOL    HW141224   9.597   0.318   8.644 -1.0493 -0.0635  0.5440
11796SOL    HW241225   9.744   0.342   8.672 -1.2071  1.0196  0.4615
11797SOL     OW41226   9.752   2.966   0.689 -0.1989  0.1881  0.1746
11797SOL    HW141227   9.717   3.041   0.640  0.7606  0.7555  0.3517
11797SOL    HW241228   9.691   2.955   0.762 -0.1134  1.0520  0.3800
11798SOL     OW41229   1.252   7.187   9.954  0.4743  0.2575 -0.2789
11798SOL    HW141230   1.303   7.110   9.929  1.2951  1.1902 -1.6089
11798SOL    HW241231   1.261   7.247   9.880  0.9631  2.1715  1.2563
11799SOL     OW41232   5.445   1.059   3.991 -0.1381  0.2487  0.2171
11799SOL    HW141233   5.474   1.144   4.027  1.0322 -0.7219  1.6977
11799SOL    HW241234   5.488   1.053   3.906  2.7158 -0.3262  1.5787
11800SOL     OW41235   8.931   6.658   7.069  0.5398  0.1088 -0.6386
11800SOL    HW141236   8.915   6.679   6.977 -0.6983 -0.3313 -0.5396
11800SOL    HW241237   8.904   6.567   7.078 -2.5519  1.0333  0.8514
11801SOL     OW41238   4.496  10.802   1.070 -0.1133 -0.2116 -0.7968
11801SOL    HW141239   4.414  10.851   1.062 -0.0821 -0.1991 -1.0448
11801SOL    HW241240   4.469  10.710   1.072 -0.2792 -0.1541  1.0377
11802SOL     OW41241   2.081   8.287   8.088 -0.1287  0.3243  0.1148
11802SOL    HW141242   2.112   8.214   8.036 -1.9954  0.1622 -0.8790
11802SOL    HW241243   2.154   8.309   8.146  0.5474 -2.1831  0.3205
11803SOL     OW41244   0.256   9.708   9.260  0.0107  0.0234 -0.3624
11803SOL    HW141245   0.163   9.684   9.266 -0.1022  0.2053 -1.2278
11803SOL    HW241246   0.266   9.744   9.172  0.9176 -0.0319 -0.2941
11804SOL     OW41247   3.909   3.827   8.431 -0.0213 -0.1514  0.5999
11804SOL    HW141248   3.990   3.808   8.477  1.7225  0.0427 -2.1779
11804SOL    HW241249   3.883   3.742   8.394 -0.9855 -0.1499  1.2223
11805SOL     OW41250   6.216   8.179   6.794  0.2594 -0.1960 -0.3691
11805SOL    HW141251   6.158   8.182   6.718 -1.1081 -1.2912  0.5693
11805SOL    HW241252   6.302   8.158   6.759 -0.0329  0.7305 -1.7317
11806SOL     OW41253   6.356   7.212   1.758  0.1478 -0.0806  0.1155
11806SOL    HW141254   6.274   7.168   1.738 -0.4061  0.6691  0.6935
11806SOL    HW241255   6.413   7.193   1.683 -0.8345  0.0987 -0.6916
11807SOL     OW41256   6.580   3.782   1.224  0.4215  0.4709  0.1538
11807SOL    HW141257   6.521   3.774   1.149  0.1881 -1.4242  0.5055
11807SOL    HW241258   6.539   3.729   1.292  1.2015  1.2726  1.2754
11808SOL     OW41259   3.174   7.296   7.968 -0.1253  0.2940  0.1046
11808SOL    HW141260   3.196   7.387   7.944  0.9744  0.0932  0.2722
11808SOL    HW241261   3.161   7.298   8.062  2.8743 -0.2034  0.6403
11809SOL     OW41262   4.569  10.702   1.773  0.0222 -0.6376  0.0380
11809SOL    HW141263   4.624  10.692   1.696  0.7041 -2.8159  0.7125
11809SOL    HW241264   4.606  10.775   1.821  1.9616 -1.6321  0.1319
11810SOL     OW41265   5.009   9.638   3.749  0.6721 -0.3671  0.5321
11810SOL    HW141266   4.963   9.576   3.692 -0.2066 -0.0498  0.8711
11810SOL    HW241267   5.084   9.667   3.697  0.9728 -1.5312  0.2853
11811SOL     OW41268   7.387   8.129   2.885 -0.7285  0.4193 -0.6375
11811SOL    HW141269   7.463   8.089   2.926 -0.5930  0.1324 -1.1546
11811SOL    HW241270   7.417   8.215   2.856 -0.5531  0.2474 -0.9754
11812SOL     OW41271   9.311  10.069   4.000 -0.9264  0.7977 -0.2398
11812SOL    HW141272   9.323  10.163   3.985  1.0760  0.6046 -0.0496
11812SOL    HW241273   9.375  10.027   3.942 -1.0798 -0.4056  0.4311
11813SOL     OW41274   0.534   3.279   6.693  0.1918  0.3752 -0.5048
11813SOL    HW141275   0.444   3.247   6.685  0.5774 -0.4942 -1.7223
11813SOL    HW241276   0.586   3.219   6.639  1.3210  1.6162 -0.8671
11814SOL     OW41277   0.350   1.185   6.080 -0.3955 -0.4532 -0.4217
11814SOL    HW141278   0.270   1.202   6.130  0.0706  0.6139 -0.0142
11814SOL    HW241279   0.320   1.177   5.989 -0.7935  1.7425 -0.5273
11815SOL     OW41280   1.897   6.890   3.902 -0.2842  0.2052 -0.3324
11815SOL    HW141281   1.965   6.934   3.953  0.4530 -0.4377 -0.7501
11815SOL    HW241282   1.822   6.949   3.906  1.1685  2.3102 -2.2339
11816SOL     OW41283   8.036   9.607   3.608 -0.0298  1.0850 -0.2740
11816SOL    HW141284   8.010   9.617   3.700 -0.9787 -0.8080 -0.2899
11816SOL    HW241285   8.069   9.693   3.583 -0.7442  1.9360  1.5302
11817SOL     OW41286  10.358   7.435   8.377  0.0004  0.0311  0.2785
11817SOL    HW141287  10.291   7.369   8.397  0.1953  0.0036  0.8497
11817SOL    HW241288  10.327   7.514   8.421  1.0666 -0.3540  1.8012
11818SOL     OW41289   2.685  10.064   7.226 -0.0542 -0.5169  0.3940
11818SOL    HW141290   2.634  10.144   7.213  0.7000 -0.1223 -0.2750
11818SOL    HW241291   2.727  10.076   7.311  0.7775  0.2270 -0.1034
11819SOL     OW41292   6.347   6.461   7.005 -0.4608 -0.1270 -0.2531
11819SOL    HW141293   6.427   6.514   7.002  0.7725 -1.8705  0.4180
11819SOL    HW241294   6.308   6.481   7.090  0.2186 -0.5983  0.1721
11820SOL     OW41295   1.489   5.433   0.262  0.3241 -0.7398  0.1592
11820SOL    HW141296   1.487   5.353   0.209 -0.8624 -0.1708 -0.7068
11820SOL    HW241297   1.510   5.503   0.200  1.7811 -0.4010  0.9831
11821SOL     OW41298   6.046   8.911   9.924 -0.5705 -0.3452  0.1293
11821SOL    HW141299   6.077   8.885   9.837  2.4545  1.2443  0.6149
11821SOL    HW241300   5.967   8.963   9.906 -1.0569 -1.5676 -1.4860
11822SOL     OW41301   7.677   7.548   8.929 -0.3360 -0.2273  0.0307
11822SOL    HW141302   7.595   7.563   8.882 -1.2856 -1.6305  1.1469
11822SOL    HW241303   7.688   7.626   8.984 -0.4296  0.3729 -0.7846
11823SOL     OW41304  10.553  10.500   9.386 -0.2704 -0.1816 -0.4597
11823SOL    HW141305  10.560  10.595   9.399 -0.2743 -0.4419  2.0815
11823SOL    HW241306  10.623  10.464   9.441 -0.3590 -1.6608 -1.2810
11824SOL     OW41307  10.748   6.923   4.947  0.0619 -0.2794 -0.2969
11824SOL    HW141308  10.794   6.994   4.902  0.0772 -0.2333 -0.2084
11824SOL    HW241309  10.672   6.965   4.986 -1.5382 -0.7845 -2.6368
11825SOL     OW41310   6.538   7.327   3.185  0.5894 -0.6189  0.2342
11825SOL    HW141311   6.537   7.421   3.165  0.2125 -0.6497  0.0940
11825SOL    HW241312   6.455   7.312   3.231 -1.0383 -1.5370 -2.7830
11826SOL     OW41313   7.559   1.233   9.532 -0.6728  0.3461 -0.3432
11826SOL    HW141314   7.544   1.276   9.616 -0.9563  0.3304 -0.3822
11826SOL    HW241315   7.477   1.247   9.483 -0.7862 -0.2663 -0.3388
11827SOL     OW41316   2.094   9.739   8.145 -0.1836 -0.0802  0.2339
11827SOL    HW141317   2.004   9.717   8.169  0.3540 -1.1837  1.3820
11827SOL    HW241318   2.142   9.656   8.154  1.2747  0.8224  1.3463
11828SOL     OW41319   5.862   1.688   0.379 -0.2671  0.2582  0.0106
11828SOL    HW141320   5.862   1.649   0.292 -1.8648 -0.3935  0.2801
11828SOL    HW241321   5.942   1.654   0.420 -0.7996 -1.4725 -0.3268
11829SOL     OW41322   3.375   7.195   7.081  0.2418 -0.4759  0.1641
11829SOL    HW141323   3.359   7.199   6.986  1.7803  3.2616 -0.1280
11829SOL    HW241324   3.291   7.219   7.121  0.0441 -0.2725 -0.3636
11830SOL     OW41325  10.226   2.277   9.689  0.3739 -0.1718 -0.4947
11830SOL    HW141326  10.314   2.274   9.652  0.0303 -2.2277 -1.2909
11830SOL    HW241327  10.169   2.247   9.619 -0.6816 -1.0986  0.7119
11831SOL     OW41328   5.782   6.826   8.920  0.3206  0.1009  0.5208
11831SOL    HW141329   5.789   6.906   8.973  1.4637  0.2466  0.1735
11831SOL    HW241330   5.689   6.823   8.894  0.6781  2.8150 -1.6941
11832SOL     OW41331   7.950   3.030   5.479  0.4389  0.0982 -0.2825
11832SOL    HW141332   8.034   3.069   5.499  0.2972  0.3488 -0.1707
11832SOL    HW241333   7.899   3.100   5.438 -0.0300  0.2311  0.4805
11833SOL     OW41334   4.377   1.808   4.230  0.7287  0.3159 -0.2983
11833SOL    HW141335   4.395   1.848   4.145  0.8222 -1.6348 -1.2463
11833SOL    HW241336   4.463   1.780   4.262  0.6750  0.9112  0.3906
11834SOL     OW41337   6.480   5.182   7.036  0.5382 -0.0864 -0.0067
11834SOL    HW141338   6.454   5.163   7.126  3.0312 -0.3638  0.7544
11834SOL    HW241339   6.398   5.198   6.990 -1.0284 -2.3852  1.7178
11835SOL     OW41340   1.627   4.398   8.973  0.2057  0.0307  0.3080
11835SOL    HW141341   1.593   4.487   8.959  0.1979 -0.0751 -0.3952
11835SOL    HW241342   1.550   4.342   8.968  0.3026 -0.0811  0.0606
11836SOL     OW41343   4.639  10.586   9.434 -0.3371 -0.4790 -0.3066
11836SOL    HW141344   4.600  10.501   9.418  0.1850 -0.5918 -1.0175
11836SOL    HW241345   4.660  10.620   9.347  0.2540 -0.0087  0.0118
11837SOL     OW41346  10.077   5.609  10.031 -0.0443  0.2223  0.1919
11837SOL    HW141347   9.990   5.625   9.996 -0.4364 -0.6767  0.7365
11837SOL    HW241348  10.106   5.528   9.990  0.5337  0.5007  0.0314
11838SOL     OW41349   2.802   8.000  10.855 -0.2141  0.6943  0.9653
11838SOL    HW141350   2.883   8.013  10.806  0.3186  0.3138  1.7159
11838SOL    HW241351   2.791   8.081  10.904 -1.1118  1.3489 -0.2578
11839SOL     OW41352   5.490   7.131   7.454 -0.8457  0.3476  0.5997
11839SOL    HW141353   5.483   7.159   7.363 -1.9443  1.6924  1.0585
11839SOL    HW241354   5.463   7.040   7.454  1.2810 -0.3555 -0.7283
11840SOL     OW41355   3.446   6.672   0.080  0.2972  0.2934  0.0642
11840SOL    HW141356   3.512   6.649   0.014  0.6611  1.1190  0.1273
11840SOL    HW241357   3.493   6.727   0.142 -0.1246 -0.2229  0.8473
11841SOL     OW41358   2.822   2.107   7.397 -0.2675  0.2327 -0.2569
11841SOL    HW141359   2.789   2.121   7.485 -1.1965  0.7284 -0.6653
11841SOL    HW241360   2.842   2.013   7.393 -2.5547 -0.3181 -0.2482
11842SOL     OW41361   1.123   6.801   9.859  0.3376 -0.1930  0.7211
11842SOL    HW141362   1.085   6.883   9.827 -1.4932 -1.1204  0.3948
11842SOL    HW241363   1.130   6.813   9.954 -0.7887  0.0247  0.7910
11843SOL     OW41364   8.655   5.627   4.552 -0.6009 -0.2256  0.1261
11843SOL    HW141365   8.625   5.693   4.490  0.3771  0.2322  0.1208
11843SOL    HW241366   8.587   5.625   4.620 -0.8269  0.5046 -0.0751
11844SOL     OW41367   8.100   8.499   1.076  0.0785  0.0020  0.0015
11844SOL    HW141368   8.017   8.522   1.036  0.7308 -0.2926 -1.5803
11844SOL    HW241369   8.141   8.438   1.015  0.9858 -0.7227  1.2784
11845SOL     OW41370   7.204   1.277   5.305 -0.3533  0.3162  0.4299
11845SOL    HW141371   7.256   1.317   5.236  0.2963 -0.1397  0.6384
11845SOL    HW241372   7.115   1.276   5.271  0.0997 -0.7764 -0.8078
11846SOL     OW41373   0.520   7.731   1.940 -0.2553 -0.4381 -0.2075
11846SOL    HW141374   0.479   7.797   1.884 -2.1053 -1.4868 -0.1584
11846SOL    HW241375   0.582   7.686   1.883 -0.0871  0.3193 -0.6396
11847SOL     OW41376   9.607   6.685   1.947 -0.6141 -0.3356 -0.3841
11847SOL    HW141377   9.667   6.736   1.893 -2.1752  1.2506 -0.7331
11847SOL    HW241378   9.528   6.678   1.894 -2.0112  0.7923  1.4262
11848SOL     OW41379   7.279   8.421   6.587  0.1707  0.4770  0.2435
11848SOL    HW141380   7.354   8.400   6.642  0.0134  1.5107  0.8745
11848SOL    HW241381   7.210   8.445   6.649  0.8219  4.5364 -0.3447
11849SOL     OW41382   7.027   7.956   0.101  0.2097 -0.2030 -0.0681
11849SOL    HW141383   6.970   7.892   0.059 -1.5019  1.2106 -0.0243
11849SOL    HW241384   7.008   8.038   0.054  0.5148  0.7696  1.4570
11850SOL     OW41385  10.048  10.041   6.386  0.6084  0.0523  0.5232
11850SOL    HW141386   9.990  10.079   6.320 -0.5980 -0.6853  1.1296
11850SOL    HW241387  10.086   9.964   6.343 -0.1845 -0.4331  0.6648
11851SOL     OW41388   0.203   9.163   4.444 -0.1003 -0.2410  0.1898
11851SOL    HW141389   0.157   9.247   4.453  0.5853  0.2403 -0.6835
11851SOL    HW241390   0.140   9.105   4.403  0.4384  0.7791 -2.2095
11852SOL     OW41391   9.442   8.232   0.706  0.0573 -0.1633  0.2592
11852SOL    HW141392   9.388   8.262   0.632 -1.5890 -4.5708 -0.6480
11852SOL    HW241393   9.387   8.246   0.783 -0.4375 -0.3323 -0.0570
11853SOL     OW41394   7.694   7.009   1.677  0.2715  0.1715 -0.2871
11853SOL    HW141395   7.679   6.990   1.585  0.1112 -0.7659 -0.0787
11853SOL    HW241396   7.610   7.041   1.710  0.3152  0.4558 -0.4495
11854SOL     OW41397  10.592   2.884   7.987 -0.2935 -0.1777 -0.1376
11854SOL    HW141398  10.659   2.817   8.002 -0.4528 -1.0559 -2.8432
11854SOL    HW241399  10.545   2.854   7.909 -3.0151  1.0893  0.8710
11855SOL     OW41400   8.772   4.787   7.867  0.2330 -0.2303  0.4104
11855SOL    HW141401   8.798   4.783   7.775 -2.1245 -0.4640 -0.3098
11855SOL    HW241402   8.772   4.696   7.896 -1.4103 -0.4204 -0.1172
11856SOL     OW41403   6.097   0.863   2.494  0.0557 -0.3040  0.5383
11856SOL    HW141404   6.101   0.814   2.412 -0.0546  0.7048 -0.0863
11856SOL    HW241405   6.009   0.901   2.495  0.5514  0.8756  0.4132
11857SOL     OW41406  10.063   2.700   3.845 -0.0772  0.3133 -0.4151
11857SOL    HW141407  10.151   2.716   3.880  0.3172 -0.8394 -0.8257
11857SOL    HW241408  10.004   2.722   3.917  0.5272  1.2353 -0.1771
11858SOL     OW41409   9.757   2.890   7.924  0.1571  0.5412 -0.5370
11858SOL    HW141410   9.754   2.887   7.828 -0.5797 -0.6333 -0.4921
11858SOL    HW241411   9.671   2.859   7.952  0.2777  1.1034  0.5154
11859SOL     OW41412   1.095   5.084   4.500 -0.2988  0.6200 -0.5908
11859SOL    HW141413   1.096   5.038   4.583 -0.2934  0.0024 -0.9262
11859SOL    HW241414   1.074   5.016   4.435 -0.5221  1.1297 -1.0639
11860SOL     OW41415   2.305   1.682   7.778 -0.2130 -0.4388 -0.0447
11860SOL    HW141416   2.291   1.588   7.790 -0.2125 -0.6276 -1.4224
11860SOL    HW241417   2.400   1.692   7.772 -0.1656 -0.2359  0.8392
11861SOL     OW41418   4.193   3.926   4.631 -0.1347 -0.3447 -0.4824
11861SOL    HW141419   4.246   3.975   4.568 -1.1905  0.4035 -0.8244
11861SOL    HW241420   4.105   3.960   4.618 -0.1825  0.8597  2.3632
11862SOL     OW41421   3.262   8.754   8.818  0.3082 -0.3642 -0.2772
11862SOL    HW141422   3.263   8.667   8.860 -0.2373  0.0441  0.6125
11862SOL    HW241423   3.325   8.746   8.747  0.6497 -1.3423  0.1068
11863SOL     OW41424   5.591   4.212   3.268  0.7273 -0.0084  0.1304
11863SOL    HW141425   5.682   4.221   3.242  0.5744 -0.0346 -0.4501
11863SOL    HW241426   5.567   4.124   3.237  0.9363 -0.6221  1.6532
11864SOL     OW41427   4.500   3.681   6.239  0.4589  0.2807  0.0174
11864SOL    HW141428   4.494   3.600   6.188 -0.5783  0.3536  0.0079
11864SOL    HW241429   4.589   3.712   6.223  0.8583 -0.8247 -0.0240
11865SOL     OW41430   0.670   8.802   7.115  0.2019 -0.0721  0.4606
11865SOL    HW141431   0.633   8.752   7.042  0.9236  1.3353 -0.8911
11865SOL    HW241432   0.649   8.893   7.096  2.1575  0.5226  0.9713
11866SOL     OW41433   2.501   9.734   4.193  0.1852 -0.5015 -0.0328
11866SOL    HW141434   2.570   9.776   4.244  0.0574 -0.7414  0.3413
11866SOL    HW241435   2.515   9.765   4.104  0.8337 -0.6219  0.0247
11867SOL     OW41436   2.758   4.459   8.872  0.7419  0.1483 -0.0322
11867SOL    HW141437   2.745   4.552   8.855 -1.0302  0.2025  1.3083
11867SOL    HW241438   2.837   4.455   8.926 -0.4350  1.1771  1.8847
11868SOL     OW41439   2.683  10.199  10.004  0.0121  0.1674  0.2273
11868SOL    HW141440   2.702  10.214  10.096  0.8692 -0.5811  0.1917
11868SOL    HW241441   2.768  10.178   9.965 -0.1593  1.5360 -0.9699
11869SOL     OW41442   3.386   6.345   7.289 -0.1488 -0.7149  0.0507
11869SOL    HW141443   3.444   6.420   7.304 -0.6080 -0.2591 -0.4345
11869SOL    HW241444   3.402   6.288   7.364  0.0530 -0.0372  0.5382
11870SOL     OW41445   1.263   5.066   1.305  0.6767  0.1988 -0.2869
11870SOL    HW141446   1.299   4.979   1.291 -0.4952 -0.4429  0.4521
11870SOL    HW241447   1.339   5.123   1.318  1.4475 -0.7477 -0.6072
11871SOL     OW41448   2.123   8.088   6.189 -0.0180  0.1904 -0.5329
11871SOL    HW141449   2.205   8.065   6.146 -0.3981 -1.1063 -0.6142
11871SOL    HW241450   2.121   8.184   6.188  2.1558  0.3118  0.7758
11872SOL     OW41451   6.089   8.965   2.528  0.1081 -0.0959 -0.3448
11872SOL    HW141452   6.002   8.997   2.504  0.1558  0.4744  0.2285
11872SOL    HW241453   6.135   8.955   2.445 -0.6111 -0.7082 -0.6752
11873SOL     OW41454   2.039   4.431   4.871  0.1354 -0.3116  0.8167
11873SOL    HW141455   2.013   4.412   4.781 -1.8738  0.3991  1.2055
11873SOL    HW241456   2.034   4.346   4.915  1.3184 -0.7030  0.2646
11874SOL     OW41457   6.575   4.166   7.827  0.3184  0.2175 -0.2893
11874SOL    HW141458   6.619   4.207   7.752 -1.3031  0.1000 -1.3730
11874SOL    HW241459   6.574   4.235   7.894 -0.1995  1.1431 -1.2095
11875SOL     OW41460   4.334   0.089   2.255  0.2093 -0.0908 -0.2389
11875SOL    HW141461   4.341  -0.006   2.270 -0.4815 -0.2339 -0.7815
11875SOL    HW241462   4.410   0.110   2.201  0.6257 -0.2472  0.2756
11876SOL     OW41463   4.576   1.958   9.476 -0.1820 -0.7804  0.0668
11876SOL    HW141464   4.587   1.991   9.565 -1.1648 -0.5874  0.1362
11876SOL    HW241465   4.481   1.964   9.460 -0.0571 -1.1025 -0.8768
11877SOL     OW41466   4.052   0.186   9.286 -0.2733  0.0713 -0.4675
11877SOL    HW141467   4.058   0.281   9.286  0.6856  0.0452 -1.9229
11877SOL    HW241468   4.042   0.162   9.378  0.3276  1.5298  0.0019
11878SOL     OW41469   3.656   9.930   8.670 -0.1553  0.6418  0.1900
11878SOL    HW141470   3.691   9.881   8.596  1.0011  1.9488 -0.1793
11878SOL    HW241471   3.596   9.994   8.630 -2.3788 -0.9817  0.7380
11879SOL     OW41472   2.542   8.182   7.316  0.4691  0.5998 -0.7264
11879SOL    HW141473   2.540   8.212   7.407  1.0584 -0.0993 -0.4765
11879SOL    HW241474   2.634   8.185   7.292  0.1298  2.6680 -1.9614
11880SOL     OW41475   6.667   4.806   5.846  0.4484 -0.6672 -0.3453
11880SOL    HW141476   6.597   4.862   5.812  1.5819  0.0332 -1.6223
11880SOL    HW241477   6.656   4.810   5.941 -0.9145 -0.1538 -0.4972
11881SOL     OW41478   7.192   1.471   1.765  0.9017 -0.1414  0.5798
11881SOL    HW141479   7.278   1.436   1.741  0.2559 -2.2423  1.0969
11881SOL    HW241480   7.136   1.449   1.691  0.7212  0.9992  0.3568
11882SOL     OW41481   8.772   9.893   5.145  0.2372  0.3514  0.0154
11882SOL    HW141482   8.714   9.939   5.083  0.0403 -1.2904 -1.0711
11882SOL    HW241483   8.722   9.891   5.227 -0.2535  0.9896 -0.2518
11883SOL     OW41484   4.839   1.043   8.824  0.1512  0.0390 -0.5524
11883SOL    HW141485   4.822   1.027   8.917 -1.0471  0.2243 -0.7303
11883SOL    HW241486   4.757   1.022   8.780  0.6918  0.0038 -1.5721
11884SOL     OW41487  10.847   4.670   0.430 -0.5163 -0.7600 -0.2873
11884SOL    HW141488  10.778   4.698   0.490  0.4397 -0.7950  0.8661
11884SOL    HW241489  10.801   4.646   0.350 -1.6098  1.9495 -0.5960
11885SOL     OW41490   5.294   5.275   5.545 -0.7498  0.1266  0.5970
11885SOL    HW141491   5.234   5.280   5.620 -0.3972  2.0533  0.7918
11885SOL    HW241492   5.378   5.303   5.580 -0.2407 -0.3404 -0.2125
11886SOL     OW41493  10.813   6.732   9.539 -0.1597  0.3820 -0.2354
11886SOL    HW141494  10.782   6.645   9.565 -1.0933  0.9148  0.4856
11886SOL    HW241495  10.908   6.722   9.530 -0.3144 -0.8465 -0.7248
11887SOL     OW41496  10.800   0.276   7.107 -0.2917 -0.5243  0.2304
11887SOL    HW141497  10.832   0.204   7.161 -0.3110 -0.7192 -0.0144
11887SOL    HW241498  10.861   0.279   7.033 -1.4188 -1.5905 -0.7939
11888SOL     OW41499   2.365   4.508   4.669 -0.1253  0.6819  0.1754
11888SOL    HW141500   2.288   4.467   4.629 -0.6795  2.1863 -0.3892
11888SOL    HW241501   2.401   4.441   4.727 -1.9499 -0.0047  0.5755
11889SOL     OW41502   5.095   3.783  10.343 -0.2118  0.3051  0.0702
11889SOL    HW141503   5.139   3.724  10.405  0.7749  1.3684  0.4118
11889SOL    HW241504   5.122   3.751  10.257 -2.2412 -1.6953  0.0717
11890SOL     OW41505   7.978   6.007   4.534  0.1605  1.1190 -0.0750
11890SOL    HW141506   8.024   5.992   4.451  0.3710 -1.1445  0.3869
11890SOL    HW241507   8.035   6.066   4.582  2.6973 -1.5047  0.4350
11891SOL     OW41508   6.122   1.623   2.192 -0.1853 -0.4250 -0.2000
11891SOL    HW141509   6.028   1.638   2.204  0.0798  0.4539  1.0222
11891SOL    HW241510   6.162   1.653   2.274  1.2568  0.1944 -1.0835
11892SOL     OW41511   5.206   6.706   0.941  0.4128 -0.5487 -0.1930
11892SOL    HW141512   5.275   6.671   0.997 -0.5118 -0.2839  1.1395
11892SOL    HW241513   5.174   6.784   0.986 -0.6629 -0.5782 -0.8526
11893SOL     OW41514   4.455   0.654   5.927 -0.3386 -0.5784  0.4726
11893SOL    HW141515   4.432   0.619   5.842 -1.3443 -0.4442  0.6804
11893SOL    HW241516   4.377   0.702   5.956  0.1866 -0.1431  1.2141
11894SOL     OW41517   4.417   8.791   0.726  0.1897 -0.3467  0.5126
11894SOL    HW141518   4.424   8.849   0.801  0.4623 -1.1175  1.1010
11894SOL    HW241519   4.476   8.828   0.661  0.2864  0.0844  0.8461
11895SOL     OW41520   6.812   0.502   7.444  0.2185  0.7707 -0.0612
11895SOL    HW141521   6.717   0.505   7.433  0.1782  1.1463  0.3906
11895SOL    HW241522   6.846   0.508   7.354 -0.1627  1.6555 -0.1558
11896SOL     OW41523   1.741   0.431  10.450 -0.2841  0.2433  0.4129
11896SOL    HW141524   1.646   0.448  10.451 -0.0876  2.3088 -2.5900
11896SOL    HW241525   1.760   0.413  10.358  2.1167 -1.4485  1.1542
11897SOL     OW41526   9.950   1.117  10.360  0.6253  0.9249 -0.1341
11897SOL    HW141527  10.007   1.186  10.393  0.6451  0.3150  1.1954
11897SOL    HW241528   9.985   1.036  10.399 -0.6167  0.4369  0.0296
11898SOL     OW41529   0.730   7.236   3.000  0.4314  1.1546 -0.3686
11898SOL    HW141530   0.807   7.196   3.040 -0.5297  1.1478  1.5894
11898SOL    HW241531   0.766   7.301   2.939  1.9711  0.2465 -0.4778
11899SOL     OW41532   5.890   2.440   7.117  0.0200  0.1922  0.5206
11899SOL    HW141533   5.957   2.452   7.184 -0.3505  1.8110  0.6293
11899SOL    HW241534   5.807   2.444   7.164 -0.2180  0.4181  0.0871
11900SOL     OW41535   0.187   3.637   3.199 -0.1698 -0.2027  0.0318
11900SOL    HW141536   0.155   3.705   3.141  0.7786 -0.2854 -0.6083
11900SOL    HW241537   0.271   3.611   3.162 -0.1537 -1.1744  0.7043
11901SOL     OW41538   6.783   1.528   1.774  0.3142  0.0377  0.5760
11901SOL    HW141539   6.838   1.594   1.732 -0.7395 -1.4088 -3.4696
11901SOL    HW241540   6.841   1.453   1.786  0.1671 -0.1871 -0.0971
11902SOL     OW41541   7.417   8.894   6.621 -1.0352 -0.4474 -0.4520
11902SOL    HW141542   7.464   8.860   6.545 -0.2952 -0.3311 -0.0584
11902SOL    HW241543   7.332   8.852   6.617 -1.0969 -0.2637 -1.4783
11903SOL     OW41544   5.616   3.779   9.968 -0.6543  0.7738  0.0935
11903SOL    HW141545   5.619   3.874   9.956  1.4604  0.8008  0.3296
11903SOL    HW241546   5.619   3.767  10.063  0.3582  0.4818  0.0345
11904SOL     OW41547   6.816   2.958  10.522  0.4158 -0.1743 -0.4454
11904SOL    HW141548   6.788   2.995  10.606 -0.8968 -2.2942  0.1293
11904SOL    HW241549   6.737   2.964  10.467  0.0884 -2.1748 -0.2671
11905SOL     OW41550   3.320   3.365   6.585 -0.0516  0.4319 -0.0213
11905SOL    HW141551   3.237   3.407   6.563  0.3663  1.3996  0.2206
11905SOL    HW241552   3.298   3.304   6.656 -0.9355 -0.8795 -1.3390
11906SOL     OW41553   4.062   4.575   0.043 -0.0053 -0.1540  0.2222
11906SOL    HW141554   4.103   4.650  -0.001 -0.3650 -0.7571 -1.2174
11906SOL    HW241555   4.047   4.512  -0.028 -0.5181 -1.2278  1.2591
11907SOL     OW41556   2.187   2.948   8.304  0.3541  0.1698 -0.4158
11907SOL    HW141557   2.150   2.941   8.392  1.6018  0.9769  0.2075
11907SOL    HW241558   2.137   3.017   8.261  0.0553  0.1055 -0.1702
11908SOL     OW41559   4.782   7.500   9.040  0.0254 -0.6132 -0.7304
11908SOL    HW141560   4.769   7.552   9.119  3.0530 -2.7112  1.3939
11908SOL    HW241561   4.762   7.410   9.067 -0.8304 -1.1575 -2.9780
11909SOL     OW41562   6.672   5.578   8.812  0.1885  0.2198  0.2991
11909SOL    HW141563   6.714   5.492   8.816  0.2275  0.2305  0.0995
11909SOL    HW241564   6.742   5.640   8.830  0.1387  0.2046  0.5483
11910SOL     OW41565   4.548   6.116   8.106 -0.0522 -0.1001 -0.1581
11910SOL    HW141566   4.637   6.152   8.104  0.5861 -1.5324 -3.1446
11910SOL    HW241567   4.555   6.039   8.161 -0.0836  1.1264  1.6282
11911SOL     OW41568   4.339   3.562   6.824  0.0632  0.2312 -0.5882
11911SOL    HW141569   4.287   3.496   6.778  1.1862 -0.6368 -0.6522
11911SOL    HW241570   4.355   3.524   6.911 -0.9651  1.3028  0.0988
11912SOL     OW41571   4.683   0.580   2.976 -0.5668  0.1253 -0.3074
11912SOL    HW141572   4.716   0.626   3.053  0.1108 -2.3605  0.9974
11912SOL    HW241573   4.588   0.579   2.987 -0.4068 -1.5534  1.4173
11913SOL     OW41574   5.019  10.440   6.964  0.0291 -0.0760  0.0547
11913SOL    HW141575   5.021  10.379   7.038 -2.9112 -0.8475 -0.3815
11913SOL    HW241576   5.047  10.524   7.001 -1.0232 -0.5203  1.9910
11914SOL     OW41577   9.359   5.141  10.807 -0.2904  0.1137  0.1678
11914SOL    HW141578   9.374   5.053  10.841 -1.2284 -0.3682 -0.6032
11914SOL    HW241579   9.442   5.186  10.819  0.5288 -1.2007 -0.3391
11915SOL     OW41580   5.320   0.871   6.672 -0.5496  0.3677 -0.5185
11915SOL    HW141581   5.399   0.897   6.720  0.5539 -2.1307 -0.7964
11915SOL    HW241582   5.303   0.944   6.613  0.8787  1.4685  0.3405
11916SOL     OW41583   6.771   4.845   8.908 -0.4379 -0.2373  0.1142
11916SOL    HW141584   6.685   4.825   8.946 -0.6948 -0.0690 -0.3679
11916SOL    HW241585   6.751   4.898   8.831  0.0524 -0.8013 -0.4129
11917SOL     OW41586   8.434   8.041   4.489  0.3454 -0.2055  0.7507
11917SOL    HW141587   8.467   8.096   4.560 -1.5558  0.2920  1.3076
11917SOL    HW241588   8.421   7.955   4.528  1.3037 -0.5141  0.4254
11918SOL     OW41589   8.196   4.643   1.391 -0.0375 -0.7188  0.5927
11918SOL    HW141590   8.208   4.731   1.425  0.7369 -0.9723  0.9946
11918SOL    HW241591   8.166   4.655   1.301  1.1936 -0.0509  0.2594
11919SOL     OW41592   2.554   0.859   6.626  0.1131 -0.0489 -0.2666
11919SOL    HW141593   2.498   0.933   6.603  1.4672  0.9702 -0.3717
11919SOL    HW241594   2.627   0.897   6.674  0.7725 -1.3337 -0.1925
11920SOL     OW41595   0.883   7.208   8.760  0.3447  0.1541  0.1668
11920SOL    HW141596   0.834   7.289   8.768  0.3766  0.2036 -0.1410
11920SOL    HW241597   0.846   7.165   8.683 -1.3127 -1.2413  1.6376
11921SOL     OW41598   7.324   3.384   3.740  0.2619  0.4168  0.1061
11921SOL    HW141599   7.353   3.436   3.814  0.6391 -0.2751  0.4607
11921SOL    HW241600   7.294   3.447   3.675 -1.0742  1.0075  1.2548
11922SOL     OW41601   4.303   6.139   3.062 -0.1276  0.2068 -0.3105
11922SOL    HW141602   4.312   6.213   3.122 -1.7738 -0.0700  0.3046
11922SOL    HW241603   4.271   6.067   3.116  2.4257 -1.3273 -0.6669
11923SOL     OW41604   2.489   5.062   2.473  0.4486 -0.2727 -0.0478
11923SOL    HW141605   2.509   5.084   2.382  1.6833 -1.8774 -0.2277
11923SOL    HW241606   2.409   5.009   2.468  1.1676 -1.3754 -0.3785
11924SOL     OW41607   2.947   9.305   5.077  0.3071 -0.4035  0.1201
11924SOL    HW141608   2.893   9.239   5.121 -0.8935  0.6219  0.2531
11924SOL    HW241609   3.009   9.254   5.025 -1.1098 -1.6503 -0.4371
11925SOL     OW41610   9.669   5.507   5.589 -0.4705  0.0986 -0.1619
11925SOL    HW141611   9.607   5.574   5.560 -0.8655 -0.1769  0.0315
11925SOL    HW241612   9.668   5.442   5.520  1.1052  1.0311 -1.1165
11926SOL     OW41613   6.688   4.452   5.322  0.5777 -0.0073  0.2270
11926SOL    HW141614   6.767   4.398   5.336  0.7517 -0.1759 -1.2019
11926SOL    HW241615   6.714   4.513   5.252 -0.2760  0.5463  0.3910
11927SOL     OW41616   5.383   2.664   9.346 -0.1813 -0.1508  0.0010
11927SOL    HW141617   5.352   2.586   9.299 -0.5086  0.3640 -0.6677
11927SOL    HW241618   5.364   2.647   9.438 -1.0393 -0.5118 -0.2327
11928SOL     OW41619   1.219   6.763   7.087 -0.1372 -0.2312  0.1728
11928SOL    HW141620   1.216   6.677   7.130 -0.0702 -0.1694  0.3038
11928SOL    HW241621   1.275   6.816   7.144 -2.0664  0.6201  1.3926
11929SOL     OW41622   0.519   3.196   9.483 -0.0768  0.5354 -0.1442
11929SOL    HW141623   0.532   3.110   9.444  0.8121  0.6723 -0.1777
11929SOL    HW241624   0.602   3.215   9.528 -0.6766  0.8675  0.8591
11930SOL     OW41625   6.403   8.659   9.547  0.4541 -0.1121  0.1941
11930SOL    HW141626   6.398   8.726   9.479 -1.7442 -0.3742  0.0089
11930SOL    HW241627   6.351   8.586   9.512 -0.0999 -0.5397  1.8190
11931SOL     OW41628   6.386   2.837   3.381 -0.4220 -0.7206  0.3094
11931SOL    HW141629   6.345   2.792   3.307  0.9272 -0.9760 -0.3017
11931SOL    HW241630   6.336   2.807   3.457 -2.9172  0.7978 -0.5998
11932SOL     OW41631   2.676   4.658   6.836 -0.2384  0.5938 -0.1296
11932SOL    HW141632   2.674   4.616   6.923  2.0773  2.3483  0.8678
11932SOL    HW241633   2.743   4.611   6.788 -0.6788  0.4052 -0.5731
11933SOL     OW41634   7.222   7.761   3.699  0.6583 -0.1167 -0.7394
11933SOL    HW141635   7.248   7.684   3.751  3.3467  0.5480 -0.9370
11933SOL    HW241636   7.135   7.784   3.732  1.5431 -0.6891  2.3854
11934SOL     OW41637   7.086   8.635   4.669 -0.0043 -0.0087 -0.3909
11934SOL    HW141638   7.152   8.615   4.603  0.8078 -0.0326  0.3979
11934SOL    HW241639   7.009   8.664   4.620  0.4613 -0.3747 -1.3425
11935SOL     OW41640  10.554   2.086   9.539 -0.0607  0.2630 -0.5302
11935SOL    HW141641  10.531   2.132   9.458 -3.8325 -1.3728 -0.5980
11935SOL    HW241642  10.532   2.146   9.609 -0.0047  0.4520 -0.6746
11936SOL     OW41643   1.154   1.362   4.820  0.0941 -0.1730 -0.2363
11936SOL    HW141644   1.156   1.458   4.822  3.3353  0.0808 -3.9888
11936SOL    HW241645   1.073   1.342   4.773 -0.6178  0.6724  0.5804
11937SOL     OW41646   9.730   0.845   9.780  0.1643  0.3185  0.1207
11937SOL    HW141647   9.686   0.804   9.706  0.7971 -0.7751  0.3297
11937SOL    HW241648   9.781   0.775   9.820  2.8109  1.6680 -0.6200
11938SOL     OW41649   7.798   4.866   0.264  0.0285  0.2427  0.1009
11938SOL    HW141650   7.803   4.771   0.261  0.4687  0.2824 -0.6519
11938SOL    HW241651   7.828   4.889   0.352 -0.1171 -0.3129  0.2975
11939SOL     OW41652  10.091   4.188   7.312 -0.0291  0.3046 -0.2902
11939SOL    HW141653  10.102   4.278   7.283  1.0254  1.1829  2.5458
11939SOL    HW241654  10.000   4.183   7.340 -0.6419 -0.1412 -2.1870
11940SOL     OW41655   7.902   3.927   3.105 -0.2438 -0.0389 -0.1173
11940SOL    HW141656   7.882   3.945   3.197  1.0884  0.8613  0.0233
11940SOL    HW241657   7.996   3.909   3.104 -0.1991  0.1884 -1.3415
11941SOL     OW41658   7.311   3.952   4.360 -0.0151 -1.1097 -0.4118
11941SOL    HW141659   7.255   3.879   4.387  1.0867 -1.5298  0.8626
11941SOL    HW241660   7.307   3.951   4.264 -1.3570 -1.7565 -0.3809
11942SOL     OW41661  10.056   5.381   5.571 -0.4525  0.5513 -0.1418
11942SOL    HW141662  10.094   5.468   5.582  1.8493 -0.3505 -0.3000
11942SOL    HW241663  10.047   5.370   5.476  0.8094  0.0492 -0.2240
11943SOL     OW41664   1.253   9.940   8.697  0.6218 -0.2308  0.4343
11943SOL    HW141665   1.340   9.976   8.680  1.0088 -1.4982 -0.3648
11943SOL    HW241666   1.196  10.017   8.701  1.6520  0.5676  0.1990
11944SOL     OW41667   4.274   5.322   4.213  0.0840 -0.1485  0.4098
11944SOL    HW141668   4.310   5.277   4.290 -0.8670 -1.1066  0.3223
11944SOL    HW241669   4.186   5.286   4.203 -0.8927  2.0204  0.5437
11945SOL     OW41670   2.051   4.819   8.290  0.1363  0.2484 -0.3343
11945SOL    HW141671   2.000   4.853   8.363  4.0292  1.4643  2.1565
11945SOL    HW241672   2.047   4.724   8.300 -0.5974  0.3554  0.5412
11946SOL     OW41673   5.280   9.450   5.776 -0.2717  0.3092  0.0793
11946SOL    HW141674   5.351   9.505   5.743 -0.4335 -0.1438 -1.0866
11946SOL    HW241675   5.273   9.379   5.712 -1.3417 -0.0061  0.5184
11947SOL     OW41676   5.423   2.487   5.054 -0.2992 -0.2494 -0.2169
11947SOL    HW141677   5.464   2.566   5.091  1.2595 -0.8642 -0.5451
11947SOL    HW241678   5.399   2.435   5.131 -3.3074  1.4019  0.1002
11948SOL     OW41679   6.361   3.054   8.479  0.3692 -0.6096  0.0933
11948SOL    HW141680   6.361   3.148   8.497 -0.9257 -0.9222  2.0131
11948SOL    HW241681   6.427   3.043   8.411  0.1073  1.7599 -0.6281
11949SOL     OW41682   3.370   1.960   0.069 -0.0180  0.1668  0.1197
11949SOL    HW141683   3.390   1.989  -0.020  0.5901  1.4356  0.6503
11949SOL    HW241684   3.412   1.874   0.077 -2.1544 -1.1598 -1.6014
11950SOL     OW41685   0.457   2.271   1.181 -0.4096  0.2969  0.3168
11950SOL    HW141686   0.537   2.285   1.232 -0.3834  0.6332  0.1857
11950SOL    HW241687   0.487   2.254   1.092 -0.3998 -1.4726  0.6237
11951SOL     OW41688   1.790   5.729   5.150  0.3689 -0.1798 -0.3714
11951SOL    HW141689   1.718   5.675   5.182  0.5967 -1.0015 -1.2189
11951SOL    HW241690   1.857   5.723   5.218 -0.6251  1.2137  0.7976
11952SOL     OW41691   6.435   3.240   2.475  0.2272 -0.3628 -0.7870
11952SOL    HW141692   6.384   3.175   2.523  0.4999 -0.9015 -1.2202
11952SOL    HW241693   6.446   3.312   2.538 -1.8629  0.2004 -0.9752
11953SOL     OW41694   4.787   5.115   6.044  0.1515 -0.0724 -0.2168
11953SOL    HW141695   4.872   5.081   6.070  0.0743  0.0357  0.1874
11953SOL    HW241696   4.742   5.040   6.005  0.4241 -0.1325 -0.4159
11954SOL     OW41697   0.351   5.349   6.562 -0.4393 -0.2740 -0.2686
11954SOL    HW141698   0.387   5.273   6.607  2.8384  0.0409 -2.0369
11954SOL    HW241699   0.281   5.314   6.507 -1.6001 -1.2937  1.7252
11955SOL     OW41700  10.362   3.417   4.854  0.2308 -0.3468  0.1603
11955SOL    HW141701  10.390   3.380   4.770  1.3773 -1.0255  0.8088
11955SOL    HW241702  10.432   3.392   4.915 -1.1907 -0.9906  1.5999
11956SOL     OW41703   2.297   0.481   4.623  0.1397  0.2088  0.2435
11956SOL    HW141704   2.206   0.487   4.652 -0.2663 -0.8633 -0.7508
11956SOL    HW241705   2.328   0.571   4.623 -0.8835  0.5760  0.6984
11957SOL     OW41706   0.507   4.821   2.605  0.3397  0.1076 -0.0469
11957SOL    HW141707   0.452   4.743   2.596  0.1013  0.2031  0.5289
11957SOL    HW241708   0.463   4.888   2.553  0.3134 -0.0233 -0.1943
11958SOL     OW41709   9.959  10.601   7.802 -0.7309  0.4055 -0.0273
11958SOL    HW141710   9.901  10.674   7.824 -0.5228  0.6814 -0.3851
11958SOL    HW241711  10.035  10.612   7.858 -2.1421 -1.4934  2.4789
11959SOL     OW41712   6.875   5.641   5.190 -0.2740 -0.2918  0.3952
11959SOL    HW141713   6.836   5.701   5.126  0.3994  0.4854  0.6882
11959SOL    HW241714   6.804   5.622   5.251 -1.2417 -1.9127 -1.1549
11960SOL     OW41715   2.790   7.406   6.905 -0.3400  0.0140  0.0389
11960SOL    HW141716   2.873   7.359   6.902  0.2560  0.8226  1.9675
11960SOL    HW241717   2.725   7.340   6.881  0.7977 -0.7669 -1.0088
11961SOL     OW41718   5.250   2.359   7.722  0.5723 -0.1497 -0.4909
11961SOL    HW141719   5.221   2.420   7.790  0.1811 -0.0990 -0.6991
11961SOL    HW241720   5.262   2.414   7.644  2.1500 -0.0017 -0.1825
11962SOL     OW41721   3.185   3.371  10.908 -0.3077  0.0100 -0.3090
11962SOL    HW141722   3.242   3.370  10.984 -0.1167  1.1665 -0.4242
11962SOL    HW241723   3.233   3.323  10.841 -0.2025 -0.4600  0.1022
11963SOL     OW41724   6.723   4.045   4.631  0.0400  0.1669  0.0143
11963SOL    HW141725   6.709   3.993   4.710 -0.6217 -0.5446 -0.5600
11963SOL    HW241726   6.757   4.129   4.663  1.8821 -0.8560  0.9143
11964SOL     OW41727  10.172   9.225   8.425 -0.9056 -1.0552  0.2352
11964SOL    HW141728  10.251   9.203   8.375 -1.0472 -2.2024  0.4775
11964SOL    HW241729  10.146   9.142   8.466 -1.4171 -0.3856  1.3227
11965SOL     OW41730   9.922   1.824   4.041  0.3158  0.3224 -0.1029
11965SOL    HW141731   9.941   1.841   4.134 -1.7173  0.9503  0.2346
11965SOL    HW241732   9.835   1.860   4.027 -0.1293 -1.2919 -1.8488
11966SOL     OW41733   3.352   3.333   4.093 -0.5501 -0.3300  0.4638
11966SOL    HW141734   3.422   3.268   4.086 -1.8142 -1.6890  0.2058
11966SOL    HW241735   3.375   3.400   4.028 -0.3105 -1.5455 -0.7449
11967SOL     OW41736   4.939   2.844   3.659 -0.3957  0.0794  0.2298
11967SOL    HW141737   4.863   2.800   3.621 -0.2755 -0.2442  0.3667
11967SOL    HW241738   4.909   2.874   3.745 -0.5625  0.5147  0.0276
11968SOL     OW41739   2.914   2.458   4.205  0.3625 -0.1349 -0.1220
11968SOL    HW141740   2.982   2.445   4.140  0.1813  0.3371 -0.4114
11968SOL    HW241741   2.896   2.552   4.203  0.8499 -0.0006  1.1148
11969SOL     OW41742   0.876   4.177   3.709  0.3572  0.1186  0.0415
11969SOL    HW141743   0.939   4.121   3.755  0.3976 -1.2957 -1.6143
11969SOL    HW241744   0.929   4.227   3.647  0.0041 -0.2088 -0.5361
11970SOL     OW41745   4.651   4.462   7.507  0.2040  0.4343  0.5406
11970SOL    HW141746   4.745   4.470   7.520  0.1215  0.4697  1.1897
11970SOL    HW241747   4.617   4.441   7.594 -0.5242  1.6738  0.5820
11971SOL     OW41748   8.422   8.979   4.997  0.1999 -0.4708  0.2704
11971SOL    HW141749   8.473   9.029   4.933  0.1255 -2.0552 -1.1110
11971SOL    HW241750   8.467   8.993   5.080  0.7569  1.0296 -0.2538
11972SOL     OW41751   9.598   2.732   2.660  0.2341  0.0821 -0.5377
11972SOL    HW141752   9.549   2.814   2.657 -0.8123 -0.5512 -1.8782
11972SOL    HW241753   9.546   2.672   2.607  1.2752 -1.2921 -0.0417
11973SOL     OW41754   2.492   6.040   7.750  0.3579 -0.0851  0.3747
11973SOL    HW141755   2.541   6.099   7.808  0.7229 -0.7054  0.7132
11973SOL    HW241756   2.517   6.067   7.662  0.5511  0.2382  0.5243
11974SOL     OW41757   6.077   1.126   9.735  0.0701 -0.1027 -0.1968
11974SOL    HW141758   6.106   1.217   9.727  2.7902 -0.8252  0.3412
11974SOL    HW241759   6.125   1.079   9.666 -1.6336 -1.1031 -0.7721
11975SOL     OW41760   7.856   9.344   4.343 -0.1178  0.0053 -0.1406
11975SOL    HW141761   7.843   9.305   4.429 -1.2441 -2.0563 -1.1434
11975SOL    HW241762   7.949   9.332   4.325  0.0182 -0.0274  0.5679
11976SOL     OW41763   8.540   6.737   1.045  0.0119  0.1054  0.1539
11976SOL    HW141764   8.552   6.644   1.062  2.0098 -0.1516 -2.1061
11976SOL    HW241765   8.617   6.779   1.083 -1.0208  0.9290  1.4308
11977SOL     OW41766   2.947   8.522   6.279 -0.1515  0.0841 -0.0644
11977SOL    HW141767   3.040   8.501   6.280 -0.3207 -0.6784  0.3890
11977SOL    HW241768   2.933   8.576   6.356  0.2851  1.9232 -1.2311
11978SOL     OW41769  10.469   6.807   0.051  0.0425 -0.2009 -0.0337
11978SOL    HW141770  10.524   6.761   0.115 -1.0625 -1.4199  0.0929
11978SOL    HW241771  10.474   6.899   0.077 -0.5427 -0.6834  1.9797
11979SOL     OW41772   6.070   6.317   1.299  0.5738 -0.0359 -0.6598
11979SOL    HW141773   6.039   6.304   1.389  1.7079  0.9001 -0.1027
11979SOL    HW241774   6.009   6.267   1.245  1.2908 -2.6905  0.8088
11980SOL     OW41775   5.922   5.344   2.889  0.3149  0.3715  0.7288
11980SOL    HW141776   5.899   5.294   2.811  0.6351  1.9983 -0.4699
11980SOL    HW241777   5.850   5.327   2.950 -0.9127  0.4882 -0.6126
11981SOL     OW41778   9.786   4.967   9.254  0.0014  0.3762 -0.2325
11981SOL    HW141779   9.773   5.030   9.183 -0.1132  0.9537  0.2811
11981SOL    HW241780   9.698   4.938   9.277  0.1726 -2.1482 -2.3143
11982SOL     OW41781   3.470  10.489   1.092  0.1338  0.8693 -0.1389
11982SOL    HW141782   3.386  10.517   1.059  0.6654  0.9077 -1.5099
11982SOL    HW241783   3.511  10.568   1.127  0.0365  1.0535 -0.4468
11983SOL     OW41784   3.842   6.979   3.138  0.6602  0.3562  0.5876
11983SOL    HW141785   3.782   6.992   3.211 -1.2187 -0.0379 -0.8205
11983SOL    HW241786   3.899   6.908   3.167 -0.3025 -0.0607  1.5261
11984SOL     OW41787   5.325  10.596  10.477 -0.0062 -0.1298 -0.0871
11984SOL    HW141788   5.231  10.604  10.457  0.1808 -0.4840 -1.1501
11984SOL    HW241789   5.365  10.673  10.437  0.2970 -0.5692 -0.6625
11985SOL     OW41790   1.536   7.011   6.589  0.0359 -0.2874  0.8146
11985SOL    HW141791   1.574   7.056   6.665 -0.3797  2.0096 -0.2460
11985SOL    HW241792   1.610   6.972   6.544  0.5281  0.0360  1.3340
11986SOL     OW41793   8.557   4.228   5.298  0.0120 -0.0417  0.2479
11986SOL    HW141794   8.499   4.304   5.302 -0.3338 -0.3157  0.4990
11986SOL    HW241795   8.542   4.191   5.211  0.0590  0.0853  0.1861
11987SOL     OW41796   7.447   7.244   1.187 -0.4633 -0.3167 -0.4679
11987SOL    HW141797   7.509   7.252   1.115  0.7387  1.2428  0.6776
11987SOL    HW241798   7.370   7.293   1.158 -0.7041 -1.1826 -1.3686
11988SOL     OW41799  10.828   7.144   4.811 -0.4380  0.6906 -0.0181
11988SOL    HW141800  10.884   7.202   4.759  0.8624  0.8081  1.4758
11988SOL    HW241801  10.786   7.202   4.875  0.1509  0.1420  0.8802
11989SOL     OW41802   0.412   3.090   4.595  0.2407 -0.8831 -0.1525
11989SOL    HW141803   0.477   3.037   4.550  0.0959 -3.0502  1.9828
11989SOL    HW241804   0.426   3.071   4.688 -2.3939 -0.1858  0.4685
11990SOL     OW41805   1.947   3.660   0.202 -0.3331  0.0284  0.1296
11990SOL    HW141806   1.948   3.641   0.108 -0.7241  1.1982 -0.1255
11990SOL    HW241807   1.884   3.598   0.238 -0.6811  0.0211 -0.4795
11991SOL     OW41808   6.736   9.347   4.014  0.2073  0.2613  0.1044
11991SOL    HW141809   6.758   9.438   3.993 -0.5815  1.2551  2.9746
11991SOL    HW241810   6.722   9.348   4.109 -1.9560 -2.4104 -0.0613
11992SOL     OW41811   9.370   4.627   4.462  0.5153  0.2916  0.2835
11992SOL    HW141812   9.332   4.678   4.390 -1.2232  1.2036  1.7862
11992SOL    HW241813   9.301   4.568   4.490  1.1978 -0.1163  1.1691
11993SOL     OW41814   0.670  10.606   6.490  0.5821  0.1508  0.1792
11993SOL    HW141815   0.721  10.558   6.555 -1.4304 -1.2608  0.7897
11993SOL    HW241816   0.611  10.541   6.453 -0.0460  1.4871 -1.2856
11994SOL     OW41817   1.806   3.296   5.312  0.3186 -0.4858 -0.2487
11994SOL    HW141818   1.849   3.378   5.335 -0.8865  0.6201 -1.7368
11994SOL    HW241819   1.855   3.264   5.237 -0.4368 -0.0284 -0.9621
11995SOL     OW41820  10.275   0.154  10.753 -0.0986 -0.9310  0.2820
11995SOL    HW141821  10.300   0.246  10.755 -2.8239 -0.0848 -0.1933
11995SOL    HW241822  10.358   0.106  10.752  1.4147  1.4315  2.0626
11996SOL     OW41823   1.840   3.503   3.080  0.3726 -0.1979 -0.6578
11996SOL    HW141824   1.767   3.523   3.140  0.7279 -2.5002  0.6795
11996SOL    HW241825   1.809   3.427   3.030  0.4949  1.0568 -2.7697
11997SOL     OW41826   3.928  10.709   1.867  0.2996  0.2012 -0.0015
11997SOL    HW141827   3.840  10.744   1.857  0.4273  0.2961 -0.8595
11997SOL    HW241828   3.963  10.754   1.945  0.0960  1.2274 -0.4893
11998SOL     OW41829   3.571   1.018  10.507  0.0880 -0.0141 -0.0962
11998SOL    HW141830   3.543   1.078  10.576 -1.3812 -0.9780  0.1933
11998SOL    HW241831   3.643   1.063  10.464  0.4662  0.9839  1.5093
11999SOL     OW41832   7.954   0.590   5.516  0.3762 -0.0590 -0.1603
11999SOL    HW141833   8.030   0.619   5.566  1.2724  2.0634 -2.5049
11999SOL    HW241834   7.885   0.652   5.540  0.2569 -0.1971 -0.1515
12000SOL     OW41835   5.962   5.818   7.052 -0.2818  0.1552  0.0516
12000SOL    HW141836   6.007   5.734   7.055 -0.2108  0.1507 -0.9544
12000SOL    HW241837   5.944   5.838   7.144 -1.2818 -1.4731  0.2453
12001SOL     OW41838   1.030   1.892   0.934 -0.0223  0.4622 -0.7249
12001SOL    HW141839   1.050   1.799   0.918  2.0201  1.0035 -1.7341
12001SOL    HW241840   1.060   1.907   1.023 -1.0743 -0.0182 -0.2841
12002SOL     OW41841   4.068   6.474   2.632 -0.2652 -0.2361  0.2231
12002SOL    HW141842   4.013   6.489   2.555  0.6171 -0.3361 -0.4352
12002SOL    HW241843   4.031   6.396   2.674 -0.3735 -0.5444 -0.4462
12003SOL     OW41844   5.263   3.930   8.461  0.1079 -0.4370  0.0341
12003SOL    HW141845   5.314   3.951   8.383  0.6834 -1.4802  0.1150
12003SOL    HW241846   5.219   4.012   8.483  2.1113  0.6260  0.2408
12004SOL     OW41847   8.358   2.949   9.088  0.0938 -0.1856  0.0490
12004SOL    HW141848   8.425   3.005   9.048 -0.0724 -0.3383 -0.4511
12004SOL    HW241849   8.380   2.861   9.058  0.7073 -0.4909  1.3129
12005SOL     OW41850   0.913   9.049   3.122 -0.1875 -0.3764 -0.5633
12005SOL    HW141851   0.890   8.956   3.120  1.0066 -0.7407 -4.0629
12005SOL    HW241852   1.007   9.051   3.103  0.3042  1.5140  1.6418
12006SOL     OW41853   5.369   5.862   7.729 -0.0570  0.0892 -0.0507
12006SOL    HW141854   5.352   5.821   7.814  0.5971 -0.7306 -0.2968
12006SOL    HW241855   5.332   5.949   7.736  0.4811  0.2324  1.2757
12007SOL     OW41856   5.471   9.352  10.885 -0.7027  0.2004  0.5831
12007SOL    HW141857   5.485   9.260  10.864  0.1490  0.5385 -0.4546
12007SOL    HW241858   5.377   9.360  10.897 -1.2060 -0.2760 -2.2399
12008SOL     OW41859   7.459   9.160   4.964  0.5930  0.0833  0.2824
12008SOL    HW141860   7.453   9.131   4.873 -0.9786 -0.0218  0.3863
12008SOL    HW241861   7.491   9.084   5.012  1.7593  0.2431 -0.2096
12009SOL     OW41862   8.104   2.823   9.660 -0.8080 -0.1397  0.2080
12009SOL    HW141863   8.092   2.859   9.572 -2.1929  1.3669  0.9549
12009SOL    HW241864   8.192   2.848   9.685 -0.0515 -1.3739 -1.0584
12010SOL     OW41865   5.596  10.788   6.523  0.0944 -0.4197 -0.2054
12010SOL    HW141866   5.596  10.705   6.571 -0.7128 -0.8986 -0.9921
12010SOL    HW241867   5.525  10.778   6.460  0.3329  0.6771 -0.6578
12011SOL     OW41868   9.042   9.688   5.664 -0.6559 -0.3671 -0.1967
12011SOL    HW141869   9.064   9.781   5.673 -0.9870 -0.2503 -0.5682
12011SOL    HW241870   9.118   9.650   5.619 -0.1400 -0.4506  0.7268
12012SOL     OW41871   8.697   1.850   6.647 -0.2157 -0.2546 -0.1218
12012SOL    HW141872   8.657   1.864   6.561 -0.1095  1.1563  0.0412
12012SOL    HW241873   8.625   1.861   6.708  0.1778  1.2447  0.1072
12013SOL     OW41874   7.692   5.335   9.322  0.0327  0.0859  0.2746
12013SOL    HW141875   7.610   5.379   9.300  0.3746 -0.0281 -1.3494
12013SOL    HW241876   7.753   5.362   9.253  2.3167  2.5987  2.9449
12014SOL     OW41877   0.351  10.222   6.988 -0.1648 -0.5485  0.4804
12014SOL    HW141878   0.259  10.247   6.995  0.0412  0.4047 -0.0722
12014SOL    HW241879   0.399  10.300   7.015  0.5274  0.3287 -2.8700
12015SOL     OW41880   5.217   3.722   9.599 -0.1378 -1.1349  0.1686
12015SOL    HW141881   5.288   3.744   9.538  1.2539  1.7157  2.5080
12015SOL    HW241882   5.144   3.778   9.572 -0.1610 -1.2445  0.0058
12016SOL     OW41883   1.998   5.073   8.595 -0.1896 -0.2528 -0.1074
12016SOL    HW141884   1.934   5.056   8.527 -2.3324  0.8209  1.5343
12016SOL    HW241885   2.039   4.988   8.612 -0.3698 -0.7383 -1.9147
12017SOL     OW41886  10.378  10.727   6.471 -0.7874 -0.3679 -0.1965
12017SOL    HW141887  10.447  10.691   6.414  0.2609  2.1145 -0.5994
12017SOL    HW241888  10.307  10.751   6.411  0.1578  1.8777 -0.5120
12018SOL     OW41889   1.001   0.405   3.360  1.1385 -0.1588  0.0823
12018SOL    HW141890   1.039   0.362   3.284 -1.9141 -0.8955 -1.1517
12018SOL    HW241891   0.953   0.480   3.325 -0.9908 -0.9499  1.0974
12019SOL     OW41892   5.012   6.524   5.083 -0.2702 -0.2938 -0.1267
12019SOL    HW141893   4.921   6.508   5.061 -0.3749  1.0769 -0.8104
12019SOL    HW241894   5.027   6.474   5.164 -1.2264 -1.6051 -0.7223
12020SOL     OW41895   8.985   1.229   6.244  0.1700  0.2564 -0.5478
12020SOL    HW141896   8.986   1.228   6.148  1.7314  0.4522 -0.5525
12020SOL    HW241897   9.013   1.141   6.269  0.7546  0.5113 -0.2885
12021SOL     OW41898   7.495   8.598   6.126  0.0273  0.3983 -0.5424
12021SOL    HW141899   7.430   8.550   6.075  0.6057  0.3069 -1.2107
12021SOL    HW241900   7.554   8.636   6.060 -0.2183  1.7273 -0.0066
12022SOL     OW41901   8.264   1.808   2.766 -0.1703  0.2006 -0.6050
12022SOL    HW141902   8.242   1.753   2.842  3.0895 -1.3884 -0.6216
12022SOL    HW241903   8.210   1.773   2.695 -0.4876 -0.8424  0.1184
12023SOL     OW41904   2.522   9.442   3.786  0.4352  0.0985 -0.5662
12023SOL    HW141905   2.616   9.430   3.796  0.2048 -0.9722  0.5204
12023SOL    HW241906   2.490   9.359   3.752 -0.5707 -0.9693  2.6334
12024SOL     OW41907   7.929  10.116   4.088 -0.3000 -0.1381  0.2630
12024SOL    HW141908   7.957  10.100   3.999  2.2585  0.3325  0.9172
12024SOL    HW241909   7.931  10.211   4.098  1.7954 -0.2491  1.4561
12025SOL     OW41910  10.074   8.784   7.644 -0.5171  0.2632 -0.0082
12025SOL    HW141911   9.998   8.755   7.593  0.0503  0.5109 -1.0203
12025SOL    HW241912  10.071   8.879   7.639 -0.2621  0.2790  0.1381
12026SOL     OW41913   4.926   8.617   3.711 -0.1021 -0.1762 -0.4416
12026SOL    HW141914   4.948   8.526   3.689  2.5557 -0.0140  1.1440
12026SOL    HW241915   4.870   8.609   3.789 -0.0573 -0.4716 -0.4386
12027SOL     OW41916   4.075   8.617   3.230 -0.2181 -0.3481 -0.1948
12027SOL    HW141917   4.113   8.532   3.253 -0.0492 -0.3340 -0.4183
12027SOL    HW241918   4.081   8.621   3.135  1.8524  0.8566 -0.0661
12028SOL     OW41919   2.864  10.168   8.924 -0.2334  0.4899  0.7841
12028SOL    HW141920   2.896  10.158   8.834  0.0688  1.4612  0.7717
12028SOL    HW241921   2.936  10.136   8.979  0.2640  1.4590  0.7180
12029SOL     OW41922   7.748   4.326   1.820 -0.1776  0.1603 -0.2381
12029SOL    HW141923   7.791   4.246   1.849  0.0864  0.0344 -0.9462
12029SOL    HW241924   7.660   4.299   1.794  0.0935 -0.0187 -1.0148
12030SOL     OW41925   0.330   5.614   6.901  0.0584 -0.6353 -0.2762
12030SOL    HW141926   0.318   5.706   6.928  2.8304 -0.8142  1.9816
12030SOL    HW241927   0.401   5.617   6.837 -0.6840 -1.1224 -1.1397
12031SOL     OW41928   2.741   7.563   1.191  0.0163  0.3690 -0.0144
12031SOL    HW141929   2.653   7.561   1.153  1.0887  0.5292 -2.7284
12031SOL    HW241930   2.776   7.648   1.165  1.5331 -0.3480 -0.3962
12032SOL     OW41931   2.314   8.866   3.404  0.4817  0.0588  0.1054
12032SOL    HW141932   2.367   8.907   3.336 -0.1568  0.0695 -0.3926
12032SOL    HW241933   2.320   8.926   3.479  0.4672  0.4887 -0.2363
12033SOL     OW41934   0.802   2.304   4.058 -0.0693 -0.3503 -1.0678
12033SOL    HW141935   0.883   2.282   4.012  0.8529  0.5870  0.0255
12033SOL    HW241936   0.772   2.385   4.018  1.6455  1.3990  0.9478
12034SOL     OW41937   2.438  10.163   6.173 -0.1707 -0.1647 -0.5723
12034SOL    HW141938   2.515  10.110   6.153 -0.2502 -0.2386 -0.6862
12034SOL    HW241939   2.367  10.122   6.124 -0.0318  0.6440 -1.4921
12035SOL     OW41940  10.218  10.801   2.543  0.2851 -0.3762 -0.0365
12035SOL    HW141941  10.148  10.848   2.589  2.1092  1.3325  1.1773
12035SOL    HW241942  10.174  10.726   2.504 -1.9619 -0.2236  1.9078
12036SOL     OW41943   3.549   8.453   9.321 -0.4028 -0.2341  0.1040
12036SOL    HW141944   3.524   8.541   9.347  1.0382  0.2106  0.0693
12036SOL    HW241945   3.565   8.407   9.404  0.6641  0.1095  0.1031
12037SOL     OW41946   7.305   5.533   7.253 -0.0314  0.4580  0.2926
12037SOL    HW141947   7.270   5.474   7.321  2.4049 -1.5310 -0.0110
12037SOL    HW241948   7.375   5.581   7.297  1.8334 -1.1250 -0.7659
12038SOL     OW41949   1.864   5.136   5.021 -0.0818 -0.4988  0.4948
12038SOL    HW141950   1.832   5.207   4.965  0.5424 -1.0110 -0.5417
12038SOL    HW241951   1.956   5.126   4.997  0.2576 -0.5998  1.7733
12039SOL     OW41952   8.366   1.802   6.601  0.1261 -0.6493  0.5058
12039SOL    HW141953   8.430   1.801   6.672  2.2849  1.1686 -1.2567
12039SOL    HW241954   8.373   1.715   6.561 -0.4213 -1.3509  1.8915
12040SOL     OW41955   5.443   8.853   6.519 -0.2347 -0.5663 -0.0327
12040SOL    HW141956   5.501   8.816   6.586 -3.2627 -3.0680  1.5271
12040SOL    HW241957   5.487   8.835   6.436  1.8653 -0.9592  1.1032
12041SOL     OW41958   1.542   2.105   4.764 -0.1691 -0.6494 -0.8195
12041SOL    HW141959   1.534   2.037   4.831  0.1126  0.5540  0.4708
12041SOL    HW241960   1.485   2.075   4.693  1.9756 -3.5809 -1.4967
12042SOL     OW41961   4.047   5.867   5.539 -0.2379  0.3373  0.3605
12042SOL    HW141962   4.085   5.821   5.464 -0.8435  0.9416 -0.3258
12042SOL    HW241963   4.064   5.809   5.613  1.2948  0.2053 -0.0564
12043SOL     OW41964   5.153   3.386   4.898 -0.0843  0.3869 -0.0291
12043SOL    HW141965   5.246   3.385   4.876 -0.0672  0.7740  0.0136
12043SOL    HW241966   5.136   3.301   4.939  0.3091  0.4237  0.2071
12044SOL     OW41967   8.862   9.346   4.769 -0.4436  0.7169 -0.3670
12044SOL    HW141968   8.848   9.435   4.803 -0.7162  0.4069  0.3533
12044SOL    HW241969   8.952   9.325   4.791 -0.1166  1.1276 -1.2842
12045SOL     OW41970   3.544   6.835   3.126  0.7415  0.1675 -0.6014
12045SOL    HW141971   3.548   6.779   3.049  0.4806  0.5768 -0.9097
12045SOL    HW241972   3.608   6.904   3.109  1.3556 -0.2537 -0.0447
12046SOL     OW41973   9.966   6.932   3.590 -0.4075 -0.1499 -0.2956
12046SOL    HW141974  10.048   6.979   3.607 -0.5073 -0.2022  0.3909
12046SOL    HW241975   9.989   6.864   3.527 -0.0139  0.0963 -0.4197
12047SOL     OW41976   3.474   0.297   3.518  0.0091  0.1404 -0.3702
12047SOL    HW141977   3.565   0.313   3.543 -0.2424 -1.1994  1.6628
12047SOL    HW241978   3.475   0.211   3.476 -0.2593  0.2848 -0.6717
12048SOL     OW41979   8.989   1.212   9.243 -0.0953  0.3128  0.3863
12048SOL    HW141980   8.966   1.166   9.163 -0.4387 -2.1481  1.7894
12048SOL    HW241981   9.081   1.237   9.231 -0.1843  0.1226 -0.8150
12049SOL     OW41982  10.799   5.888   3.293  0.4065 -0.4191 -0.0720
12049SOL    HW141983  10.892   5.867   3.304  0.5088  0.0718  0.0388
12049SOL    HW241984  10.762   5.876   3.380  0.5568  0.2842  0.0942
12050SOL     OW41985   8.149   9.474   4.349  0.0614 -0.6518  0.1287
12050SOL    HW141986   8.224   9.422   4.322  0.9798  0.4906  0.4520
12050SOL    HW241987   8.122   9.521   4.270  2.2635  2.0820  0.8532
12051SOL     OW41988   4.367   8.082   5.316 -0.2505 -0.4081 -0.4739
12051SOL    HW141989   4.298   8.073   5.381  1.2952  0.9365  1.4954
12051SOL    HW241990   4.386   8.176   5.315  2.3976 -0.8618  0.0471
12052SOL     OW41991   8.414   9.899   8.177 -0.3322  0.4168 -0.0955
12052SOL    HW141992   8.461   9.816   8.166 -0.4211  0.5306 -1.5209
12052SOL    HW241993   8.405   9.909   8.272 -0.2873 -1.1818  0.1045
12053SOL     OW41994  10.365   2.931   1.701  0.2379 -0.2098 -0.0916
12053SOL    HW141995  10.314   3.005   1.669 -0.6338 -0.4781  0.6166
12053SOL    HW241996  10.335   2.919   1.792  0.2695 -1.4852 -0.2274
12054SOL     OW41997   2.681   7.502   4.133 -0.6096  0.1609  0.1759
12054SOL    HW141998   2.723   7.577   4.175  1.5682 -0.1166 -1.3665
12054SOL    HW241999   2.590   7.507   4.163 -0.0796  2.2234  1.7172
12055SOL     OW42000   2.155   2.971   1.898  0.5193  0.1783 -0.0282
12055SOL    HW142001   2.214   2.958   1.972  0.3117  1.1372  0.3148
12055SOL    HW242002   2.202   3.032   1.841 -0.1894  1.0705  0.3186
12056SOL     OW42003   7.600   0.366   6.493 -0.4345  0.1916  0.0233
12056SOL    HW142004   7.603   0.284   6.542 -0.6656  0.4580  0.4909
12056SOL    HW242005   7.533   0.352   6.426  0.2208 -0.3419 -0.5402
12057SOL     OW42006   9.786   5.140   7.003 -0.1672  0.1448 -0.2340
12057SOL    HW142007   9.879   5.162   6.997  0.5579 -1.6101  2.6294
12057SOL    HW242008   9.757   5.183   7.084 -1.4747 -0.4605 -0.3623
12058SOL     OW42009   4.496   5.009   6.409 -0.3986 -0.4302  0.3009
12058SOL    HW142010   4.558   4.976   6.343  0.4842  1.2133  0.2420
12058SOL    HW242011   4.424   4.946   6.408  0.6263 -1.6579 -0.6324
12059SOL     OW42012   1.911   5.249   2.142 -0.2491  0.3053 -0.3872
12059SOL    HW142013   2.003   5.227   2.156 -0.7792 -1.4134  0.7702
12059SOL    HW242014   1.890   5.309   2.213 -0.2806 -0.1915  0.0333
12060SOL     OW42015   2.568   1.434   1.503  0.2801  0.1190  0.0557
12060SOL    HW142016   2.505   1.390   1.446  1.0037 -2.1639  0.9005
12060SOL    HW242017   2.653   1.399   1.477  1.0781  2.0330 -0.0712
12061SOL     OW42018   7.941  10.054   2.846  0.1998  0.6534 -0.4068
12061SOL    HW142019   8.015  10.065   2.906 -0.9094 -1.5179  1.5337
12061SOL    HW242020   7.884   9.990   2.889 -1.8583  0.7394 -2.7363
12062SOL     OW42021   3.238   7.834   2.406 -0.0175 -0.1942  0.2366
12062SOL    HW142022   3.268   7.917   2.368  0.6270 -0.4838  0.0856
12062SOL    HW242023   3.171   7.859   2.469 -0.0995  0.4132 -0.0816
12063SOL     OW42024   4.366   9.475   1.648 -0.0701 -0.1221 -0.5187
12063SOL    HW142025   4.330   9.457   1.561 -1.7724 -0.8346  0.3087
12063SOL    HW242026   4.390   9.568   1.644  1.7009 -0.5678 -2.3355
12064SOL     OW42027   0.336   8.991   6.708  0.0452 -0.2541  0.0311
12064SOL    HW142028   0.422   9.012   6.673 -0.0466  1.2440  0.6416
12064SOL    HW242029   0.275   9.012   6.637  0.1498 -1.1781 -0.3485
12065SOL     OW42030   6.956   2.804   2.327 -0.5886 -0.2758  0.3414
12065SOL    HW142031   6.899   2.744   2.278  1.3030 -2.0800  0.2542
12065SOL    HW242032   6.945   2.888   2.282 -2.1778 -0.8575 -0.4573
12066SOL     OW42033   7.591   3.711   4.930  1.3488  0.4108 -0.3444
12066SOL    HW142034   7.662   3.740   4.988  2.9442 -0.6523 -1.6829
12066SOL    HW242035   7.537   3.654   4.985  1.2322  1.6041  0.8284
12067SOL     OW42036   5.381   6.341   6.403 -0.2797  0.0742  0.3286
12067SOL    HW142037   5.412   6.415   6.350 -1.4499  1.3347  1.3033
12067SOL    HW242038   5.437   6.268   6.378  0.7375  1.2166 -0.8974
12068SOL     OW42039   8.060   7.473   2.256  0.2617  0.3316  0.1331
12068SOL    HW142040   7.975   7.456   2.295 -0.1113 -0.1457 -0.8680
12068SOL    HW242041   8.121   7.467   2.330 -0.6322  1.4179  0.9889
12069SOL     OW42042   1.772   4.135   5.766  0.3925  0.4950  0.1613
12069SOL    HW142043   1.761   4.082   5.687  1.1343  0.2677  0.2027
12069SOL    HW242044   1.851   4.187   5.749  0.1014  1.0320  0.4307
12070SOL     OW42045   0.933   5.527   7.691  0.2357 -0.1642  0.3188
12070SOL    HW142046   0.995   5.458   7.716  0.0375  0.0489  1.4543
12070SOL    HW242047   0.981   5.609   7.707 -0.1359 -0.0119  0.6662
12071SOL     OW42048   3.885   6.404   0.271 -0.1381 -0.5477  0.1602
12071SOL    HW142049   3.884   6.473   0.337  2.0893  0.4916 -0.8152
12071SOL    HW242050   3.835   6.333   0.311  1.3354 -0.0829  3.1220
12072SOL     OW42051   1.914  10.693   4.270  0.2028  0.8203  0.1466
12072SOL    HW142052   2.006  10.664   4.272 -0.1726 -0.4802 -0.1954
12072SOL    HW242053   1.865  10.613   4.249 -1.0033  1.5179  0.2522
12073SOL     OW42054   1.635  10.456   8.650  0.0728  0.4777  0.0011
12073SOL    HW142055   1.672  10.515   8.716  1.0922 -0.5196  0.3584
12073SOL    HW242056   1.585  10.392   8.701  0.0012  0.3078 -0.2801
12074SOL     OW42057   6.786   5.482   8.295  0.6494 -0.1817 -0.2993
12074SOL    HW142058   6.834   5.408   8.332  0.2495  0.1569  0.9568
12074SOL    HW242059   6.778   5.462   8.202  1.9303 -0.9410 -0.2610
12075SOL     OW42060   5.356   9.612   0.222  0.4354  0.5499  0.4137
12075SOL    HW142061   5.426   9.600   0.158 -0.2607 -0.8807 -0.1274
12075SOL    HW242062   5.323   9.700   0.206 -0.6741 -0.2665 -2.2112
12076SOL     OW42063   4.608   0.353   9.297  0.4447  0.2707  1.0087
12076SOL    HW142064   4.626   0.405   9.218  0.3999  0.5906  1.2059
12076SOL    HW242065   4.513   0.348   9.302  0.4484 -0.9835  0.2507
12077SOL     OW42066   0.321   1.301   1.724 -0.4960 -0.0706  0.4242
12077SOL    HW142067   0.356   1.213   1.707 -0.1889  0.2148 -0.5240
12077SOL    HW242068   0.370   1.357   1.664 -0.2547  0.8508  1.4436
12078SOL     OW42069   1.996   1.591   5.915  0.7175 -0.1400  0.5823
12078SOL    HW142070   1.904   1.573   5.897  0.8480  0.0066 -0.2696
12078SOL    HW242071   1.997   1.680   5.951  0.5470 -0.0533  0.3730
12079SOL     OW42072   1.789   6.019   1.429 -0.5796  0.1962 -0.1452
12079SOL    HW142073   1.839   6.071   1.366 -1.3347  0.0643 -0.8750
12079SOL    HW242074   1.752   5.948   1.377 -1.5914  0.3451  0.3533
12080SOL     OW42075   6.942   1.273   5.219 -0.5501 -0.1776 -0.7474
12080SOL    HW142076   6.925   1.363   5.191  0.5041  0.2122 -0.1726
12080SOL    HW242077   6.919   1.219   5.143 -0.2467  0.6477 -1.4363
12081SOL     OW42078   9.467   3.846   8.092  0.2287  0.1153  0.0525
12081SOL    HW142079   9.521   3.887   8.160 -2.6101  1.3867  1.7152
12081SOL    HW242080   9.421   3.919   8.051 -2.4832 -1.0498  0.8278
12082SOL     OW42081  10.364   5.881   2.414  0.5112  0.4793 -0.0039
12082SOL    HW142082  10.354   5.975   2.426 -2.4820  0.1300  0.8264
12082SOL    HW242083  10.428   5.855   2.481 -0.9725  1.5150  1.9133
12083SOL     OW42084   1.974   3.521  10.318 -0.1011  0.0746  0.4092
12083SOL    HW142085   2.040   3.488  10.256  0.5924  0.5555  0.8803
12083SOL    HW242086   1.945   3.443  10.365 -1.4810 -0.4946 -1.2744
12084SOL     OW42087   3.014   7.000   3.947  0.1965 -0.3881 -0.0848
12084SOL    HW142088   3.074   6.972   3.878  2.6044  2.9929  0.3479
12084SOL    HW242089   2.933   7.022   3.901  0.8122 -0.8204 -1.4337
12085SOL     OW42090   1.257   8.137   1.490 -0.8283  0.0599 -0.7783
12085SOL    HW142091   1.282   8.080   1.563 -0.1490 -0.4816 -1.4135
12085SOL    HW242092   1.164   8.117   1.476 -1.1905  0.7939  0.4695
12086SOL     OW42093   6.836   6.874   8.359  0.3285  0.1362 -0.0461
12086SOL    HW142094   6.775   6.807   8.330  0.1684  0.7643 -1.2440
12086SOL    HW242095   6.923   6.836   8.344  0.2467 -0.3928  0.7682
12087SOL     OW42096   3.568  10.191   8.092  0.0963  0.4750 -0.0966
12087SOL    HW142097   3.597  10.112   8.046  0.0780  0.4416 -0.0521
12087SOL    HW242098   3.551  10.161   8.181  2.9181  1.0721  0.7396
12088SOL     OW42099   6.058   6.108  10.671 -0.2154 -0.1506 -0.2872
12088SOL    HW142100   6.022   6.096  10.759  2.1578 -2.3992  0.4887
12088SOL    HW242101   6.149   6.133  10.686  0.2422 -0.6348 -2.1129
12089SOL     OW42102   8.903   6.747   2.163  0.0897 -0.1787 -0.3908
12089SOL    HW142103   8.997   6.763   2.162  0.5376 -2.1841  1.3842
12089SOL    HW242104   8.868   6.809   2.227  0.0840  0.8660 -1.3669
12090SOL     OW42105   1.552   9.116   1.568 -0.0535  0.0848 -0.4399
12090SOL    HW142106   1.482   9.137   1.506  0.0859  2.1399  0.0306
12090SOL    HW242107   1.509   9.063   1.635 -1.2119  1.3169 -0.1566
12091SOL     OW42108   5.403   3.110   8.714 -0.0548 -0.0544  0.3371
12091SOL    HW142109   5.484   3.081   8.674  0.4016  0.2832  0.9970
12091SOL    HW242110   5.380   3.040   8.775  0.8397  0.7482  1.6435
12092SOL     OW42111   4.518   5.007   5.726 -0.8515  0.1558 -0.1225
12092SOL    HW142112   4.484   4.925   5.762  0.3770 -0.9676 -1.4383
12092SOL    HW242113   4.561   4.983   5.644 -2.2239  2.4113 -1.6282
12093SOL     OW42114   1.910   2.864   9.498  0.1267 -0.1417 -0.1735
12093SOL    HW142115   1.985   2.924   9.489 -1.1568  1.2606 -2.3183
12093SOL    HW242116   1.878   2.853   9.409 -1.5160 -1.6971  0.5611
12094SOL     OW42117   5.269   3.408   5.818 -0.0045  0.2233  0.3737
12094SOL    HW142118   5.340   3.417   5.881 -0.9802  0.7263  1.4234
12094SOL    HW242119   5.198   3.367   5.867 -0.7765  0.6047 -0.4052
12095SOL     OW42120   4.218   6.916  10.458  0.7545 -0.2546  0.1688
12095SOL    HW142121   4.180   6.965  10.385  1.1617 -0.3733 -0.1247
12095SOL    HW242122   4.181   6.828  10.451 -0.0809  0.0296  0.7751
12096SOL     OW42123   6.766   0.755   5.375 -1.0640 -0.1302  0.0235
12096SOL    HW142124   6.849   0.719   5.407 -1.9226 -1.1555  1.1906
12096SOL    HW242125   6.752   0.834   5.426 -0.2286  0.7270 -1.0358
12097SOL     OW42126  10.297   1.213   2.243  0.3109 -0.0221  0.2160
12097SOL    HW142127  10.214   1.231   2.198 -0.0791 -0.8403  0.5784
12097SOL    HW242128  10.286   1.253   2.330  0.2351 -0.2572  0.3156
12098SOL     OW42129   8.545   0.361   9.610 -0.0152  0.3866  0.2588
12098SOL    HW142130   8.464   0.358   9.661 -0.0413  0.2427  0.2121
12098SOL    HW242131   8.521   0.410   9.531  0.2069  1.2003  0.6921
12099SOL     OW42132   1.679   0.440   4.734 -0.3647  0.0557  0.0269
12099SOL    HW142133   1.611   0.377   4.757 -0.9145  0.3630 -0.7180
12099SOL    HW242134   1.725   0.457   4.817 -1.4385  0.1408  0.6230
12100SOL     OW42135   0.552   3.852   6.675  0.3326  0.6443 -0.5371
12100SOL    HW142136   0.611   3.923   6.648 -0.7903  1.9993  0.4232
12100SOL    HW242137   0.595   3.813   6.751 -0.3916  2.2660  0.7727
12101SOL     OW42138   6.406   1.001   4.481 -0.4014 -0.0297 -0.3263
12101SOL    HW142139   6.319   1.025   4.513 -0.8490 -0.0153 -1.5090
12101SOL    HW242140   6.398   1.004   4.386  1.0969  0.6983 -0.4562
12102SOL     OW42141   7.647   6.401   9.942 -0.8660  0.1122  0.0576
12102SOL    HW142142   7.648   6.375  10.034 -1.0724  0.6741  0.2270
12102SOL    HW242143   7.568   6.360   9.907 -0.4527 -0.6127 -0.0260
12103SOL     OW42144   3.748   5.301   7.632  0.0516 -0.1404  0.6725
12103SOL    HW142145   3.824   5.243   7.626  1.3953  1.4513  1.6371
12103SOL    HW242146   3.714   5.286   7.720 -0.2463 -0.2300  0.5427
12104SOL     OW42147   8.824   1.780   3.873 -0.0913  0.4282  0.3115
12104SOL    HW142148   8.868   1.714   3.819 -0.9269 -2.8681  3.2991
12104SOL    HW242149   8.895   1.818   3.926 -0.0580 -1.0137  1.3540
12105SOL     OW42150   8.018   4.078   5.896  0.2389 -0.5652  0.2129
12105SOL    HW142151   8.085   4.023   5.856  1.6649  1.1706  0.0862
12105SOL    HW242152   8.051   4.095   5.985  0.5711  1.2072 -0.2140
12106SOL     OW42153   4.126   4.604   0.872  0.3141 -0.6635 -0.0931
12106SOL    HW142154   4.074   4.673   0.830  0.1737 -1.8034 -1.8713
12106SOL    HW242155   4.203   4.593   0.815  0.6388 -1.5599  0.4907
12107SOL     OW42156   5.862   8.123   3.018  0.4609  0.0664 -0.2964
12107SOL    HW142157   5.934   8.061   3.014  0.9914  0.5676  0.8868
12107SOL    HW242158   5.902   8.207   2.995 -0.0602  0.1325 -1.0047
12108SOL     OW42159   1.153   5.553   5.446  0.4105 -0.0634 -0.4494
12108SOL    HW142160   1.069   5.600   5.445 -0.1929 -1.1066 -0.4888
12108SOL    HW242161   1.200   5.591   5.520 -0.4999 -0.1230  0.1820
12109SOL     OW42162   9.513   6.462   5.941 -0.0521  0.0132  0.2257
12109SOL    HW142163   9.477   6.380   5.907 -0.9431  1.1248 -1.6685
12109SOL    HW242164   9.586   6.482   5.883 -0.4594  1.0442  0.0441
12110SOL     OW42165   9.783   0.520   9.448  0.2224  0.7198  0.4561
12110SOL    HW142166   9.811   0.475   9.368 -0.1498  0.7824  0.2899
12110SOL    HW242167   9.721   0.460   9.488  0.5462  0.6083  0.7960
12111SOL     OW42168   8.352   6.858   8.237  0.4690  0.5349  0.0415
12111SOL    HW142169   8.383   6.773   8.206 -2.6024 -0.6485 -0.1130
12111SOL    HW242170   8.410   6.879   8.311  1.7754 -1.2727 -0.3934
12112SOL     OW42171  10.613  10.491   1.758 -0.2077  0.1951 -0.4538
12112SOL    HW142172  10.600  10.459   1.669 -0.9022  0.8716 -0.6090
12112SOL    HW242173  10.526  10.485   1.798 -0.0556  0.6003 -0.0582
12113SOL     OW42174   7.097   8.088   2.406 -1.2383  0.5034 -0.1153
12113SOL    HW142175   7.055   8.156   2.354 -2.7774 -1.2987 -1.3658
12113SOL    HW242176   7.033   8.069   2.475 -0.7548  0.4148  0.3097
12114SOL     OW42177   3.536   3.681   4.355  0.4234 -0.1930 -0.1350
12114SOL    HW142178   3.604   3.621   4.323  0.1613  0.1060 -1.2956
12114SOL    HW242179   3.584   3.746   4.406  0.8879 -0.5410 -0.1158
12115SOL     OW42180   3.965   0.586  10.512  0.4636  0.1287  0.2777
12115SOL    HW142181   3.944   0.642  10.437 -0.7861 -0.8100 -0.1090
12115SOL    HW242182   3.939   0.498  10.484  2.1514 -0.6302  0.9603
12116SOL     OW42183   9.672   5.026   1.904 -0.0383  0.3935 -0.3621
12116SOL    HW142184   9.641   4.989   1.987 -0.3054  2.6409  0.5969
12116SOL    HW242185   9.767   5.027   1.912 -0.0905  3.7430  1.4880
12117SOL     OW42186   3.009   3.071  10.342 -0.2388  0.2694  0.1920
12117SOL    HW142187   2.925   3.113  10.323 -0.7431 -0.0912  1.5833
12117SOL    HW242188   2.988   2.979  10.356  0.7675 -0.4024 -2.0875
12118SOL     OW42189   1.385   7.649   0.660  0.3458  0.3478 -0.5017
12118SOL    HW142190   1.322   7.689   0.600  0.4437 -1.8227 -2.1509
12118SOL    HW242191   1.471   7.678   0.627  0.3327  1.1395  0.1256
12119SOL     OW42192  10.489   4.877   1.038  0.6244 -0.3367  0.0708
12119SOL    HW142193  10.511   4.838   1.123  0.5086 -0.3478  0.0963
12119SOL    HW242194  10.399   4.908   1.048  0.0269 -1.7605 -0.5439
12120SOL     OW42195   9.800   2.885   7.651 -0.4264  0.1430 -0.2548
12120SOL    HW142196   9.801   2.843   7.565 -0.6476  0.2276 -0.2990
12120SOL    HW242197   9.886   2.927   7.657 -0.6933  0.8051 -0.7751
12121SOL     OW42198   6.794   7.730   0.198 -0.1797 -0.4824 -0.0209
12121SOL    HW142199   6.849   7.668   0.150 -1.4534 -1.1075 -0.7483
12121SOL    HW242200   6.720   7.677   0.227 -2.2785  1.0015 -2.2702
12122SOL     OW42201   2.523   8.905   1.600  0.4088  0.0953  0.3009
12122SOL    HW142202   2.474   8.859   1.668  1.1891 -0.2071  0.6699
12122SOL    HW242203   2.571   8.836   1.554  0.6026  0.4015  0.0418
12123SOL     OW42204   4.411   2.084   5.994  0.7266  0.5135  0.1315
12123SOL    HW142205   4.390   2.019   6.060  1.4900 -0.2960 -0.3997
12123SOL    HW242206   4.326   2.120   5.967  0.4476  1.3706  2.0130
12124SOL     OW42207   3.994   9.386   8.943  0.6139  0.2224  0.2884
12124SOL    HW142208   3.908   9.345   8.947  0.5366  0.3615  0.0706
12124SOL    HW242209   3.979   9.476   8.973  0.4557  0.6017 -0.8927
12125SOL     OW42210   8.808   2.505   0.713  0.1213 -0.6815  0.3720
12125SOL    HW142211   8.736   2.568   0.704  0.4850 -0.5129 -2.0986
12125SOL    HW242212   8.814   2.488   0.807 -1.4057  1.3060  0.8891
12126SOL     OW42213   3.163   8.111   8.806 -0.1002 -0.4703  0.5415
12126SOL    HW142214   3.092   8.158   8.761  0.9582 -0.4386 -1.1693
12126SOL    HW242215   3.171   8.155   8.891 -0.2408  1.3780 -0.3578
12127SOL     OW42216   2.962   2.978   2.639  0.2966  0.1426 -0.3131
12127SOL    HW142217   3.040   3.033   2.637  0.7139 -0.4710 -1.3134
12127SOL    HW242218   2.996   2.889   2.648 -0.2787 -0.1303 -0.7851
12128SOL     OW42219   3.567   9.868   6.516 -0.1373  0.1358  0.5094
12128SOL    HW142220   3.650   9.844   6.556 -0.3085 -1.5340 -0.0662
12128SOL    HW242221   3.591   9.902   6.429 -0.0853 -0.8360  0.1408
12129SOL     OW42222  10.103   6.177   1.058  0.0307  0.1200 -0.1447
12129SOL    HW142223  10.090   6.151   0.967 -0.1644  0.0943 -0.1091
12129SOL    HW242224  10.198   6.173   1.071  0.2213  1.7301 -0.8299
12130SOL     OW42225   3.491   9.848   3.472 -0.3398  0.5006 -0.5177
12130SOL    HW142226   3.412   9.825   3.521 -0.2636  1.0302 -0.1394
12130SOL    HW242227   3.463   9.851   3.381 -0.5039 -0.4013 -0.5011
12131SOL     OW42228   0.024   5.788   4.691  0.0584  0.1026 -0.0834
12131SOL    HW142229  -0.066   5.759   4.680 -0.1244  0.5857  0.0851
12131SOL    HW242230   0.031   5.810   4.784  0.6199 -0.7991  0.1026
12132SOL     OW42231   4.892   3.985  10.115 -0.7184 -0.0140  0.1248
12132SOL    HW142232   4.952   3.947  10.051  0.6052  0.9748  0.7426
12132SOL    HW242233   4.946   3.999  10.193 -1.7994  0.7304  0.7619
12133SOL     OW42234   1.414  10.295   6.211 -0.2861 -0.1746  0.1144
12133SOL    HW142235   1.357  10.372   6.208  1.4487  1.1616 -1.8352
12133SOL    HW242236   1.490  10.323   6.263 -0.7077 -1.4291  1.4543
12134SOL     OW42237   3.116   8.930   4.470  0.4112  0.2618  0.3714
12134SOL    HW142238   3.134   8.846   4.428 -0.4711  0.5574 -0.6270
12134SOL    HW242239   3.198   8.979   4.461  0.1106  0.4953 -1.4627
12135SOL     OW42240   3.165   0.959   1.279 -0.0976  0.0356 -0.4248
12135SOL    HW142241   3.235   0.940   1.216  1.0763 -1.9440  1.3422
12135SOL    HW242242   3.184   1.047   1.310 -1.5281  1.6749 -3.7371
12136SOL     OW42243   6.416   0.877   3.344  0.0267 -0.4193 -0.3882
12136SOL    HW142244   6.333   0.896   3.387  0.6027 -1.6298  1.4003
12136SOL    HW242245   6.430   0.784   3.358  1.1591 -0.4721 -1.6336
12137SOL     OW42246   4.470   7.055   1.181 -0.0375 -0.3840 -0.3511
12137SOL    HW142247   4.450   7.144   1.210 -0.1236 -0.7994  0.9646
12137SOL    HW242248   4.554   7.061   1.137  1.0802  0.0192  1.7163
12138SOL     OW42249   9.563   9.532   9.231 -0.4003 -0.3365  0.2355
12138SOL    HW142250   9.614   9.456   9.262  0.9646 -0.5559 -2.2391
12138SOL    HW242251   9.626   9.604   9.229 -0.7484 -0.0417 -0.7672
12139SOL     OW42252   0.867   4.825   8.023  0.2455  0.0468  0.1254
12139SOL    HW142253   0.941   4.777   7.986 -0.9297 -0.6908 -1.3698
12139SOL    HW242254   0.808   4.758   8.055  0.2462  0.6323  1.3991
12140SOL     OW42255   8.277   0.704   5.198  0.0809 -0.5070 -0.4429
12140SOL    HW142256   8.340   0.713   5.127  1.1737 -0.2313  0.5380
12140SOL    HW242257   8.199   0.666   5.157  0.8648 -0.8094 -1.6775
12141SOL     OW42258   0.428   4.116  10.709  0.2703  0.2637 -0.2530
12141SOL    HW142259   0.350   4.171  10.715 -0.6389 -0.9777 -0.3353
12141SOL    HW242260   0.413   4.062  10.631  1.1537 -0.0839 -0.1928
12142SOL     OW42261   8.878   8.353   6.193  0.1367 -0.2612 -0.0794
12142SOL    HW142262   8.912   8.437   6.162 -0.7191  0.1308  0.0083
12142SOL    HW242263   8.879   8.297   6.115 -2.0889  0.7410 -0.9049
12143SOL     OW42264   7.984   3.759   0.620 -0.0986  0.0144 -0.5572
12143SOL    HW142265   8.069   3.716   0.611 -0.2401 -0.4297  0.1178
12143SOL    HW242266   7.921   3.688   0.607 -0.3924  0.5247 -2.0256
12144SOL     OW42267   5.049   5.038   9.300 -0.1476 -0.4545 -0.1167
12144SOL    HW142268   4.974   5.096   9.288  0.6491  0.8167  0.7695
12144SOL    HW242269   5.018   4.970   9.360 -1.0027 -0.8041 -0.9241
12145SOL     OW42270   1.723   8.566   1.735 -0.0095  0.3326 -0.4605
12145SOL    HW142271   1.694   8.532   1.650  0.7484 -0.5041 -0.4039
12145SOL    HW242272   1.697   8.658   1.734  0.3719  0.4483 -1.7836
12146SOL     OW42273   0.559   0.421   2.717 -0.1184 -0.3053 -0.1403
12146SOL    HW142274   0.600   0.335   2.709  2.0264  0.7246 -0.8462
12146SOL    HW242275   0.561   0.457   2.628 -0.1276  0.8421  0.3070
12147SOL     OW42276   1.872   0.710   2.044  0.0464  0.1814 -0.2125
12147SOL    HW142277   1.849   0.705   2.137 -1.8190  0.6959 -0.6000
12147SOL    HW242278   1.872   0.619   2.015  1.1551 -0.0273  0.3788
12148SOL     OW42279   0.699   1.094   5.237 -0.1597  0.1419  0.2402
12148SOL    HW142280   0.729   1.051   5.158  0.0676 -0.8120  0.8356
12148SOL    HW242281   0.779   1.120   5.283 -0.2791  0.0787  0.4897
12149SOL     OW42282  10.742  10.856   2.942 -0.1031 -0.3467 -0.5877
12149SOL    HW142283  10.664  10.813   2.977  0.3452 -1.0038 -0.3884
12149SOL    HW242284  10.796  10.784   2.908 -0.4141  0.2401 -2.4133
12150SOL     OW42285   1.178   0.218   1.925  0.0731 -0.0078  0.4049
12150SOL    HW142286   1.111   0.278   1.958  0.4947  0.8854 -0.3132
12150SOL    HW242287   1.159   0.135   1.968 -1.0377  0.4229  0.7843
12151SOL     OW42288   9.058   7.598   2.099  0.1013 -0.2069  0.1691
12151SOL    HW142289   9.110   7.580   2.177  1.6228  0.2756 -0.6900
12151SOL    HW242290   9.058   7.516   2.051  1.3177  0.1473 -0.4983
12152SOL     OW42291   5.952   8.922   5.325  0.4872  0.0292  0.2024
12152SOL    HW142292   6.028   8.886   5.372  1.0850  1.3649  0.2907
12152SOL    HW242293   5.892   8.951   5.394  0.8913  1.0076  0.1532
12153SOL     OW42294   7.641   2.413   2.338  0.1498 -0.1785  0.4491
12153SOL    HW142295   7.582   2.395   2.411  0.3210 -2.5289  0.1088
12153SOL    HW242296   7.728   2.419   2.378  0.0456  0.1798  0.6202
12154SOL     OW42297   4.114   9.614   5.718 -0.1177  0.2447 -0.2762
12154SOL    HW142298   4.105   9.553   5.791  0.3656  1.8353  1.1876
12154SOL    HW242299   4.037   9.597   5.662 -0.3247 -1.2191  0.4283
12155SOL     OW42300   1.835   4.291   2.954 -0.2755  0.4173 -0.0716
12155SOL    HW142301   1.860   4.308   3.044 -1.1474  0.9848  0.0766
12155SOL    HW242302   1.914   4.311   2.903  0.5760 -1.0000  0.6362
12156SOL     OW42303   1.574   8.571   7.383 -0.2706 -0.3242 -0.0091
12156SOL    HW142304   1.606   8.657   7.409  2.1443 -0.7310 -1.3211
12156SOL    HW242305   1.606   8.512   7.451 -2.0903 -0.2373  0.9951
12157SOL     OW42306   2.717   8.473   7.379  0.2032  0.1206  0.2245
12157SOL    HW142307   2.674   8.495   7.461  0.2807  0.9732  0.0385
12157SOL    HW242308   2.728   8.378   7.383 -0.8863 -0.0022  0.6675
12158SOL     OW42309   2.582   5.703   5.537 -0.1123  0.7138 -0.2174
12158SOL    HW142310   2.606   5.785   5.579  0.7989  0.6174 -0.5142
12158SOL    HW242311   2.631   5.636   5.585 -1.1442  0.2926  0.2701
12159SOL     OW42312   1.624   3.643   3.294  0.7811 -0.3357  0.0704
12159SOL    HW142313   1.535   3.664   3.323  0.7935  1.0907 -0.8411
12159SOL    HW242314   1.672   3.726   3.299  1.4054 -0.5329 -1.7312
12160SOL     OW42315   1.708   2.653   2.510  0.1720  0.3916 -0.2126
12160SOL    HW142316   1.750   2.704   2.579 -1.5710  1.8369 -0.1671
12160SOL    HW242317   1.651   2.715   2.465 -1.0503 -1.2363 -1.0027
12161SOL     OW42318   5.754  10.658   8.295  0.1536 -0.2064 -0.7206
12161SOL    HW142319   5.818  10.664   8.366 -1.1141  0.6646  0.3843
12161SOL    HW242320   5.728  10.566   8.294 -0.2826 -0.1042  0.3821
12162SOL     OW42321   2.490   4.623   9.872  0.1201 -0.0653  0.1792
12162SOL    HW142322   2.422   4.561   9.845 -1.8593  2.6142 -1.5077
12162SOL    HW242323   2.469   4.643   9.963 -0.8607  0.0730 -0.0627
12163SOL     OW42324   8.025   1.717   0.357  0.1908  0.1644 -0.5862
12163SOL    HW142325   8.039   1.693   0.265  1.6433  1.3614 -0.7089
12163SOL    HW242326   8.022   1.813   0.356 -0.9732  0.1564  0.4761
12164SOL     OW42327   0.944   1.409   7.216 -0.0562 -0.2278  0.1729
12164SOL    HW142328   0.899   1.445   7.140 -0.0784 -0.2295  0.1853
12164SOL    HW242329   0.962   1.484   7.272  2.7843  0.3025 -1.2691
12165SOL     OW42330   2.480   5.419   3.220 -0.2493  0.4339  0.0746
12165SOL    HW142331   2.534   5.379   3.288 -0.7298  0.7912  0.6856
12165SOL    HW242332   2.513   5.509   3.213  0.6144  0.0413 -1.0615
12166SOL     OW42333   2.111   8.988   6.170  0.0797  0.2833 -0.0307
12166SOL    HW142334   2.031   8.965   6.123  0.3453  2.7933 -1.9241
12166SOL    HW242335   2.182   8.961   6.111  0.5999 -0.5843  0.9649
12167SOL     OW42336  10.363   0.565   7.098  0.1597  0.3258 -0.2082
12167SOL    HW142337  10.439   0.509   7.109 -0.1589  0.1650  1.2742
12167SOL    HW242338  10.300   0.534   7.162  1.1715  4.3656  3.2009
12168SOL     OW42339   1.578   4.310   5.605  0.2102 -0.1384  0.2024
12168SOL    HW142340   1.567   4.272   5.518  0.6107  1.4151 -0.5722
12168SOL    HW242341   1.672   4.308   5.621  0.2977  1.0008 -0.0979
12169SOL     OW42342   8.623   5.485   8.415 -0.4094 -0.2473  0.0696
12169SOL    HW142343   8.704   5.472   8.463  0.1857 -0.5957 -0.9815
12169SOL    HW242344   8.581   5.399   8.415  0.8692 -0.9595 -2.2071
12170SOL     OW42345  10.831   8.394   2.207  0.7305 -0.1373  0.3269
12170SOL    HW142346  10.881   8.344   2.143  2.7792 -1.3831  2.6955
12170SOL    HW242347  10.860   8.484   2.196  2.2951 -0.5879  0.5061
12171SOL     OW42348   7.335   8.109   9.191 -0.4254 -0.1137  0.3736
12171SOL    HW142349   7.315   8.073   9.278  0.0331 -0.2921  0.4075
12171SOL    HW242350   7.254   8.098   9.142 -0.5781 -0.3434  0.6702
12172SOL     OW42351   8.532   3.048   9.420  0.3395 -0.1035 -0.0093
12172SOL    HW142352   8.587   2.970   9.428  1.4489  0.7464  1.0575
12172SOL    HW242353   8.567   3.094   9.344  0.2560 -0.2286 -0.1219
12173SOL     OW42354  10.020   2.460   8.029 -0.3267 -0.1786  0.2779
12173SOL    HW142355  10.114   2.447   8.036 -0.3715 -0.2424  0.8973
12173SOL    HW242356  10.009   2.527   7.962  0.0240 -1.7156 -1.4005
12174SOL     OW42357  10.239   6.900   0.691 -0.3677 -0.4282 -0.0157
12174SOL    HW142358  10.247   6.989   0.656  0.8276 -0.2905  0.5830
12174SOL    HW242359  10.327   6.863   0.684 -0.8706 -1.6132 -0.3469
12175SOL     OW42360   4.005   6.338   5.998  0.7166 -0.2265 -0.3486
12175SOL    HW142361   4.045   6.332   5.912 -0.2747 -2.1752 -0.7263
12175SOL    HW242362   3.978   6.430   6.006  1.6242  0.1730 -1.7212
12176SOL     OW42363   2.124   3.037   2.500  0.0712  0.2103  0.8523
12176SOL    HW142364   2.065   3.084   2.441  0.4869  0.0549  0.3110
12176SOL    HW242365   2.103   3.072   2.587 -0.1688  0.8255  0.5537
12177SOL     OW42366   6.080   4.276   0.703  0.4434  0.0404 -0.2455
12177SOL    HW142367   6.145   4.319   0.647 -0.3025  1.7705  0.1325
12177SOL    HW242368   6.013   4.343   0.717  0.6603 -0.2353  2.8377
12178SOL     OW42369  10.104   1.588   0.474  0.5133  0.2412  0.0184
12178SOL    HW142370  10.034   1.636   0.430 -0.4050 -1.7429 -0.8068
12178SOL    HW242371  10.161   1.559   0.403  0.4623 -0.7619  0.3715
12179SOL     OW42372   8.060   5.815   6.658 -0.8125 -0.1196 -0.6467
12179SOL    HW142373   8.030   5.751   6.722 -0.6563  0.5432  0.1019
12179SOL    HW242374   7.979   5.847   6.617 -1.1293  1.1799  0.9028
12180SOL     OW42375   1.559   1.385   5.344 -0.0493  0.1552  0.0722
12180SOL    HW142376   1.597   1.352   5.263 -1.1588 -0.4979 -0.2048
12180SOL    HW242377   1.606   1.339   5.413 -1.9920 -2.6697 -0.3001
12181SOL     OW42378   6.405   8.008   8.282 -0.2703 -0.2585 -0.4334
12181SOL    HW142379   6.490   8.049   8.267  0.0557 -0.1251  1.5083
12181SOL    HW242380   6.397   7.943   8.212  1.5744 -0.5056 -0.4585
12182SOL     OW42381   1.299   4.922   8.565  0.5020 -0.2470  0.0520
12182SOL    HW142382   1.383   4.879   8.547  0.3020 -0.9283  0.6616
12182SOL    HW242383   1.265   4.874   8.641 -0.9447 -0.7098 -0.8539
12183SOL     OW42384   1.381   8.775   0.306  0.1596  0.3376  0.4040
12183SOL    HW142385   1.371   8.710   0.237  1.0045  0.4758  0.1484
12183SOL    HW242386   1.294   8.779   0.347 -0.0097 -0.6667  0.1811
12184SOL     OW42387  10.920   9.369   3.158 -0.3784  0.5619 -0.2582
12184SOL    HW142388  10.957   9.422   3.088 -2.4001  2.1645 -0.2029
12184SOL    HW242389  10.872   9.299   3.113 -0.1959  0.5248 -0.3976
12185SOL     OW42390   8.713   8.887   4.834  0.3518 -0.5396 -0.5592
12185SOL    HW142391   8.710   8.977   4.867 -1.7598 -0.5918 -0.4763
12185SOL    HW242392   8.668   8.891   4.749  0.8979 -1.3926 -0.9031
12186SOL     OW42393   5.927   4.799   9.101  0.3100 -0.6346 -0.1183
12186SOL    HW142394   5.845   4.785   9.150  0.1957 -1.2980 -0.4888
12186SOL    HW242395   5.986   4.840   9.165 -0.1035 -0.7327  0.3354
12187SOL     OW42396   0.259   7.313   4.840  0.5584 -0.3643  0.0057
12187SOL    HW142397   0.315   7.265   4.779  1.1205  2.1144 -1.5286
12187SOL    HW242398   0.177   7.325   4.792  0.5225  0.4508  0.2691
12188SOL     OW42399   1.965   1.208   6.973  0.0792  0.2993 -0.8229
12188SOL    HW142400   1.903   1.260   7.024  0.8005 -0.3453  0.7457
12188SOL    HW242401   1.943   1.117   6.994  0.7819  0.0370 -1.2058
12189SOL     OW42402   1.727   5.151   6.363  0.1341 -0.1965 -0.0686
12189SOL    HW142403   1.715   5.239   6.328 -0.5633 -0.4517 -0.4977
12189SOL    HW242404   1.728   5.162   6.458 -1.1209  0.1428 -0.0804
12190SOL     OW42405   6.472   0.155   5.332 -0.4408  0.1714  0.1891
12190SOL    HW142406   6.544   0.176   5.273 -0.9547 -0.1935 -0.5778
12190SOL    HW242407   6.509   0.167   5.420  0.4094  0.4514 -0.1969
12191SOL     OW42408   3.662   2.585   8.634  0.6720 -0.6470  0.4205
12191SOL    HW142409   3.588   2.614   8.580 -0.2185 -1.0112  1.3857
12191SOL    HW242410   3.722   2.542   8.574  0.6631  0.6775 -0.5840
12192SOL     OW42411  10.727   1.709   6.166  0.1614 -0.2332  0.2435
12192SOL    HW142412  10.795   1.729   6.102 -1.0681  0.9930 -0.7733
12192SOL    HW242413  10.762   1.637   6.218  2.4411  0.7436  0.1513
12193SOL     OW42414   8.405   8.253   5.527 -0.3953  0.1560  0.7744
12193SOL    HW142415   8.496   8.281   5.532 -0.1870 -0.4456  0.4213
12193SOL    HW242416   8.379   8.270   5.436  0.4359 -2.8064 -0.1600
12194SOL     OW42417   6.587   3.080   6.619 -0.6685 -0.7359  0.4737
12194SOL    HW142418   6.637   3.005   6.651 -1.1681 -0.2240  2.6230
12194SOL    HW242419   6.497   3.060   6.642 -1.0857 -0.3700 -0.7873
12195SOL     OW42420   0.221   4.677   6.436 -0.1397 -0.1839  0.3343
12195SOL    HW142421   0.155   4.639   6.379  1.1156  0.9092 -2.0290
12195SOL    HW242422   0.216   4.627   6.517 -1.7183 -2.1422 -0.8947
12196SOL     OW42423   4.407   3.686   7.573  0.2424  0.2428 -0.3926
12196SOL    HW142424   4.410   3.592   7.557  0.7313  0.0964  0.4518
12196SOL    HW242425   4.333   3.699   7.632  1.1539  0.1312  0.8435
12197SOL     OW42426   6.154   4.822   5.728 -0.0471 -0.0446  0.2903
12197SOL    HW142427   6.209   4.892   5.693 -0.8730 -0.6768 -2.5221
12197SOL    HW242428   6.182   4.744   5.680 -3.4313 -0.3492 -1.4473
12198SOL     OW42429   2.120  10.845   7.363  0.2370  0.2222 -0.1970
12198SOL    HW142430   2.104  10.939   7.355 -0.3535  0.1793  0.3785
12198SOL    HW242431   2.078  10.820   7.446  2.9513  0.0019  1.2321
12199SOL     OW42432   5.874   5.902   7.290  0.1834  0.2041 -0.1259
12199SOL    HW142433   5.792   5.880   7.246  0.7192 -2.1908 -0.0610
12199SOL    HW242434   5.859   5.990   7.325 -1.5136  0.7676 -2.0454
12200SOL     OW42435   5.408   7.074   8.433  0.6810 -0.0898 -0.0850
12200SOL    HW142436   5.431   7.065   8.526 -1.2525 -1.4983  0.3178
12200SOL    HW242437   5.365   7.160   8.427  1.9749  0.5904  0.0204
12201SOL     OW42438   8.413   2.707   8.009  0.1193  0.5557 -0.6705
12201SOL    HW142439   8.393   2.688   7.917 -0.4058 -2.9090  0.0136
12201SOL    HW242440   8.328   2.715   8.051  0.2963 -0.6563 -0.0483
12202SOL     OW42441   7.180   4.449  10.774 -0.0849 -0.4781 -0.1638
12202SOL    HW142442   7.184   4.468  10.868 -0.6793 -1.1486  0.0072
12202SOL    HW242443   7.187   4.534  10.731  2.1063 -0.2853  0.4230
12203SOL     OW42444   5.665   0.824   8.651  0.6550  0.4395  0.1323
12203SOL    HW142445   5.722   0.787   8.718  1.8034  0.2340 -0.9268
12203SOL    HW242446   5.597   0.758   8.637 -0.8476  1.3570  2.5403
12204SOL     OW42447   1.945   8.652   4.497 -0.3539  0.3635  0.2632
12204SOL    HW142448   1.854   8.682   4.490 -0.9492 -1.6411 -1.4919
12204SOL    HW242449   1.955   8.631   4.590 -1.0345  2.3636  0.8517
12205SOL     OW42450   8.178   0.397   3.376  0.5117 -0.1715  0.4035
12205SOL    HW142451   8.227   0.349   3.310  1.4295 -0.3451  1.1877
12205SOL    HW242452   8.095   0.350   3.384  0.0550  0.2962 -1.1498
12206SOL     OW42453   5.185   8.549   1.341  0.4940 -0.9040  0.0273
12206SOL    HW142454   5.211   8.457   1.350 -1.2389 -1.4107  0.2814
12206SOL    HW242455   5.133   8.553   1.261 -1.5264 -0.7243  1.2476
12207SOL     OW42456   9.208   4.380   1.380 -0.6331 -0.0739  0.5840
12207SOL    HW142457   9.154   4.396   1.303  0.5172  0.4137 -0.1423
12207SOL    HW242458   9.161   4.424   1.451 -1.3141  0.1303  0.0211
12208SOL     OW42459   6.356  10.123  10.205 -0.1381  0.4273  0.2745
12208SOL    HW142460   6.279  10.123  10.262 -1.3180 -0.6412 -1.2378
12208SOL    HW242461   6.428  10.095  10.262 -1.4201 -1.3595  1.0969
12209SOL     OW42462   8.741   6.503   9.618 -0.2342 -0.2489  0.2339
12209SOL    HW142463   8.793   6.425   9.602 -0.8164 -0.8734  1.2677
12209SOL    HW242464   8.719   6.536   9.531  1.8869  0.0641 -0.2185
12210SOL     OW42465   5.058   5.049   4.493 -0.8905 -0.1567 -0.0411
12210SOL    HW142466   4.966   5.028   4.480 -0.5392 -1.1791 -0.9689
12210SOL    HW242467   5.099   5.036   4.408 -0.0617  1.3429  0.0810
12211SOL     OW42468   7.227   3.890  10.865  0.4412  0.2952  0.8787
12211SOL    HW142469   7.171   3.951  10.817 -0.2777 -1.3665 -0.4629
12211SOL    HW242470   7.316   3.913  10.838  0.1001 -0.0368 -0.5911
12212SOL     OW42471   4.315   9.597   4.539 -0.0843  0.2634 -0.6317
12212SOL    HW142472   4.264   9.620   4.616  0.9251  0.0448  0.1242
12212SOL    HW242473   4.369   9.674   4.522  0.7995 -0.2414 -0.1828
12213SOL     OW42474   5.300   7.325   6.139  0.1914  0.7259  0.1173
12213SOL    HW142475   5.334   7.291   6.222 -0.5174  2.4713  1.1853
12213SOL    HW242476   5.299   7.420   6.150 -1.2071  0.9454 -1.3805
12214SOL     OW42477  10.246   4.683  10.820 -0.0520  0.1839  0.1604
12214SOL    HW142478  10.261   4.682  10.725  2.1369 -1.1302  0.4252
12214SOL    HW242479  10.165   4.634  10.832 -0.5696  0.7081 -1.0441
12215SOL     OW42480   2.255   4.553   9.035 -0.0488  0.0333  0.4784
12215SOL    HW142481   2.224   4.465   9.012 -1.2675  0.1703  1.4728
12215SOL    HW242482   2.281   4.546   9.127  0.8477  0.4664  0.2645
12216SOL     OW42483   1.210   7.327   7.176  0.0054  0.4860 -0.4581
12216SOL    HW142484   1.197   7.399   7.114  1.5270  1.5970  0.4539
12216SOL    HW242485   1.269   7.266   7.131 -0.5307  0.2492 -0.8617
12217SOL     OW42486  10.825   1.616   7.797  0.2759 -0.0725  0.3033
12217SOL    HW142487  10.747   1.620   7.852  0.8954  2.3579  1.1085
12217SOL    HW242488  10.898   1.615   7.858  0.9696  2.4099 -0.3643
12218SOL     OW42489   5.728   7.516   1.098 -0.2919 -0.2482  0.0386
12218SOL    HW142490   5.634   7.495   1.099 -0.2656 -0.5928 -1.5719
12218SOL    HW242491   5.769   7.440   1.057  0.5138  0.5323 -0.6401
12219SOL     OW42492   3.494   5.531   9.899 -0.1860  0.2974  0.2428
12219SOL    HW142493   3.583   5.511   9.869  0.2641  3.0634 -0.5048
12219SOL    HW242494   3.438   5.497   9.829  0.3515 -0.1760  0.0237
12220SOL     OW42495   4.470   3.137   9.288 -0.6860 -0.1813 -0.1491
12220SOL    HW142496   4.393   3.095   9.326 -0.5737  0.8748  1.3429
12220SOL    HW242497   4.499   3.199   9.355  0.9484  0.0742 -1.0380
12221SOL     OW42498   9.479   9.988  10.748  0.3480  0.0454  0.2875
12221SOL    HW142499   9.406   9.950  10.699  0.6733 -0.0540 -0.1208
12221SOL    HW242500   9.479   9.941  10.832  0.2578 -0.3015  0.0918
12222SOL     OW42501   7.124   1.891  10.356 -0.3973 -0.2747  0.1578
12222SOL    HW142502   7.208   1.868  10.395 -0.2501  0.3610  0.2194
12222SOL    HW242503   7.137   1.978  10.319 -0.4420 -0.9868 -1.6059
12223SOL     OW42504   6.708   5.422   6.934 -0.1677  0.8739  0.7046
12223SOL    HW142505   6.791   5.414   6.886 -0.7458  0.7279 -0.2959
12223SOL    HW242506   6.717   5.362   7.008  0.1405 -0.0907 -0.1033
12224SOL     OW42507   0.998   2.145   6.862  0.0148  0.0027  0.1383
12224SOL    HW142508   0.994   2.241   6.863  0.2365  0.0264  2.1447
12224SOL    HW242509   1.085   2.125   6.829  0.4596  0.5421  0.9514
12225SOL     OW42510   1.615  10.222   6.902 -0.2197 -0.1612 -0.0469
12225SOL    HW142511   1.584  10.313   6.903 -0.1774 -0.0805 -2.0659
12225SOL    HW242512   1.658  10.211   6.986 -0.1570  1.7163  0.2215
12226SOL     OW42513  10.327   5.104   5.772 -1.1754  0.1058 -0.6398
12226SOL    HW142514  10.356   5.167   5.706 -1.3091 -0.3195 -1.1110
12226SOL    HW242515  10.403   5.047   5.785 -0.3875  1.4680  1.1753
12227SOL     OW42516   8.549  10.701   7.450  0.2373 -0.1640  0.1943
12227SOL    HW142517   8.628  10.749   7.473 -0.3425  0.1946  1.5028
12227SOL    HW242518   8.579  10.636   7.386  1.3650  0.7100 -0.1994
12228SOL     OW42519  10.443   8.458   0.131  0.5717 -0.0324 -0.6232
12228SOL    HW142520  10.369   8.510   0.164 -1.0853 -2.9447  0.6174
12228SOL    HW242521  10.482   8.513   0.064 -2.7724  1.6862 -1.4019
12229SOL     OW42522   2.838   0.283  10.855  0.1510  0.5150  0.3156
12229SOL    HW142523   2.772   0.214  10.865  0.3165  0.0185 -1.6415
12229SOL    HW242524   2.919   0.242  10.888  0.3243 -0.4010 -1.1599
12230SOL     OW42525   6.976   6.383   5.779 -0.6461  0.2621  0.2608
12230SOL    HW142526   6.893   6.411   5.743 -0.5045  0.1170 -0.1856
12230SOL    HW242527   7.041   6.408   5.714 -0.5001 -0.9420 -0.0887
12231SOL     OW42528  10.567   6.045   5.447  0.7568 -0.2995  0.2894
12231SOL    HW142529  10.534   6.026   5.535  0.3534 -0.9964 -0.0009
12231SOL    HW242530  10.518   6.123   5.419 -0.9974 -1.5525 -0.2908
12232SOL     OW42531   3.793   6.274   1.862 -0.6970  0.4717 -0.0089
12232SOL    HW142532   3.711   6.292   1.817 -1.0999  1.1031  0.9476
12232SOL    HW242533   3.817   6.357   1.902 -0.2465 -0.0203  0.7682
12233SOL     OW42534   6.442   5.944   9.245  0.2677 -0.1173  0.8567
12233SOL    HW142535   6.477   6.032   9.258  1.4987 -0.3583 -0.4520
12233SOL    HW242536   6.520   5.891   9.224 -0.7154 -0.9994 -0.7435
12234SOL     OW42537   9.569   1.591   8.922  0.1944 -0.0445  0.1862
12234SOL    HW142538   9.544   1.512   8.876 -0.3893 -0.4023  1.1069
12234SOL    HW242539   9.535   1.662   8.868  0.5332 -0.4135 -0.5289
12235SOL     OW42540   4.657   5.100   8.653  0.1484 -0.4788 -0.0032
12235SOL    HW142541   4.729   5.048   8.689  0.5931 -0.3312 -0.6736
12235SOL    HW242542   4.671   5.188   8.687  0.0532 -0.5426  0.1986
12236SOL     OW42543   9.024   3.732   2.780  0.0547  0.8063  0.5026
12236SOL    HW142544   9.116   3.732   2.752 -0.7664 -1.1596 -2.7665
12236SOL    HW242545   9.013   3.649   2.825 -0.4976  0.0554 -0.9419
12237SOL     OW42546  10.347   1.207   4.199  0.2210  0.2411 -0.2237
12237SOL    HW142547  10.442   1.213   4.208  0.5500  0.8573 -3.0076
12237SOL    HW242548  10.312   1.250   4.277  2.2649  1.7906 -0.0850
12238SOL     OW42549   4.151   1.002   0.468 -0.0319 -0.1266  0.3808
12238SOL    HW142550   4.072   1.045   0.438  0.0121  0.2960  0.8716
12238SOL    HW242551   4.211   1.007   0.393 -1.0020 -1.8730 -0.5750
12239SOL     OW42552   6.016   4.759   4.295  0.1419  0.7236  0.2894
12239SOL    HW142553   6.028   4.853   4.312  1.5664  0.4661  0.8142
12239SOL    HW242554   5.952   4.756   4.224  2.0011  2.1985 -1.5493
12240SOL     OW42555   0.940   0.068   6.484 -0.2729  0.0357  0.3928
12240SOL    HW142556   1.011   0.116   6.440  0.4394  0.7530  2.2168
12240SOL    HW242557   0.896   0.020   6.414  1.4068  0.3498 -0.9361
12241SOL     OW42558   3.745   4.846   0.876  0.2318 -0.3541 -0.4253
12241SOL    HW142559   3.831   4.844   0.919 -0.9013  0.0235  2.0229
12241SOL    HW242560   3.696   4.776   0.918 -0.8613 -0.2113 -1.4172
12242SOL     OW42561   5.602   2.828   9.223 -0.5303 -0.0804  0.2872
12242SOL    HW142562   5.676   2.781   9.261 -0.5581 -0.2571  0.1221
12242SOL    HW242563   5.525   2.782   9.254 -0.5467 -0.3422 -0.1420
12243SOL     OW42564   0.591   3.399   2.199 -0.5223 -0.1758  0.2263
12243SOL    HW142565   0.641   3.348   2.262  0.4775 -1.6835 -1.6679
12243SOL    HW242566   0.516   3.342   2.177 -0.6810  0.1854 -0.1768
12244SOL     OW42567  10.301   6.236   4.734 -0.3550 -0.1203 -0.1576
12244SOL    HW142568  10.254   6.267   4.657  0.3002  1.3235 -0.0063
12244SOL    HW242569  10.360   6.168   4.700  1.6636  2.1321 -1.4313
12245SOL     OW42570   3.700   5.781   4.412 -0.3344  0.3647 -0.5071
12245SOL    HW142571   3.628   5.722   4.431 -0.5725  0.6420 -0.5482
12245SOL    HW242572   3.688   5.854   4.472  0.8008 -0.3056  0.5943
12246SOL     OW42573   5.092   7.178   3.994 -0.5745 -0.0800 -0.4277
12246SOL    HW142574   5.156   7.126   4.042 -1.0866  0.4189  0.8470
12246SOL    HW242575   5.034   7.212   4.062 -3.0537 -1.6424 -1.6320
12247SOL     OW42576   5.440   5.990   6.061 -0.3037  0.2831 -0.3208
12247SOL    HW142577   5.371   5.931   6.031  0.9042 -0.6967 -1.2967
12247SOL    HW242578   5.449   5.971   6.155 -3.1471  2.3634  0.5097
12248SOL     OW42579   9.809   3.999   5.261 -0.3230 -0.0482  0.1147
12248SOL    HW142580   9.749   3.942   5.309  0.0559  0.4637  1.2303
12248SOL    HW242581   9.767   4.085   5.263 -0.1518  0.0441 -0.2049
12249SOL     OW42582  10.429   5.192   2.631 -0.0253 -0.2560 -0.0175
12249SOL    HW142583  10.434   5.098   2.648 -0.0800 -0.0585  1.1795
12249SOL    HW242584  10.518   5.224   2.647 -0.0917 -0.0454 -0.0701
12250SOL     OW42585   0.497   7.675   0.585 -0.1912  0.3456  0.6023
12250SOL    HW142586   0.458   7.759   0.563 -0.5650 -0.1256 -0.5880
12250SOL    HW242587   0.491   7.623   0.505 -0.0982 -0.8670  1.3471
12251SOL     OW42588   1.868   8.478   8.643  0.1106  0.3364 -0.2505
12251SOL    HW142589   1.963   8.490   8.651  0.0183  0.7266  0.3923
12251SOL    HW242590   1.831   8.534   8.711 -0.4951 -1.4590  0.9859
12252SOL     OW42591   0.623   1.029  10.573  0.3489  0.1641 -0.1529
12252SOL    HW142592   0.559   0.980  10.521 -0.8835  1.5164  0.0160
12252SOL    HW242593   0.693   0.967  10.590 -2.1118 -2.2971  1.9588
12253SOL     OW42594   2.597   4.022   4.272  0.1343  0.2523 -0.2854
12253SOL    HW142595   2.540   4.046   4.199  0.1115 -2.6313 -1.3505
12253SOL    HW242596   2.682   4.004   4.231  1.2698  2.3905  0.9927
12254SOL     OW42597   6.600   8.212   9.319  0.1265  0.1533 -0.0451
12254SOL    HW142598   6.583   8.124   9.286  0.0372  0.6153 -1.2941
12254SOL    HW242599   6.591   8.205   9.414 -2.1703 -0.6904 -0.2780
12255SOL     OW42600   0.403   6.073   9.742 -0.0686  0.1508  0.1894
12255SOL    HW142601   0.430   6.165   9.741  0.5161  0.0128 -1.9384
12255SOL    HW242602   0.468   6.029   9.687 -0.5141 -1.5017  0.9284
12256SOL     OW42603   3.464   2.298   9.727  0.3390  0.1167 -0.4748
12256SOL    HW142604   3.486   2.247   9.649 -2.0535 -1.7750 -0.0269
12256SOL    HW242605   3.504   2.250   9.799  0.4286  0.4719 -0.2842
12257SOL     OW42606   0.654  10.660  10.823 -0.3681 -0.0472 -0.0949
12257SOL    HW142607   0.667  10.592  10.889 -1.1025  0.2856  0.4090
12257SOL    HW242608   0.628  10.613  10.744  1.1918 -0.5051 -0.3646
12258SOL     OW42609   1.897   0.917   9.845  0.2980 -0.8251  0.0434
12258SOL    HW142610   1.868   0.997   9.802  0.4317 -1.4727 -1.2952
12258SOL    HW242611   1.885   0.848   9.779  4.2230 -1.2856 -0.4666
12259SOL     OW42612   4.261   2.721   6.721 -0.0474 -0.0310  0.0179
12259SOL    HW142613   4.309   2.753   6.798 -1.0982  1.5103  0.0938
12259SOL    HW242614   4.308   2.757   6.646  2.1273 -3.1202 -0.2604
12260SOL     OW42615   2.927   1.340   7.035 -0.4748  1.0562  0.2054
12260SOL    HW142616   2.886   1.354   7.120 -0.2583 -1.0069  0.7002
12260SOL    HW242617   2.979   1.260   7.046  0.7940  1.5863 -1.4388
12261SOL     OW42618   8.436   4.816   2.181  0.1097  0.7308  0.0514
12261SOL    HW142619   8.421   4.847   2.092  1.8236  1.6958  0.0584
12261SOL    HW242620   8.492   4.739   2.171 -1.7338 -0.7156  0.2098
12262SOL     OW42621   7.992   1.751  10.785 -0.3884 -0.4584 -0.0445
12262SOL    HW142622   7.998   1.738  10.880  0.7233  1.5476  0.2137
12262SOL    HW242623   8.073   1.714  10.750 -0.7375 -1.0764 -0.2229
12263SOL     OW42624   9.501   9.321   8.373 -0.0549 -0.0748  0.6136
12263SOL    HW142625   9.596   9.308   8.367  0.0517  0.8327  0.3059
12263SOL    HW242626   9.474   9.347   8.285 -0.5487 -0.0153  0.7800
12264SOL     OW42627   7.038   5.101   1.970 -0.2091 -0.7417 -0.0236
12264SOL    HW142628   6.982   5.160   2.020  0.0660 -0.8553  0.4154
12264SOL    HW242629   7.057   5.150   1.889  0.1493 -0.1591  0.4060
12265SOL     OW42630   4.390   5.076   1.354 -0.2894 -0.3986 -0.3659
12265SOL    HW142631   4.409   5.161   1.316 -0.3352 -0.3109 -0.1938
12265SOL    HW242632   4.452   5.016   1.313 -0.5098 -0.3531 -0.7739
12266SOL     OW42633   4.921   3.790   5.252 -0.5535 -0.2108 -0.1417
12266SOL    HW142634   4.914   3.860   5.317 -0.1406  0.0790 -0.4152
12266SOL    HW242635   4.917   3.709   5.304 -2.0806 -0.0233  0.0905
12267SOL     OW42636   3.126   5.602   1.244 -0.0606  0.4782  0.0885
12267SOL    HW142637   3.148   5.641   1.329  0.2300  0.2039  0.1395
12267SOL    HW242638   3.135   5.674   1.182  0.3727  0.5182  0.1959
12268SOL     OW42639   7.070   4.349   8.594  0.2513 -0.5637 -0.4604
12268SOL    HW142640   7.087   4.400   8.673 -0.0429  0.9845 -1.3460
12268SOL    HW242641   6.996   4.292   8.618 -0.6502  0.7611  0.0383
12269SOL     OW42642   2.535   6.606   6.773  0.8371  0.5928 -0.4184
12269SOL    HW142643   2.583   6.546   6.716 -1.3248 -1.0382 -0.6365
12269SOL    HW242644   2.448   6.613   6.733  0.5978  2.8876  0.3310
12270SOL     OW42645   3.843   5.658   3.927 -0.4448 -0.2497  0.4984
12270SOL    HW142646   3.754   5.691   3.912 -0.2560  0.3381  0.6275
12270SOL    HW242647   3.873   5.706   4.004  0.5778  0.7814 -0.4964
12271SOL     OW42648  10.565  10.252   4.542 -0.6669 -0.1667 -0.5569
12271SOL    HW142649  10.491  10.301   4.506 -0.6456  0.4861  0.2727
12271SOL    HW242650  10.535  10.161   4.543 -1.9399  0.2321  0.9204
12272SOL     OW42651   2.325   1.685   6.817 -0.2548  0.2036  0.5451
12272SOL    HW142652   2.394   1.623   6.792 -0.7548 -0.3129  0.4357
12272SOL    HW242653   2.361   1.731   6.893  0.5504  0.5319 -0.0200
12273SOL     OW42654   1.672   9.567   4.458 -0.2150  0.1194 -0.0371
12273SOL    HW142655   1.646   9.608   4.376  1.2087 -0.5028 -0.8369
12273SOL    HW242656   1.656   9.474   4.444  1.7310 -0.2080 -0.3305
12274SOL     OW42657   8.918   1.167   1.692 -0.0699 -0.2350  0.0425
12274SOL    HW142658   8.962   1.200   1.613  2.8781 -2.9025  0.3347
12274SOL    HW242659   8.859   1.099   1.660  0.7592 -0.9745  0.0373
12275SOL     OW42660   0.935   2.051   4.003  0.5724  0.4222 -0.3291
12275SOL    HW142661   0.988   1.990   3.952  2.2445  2.0732 -0.6771
12275SOL    HW242662   0.923   2.007   4.087  1.0392 -0.7204 -0.8358
12276SOL     OW42663   3.809   7.262   4.169 -0.1766 -0.0353  0.4199
12276SOL    HW142664   3.792   7.295   4.080 -2.1992 -2.5804 -0.2921
12276SOL    HW242665   3.903   7.275   4.182  0.3525 -0.2015 -2.4249
12277SOL     OW42666   1.825   6.037   9.534  0.2785 -0.2004 -0.8853
12277SOL    HW142667   1.780   6.082   9.463 -0.4453 -1.6892 -1.4144
12277SOL    HW242668   1.783   5.951   9.538 -0.0658  0.0230  1.7114
12278SOL     OW42669   7.049   3.977   4.925  0.6062 -0.1486  0.5851
12278SOL    HW142670   7.082   3.911   4.865 -0.6246  0.6894 -1.0919
12278SOL    HW242671   7.121   3.991   4.987  2.0712 -0.7901 -0.9030
12279SOL     OW42672   5.032   7.148   2.934  0.8981  0.2495 -0.3456
12279SOL    HW142673   5.114   7.102   2.918  0.9736  0.3078 -0.1301
12279SOL    HW242674   5.006   7.181   2.848  0.7361 -0.3687 -0.5386
12280SOL     OW42675   8.586   0.541   4.571  0.0107  0.6570  0.3746
12280SOL    HW142676   8.539   0.623   4.553  1.3412  1.3900  0.1526
12280SOL    HW242677   8.535   0.499   4.641 -2.2292  0.3312 -1.3226
12281SOL     OW42678   7.241   7.187   2.640  0.0061 -0.0065  0.9618
12281SOL    HW142679   7.186   7.179   2.717  1.0164  1.1296  1.8530
12281SOL    HW242680   7.322   7.228   2.673  0.4182  0.5985 -0.7106
12282SOL     OW42681   7.895   9.352   8.547  0.7889  0.7269  0.1707
12282SOL    HW142682   7.970   9.411   8.543  0.7065  0.7764 -0.9667
12282SOL    HW242683   7.854   9.371   8.631  3.4233 -0.9998  2.0258
12283SOL     OW42684   7.071   4.638   9.294 -0.1804 -0.1313  0.1003
12283SOL    HW142685   7.007   4.570   9.310 -1.9842  0.7383 -2.7327
12283SOL    HW242686   7.043   4.712   9.349 -1.3070  0.0542 -0.7091
12284SOL     OW42687  10.744   7.682  10.618 -0.4150  0.2275  0.2332
12284SOL    HW142688  10.687   7.693  10.542 -0.4003  0.7643  0.2945
12284SOL    HW242689  10.748   7.769  10.657  0.7609  0.2832  0.0122
12285SOL     OW42690   4.842   2.352   5.492  0.7219  0.1701 -0.3589
12285SOL    HW142691   4.837   2.288   5.563 -2.4269  0.4680 -0.1563
12285SOL    HW242692   4.888   2.427   5.530  0.7822 -0.3999  0.7352
12286SOL     OW42693   2.084   8.074   3.994  0.4514  0.2855  0.2516
12286SOL    HW142694   2.147   8.002   3.996 -1.1357 -1.1414  1.9122
12286SOL    HW242695   1.999   8.032   3.983 -0.4752  1.9327  0.7911
12287SOL     OW42696   7.300   7.759   2.153  0.2142 -0.2085 -0.1192
12287SOL    HW142697   7.270   7.737   2.065 -1.9345 -0.6671  0.6632
12287SOL    HW242698   7.320   7.675   2.193 -0.2417 -0.1278  0.2901
12288SOL     OW42699   7.132   5.758   6.417  0.9731 -0.3344  0.2347
12288SOL    HW142700   7.037   5.771   6.412  1.0561 -0.3785 -2.3219
12288SOL    HW242701   7.144   5.663   6.415  1.1166 -0.2987 -0.5610
12289SOL     OW42702   9.845   5.715   5.722  0.4951  0.0408 -0.1436
12289SOL    HW142703   9.792   5.795   5.716 -0.2411 -0.4134  0.1424
12289SOL    HW242704   9.783   5.644   5.706  0.8389 -0.5542  1.0649
12290SOL     OW42705   7.274   3.142   9.545 -0.3785 -0.4012 -0.2801
12290SOL    HW142706   7.241   3.055   9.566  0.4485 -0.4303  1.0122
12290SOL    HW242707   7.322   3.131   9.463 -2.9822 -0.4687 -1.9244
12291SOL     OW42708  10.343   0.420   2.447  0.4810 -0.4837 -0.3292
12291SOL    HW142709  10.316   0.352   2.387 -0.5642  0.1766 -0.6344
12291SOL    HW242710  10.369   0.374   2.527 -2.3395 -1.1736  0.2985
12292SOL     OW42711   2.131   7.697   6.214 -0.1377  0.6250 -0.6564
12292SOL    HW142712   2.167   7.714   6.127  2.3269  1.4045  0.4396
12292SOL    HW242713   2.201   7.653   6.261 -0.5475  2.1913  1.5972
12293SOL     OW42714   0.782   6.419   2.067 -0.3373 -0.4347 -0.6679
12293SOL    HW142715   0.746   6.331   2.073 -0.2187 -0.5725 -1.8375
12293SOL    HW242716   0.754   6.452   1.982 -1.2923  1.0871  0.1688
12294SOL     OW42717   2.611  10.750   1.409  0.0170  0.5395 -0.1570
12294SOL    HW142718   2.677  10.733   1.476  0.1738  0.0368 -0.4347
12294SOL    HW242719   2.660  10.754   1.326 -0.0981  1.7056 -0.1951
12295SOL     OW42720  10.200  10.368   9.866 -0.2821 -0.5601  0.1175
12295SOL    HW142721  10.209  10.356   9.961  1.0494 -0.6545  0.0006
12295SOL    HW242722  10.153  10.451   9.856  3.7204  2.0903  0.9152
12296SOL     OW42723   6.940   6.080   8.836  0.1297  0.3629 -0.0980
12296SOL    HW142724   6.877   6.130   8.784 -0.1579  0.2846  0.1722
12296SOL    HW242725   6.942   6.124   8.920 -1.1913 -0.8859  0.6359
12297SOL     OW42726   5.786   4.669   2.125 -0.0633  0.0075 -0.7029
12297SOL    HW142727   5.693   4.687   2.135 -0.1709  0.6047 -2.4171
12297SOL    HW242728   5.822   4.678   2.213 -1.4923  0.5484 -0.1495
12298SOL     OW42729   6.492   5.919   9.974 -0.1118 -0.0246 -0.2243
12298SOL    HW142730   6.487   5.857  10.047  2.0108  0.3638  0.3400
12298SOL    HW242731   6.405   5.958   9.970 -0.6873 -1.0251  1.2173
12299SOL     OW42732   9.919   9.865   0.604  0.2021  0.4756  0.4106
12299SOL    HW142733   9.969   9.940   0.636  1.3959 -0.6207  1.2465
12299SOL    HW242734   9.911   9.807   0.680  1.1324 -1.1583 -0.6736
12300SOL     OW42735  10.429   5.103  10.404  0.2242 -0.2777  0.2179
12300SOL    HW142736  10.420   5.124  10.311  0.2098 -0.3099  0.2120
12300SOL    HW242737  10.483   5.024  10.406 -0.3796 -0.7036  0.1968
12301SOL     OW42738   8.301   6.642  10.502  0.7306  0.2757  0.0455
12301SOL    HW142739   8.249   6.597  10.568  0.8484  0.4588  0.2603
12301SOL    HW242740   8.237   6.688  10.448  0.6330  0.0906  0.0026
12302SOL     OW42741   8.219   7.270   5.362  0.3187 -0.3204  0.0358
12302SOL    HW142742   8.300   7.295   5.406 -0.1121 -0.1486  0.7462
12302SOL    HW242743   8.176   7.353   5.342  0.4253 -0.4036 -0.5586
12303SOL     OW42744   1.843   7.731   4.224  0.1612 -0.0390  0.3304
12303SOL    HW142745   1.766   7.699   4.178  1.9120  0.2107 -3.0756
12303SOL    HW242746   1.908   7.661   4.214  0.5909 -0.0877  2.7791
12304SOL     OW42747  10.439   1.330   4.651  0.2410  0.1733  0.1062
12304SOL    HW142748  10.383   1.399   4.615 -1.4871 -0.6570  1.0832
12304SOL    HW242749  10.426   1.336   4.746  2.0482  0.1066  0.3958
12305SOL     OW42750   3.039   4.365   2.093  0.1171  0.2099 -0.2543
12305SOL    HW142751   3.088   4.418   2.030 -1.7971  0.2513 -1.7744
12305SOL    HW242752   2.947   4.385   2.076 -0.5178 -0.4410  1.9975
12306SOL     OW42753   1.222   1.928   9.591 -0.6440 -0.0200  0.0401
12306SOL    HW142754   1.213   1.843   9.547 -1.6109 -1.1506  2.2742
12306SOL    HW242755   1.139   1.972   9.573 -0.8440 -0.2771  0.3280
12307SOL     OW42756   1.077   5.367   5.273 -0.3047  0.2034  0.2710
12307SOL    HW142757   1.100   5.440   5.330 -0.5532  0.5358 -0.0537
12307SOL    HW242758   1.114   5.390   5.187  1.7329 -1.1466  0.7062
12308SOL     OW42759  10.137   4.016   5.578  0.1282  0.4050  0.0817
12308SOL    HW142760  10.124   3.956   5.504  1.0577 -0.5534  0.6784
12308SOL    HW242761  10.067   3.995   5.639  0.0497  0.4038 -0.0082
12309SOL     OW42762   7.019   8.475   7.342  0.0682  0.3253  0.2631
12309SOL    HW142763   7.056   8.392   7.311 -0.8854  0.9077 -2.7698
12309SOL    HW242764   6.925   8.460   7.345 -0.0381  1.0202  0.6367
12310SOL     OW42765   9.810   0.133   9.930  0.1755 -0.1322  0.1053
12310SOL    HW142766   9.719   0.107   9.940 -0.0871  1.3011  2.0126
12310SOL    HW242767   9.840   0.155  10.018  1.8235  1.1224 -0.6845
12311SOL     OW42768   4.990   1.833   4.223 -0.1308 -0.2623 -1.1225
12311SOL    HW142769   4.975   1.886   4.144 -2.1904 -0.2671 -0.7784
12311SOL    HW242770   5.028   1.751   4.189 -1.6675 -0.5635 -2.2250
12312SOL     OW42771   9.867   2.084   7.792 -0.1235  0.3085 -0.1085
12312SOL    HW142772   9.787   2.070   7.844 -0.3507 -0.9213 -0.7553
12312SOL    HW242773   9.849   2.042   7.708  1.4135 -0.5150 -0.0675
12313SOL     OW42774   9.426   2.573  10.076  0.4648  0.5082  0.1009
12313SOL    HW142775   9.400   2.483  10.057 -0.8138  0.0154  3.4615
12313SOL    HW242776   9.505   2.587  10.023 -0.7214 -1.6294 -2.4505
12314SOL     OW42777   1.102   8.083   4.138 -0.0319  0.5561 -0.2006
12314SOL    HW142778   1.185   8.050   4.103 -0.1605  0.6920 -0.6427
12314SOL    HW242779   1.090   8.168   4.095  0.0576  0.9598  0.5658
12315SOL     OW42780   7.710   6.119   1.860  0.2234 -0.2480  0.0529
12315SOL    HW142781   7.739   6.188   1.800  0.6428 -0.1739  0.3340
12315SOL    HW242782   7.768   6.045   1.842  1.5965  0.3757  1.6151
12316SOL     OW42783   4.229  10.917   5.802 -0.3219 -0.2132  0.2440
12316SOL    HW142784   4.238  10.905   5.896 -0.8969 -0.3003  0.2939
12316SOL    HW242785   4.286  10.991   5.781  0.7532 -0.9630  0.4583
12317SOL     OW42786   0.150   5.050   3.215  0.6331 -0.0012 -0.7934
12317SOL    HW142787   0.096   5.122   3.249  0.8584  0.3997 -1.2763
12317SOL    HW242788   0.094   4.973   3.222  0.4001  0.2110 -0.2354
12318SOL     OW42789   8.400   2.219   1.967 -0.2193 -1.1116 -0.2198
12318SOL    HW142790   8.319   2.255   1.929 -1.0037 -1.2693  1.2583
12318SOL    HW242791   8.380   2.128   1.986  0.1693 -1.0534  0.5164
12319SOL     OW42792   7.275   4.485   5.336 -0.5696  0.3439  0.8949
12319SOL    HW142793   7.239   4.480   5.247  2.7100 -1.7183 -0.5244
12319SOL    HW242794   7.299   4.577   5.348 -1.4911  0.7389 -0.1695
12320SOL     OW42795   7.834   1.303   2.930  0.3367 -0.4326 -0.2319
12320SOL    HW142796   7.751   1.257   2.941  0.2370 -0.2868 -0.3692
12320SOL    HW242797   7.891   1.241   2.885 -0.2085  0.0233 -1.5970
12321SOL     OW42798   5.675   9.224   4.384 -0.2716  0.5227 -0.3511
12321SOL    HW142799   5.647   9.249   4.297 -0.4140 -0.3341 -0.5569
12321SOL    HW242800   5.766   9.194   4.373 -0.6997 -0.8171 -0.4500
12322SOL     OW42801   9.738   4.767   9.008 -0.6061  0.2250  0.0048
12322SOL    HW142802   9.687   4.704   9.059  0.5461 -0.3734  0.4511
12322SOL    HW242803   9.676   4.837   8.987 -1.3293  0.0520  1.4667
12323SOL     OW42804   4.805   9.064   3.713  0.0048  0.1831  0.1795
12323SOL    HW142805   4.773   8.974   3.709 -0.9485  0.4278  1.6921
12323SOL    HW242806   4.751   9.111   3.650 -0.1452 -0.0980  0.0955
12324SOL     OW42807   7.938   7.995   3.111  0.3413 -0.0222  0.0982
12324SOL    HW142808   7.940   7.915   3.058 -1.8516 -0.4062  0.4737
12324SOL    HW242809   7.966   8.064   3.050  0.5323 -0.8281 -0.7602
12325SOL     OW42810   8.072   1.193   3.457  0.1817 -0.1011  0.1996
12325SOL    HW142811   8.119   1.134   3.398  0.8547 -1.7654  2.2813
12325SOL    HW242812   8.073   1.149   3.541 -2.0579  1.4928  1.1656
12326SOL     OW42813   4.815   4.172   1.919 -0.0466 -0.0732 -0.3825
12326SOL    HW142814   4.882   4.129   1.866 -1.5539 -1.6636 -1.0914
12326SOL    HW242815   4.737   4.171   1.865 -0.8224  1.2244  0.6420
12327SOL     OW42816   2.167   6.277   3.618  0.1666  0.5018  0.8081
12327SOL    HW142817   2.122   6.326   3.687 -1.2040  2.0508 -1.0703
12327SOL    HW242818   2.118   6.196   3.609 -1.1978  1.3624  0.0616
12328SOL     OW42819   9.685   7.293   8.258  0.4441 -0.6022 -0.5707
12328SOL    HW142820   9.641   7.375   8.281 -0.6709 -0.7712 -1.9344
12328SOL    HW242821   9.659   7.232   8.327  1.2420  0.1451  0.4302
12329SOL     OW42822  10.731   6.732   2.513 -0.1981 -0.2127  0.2291
12329SOL    HW142823  10.744   6.753   2.421 -2.7544 -1.3947 -0.4826
12329SOL    HW242824  10.816   6.698   2.542  1.1026  1.6167 -1.2056
12330SOL     OW42825   3.203   8.030   8.378  0.5590 -0.1816 -0.6616
12330SOL    HW142826   3.162   8.050   8.294  1.1531 -0.5795 -1.0589
12330SOL    HW242827   3.256   7.952   8.360  0.6921 -0.2649  0.0813
12331SOL     OW42828   3.403  10.050   2.663 -0.6858 -0.2364 -0.0256
12331SOL    HW142829   3.400  10.082   2.754  1.2750  3.0529 -0.9481
12331SOL    HW242830   3.487  10.004   2.657 -0.3046  0.5013 -0.4154
12332SOL     OW42831   6.209   0.115   2.952 -0.3543 -0.6202  0.1823
12332SOL    HW142832   6.239   0.173   2.882 -0.8722 -0.9487 -0.3177
12332SOL    HW242833   6.232   0.162   3.033 -1.4776  0.6555 -0.2114
12333SOL     OW42834  10.112   2.529   5.301  0.0028  0.3046  0.4622
12333SOL    HW142835  10.060   2.608   5.318  0.2019  0.5261  0.0308
12333SOL    HW242836  10.195   2.561   5.265 -0.7549 -0.1775 -1.8891
12334SOL     OW42837   0.655  10.355   0.561 -0.2255 -0.1467 -0.4056
12334SOL    HW142838   0.683  10.316   0.478 -1.4664 -2.0923  0.0432
12334SOL    HW242839   0.721  10.327   0.624  0.0431  0.3081 -0.4750
12335SOL     OW42840   9.265   7.036   0.929 -0.2322  0.0767 -0.0180
12335SOL    HW142841   9.350   6.997   0.909  0.8720  1.7345  1.1488
12335SOL    HW242842   9.233   6.987   1.005  0.5211  0.5360  0.6119
12336SOL     OW42843   9.735   8.269   7.313  0.3340 -0.4190 -0.5568
12336SOL    HW142844   9.701   8.348   7.271  0.0418 -0.2482 -0.0085
12336SOL    HW242845   9.658   8.212   7.323 -0.2698  0.6964  2.3622
12337SOL     OW42846   8.550   7.163   9.275  0.1931 -0.2288 -0.1173
12337SOL    HW142847   8.575   7.110   9.199 -1.6970 -0.8806 -0.3411
12337SOL    HW242848   8.540   7.099   9.346 -0.0906  0.0959  0.1386
12338SOL     OW42849   6.886   7.455   8.354  0.0723 -0.2331  0.2540
12338SOL    HW142850   6.946   7.529   8.348 -1.9671  1.4346 -0.8958
12338SOL    HW242851   6.897   7.408   8.271 -0.3092  0.1688 -0.0278
12339SOL     OW42852   6.848   1.369   9.339 -0.5202 -0.4158  0.1578
12339SOL    HW142853   6.798   1.411   9.269  3.4407 -1.3405 -3.6146
12339SOL    HW242854   6.824   1.276   9.334  0.3857 -0.6180 -0.6130
12340SOL     OW42855   6.379   3.962   4.732 -0.1451  0.2372  0.4430
12340SOL    HW142856   6.446   3.923   4.675  2.6931  1.2415  2.8098
12340SOL    HW242857   6.345   3.889   4.783  0.9354  0.0057  0.8615
12341SOL     OW42858   3.159   3.559   7.562  0.2366 -0.3377  0.2432
12341SOL    HW142859   3.093   3.591   7.501 -0.7583  1.1045  1.9547
12341SOL    HW242860   3.157   3.464   7.553 -1.0517 -0.2343 -0.7824
12342SOL     OW42861   9.994   4.800   2.207 -0.0484 -0.5665  0.3901
12342SOL    HW142862   9.996   4.709   2.176 -0.6327 -0.8311  1.0922
12342SOL    HW242863   9.902   4.825   2.204  0.3169  0.8124 -1.9777
12343SOL     OW42864   4.435   5.622   7.944 -0.1180  0.7973 -0.6292
12343SOL    HW142865   4.420   5.528   7.932 -2.1942  1.1349 -1.1496
12343SOL    HW242866   4.434   5.658   7.855 -1.7189  1.5774 -0.3306
12344SOL     OW42867   4.999   7.424   2.921 -0.9934 -0.0894  0.5707
12344SOL    HW142868   4.939   7.353   2.898  1.1157 -2.0088  0.6293
12344SOL    HW242869   5.042   7.447   2.838  2.0356 -2.5962  1.2702
12345SOL     OW42870   0.883   8.986   7.287  0.1364  0.0184 -0.7505
12345SOL    HW142871   0.914   8.969   7.376 -0.3823  2.9801  0.0892
12345SOL    HW242872   0.788   8.986   7.294  0.0473 -1.1225 -1.6501
12346SOL     OW42873   5.517   9.265   6.419 -0.2450 -1.3298  0.4254
12346SOL    HW142874   5.598   9.227   6.453  0.4588  0.0245  0.3504
12346SOL    HW242875   5.541   9.300   6.333 -1.0295 -1.3209  0.1980
12347SOL     OW42876   1.533   8.529   4.774 -0.4183  0.2962  0.8019
12347SOL    HW142877   1.473   8.585   4.725  0.6705  2.9659  2.2998
12347SOL    HW242878   1.488   8.445   4.781 -1.4640  0.3703 -2.9263
12348SOL     OW42879   5.424   6.302   8.233 -0.4297 -0.1288  0.6078
12348SOL    HW142880   5.439   6.384   8.186 -0.6561  0.4975  1.6034
12348SOL    HW242881   5.512   6.270   8.254 -0.3535  0.5046  1.2926
12349SOL     OW42882   0.261   6.131  10.792 -0.4440 -0.0110 -0.2516
12349SOL    HW142883   0.343   6.158  10.833  0.6047 -1.3915 -1.3635
12349SOL    HW242884   0.201   6.203  10.810  0.5836  0.4061  1.8012
12350SOL     OW42885   4.527   4.674  10.340  0.5135 -0.1091  0.0725
12350SOL    HW142886   4.533   4.745  10.276 -0.9919  0.7345  0.8208
12350SOL    HW242887   4.574   4.601  10.299 -0.1081  0.5063 -1.8435
12351SOL     OW42888   5.399  10.610   4.956  0.5218  0.3944 -0.1276
12351SOL    HW142889   5.439  10.529   4.926  0.3089  0.1946  0.1292
12351SOL    HW242890   5.371  10.654   4.875 -2.5638 -1.4065 -0.2086
12352SOL     OW42891   8.732   0.672   3.325  0.3345  0.1115  0.1000
12352SOL    HW142892   8.658   0.722   3.291 -0.7038 -0.8937  0.7932
12352SOL    HW242893   8.778   0.733   3.382  0.1702  0.8109 -0.4950
12353SOL     OW42894   2.508  10.282   7.194  0.1233  0.3212  0.5027
12353SOL    HW142895   2.420  10.272   7.158  0.0523 -1.8967  1.1905
12353SOL    HW242896   2.500  10.357   7.254 -1.3627 -0.0193  0.7746
12354SOL     OW42897   9.647   2.912   6.588  0.4346  0.1406 -0.4861
12354SOL    HW142898   9.637   2.945   6.677 -0.0927  1.0212 -0.8614
12354SOL    HW242899   9.742   2.901   6.577  0.4177 -1.9125  0.8449
12355SOL     OW42900   1.898   1.918   9.973 -0.4648  0.1651 -0.0796
12355SOL    HW142901   1.928   1.827   9.973 -1.8715 -0.3301  0.1131
12355SOL    HW242902   1.863   1.932   9.885  0.2175  0.6949 -0.2733
12356SOL     OW42903  10.843   1.948   1.603  0.1478  0.1001 -0.2349
12356SOL    HW142904  10.874   1.858   1.597 -0.4915 -0.2990  1.7278
12356SOL    HW242905  10.750   1.941   1.622  0.3631  1.1206  1.3899
12357SOL     OW42906   9.881   6.009  10.507 -0.6528  0.3093  0.2623
12357SOL    HW142907   9.928   5.954  10.445 -0.4506  0.1947  0.5186
12357SOL    HW242908   9.907   6.098  10.484 -0.7137  0.2781  0.0705
12358SOL     OW42909   1.150   0.994   2.273 -0.0771  0.2853  0.2103
12358SOL    HW142910   1.230   1.046   2.277  1.0505 -1.4256  1.7287
12358SOL    HW242911   1.094   1.039   2.210  1.6060  2.1843  0.0016
12359SOL     OW42912   1.659   0.347   5.210  0.5867 -0.6122  0.3433
12359SOL    HW142913   1.622   0.426   5.171  2.2529  0.2052  0.3332
12359SOL    HW242914   1.610   0.275   5.169  0.4023  0.3252 -1.1604
12360SOL     OW42915   2.582   2.492   0.652  0.0677  0.2891 -0.5423
12360SOL    HW142916   2.489   2.508   0.670  0.1409 -1.2809  1.6973
12360SOL    HW242917   2.582   2.435   0.576 -0.6730  1.5969 -1.5779
12361SOL     OW42918   4.495   7.422   7.340  0.3160 -0.0023 -0.8752
12361SOL    HW142919   4.567   7.486   7.331  0.6694 -0.5138 -1.7919
12361SOL    HW242920   4.508   7.384   7.426 -0.0272  1.3127 -0.2143
12362SOL     OW42921   0.528   0.466   3.563  0.0731 -0.1432 -0.2979
12362SOL    HW142922   0.512   0.503   3.649 -0.6732 -2.0115  0.4179
12362SOL    HW242923   0.440   0.450   3.527  0.3530 -1.5154 -0.4185
12363SOL     OW42924   8.421   1.223   7.555  0.1472  0.2869  0.2203
12363SOL    HW142925   8.508   1.223   7.596  0.5847  0.3284 -0.6959
12363SOL    HW242926   8.405   1.315   7.533  0.2276  0.1690 -0.3446
12364SOL     OW42927  10.589   3.825   2.895 -0.6023  0.1674  0.2906
12364SOL    HW142928  10.659   3.794   2.952 -1.0647  1.5734  1.7007
12364SOL    HW242929  10.521   3.857   2.955 -1.2422  1.4211 -1.0347
12365SOL     OW42930   7.817   9.824   5.008 -0.2542  0.4451  0.6093
12365SOL    HW142931   7.722   9.830   5.002 -0.0784  2.5855 -1.9923
12365SOL    HW242932   7.841   9.755   4.946 -0.0576  1.4070 -0.4286
12366SOL     OW42933   7.404   5.612   2.507  0.2116  1.0234 -0.1195
12366SOL    HW142934   7.434   5.681   2.447  1.4849  1.3887  0.9065
12366SOL    HW242935   7.452   5.534   2.480 -1.3277  0.4492 -1.3666
12367SOL     OW42936   4.124   1.524   8.681 -0.0712  0.1844  0.1621
12367SOL    HW142937   4.083   1.439   8.665  0.7047 -0.0738 -0.5479
12367SOL    HW242938   4.105   1.575   8.602 -0.5370  0.6813  0.5881
12368SOL     OW42939   5.671   8.200   8.616  0.4510 -0.2300  0.2508
12368SOL    HW142940   5.581   8.217   8.643  0.4298 -0.3810  0.2747
12368SOL    HW242941   5.697   8.122   8.665  0.9318  0.3953  1.0163
12369SOL     OW42942   2.724   7.392   3.220 -0.1740 -0.0220 -0.2094
12369SOL    HW142943   2.683   7.415   3.304 -0.4019  0.1233 -0.3585
12369SOL    HW242944   2.659   7.418   3.154 -0.3477 -0.8826 -0.3933
12370SOL     OW42945   6.953   1.096   6.725 -0.1766  0.0154  0.1220
12370SOL    HW142946   6.965   1.118   6.633 -0.8336  1.4566  0.3530
12370SOL    HW242947   6.858   1.091   6.737 -0.1040  0.0626  0.7729
12371SOL     OW42948   1.470   5.246   1.231  0.4110  0.3282  0.2219
12371SOL    HW142949   1.554   5.202   1.246 -0.5060 -0.8108  2.6075
12371SOL    HW242950   1.468   5.263   1.137  3.2777  0.3847  0.0938
12372SOL     OW42951   4.857   8.791   1.190  0.0342 -0.4756  0.1492
12372SOL    HW142952   4.799   8.861   1.159  1.2215  0.2053 -0.6107
12372SOL    HW242953   4.887   8.821   1.276  0.6834  0.0551 -0.2533
12373SOL     OW42954   6.593   3.226  10.588 -0.1852 -0.4260  0.1059
12373SOL    HW142955   6.670   3.206  10.641  0.6595 -2.2636 -1.6746
12373SOL    HW242956   6.585   3.321  10.593  2.0276 -0.1991  0.6335
12374SOL     OW42957   5.836   7.977   8.385 -0.3414  0.2621  0.2201
12374SOL    HW142958   5.796   8.040   8.325  0.8063  0.9467  0.1482
12374SOL    HW242959   5.793   7.993   8.469 -1.0262  0.1931 -0.1101
12375SOL     OW42960   2.500   1.259   9.287 -0.0518  0.0555  0.0783
12375SOL    HW142961   2.501   1.355   9.286 -0.4843  0.0982  1.4450
12375SOL    HW242962   2.592   1.234   9.283  0.0182  0.4585 -2.0224
12376SOL     OW42963   1.071   9.724   3.123  0.2678  0.0258  0.3965
12376SOL    HW142964   1.015   9.768   3.186 -0.4516 -1.1867  0.6369
12376SOL    HW242965   1.042   9.756   3.038  0.4363  0.7646  0.6151
12377SOL     OW42966   1.250   1.689   4.204  0.0020 -0.3313  0.5104
12377SOL    HW142967   1.175   1.702   4.146  1.2926  0.9299 -0.9884
12377SOL    HW242968   1.319   1.743   4.166  1.2942 -0.4056  2.5843
12378SOL     OW42969   4.727   5.496   9.616  0.1384  0.1144  0.0191
12378SOL    HW142970   4.737   5.483   9.522 -1.2583  1.7766 -0.3994
12378SOL    HW242971   4.693   5.585   9.625 -0.7601 -0.3773  2.0328
12379SOL     OW42972   4.621  10.025   8.489  0.0137  0.2400  0.5484
12379SOL    HW142973   4.599  10.085   8.418 -0.3583  3.0767  2.8832
12379SOL    HW242974   4.714  10.004   8.475 -0.4058 -0.5738 -1.5442
12380SOL     OW42975   5.769   5.492   1.246 -0.3687 -0.1413  0.0270
12380SOL    HW142976   5.677   5.483   1.222 -0.6028 -1.1353  1.1961
12380SOL    HW242977   5.785   5.419   1.306  1.5114 -0.7263 -1.1018
12381SOL     OW42978   3.524   2.128  10.793  0.3749  0.2965  0.0631
12381SOL    HW142979   3.545   2.097  10.705 -0.2220 -0.1146  0.0571
12381SOL    HW242980   3.609   2.149  10.832  0.7446 -0.6235 -0.2109
12382SOL     OW42981   1.192   6.998   7.753 -0.0515  0.1130  0.3750
12382SOL    HW142982   1.124   7.057   7.720  0.0071  0.7460  1.3465
12382SOL    HW242983   1.264   7.056   7.777  0.4229 -0.4562  0.3329
12383SOL     OW42984   5.097   5.472   6.540  0.7281  0.4624  0.0951
12383SOL    HW142985   5.097   5.445   6.632  0.7916  3.3711  1.0553
12383SOL    HW242986   5.012   5.443   6.507  1.1844 -1.6807  0.6734
12384SOL     OW42987  10.204   1.668   2.880 -0.0659  0.3141 -0.6488
12384SOL    HW142988  10.121   1.715   2.869 -0.7804 -1.0524 -1.3178
12384SOL    HW242989  10.179   1.582   2.913  1.0745 -0.1762 -1.0095
12385SOL     OW42990   0.047   3.316  10.726  0.2236 -0.4289  0.1024
12385SOL    HW142991   0.120   3.371  10.755  1.8372 -2.0434 -0.6652
12385SOL    HW242992   0.019   3.270  10.805 -0.9893  1.2273  0.7046
12386SOL     OW42993   8.243   2.018   6.795  0.5443 -0.1610 -0.2062
12386SOL    HW142994   8.174   2.035   6.860  0.6021 -3.6247  0.9547
12386SOL    HW242995   8.196   2.009   6.712  0.1190  1.3148 -0.1643
12387SOL     OW42996   7.239   7.065   7.450  0.0738  0.1778 -0.0344
12387SOL    HW142997   7.299   6.994   7.429 -0.3551 -0.0802 -0.4059
12387SOL    HW242998   7.178   7.028   7.513  0.9461  0.7578  1.2106
12388SOL     OW42999   9.548   6.895   1.555  0.0867 -0.4849  0.2533
12388SOL    HW143000   9.582   6.886   1.466 -2.3152 -0.1788 -0.7770
12388SOL    HW243001   9.576   6.983   1.582  0.7298 -0.5284 -0.2261
12389SOL     OW43002   9.694   8.889   6.045  0.7090 -0.1940  0.5940
12389SOL    HW143003   9.759   8.913   6.110  2.5963 -1.9280 -0.5504
12389SOL    HW243004   9.738   8.899   5.961 -1.2539  0.7531 -0.3883
12390SOL     OW43005   0.623   1.150   9.909 -1.0134 -0.1681  0.0199
12390SOL    HW143006   0.641   1.057   9.893 -0.9206 -0.5291  1.9463
12390SOL    HW243007   0.562   1.175   9.840 -0.5400 -1.4825 -0.9120
12391SOL     OW43008   8.942   7.590   9.158 -0.2421  0.0639 -0.2542
12391SOL    HW143009   8.973   7.536   9.231 -1.0920 -0.0637  0.0299
12391SOL    HW243010   8.846   7.591   9.168 -0.2486  1.7123 -0.1965
12392SOL     OW43011   4.739   4.101   6.083  0.1425 -0.8169  0.1896
12392SOL    HW143012   4.825   4.121   6.047 -0.0296  0.4464  0.4452
12392SOL    HW243013   4.680   4.102   6.007 -0.3033  2.3165  0.4629
12393SOL     OW43014   3.723   7.205   5.597  0.4044 -0.4994 -0.1393
12393SOL    HW143015   3.690   7.236   5.682  1.7090 -0.3122  0.3137
12393SOL    HW243016   3.811   7.242   5.590 -0.2973  0.9557 -2.3812
12394SOL     OW43017   3.190   1.651  10.069  0.0151  0.3997  0.0550
12394SOL    HW143018   3.238   1.611  10.142 -0.5051 -2.1333 -0.8824
12394SOL    HW243019   3.247   1.637   9.993 -0.2532  1.3964 -0.3412
12395SOL     OW43020   1.664  10.461   6.273 -0.4710  0.4406 -0.6451
12395SOL    HW143021   1.669  10.450   6.368  1.1330 -0.2375 -0.7742
12395SOL    HW243022   1.691  10.551   6.258  0.1594  0.2849 -0.4947
12396SOL     OW43023   9.637   7.101   1.734 -0.2003 -0.7209  0.2355
12396SOL    HW143024   9.585   7.058   1.802 -0.0504  0.6256  1.2480
12396SOL    HW243025   9.721   7.055   1.736 -0.5547 -1.3806  0.2151
12397SOL     OW43026   4.505   8.914   5.877  0.5255 -0.2982  0.0949
12397SOL    HW143027   4.506   8.919   5.782  0.7058 -1.0701  0.0479
12397SOL    HW243028   4.575   8.852   5.898  0.3492 -0.2907  0.7163
12398SOL     OW43029   7.519   7.949   4.644 -0.1917 -0.2225 -0.1939
12398SOL    HW143030   7.504   7.874   4.587  2.1403 -0.6406 -0.3625
12398SOL    HW243031   7.541   8.020   4.583  1.4791 -0.4582  0.0796
12399SOL     OW43032   0.882   8.066   0.249 -0.7970  0.4988 -0.2411
12399SOL    HW143033   0.835   8.140   0.210  0.7775  1.6168 -0.1052
12399SOL    HW243034   0.955   8.106   0.296  0.5644 -1.1873 -0.8213
12400SOL     OW43035   4.680   1.244   1.921  0.4161 -0.2303 -0.2650
12400SOL    HW143036   4.645   1.300   1.991  0.3830  1.8516 -1.8676
12400SOL    HW243037   4.759   1.289   1.891 -0.6319  0.0431 -2.8659
12401SOL     OW43038   1.223   1.854   7.073 -0.2373 -0.1661  0.2694
12401SOL    HW143039   1.140   1.889   7.041 -0.2548 -0.0516  0.4346
12401SOL    HW243040   1.222   1.873   7.167  0.7930  1.5384 -0.0192
12402SOL     OW43041   4.959   5.397   9.846 -0.0018 -0.1000  0.5549
12402SOL    HW143042   5.052   5.390   9.869 -0.0303 -0.3218  0.6025
12402SOL    HW243043   4.958   5.398   9.751 -0.0879 -2.1831  0.4884
12403SOL     OW43044  10.011   1.840   0.660  0.2342 -0.6645 -0.7179
12403SOL    HW143045  10.080   1.778   0.683 -0.0421 -0.1593  1.6975
12403SOL    HW243046   9.942   1.787   0.622  1.8586 -1.1948 -3.1542
12404SOL     OW43047   4.669   9.037  10.529 -0.1392 -0.0077 -0.2004
12404SOL    HW143048   4.629   9.123  10.543  0.1604  0.2317 -0.7826
12404SOL    HW243049   4.719   9.021  10.609  1.6160  1.3650 -0.9382
12405SOL     OW43050   1.399   4.972   5.097 -0.6348 -0.3696  0.2112
12405SOL    HW143051   1.481   5.009   5.065 -0.0230 -1.3919  0.5323
12405SOL    HW243052   1.353   5.046   5.137 -0.2736  0.3923 -0.7469
12406SOL     OW43053   8.585  10.854   8.009  0.2197  0.1962 -0.5482
12406SOL    HW143054   8.609  10.865   8.101 -1.6626  1.3267 -0.1397
12406SOL    HW243055   8.492  10.834   8.011 -0.5498  3.0820 -2.2918
12407SOL     OW43056   3.177   9.381   1.956  0.0181 -0.0973 -0.6168
12407SOL    HW143057   3.217   9.362   1.871 -0.4828  2.7085 -1.5834
12407SOL    HW243058   3.186   9.476   1.967 -0.0089 -0.3298  2.4681
12408SOL     OW43059   2.157   1.635   2.669  0.5343  0.3271 -0.2715
12408SOL    HW143060   2.147   1.727   2.695  1.5979  0.4704 -0.2958
12408SOL    HW243061   2.156   1.586   2.751 -1.0130  0.2441 -0.3233
12409SOL     OW43062   6.955   0.584   6.049  0.0348  0.3343  0.8804
12409SOL    HW143063   7.021   0.517   6.067 -1.0819 -0.9338  0.4192
12409SOL    HW243064   6.872   0.536   6.052 -0.6204  1.0996 -2.2245
12410SOL     OW43065   8.267   1.312   6.356 -0.3056  0.5215 -0.3391
12410SOL    HW143066   8.319   1.260   6.417 -0.7609  1.1988  0.6400
12410SOL    HW243067   8.255   1.254   6.280 -1.7704 -1.2859  1.1511
12411SOL     OW43068  10.687   7.757   0.736 -0.6228 -0.3136 -0.5520
12411SOL    HW143069  10.713   7.781   0.647 -3.2999  1.6101 -0.9342
12411SOL    HW243070  10.732   7.820   0.792  0.0378 -0.7054 -0.6271
12412SOL     OW43071   0.084   4.762   4.269 -0.8439 -0.5683 -0.6558
12412SOL    HW143072   0.179   4.773   4.258 -0.6978  1.0603  1.4922
12412SOL    HW243073   0.046   4.831   4.214 -0.8482 -1.6763 -2.0776
12413SOL     OW43074   4.012   3.814   9.215  0.5145 -0.2367 -0.1790
12413SOL    HW143075   4.027   3.887   9.154 -0.3186 -1.0431 -1.3903
12413SOL    HW243076   4.084   3.753   9.197 -0.2944 -0.9532 -1.1452
12414SOL     OW43077   0.628  10.519  10.558  0.4650  0.0460 -0.0562
12414SOL    HW143078   0.651  10.439  10.511  1.1322  0.4503 -0.4374
12414SOL    HW243079   0.565  10.563  10.501  0.2569 -0.1132  0.0543
12415SOL     OW43080   2.623   7.618   6.563 -0.2289 -0.1351  0.3498
12415SOL    HW143081   2.688   7.573   6.618 -0.3557  0.8344  1.3258
12415SOL    HW243082   2.548   7.631   6.621  0.7472  3.7227  1.0795
12416SOL     OW43083   6.161   0.291  10.491  0.0297 -1.4110  0.3470
12416SOL    HW143084   6.108   0.212  10.484 -0.1827 -1.2018 -0.4325
12416SOL    HW243085   6.098   0.363  10.491  0.2194 -1.2261  1.0764
12417SOL     OW43086   4.986   1.029   7.846  0.4595  0.1367  0.5837
12417SOL    HW143087   4.953   1.083   7.774  1.7675  4.1058  2.6421
12417SOL    HW243088   4.908   1.010   7.899 -0.7580 -3.9030 -2.1447
12418SOL     OW43089   0.745   9.981   0.512  0.2506 -0.2109 -0.1076
12418SOL    HW143090   0.741   9.962   0.418 -0.9714 -0.4876 -0.0228
12418SOL    HW243091   0.673   9.929   0.550  1.0970 -0.5640  1.0641
12419SOL     OW43092   7.715   6.725   4.196 -0.6481  0.2658  0.2402
12419SOL    HW143093   7.690   6.785   4.266 -1.7833  0.4273 -0.2744
12419SOL    HW243094   7.685   6.639   4.227 -1.9602  0.4637 -0.3891
12420SOL     OW43095   0.511   1.906   0.229  0.0172 -0.3407  0.1460
12420SOL    HW143096   0.538   1.833   0.173  0.0503  0.4015 -0.8362
12420SOL    HW243097   0.565   1.980   0.200  0.3255 -0.0283  1.4468
12421SOL     OW43098   4.719   5.473   0.852 -0.1979 -0.8086 -0.3765
12421SOL    HW143099   4.755   5.497   0.937  1.6483 -2.3532 -0.6410
12421SOL    HW243100   4.731   5.550   0.798 -0.7607 -0.0408  0.5650
12422SOL     OW43101   4.142   5.729   4.842 -0.3289  0.6629  0.4356
12422SOL    HW143102   4.127   5.734   4.936 -1.6601 -2.3902  0.5136
12422SOL    HW243103   4.062   5.766   4.803  0.3066  2.1152  0.4354
12423SOL     OW43104   5.331   7.636   8.997  0.2959  0.4154  0.2936
12423SOL    HW143105   5.255   7.603   9.043 -0.1238 -0.1830 -0.7899
12423SOL    HW243106   5.311   7.729   8.982  0.8402  0.8575  2.0604
12424SOL     OW43107   5.088   3.458   6.688 -0.0996 -0.2505 -0.2207
12424SOL    HW143108   5.088   3.527   6.622 -0.4880  0.9088  0.9619
12424SOL    HW243109   5.178   3.425   6.687  0.9114  2.2125  1.1466
12425SOL     OW43110   9.107   6.474   1.600  0.0963  0.3608 -0.1583
12425SOL    HW143111   9.017   6.448   1.580 -0.3283  0.8377  1.0245
12425SOL    HW243112   9.111   6.472   1.695  0.9323  1.6893 -0.1528
12426SOL     OW43113   4.603  10.509   5.960  0.3753 -0.6325 -0.0546
12426SOL    HW143114   4.665  10.581   5.955  0.2702 -0.3019  2.0907
12426SOL    HW243115   4.517  10.551   5.968  0.4667 -0.7795  3.2966
12427SOL     OW43116   8.960   5.474   0.156  0.0667 -0.1698  0.2172
12427SOL    HW143117   9.040   5.425   0.135  0.7040  0.9103  0.0552
12427SOL    HW243118   8.985   5.528   0.231 -0.3774  0.5221 -0.1286
12428SOL     OW43119   6.164   0.803   8.541  0.2990 -0.6672  0.0168
12428SOL    HW143120   6.072   0.818   8.518  0.4171  0.1241  0.0388
12428SOL    HW243121   6.195   0.738   8.477 -0.2009 -0.7545 -0.1434
12429SOL     OW43122  10.616   0.298   6.213  1.1061 -0.9297  0.4977
12429SOL    HW143123  10.571   0.217   6.193  2.2818 -1.2705 -0.8962
12429SOL    HW243124  10.598   0.355   6.138  1.6813 -0.5002  0.6805
12430SOL     OW43125   7.127   5.655   2.463 -0.0236 -0.2950 -0.0842
12430SOL    HW143126   7.087   5.624   2.382 -0.6582  1.1199 -0.3406
12430SOL    HW243127   7.211   5.609   2.468  0.3285  0.0891 -1.8921
12431SOL     OW43128   0.575   3.071   0.666 -0.6404  0.2627  0.2626
12431SOL    HW143129   0.520   3.140   0.704  0.3278  0.6302  1.0218
12431SOL    HW243130   0.556   3.075   0.572 -0.3122  1.8483  0.2409
12432SOL     OW43131   7.085   3.844   6.477  0.1585  0.2498  0.1806
12432SOL    HW143132   7.065   3.901   6.403  0.8244  0.3510  0.0703
12432SOL    HW243133   7.067   3.755   6.444 -0.3153  0.3502  0.1626
12433SOL     OW43134   4.729   3.062   9.479  0.5613  0.2324 -0.2087
12433SOL    HW143135   4.775   3.096   9.402  0.5048  0.5121 -0.1207
12433SOL    HW243136   4.681   2.986   9.446  1.7283 -0.5633 -0.1378
12434SOL     OW43137   5.919   7.196   1.523  0.0454  0.4928 -0.1284
12434SOL    HW143138   5.952   7.118   1.478  1.8087  1.5938 -0.8391
12434SOL    HW243139   5.825   7.180   1.533  0.3335 -1.6496 -0.3631
12435SOL     OW43140   5.511   0.291   9.742 -0.1724  0.1518 -0.4283
12435SOL    HW143141   5.584   0.352   9.738  1.4570 -1.7260 -0.8244
12435SOL    HW243142   5.551   0.204   9.733 -2.2837 -1.0637  0.8920
12436SOL     OW43143   4.419  10.135   3.848 -0.4779 -0.1842  0.1895
12436SOL    HW143144   4.444  10.225   3.830  0.4688 -0.3514  0.5891
12436SOL    HW243145   4.383  10.137   3.937 -1.3822 -0.0424 -0.1700
12437SOL     OW43146   9.689   1.665   3.195  0.5664  0.1413  0.2586
12437SOL    HW143147   9.713   1.729   3.261  1.0866 -0.3716  0.5756
12437SOL    HW243148   9.690   1.714   3.113  2.4700  0.2363  0.2838
12438SOL     OW43149   3.076  10.212   6.399 -0.6053 -0.0248 -0.1726
12438SOL    HW143150   3.138  10.193   6.328 -1.4741 -0.7245 -0.7730
12438SOL    HW243151   2.990  10.194   6.361 -1.1209  0.0242  0.9296
12439SOL     OW43152   0.366   3.974   4.374  0.6940 -0.1200  0.3923
12439SOL    HW143153   0.443   3.922   4.352  1.8351  0.5689  2.5524
12439SOL    HW243154   0.331   3.934   4.454 -0.6733  0.1524 -0.0322
12440SOL     OW43155   0.846   2.640   5.179  0.5436  0.3232 -0.0697
12440SOL    HW143156   0.932   2.599   5.169 -0.2665 -1.2679 -0.8248
12440SOL    HW243157   0.797   2.614   5.102 -1.2017 -0.2981  1.1813
12441SOL     OW43158   3.760   0.036   4.845 -0.4800  0.0090 -0.6183
12441SOL    HW143159   3.847   0.075   4.834 -0.6628  0.0772 -1.9722
12441SOL    HW243160   3.761   0.002   4.934  0.7868  0.3854 -0.4595
12442SOL     OW43161   1.806   6.874   2.418  0.2799 -0.6419  0.0103
12442SOL    HW143162   1.889   6.827   2.430 -0.8864 -2.3316  2.0654
12442SOL    HW243163   1.741   6.822   2.465 -2.1222  0.3005 -2.0083
12443SOL     OW43164   9.750   4.215   3.361 -0.0183 -0.0183  0.1366
12443SOL    HW143165   9.779   4.128   3.333 -1.7404 -0.2325 -1.1462
12443SOL    HW243166   9.821   4.248   3.415  1.9583 -1.0609 -1.6888
12444SOL     OW43167   6.207   3.977   2.520  0.1419  0.7059  0.3697
12444SOL    HW143168   6.198   4.025   2.603 -0.1068 -0.0826  0.8086
12444SOL    HW243169   6.139   4.013   2.464 -0.4715  0.4332  0.9181
12445SOL     OW43170   3.121   6.084   9.835  0.1131  0.3356 -0.0486
12445SOL    HW143171   3.041   6.117   9.794 -1.5179 -0.0670  2.5950
12445SOL    HW243172   3.191   6.140   9.799 -1.3913  1.1185 -1.9566
12446SOL     OW43173   8.531   2.154  10.558 -0.0072 -0.4714  0.0543
12446SOL    HW143174   8.564   2.106  10.634  0.4044 -0.0719  0.1338
12446SOL    HW243175   8.525   2.088  10.489  2.1221 -0.3479 -0.3118
12447SOL     OW43176   2.193   5.933   4.620  0.6611 -0.2030  0.7044
12447SOL    HW143177   2.264   5.996   4.637  0.3064 -0.3916  3.2697
12447SOL    HW243178   2.151   5.921   4.705 -1.6792 -1.0700 -0.4886
12448SOL     OW43179   9.424   2.789   6.982 -0.0792  0.3988 -0.1096
12448SOL    HW143180   9.496   2.851   6.977 -0.1067  0.3653 -1.0857
12448SOL    HW243181   9.465   2.703   6.971 -0.2558  0.3818 -0.7008
12449SOL     OW43182   9.334   4.693   3.885 -0.3098  0.0237  0.2045
12449SOL    HW143183   9.329   4.669   3.978 -1.6816  0.0765  0.1724
12449SOL    HW243184   9.291   4.779   3.881  0.7829  0.5567 -0.3157
12450SOL     OW43185   7.702   1.443   5.957  0.1402  0.0801  0.6223
12450SOL    HW143186   7.786   1.413   5.993 -0.6882  0.6918  3.3797
12450SOL    HW243187   7.657   1.364   5.930  0.8132 -0.4592  1.0411
12451SOL     OW43188   6.634   4.986   7.274  0.0468  0.1485 -0.6945
12451SOL    HW143189   6.638   5.057   7.339  0.7634 -0.8644  0.3946
12451SOL    HW243190   6.721   4.985   7.234  0.3241 -0.6669 -0.0899
12452SOL     OW43191  10.472   9.513   8.921  0.2317  0.2588 -0.4161
12452SOL    HW143192  10.506   9.583   8.865  0.8374  0.7955  0.5926
12452SOL    HW243193  10.440   9.559   8.999 -0.8219 -0.4532 -0.4126
12453SOL     OW43194   7.329   6.804  10.281  0.2237  0.4334 -0.3926
12453SOL    HW143195   7.420   6.795  10.309  0.0644 -2.0540 -0.4832
12453SOL    HW243196   7.331   6.789  10.186 -0.0950  2.2623 -0.7392
12454SOL     OW43197   0.631   7.786   2.667  0.6408  0.8479 -0.6239
12454SOL    HW143198   0.722   7.809   2.648  0.9771  0.5283  0.5104
12454SOL    HW243199   0.599   7.857   2.724  0.8099 -0.0080  0.5859
12455SOL     OW43200   5.943   0.964   1.206 -0.4773  0.2550  0.1556
12455SOL    HW143201   5.992   0.890   1.168 -1.4405 -0.3381  0.0498
12455SOL    HW243202   6.010   1.013   1.254 -0.1343 -1.8165  1.9736
12456SOL     OW43203   7.732  10.223   5.708 -0.9852  0.7085 -0.5699
12456SOL    HW143204   7.715  10.238   5.801 -1.6880 -0.9652 -0.3958
12456SOL    HW243205   7.809  10.167   5.707  0.2271  2.2953 -1.1122
12457SOL     OW43206   2.670   5.885   3.225 -0.0812 -0.7600  0.3570
12457SOL    HW143207   2.579   5.916   3.225 -0.1807 -1.0541 -0.1861
12457SOL    HW243208   2.664   5.792   3.206  0.3656 -0.6967 -0.0989
12458SOL     OW43209   9.484   1.597   4.708 -0.1698 -0.0304  0.3347
12458SOL    HW143210   9.472   1.519   4.763 -2.3712 -0.8450 -1.1349
12458SOL    HW243211   9.502   1.668   4.770 -2.3881 -0.9160  2.1626
12459SOL     OW43212   3.928   7.510   7.708  0.2510 -0.0540  0.1427
12459SOL    HW143213   3.959   7.599   7.724  0.5203 -0.5947  3.1273
12459SOL    HW243214   3.836   7.519   7.684  0.2219  0.9909  0.6415
12460SOL     OW43215  10.538   3.706   8.767 -0.4766  0.4025 -0.2144
12460SOL    HW143216  10.515   3.774   8.830  0.9762  1.3826 -0.6829
12460SOL    HW243217  10.622   3.734   8.732 -0.5195 -0.9282 -1.4630
12461SOL     OW43218   2.483   2.044   5.616  0.1487  0.4703 -0.2818
12461SOL    HW143219   2.542   2.109   5.578  1.1601 -1.4437 -2.2449
12461SOL    HW243220   2.516   2.032   5.705 -0.5682  3.1265  0.4378
12462SOL     OW43221   2.299   2.899  10.578 -0.3545 -0.3581 -0.3894
12462SOL    HW143222   2.291   2.940  10.664  0.1134 -0.5881 -0.2267
12462SOL    HW243223   2.234   2.943  10.523 -0.2182  0.2272 -0.0853
12463SOL     OW43224   5.736   0.281   9.466 -0.6825 -0.1734  0.3555
12463SOL    HW143225   5.647   0.253   9.444 -1.4609  0.9115  1.9160
12463SOL    HW243226   5.743   0.369   9.429 -0.1936 -0.3097  0.1170
12464SOL     OW43227   5.189   3.045   6.889  0.5246 -0.2440  0.6850
12464SOL    HW143228   5.212   3.046   6.796 -0.3062 -1.0233  0.4473
12464SOL    HW243229   5.115   3.105   6.896 -0.2374 -1.1457  0.5872
12465SOL     OW43230   9.505   9.387   8.626  0.2979  0.3341 -0.7740
12465SOL    HW143231   9.495   9.364   8.534  2.1623 -2.7632 -0.3288
12465SOL    HW243232   9.415   9.388   8.660 -0.6371  3.4606 -2.8691
12466SOL     OW43233   7.774   7.278   0.531 -0.0570 -0.4634 -0.1440
12466SOL    HW143234   7.788   7.183   0.528  1.5265 -0.2872  0.5914
12466SOL    HW243235   7.797   7.303   0.620  1.7631  0.8866 -0.9153
12467SOL     OW43236   9.178   2.045   5.837  0.3246 -0.2029  0.3351
12467SOL    HW143237   9.132   1.963   5.854 -3.0342  1.1612 -1.2692
12467SOL    HW243238   9.177   2.054   5.742 -2.2136  3.0333  0.5080
12468SOL     OW43239  10.181   3.730   6.905 -0.0483 -0.0196 -0.3693
12468SOL    HW143240  10.085   3.723   6.913  0.1364 -1.7158  0.8961
12468SOL    HW243241  10.206   3.786   6.978  0.0965 -1.4587  0.7238
12469SOL     OW43242   0.987   5.328  10.099 -0.1129  0.3374  1.0487
12469SOL    HW143243   0.979   5.408  10.150 -0.7077  0.8354  0.2064
12469SOL    HW243244   0.940   5.347  10.018  1.2685 -0.2099  0.0687
12470SOL     OW43245   2.968   8.904   2.883  0.2027 -0.3774  0.1461
12470SOL    HW143246   2.949   8.960   2.807  0.8726  0.7823  0.8018
12470SOL    HW243247   3.020   8.832   2.847  0.7681  0.3210 -0.4590
12471SOL     OW43248  10.787  10.601   3.548  0.1914  0.4546 -0.0181
12471SOL    HW143249  10.778  10.635   3.459  1.2852 -0.3352 -0.4566
12471SOL    HW243250  10.814  10.509   3.536  0.3387  0.3324  1.1178
12472SOL     OW43251   2.778   4.150  10.872  0.3109  0.0971  0.1031
12472SOL    HW143252   2.778   4.075  10.812  0.5797  0.4175 -0.3037
12472SOL    HW243253   2.707   4.131  10.933 -0.2787 -0.0276 -0.5933
12473SOL     OW43254   9.535   0.879   3.047  0.1255  0.3160 -0.5373
12473SOL    HW143255   9.541   0.936   2.970 -0.1848 -0.5174 -1.1861
12473SOL    HW243256   9.550   0.791   3.013  0.9362  0.0337  0.5097
12474SOL     OW43257   8.358   7.011   3.319 -0.1177 -0.5070  0.3904
12474SOL    HW143258   8.365   7.075   3.248 -0.1236  0.5878  1.3488
12474SOL    HW243259   8.264   7.005   3.336 -0.0739 -0.2501  0.7445
12475SOL     OW43260   4.045   8.603   1.390  0.2023  0.7705 -0.2920
12475SOL    HW143261   4.039   8.592   1.485 -2.2040 -0.0041 -0.4688
12475SOL    HW243262   4.057   8.698   1.377  2.2944  0.6910  0.7866
12476SOL     OW43263   5.277   9.048   5.729 -0.4393 -0.3270 -0.5538
12476SOL    HW143264   5.357   9.039   5.678  0.2024  1.2830  0.1052
12476SOL    HW243265   5.288   8.988   5.803  1.5176  1.8847  1.1032
12477SOL     OW43266   9.690   4.481   2.077  0.1613  0.1253  0.6363
12477SOL    HW143267   9.785   4.472   2.071  0.0789 -1.9010  1.7926
12477SOL    HW243268   9.656   4.406   2.029 -0.8628  0.6233  0.5716
12478SOL     OW43269   5.124   3.373  10.727  0.2166  0.5329 -0.5305
12478SOL    HW143270   5.169   3.302  10.773 -0.5141  0.3922 -0.0142
12478SOL    HW243271   5.062   3.407  10.791  0.3856  1.4775 -0.8586
12479SOL     OW43272   1.372   3.925   4.390  0.1159  0.1680  0.7451
12479SOL    HW143273   1.406   3.977   4.464  0.8668  0.7900 -0.0144
12479SOL    HW243274   1.285   3.961   4.374  0.2950  0.6304  0.7741
12480SOL     OW43275  10.047   3.521   9.346 -0.0178  0.5051 -0.3129
12480SOL    HW143276  10.076   3.526   9.437  0.1336 -1.4461 -0.2229
12480SOL    HW243277  10.005   3.606   9.331  0.5089  1.1238  1.3609
12481SOL     OW43278   2.596   1.343  10.485 -0.2096 -0.6359  0.5900
12481SOL    HW143279   2.528   1.277  10.498  0.2112 -1.2498 -0.2635
12481SOL    HW243280   2.663   1.322  10.550 -1.2587  0.6086  2.1731
12482SOL     OW43281   6.629   3.598   4.252 -0.0326  0.5438 -0.3479
12482SOL    HW143282   6.544   3.642   4.254 -0.2495  0.1075  0.8566
12482SOL    HW243283   6.616   3.522   4.195 -0.0771  1.1706 -1.1996
12483SOL     OW43284   0.611   1.161   8.261  0.1596 -0.0948 -0.7435
12483SOL    HW143285   0.538   1.147   8.201 -1.1968  0.6985  0.6748
12483SOL    HW243286   0.604   1.091   8.325 -1.9587  2.2475  1.8139
12484SOL     OW43287   6.600   4.838   6.526 -0.3522 -0.2766  0.3566
12484SOL    HW143288   6.583   4.925   6.490  3.7367  1.2370  1.5063
12484SOL    HW243289   6.565   4.843   6.616 -0.7913 -0.1218  0.1825
12485SOL     OW43290   1.530   9.424   5.522 -0.0501 -0.7469 -0.1571
12485SOL    HW143291   1.465   9.491   5.547  1.5562  0.9759 -0.3778
12485SOL    HW243292   1.480   9.359   5.473 -1.4445  1.0682 -1.2678
12486SOL     OW43293   0.263   6.331   5.022  0.0420 -0.1478  0.1576
12486SOL    HW143294   0.276   6.424   5.039  0.6833 -0.3108  0.6203
12486SOL    HW243295   0.176   6.325   4.984  0.6100  0.8220 -1.3741
12487SOL     OW43296   6.778   4.797   7.520  0.3689  0.9424  0.2674
12487SOL    HW143297   6.789   4.817   7.613 -0.3348 -0.1383  0.6091
12487SOL    HW243298   6.685   4.813   7.503 -0.0612 -1.1278  0.3801
12488SOL     OW43299   2.242   6.340   5.000 -0.3679 -0.7695 -0.4245
12488SOL    HW143300   2.185   6.401   5.047 -0.3316 -1.0852  0.0283
12488SOL    HW243301   2.303   6.397   4.952 -1.0895 -0.4268 -0.9647
12489SOL     OW43302   6.746   0.098  10.160 -0.4025  0.1537 -0.3514
12489SOL    HW143303   6.668   0.118  10.213 -1.5554 -0.0698 -1.8996
12489SOL    HW243304   6.714   0.038  10.092  1.1340  0.0575 -1.0208
12490SOL     OW43305   0.562   1.059   1.250  0.3515 -0.2112 -0.2766
12490SOL    HW143306   0.468   1.072   1.263  0.5844  2.2177 -0.6025
12490SOL    HW243307   0.577   0.967   1.272 -2.1135 -0.6942 -0.3838
12491SOL     OW43308   7.466   7.660   0.674 -0.1769  0.0972  0.1125
12491SOL    HW143309   7.557   7.688   0.680  0.0881 -0.9848  1.9623
12491SOL    HW243310   7.471   7.565   0.664 -1.0934 -0.0590  1.0195
12492SOL     OW43311   9.443   7.336   0.587 -0.8334  0.0012 -0.0600
12492SOL    HW143312   9.382   7.366   0.655 -0.0889  1.4836 -0.0123
12492SOL    HW243313   9.530   7.359   0.620 -0.3408 -0.7223 -0.8002
12493SOL     OW43314   3.426   0.421   7.309 -0.2621  0.3195  0.3050
12493SOL    HW143315   3.352   0.442   7.252 -0.4504  1.8435  1.0506
12493SOL    HW243316   3.457   0.507   7.340  1.5068 -0.3052  0.4005
12494SOL     OW43317   1.588   4.235   8.391  0.2624 -0.3678  0.0777
12494SOL    HW143318   1.533   4.205   8.464  1.3352 -0.8792  0.6971
12494SOL    HW243319   1.677   4.209   8.416  0.9370  1.3574 -0.4108
12495SOL     OW43320   6.158   3.861   6.768  0.6244 -0.0712  0.2453
12495SOL    HW143321   6.191   3.851   6.678  0.3596  0.2446  0.1091
12495SOL    HW243322   6.070   3.896   6.757  0.5955 -0.0200  0.6322
12496SOL     OW43323   0.518   2.705  10.859  0.4373 -0.2780  0.0523
12496SOL    HW143324   0.486   2.688  10.770 -0.0210  2.5923 -0.4388
12496SOL    HW243325   0.452   2.667  10.916 -0.5325 -0.0501 -0.8858
12497SOL     OW43326   2.771   8.356   2.524  0.1654  0.6521  0.4423
12497SOL    HW143327   2.853   8.403   2.538  0.5667 -0.0509  0.4611
12497SOL    HW243328   2.795   8.264   2.525 -0.4472  0.4605 -0.6175
12498SOL     OW43329   4.904   4.447   6.534 -0.0939  0.1223 -0.4480
12498SOL    HW143330   4.902   4.375   6.471  2.8155  0.6509 -1.2963
12498SOL    HW243331   4.944   4.520   6.486 -1.3595  1.8004  0.9013
12499SOL     OW43332   3.800   5.995   3.829  0.5713  0.1422  0.5547
12499SOL    HW143333   3.812   5.972   3.737  2.4436 -0.0381  0.8052
12499SOL    HW243334   3.759   5.917   3.867 -0.2978  0.2493 -0.1218
12500SOL     OW43335   7.536  10.840   3.301 -0.4076  0.1839 -0.2727
12500SOL    HW143336   7.546  10.924   3.345 -0.6542 -1.1057  2.4729
12500SOL    HW243337   7.450  10.844   3.260  0.4878  2.0239 -2.1758
12501SOL     OW43338  10.714   1.923   2.118 -0.0207  0.4368 -0.7457
12501SOL    HW143339  10.803   1.905   2.150  0.9224 -0.3480 -3.5347
12501SOL    HW243340  10.677   1.836   2.102 -0.3479  0.7864 -1.9451
12502SOL     OW43341   0.618   6.350   1.658 -0.2967 -0.3538 -0.0052
12502SOL    HW143342   0.660   6.269   1.631 -0.4912 -0.2529 -0.6257
12502SOL    HW243343   0.632   6.410   1.584 -1.1998 -0.1986 -0.0561
12503SOL     OW43344   1.320   7.026   0.752 -0.3070  0.1378  0.1694
12503SOL    HW143345   1.252   6.959   0.745 -0.7767  0.6921 -0.7336
12503SOL    HW243346   1.346   7.023   0.845 -0.7090 -0.8927  0.2740
12504SOL     OW43347   5.461   3.269   3.657 -0.1677 -0.1314  0.5949
12504SOL    HW143348   5.479   3.352   3.702 -2.0000  0.1291  0.9307
12504SOL    HW243349   5.371   3.247   3.683 -0.4195 -1.2053 -1.0677
12505SOL     OW43350   3.530   7.096   2.034  0.5003  0.2264  0.2943
12505SOL    HW143351   3.537   7.041   1.956  1.1911 -1.3805  1.4095
12505SOL    HW243352   3.461   7.159   2.014  1.0174  0.1946 -1.7805
12506SOL     OW43353   2.210   7.066   3.811 -0.1569  0.6489 -0.4885
12506SOL    HW143354   2.189   7.099   3.898 -0.5109 -1.2882  0.2102
12506SOL    HW243355   2.131   7.082   3.759 -0.2427  1.0710 -0.2277
12507SOL     OW43356   1.835   8.476  10.456 -0.6923  0.6426  0.6540
12507SOL    HW143357   1.900   8.481  10.526 -1.4535 -0.1321  1.4492
12507SOL    HW243358   1.798   8.564  10.451 -1.0191  0.5861  1.6467
12508SOL     OW43359   9.343   3.703   2.986  0.3262  0.0786  0.0755
12508SOL    HW143360   9.376   3.718   3.075  2.4274  0.1594 -0.6562
12508SOL    HW243361   9.346   3.789   2.944 -2.0071  0.3203  0.2890
12509SOL     OW43362   5.682   3.621   0.635  0.2616  0.0134  0.1070
12509SOL    HW143363   5.669   3.580   0.550 -1.6826 -2.4679  1.4809
12509SOL    HW243364   5.659   3.713   0.621  0.3514 -0.2428 -2.0753
12510SOL     OW43365   9.452   6.499   7.256  0.6713 -0.3925  0.1138
12510SOL    HW143366   9.374   6.545   7.227  0.8814 -0.8981 -1.3232
12510SOL    HW243367   9.519   6.521   7.191  1.6043 -0.3350  1.0624
12511SOL     OW43368   7.074   1.527   2.000  0.3670  0.1116  0.4837
12511SOL    HW143369   7.146   1.567   2.048  1.0300 -0.7523  0.2496
12511SOL    HW243370   7.112   1.502   1.915 -0.1513 -0.5175  0.4242
12512SOL     OW43371   9.050   9.938   9.918 -0.1224  0.8266  0.0602
12512SOL    HW143372   9.143   9.957   9.903 -0.1947  1.4465  0.3526
12512SOL    HW243373   9.004   9.999   9.860 -0.3449 -0.1027 -0.7698
12513SOL     OW43374   6.354   1.046   2.499 -0.2821 -0.1866 -0.0650
12513SOL    HW143375   6.373   1.073   2.589  2.8787  1.0981 -0.9757
12513SOL    HW243376   6.350   0.950   2.503 -1.2635 -0.1150  1.5662
12514SOL     OW43377   1.212   2.180   3.320  0.1767 -0.1051 -0.2275
12514SOL    HW143378   1.224   2.175   3.225 -1.2109  0.4632 -0.4592
12514SOL    HW243379   1.300   2.189   3.355  0.6365  0.9075 -1.5624
12515SOL     OW43380   7.831   2.537   6.510 -0.7478  0.2987  0.1635
12515SOL    HW143381   7.897   2.599   6.542 -0.7829  0.5027 -0.1540
12515SOL    HW243382   7.825   2.554   6.416  0.4638 -1.3630 -0.2423
12516SOL     OW43383   3.173   6.135   0.628  0.1551 -0.2012 -0.8493
12516SOL    HW143384   3.093   6.120   0.578 -0.2464  1.5033 -0.7938
12516SOL    HW243385   3.165   6.226   0.658  2.6498  0.4295 -1.8672
12517SOL     OW43386   1.617   9.438   6.841 -0.0871 -0.4828  0.6950
12517SOL    HW143387   1.665   9.483   6.910  0.5801  0.0148 -0.0711
12517SOL    HW243388   1.684   9.389   6.792 -0.3411  0.1555 -0.3353
12518SOL     OW43389   4.015  10.430   0.039 -0.2514  0.3491 -0.3008
12518SOL    HW143390   4.082  10.384   0.091  0.3731  0.6936 -0.7919
12518SOL    HW243391   4.064  10.494  -0.012 -1.2083  2.4582  1.2801
12519SOL     OW43392   2.008  10.307   2.649 -0.3249 -0.3829 -0.0821
12519SOL    HW143393   2.023  10.214   2.663 -0.2018 -0.4822 -0.8100
12519SOL    HW243394   1.951  10.310   2.572 -0.4963  0.1385  0.0617
12520SOL     OW43395   4.671   7.545   6.785  0.6068 -0.1976 -0.0619
12520SOL    HW143396   4.725   7.495   6.724 -0.4242 -2.6188  0.8642
12520SOL    HW243397   4.613   7.596   6.730  0.8344 -1.0255 -1.0981
12521SOL     OW43398   3.247   1.872   7.524 -0.0952 -0.1479 -0.2315
12521SOL    HW143399   3.321   1.823   7.489  1.0454  0.9790  0.5276
12521SOL    HW243400   3.210   1.917   7.448  1.1954  0.7863 -0.3491
12522SOL     OW43401   3.272   1.347   0.584  0.3153  0.3138 -0.4321
12522SOL    HW143402   3.321   1.375   0.506  1.4858 -2.8425 -0.9783
12522SOL    HW243403   3.230   1.265   0.558 -0.6913  0.0569  1.7655
12523SOL     OW43404   4.422   4.840   9.793  0.5891 -0.3948 -0.2980
12523SOL    HW143405   4.479   4.851   9.717 -0.4513 -0.1955 -1.0770
12523SOL    HW243406   4.474   4.790   9.855  1.2996 -0.9849 -1.3288
12524SOL     OW43407   3.066   0.367   9.570  0.1898  0.3229  0.1365
12524SOL    HW143408   3.053   0.350   9.477 -0.5203  0.5482  0.1881
12524SOL    HW243409   3.096   0.283   9.606  1.9394  0.6170 -0.5427
12525SOL     OW43410   9.185   9.877   7.913 -0.5028  0.2151  0.1187
12525SOL    HW143411   9.152   9.947   7.969  0.1243 -0.2270  1.0751
12525SOL    HW243412   9.209   9.807   7.974 -0.5560 -0.5949 -0.7720
12526SOL     OW43413   9.192   6.890   2.436  0.3347  0.2028 -0.4283
12526SOL    HW143414   9.135   6.842   2.496 -0.5630  1.5907 -0.1087
12526SOL    HW243415   9.190   6.840   2.355 -0.3241 -0.4537 -0.0173
12527SOL     OW43416   9.825   6.692   1.760  0.2767 -0.3747  0.1809
12527SOL    HW143417   9.789   6.604   1.748  0.0136 -0.3736  0.8996
12527SOL    HW243418   9.798   6.740   1.682  0.3953 -0.9224 -0.2026
12528SOL     OW43419   8.025   1.462   7.630  0.1579  0.2258 -0.3080
12528SOL    HW143420   7.980   1.504   7.703  1.1945  1.0611 -0.1243
12528SOL    HW243421   8.021   1.528   7.560  1.1197  0.3260 -0.2732
12529SOL     OW43422   0.369   1.346   0.855 -0.0868 -0.0858 -0.2381
12529SOL    HW143423   0.353   1.430   0.899  2.2517 -0.7720  2.1903
12529SOL    HW243424   0.430   1.368   0.784 -0.3608  0.4341 -0.3158
12530SOL     OW43425   8.403   2.876   2.915 -0.1563 -0.3245 -0.1817
12530SOL    HW143426   8.342   2.908   2.981 -0.5463 -0.1053 -0.6440
12530SOL    HW243427   8.489   2.879   2.958 -0.2850  0.6498  0.0233
12531SOL     OW43428   9.610   4.128   3.692 -0.5274 -0.3202 -0.1388
12531SOL    HW143429   9.633   4.039   3.666 -0.6949  0.1720 -2.1492
12531SOL    HW243430   9.532   4.118   3.747  0.2663 -1.4863  0.7986
12532SOL     OW43431   3.646   3.564   3.654 -0.1764 -0.6497 -0.6217
12532SOL    HW143432   3.734   3.564   3.618  0.3643 -0.3503  0.6472
12532SOL    HW243433   3.614   3.653   3.640  0.7651  0.0392  1.2832
12533SOL     OW43434  10.803   1.167   9.517  0.2716  0.2875 -0.0685
12533SOL    HW143435  10.818   1.133   9.428 -0.5286 -0.3753  0.0375
12533SOL    HW243436  10.727   1.224   9.508 -0.2517 -0.3354  0.3128
12534SOL     OW43437   7.579   6.917   9.907  0.2501 -0.0920 -0.3827
12534SOL    HW143438   7.570   7.004   9.869  0.3436  0.1921  0.2312
12534SOL    HW243439   7.640   6.929   9.980  0.1105 -0.6362 -0.1717
12535SOL     OW43440  10.382   1.436   3.290 -0.2614  0.4501 -0.4219
12535SOL    HW143441  10.390   1.399   3.202 -3.2068  0.2194 -0.6714
12535SOL    HW243442  10.350   1.363   3.344  1.9779  0.4458  1.0363
12536SOL     OW43443   0.733   8.714   4.918  0.9022  0.6237  0.2486
12536SOL    HW143444   0.755   8.754   4.834  1.5928 -2.0548 -0.9655
12536SOL    HW243445   0.783   8.632   4.919 -2.0364 -1.3589  1.4669
12537SOL     OW43446   7.393   1.663   5.246  0.2058  0.8125 -0.6209
12537SOL    HW143447   7.372   1.737   5.303  0.0794 -1.1800  2.1581
12537SOL    HW243448   7.313   1.648   5.196 -1.6182 -0.2476  2.2972
12538SOL     OW43449  10.285   6.286   4.096 -0.0490  0.1025  0.6321
12538SOL    HW143450  10.239   6.359   4.138 -1.9829  0.1650 -1.3545
12538SOL    HW243451  10.316   6.322   4.013 -0.7584 -1.1957 -0.2463
12539SOL     OW43452   2.283   4.909   5.374  0.2968 -0.6581 -0.1783
12539SOL    HW143453   2.246   4.989   5.337 -0.2545 -0.6474  0.3815
12539SOL    HW243454   2.290   4.927   5.468 -0.1661 -1.3845  0.0054
12540SOL     OW43455   2.205   2.876  10.145 -0.1350  0.0749 -0.1181
12540SOL    HW143456   2.132   2.920  10.101 -0.1538  2.0244  1.6815
12540SOL    HW243457   2.214   2.923  10.228  2.8509 -0.4566 -0.0464
12541SOL     OW43458   2.333   4.136   0.105  0.2716 -0.2551 -0.0538
12541SOL    HW143459   2.333   4.225   0.139 -0.7729 -0.7653  1.3776
12541SOL    HW243460   2.278   4.087   0.166  0.8658 -1.8972 -0.7775
12542SOL     OW43461   1.169   6.577   9.682 -0.2281  0.1393  0.2187
12542SOL    HW143462   1.200   6.512   9.745  3.2009 -0.1731 -1.5335
12542SOL    HW243463   1.169   6.660   9.731 -1.8291 -0.6712  1.6918
12543SOL     OW43464   4.342   0.967   1.205 -0.0510 -0.2211  0.4638
12543SOL    HW143465   4.301   0.996   1.287 -0.6308 -1.4257  0.6091
12543SOL    HW243466   4.368   0.877   1.221 -0.0883 -0.4433 -0.6620
12544SOL     OW43467   5.838   6.491   9.065 -0.0953 -0.7935 -0.0742
12544SOL    HW143468   5.787   6.525   8.992 -0.2768 -0.7063  0.0941
12544SOL    HW243469   5.920   6.461   9.025  0.4988  0.7641 -0.0806
12545SOL     OW43470   8.212  10.016   2.995  0.3443 -0.5412  0.2131
12545SOL    HW143471   8.295  10.037   3.037  0.9242 -1.6426 -0.3538
12545SOL    HW243472   8.146  10.031   3.064  0.9933  0.3000  0.6758
12546SOL     OW43473   6.872   5.815   6.371 -0.5054 -0.2562  0.3049
12546SOL    HW143474   6.883   5.852   6.284  0.3154  1.8983  1.2724
12546SOL    HW243475   6.791   5.763   6.365 -1.5841  1.4914 -1.2069
12547SOL     OW43476   0.603   6.950   4.287  0.5382 -0.0272 -0.2935
12547SOL    HW143477   0.579   6.857   4.295 -0.4368  0.2792  0.5963
12547SOL    HW243478   0.607   6.965   4.193  1.4376 -1.1465 -0.4547
12548SOL     OW43479   9.496   6.920   0.778 -0.5243  1.0928 -0.5257
12548SOL    HW143480   9.463   6.972   0.705  0.0968 -0.3462 -1.8829
12548SOL    HW243481   9.508   6.832   0.742  1.8593  0.8286  0.7155
12549SOL     OW43482   3.995   9.836   0.795  0.0638  0.0589  0.3736
12549SOL    HW143483   3.922   9.872   0.745  0.7243 -1.9776 -2.2618
12549SOL    HW243484   4.070   9.892   0.773  0.0805 -0.0432  0.1772
12550SOL     OW43485   0.260   7.654   3.056 -0.5570 -0.3427  0.0144
12550SOL    HW143486   0.235   7.707   2.980  0.4016  0.7644  0.4472
12550SOL    HW243487   0.253   7.714   3.130  0.9736 -0.6762  0.4523
12551SOL     OW43488   2.776   2.975   2.865 -0.0037  0.2840 -0.3060
12551SOL    HW143489   2.766   2.903   2.928 -1.4406  0.3857 -0.3751
12551SOL    HW243490   2.848   2.948   2.809 -0.9185 -1.4117 -0.7184
12552SOL     OW43491   1.122   6.578   2.340  0.9276  0.1538 -0.4715
12552SOL    HW143492   1.115   6.483   2.326  0.1765 -0.1951  1.8192
12552SOL    HW243493   1.033   6.610   2.324  0.3543 -0.0804  1.8155
12553SOL     OW43494   2.788   4.322   7.649 -0.1082 -0.2484  0.0114
12553SOL    HW143495   2.736   4.393   7.687  1.0202  0.5784  0.0707
12553SOL    HW243496   2.805   4.351   7.559 -0.0576 -0.6815 -0.1205
12554SOL     OW43497   4.221  10.620   0.266 -0.8492 -0.1583  0.3345
12554SOL    HW143498   4.133  10.583   0.257  0.0552 -3.0062  2.1792
12554SOL    HW243499   4.221  10.662   0.352 -0.3556 -0.3923  0.4529
12555SOL     OW43500   8.260   6.466   7.047  0.6842  0.1876  0.7574
12555SOL    HW143501   8.340   6.466   7.100  0.4218  1.5259  1.1748
12555SOL    HW243502   8.194   6.508   7.103  0.0111  0.2488 -0.0672
12556SOL     OW43503   1.194   2.829   7.568  0.2413 -0.5322 -0.2340
12556SOL    HW143504   1.160   2.788   7.489 -0.3150 -0.3025 -0.1163
12556SOL    HW243505   1.157   2.777   7.640  0.1378 -0.2786 -0.1033
12557SOL     OW43506   2.815   1.410   7.259 -0.0231  0.2952  0.0603
12557SOL    HW143507   2.733   1.440   7.221  0.0036  0.2862 -0.0037
12557SOL    HW243508   2.789   1.367   7.341  0.0928  2.0488  1.0610
12558SOL     OW43509   7.276   3.483  10.599  0.6465  0.0552 -0.1465
12558SOL    HW143510   7.328   3.563  10.607 -0.2486  0.7307 -0.9739
12558SOL    HW243511   7.254   3.477  10.506  1.6421 -1.7725 -0.3138
12559SOL     OW43512   4.135   3.098   0.557 -0.0089  0.0430 -0.0486
12559SOL    HW143513   4.202   3.159   0.529 -0.2653 -0.1761 -1.1989
12559SOL    HW243514   4.182   3.016   0.574  0.3103  0.4848  1.3331
12560SOL     OW43515   3.802   0.531   5.655  0.3105  0.1739 -0.2046
12560SOL    HW143516   3.861   0.602   5.682  0.7890  0.0108 -0.7797
12560SOL    HW243517   3.742   0.573   5.592  0.3058  0.1704 -0.2024
12561SOL     OW43518   0.658   7.815   3.876  0.5070 -0.2006  0.4741
12561SOL    HW143519   0.703   7.753   3.934  0.4743  2.3455  3.4867
12561SOL    HW243520   0.575   7.832   3.921 -0.4805  0.3091 -1.4716
12562SOL     OW43521   7.360   0.065   7.638  0.7265  0.0068  0.2719
12562SOL    HW143522   7.275   0.035   7.670  1.0944  0.6717  2.0078
12562SOL    HW243523   7.407   0.090   7.717  1.8434  1.4281 -0.7878
12563SOL     OW43524   4.595   7.525   3.332 -0.6697 -0.2806  0.1266
12563SOL    HW143525   4.625   7.434   3.341 -0.4811 -0.1986  0.3516
12563SOL    HW243526   4.603   7.544   3.239  1.6697  0.3016  0.3789
12564SOL     OW43527   5.322   8.037   9.394  0.8403  0.4031  0.3178
12564SOL    HW143528   5.334   8.118   9.345 -0.4546 -0.8824 -2.3116
12564SOL    HW243529   5.411   8.007   9.414  1.5827  0.1305 -2.8558
12565SOL     OW43530   5.539   7.372   5.754 -0.0148 -0.7000  0.1226
12565SOL    HW143531   5.532   7.382   5.659 -0.9349 -1.2040  0.1286
12565SOL    HW243532   5.454   7.400   5.787  1.2802  2.5247  1.0850
12566SOL     OW43533   9.964  10.634   2.222 -0.1201 -0.3229 -0.3994
12566SOL    HW143534   9.931  10.548   2.197  1.9878 -0.5682 -2.7645
12566SOL    HW243535  10.022  10.617   2.296 -2.2027 -0.3946  1.3040
12567SOL     OW43536   2.283   7.838   4.064  0.3094  0.2707  0.5761
12567SOL    HW143537   2.298   7.791   3.982 -0.0301 -0.2148  0.7889
12567SOL    HW243538   2.315   7.779   4.132 -0.7891  0.0070  0.8980
12568SOL     OW43539   7.149   4.894   7.824 -0.3597  0.6195  0.0452
12568SOL    HW143540   7.113   4.876   7.737 -1.1506  2.2212  0.0064
12568SOL    HW243541   7.236   4.853   7.823 -0.4456  0.4175 -1.4095
12569SOL     OW43542   1.870   0.553   5.249  0.0467  0.0762 -0.2918
12569SOL    HW143543   1.851   0.601   5.329 -1.5769  0.1843 -0.6933
12569SOL    HW243544   1.885   0.620   5.183 -1.6008  0.0791 -0.7127
12570SOL     OW43545   4.363   4.143   9.157 -0.0217 -0.0399  0.4910
12570SOL    HW143546   4.394   4.194   9.232 -0.2349  0.4003  0.2888
12570SOL    HW243547   4.391   4.194   9.081 -1.5073  0.5453  0.3043
12571SOL     OW43548   3.758   1.819   2.800  0.1524 -0.1565  0.0250
12571SOL    HW143549   3.779   1.900   2.847 -0.9912  0.5394 -0.6185
12571SOL    HW243550   3.833   1.762   2.816  1.3796  1.3296 -0.2035
12572SOL     OW43551   2.097   5.882   4.899 -0.0950 -0.2990 -0.4192
12572SOL    HW143552   2.174   5.839   4.936  0.3778  0.6263 -0.3073
12572SOL    HW243553   2.078   5.954   4.959 -1.0923 -0.5525 -0.4164
12573SOL     OW43554   3.437   1.671   2.987 -0.1643 -0.0567 -0.5153
12573SOL    HW143555   3.459   1.749   2.935 -0.4392 -0.6876 -1.5905
12573SOL    HW243556   3.382   1.705   3.058 -1.3857  0.5549 -1.7168
12574SOL     OW43557   0.306   6.348   8.279  0.3382  0.7484 -0.0760
12574SOL    HW143558   0.360   6.418   8.240  1.4486  0.0092  0.0939
12574SOL    HW243559   0.330   6.270   8.230 -1.1392  0.5225 -0.4748
12575SOL     OW43560   4.911   8.286   3.240 -0.1736 -0.1854  0.6414
12575SOL    HW143561   4.996   8.294   3.195 -0.0490 -1.4816  0.6193
12575SOL    HW243562   4.849   8.263   3.170 -0.6770  1.3013  0.5611
12576SOL     OW43563   3.202   9.935   6.754  0.5847  0.4715  0.3717
12576SOL    HW143564   3.270   9.870   6.772  2.1308  1.4524 -1.4730
12576SOL    HW243565   3.125   9.884   6.731  1.1210 -0.6882  1.0852
12577SOL     OW43566   0.073   6.850   5.202 -0.6501  0.1753 -0.1169
12577SOL    HW143567   0.026   6.912   5.146  0.5171  1.0418 -0.1759
12577SOL    HW243568   0.028   6.854   5.286 -0.5135  1.2085 -0.0821
12578SOL     OW43569   4.508   7.173  10.371  0.0748  0.5097  0.5763
12578SOL    HW143570   4.455   7.236  10.419  0.5066 -0.1403  1.9361
12578SOL    HW243571   4.599   7.195  10.394  0.3463  0.6075 -0.4878
12579SOL     OW43572   6.464   3.519   5.344  0.6285  0.6229  0.3448
12579SOL    HW143573   6.541   3.569   5.370  0.8520 -0.5130  2.0516
12579SOL    HW243574   6.390   3.564   5.384  0.4845  1.1875 -0.5257
12580SOL     OW43575  10.238   4.694   7.893  0.5975 -0.2104 -0.3301
12580SOL    HW143576  10.220   4.772   7.945 -1.7036 -0.6032 -0.4411
12580SOL    HW243577  10.186   4.706   7.813 -1.3655 -2.6337  0.4541
12581SOL     OW43578   3.395  10.412   3.502 -0.3694  0.1128 -0.1187
12581SOL    HW143579   3.489  10.433   3.501 -0.2959 -0.1438  0.5375
12581SOL    HW243580   3.351  10.495   3.486 -0.0441  0.4215  0.5534
12582SOL     OW43581   9.992  10.393   7.404  0.1494  0.2045  0.1899
12582SOL    HW143582   9.944  10.476   7.411 -2.4241 -1.1939  0.5056
12582SOL    HW243583   9.949  10.346   7.332 -0.2421 -1.8747  1.6792
12583SOL     OW43584   5.711   3.180   9.764 -0.6368 -0.4115 -0.0412
12583SOL    HW143585   5.668   3.123   9.700 -1.6330 -0.8267  0.9736
12583SOL    HW243586   5.799   3.143   9.774 -0.2912 -0.0502 -1.5186
12584SOL     OW43587   1.473   4.517   7.950 -0.1752  0.0130 -0.2014
12584SOL    HW143588   1.440   4.450   8.010  1.7333 -1.6291 -0.8710
12584SOL    HW243589   1.537   4.565   8.001  1.1537 -1.1246 -0.7286
12585SOL     OW43590   0.726   6.183   9.212 -0.0995 -0.0449  0.0393
12585SOL    HW143591   0.652   6.231   9.249 -0.2721 -1.3524  1.4851
12585SOL    HW243592   0.687   6.102   9.177  0.7257 -1.3191  1.9002
12586SOL     OW43593   9.764   2.184   8.635 -0.1224  0.1427 -0.6088
12586SOL    HW143594   9.791   2.116   8.573 -0.4967 -0.9780  0.4373
12586SOL    HW243595   9.780   2.266   8.588 -0.7065 -0.6769 -2.3296
12587SOL     OW43596   1.878   8.548   0.356 -0.0002 -0.1034  0.6110
12587SOL    HW143597   1.952   8.599   0.321 -0.1330  0.2616  0.8538
12587SOL    HW243598   1.803   8.606   0.345 -0.1413 -0.2207  0.9571
12588SOL     OW43599  10.716   6.967   7.366 -0.4917  0.1242  0.5095
12588SOL    HW143600  10.635   6.981   7.317 -1.0759 -0.3347  1.3181
12588SOL    HW243601  10.780   7.025   7.325 -1.5852  1.5349  0.7608
12589SOL     OW43602  10.486   4.982   2.950  1.0224  0.0315 -0.2925
12589SOL    HW143603  10.518   4.976   2.860  1.3449  0.2611 -0.1927
12589SOL    HW243604  10.430   4.905   2.961  1.0953 -0.0707 -0.6434
12590SOL     OW43605   5.715   6.633   1.080  0.6230  0.1517 -0.5573
12590SOL    HW143606   5.621   6.627   1.064  0.5281  1.2511 -0.5120
12590SOL    HW243607   5.750   6.673   1.000  0.6943  1.9843  0.3359
12591SOL     OW43608  10.075   3.718   6.035  0.1682  0.1798 -0.2291
12591SOL    HW143609  10.165   3.687   6.040  0.6733  1.4464 -1.0152
12591SOL    HW243610  10.056   3.751   6.123  0.6329  0.3441 -0.1897
12592SOL     OW43611   6.261   3.174   3.604 -0.6648 -0.2396 -0.3449
12592SOL    HW143612   6.304   3.092   3.628  0.0528  0.6559  1.6870
12592SOL    HW243613   6.182   3.147   3.558  0.6990 -1.9901 -1.8057
12593SOL     OW43614   2.374   6.692   5.486 -0.4350 -0.0141  0.7910
12593SOL    HW143615   2.307   6.751   5.453  0.4284  1.2053  1.1375
12593SOL    HW243616   2.326   6.615   5.516 -1.3610 -0.7529 -2.2204
12594SOL     OW43617  10.282   2.541   1.122  0.1356  0.2471 -0.6907
12594SOL    HW143618  10.343   2.474   1.091 -2.2491 -2.1948 -0.4935
12594SOL    HW243619  10.336   2.620   1.133  3.2626 -1.7819 -0.2330
12595SOL     OW43620   5.192   0.403   7.915 -0.0118  0.2981 -0.1710
12595SOL    HW143621   5.288   0.412   7.913 -0.0569  0.6948 -0.6777
12595SOL    HW243622   5.177   0.309   7.928  0.4432  0.2723  0.2277
12596SOL     OW43623   3.762   3.814   6.214 -0.3605  0.0316  0.3583
12596SOL    HW143624   3.746   3.739   6.156 -0.0539  1.1113 -1.1871
12596SOL    HW243625   3.678   3.860   6.218 -0.2420  0.2476  0.3570
12597SOL     OW43626   9.137  10.094   5.963 -1.0046  0.0110  0.3006
12597SOL    HW143627   9.043  10.083   5.956 -0.8259 -0.4465 -2.7504
12597SOL    HW243628   9.154  10.180   5.925 -0.0611 -0.9017 -1.4850
12598SOL     OW43629  10.291   7.719   1.512  0.0368 -0.4556  0.0674
12598SOL    HW143630  10.261   7.797   1.559 -0.8255 -0.9818  0.4144
12598SOL    HW243631  10.213   7.686   1.467  0.2838 -1.3590  0.2750
12599SOL     OW43632   2.951   7.736   4.152 -0.0728 -0.2828  0.0641
12599SOL    HW143633   2.937   7.692   4.068  2.0787  1.8651 -1.5883
12599SOL    HW243634   2.960   7.665   4.215  2.1148 -2.2799 -2.2374
12600SOL     OW43635   3.878  10.142   1.967 -0.3726  0.3401 -0.4219
12600SOL    HW143636   3.816  10.179   1.904 -0.2057 -0.4988 -1.0964
12600SOL    HW243637   3.950  10.204   1.969  0.9132 -0.9267 -3.1840
12601SOL     OW43638   0.545   2.427  10.585  0.2937 -0.1842 -0.1553
12601SOL    HW143639   0.549   2.433  10.680  1.1634 -0.2644 -0.1775
12601SOL    HW243640   0.541   2.333  10.567 -1.9578 -0.1438 -0.1532
12602SOL     OW43641   3.732   8.814   5.129  0.1728  0.2843  0.2362
12602SOL    HW143642   3.676   8.891   5.118  0.9749  1.0947  1.5034
12602SOL    HW243643   3.820   8.850   5.135  0.6027 -0.7844  0.4044
12603SOL     OW43644   5.732   7.650   6.350  0.0099 -0.5477  0.0003
12603SOL    HW143645   5.783   7.731   6.359  0.4281 -0.8970  0.9333
12603SOL    HW243646   5.662   7.658   6.414  1.1774 -1.7313  1.4923
12604SOL     OW43647   5.777   1.046  10.543 -0.3679  0.0175 -0.7210
12604SOL    HW143648   5.685   1.046  10.516 -0.8307 -0.8163  0.7213
12604SOL    HW243649   5.795   1.137  10.565 -0.3626  0.4733 -2.4623
12605SOL     OW43650   2.179   4.495  10.250 -0.2917 -0.1298 -0.1358
12605SOL    HW143651   2.238   4.420  10.258  0.0651  0.1549 -0.1276
12605SOL    HW243652   2.203   4.536  10.167 -0.0437  0.3592  0.1712
12606SOL     OW43653   2.788   6.356   2.297 -0.0400  0.4082  0.2360
12606SOL    HW143654   2.783   6.370   2.391 -0.8618 -1.9978  0.6166
12606SOL    HW243655   2.826   6.269   2.287 -0.8781  0.2011 -1.6028
12607SOL     OW43656   3.189   0.067   3.151 -0.0249  0.0849  0.2327
12607SOL    HW143657   3.137  -0.014   3.151 -1.0044  0.6539  2.2317
12607SOL    HW243658   3.149   0.121   3.218  0.7820  2.1603 -0.8714
12608SOL     OW43659   0.899   7.369   7.374  0.0272 -0.0684 -0.8926
12608SOL    HW143660   0.806   7.347   7.380  0.0511 -0.8591 -2.7795
12608SOL    HW243661   0.937   7.297   7.323  1.6764  0.2586 -0.1902
12609SOL     OW43662   0.952   0.151   4.213 -0.4950 -0.4780 -0.1344
12609SOL    HW143663   0.927   0.177   4.124 -1.7590 -0.3020  0.2456
12609SOL    HW243664   0.991   0.230   4.252  0.6991 -0.7508 -0.7376
12610SOL     OW43665   6.196   9.631   5.575  0.0712 -0.2878 -0.2719
12610SOL    HW143666   6.223   9.714   5.616  0.5957 -0.9963  0.8637
12610SOL    HW243667   6.275   9.577   5.575 -0.4122 -1.0042 -0.4692
12611SOL     OW43668   8.065   7.848   6.618  0.1379  0.2257  0.2966
12611SOL    HW143669   8.026   7.854   6.705 -1.8448 -0.4853 -0.4857
12611SOL    HW243670   8.143   7.793   6.630  0.3482  0.7835  1.7218
12612SOL     OW43671   5.839   7.549  10.522  0.2772  0.5608 -0.7867
12612SOL    HW143672   5.772   7.603  10.480 -0.8239 -1.5111 -1.8627
12612SOL    HW243673   5.818   7.459  10.494  2.3554 -0.3718  0.4341
12613SOL     OW43674   3.430   2.254   3.367  0.0156 -0.8715 -0.3925
12613SOL    HW143675   3.364   2.222   3.306 -0.3883 -2.2381  0.6884
12613SOL    HW243676   3.391   2.333   3.406 -1.0261 -1.6743  0.2484
12614SOL     OW43677   3.100  10.783   7.198  0.0165 -0.4650  0.1789
12614SOL    HW143678   3.071  10.774   7.289 -1.4047  2.0951  0.0644
12614SOL    HW243679   3.113  10.877   7.186 -0.9907 -0.5855 -2.5724
12615SOL     OW43680   7.250   1.613   7.773 -0.0609  0.4661  0.2416
12615SOL    HW143681   7.236   1.630   7.867 -2.1108  0.7392 -0.0718
12615SOL    HW243682   7.260   1.518   7.767  0.0805  0.4475  0.7354
12616SOL     OW43683   4.412   4.377   9.369 -0.0753 -0.0703  0.7851
12616SOL    HW143684   4.442   4.466   9.350  0.1944 -0.3560 -0.1738
12616SOL    HW243685   4.319   4.388   9.393 -0.0387  0.4661  0.6987
12617SOL     OW43686   2.601   8.551   9.582 -0.6141 -0.1163 -0.0070
12617SOL    HW143687   2.668   8.595   9.531 -0.4149  1.5244  1.5663
12617SOL    HW243688   2.518   8.578   9.541 -0.4227  0.3316 -0.1023
12618SOL     OW43689   6.039   0.894   5.022 -0.9329 -0.8334  0.0903
12618SOL    HW143690   6.067   0.984   5.005 -0.4080 -0.8610  0.7463
12618SOL    HW243691   5.976   0.902   5.093  0.1609 -1.0859  1.1338
12619SOL     OW43692   7.535   0.928   1.948 -0.0729 -0.1246 -0.0239
12619SOL    HW143693   7.538   0.977   1.866  0.7471  1.8740  1.1184
12619SOL    HW243694   7.627   0.907   1.967 -0.3073 -1.0679  0.1204
12620SOL     OW43695   8.061   0.141   7.465  0.0941  0.1333  0.0756
12620SOL    HW143696   8.036   0.199   7.537 -1.7358 -0.4732 -0.0294
12620SOL    HW243697   8.035   0.054   7.493 -0.1242 -0.2007 -1.0881
12621SOL     OW43698   7.209   6.302   4.447  0.1462  0.4108 -0.0108
12621SOL    HW143699   7.283   6.359   4.468 -0.0571  0.6723  0.0051
12621SOL    HW243700   7.234   6.216   4.479 -0.0478  0.7431  1.0726
12622SOL     OW43701   1.415   6.637   8.810  0.3339  0.1350 -0.2186
12622SOL    HW143702   1.469   6.581   8.865 -0.7622  0.7502  1.5846
12622SOL    HW243703   1.451   6.725   8.823 -0.0754  0.3137 -0.2738
12623SOL     OW43704  10.441   3.765   9.588 -0.3837  0.1903 -0.7254
12623SOL    HW143705  10.408   3.725   9.507  1.3769 -1.8899 -0.4925
12623SOL    HW243706  10.481   3.847   9.560 -2.6102  1.1183 -1.4562
12624SOL     OW43707   4.122   5.482   9.323  0.3554  0.3366 -0.2274
12624SOL    HW143708   4.211   5.449   9.318  0.1168 -0.3148 -0.2730
12624SOL    HW243709   4.071   5.425   9.266 -0.3601 -0.2419  0.9407
12625SOL     OW43710   0.976   4.901   7.474  0.0855  0.1392 -0.2029
12625SOL    HW143711   1.054   4.920   7.422  1.1832 -0.2375  1.2345
12625SOL    HW243712   0.908   4.883   7.409  0.6406  2.4260 -1.5456
12626SOL     OW43713   2.957   6.009   1.318  0.1117  0.2773 -0.4262
12626SOL    HW143714   2.990   5.963   1.241  0.5358 -0.9626  0.4693
12626SOL    HW243715   2.862   6.011   1.305 -0.1183 -2.4733  0.3320
12627SOL     OW43716   6.423   5.291   3.651 -0.4074  0.1649 -0.5959
12627SOL    HW143717   6.409   5.350   3.726  1.4582 -0.3413  0.2327
12627SOL    HW243718   6.507   5.319   3.615  0.6022 -1.9965 -0.1107
12628SOL     OW43719   0.239   7.341   6.057 -0.2130  0.0246 -0.0225
12628SOL    HW143720   0.260   7.386   6.139  2.0032 -0.6821 -0.1637
12628SOL    HW243721   0.267   7.402   5.988  1.3241 -0.8593 -0.2139
12629SOL     OW43722   6.104   0.989   2.989 -0.3922  0.5631 -0.0473
12629SOL    HW143723   6.129   0.932   2.916  0.3878 -0.4629  0.9712
12629SOL    HW243724   6.019   1.024   2.964  0.1479  0.7631 -1.7332
12630SOL     OW43725   7.330   4.105   0.537  0.1776  0.6263 -0.5272
12630SOL    HW143726   7.376   4.046   0.597  0.2428 -0.0790 -1.2607
12630SOL    HW243727   7.330   4.059   0.453 -2.8579  0.0335 -0.3228
12631SOL     OW43728   1.419   2.382   4.028  0.0371  0.0008 -0.3924
12631SOL    HW143729   1.428   2.463   4.078  1.1474  0.1306 -0.7613
12631SOL    HW243730   1.505   2.340   4.036 -0.4752 -1.0704 -0.3389
12632SOL     OW43731   5.689   0.408   5.202 -0.4426 -0.3806  0.0478
12632SOL    HW143732   5.617   0.470   5.200  0.0405  0.1748 -0.1701
12632SOL    HW243733   5.678   0.354   5.124 -0.9149 -0.6363  0.2873
12633SOL     OW43734   3.749  10.464   1.396  0.5522 -0.3158  0.3296
12633SOL    HW143735   3.787  10.548   1.369 -0.3445  0.2066  0.6627
12633SOL    HW243736   3.775  10.455   1.488  0.1911 -0.1417  0.4487
12634SOL     OW43737   5.736   6.653   3.990  0.1674  0.1309  0.3924
12634SOL    HW143738   5.800   6.592   4.026  0.2248  0.6645  1.2163
12634SOL    HW243739   5.718   6.619   3.902 -0.9886 -1.9731  1.3710
12635SOL     OW43740   8.181  10.745   4.769  0.1791  0.2575 -0.1949
12635SOL    HW143741   8.271  10.754   4.800  0.3399  1.1582 -0.8719
12635SOL    HW243742   8.173  10.654   4.741  0.0129 -0.6177  2.4652
12636SOL     OW43743   4.093   3.537   9.431  0.5873  0.4961  0.0207
12636SOL    HW143744   4.166   3.581   9.475  0.0811  1.0564  0.3147
12636SOL    HW243745   4.081   3.585   9.349 -0.0447  1.0038  0.3966
12637SOL     OW43746   5.821   7.516   9.970  0.3701  0.4170 -0.4460
12637SOL    HW143747   5.807   7.421   9.977  1.6413  0.2587  0.2673
12637SOL    HW243748   5.813   7.534   9.876  0.7384 -0.5020 -0.6694
12638SOL     OW43749   4.143   3.715  10.368 -0.0590  0.1399 -0.2230
12638SOL    HW143750   4.049   3.734  10.376 -0.1428 -0.1502 -0.4747
12638SOL    HW243751   4.186   3.788  10.411 -0.4222 -0.2009  0.7618
12639SOL     OW43752   9.091   6.562   8.422  0.7138 -0.3710  0.2453
12639SOL    HW143753   9.105   6.568   8.327  0.9720  2.1534  0.3700
12639SOL    HW243754   9.159   6.618   8.460 -0.6624  0.3311  1.7789
12640SOL     OW43755  10.352   4.035   5.764  0.1992 -0.5960  0.0607
12640SOL    HW143756  10.309   4.032   5.849  0.8116  0.4608  0.4416
12640SOL    HW243757  10.281   4.039   5.700 -0.2985  0.7538  0.6556
12641SOL     OW43758   4.668   0.768  10.798  0.5346  0.3092  0.5651
12641SOL    HW143759   4.724   0.824  10.743  1.2090 -0.7476  0.1410
12641SOL    HW243760   4.647   0.694  10.742  0.3164 -0.2556  1.3814
12642SOL     OW43761   0.320   9.133   6.946 -0.0716  0.0968 -0.0135
12642SOL    HW143762   0.315   9.097   6.858  0.3404  0.2666 -0.1047
12642SOL    HW243763   0.408   9.112   6.976 -0.8083 -1.7052  1.1139
12643SOL     OW43764  10.807   7.037   6.043 -0.1887  0.1214  0.2548
12643SOL    HW143765  10.781   6.953   6.080  0.8627 -0.3331 -0.0051
12643SOL    HW243766  10.850   7.083   6.115  2.6722 -1.1229 -0.5248
12644SOL     OW43767   7.390   0.247  10.259 -0.1825 -0.2305 -0.3454
12644SOL    HW143768   7.381   0.322  10.200 -0.1002  1.3383  1.5460
12644SOL    HW243769   7.484   0.234  10.267 -0.1855 -0.2657 -0.3695
12645SOL     OW43770   3.441  10.053   7.401  0.1660 -0.3416 -0.2350
12645SOL    HW143771   3.427  10.134   7.451 -2.2470 -1.4512  1.0981
12645SOL    HW243772   3.380  10.059   7.327 -0.2776 -1.0485  0.0581
12646SOL     OW43773   6.453   4.886   4.106 -0.3753  0.0215 -0.4787
12646SOL    HW143774   6.492   4.845   4.183 -0.9718  0.0860 -0.1404
12646SOL    HW243775   6.489   4.975   4.106 -0.6513  0.1334 -0.0719
12647SOL     OW43776   5.134   2.153   0.416 -0.1161 -0.0422  0.0093
12647SOL    HW143777   5.208   2.194   0.371 -0.2913  0.6248  0.3203
12647SOL    HW243778   5.150   2.171   0.509  0.5314 -1.8723  0.3001
12648SOL     OW43779   4.333   6.695   0.097  0.0730  0.1155  0.0700
12648SOL    HW143780   4.418   6.738   0.086  0.9474 -1.7276 -0.9002
12648SOL    HW243781   4.341   6.646   0.179  0.0547 -0.2684 -0.1545
12649SOL     OW43782   3.455   0.875   6.015 -0.1137  0.0884 -0.5619
12649SOL    HW143783   3.456   0.870   5.920 -1.2299  2.1322 -0.7321
12649SOL    HW243784   3.508   0.800   6.044 -1.3252 -1.6899 -2.7015
12650SOL     OW43785   6.518   4.787   9.005 -0.2190 -0.2480 -0.1511
12650SOL    HW143786   6.527   4.706   9.055  1.4441  0.0380  0.0905
12650SOL    HW243787   6.473   4.761   8.925  0.3320 -1.4398 -0.1005
12651SOL     OW43788   3.804   8.193   1.165 -0.0346 -0.3459  0.2539
12651SOL    HW143789   3.772   8.283   1.175  0.3547 -0.1415 -0.2796
12651SOL    HW243790   3.893   8.195   1.198  0.8659  0.0768 -1.9954
12652SOL     OW43791   4.958   8.837   3.174  0.1328  0.2937 -0.1674
12652SOL    HW143792   4.970   8.840   3.079 -0.2176  1.0500 -0.1951
12652SOL    HW243793   4.942   8.744   3.193  3.3216 -0.4261 -0.4370
12653SOL     OW43794   3.597   4.771   3.329 -0.1959 -0.0411 -0.0297
12653SOL    HW143795   3.512   4.815   3.326 -0.8411 -1.2461 -0.0285
12653SOL    HW243796   3.613   4.757   3.423  0.2512  0.6167  0.0018
12654SOL     OW43797  10.526   2.045   7.620  0.2025  0.0660  0.1488
12654SOL    HW143798  10.457   2.048   7.553  0.8309 -0.9812 -0.5629
12654SOL    HW243799  10.528   1.954   7.649  1.0062  0.1750  0.4626
12655SOL     OW43800  10.007  10.575   5.195 -0.4878 -0.1995 -0.0186
12655SOL    HW143801  10.045  10.513   5.133  0.8367 -0.3942  0.9417
12655SOL    HW243802  10.082  10.623   5.229 -1.1523 -0.2522  1.5997
12656SOL     OW43803   9.250   3.255   3.741 -0.0364  0.1202  0.0706
12656SOL    HW143804   9.326   3.211   3.779  1.3464  1.9629 -0.4652
12656SOL    HW243805   9.179   3.236   3.803  1.3078  0.0135  1.6543
12657SOL     OW43806   7.704   6.969   5.455 -0.0454  0.6952 -0.0312
12657SOL    HW143807   7.749   6.921   5.385  1.9279  0.8398  1.0828
12657SOL    HW243808   7.646   6.904   5.495 -0.5340  0.3796 -1.2177
12658SOL     OW43809   2.254   6.675   8.389 -0.5154  0.7003  0.5486
12658SOL    HW143810   2.170   6.715   8.408 -0.9992  0.0976 -0.2618
12658SOL    HW243811   2.262   6.678   8.294  0.6913  1.3502  0.6422
12659SOL     OW43812   3.503   8.338   8.782 -0.4859  0.1638 -0.0691
12659SOL    HW143813   3.456   8.267   8.738 -1.0186  0.3575  0.1773
12659SOL    HW243814   3.472   8.335   8.872  0.2912  0.0358  0.1988
12660SOL     OW43815   0.790   2.474  10.255 -0.2860 -0.1790 -0.2587
12660SOL    HW143816   0.825   2.494  10.341  0.6310 -0.6619 -0.5106
12660SOL    HW243817   0.867   2.455  10.201 -0.8061  0.6276 -1.3191
12661SOL     OW43818   6.727   9.234   7.966 -0.3104  0.5247  0.1061
12661SOL    HW143819   6.685   9.223   8.051  0.4433 -1.4173  0.2818
12661SOL    HW243820   6.751   9.145   7.940  1.6674  1.3242 -1.0108
12662SOL     OW43821   1.145   8.057   5.836  0.2550 -0.0257  0.4718
12662SOL    HW143822   1.142   8.148   5.807 -0.0790  0.0224  0.6496
12662SOL    HW243823   1.158   8.006   5.756 -1.2365  0.0655  0.1396
12663SOL     OW43824   1.061   8.075   8.196  0.2643  0.2757 -0.1525
12663SOL    HW143825   1.072   8.058   8.289 -2.1141 -0.8023  0.0051
12663SOL    HW243826   1.136   8.130   8.173  0.4840  1.2692  2.5491
12664SOL     OW43827   5.940   2.497   3.674 -0.0814  0.5047  0.1912
12664SOL    HW143828   5.886   2.511   3.752 -0.3790 -0.6624  0.2147
12664SOL    HW243829   5.905   2.559   3.609 -1.8242 -0.5599  0.0340
12665SOL     OW43830   2.009   1.621   7.640 -0.3071  0.2119 -0.0531
12665SOL    HW143831   2.099   1.652   7.628 -0.0896 -0.6778 -0.7405
12665SOL    HW243832   1.968   1.630   7.554 -0.7283  0.1274  0.1333
12666SOL     OW43833   8.177   7.070   4.150 -0.2272  0.2676 -0.1079
12666SOL    HW143834   8.234   6.999   4.180  1.2391  0.0575 -2.9649
12666SOL    HW243835   8.108   7.027   4.101 -0.4173  0.7199 -0.2448
12667SOL     OW43836   1.663   4.466  10.258  0.3878  0.4685  0.4700
12667SOL    HW143837   1.714   4.402  10.307 -0.0298 -0.8008 -0.6671
12667SOL    HW243838   1.629   4.416  10.183 -1.4290  1.5712  0.4993
12668SOL     OW43839   8.140   4.845   5.991  0.1065 -0.3159  0.0413
12668SOL    HW143840   8.159   4.938   6.002 -1.2265  0.1857 -1.4667
12668SOL    HW243841   8.074   4.842   5.922 -0.2672 -2.3596  0.4147
12669SOL     OW43842   4.227   9.599   7.219  0.0007 -0.0981  0.2949
12669SOL    HW143843   4.175   9.595   7.300  0.7874 -1.8040  0.7664
12669SOL    HW243844   4.220   9.690   7.190 -1.5812  0.1815  1.4330
12670SOL     OW43845   3.108   0.467   2.207  0.2521 -0.5455  0.3918
12670SOL    HW143846   3.166   0.507   2.272  0.8679 -0.5823 -0.1236
12670SOL    HW243847   3.068   0.393   2.253  1.7240 -1.4051  0.3603
12671SOL     OW43848   9.834   1.359   1.045 -0.6342 -0.0162  0.3327
12671SOL    HW143849   9.893   1.411   0.990 -0.8597 -0.9380 -0.8426
12671SOL    HW243850   9.861   1.268   1.028 -1.2813 -0.3621  1.1007
12672SOL     OW43851   6.426   4.107   9.709 -0.1188 -0.2843  0.1636
12672SOL    HW143852   6.475   4.185   9.736 -0.7861 -0.0550  0.7519
12672SOL    HW243853   6.346   4.142   9.670 -0.4427 -0.6697  0.4752
12673SOL     OW43854   4.294   2.220   6.608  0.2375 -0.4182 -0.4239
12673SOL    HW143855   4.216   2.235   6.661 -1.0720  1.5911 -2.6803
12673SOL    HW243856   4.362   2.273   6.649  0.1459 -1.3740  0.9890
12674SOL     OW43857   0.817   8.963   3.526  0.0278  0.1924  0.0590
12674SOL    HW143858   0.889   8.967   3.463 -0.9450  2.0842 -1.0336
12674SOL    HW243859   0.738   8.968   3.471 -0.9396 -1.1347  1.2667
12675SOL     OW43860   6.204   7.259   2.707 -0.0406  0.0094 -0.0867
12675SOL    HW143861   6.145   7.321   2.663 -1.9253  0.5703  2.9636
12675SOL    HW243862   6.172   7.173   2.681  0.3824  0.2527 -1.5631
12676SOL     OW43863   3.335   0.537   2.972  0.4835  0.0695  0.4118
12676SOL    HW143864   3.278   0.463   2.949  1.2766 -0.5275  0.3362
12676SOL    HW243865   3.299   0.569   3.055  1.2375 -1.5961  1.4195
12677SOL     OW43866   3.140   2.304   1.652  0.1474 -0.3141 -0.6556
12677SOL    HW143867   3.152   2.223   1.602  2.2808 -1.6270  1.8049
12677SOL    HW243868   3.228   2.339   1.664 -0.4453  0.7575  0.9011
12678SOL     OW43869   2.046   9.642   9.743 -0.2605  0.0008 -0.0236
12678SOL    HW143870   2.072   9.550   9.739 -1.9369 -0.6004  1.6582
12678SOL    HW243871   2.050   9.664   9.836 -0.2642  1.5413 -0.3612
12679SOL     OW43872   5.948   6.558   5.567 -0.1574 -0.3343  0.3897
12679SOL    HW143873   5.911   6.644   5.589  1.2727  0.4484 -0.1227
12679SOL    HW243874   5.952   6.557   5.472  0.4403 -0.6989  0.4137
12680SOL     OW43875   0.647   8.714   6.460 -0.3937 -0.4460 -0.2553
12680SOL    HW143876   0.625   8.792   6.409 -0.8275 -0.3475  0.0791
12680SOL    HW243877   0.721   8.742   6.515  0.3202 -0.6591 -1.0786
12681SOL     OW43878   5.602   2.541   7.572  0.3384  0.9830  0.4318
12681SOL    HW143879   5.543   2.597   7.622 -0.5538  0.0968  0.3967
12681SOL    HW243880   5.690   2.572   7.596 -0.1103  1.6065  1.3350
12682SOL     OW43881   0.455   7.977  10.270 -0.3483  0.7287 -0.1478
12682SOL    HW143882   0.425   7.888  10.292  0.8621  0.4445  0.4106
12682SOL    HW243883   0.538   7.986  10.316  2.3573  0.1714 -4.3342
12683SOL     OW43884   4.714   3.778   2.432  0.0997 -0.2210 -0.1895
12683SOL    HW143885   4.644   3.718   2.457  0.6208 -0.2461  1.2551
12683SOL    HW243886   4.670   3.844   2.378 -0.9472 -0.5246  0.2642
12684SOL     OW43887   3.987   1.609   4.587 -0.1368  0.3901  0.0947
12684SOL    HW143888   4.022   1.689   4.547  1.9384  0.6537  2.2067
12684SOL    HW243889   3.894   1.612   4.568  0.5246  0.7794 -4.0726
12685SOL     OW43890   1.514   6.207   8.137  0.0622 -0.0195 -0.5486
12685SOL    HW143891   1.468   6.227   8.056  0.7488 -0.7026 -1.1311
12685SOL    HW243892   1.453   6.231   8.207 -0.6597  0.2787 -1.2729
12686SOL     OW43893   7.070   9.153   4.202  0.8853 -0.0385 -0.4500
12686SOL    HW143894   7.148   9.114   4.243  0.4009 -0.0780  0.4585
12686SOL    HW243895   7.026   9.198   4.274 -0.0773 -0.2435 -0.9034
12687SOL     OW43896   5.857   5.758   7.699  0.5193 -0.0709 -0.0875
12687SOL    HW143897   5.898   5.800   7.774  0.0636 -0.1551  0.2105
12687SOL    HW243898   5.779   5.810   7.682  1.0742  0.4703 -1.0565
12688SOL     OW43899   1.206   5.053   4.172  0.4844 -0.0653 -0.5868
12688SOL    HW143900   1.142   4.984   4.190 -1.0149  1.5756  0.6585
12688SOL    HW243901   1.279   5.033   4.231 -0.4369  0.0342  0.6298
12689SOL     OW43902   0.292   7.852   6.634 -0.3962 -0.0091  0.4237
12689SOL    HW143903   0.250   7.912   6.572 -0.8040  1.1951  1.7960
12689SOL    HW243904   0.257   7.879   6.719  2.1924  0.1679  1.4934
12690SOL     OW43905   1.385  10.861   4.750  0.3212 -0.0415  0.3164
12690SOL    HW143906   1.324  10.930   4.777  0.7786 -0.0852  1.5239
12690SOL    HW243907   1.331  10.797   4.703 -0.3946  0.3434  0.6109
12691SOL     OW43908   7.802   8.330   2.299 -0.8264  0.6386  0.6130
12691SOL    HW143909   7.733   8.274   2.264  1.1837 -0.6445 -1.6129
12691SOL    HW243910   7.787   8.415   2.257 -1.1024  0.3965  0.2154
12692SOL     OW43911   8.114   7.206   0.625 -0.0224  0.0701  0.1963
12692SOL    HW143912   8.203   7.221   0.658  0.1207  0.3023 -0.2963
12692SOL    HW243913   8.114   7.243   0.537  0.0774 -2.0398 -0.7404
12693SOL     OW43914   3.628   2.008   0.352  0.5125 -0.4205  0.1028
12693SOL    HW143915   3.630   1.921   0.393 -1.5848 -0.4240  0.3496
12693SOL    HW243916   3.644   1.991   0.260 -0.1252 -1.1364  0.1026
12694SOL     OW43917   7.611   3.044   7.813 -0.0721 -0.3274  0.4987
12694SOL    HW143918   7.527   3.004   7.832  0.3407 -1.0284  0.9011
12694SOL    HW243919   7.622   3.110   7.881 -0.5632  0.1923  0.0837
12695SOL     OW43920   4.676   4.156   4.261  0.5704 -0.2505 -0.1200
12695SOL    HW143921   4.594   4.199   4.286  0.2105 -0.1431 -1.4562
12695SOL    HW243922   4.653   4.098   4.189  1.6327 -0.4190 -0.3455
12696SOL     OW43923   6.993   5.588   3.547  0.3225 -0.0246 -0.3321
12696SOL    HW143924   7.011   5.542   3.465 -0.1207  0.6782 -0.8324
12696SOL    HW243925   6.910   5.551   3.576  0.8910 -0.8861  0.2598
12697SOL     OW43926   9.196   2.129   0.526  0.3635  0.1147 -0.1434
12697SOL    HW143927   9.172   2.107   0.616  0.2040  0.8127 -0.0134
12697SOL    HW243928   9.270   2.072   0.506 -1.7927 -2.6922 -0.8121
12698SOL     OW43929   4.921   5.459   3.920  0.5821  0.1963 -0.1809
12698SOL    HW143930   4.927   5.452   4.015  2.2441 -0.4690 -0.3015
12698SOL    HW243931   4.864   5.534   3.905  1.0581  0.8957  1.3440
12699SOL     OW43932   2.445  10.842  10.708  0.6348  0.7111  0.5027
12699SOL    HW143933   2.362  10.797  10.690  1.3327 -0.4851  0.1782
12699SOL    HW243934   2.501  10.775  10.747  1.6455  1.3523  0.2095
12700SOL     OW43935   5.087   9.736   5.505  0.2395 -0.9732 -0.4968
12700SOL    HW143936   5.028   9.752   5.578 -0.8733 -0.6603 -1.4313
12700SOL    HW243937   5.078   9.643   5.486  2.2660 -1.5903  1.1793
12701SOL     OW43938   9.533   7.105   3.983 -0.4218 -0.4053  0.0203
12701SOL    HW143939   9.568   7.189   3.954 -3.0233  0.6762 -0.2247
12701SOL    HW243940   9.553   7.045   3.911  1.2886  0.0042  0.1125
12702SOL     OW43941   0.018   4.463   5.913  1.0320  0.3166 -0.1528
12702SOL    HW143942   0.019   4.429   5.823 -0.5367 -0.7476  0.1977
12702SOL    HW243943   0.012   4.558   5.902  0.9968  0.2121 -1.1735
12703SOL     OW43944   9.718   8.479   9.893 -0.0453 -0.4576  0.1713
12703SOL    HW143945   9.728   8.527   9.975 -0.2963 -0.1063 -0.0043
12703SOL    HW243946   9.744   8.542   9.826  2.2419 -1.3848  0.1066
12704SOL     OW43947   9.339   8.325   2.670  0.2558 -0.6483  0.2428
12704SOL    HW143948   9.330   8.230   2.656  0.4145 -0.7322  0.7082
12704SOL    HW243949   9.343   8.335   2.765  1.5869 -0.2908  0.1660
12705SOL     OW43950   8.999   6.566   1.279  0.0750  0.2214 -0.2548
12705SOL    HW143951   8.930   6.514   1.237  0.5937 -1.6079  1.0366
12705SOL    HW243952   9.057   6.501   1.318  0.6538  1.7832  1.6320
12706SOL     OW43953   1.399   4.082   5.740 -0.2011  0.5830 -0.6066
12706SOL    HW143954   1.471   4.144   5.726 -0.0317  1.1403  2.2551
12706SOL    HW243955   1.431   4.000   5.701  0.5632  1.6229 -2.2951
12707SOL     OW43956  10.067   4.954   6.724 -0.6419 -0.4238 -0.4496
12707SOL    HW143957  10.105   5.012   6.790 -0.0408 -2.0430  0.7061
12707SOL    HW243958  10.058   5.008   6.646  1.4277  0.7795  0.0781
12708SOL     OW43959   5.212  10.101  10.389  0.0911 -0.2271 -0.8713
12708SOL    HW143960   5.263  10.182  10.394  0.6610 -0.4290 -2.6839
12708SOL    HW243961   5.133  10.120  10.440  1.7735  0.1814  1.7482
12709SOL     OW43962   9.749   5.462   4.755  0.1540 -0.1312  0.1229
12709SOL    HW143963   9.835   5.456   4.714 -0.6454 -1.3282 -1.4949
12709SOL    HW243964   9.726   5.371   4.776 -0.6525  0.1869  0.6800
12710SOL     OW43965   6.363   6.904  10.775 -0.3372  0.9421 -0.3337
12710SOL    HW143966   6.447   6.940  10.749 -0.7970  1.2428 -1.4844
12710SOL    HW243967   6.361   6.911  10.870  1.4972 -0.3257 -0.1679
12711SOL     OW43968   0.996  10.356   6.054  0.2469 -0.7077  0.7817
12711SOL    HW143969   0.982  10.311   6.137 -0.0434 -0.7495  0.7096
12711SOL    HW243970   0.927  10.323   5.996 -0.0440 -0.0928  0.7646
12712SOL     OW43971   2.755   8.609   4.145  0.1124  0.1865 -0.0960
12712SOL    HW143972   2.830   8.646   4.100  0.3255  0.0897  0.1800
12712SOL    HW243973   2.726   8.536   4.089  2.0854 -1.7565  1.2474
12713SOL     OW43974   3.488   1.051   2.470  0.6044 -0.1140 -0.4289
12713SOL    HW143975   3.501   0.972   2.416  3.2265 -0.1807  0.1774
12713SOL    HW243976   3.577   1.078   2.495 -0.3616  1.7058  1.3033
12714SOL     OW43977   8.064   0.754   9.675  0.2290 -1.0377  0.0986
12714SOL    HW143978   7.999   0.812   9.714  1.8879  0.1451  1.2519
12714SOL    HW243979   8.016   0.675   9.651 -1.5925 -0.2277  0.9542
12715SOL     OW43980   9.896   2.411  10.266 -0.4057 -0.5906 -0.1746
12715SOL    HW143981   9.986   2.443  10.270 -1.4808  3.0701 -1.1446
12715SOL    HW243982   9.863   2.425  10.355 -0.5503  0.0674 -0.3210
12716SOL     OW43983   4.222   1.353   9.722  0.0928 -0.8185 -0.1984
12716SOL    HW143984   4.211   1.261   9.697  0.1082 -1.0416  0.6106
12716SOL    HW243985   4.282   1.388   9.656 -0.1060 -1.3217 -0.6584
12717SOL     OW43986   1.525   3.575   4.702  0.0944  0.2356  0.3894
12717SOL    HW143987   1.480   3.617   4.629 -0.1026  0.7854  0.8177
12717SOL    HW243988   1.593   3.521   4.661 -0.7199 -0.3270 -0.2490
12718SOL     OW43989   2.151   6.692   1.368  0.0321 -0.1180 -0.0483
12718SOL    HW143990   2.097   6.624   1.408 -0.1158 -1.1625 -1.9111
12718SOL    HW243991   2.241   6.662   1.382  0.0319  0.0845  0.4225
12719SOL     OW43992   2.294   2.424   3.724  0.5190 -0.7351 -0.0758
12719SOL    HW143993   2.237   2.404   3.649 -0.9709 -1.4875  1.2124
12719SOL    HW243994   2.366   2.361   3.717  1.2675  0.2147 -1.7124
12720SOL     OW43995   7.975   5.629   8.635 -0.3449  0.2354 -0.5576
12720SOL    HW143996   7.932   5.630   8.550  0.3897 -1.4372 -0.9916
12720SOL    HW243997   8.051   5.687   8.624  0.2957 -0.7305 -1.3745
12721SOL     OW43998   8.632   4.133   1.353 -0.4943 -0.6893 -0.1861
12721SOL    HW143999   8.674   4.151   1.437 -0.6221  0.3113 -0.3214
12721SOL    HW244000   8.644   4.214   1.303 -2.3586 -0.4680 -0.3262
12722SOL     OW44001   5.893   3.487   5.039  0.6591 -0.5495 -0.1114
12722SOL    HW144002   5.959   3.475   5.107  0.5882 -2.3767 -0.3084
12722SOL    HW244003   5.811   3.497   5.088  1.1133  3.0500  0.1915
12723SOL     OW44004   2.858   5.402   0.066  0.2037  0.1528  0.0129
12723SOL    HW144005   2.792   5.446   0.120 -0.5712 -2.1969  1.0955
12723SOL    HW244006   2.929   5.382   0.127  0.1289 -0.9008 -0.2385
12724SOL     OW44007   6.437   6.321   7.387  0.0843 -0.5763 -0.3318
12724SOL    HW144008   6.508   6.318   7.451 -0.9325  0.5759  0.9113
12724SOL    HW244009   6.389   6.239   7.399  1.0672 -1.2816 -1.0591
12725SOL     OW44010   2.071   6.942   1.419  0.0463  0.4044 -0.3226
12725SOL    HW144011   2.018   6.904   1.489 -0.5662  1.1953 -0.3517
12725SOL    HW244012   2.113   6.866   1.378 -0.2171 -0.1368  0.3849
12726SOL     OW44013   7.067   2.196   2.514  0.1791 -0.1571 -0.4855
12726SOL    HW144014   7.027   2.260   2.455  1.1949  0.5236 -0.4556
12726SOL    HW244015   7.050   2.112   2.473  0.8502  0.3037 -1.7585
12727SOL     OW44016  10.692  10.786   3.326  0.1371 -0.0529  0.2790
12727SOL    HW144017  10.685  10.695   3.300 -0.9227  0.1874 -0.3168
12727SOL    HW244018  10.779  10.813   3.295  1.3135 -1.3673  2.2211
12728SOL     OW44019   5.649   6.280   0.275 -0.1065  0.1347 -0.5380
12728SOL    HW144020   5.736   6.320   0.270  0.2785 -0.4305  1.0810
12728SOL    HW244021   5.589   6.354   0.282  0.3743  0.4895 -0.1288
12729SOL     OW44022   7.726   8.131   6.094 -0.0323  0.0789  0.4313
12729SOL    HW144023   7.725   8.092   6.181 -0.1724 -0.4156  0.2097
12729SOL    HW244024   7.757   8.061   6.037 -1.6432 -0.1691 -0.1815
12730SOL     OW44025  10.253  10.019   5.836  0.1595  0.1536  0.8541
12730SOL    HW144026  10.192   9.949   5.860 -1.7725  0.5902 -2.1502
12730SOL    HW244027  10.325   9.974   5.792 -1.0329 -0.0410 -0.9881
12731SOL     OW44028   1.630   7.174   0.312 -0.4235 -0.0346 -0.1245
12731SOL    HW144029   1.660   7.115   0.381  0.0832  0.9700  0.5371
12731SOL    HW244030   1.703   7.178   0.251 -0.6384 -0.4432 -0.4161
12732SOL     OW44031   3.957   0.582   4.760 -0.4369 -0.2829 -0.2230
12732SOL    HW144032   3.995   0.506   4.803 -1.9011 -1.2333 -0.5478
12732SOL    HW244033   3.950   0.648   4.829 -2.4246 -1.6658  0.9641
12733SOL     OW44034   6.701   1.989   0.249 -0.2693 -0.1415  0.1613
12733SOL    HW144035   6.669   1.900   0.235 -0.4860 -0.2510  1.2718
12733SOL    HW244036   6.703   1.999   0.344  0.6579  0.7158  0.0667
12734SOL     OW44037   1.370   0.132   0.520 -0.2256 -0.7747  0.2233
12734SOL    HW144038   1.353   0.210   0.572 -1.4175 -0.7393 -0.2040
12734SOL    HW244039   1.433   0.160   0.454 -1.5348  0.1415 -0.6644
12735SOL     OW44040   0.368   8.426   6.111  0.2902  0.1050  0.4230
12735SOL    HW144041   0.275   8.428   6.131  0.4834 -0.0638  1.3872
12735SOL    HW244042   0.389   8.332   6.102  0.7677 -0.0115  2.2973
12736SOL     OW44043   6.377   1.013   0.296 -0.1689 -0.0680 -0.3749
12736SOL    HW144044   6.312   1.047   0.235  0.1324  0.4621 -0.4049
12736SOL    HW244045   6.422   0.944   0.246 -0.5722 -0.3060 -0.4165
12737SOL     OW44046   2.218   2.647   7.784  0.4500  0.8612 -0.0324
12737SOL    HW144047   2.159   2.722   7.790  0.6717  1.0639 -0.3872
12737SOL    HW244048   2.295   2.674   7.834  0.0260  0.3787  0.9187
12738SOL     OW44049   8.956   5.444   6.165 -0.0766 -0.0650  0.1166
12738SOL    HW144050   8.914   5.423   6.082  0.3537  1.8406 -0.6124
12738SOL    HW244051   9.020   5.373   6.178 -0.2087 -0.4279 -1.1252
12739SOL     OW44052   2.012   8.632   0.783 -0.2177 -0.1102  0.0143
12739SOL    HW144053   1.938   8.666   0.833  1.5456  1.4211  1.7619
12739SOL    HW244054   1.985   8.544   0.757 -2.6604  0.4288  0.4991
12740SOL     OW44055   0.383  10.136   0.002  0.0365 -0.4295  0.1098
12740SOL    HW144056   0.360  10.048  -0.026 -1.0982 -0.5971  1.4420
12740SOL    HW244057   0.369  10.135   0.097  1.9949  0.5972  0.4697
12741SOL     OW44058   3.224   2.025   5.347 -0.1693  0.4062 -0.2894
12741SOL    HW144059   3.170   2.079   5.404  1.9309  2.0268  0.3213
12741SOL    HW244060   3.241   2.081   5.271  1.3134  0.2964 -0.0721
12742SOL     OW44061   3.546   5.683   7.081  0.3807 -0.2841 -0.1431
12742SOL    HW144062   3.533   5.591   7.105 -2.1830 -0.4242 -1.7404
12742SOL    HW244063   3.552   5.683   6.986  0.8030  1.1996 -0.1532
12743SOL     OW44064  10.533   2.023   0.124 -0.1333 -0.1690  0.7549
12743SOL    HW144065  10.568   2.009   0.036  2.6824 -0.0785  1.7721
12743SOL    HW244066  10.473   1.949   0.137 -1.7069  0.5544 -1.6706
12744SOL     OW44067   3.156   0.526   6.802  0.1410  0.2465 -0.8278
12744SOL    HW144068   3.155   0.606   6.749  0.4439  1.4466  0.8707
12744SOL    HW244069   3.239   0.484   6.779  1.7793  2.3353  0.8153
12745SOL     OW44070   4.392   4.514   7.042  0.4043 -0.1301 -0.0581
12745SOL    HW144071   4.415   4.500   7.134 -0.1299 -1.5345 -0.1152
12745SOL    HW244072   4.471   4.491   6.993  0.4435 -0.1369  0.0083
12746SOL     OW44073   6.446   0.951   9.670 -0.4042  0.1298  0.4877
12746SOL    HW144074   6.429   0.871   9.720 -1.4709  1.7314  2.8747
12746SOL    HW244075   6.382   0.950   9.600 -0.8928 -0.7497  0.9378
12747SOL     OW44076   6.890   0.475   7.187 -0.5524  0.4879 -0.0636
12747SOL    HW144077   6.967   0.436   7.146 -0.1195  2.2180 -0.9688
12747SOL    HW244078   6.828   0.486   7.115 -0.8516  0.9882  0.2653
12748SOL     OW44079   3.423   0.967  10.205  0.2710 -0.3669 -0.2308
12748SOL    HW144080   3.444   1.049  10.159 -0.5851 -1.0160 -1.8400
12748SOL    HW244081   3.501   0.913  10.192  0.7056  0.0433  0.5570
12749SOL     OW44082   9.878   4.464   7.264 -0.1833 -0.4033  0.3051
12749SOL    HW144083   9.819   4.439   7.193  0.9586 -2.7079  0.0455
12749SOL    HW244084   9.959   4.490   7.220  0.0776 -0.4957  0.7273
12750SOL     OW44085   4.865   1.941   6.317 -0.0222  0.3587 -0.2004
12750SOL    HW144086   4.893   1.951   6.226  0.7586  0.3234  0.0232
12750SOL    HW244087   4.775   1.973   6.319 -0.1700  0.0118 -1.0577
12751SOL     OW44088   3.850   3.251   0.857  0.0542 -0.1095  0.3014
12751SOL    HW144089   3.908   3.315   0.897 -0.0531  1.4663 -1.8539
12751SOL    HW244090   3.904   3.172   0.846  0.8343  0.3051  1.1027
12752SOL     OW44091   8.223   1.827   7.563 -0.3023 -0.2501  0.3720
12752SOL    HW144092   8.152   1.769   7.535 -0.2043 -0.3122  0.2520
12752SOL    HW244093   8.302   1.790   7.523  0.0299 -1.0327  1.7068
12753SOL     OW44094   3.606   2.592   8.904 -0.4261 -0.4746 -0.2198
12753SOL    HW144095   3.599   2.496   8.902 -1.7785 -0.3905 -1.6657
12753SOL    HW244096   3.627   2.615   8.813  1.9063  0.5100  0.5022
12754SOL     OW44097   1.155   1.347   5.222 -0.0961 -0.1899  0.3415
12754SOL    HW144098   1.233   1.321   5.173  0.5494  0.8506  0.7754
12754SOL    HW244099   1.166   1.441   5.237 -0.4166 -0.4078  2.1932
12755SOL     OW44100   2.040   5.755   3.369 -0.2411  0.3264  0.2735
12755SOL    HW144101   1.980   5.783   3.300  0.5871  0.0607 -0.5769
12755SOL    HW244102   2.075   5.671   3.338  1.2440  0.8998  0.3144
12756SOL     OW44103   3.722   1.015   9.442  0.4996 -0.0545  0.0927
12756SOL    HW144104   3.645   0.982   9.395  0.5674  1.9744 -1.5954
12756SOL    HW244105   3.717   1.110   9.432  1.4616  0.3772  2.8527
12757SOL     OW44106   5.698   3.509   5.862 -0.0077  0.5503  0.3472
12757SOL    HW144107   5.722   3.501   5.770 -0.4833 -1.0851  0.3251
12757SOL    HW244108   5.781   3.529   5.906  0.8289 -1.5625 -0.1301
12758SOL     OW44109   4.822   9.675   4.535  0.1049  0.4523  0.3148
12758SOL    HW144110   4.831   9.660   4.441 -1.0225  1.3502  0.0325
12758SOL    HW244111   4.888   9.742   4.555  0.3621  0.2441  0.1666
12759SOL     OW44112   2.849   0.632   4.779  0.0233  0.3846 -0.0356
12759SOL    HW144113   2.806   0.568   4.722 -0.7202  0.8234  0.0140
12759SOL    HW244114   2.869   0.705   4.720  0.2687  0.3788  0.0411
12760SOL     OW44115   7.560   6.769   4.640 -0.1651 -0.5834  0.2840
12760SOL    HW144116   7.541   6.834   4.707 -0.8976  0.8361 -1.2411
12760SOL    HW244117   7.478   6.758   4.593  0.1740 -1.9989 -0.0273
12761SOL     OW44118   6.819   5.373   9.712  0.7026 -0.3438 -0.1793
12761SOL    HW144119   6.825   5.452   9.764 -1.2071  0.0696 -0.4791
12761SOL    HW244120   6.839   5.401   9.623  0.3408 -0.2491 -0.2339
12762SOL     OW44121   7.672   0.170   8.222  0.1680 -0.4846  0.1399
12762SOL    HW144122   7.667   0.265   8.233  1.2349 -0.3301 -0.5969
12762SOL    HW244123   7.599   0.136   8.274  0.5657  0.6506  1.4888
12763SOL     OW44124   6.766   2.887   2.717 -0.6187 -0.1431 -0.2305
12763SOL    HW144125   6.776   2.887   2.812 -1.2531 -0.7443 -0.1618
12763SOL    HW244126   6.837   2.831   2.686 -0.5615 -0.1474 -0.0948
12764SOL     OW44127   4.186   8.172   6.228 -0.4585  0.2540 -0.2502
12764SOL    HW144128   4.218   8.261   6.238 -2.1042  1.0240 -1.4220
12764SOL    HW244129   4.220   8.144   6.143  1.1851 -0.7957  0.6890
12765SOL     OW44130   7.048   9.436   8.863  0.8411 -0.4246  0.2885
12765SOL    HW144131   7.125   9.435   8.806  0.4098 -0.0876 -0.3075
12765SOL    HW244132   7.018   9.527   8.860  0.7715 -0.4197  0.9990
12766SOL     OW44133  10.921   8.198   6.834 -0.5973 -0.5138  0.3920
12766SOL    HW144134  10.830   8.206   6.805 -1.2849 -0.9606  2.2345
12766SOL    HW244135  10.951   8.288   6.845 -0.5214 -0.3515 -1.0000
12767SOL     OW44136   1.222   9.100   7.780  0.1582 -0.2730  0.0094
12767SOL    HW144137   1.313   9.115   7.754 -0.0771 -0.1177 -0.7878
12767SOL    HW244138   1.187   9.188   7.793  0.2738 -0.3529  0.8855
12768SOL     OW44139   7.314   3.351   9.062  0.0020  0.2390  0.1672
12768SOL    HW144140   7.238   3.294   9.047 -1.2069  1.2330  2.0026
12768SOL    HW244141   7.294   3.431   9.014 -0.3070  0.6220  0.9065
12769SOL     OW44142   0.541   8.011   2.838  0.3735  0.1996  0.0480
12769SOL    HW144143   0.479   8.024   2.909  0.2352 -0.0099 -0.0337
12769SOL    HW244144   0.522   8.081   2.776 -0.0221 -0.0752 -0.1458
12770SOL     OW44145   6.598   3.860   1.832  0.0090  0.3998 -0.1654
12770SOL    HW144146   6.585   3.923   1.904 -0.5977  0.5986 -0.4433
12770SOL    HW244147   6.601   3.775   1.875  0.4899  0.5855  0.1797
12771SOL     OW44148  10.723   3.468   6.337  0.1895 -0.4082 -0.2746
12771SOL    HW144149  10.747   3.465   6.244  1.5211  1.4605 -0.0561
12771SOL    HW244150  10.636   3.509   6.337  0.1043 -0.5842 -0.7177
12772SOL     OW44151   7.350   4.202   3.300 -0.2350  0.0966  0.0452
12772SOL    HW144152   7.302   4.205   3.383 -0.3849  2.3380 -0.0596
12772SOL    HW244153   7.286   4.229   3.235  0.1221 -0.7828 -0.6777
12773SOL     OW44154   1.634   4.585   0.305  1.0031 -0.2177  0.1250
12773SOL    HW144155   1.722   4.620   0.320 -0.3429  2.5246  2.7217
12773SOL    HW244156   1.624   4.516   0.371  0.8243  0.3192  0.6701
12774SOL     OW44157  10.396   9.154   4.355 -0.2390 -0.4057 -0.4909
12774SOL    HW144158  10.444   9.206   4.419 -1.4643 -0.0382  0.1644
12774SOL    HW244159  10.425   9.064   4.370  0.0684 -0.2235  0.0368
12775SOL     OW44160   0.061   4.175   0.386 -0.1405 -0.6359  0.2430
12775SOL    HW144161   0.120   4.248   0.402 -1.4169  0.6608 -0.7012
12775SOL    HW244162  -0.001   4.179   0.459  0.0274 -1.0510  0.4113
12776SOL     OW44163   8.207   7.224   2.602 -0.2762  0.3145 -0.0010
12776SOL    HW144164   8.286   7.173   2.585  0.6865  0.6670  2.8888
12776SOL    HW244165   8.228   7.311   2.567 -0.2326 -0.0978 -1.0587
12777SOL     OW44166   5.072  10.661   4.830 -0.1485 -0.4071  0.2128
12777SOL    HW144167   5.076  10.612   4.913 -0.2334 -0.1257  0.3839
12777SOL    HW244168   5.027  10.742   4.853  0.8517  0.1904  0.1510
12778SOL     OW44169  10.747  10.785   6.347  0.3492 -0.1793 -0.1070
12778SOL    HW144170  10.809  10.715   6.325  1.0856  0.6970 -0.9115
12778SOL    HW244171  10.672  10.768   6.291  1.7750  1.4049 -2.7049
12779SOL     OW44172   5.156   2.592   2.784  0.2876  0.0941 -0.1840
12779SOL    HW144173   5.197   2.575   2.699  1.1195  0.4945  0.1310
12779SOL    HW244174   5.211   2.658   2.825  0.0272 -0.2608  0.7675
12780SOL     OW44175  10.224   8.053   9.160  0.7551 -0.2383  0.2833
12780SOL    HW144176  10.238   7.963   9.131  2.5794  1.1140 -3.7449
12780SOL    HW244177  10.159   8.088   9.099  1.6967  1.7584  0.3677
12781SOL     OW44178   5.654   6.725   2.505 -0.1589  0.0663 -0.4466
12781SOL    HW144179   5.561   6.714   2.489 -0.6604  0.7780  1.6568
12781SOL    HW244180   5.695   6.651   2.460 -1.5694  0.4478 -2.4837
12782SOL     OW44181   1.841   0.972   3.308 -0.2507 -0.1642  0.3261
12782SOL    HW144182   1.908   1.032   3.275 -2.0534  2.8020  1.6511
12782SOL    HW244183   1.776   0.967   3.237  1.0113 -2.7545 -0.8117
12783SOL     OW44184  10.164   3.559  10.241  0.0422 -0.0899 -0.0651
12783SOL    HW144185  10.076   3.526  10.254 -0.1339  0.7503  1.1015
12783SOL    HW244186  10.218   3.480  10.231 -0.7737 -0.6163 -0.4234
12784SOL     OW44187   9.999   0.276   9.471 -0.1234  0.6755 -0.4208
12784SOL    HW144188   9.938   0.207   9.444  0.8135  0.2704 -1.6195
12784SOL    HW244189   9.966   0.355   9.430 -1.2805  1.0116  1.0696
12785SOL     OW44190   5.766   1.836   9.769  0.3135 -0.1162  0.5506
12785SOL    HW144191   5.709   1.765   9.798 -0.3223 -0.9326 -2.3698
12785SOL    HW244192   5.845   1.793   9.738 -0.0421  0.3943 -1.1776
12786SOL     OW44193   5.145   8.900   4.780  0.1231  0.0842 -0.4189
12786SOL    HW144194   5.208   8.908   4.852  1.8516 -1.1378 -1.7278
12786SOL    HW244195   5.086   8.974   4.792  0.3818 -0.0470  2.2166
12787SOL     OW44196   1.859  10.165   6.700 -0.0504  0.1033 -0.0715
12787SOL    HW144197   1.785  10.165   6.761 -0.4719 -0.6714 -0.5618
12787SOL    HW244198   1.933  10.134   6.753 -0.2143  0.2918  0.2711
12788SOL     OW44199   9.670  10.478   3.809  0.5104 -0.5807  0.5952
12788SOL    HW144200   9.688  10.545   3.874  1.8694 -0.1799 -0.1558
12788SOL    HW244201   9.722  10.403   3.837  1.1630 -0.3788 -0.0705
12789SOL     OW44202   9.124   8.211   1.189  0.2362 -0.7922  0.4974
12789SOL    HW144203   9.102   8.294   1.146 -0.0667 -0.7390  0.7543
12789SOL    HW244204   9.093   8.222   1.279 -0.3835 -1.4312  0.3654
12790SOL     OW44205   3.685   5.383   7.361  0.5444  0.0436 -0.2875
12790SOL    HW144206   3.672   5.347   7.449  0.6926  0.7514  0.0268
12790SOL    HW244207   3.772   5.352   7.335  0.9777  0.7684  0.2748
12791SOL     OW44208   0.235   7.917   5.101  0.6293  0.1563  0.0605
12791SOL    HW144209   0.271   7.870   5.026  0.1888  0.3425 -0.2647
12791SOL    HW244210   0.141   7.921   5.085  0.6444  1.0635  0.1292
12792SOL     OW44211   5.192   2.164   5.396  0.0673  0.4144  0.0727
12792SOL    HW144212   5.104   2.138   5.370 -0.2469  0.9883  0.5333
12792SOL    HW244213   5.240   2.082   5.403 -0.4293  0.0955 -0.1720
12793SOL     OW44214   5.712   8.897   3.933  0.6020 -0.2038 -0.0551
12793SOL    HW144215   5.683   8.822   3.882 -0.3047  1.1534 -1.6072
12793SOL    HW244216   5.706   8.972   3.873  0.4941  1.2972  1.7278
12794SOL     OW44217   3.660   8.805   9.164  0.4078  0.2622  0.0548
12794SOL    HW144218   3.650   8.821   9.070  1.7411  1.1743  0.0327
12794SOL    HW244219   3.593   8.860   9.205 -0.0252  0.0419 -0.3490
12795SOL     OW44220   4.165   3.561  10.128 -0.3243 -0.2529 -0.1485
12795SOL    HW144221   4.089   3.594  10.081  0.4262  0.9463 -0.5532
12795SOL    HW244222   4.163   3.606  10.213 -1.2369 -1.8298  0.7288
12796SOL     OW44223   9.763   9.601   0.575 -0.2744 -0.1450 -0.0138
12796SOL    HW144224   9.740   9.615   0.667 -0.3786  0.7647 -0.1670
12796SOL    HW244225   9.703   9.533   0.545  1.3233 -2.2427  1.2025
12797SOL     OW44226  10.599   8.703   5.103  0.1040 -0.2480  0.0073
12797SOL    HW144227  10.633   8.625   5.058  0.8840  1.0673 -1.8486
12797SOL    HW244228  10.672   8.732   5.158 -0.2280 -0.8788  0.7906
12798SOL     OW44229   9.690   4.091   2.110  0.1281  0.0506  0.2367
12798SOL    HW144230   9.694   4.170   2.055 -0.2508 -0.1985 -0.1594
12798SOL    HW244231   9.740   4.025   2.060  0.0212 -0.0987  0.3266
12799SOL     OW44232  10.384   9.207   6.483  0.0266  0.1521 -0.3107
12799SOL    HW144233  10.401   9.243   6.570 -0.9278 -2.4651  1.0625
12799SOL    HW244234  10.291   9.188   6.483 -0.0492  0.3538 -2.0641
12800SOL     OW44235   5.847   0.007   9.952  0.4382 -0.5321  0.4696
12800SOL    HW144236   5.927   0.050   9.921 -0.0213  1.2574  1.6084
12800SOL    HW244237   5.858  -0.085   9.926  2.9570 -0.4079  0.7814
12801SOL     OW44238   6.700   5.549   2.903 -0.0787  0.6669 -0.1922
12801SOL    HW144239   6.647   5.470   2.898  1.5148 -0.5372  0.9899
12801SOL    HW244240   6.774   5.533   2.844  0.6547  0.9203  0.6320
12802SOL     OW44241   6.872   6.529   1.945  0.1972 -0.6553  0.3598
12802SOL    HW144242   6.888   6.617   1.910  0.0783 -0.6364  0.3534
12802SOL    HW244243   6.937   6.474   1.901 -0.3043 -0.7276 -0.3074
12803SOL     OW44244   5.686   3.408   7.325  0.3530  0.0016  0.2626
12803SOL    HW144245   5.594   3.430   7.313  0.5001  0.9428  0.7368
12803SOL    HW244246   5.716   3.379   7.239 -0.9536 -2.6641  0.5730
12804SOL     OW44247   7.886   3.473   3.027 -0.1552 -0.1226 -0.1001
12804SOL    HW144248   7.925   3.462   2.940 -0.6801 -1.3986 -0.1902
12804SOL    HW244249   7.805   3.520   3.011  0.0666  0.2306 -0.2112
12805SOL     OW44250   1.987   2.465   3.685  0.0022  0.0934  0.1426
12805SOL    HW144251   2.009   2.388   3.633 -0.9368  0.5334 -0.9296
12805SOL    HW244252   1.960   2.430   3.770  2.0039 -0.6096  0.5503
12806SOL     OW44253   5.697   1.332   4.457  0.1198 -0.5556  0.3739
12806SOL    HW144254   5.754   1.409   4.462 -0.9840  0.4009 -0.9345
12806SOL    HW244255   5.628   1.349   4.521 -0.1606 -0.4293  0.0382
12807SOL     OW44256   9.067   7.347   4.180  0.3874  0.6485  0.2578
12807SOL    HW144257   9.044   7.259   4.150  0.9816 -0.0041  1.6308
12807SOL    HW244258   9.162   7.342   4.195  0.5972  1.8168 -0.5445
12808SOL     OW44259   9.079   5.358   3.662  0.1700  0.5290 -0.5973
12808SOL    HW144260   9.164   5.398   3.681  0.0998  0.5399 -0.2953
12808SOL    HW244261   9.029   5.370   3.743  0.6087 -1.4234  0.0077
12809SOL     OW44262   7.610   5.240   8.986 -0.2564 -0.2676  0.2403
12809SOL    HW144263   7.671   5.286   9.042 -3.0758  1.4147  2.1837
12809SOL    HW244264   7.533   5.298   8.981 -3.1358 -3.6444  0.9523
12810SOL     OW44265   8.120   8.055   7.046 -0.2171 -0.1403  0.0108
12810SOL    HW144266   8.137   7.999   7.122  1.1704  0.1147 -0.0840
12810SOL    HW244267   8.044   8.015   7.003 -0.4197 -0.8434  0.9960
12811SOL     OW44268   5.482   7.916   0.066 -0.1363 -0.7951  0.1770
12811SOL    HW144269   5.517   8.001   0.039  0.0802 -0.7530  0.5777
12811SOL    HW244270   5.410   7.936   0.125 -1.9067 -0.8515 -1.8266
12812SOL     OW44271   8.511   1.978   3.527  0.1629  0.6791 -0.1675
12812SOL    HW144272   8.560   2.059   3.515  1.5844  0.2269  2.0848
12812SOL    HW244273   8.521   1.957   3.620 -1.9264 -0.9857 -0.2398
12813SOL     OW44274   5.770   2.813   8.731 -0.1502 -0.1477 -0.4251
12813SOL    HW144275   5.749   2.859   8.812  0.1639 -1.0236  0.1695
12813SOL    HW244276   5.684   2.791   8.694 -0.3363  1.8676 -1.3114
12814SOL     OW44277   9.194   6.807   2.134  0.3402  0.6627  0.0611
12814SOL    HW144278   9.224   6.731   2.185 -1.6034 -0.2913 -0.1119
12814SOL    HW244279   9.226   6.789   2.045 -3.4321 -2.2384 -0.9997
12815SOL     OW44280   7.580   6.519   9.209 -0.4852 -0.0602  0.2059
12815SOL    HW144281   7.546   6.438   9.170 -0.5374 -0.9138  1.8949
12815SOL    HW244282   7.675   6.506   9.213 -0.5029 -0.1079  0.5712
12816SOL     OW44283   8.783  10.414   6.809  0.0882  0.2955 -0.0739
12816SOL    HW144284   8.765  10.490   6.754  1.5147  0.9005  0.2372
12816SOL    HW244285   8.791  10.451   6.897 -1.5171 -0.5631  0.4619
12817SOL     OW44286   7.067  10.285   6.775  0.2562  0.2127 -0.2808
12817SOL    HW144287   7.140  10.232   6.743  0.3701 -0.2913  0.7810
12817SOL    HW244288   7.108  10.348   6.835 -0.1728 -0.0840  0.3352
12818SOL     OW44289   0.326   0.285   2.831 -0.3596 -0.2344 -0.1399
12818SOL    HW144290   0.235   0.313   2.834  0.0623  1.3254 -1.0572
12818SOL    HW244291   0.366   0.340   2.763  0.9965 -1.6961 -0.5793
12819SOL     OW44292   8.325  10.722   6.417  0.3906 -0.2135  0.1808
12819SOL    HW144293   8.323  10.646   6.475 -0.2625  1.9932  3.3111
12819SOL    HW244294   8.413  10.758   6.428  0.1336  0.4387  0.1490
12820SOL     OW44295   7.994  10.567   0.246 -0.3229 -0.0850 -0.1396
12820SOL    HW144296   7.930  10.556   0.316 -0.0609  0.6651  0.2241
12820SOL    HW244297   7.941  10.583   0.168 -0.6468  3.3587  0.6131
12821SOL     OW44298   3.993   6.989   6.422 -0.1117  0.8175  0.4182
12821SOL    HW144299   4.016   6.996   6.329  2.1665 -0.0812  0.8606
12821SOL    HW244300   3.908   6.944   6.422  0.5013 -0.4442 -1.1969
12822SOL     OW44301   0.332   4.600   2.547 -0.2208  0.0022  0.2493
12822SOL    HW144302   0.357   4.525   2.493  0.1364  0.4697 -0.2332
12822SOL    HW244303   0.288   4.660   2.487 -1.3317 -0.2194  0.8152
12823SOL     OW44304   0.609   1.775   1.888 -0.1216  0.3676  0.3016
12823SOL    HW144305   0.674   1.737   1.947 -0.8059 -0.1434  0.7334
12823SOL    HW244306   0.595   1.708   1.822 -0.9752  0.0511  0.7936
12824SOL     OW44307   9.618   1.503   1.119 -0.1623 -0.3586  0.3457
12824SOL    HW144308   9.687   1.446   1.086  0.0793 -0.3722  0.8681
12824SOL    HW244309   9.589   1.460   1.200  0.6698  0.7510  1.2484
12825SOL     OW44310   8.242   6.062   7.380 -0.1182  0.2260  0.1707
12825SOL    HW144311   8.249   6.120   7.304 -0.2116  1.9526  1.4244
12825SOL    HW244312   8.182   6.107   7.440  0.3006 -0.8702  1.4693
12826SOL     OW44313  10.724   5.863   7.982  0.1741 -0.2481 -0.1004
12826SOL    HW144314  10.775   5.826   8.055 -2.1542 -0.6683  1.4083
12826SOL    HW244315  10.749   5.955   7.979 -0.2052 -0.0560  1.7381
12827SOL     OW44316   5.935   9.064   8.195  0.1774  0.9131  0.4050
12827SOL    HW144317   5.888   9.023   8.123 -1.7582  0.9352  1.5848
12827SOL    HW244318   5.875   9.058   8.269  2.9158 -1.2582  2.7281
12828SOL     OW44319   8.512   7.810   1.399  0.4603  0.5344  0.2537
12828SOL    HW144320   8.599   7.849   1.389 -0.1350  1.5518 -1.3788
12828SOL    HW244321   8.526   7.732   1.452  2.4045  0.5386 -0.2036
12829SOL     OW44322   5.936   1.929   2.696  0.0157  0.0786 -0.3019
12829SOL    HW144323   5.971   1.842   2.717 -1.1708 -0.3710 -0.1073
12829SOL    HW244324   5.855   1.911   2.649 -1.3662  1.0414  1.6110
12830SOL     OW44325   9.167  10.381   5.915  0.4083 -0.3503 -0.4049
12830SOL    HW144326   9.231  10.441   5.877  0.5577 -0.5230 -0.4301
12830SOL    HW244327   9.095  10.437   5.945  1.0484 -0.0349  0.5980
12831SOL     OW44328   6.500   5.203   1.244 -0.5431 -0.1239  0.2212
12831SOL    HW144329   6.551   5.195   1.164 -0.4303  2.2658 -0.0139
12831SOL    HW244330   6.410   5.183   1.218 -0.4479  0.2522 -0.4049
12832SOL     OW44331   7.163   5.814   2.951  0.2552  0.2828  0.1449
12832SOL    HW144332   7.139   5.756   2.879  2.1347  0.6658 -0.8360
12832SOL    HW244333   7.114   5.894   2.934  1.0931  0.5678 -1.0390
12833SOL     OW44334   1.764   8.676   4.763  0.1459 -0.1197  0.2262
12833SOL    HW144335   1.698   8.608   4.755 -2.2135  1.8887  1.3981
12833SOL    HW244336   1.847   8.628   4.769 -1.3670 -2.8565  1.0595
12834SOL     OW44337   0.411   5.189   2.803 -0.3567 -0.1085 -0.2050
12834SOL    HW144338   0.415   5.255   2.871 -2.5901  0.1397 -0.2420
12834SOL    HW244339   0.345   5.221   2.742 -1.7609 -2.4725 -0.0614
12835SOL     OW44340  10.411   7.275   7.818  0.6758 -0.2965 -0.0343
12835SOL    HW144341  10.461   7.345   7.861 -2.0936  1.3774  0.7590
12835SOL    HW244342  10.437   7.195   7.864  3.2569  0.2822 -0.3482
12836SOL     OW44343   4.613   6.995   4.775 -0.6024 -0.3346 -0.2558
12836SOL    HW144344   4.630   7.079   4.817 -1.6965 -0.2208 -0.0020
12836SOL    HW244345   4.607   6.932   4.847  1.3876 -0.8759 -0.5157
12837SOL     OW44346   5.373   1.745   2.836 -0.0001  0.2795  0.1581
12837SOL    HW144347   5.418   1.681   2.780 -1.5130 -0.6781 -0.0449
12837SOL    HW244348   5.403   1.830   2.804 -0.0468 -0.2728 -1.4522
12838SOL     OW44349   7.622   4.069   0.849 -0.1503  0.1928 -0.8099
12838SOL    HW144350   7.698   4.014   0.866  0.5025  0.5339 -2.3994
12838SOL    HW244351   7.615   4.126   0.926  0.6571 -0.4455 -0.2576
12839SOL     OW44352   9.835  10.493   1.242  0.0227  0.4600  0.0759
12839SOL    HW144353   9.860  10.494   1.334 -0.9156  1.1063  0.3359
12839SOL    HW244354   9.760  10.434   1.238  0.8906 -0.6479 -0.5218
12840SOL     OW44355   2.196   6.494   7.951 -0.5551  0.1892 -0.1725
12840SOL    HW144356   2.224   6.427   7.889  2.5632  0.0754  1.1517
12840SOL    HW244357   2.150   6.446   8.020  0.0026 -0.3356 -0.1629
12841SOL     OW44358   7.696   8.536   4.207 -0.4029 -0.4588 -0.4024
12841SOL    HW144359   7.717   8.550   4.115  1.6894 -1.1283 -0.0691
12841SOL    HW244360   7.781   8.528   4.250 -1.2379  2.2011  2.0137
12842SOL     OW44361   6.417   7.754   7.826  0.3559 -0.2121  0.0655
12842SOL    HW144362   6.460   7.790   7.749  0.4437  0.9186  0.6189
12842SOL    HW244363   6.336   7.803   7.833  0.8995  0.5433  1.3616
12843SOL     OW44364   3.136   2.525  10.224  0.2976 -0.2144  0.2922
12843SOL    HW144365   3.195   2.469  10.175  0.1766  0.4475 -0.6285
12843SOL    HW244366   3.111   2.594  10.163  1.4047  1.5650  1.7079
12844SOL     OW44367   3.840   1.452  10.841  0.2058 -0.1933 -0.3306
12844SOL    HW144368   3.812   1.442  10.750  0.8201  0.3158 -0.5849
12844SOL    HW244369   3.846   1.362  10.874  0.4219 -0.4033 -0.9289
12845SOL     OW44370   3.770   2.117   4.821 -0.2427 -0.1867 -0.0519
12845SOL    HW144371   3.863   2.141   4.817 -0.1615 -0.3028  0.9468
12845SOL    HW244372   3.761   2.047   4.756  0.0024  0.9621 -1.3560
12846SOL     OW44373   4.575   6.232   1.546 -0.1330 -0.0391  0.1492
12846SOL    HW144374   4.529   6.316   1.550  0.7519  0.4848 -0.4375
12846SOL    HW244375   4.656   6.248   1.594  0.7775 -0.0653 -1.3393
12847SOL     OW44376   8.646   6.421   8.067  0.3226 -0.6909  0.0045
12847SOL    HW144377   8.626   6.367   7.991 -0.7960 -0.7401  0.3186
12847SOL    HW244378   8.719   6.376   8.110  2.1591  0.2460 -1.9293
12848SOL     OW44379   8.903   9.958   7.803  0.5970 -0.4554  0.0656
12848SOL    HW144380   8.995   9.964   7.829  0.9388 -2.2606 -0.6174
12848SOL    HW244381   8.905   9.926   7.713 -0.6904 -3.4561  0.9887
12849SOL     OW44382   3.735   5.327   4.853 -0.1383  0.3037 -0.0211
12849SOL    HW144383   3.743   5.324   4.757  2.8891 -0.6024  0.1507
12849SOL    HW244384   3.717   5.236   4.877 -0.0540  0.3756  0.3078
12850SOL     OW44385   9.315   7.251   1.383  0.3336 -0.4502  0.4135
12850SOL    HW144386   9.273   7.293   1.458  2.2271 -1.7138  2.2684
12850SOL    HW244387   9.407   7.274   1.391  0.7613 -1.5629 -0.9036
12851SOL     OW44388   6.751   3.094   5.192  0.1707  0.4375 -0.1166
12851SOL    HW144389   6.809   3.169   5.203  0.2821  0.1897  1.0994
12851SOL    HW244390   6.673   3.117   5.242 -0.8025  0.7570 -1.7106
12852SOL     OW44391   1.620   4.825   9.920 -0.4782 -0.0386  0.5845
12852SOL    HW144392   1.654   4.743   9.883 -1.6188 -1.0213  1.5849
12852SOL    HW244393   1.569   4.864   9.850 -1.1318 -0.9568  0.5250
12853SOL     OW44394   8.731  10.146   9.034  0.4945  0.3359  0.2991
12853SOL    HW144395   8.797  10.204   9.071  1.9145 -0.8779 -0.2433
12853SOL    HW244396   8.777  10.097   8.966 -0.8668 -0.8277  0.1687
12854SOL     OW44397   5.354   9.814   8.672  0.1738 -0.3402  0.4873
12854SOL    HW144398   5.338   9.788   8.581 -0.7884  0.0871  0.5263
12854SOL    HW244399   5.448   9.802   8.684  0.3853  0.0211 -0.6997
12855SOL     OW44400   5.572   6.144   9.130 -0.1124  0.5810  0.0653
12855SOL    HW144401   5.494   6.148   9.185 -0.1931  1.0049 -0.0751
12855SOL    HW244402   5.611   6.059   9.149 -0.2702  0.6270  0.5964
12856SOL     OW44403   2.892   1.664   2.106  0.4735 -0.6303 -0.8153
12856SOL    HW144404   2.898   1.736   2.169  1.7816 -0.3169 -1.2765
12856SOL    HW244405   2.807   1.677   2.064 -0.9439 -1.4588  1.5586
12857SOL     OW44406   2.373   7.627   7.034  0.0526 -0.2375  0.1621
12857SOL    HW144407   2.376   7.713   7.078 -1.2262  0.2794 -0.7060
12857SOL    HW244408   2.431   7.637   6.959 -0.2497 -0.0588 -0.0505
12858SOL     OW44409   5.160   9.335   5.127  0.4112 -0.4130 -0.0544
12858SOL    HW144410   5.108   9.273   5.178  1.2497 -1.2248 -0.1490
12858SOL    HW244411   5.108   9.415   5.125 -0.6250 -1.0632  0.2164
12859SOL     OW44412  10.474  10.238   7.230  0.0097 -0.0518 -0.1859
12859SOL    HW144413  10.414  10.163   7.230  0.3247 -0.3104  0.5373
12859SOL    HW244414  10.417  10.314   7.223 -0.3608 -0.3306 -0.2404
12860SOL     OW44415   7.782   6.192   8.667 -0.5057 -0.5272 -0.0792
12860SOL    HW144416   7.832   6.112   8.649 -0.4222 -0.0512 -2.2482
12860SOL    HW244417   7.693   6.171   8.639 -0.9982 -0.5241  1.3804
12861SOL     OW44418   9.030   5.793   7.765  0.2435  0.1265  0.0899
12861SOL    HW144419   9.025   5.715   7.821  0.9256 -1.8115 -2.3748
12861SOL    HW244420   9.108   5.840   7.795  0.1402 -0.4176  1.2464
12862SOL     OW44421   4.872   5.808   2.018 -0.4394  0.1971 -0.3578
12862SOL    HW144422   4.876   5.715   2.000  1.2653 -0.0643  1.1042
12862SOL    HW244423   4.783   5.823   2.051 -0.0927 -1.3516  1.4219
12863SOL     OW44424   4.555   7.876   8.013  0.1864 -0.1671  0.7047
12863SOL    HW144425   4.481   7.839   7.967 -0.2795  0.5163  0.8863
12863SOL    HW244426   4.595   7.937   7.951  0.5953 -0.5322  0.6073
12864SOL     OW44427   7.180   5.870  10.033  0.7941 -0.9027  0.3772
12864SOL    HW144428   7.122   5.872   9.957  1.6367 -2.6416 -0.3730
12864SOL    HW244429   7.242   5.942  10.017  0.6362 -0.9140 -0.3287
12865SOL     OW44430   0.493   0.259   6.350  0.2512  0.1841 -0.4172
12865SOL    HW144431   0.469   0.329   6.290  1.9813  0.4519 -0.8547
12865SOL    HW244432   0.589   0.257   6.347  0.2523 -2.6154 -0.8869
12866SOL     OW44433   2.054   6.093  10.248  0.5275 -0.0958 -0.1924
12866SOL    HW144434   2.081   6.152  10.318 -1.9292  1.1381 -0.1881
12866SOL    HW244435   2.038   6.010  10.291 -2.6143  1.0664  1.1791
12867SOL     OW44436   4.621   7.876   0.612  0.0778 -0.1786 -0.1900
12867SOL    HW144437   4.548   7.891   0.672  0.4740 -0.1220  0.2935
12867SOL    HW244438   4.699   7.895   0.665  0.3908  1.6385 -1.2329
12868SOL     OW44439  10.134   6.711   3.727  0.4265  0.1387 -0.5660
12868SOL    HW144440  10.089   6.724   3.643  1.2268  0.6952 -0.9175
12868SOL    HW244441  10.101   6.781   3.783 -1.1669 -1.0554  0.0585
12869SOL     OW44442   6.105   7.622  10.772 -0.5126  0.8561 -0.5168
12869SOL    HW144443   6.185   7.582  10.740 -1.7552 -0.6553 -1.8742
12869SOL    HW244444   6.082   7.688  10.705  1.1686  3.5740  1.3764
12870SOL     OW44445   4.526   4.755   4.294 -0.1225  0.0170 -0.1598
12870SOL    HW144446   4.540   4.845   4.324 -0.7347  0.0418  0.0759
12870SOL    HW244447   4.441   4.758   4.250 -1.0648 -0.8242  1.4888
12871SOL     OW44448   7.355   3.442   7.445 -0.2678  0.8656  0.1937
12871SOL    HW144449   7.360   3.537   7.461  1.7014  0.6860  1.0224
12871SOL    HW244450   7.412   3.404   7.512  1.6744 -0.6236 -2.1018
12872SOL     OW44451   8.320   1.294   8.314  0.2846 -0.0232  0.0750
12872SOL    HW144452   8.412   1.271   8.325  0.6056  1.2014  0.0186
12872SOL    HW244453   8.275   1.209   8.308  1.4314 -0.6323 -0.1817
12873SOL     OW44454   3.795   2.939   0.104 -0.4712 -0.8032  0.3899
12873SOL    HW144455   3.863   2.957   0.169 -1.0402 -1.3087  1.1462
12873SOL    HW244456   3.843   2.923   0.022  0.1983  1.1965  0.3347
12874SOL     OW44457   3.842   6.442   8.584  0.2439 -0.1100 -0.0017
12874SOL    HW144458   3.760   6.428   8.537  0.3048  0.7215 -0.3787
12874SOL    HW244459   3.856   6.361   8.633 -1.0874 -0.0407  0.5217
12875SOL     OW44460   9.272   0.178   3.232 -0.3430  0.4367  0.3134
12875SOL    HW144461   9.285   0.120   3.157  0.3101  1.1592 -0.1521
12875SOL    HW244462   9.335   0.249   3.218  1.5811 -0.6492  2.8197
12876SOL     OW44463   0.942   8.493   0.197  0.2648  0.1813 -0.0563
12876SOL    HW144464   0.903   8.566   0.245  1.7414  1.9684 -1.4112
12876SOL    HW244465   1.027   8.478   0.239  1.1537  1.1281 -1.3996
12877SOL     OW44466   9.027  10.591   9.393  0.1098  0.4090 -1.0249
12877SOL    HW144467   8.940  10.630   9.398 -0.5053 -0.9531 -0.5780
12877SOL    HW244468   9.014  10.501   9.424  1.1044 -0.7071 -3.6151
12878SOL     OW44469   4.371   3.905   6.485  0.0119  0.5976  0.1853
12878SOL    HW144470   4.401   3.821   6.518  0.3127  0.4571 -0.4348
12878SOL    HW244471   4.418   3.970   6.537  0.9073  0.3785 -0.3291
12879SOL     OW44472   1.700   8.797   2.481  0.3903 -0.2426 -0.4755
12879SOL    HW144473   1.777   8.787   2.538  0.2869 -0.3159 -0.3504
12879SOL    HW244474   1.737   8.818   2.396  0.6909 -2.7032 -1.0367
12880SOL     OW44475   9.391   6.294   3.235 -0.6583 -0.1144 -0.4210
12880SOL    HW144476   9.474   6.246   3.237 -0.1874  0.5235 -2.3609
12880SOL    HW244477   9.382   6.331   3.322  0.6698 -0.9187  0.0792
12881SOL     OW44478   3.618   5.663   8.654 -0.6673  0.1381 -0.3086
12881SOL    HW144479   3.646   5.738   8.601 -0.4934  0.7706  0.6589
12881SOL    HW244480   3.586   5.701   8.736 -2.3114 -0.7106 -0.4930
12882SOL     OW44481   0.103   4.138   4.597 -0.5089  0.7559  0.4798
12882SOL    HW144482   0.048   4.075   4.552 -0.0955  0.1248  0.8504
12882SOL    HW244483   0.111   4.211   4.536  0.7288 -0.4289 -0.8399
12883SOL     OW44484   2.974   6.897   8.368  0.0039  0.4080 -0.2327
12883SOL    HW144485   3.018   6.953   8.432 -0.8394  0.7958  0.0161
12883SOL    HW244486   2.943   6.822   8.419  0.0331  0.3212 -0.3421
12884SOL     OW44487   2.217   8.998  10.119 -0.1703 -0.7527 -0.2622
12884SOL    HW144488   2.234   8.908  10.146 -1.0880 -0.6216  0.8260
12884SOL    HW244489   2.126   9.014  10.143 -0.9257 -0.4378 -3.0525
12885SOL     OW44490   6.267   9.767   6.099  0.3667  0.0496 -0.1539
12885SOL    HW144491   6.217   9.704   6.047  1.3678 -1.2775  0.4339
12885SOL    HW244492   6.298   9.716   6.175 -0.1057  1.6475  1.1633
12886SOL     OW44493   5.204   1.537   9.705  0.7253  0.8270  0.5965
12886SOL    HW144494   5.186   1.458   9.653 -1.7256  1.7123 -0.0344
12886SOL    HW244495   5.288   1.569   9.671 -0.5562  1.1267 -2.6800
12887SOL     OW44496  10.877   0.342   6.293  0.9532 -0.2904  0.1438
12887SOL    HW144497  10.794   0.311   6.257  0.0232 -0.9478  2.6582
12887SOL    HW244498  10.943   0.312   6.232 -0.5712 -0.5701 -1.4342
12888SOL     OW44499   0.013   8.746   9.051 -0.1784 -0.4912  0.3888
12888SOL    HW144500  -0.052   8.691   9.006 -0.6139  0.2958  0.0418
12888SOL    HW244501   0.012   8.714   9.141  0.4103 -1.8147 -0.0507
12889SOL     OW44502  10.230   8.747   4.214  0.0211 -0.1118 -0.1347
12889SOL    HW144503  10.265   8.658   4.208  0.8856  0.0892  1.4084
12889SOL    HW244504  10.197   8.753   4.304  0.8547  1.4407  0.0896
12890SOL     OW44505   5.048   0.982  10.005 -0.5815  0.4923 -0.1672
12890SOL    HW144506   5.003   0.900   9.986 -1.6929  0.8223  0.8674
12890SOL    HW244507   5.124   0.983   9.947 -1.8243 -0.1846 -1.8906
12891SOL     OW44508   1.885  10.872   2.995  0.1995  0.3030 -0.5241
12891SOL    HW144509   1.857  10.957   3.029  1.0736  0.2647  0.3561
12891SOL    HW244510   1.946  10.840   3.061  1.5726 -0.0228 -1.9057
12892SOL     OW44511   5.921   4.301   2.562 -0.0296  0.1733 -0.6869
12892SOL    HW144512   5.842   4.353   2.547 -0.4897 -0.0825  0.6914
12892SOL    HW244513   5.991   4.365   2.572 -0.6760  0.6458  1.5271
12893SOL     OW44514  10.921   9.278   8.130 -0.2675 -0.3996 -0.7561
12893SOL    HW144515  10.974   9.267   8.051 -0.3999 -1.4006 -0.7109
12893SOL    HW244516  10.980   9.255   8.202 -0.4229 -0.3839 -0.6227
12894SOL     OW44517   1.213   6.484   8.099 -0.1310 -0.2541  0.2524
12894SOL    HW144518   1.280   6.506   8.035  0.1566 -0.2930  0.5411
12894SOL    HW244519   1.132   6.481   8.048  0.1534 -0.6885 -0.1832
12895SOL     OW44520   6.098   5.035   4.967  0.0511 -0.4451 -1.1850
12895SOL    HW144521   6.021   4.994   4.928  0.2724 -1.5351 -0.5236
12895SOL    HW244522   6.078   5.038   5.060  0.9302 -1.0337 -0.9675
12896SOL     OW44523   8.734   0.348   2.588  0.1042 -0.8671 -0.3351
12896SOL    HW144524   8.699   0.430   2.623 -0.5536 -1.9712  1.8034
12896SOL    HW244525   8.781   0.373   2.510  0.0291  1.5699  0.3271
12897SOL     OW44526  10.541   4.371   0.337  0.4570  0.1586  0.5420
12897SOL    HW144527  10.512   4.430   0.407  1.6022  1.6626 -0.2055
12897SOL    HW244528  10.613   4.417   0.294 -0.5866 -0.4475 -2.0274
12898SOL     OW44529   4.529   0.573   9.653  0.0996 -0.4219  0.2594
12898SOL    HW144530   4.578   0.518   9.593  1.6067  1.1048  0.0091
12898SOL    HW244531   4.507   0.516   9.726 -0.6323 -1.9770 -1.0936
12899SOL     OW44532   1.243   4.388   5.111 -0.0750  0.3412 -0.0675
12899SOL    HW144533   1.149   4.395   5.096 -0.0751  1.5563  0.3399
12899SOL    HW244534   1.267   4.474   5.146  0.8247 -0.6003  1.7855
12900SOL     OW44535   6.556   2.751   6.507  0.3979  0.1966 -0.3610
12900SOL    HW144536   6.601   2.669   6.486  1.2948  1.0348 -1.8441
12900SOL    HW244537   6.580   2.769   6.598  1.4682 -0.3977 -0.5076
12901SOL     OW44538   6.355   2.904   3.973  0.3731  0.7258 -0.1981
12901SOL    HW144539   6.317   2.939   4.053  1.1475 -0.9627  0.9834
12901SOL    HW244540   6.382   2.815   3.996 -0.4182 -0.2564 -2.6762
12902SOL     OW44541   8.092   0.802   9.142  0.5540  0.0536 -0.5099
12902SOL    HW144542   8.095   0.890   9.179  1.3750  0.0459 -0.5427
12902SOL    HW244543   8.162   0.800   9.078  0.6861 -0.6955 -0.3579
12903SOL     OW44544   0.118   5.034  10.317 -0.1198  0.6543  0.2529
12903SOL    HW144545   0.137   4.942  10.332  0.1151  0.6753  0.0898
12903SOL    HW244546   0.059   5.059  10.389  0.8332  0.7085  1.0425
12904SOL     OW44547   7.381   2.541   3.554 -0.0609 -0.3404 -0.2112
12904SOL    HW144548   7.339   2.587   3.482  2.4407  3.1666  0.2833
12904SOL    HW244549   7.454   2.493   3.513  1.1745  1.4069 -0.1746
12905SOL     OW44550   2.587   3.024   1.385  0.1802 -0.1231 -0.1954
12905SOL    HW144551   2.561   3.024   1.477  0.2839  0.1835 -0.1660
12905SOL    HW244552   2.598   2.931   1.363  2.4323 -0.1490  0.7537
12906SOL     OW44553   3.024   9.463   5.960 -0.2146  0.0049 -0.0185
12906SOL    HW144554   3.078   9.534   5.993  0.6231 -0.9882  0.8198
12906SOL    HW244555   3.020   9.477   5.865  0.1657  0.9865  0.0998
12907SOL     OW44556   7.474  10.326   7.590 -0.2628  0.1713  0.0986
12907SOL    HW144557   7.409  10.260   7.568  0.3924 -0.9327  1.3275
12907SOL    HW244558   7.466  10.338   7.684  0.0341  1.4346 -0.0102
12908SOL     OW44559   0.036  10.161  10.391  0.3622 -0.1454 -0.1398
12908SOL    HW144560   0.060  10.240  10.440 -0.6188  0.5973 -0.8230
12908SOL    HW244561   0.079  10.170  10.307 -0.5049  0.1262 -0.5626
12909SOL     OW44562   3.653   9.712   8.448  0.7849 -0.2620  0.8477
12909SOL    HW144563   3.729   9.708   8.391  0.0134 -1.6368 -0.1315
12909SOL    HW244564   3.619   9.623   8.450 -1.8795  0.6287 -0.2687
12910SOL     OW44565   3.182   9.698   6.057  0.3524  0.3168 -0.0741
12910SOL    HW144566   3.269   9.736   6.068  0.6277 -0.1525 -0.6019
12910SOL    HW244567   3.123   9.760   6.101  0.7101  1.7638 -1.5539
12911SOL     OW44568   8.810   6.127   8.410  0.4593 -0.2616  0.1306
12911SOL    HW144569   8.882   6.072   8.441  0.8038  0.4381  0.5948
12911SOL    HW244570   8.827   6.213   8.449  1.6381  1.0717 -2.9325
12912SOL     OW44571   1.114   2.551   5.235 -0.1684  0.6390  0.5809
12912SOL    HW144572   1.188   2.515   5.284 -0.2914 -1.0504 -0.4110
12912SOL    HW244573   1.055   2.477   5.222 -2.4938  2.1017  2.0633
12913SOL     OW44574   7.263   8.179   2.606  0.0496 -0.5021  0.3947
12913SOL    HW144575   7.218   8.130   2.538 -0.4169 -1.4192  1.3366
12913SOL    HW244576   7.356   8.171   2.584 -0.0077 -1.9467  0.6097
12914SOL     OW44577   3.655   0.746   8.839  0.2480  0.3023 -0.0581
12914SOL    HW144578   3.699   0.795   8.768  1.0398  0.4429  0.5135
12914SOL    HW244579   3.635   0.813   8.904  1.0556 -0.0709  0.5919
12915SOL     OW44580   6.538   6.762   5.192  0.3070  0.2761 -0.2884
12915SOL    HW144581   6.514   6.829   5.128  0.4602  0.6783  0.0751
12915SOL    HW244582   6.512   6.679   5.151 -0.1457  0.5777 -0.6146
12916SOL     OW44583   4.975   3.763   7.410 -0.0454  0.1477 -0.1742
12916SOL    HW144584   4.927   3.843   7.433 -0.9806  0.2091 -2.0811
12916SOL    HW244585   5.030   3.745   7.486 -2.6267  0.4353  1.9224
12917SOL     OW44586   6.325   7.314   9.692  0.1355 -0.1296 -0.4814
12917SOL    HW144587   6.322   7.403   9.728  3.1199 -0.5285  1.0446
12917SOL    HW244588   6.281   7.260   9.757  1.4582 -0.2177  0.3645
12918SOL     OW44589   5.215   8.327   0.025 -0.2676 -0.0588 -0.0085
12918SOL    HW144590   5.150   8.329   0.096 -0.3035  0.4005 -0.0504
12918SOL    HW244591   5.235   8.419   0.008  1.3358 -0.2168  0.8504
12919SOL     OW44592   1.960   1.991   5.244 -0.0702 -0.5541  0.1885
12919SOL    HW144593   2.056   1.989   5.253  0.0924 -0.5992 -1.2420
12919SOL    HW244594   1.931   2.056   5.307  1.0833  0.7420 -0.5424
12920SOL     OW44595   0.481   4.388   0.743 -0.5661 -0.1165 -0.1872
12920SOL    HW144596   0.483   4.327   0.670 -1.4033  0.5464 -0.7847
12920SOL    HW244597   0.571   4.390   0.776  0.0144  0.2120 -1.7302
12921SOL     OW44598   2.853   6.830   9.977  0.2112 -0.2126 -0.2117
12921SOL    HW144599   2.779   6.769   9.973 -0.8725  1.0620 -0.2242
12921SOL    HW244600   2.888   6.830   9.888  0.8541 -1.5305  0.0094
12922SOL     OW44601  10.901   3.360   5.993 -0.1107  0.0964  0.1329
12922SOL    HW144602  10.875   3.451   6.009  0.5597 -0.0117  2.0180
12922SOL    HW244603  10.895   3.351   5.898 -1.2703  1.7738 -0.0183
12923SOL     OW44604   4.710   8.944   9.498  0.3180 -0.3120 -0.4212
12923SOL    HW144605   4.670   8.870   9.544 -1.1319 -0.1599 -1.3749
12923SOL    HW244606   4.647   8.967   9.430  1.3948  0.8990 -1.0539
12924SOL     OW44607   0.589   7.544   1.414 -0.0720 -0.4553 -0.6251
12924SOL    HW144608   0.652   7.610   1.441  0.0765 -1.0200  0.4376
12924SOL    HW244609   0.622   7.513   1.329 -0.7282  1.5571 -1.7011
12925SOL     OW44610   9.803   6.759   1.473  0.4064  0.7993  0.1349
12925SOL    HW144611   9.801   6.667   1.450 -0.1415  0.3461  1.8471
12925SOL    HW244612   9.766   6.804   1.397 -1.6114 -0.6201  0.1965
12926SOL     OW44613   3.281   8.411   2.860  0.2199  0.1535 -0.2462
12926SOL    HW144614   3.253   8.496   2.827  0.8185  0.5088  0.1416
12926SOL    HW244615   3.207   8.353   2.841 -0.6041  0.9639  0.3568
12927SOL     OW44616   8.365  10.220   8.614 -0.5820  0.3871  0.3235
12927SOL    HW144617   8.317  10.247   8.693  0.1562  0.1846  0.8552
12927SOL    HW244618   8.449  10.266   8.620 -0.3216 -0.0297 -0.0801
12928SOL     OW44619   9.422   3.317   8.297  0.4335 -0.1496 -0.1137
12928SOL    HW144620   9.500   3.292   8.347 -0.3655  2.2240  2.5093
12928SOL    HW244621   9.456   3.373   8.227  1.2127 -0.3379  0.1031
12929SOL     OW44622   7.193   3.538   4.131 -0.4529  0.7468 -0.1941
12929SOL    HW144623   7.147   3.618   4.159 -0.1547  0.9245 -0.2098
12929SOL    HW244624   7.123   3.479   4.103 -0.6327  1.2686 -0.8663
12930SOL     OW44625   8.269   9.493   2.952  0.2722  0.0262 -0.6873
12930SOL    HW144626   8.184   9.499   2.909  0.5454  0.8480 -1.1387
12930SOL    HW244627   8.329   9.465   2.884  0.2644 -1.2481 -0.2069
12931SOL     OW44628   8.470   7.368   2.899  0.0819 -0.3264  0.3163
12931SOL    HW144629   8.523   7.426   2.953  1.4854 -0.7769 -0.5439
12931SOL    HW244630   8.458   7.289   2.953  0.1640 -0.1736  0.5587
12932SOL     OW44631  10.244   7.477   9.807 -0.1442  0.1307 -0.1255
12932SOL    HW144632  10.240   7.526   9.725  0.1436  1.7008  0.7503
12932SOL    HW244633  10.185   7.403   9.794  1.1163 -0.5634 -2.3082
12933SOL     OW44634  10.185   3.881   9.651 -0.0344 -0.0319 -0.0701
12933SOL    HW144635  10.196   3.976   9.661 -0.4483  0.1001 -0.8197
12933SOL    HW244636  10.274   3.847   9.650  0.1559  0.4728 -0.9381
12934SOL     OW44637   3.133   0.855   8.261 -0.1502 -0.2864 -0.3663
12934SOL    HW144638   3.118   0.818   8.348  0.3606  0.7722  0.1894
12934SOL    HW244639   3.222   0.828   8.239 -0.3274 -0.6656 -0.6237
12935SOL     OW44640   0.571   4.650   7.305 -0.5025 -0.4068  0.1812
12935SOL    HW144641   0.550   4.582   7.369  1.3607 -0.6657  0.5529
12935SOL    HW244642   0.493   4.654   7.249 -1.2205 -1.8426  1.0124
12936SOL     OW44643   0.178   2.480  10.803  0.1515 -0.0887  0.5998
12936SOL    HW144644   0.217   2.537  10.870 -0.2422 -0.3688  1.0771
12936SOL    HW244645   0.182   2.393  10.841  0.8915 -0.4112 -0.1918
12937SOL     OW44646   9.394   9.310   9.333 -0.2426 -0.2183  0.2851
12937SOL    HW144647   9.385   9.223   9.296  0.2209  0.5664 -1.7732
12937SOL    HW244648   9.304   9.344   9.338 -0.1904  0.3995 -2.0790
12938SOL     OW44649   6.549   7.013   6.409  0.1008 -0.0650  0.2625
12938SOL    HW144650   6.482   7.070   6.373  0.6730  0.9142  0.7176
12938SOL    HW244651   6.542   6.932   6.358 -0.5253  0.5062 -0.5736
12939SOL     OW44652   5.158   6.760   5.050 -0.0052 -0.1690  0.5789
12939SOL    HW144653   5.091   6.692   5.063 -1.4898  1.4261  1.7569
12939SOL    HW244654   5.235   6.712   5.019 -2.3280 -1.8846 -3.4706
12940SOL     OW44655   0.136   0.095   5.385  0.0756  0.4854  0.3865
12940SOL    HW144656   0.082   0.166   5.351 -0.1458  0.2826  0.3135
12940SOL    HW244657   0.146   0.117   5.478 -0.3998  0.3609  0.4733
12941SOL     OW44658   6.474   3.877   5.123 -0.1792 -0.0251 -0.2720
12941SOL    HW144659   6.534   3.865   5.197 -1.4082 -1.0147  0.6026
12941SOL    HW244660   6.421   3.954   5.147 -0.8164 -0.5581  0.0677
12942SOL     OW44661   2.669   6.260   8.704  0.1384 -0.1795  0.2905
12942SOL    HW144662   2.575   6.266   8.689 -0.1761  1.0461  2.3228
12942SOL    HW244663   2.678   6.200   8.779  0.6699  1.9664  2.0480
12943SOL     OW44664   3.141   3.937   1.193  0.0525 -0.7972  0.1110
12943SOL    HW144665   3.052   3.902   1.197  0.6454 -2.6641 -1.5352
12943SOL    HW244666   3.130   4.032   1.192 -1.8536 -0.9766  0.8099
12944SOL     OW44667   5.721   1.400   5.899  0.2709  0.2856  0.0588
12944SOL    HW144668   5.779   1.442   5.963  1.9401  0.2735 -1.3868
12944SOL    HW244669   5.680   1.472   5.852  0.6967  0.3128 -0.2802
12945SOL     OW44670   4.165   4.217   2.629  0.0676 -0.1268  0.5876
12945SOL    HW144671   4.104   4.146   2.649  0.2946 -0.1507  1.2196
12945SOL    HW244672   4.110   4.296   2.628 -0.6262 -0.5268 -2.4265
12946SOL     OW44673   1.791   8.013   7.773  0.5928 -0.3945  0.2489
12946SOL    HW144674   1.816   8.093   7.729 -0.7904 -0.2333 -0.2854
12946SOL    HW244675   1.698   8.024   7.793  0.4514 -1.7291  0.4488
12947SOL     OW44676  10.881   0.575   0.006  1.2722  0.4105  0.2828
12947SOL    HW144677  10.875   0.499   0.064  0.4831 -0.9703 -1.4891
12947SOL    HW244678  10.973   0.577  -0.022  1.0904 -0.5639 -0.4509
12948SOL     OW44679   4.113   1.597   8.404 -0.2344 -0.5715 -0.5643
12948SOL    HW144680   4.111   1.551   8.320 -1.0516 -0.0721 -0.8277
12948SOL    HW244681   4.144   1.685   8.383  0.2618 -0.6602 -0.2275
12949SOL     OW44682   3.514   0.838   7.784 -0.4821  0.1327  0.2182
12949SOL    HW144683   3.490   0.876   7.700 -1.1978  2.1410  1.2622
12949SOL    HW244684   3.477   0.750   7.782 -1.1542  0.4145 -1.2628
12950SOL     OW44685   5.556   8.654   1.392 -0.5303  0.8439 -0.2770
12950SOL    HW144686   5.466   8.643   1.425 -0.7639 -0.5147 -1.2688
12950SOL    HW244687   5.550   8.727   1.331 -0.9295  0.8579 -0.2237
12951SOL     OW44688   0.175   2.234   4.635  0.4071  0.2919 -0.7364
12951SOL    HW144689   0.137   2.231   4.547  2.7256  0.4200 -1.7972
12951SOL    HW244690   0.204   2.324   4.646  1.0059  0.0386 -0.2155
12952SOL     OW44691   0.365   7.367   3.915 -0.1468 -0.3536  0.5136
12952SOL    HW144692   0.308   7.436   3.949 -1.5639 -0.8800 -0.7134
12952SOL    HW244693   0.433   7.358   3.982 -0.9049  1.0177  1.5226
12953SOL     OW44694   7.153   5.743   7.140  0.1969  0.2787 -0.3637
12953SOL    HW144695   7.197   5.669   7.183  1.0357  0.6265 -0.6246
12953SOL    HW244696   7.156   5.723   7.047 -0.8646 -0.0510 -0.3477
12954SOL     OW44697   1.297   8.480   1.878  0.0094  0.3569  0.0429
12954SOL    HW144698   1.277   8.469   1.970  0.1330  1.5757  0.2390
12954SOL    HW244699   1.323   8.572   1.870  0.7644  0.0705 -1.0610
12955SOL     OW44700  10.860   0.444   3.236 -0.1447  0.0565  0.2152
12955SOL    HW144701  10.903   0.372   3.189 -1.6474 -1.5732  1.2149
12955SOL    HW244702  10.874   0.424   3.328 -3.7401 -1.1892  0.6813
12956SOL     OW44703   6.953   3.775   0.233 -0.0556 -0.0773  0.0133
12956SOL    HW144704   6.929   3.838   0.165  1.1177 -1.5285 -1.8106
12956SOL    HW244705   6.907   3.695   0.210  2.0782 -1.2526 -0.3853
12957SOL     OW44706   3.937   2.542   5.733  0.2374 -0.1004  0.8128
12957SOL    HW144707   3.967   2.583   5.652 -1.0635  0.7536  0.7306
12957SOL    HW244708   3.957   2.449   5.721 -1.0366 -0.2028 -1.0511
12958SOL     OW44709   5.915   5.682   5.459 -0.1913 -0.1472 -0.0925
12958SOL    HW144710   5.892   5.770   5.490 -0.4705 -0.1382 -0.3253
12958SOL    HW244711   5.938   5.694   5.367  1.2948 -0.0613  0.2651
12959SOL     OW44712   8.285   2.181   8.426  0.0839 -0.1054  0.9386
12959SOL    HW144713   8.334   2.099   8.421 -1.0445 -0.7939  0.7449
12959SOL    HW244714   8.195   2.154   8.446 -0.6933  0.9272 -0.8798
12960SOL     OW44715   4.803   5.160   4.281  0.0635 -0.4812  0.1983
12960SOL    HW144716   4.783   5.141   4.372 -0.7502 -0.5964  0.0091
12960SOL    HW244717   4.760   5.089   4.232 -1.1814  0.6174 -0.3804
12961SOL     OW44718   2.235   2.652   6.753 -0.1122 -0.4903  0.2284
12961SOL    HW144719   2.323   2.688   6.744 -0.8211  0.9200 -1.9049
12961SOL    HW244720   2.246   2.557   6.745  1.1091 -0.2570 -1.4059
12962SOL     OW44721   9.769   0.318   8.354 -0.4797  0.0273  0.2316
12962SOL    HW144722   9.708   0.258   8.396  1.6955 -1.3021  1.7120
12962SOL    HW244723   9.761   0.300   8.261 -0.8689 -1.6115  0.5542
12963SOL     OW44724  10.087   4.150   8.968  0.2489  0.0185  0.0881
12963SOL    HW144725  10.176   4.171   8.940  0.4290 -0.9957 -0.1386
12963SOL    HW244726  10.048   4.104   8.894 -0.4585  0.4215  0.1973
12964SOL     OW44727   7.368   8.745   5.260  0.2062 -0.3492 -0.2854
12964SOL    HW144728   7.366   8.728   5.166  2.8737  0.0796 -0.4948
12964SOL    HW244729   7.447   8.797   5.274  0.3235 -1.0618  2.3093
12965SOL     OW44730   6.002   9.861   6.884 -0.2320  0.5348 -0.9001
12965SOL    HW144731   5.935   9.916   6.925  0.6923  1.4496 -0.6017
12965SOL    HW244732   6.004   9.889   6.793  0.2266  0.9866 -0.7520
12966SOL     OW44733   3.098   5.157   5.118 -0.3467  0.3353 -0.1505
12966SOL    HW144734   3.139   5.243   5.116  0.0340  0.1523 -0.4152
12966SOL    HW244735   3.034   5.159   5.047 -1.3679  0.8883  0.7518
12967SOL     OW44736   6.466   5.192   1.884  0.2138 -0.4282 -0.0101
12967SOL    HW144737   6.399   5.144   1.932 -0.1604 -0.1673 -0.2542
12967SOL    HW244738   6.458   5.282   1.916 -1.2577  0.1499 -1.7671
12968SOL     OW44739   6.580   0.229   5.578  0.0389  0.4862  1.0787
12968SOL    HW144740   6.541   0.308   5.616  0.5101 -0.2170  3.1838
12968SOL    HW244741   6.674   0.244   5.583  0.2916 -1.1764  4.0929
12969SOL     OW44742   6.014   6.353   1.941 -0.3418 -0.0415  0.3963
12969SOL    HW144743   5.952   6.363   1.868 -0.9531 -0.0220  0.9104
12969SOL    HW244744   6.063   6.274   1.919  2.6286  2.2433 -2.3031
12970SOL     OW44745   4.206   1.683   0.202  0.0732 -0.0989 -0.0291
12970SOL    HW144746   4.226   1.777   0.196  1.6569 -0.2786  1.5674
12970SOL    HW244747   4.223   1.649   0.114 -4.1538  1.6383 -1.7715
12971SOL     OW44748  10.398   1.884   8.786 -0.1685  0.0727  0.1302
12971SOL    HW144749  10.333   1.836   8.837 -1.5090 -1.6062 -2.8653
12971SOL    HW244750  10.481   1.844   8.811 -0.6342 -0.0516  1.6095
12972SOL     OW44751   1.134  10.412   2.703  0.3917  0.5772  0.3098
12972SOL    HW144752   1.228  10.415   2.687  0.4160  0.3406  0.3957
12972SOL    HW244753   1.125  10.425   2.797  0.2762  1.5342  0.1753
12973SOL     OW44754   2.013   2.429   1.791 -0.4197 -0.1617  0.1127
12973SOL    HW144755   1.964   2.414   1.711  1.7718 -1.1321 -1.1294
12973SOL    HW244756   2.054   2.515   1.779 -3.1732  1.6351  2.0053
12974SOL     OW44757   2.012   1.279   6.705  0.9485 -0.5959  0.3600
12974SOL    HW144758   1.960   1.265   6.784  0.1669 -2.5983 -0.4264
12974SOL    HW244759   2.031   1.372   6.704 -0.7189 -0.1931  1.8688
12975SOL     OW44760   8.446   0.188   1.938  0.1941  0.4705 -0.4353
12975SOL    HW144761   8.488   0.102   1.935 -0.7377 -0.0547  0.7873
12975SOL    HW244762   8.358   0.173   1.902 -0.0596  0.8517  0.0183
12976SOL     OW44763   7.094   9.078   4.935  0.2698 -0.2877  0.3771
12976SOL    HW144764   7.179   9.078   4.979 -0.3165 -0.6940  1.5444
12976SOL    HW244765   7.088   8.991   4.894  1.8175  0.8595 -2.6190
12977SOL     OW44766   1.323   6.703   5.858  0.2978 -0.5275  0.3591
12977SOL    HW144767   1.338   6.795   5.834  0.8071 -0.6811  0.0651
12977SOL    HW244768   1.290   6.706   5.947 -2.7027  0.1441 -0.6650
12978SOL     OW44769   0.800   2.661   1.957 -0.1553 -0.2532 -0.0908
12978SOL    HW144770   0.761   2.687   2.040  0.0814 -0.9874  0.2583
12978SOL    HW244771   0.886   2.627   1.981  0.1877  0.1558 -0.7135
12979SOL     OW44772   6.282   8.465  10.789 -0.3393  0.2369  0.0123
12979SOL    HW144773   6.199   8.445  10.833 -1.2026  0.6221 -1.3712
12979SOL    HW244774   6.270   8.554  10.755 -0.2350 -0.5007 -2.0860
12980SOL     OW44775   8.944   5.710   0.027  0.0354  0.7151  0.2061
12980SOL    HW144776   9.034   5.699   0.058  0.7061 -0.1543 -1.8521
12980SOL    HW244777   8.905   5.623   0.035  0.0857  0.5735 -0.8592
12981SOL     OW44778   8.770   0.450   5.634 -0.3048 -0.1204  0.1171
12981SOL    HW144779   8.696   0.506   5.655  0.4776  1.2845 -0.7091
12981SOL    HW244780   8.810   0.430   5.718 -0.2317  1.1113  0.3860
12982SOL     OW44781   2.084   6.154   2.143  0.0671 -0.5775  0.0739
12982SOL    HW144782   2.083   6.058   2.142  1.0531 -0.5858 -0.4880
12982SOL    HW244783   2.110   6.177   2.232  2.8477 -0.8889 -0.5862
12983SOL     OW44784   7.276   8.762   5.518 -0.4037  0.5181 -0.3669
12983SOL    HW144785   7.323   8.767   5.435 -0.7524  1.1250 -0.5384
12983SOL    HW244786   7.195   8.715   5.497 -0.2404  0.1816 -0.2481
12984SOL     OW44787  10.303   5.373   2.468  0.4120  0.2144  0.7481
12984SOL    HW144788  10.345   5.314   2.530  2.9277 -0.6578 -1.5604
12984SOL    HW244789  10.240   5.318   2.422  1.5734 -0.3246 -0.2669
12985SOL     OW44790   2.955  10.033   3.043 -0.3791 -0.4425  0.3562
12985SOL    HW144791   3.008   9.957   3.018 -0.3613 -0.9309  1.7547
12985SOL    HW244792   3.014  10.108   3.034 -0.1997 -0.6757 -0.4165
12986SOL     OW44793   7.747   0.503   4.279 -0.4046  0.3799 -0.0551
12986SOL    HW144794   7.804   0.466   4.212 -0.8753  1.5777 -1.1691
12986SOL    HW244795   7.805   0.523   4.352  0.2307 -0.3442 -0.3542
12987SOL     OW44796   6.712   6.112   7.355 -0.0917 -0.2386  0.1596
12987SOL    HW144797   6.642   6.049   7.337 -1.0798  0.9956 -0.4630
12987SOL    HW244798   6.791   6.070   7.320 -0.8874 -0.7551 -1.1029
12988SOL     OW44799   6.673  10.861   9.072 -0.6948  0.2270 -0.6018
12988SOL    HW144800   6.636  10.938   9.028  0.3009  0.4100 -1.1261
12988SOL    HW244801   6.699  10.893   9.159 -0.0606  0.5382 -0.9071
12989SOL     OW44802   9.457   4.055   2.553 -0.5319 -0.3682 -0.3266
12989SOL    HW144803   9.469   4.087   2.464 -1.8443  0.5211 -0.2046
12989SOL    HW244804   9.510   3.975   2.557  2.3125  1.3449 -0.8535
12990SOL     OW44805   5.443   0.463   6.769 -0.5596 -0.3859 -0.7685
12990SOL    HW144806   5.525   0.415   6.781  0.7529  1.9496  0.4031
12990SOL    HW244807   5.433   0.470   6.674  2.7836  2.5308 -1.1064
12991SOL     OW44808   7.682   0.595   6.650 -0.5797 -0.3087 -0.2276
12991SOL    HW144809   7.630   0.529   6.604  0.9763 -0.3413 -2.0757
12991SOL    HW244810   7.667   0.675   6.599 -0.4267  0.1549  0.4583
12992SOL     OW44811   8.723  10.887   7.557 -0.0783 -0.5261  0.3716
12992SOL    HW144812   8.763  10.953   7.501  0.4736 -3.3113 -2.8072
12992SOL    HW244813   8.774  10.890   7.638  1.7725  0.9705 -0.7636
12993SOL     OW44814   9.626   5.985   9.793  0.2091  0.5398  0.0137
12993SOL    HW144815   9.676   5.956   9.717  0.2555 -0.5944  0.4546
12993SOL    HW244816   9.629   6.081   9.789  1.0306  0.4904 -0.8618
12994SOL     OW44817   4.231   8.428   5.032 -0.0138  0.1259  0.2541
12994SOL    HW144818   4.226   8.382   5.116 -0.5902  1.7413  1.1643
12994SOL    HW244819   4.308   8.484   5.040  0.7492 -0.7182 -0.8767
12995SOL     OW44820   2.455   9.271   5.352  0.4448 -0.4037  0.3887
12995SOL    HW144821   2.520   9.320   5.402  0.8266  1.4209 -1.7527
12995SOL    HW244822   2.481   9.179   5.363  2.3543  0.1617  0.9625
12996SOL     OW44823   3.016   7.013   5.683  0.2632  0.1886  0.1935
12996SOL    HW144824   3.025   7.108   5.673 -0.6897  0.2505 -0.1649
12996SOL    HW244825   2.962   6.987   5.608 -0.5772 -0.4508  1.0105
12997SOL     OW44826   4.274   6.883   1.364  0.1127 -0.6511  0.9309
12997SOL    HW144827   4.321   6.825   1.305 -0.1460 -1.3549  1.4070
12997SOL    HW244828   4.324   6.964   1.363  0.6920 -1.0089  0.5523
12998SOL     OW44829   7.025   1.929   8.572 -0.0230  0.3272  0.5385
12998SOL    HW144830   7.086   2.001   8.554  0.6645 -0.3859 -0.0496
12998SOL    HW244831   6.951   1.971   8.616  0.7618  1.2572  1.0143
12999SOL     OW44832  10.140   8.942   7.289  0.5389  0.1354 -0.5203
12999SOL    HW144833  10.221   8.903   7.257  0.0692 -2.5712  1.2418
12999SOL    HW244834  10.168   9.000   7.360  0.9968 -0.2948 -0.3454
13000SOL     OW44835   4.591   1.708   5.978 -0.2125 -0.0394 -0.5599
13000SOL    HW144836   4.496   1.699   5.974 -0.4031  1.7883 -0.9392
13000SOL    HW244837   4.612   1.696   6.070 -0.8559  0.0185 -0.3992
13001SOL     OW44838   3.757   8.131   2.885 -0.4584  0.3841  0.0985
13001SOL    HW144839   3.686   8.070   2.905 -0.7918  0.5468 -0.5523
13001SOL    HW244840   3.786   8.107   2.797  0.3896  0.2340  0.4102
13002SOL     OW44841   0.218   9.078   2.893 -0.4695 -0.7384 -0.1557
13002SOL    HW144842   0.136   9.059   2.847 -0.5003 -1.1948  0.0777
13002SOL    HW244843   0.201   9.053   2.984 -0.0838 -0.8051 -0.0995
13003SOL     OW44844   8.869   7.918   1.693  0.1454  0.6821  0.5480
13003SOL    HW144845   8.929   7.854   1.730  0.1586 -0.3192 -1.0853
13003SOL    HW244846   8.916   8.002   1.699  1.1137  0.1487  0.5925
13004SOL     OW44847   3.948   1.325   2.442 -0.1383 -0.1883  0.8511
13004SOL    HW144848   3.917   1.410   2.473 -0.8538  0.3667 -1.2517
13004SOL    HW244849   4.034   1.314   2.483  0.0036  1.5819  1.0892
13005SOL     OW44850  10.248   7.051   8.917 -0.4178 -0.0581  0.2792
13005SOL    HW144851  10.216   6.961   8.911 -0.3767 -0.0253 -0.5007
13005SOL    HW244852  10.326   7.053   8.862 -0.1077  0.3223  0.7238
13006SOL     OW44853   5.169   0.133   8.780  0.2039 -0.1318  0.0260
13006SOL    HW144854   5.199   0.222   8.802  2.0429 -1.1797  2.2400
13006SOL    HW244855   5.227   0.106   8.708  2.4657 -0.8844  1.9994
13007SOL     OW44856   5.050   7.877   5.614  0.5084  0.2630  0.2726
13007SOL    HW144857   5.109   7.935   5.567  0.3804  0.9701  0.9694
13007SOL    HW244858   4.968   7.880   5.564 -0.1204  2.2000  1.3203
13008SOL     OW44859   5.050   3.493   0.268  0.2734 -1.2742 -0.6089
13008SOL    HW144860   5.092   3.503   0.353 -1.5168  0.8542  0.1295
13008SOL    HW244861   4.958   3.475   0.288 -0.2523 -0.4341 -2.0408
13009SOL     OW44862   6.730  10.299   5.847  0.6290 -0.2572 -0.2002
13009SOL    HW144863   6.658  10.353   5.878 -1.0992 -0.9604 -2.6997
13009SOL    HW244864   6.809  10.349   5.869 -0.6517  1.0893  1.5579
13010SOL     OW44865   4.179   9.506   1.118  0.2160  0.0549 -0.4189
13010SOL    HW144866   4.268   9.508   1.083  0.4355  1.4674  0.1447
13010SOL    HW244867   4.146   9.594   1.102 -1.7138 -0.9014 -2.1564
13011SOL     OW44868   9.415   6.404   6.442 -0.1087  0.4224  0.2965
13011SOL    HW144869   9.435   6.468   6.374  0.3401  0.0428  0.0624
13011SOL    HW244870   9.411   6.320   6.396  3.2906 -0.3390  1.0937
13012SOL     OW44871   5.251   6.521   7.971  0.4391  0.3500  0.2495
13012SOL    HW144872   5.176   6.469   8.002  0.5560 -0.5897 -0.9510
13012SOL    HW244873   5.215   6.609   7.960 -0.1887  0.1754  0.8093
13013SOL     OW44874   3.427   5.260   9.227 -0.2130 -0.2163  0.0420
13013SOL    HW144875   3.519   5.287   9.216 -0.2225  0.2007  0.9280
13013SOL    HW244876   3.387   5.332   9.275 -1.0820 -0.2746 -0.5860
13014SOL     OW44877   3.219   5.098   0.743 -0.0798  0.1469  0.0296
13014SOL    HW144878   3.232   5.004   0.739 -0.2685  0.1425 -0.8582
13014SOL    HW244879   3.159   5.112   0.817  1.2651 -0.2513  1.2249
13015SOL     OW44880  10.878   2.495   2.811 -0.1371  0.4540  0.8939
13015SOL    HW144881  10.822   2.473   2.885 -1.1284 -2.8803 -0.6507
13015SOL    HW244882  10.817   2.502   2.737  1.1338  0.0408 -0.2307
13016SOL     OW44883   4.589   0.329   3.973  0.2773 -0.4403  0.0255
13016SOL    HW144884   4.546   0.383   3.906  2.6338  1.4850 -0.0714
13016SOL    HW244885   4.564   0.370   4.056 -0.8194 -1.4436  0.2066
13017SOL     OW44886   2.918   0.111   5.271 -0.1399 -0.0539 -0.0400
13017SOL    HW144887   2.940   0.203   5.257 -1.7774  0.2955 -0.4581
13017SOL    HW244888   2.963   0.088   5.353  3.2035  0.0645 -1.6874
13018SOL     OW44889   9.800   5.371   1.822 -0.5204  0.2308 -0.6364
13018SOL    HW144890   9.767   5.397   1.908 -0.8128  0.1054 -0.7092
13018SOL    HW244891   9.810   5.454   1.775 -0.3788  0.2977 -0.4887
13019SOL     OW44892   1.748   1.394   2.298 -0.0669 -0.7372  0.5619
13019SOL    HW144893   1.779   1.306   2.275 -1.5319 -0.9432 -0.7737
13019SOL    HW244894   1.720   1.432   2.215  1.4459  1.4071  0.9482
13020SOL     OW44895   8.931   9.250   5.894 -0.2083 -0.2042 -0.2687
13020SOL    HW144896   8.992   9.323   5.890  0.2913 -0.4713  1.6097
13020SOL    HW244897   8.983   9.173   5.870  0.4406 -0.5212  1.9027
13021SOL     OW44898   6.307   0.337   1.591  0.3227  0.5619 -0.0184
13021SOL    HW144899   6.244   0.377   1.652  0.3297 -0.3267  0.5869
13021SOL    HW244900   6.355   0.273   1.644  0.1485 -0.4301 -1.0241
13022SOL     OW44901   8.046   5.701  10.456  0.1668 -0.4732  0.6671
13022SOL    HW144902   8.079   5.768  10.516  1.9117 -0.6959  0.0293
13022SOL    HW244903   7.969   5.665  10.500  0.4881  0.4251  2.0448
13023SOL     OW44904   9.648   2.920   9.555  0.7594  0.2228 -0.4533
13023SOL    HW144905   9.577   2.862   9.526  1.2537 -0.7721  0.2837
13023SOL    HW244906   9.642   2.995   9.496  0.2345 -0.6634 -1.5783
13024SOL     OW44907   7.662   7.056   1.336 -0.6715  0.0211 -0.0100
13024SOL    HW144908   7.627   7.127   1.283 -1.9833  0.3584  1.2515
13024SOL    HW244909   7.588   6.997   1.350  0.1133 -1.0038 -0.0758
13025SOL     OW44910   7.924   9.482   7.212  0.1546  0.5398  0.0380
13025SOL    HW144911   7.903   9.541   7.139 -0.4051 -1.1267 -1.2090
13025SOL    HW244912   7.880   9.400   7.190  1.2054 -0.4790  1.5254
13026SOL     OW44913   5.431   1.218   9.512 -0.0290  0.5499 -0.1129
13026SOL    HW144914   5.464   1.143   9.561  1.0956  0.3873 -1.0631
13026SOL    HW244915   5.337   1.219   9.528  0.2999  0.5409  2.0463
13027SOL     OW44916   1.729   5.054   0.915  0.6443 -0.1452 -0.3158
13027SOL    HW144917   1.716   4.968   0.955  0.5395  0.0059 -0.0253
13027SOL    HW244918   1.818   5.050   0.878 -0.0595 -1.0675 -2.0407
13028SOL     OW44919   1.984   8.066   4.841  0.5091  0.3463 -0.2811
13028SOL    HW144920   1.911   8.034   4.788 -0.1470  2.3835 -0.6709
13028SOL    HW244921   2.057   8.072   4.779  1.0047 -1.4773  0.0611
13029SOL     OW44922   2.699   3.582   3.997  0.1659  0.5925  0.8234
13029SOL    HW144923   2.738   3.645   4.058 -2.0578  1.0600  1.8613
13029SOL    HW244924   2.677   3.635   3.920  1.5066  0.3205  0.2201
13030SOL     OW44925   3.965   0.075  10.858  0.2423 -0.2134 -0.9616
13030SOL    HW144926   3.907  -0.000  10.874  0.4242 -0.6861 -2.4243
13030SOL    HW244927   3.921   0.124  10.789 -0.0772  1.2872  0.2499
13031SOL     OW44928   5.058   5.477   7.377  0.6263 -0.3751  0.1765
13031SOL    HW144929   5.083   5.420   7.304 -0.3362  0.0377 -0.5082
13031SOL    HW244930   5.136   5.528   7.396  0.4946  0.5664 -1.5866
13032SOL     OW44931   9.505   5.240   8.108 -0.2647 -0.1546  0.6724
13032SOL    HW144932   9.600   5.228   8.097 -0.5238 -0.1193 -2.2300
13032SOL    HW244933   9.495   5.334   8.120 -0.1070  0.5839 -3.4571
13033SOL     OW44934   1.408   2.356   8.531  0.0247 -0.3391  0.4356
13033SOL    HW144935   1.376   2.289   8.593  0.7133 -0.8650  0.2379
13033SOL    HW244936   1.346   2.428   8.541  0.0882 -0.4267  1.7069
13034SOL     OW44937   5.873   4.480   3.974 -0.2452  0.3348  0.2324
13034SOL    HW144938   5.888   4.433   4.056 -0.6041  1.0084  0.6959
13034SOL    HW244939   5.784   4.458   3.948  0.5344 -1.4902 -1.0737
13035SOL     OW44940   9.397   0.389   6.299 -0.3827 -0.0849  0.0581
13035SOL    HW144941   9.354   0.401   6.214 -0.4249  0.6947  0.1831
13035SOL    HW244942   9.486   0.362   6.278 -0.6328 -0.6956 -0.2194
13036SOL     OW44943   4.899   3.950   7.603  0.0595 -0.6456  0.3801
13036SOL    HW144944   4.925   4.008   7.675 -1.2583  0.6156 -0.0978
13036SOL    HW244945   4.809   3.924   7.625 -0.4218 -0.1116 -0.8671
13037SOL     OW44946   2.136   7.770   8.413  0.1511 -0.1116  0.5836
13037SOL    HW144947   2.142   7.854   8.367  0.5734 -1.1371 -1.2818
13037SOL    HW244948   2.127   7.705   8.344 -0.3672 -1.6111  2.0126
13038SOL     OW44949   5.027   2.461   2.313  0.4787 -0.4267  0.4647
13038SOL    HW144950   5.011   2.378   2.358  3.0880 -1.2831 -0.0018
13038SOL    HW244951   5.101   2.500   2.360 -0.5568  1.5886  0.5418
13039SOL     OW44952  10.245   5.353   4.802  0.0609  0.3613 -1.1143
13039SOL    HW144953  10.304   5.352   4.727  0.6730  2.2420 -0.7179
13039SOL    HW244954  10.168   5.402   4.772  0.0933  0.6868 -0.6813
13040SOL     OW44955   7.847   6.733   5.342 -0.4647 -0.2459 -0.4889
13040SOL    HW144956   7.907   6.738   5.268 -0.5200 -0.4590 -0.5482
13040SOL    HW244957   7.827   6.640   5.351 -1.6659 -0.0744 -1.1751
13041SOL     OW44958   1.907   0.406   0.516 -0.2084  0.3256  0.5447
13041SOL    HW144959   1.946   0.491   0.492 -1.5687  0.6746 -0.5759
13041SOL    HW244960   1.915   0.353   0.437 -0.9862  0.0364  0.6485
13042SOL     OW44961   3.180   1.679   1.264 -0.1112 -0.1766  0.8487
13042SOL    HW144962   3.122   1.753   1.247  0.2164  0.2431  1.5182
13042SOL    HW244963   3.251   1.716   1.317  2.1975 -0.0245 -2.0812
13043SOL     OW44964   4.249   9.397   3.871 -0.5208  0.5361 -0.4019
13043SOL    HW144965   4.250   9.315   3.820 -0.0255 -1.3933  2.5050
13043SOL    HW244966   4.180   9.449   3.829 -1.0061 -1.4211 -2.2383
13044SOL     OW44967  10.450   7.844   0.234 -0.4873  0.1717  0.5218
13044SOL    HW144968  10.459   7.784   0.308  1.4954 -0.7429 -0.4041
13044SOL    HW244969  10.508   7.917   0.256 -0.5492  0.3001  0.2607
13045SOL     OW44970   1.043   9.067   1.098  0.6175 -0.4078  0.0488
13045SOL    HW144971   0.993   9.015   1.036  0.3566 -0.5589  0.3785
13045SOL    HW244972   0.984   9.138   1.122  0.0868 -1.2400  1.3376
13046SOL     OW44973   2.983   4.012   8.652  0.1732 -0.5362  0.3103
13046SOL    HW144974   2.895   4.008   8.688 -0.3552  1.2638 -0.7020
13046SOL    HW244975   2.971   4.027   8.558  1.5553 -1.2659 -0.0171
13047SOL     OW44976   5.912   2.688   1.972 -0.2596  0.5484  0.0740
13047SOL    HW144977   5.849   2.639   1.919 -0.1986 -0.0646  0.5618
13047SOL    HW244978   5.877   2.777   1.974 -1.1876  0.1847  0.4503
13048SOL     OW44979   1.616   6.631   6.024 -0.3630  0.2239 -0.5712
13048SOL    HW144980   1.547   6.633   6.089 -0.7431  0.4323 -0.9757
13048SOL    HW244981   1.616   6.541   5.991 -2.7745  0.9670 -3.0053
13049SOL     OW44982   6.871   1.513  10.192  0.4691  0.2187 -0.2594
13049SOL    HW144983   6.798   1.476  10.241  0.1754 -1.0751 -1.5969
13049SOL    HW244984   6.945   1.507  10.252 -0.7751  3.2440  1.8290
13050SOL     OW44985   3.274   1.914   7.246  0.0886 -0.3861 -0.4098
13050SOL    HW144986   3.282   1.888   7.154 -0.3726 -0.5678 -0.4016
13050SOL    HW244987   3.255   2.007   7.243 -2.0133 -0.7772 -0.5910
13051SOL     OW44988   5.305   5.794   5.929 -0.4287  0.1486  0.4326
13051SOL    HW144989   5.307   5.700   5.942 -0.8302 -0.1471 -1.3731
13051SOL    HW244990   5.301   5.805   5.834  0.2332  1.9950  0.5761
13052SOL     OW44991   7.774   2.826   6.696 -0.4605  0.2836  0.0074
13052SOL    HW144992   7.725   2.821   6.778 -0.1520  0.0384  0.1798
13052SOL    HW244993   7.800   2.917   6.688 -1.7546  0.6336 -0.5662
13053SOL     OW44994   6.613   6.733   3.013  0.1886  0.1957 -0.0124
13053SOL    HW144995   6.683   6.785   3.053  0.0772  2.8665 -2.8603
13053SOL    HW244996   6.659   6.665   2.964  0.6807  0.5273 -0.0254
13054SOL     OW44997   4.087   2.837   3.991  0.5182 -0.1176  0.3961
13054SOL    HW144998   4.104   2.744   3.983 -1.1888 -0.3395 -2.2750
13054SOL    HW244999   4.008   2.843   4.044  0.0357 -0.3153 -0.2813
13055SOL     OW45000   2.688   0.184   0.311 -0.4148  0.0541  0.0732
13055SOL    HW145001   2.651   0.127   0.378 -4.0656  1.7407 -0.2550
13055SOL    HW245002   2.644   0.157   0.230 -0.0188  1.3890 -0.6148
13056SOL     OW45003   6.900   1.807   7.203 -0.7333  0.2026 -0.2241
13056SOL    HW145004   6.996   1.810   7.194 -0.4335 -0.4772  2.0632
13056SOL    HW245005   6.870   1.763   7.124  0.8130  0.5965 -1.0841
13057SOL     OW45006   2.734   3.933   7.165  0.6631 -1.0599 -0.1981
13057SOL    HW145007   2.808   3.875   7.184  0.6326 -0.9235  0.3377
13057SOL    HW245008   2.697   3.954   7.250 -1.3950 -2.9356 -0.5367
13058SOL     OW45009   6.067   8.854   6.927  0.1259  0.0903 -0.2850
13058SOL    HW145010   6.138   8.910   6.959 -0.0442  0.3030 -0.2808
13058SOL    HW245011   5.989   8.909   6.930  0.0614  0.0394 -0.8296
13059SOL     OW45012   9.369   3.358  10.796 -0.2215 -1.2362  0.1323
13059SOL    HW145013   9.284   3.398  10.816  1.0389  1.5109  0.5010
13059SOL    HW245014   9.433   3.425  10.820  1.9932 -2.5528 -1.7027
13060SOL     OW45015   1.497   5.353   4.148 -0.2536 -0.4029  0.1252
13060SOL    HW145016   1.438   5.425   4.129 -1.2241 -0.8019  1.4943
13060SOL    HW245017   1.508   5.354   4.243  2.7241  0.2295 -0.1290
13061SOL     OW45018   8.781   9.831   3.502 -0.0120  0.0573  0.1185
13061SOL    HW145019   8.832   9.757   3.469  0.0557  0.2473 -0.2146
13061SOL    HW245020   8.812   9.844   3.591  1.4153  0.9527 -0.4865
13062SOL     OW45021   0.925   3.526   9.970  0.6089  0.0481  0.7101
13062SOL    HW145022   1.008   3.575   9.970 -0.2188  1.5292  0.3383
13062SOL    HW245023   0.933   3.464  10.041  1.2519  1.6005  2.0525
13063SOL     OW45024   4.894   4.373   3.686  0.3934 -0.6508 -0.2058
13063SOL    HW145025   4.864   4.306   3.624 -0.5464 -0.7866  0.3767
13063SOL    HW245026   4.825   4.377   3.752 -0.3332  2.0018 -1.0325
13064SOL     OW45027  10.669   2.666   0.917 -0.5730 -0.0606  0.2981
13064SOL    HW145028  10.607   2.614   0.969  2.1624 -3.0732  0.8836
13064SOL    HW245029  10.698   2.607   0.848  0.6321  1.7266 -0.8142
13065SOL     OW45030   4.103   6.463   7.241 -0.9251  0.0656  0.2050
13065SOL    HW145031   4.141   6.550   7.253 -0.5375 -0.1081  0.2518
13065SOL    HW245032   4.030   6.477   7.180  0.3072  0.1366 -1.3128
13066SOL     OW45033   2.371   3.831   0.465  0.7877  0.0181  0.3924
13066SOL    HW145034   2.281   3.852   0.441 -0.2139 -1.1213  2.7823
13066SOL    HW245035   2.412   3.915   0.483 -0.2849  0.4667  0.7828
13067SOL     OW45036   2.338   2.384   2.379  0.0673 -0.5706 -0.5525
13067SOL    HW145037   2.413   2.434   2.410 -1.0469  2.1847 -1.9930
13067SOL    HW245038   2.268   2.402   2.441 -0.6191  0.5206 -1.6018
13068SOL     OW45039   5.706   8.425   8.784 -0.2293  0.0442 -0.2991
13068SOL    HW145040   5.714   8.358   8.716  3.0923 -1.0906  0.9848
13068SOL    HW245041   5.672   8.378   8.860  1.5394 -0.1533  0.4276
13069SOL     OW45042   5.712   1.736   5.749  0.2029 -0.3518  0.6706
13069SOL    HW145043   5.797   1.693   5.751  0.0604 -0.7331 -0.6962
13069SOL    HW245044   5.722   1.812   5.807  1.7640  0.1498 -0.2169
13070SOL     OW45045   2.262   1.798   2.941 -0.1023 -0.7584  0.2547
13070SOL    HW145046   2.181   1.771   2.898 -0.4979 -0.7972  1.0258
13070SOL    HW245047   2.296   1.868   2.885 -0.0695 -1.4968 -0.6911
13071SOL     OW45048   5.170   3.002   6.107  0.0727  0.4532 -0.7572
13071SOL    HW145049   5.236   3.040   6.049 -0.1788 -0.6285 -1.8035
13071SOL    HW245050   5.220   2.947   6.168  0.6978  3.9271  2.2169
13072SOL     OW45051  10.870   5.268   6.276 -0.1804  0.2017  0.3353
13072SOL    HW145052  10.881   5.320   6.196 -2.6313  0.5018  0.1129
13072SOL    HW245053  10.812   5.196   6.251  0.3276 -0.6440  1.4797
13073SOL     OW45054   4.069   7.131   0.318  0.5937 -0.5486  0.1448
13073SOL    HW145055   4.114   7.154   0.237  0.1924  1.5327  0.4384
13073SOL    HW245056   4.117   7.180   0.386 -0.0841 -0.9471  0.9297
13074SOL     OW45057   9.183   2.357   5.197 -0.2357 -0.6219 -0.1585
13074SOL    HW145058   9.239   2.308   5.136  1.8390  2.3486 -0.8340
13074SOL    HW245059   9.165   2.295   5.268  1.6872 -2.5314 -1.2146
13075SOL     OW45060   0.215   3.149   7.497 -0.2490  0.5735 -0.4215
13075SOL    HW145061   0.220   3.242   7.474 -0.3099  1.4108  2.6110
13075SOL    HW245062   0.305   3.125   7.517 -0.0885 -0.3355 -2.0203
13076SOL     OW45063   8.908  10.881   9.094  0.4372  0.1465 -0.2649
13076SOL    HW145064   9.003  10.882   9.089  0.4425 -0.3099 -0.3221
13076SOL    HW245065   8.885  10.966   9.131  0.7730  0.8620 -1.6394
13077SOL     OW45066   3.879   6.651   6.719  0.5016  0.1893  0.6536
13077SOL    HW145067   3.965   6.687   6.742  0.6286 -0.2026  0.7949
13077SOL    HW245068   3.895   6.601   6.639 -0.2656  3.0440 -1.4581
13078SOL     OW45069   4.290   3.980   7.613  0.0137 -0.8932 -0.1691
13078SOL    HW145070   4.232   3.956   7.540 -1.1573 -0.3073  0.5375
13078SOL    HW245071   4.341   4.054   7.579  0.6484 -1.6567 -0.9278
13079SOL     OW45072  10.687   5.520   4.203  0.4326 -0.4580  0.2417
13079SOL    HW145073  10.695   5.428   4.176 -1.7102 -0.2209 -1.4451
13079SOL    HW245074  10.703   5.518   4.298  2.5944 -2.2085 -0.0756
13080SOL     OW45075   5.694   4.728   9.225  0.3196  0.0931  0.6367
13080SOL    HW145076   5.610   4.774   9.226  0.4907  0.4088  0.6557
13080SOL    HW245077   5.679   4.651   9.279 -0.2243 -0.3379 -0.0979
13081SOL     OW45078   0.104   4.422   0.145  0.0683 -0.2709 -0.1019
13081SOL    HW145079   0.125   4.419   0.238  0.4393 -0.7883 -0.1955
13081SOL    HW245080   0.009   4.437   0.142 -0.2126 -1.7903  0.3966
13082SOL     OW45081   9.594   4.849   4.605  0.2122 -0.0994 -0.3385
13082SOL    HW145082   9.576   4.794   4.529  1.0611  0.9486 -1.3347
13082SOL    HW245083   9.523   4.912   4.607 -0.0728 -0.4276  0.0397
13083SOL     OW45084  10.322   5.080   3.329 -0.2541 -0.3186  0.3663
13083SOL    HW145085  10.297   5.107   3.240  0.7206  1.2714  0.5286
13083SOL    HW245086  10.354   4.991   3.319  2.3950  0.6972 -1.4453
13084SOL     OW45087   0.908   9.383   9.095  0.4668 -0.2763  0.3606
13084SOL    HW145088   0.940   9.472   9.082 -2.0193  0.8521  1.2642
13084SOL    HW245089   0.904   9.346   9.007  2.1001  0.2451  0.0274
13085SOL     OW45090   5.053   6.876  10.752 -0.4266  0.0767  0.5073
13085SOL    HW145091   5.064   6.908  10.841  0.4158 -0.5664  0.6479
13085SOL    HW245092   5.038   6.782  10.761 -3.1131  0.3765  0.1189
13086SOL     OW45093   1.609   4.090   3.353  0.0592 -0.1882 -0.4340
13086SOL    HW145094   1.525   4.135   3.365 -0.3443 -0.5516 -1.7005
13086SOL    HW245095   1.672   4.145   3.398 -0.8610  0.0591  0.6016
13087SOL     OW45096   5.717   4.727   1.013 -0.0007  0.2514  0.9147
13087SOL    HW145097   5.646   4.665   0.997 -0.5363  1.4972 -2.2946
13087SOL    HW245098   5.673   4.804   1.050 -0.5327  1.1643 -1.4131
13088SOL     OW45099   9.963   8.281  10.578 -0.0647 -0.2724 -0.1628
13088SOL    HW145100   9.937   8.316  10.663 -0.6884  0.2254 -0.5448
13088SOL    HW245101  10.042   8.230  10.596 -0.7720 -1.0518  0.8815
13089SOL     OW45102  10.422   4.413   7.776 -0.4500  0.1874 -0.0816
13089SOL    HW145103  10.415   4.506   7.752 -0.4365  0.1709 -0.1486
13089SOL    HW245104  10.344   4.396   7.829  0.8278  0.9161  2.1907
13090SOL     OW45105   0.458   3.246   7.073  0.5127 -0.1839 -0.1864
13090SOL    HW145106   0.535   3.253   7.016 -0.0886 -1.3124 -1.1749
13090SOL    HW245107   0.491   3.269   7.160  1.6411  0.7297 -0.8287
13091SOL     OW45108  10.659   7.036   3.472  0.1180 -0.0193 -0.0264
13091SOL    HW145109  10.661   7.122   3.514  2.3082 -1.4913  3.2708
13091SOL    HW245110  10.732   7.039   3.409 -0.5190  0.8420 -0.7504
13092SOL     OW45111  10.509   3.552   9.286  0.1494  0.1432 -0.1655
13092SOL    HW145112  10.597   3.532   9.254 -0.1930 -0.7919 -0.5694
13092SOL    HW245113  10.517   3.638   9.327  0.7963  1.0087 -1.9861
13093SOL     OW45114   4.944   5.638   6.139 -0.2410 -0.0072  0.9609
13093SOL    HW145115   4.952   5.543   6.139 -0.8061 -0.1084 -1.3194
13093SOL    HW245116   4.850   5.654   6.147 -0.4787  0.2121 -1.5639
13094SOL     OW45117   8.142   0.177   7.884  0.3133 -0.5231 -0.2461
13094SOL    HW145118   8.165   0.259   7.841 -0.5757 -0.2342 -0.1977
13094SOL    HW245119   8.200   0.172   7.960 -0.6721  0.8519  0.6495
13095SOL     OW45120   8.557   0.683   0.255  0.1771 -0.1440 -0.6102
13095SOL    HW145121   8.570   0.773   0.283  2.4683 -0.1941 -1.2905
13095SOL    HW245122   8.528   0.637   0.334 -1.9895  1.3004 -0.4658
13096SOL     OW45123   7.602   7.656   7.060 -0.5676  0.0611 -0.2963
13096SOL    HW145124   7.617   7.613   7.144  0.6729 -1.1553 -1.0959
13096SOL    HW245125   7.521   7.616   7.027 -1.0105  0.4811  0.2632
13097SOL     OW45126   5.580   3.640   7.123 -0.4155 -0.2624 -0.8390
13097SOL    HW145127   5.592   3.716   7.066 -1.2693  1.6925  1.3767
13097SOL    HW245128   5.559   3.678   7.209  0.3300 -3.0147  0.6909
13098SOL     OW45129   2.531   2.282   0.479 -0.2543  0.3501  0.4617
13098SOL    HW145130   2.476   2.214   0.440 -0.9991  0.2824  1.6217
13098SOL    HW245131   2.621   2.255   0.456 -0.5962 -0.4610  0.0371
13099SOL     OW45132  10.212   6.565   4.086  0.2194  0.5169  0.0477
13099SOL    HW145133  10.233   6.607   4.002 -0.9560  0.9210 -0.0580
13099SOL    HW245134  10.268   6.610   4.150  0.6857  0.6144 -0.4185
13100SOL     OW45135   3.300   4.235   6.651  0.0541  0.2479  0.0155
13100SOL    HW145136   3.363   4.284   6.704 -1.4818 -0.1504  2.4028
13100SOL    HW245137   3.314   4.266   6.562  0.7401  3.2841  1.0523
13101SOL     OW45138   7.989   6.889   4.006 -0.1723 -0.2335  0.3252
13101SOL    HW145139   7.942   6.938   3.938  1.1625 -0.9846 -1.2162
13101SOL    HW245140   7.959   6.799   3.996 -0.6891 -0.1965  1.4134
13102SOL     OW45141   5.798   2.186   3.686  0.3106 -0.1785 -0.2486
13102SOL    HW145142   5.818   2.109   3.740  2.2258  0.2810 -0.2256
13102SOL    HW245143   5.810   2.260   3.744  1.4558  0.2703 -1.0209
13103SOL     OW45144   3.571   0.882   0.437 -0.4930 -0.5797 -0.3659
13103SOL    HW145145   3.498   0.823   0.454  0.2216 -1.1589  0.7955
13103SOL    HW245146   3.622   0.838   0.369 -0.5754 -0.7461 -0.3200
13104SOL     OW45147   8.017   9.719   5.873 -0.4993 -0.5845  0.3592
13104SOL    HW145148   8.081   9.761   5.930  0.7181  0.0695 -1.4256
13104SOL    HW245149   7.944   9.781   5.869 -0.0327 -0.0416  0.1796
13105SOL     OW45150  10.563   6.038   3.495  0.1782 -0.0128  0.0240
13105SOL    HW145151  10.474   6.011   3.517 -0.1399  1.0709  0.1152
13105SOL    HW245152  10.556   6.076   3.407  0.9865 -2.0152 -0.9750
13106SOL     OW45153   1.308   3.651   4.899 -0.5293 -0.6599  0.0624
13106SOL    HW145154   1.387   3.616   4.939 -0.8433  0.3417  1.6619
13106SOL    HW245155   1.333   3.738   4.868 -0.6402 -0.9142 -0.7896
13107SOL     OW45156   8.476  10.646   0.569  0.3231 -0.8948 -0.4504
13107SOL    HW145157   8.520  10.687   0.494 -0.7262  1.0710 -0.0544
13107SOL    HW245158   8.419  10.714   0.603 -1.5008 -2.7095  0.3058
13108SOL     OW45159  10.563   6.375   0.111  0.4494  0.1206  0.2578
13108SOL    HW145160  10.569   6.471   0.112  0.6406  0.1039  0.9972
13108SOL    HW245161  10.644   6.346   0.070  1.3820  0.2152  1.9420
13109SOL     OW45162   7.537   7.044   0.263 -0.1140 -0.2247  0.2400
13109SOL    HW145163   7.578   7.120   0.222  0.8899  0.7814  2.8636
13109SOL    HW245164   7.609   6.984   0.281 -0.3481 -0.1963  1.3586
13110SOL     OW45165   6.397  10.909  10.121  0.0285  0.2311  0.1295
13110SOL    HW145166   6.430  10.933  10.207 -0.3569 -2.6083  1.1644
13110SOL    HW245167   6.308  10.943  10.118  0.2640  0.9162  0.5337
13111SOL     OW45168   8.843  10.901   3.614 -0.7639  0.6068  0.9304
13111SOL    HW145169   8.811  10.960   3.681 -0.2149  0.1067  1.6471
13111SOL    HW245170   8.938  10.899   3.626 -0.7650 -0.3657  0.8819
13112SOL     OW45171   2.762   7.420   2.518 -0.1916 -0.6363 -0.0501
13112SOL    HW145172   2.807   7.341   2.488  0.8478 -0.0204 -0.1667
13112SOL    HW245173   2.687   7.388   2.567 -1.2260 -1.6754 -2.2257
13113SOL     OW45174   3.881   9.529   7.992 -0.4900 -0.2149 -0.5570
13113SOL    HW145175   3.935   9.467   8.042 -1.6556 -1.3948 -0.7185
13113SOL    HW245176   3.802   9.539   8.044  0.0238  1.8733 -0.0881
13114SOL     OW45177   6.089   5.307   2.425 -0.1040 -0.7717  0.2008
13114SOL    HW145178   6.112   5.394   2.458  1.6856 -1.9718  2.3127
13114SOL    HW245179   6.154   5.290   2.357 -0.2473 -0.6176  0.0222
13115SOL     OW45180   2.642   7.818   0.889 -0.8411 -0.9035  0.2640
13115SOL    HW145181   2.640   7.866   0.971  0.5661 -1.0909  0.4305
13115SOL    HW245182   2.660   7.885   0.822 -0.7850 -0.9254  0.2571
13116SOL     OW45183   4.091   0.639   5.929 -0.0790  0.0693  0.5865
13116SOL    HW145184   4.065   0.649   5.838 -1.4141 -0.0555  0.9303
13116SOL    HW245185   4.026   0.689   5.979  1.1386  0.8652  1.4252
13117SOL     OW45186   2.651   9.396   6.458 -0.0145  0.1195  0.0445
13117SOL    HW145187   2.599   9.399   6.538  0.2696 -0.0496  0.2361
13117SOL    HW245188   2.672   9.304   6.446 -3.4024 -0.5381 -2.3994
13118SOL     OW45189   0.582   5.597   6.787 -0.3590  0.1478  1.1264
13118SOL    HW145190   0.665   5.637   6.813 -0.9864  0.5482  2.6340
13118SOL    HW245191   0.595   5.503   6.799 -0.8201  0.3430  3.6695
13119SOL     OW45192   8.858   1.979   4.353 -0.6118 -0.1197 -0.7954
13119SOL    HW145193   8.763   1.966   4.356 -0.5294 -0.6217  0.1558
13119SOL    HW245194   8.883   1.990   4.444  0.2496  0.0133 -1.0412
13120SOL     OW45195   7.337   6.791  10.906  0.3552 -0.5111 -0.0155
13120SOL    HW145196   7.269   6.776  10.972 -0.1159  0.6360 -0.2171
13120SOL    HW245197   7.349   6.886  10.905  0.9883 -0.5898 -0.9554
13121SOL     OW45198   2.920   6.136   3.938 -0.1286 -0.2073 -0.0194
13121SOL    HW145199   2.897   6.222   3.974 -0.1178  0.2731 -1.1430
13121SOL    HW245200   2.909   6.145   3.844 -0.3085 -1.5018 -0.1383
13122SOL     OW45201   4.864   7.015   5.223  0.0319  0.1669 -0.3698
13122SOL    HW145202   4.855   6.951   5.294 -0.8501 -0.8045 -1.3035
13122SOL    HW245203   4.890   6.962   5.147 -0.7159  0.9100 -1.1597
13123SOL     OW45204   2.784   1.154   6.765  0.2425  0.5264 -0.4824
13123SOL    HW145205   2.861   1.116   6.722  0.7817  0.9708  0.0610
13123SOL    HW245206   2.803   1.248   6.767  0.5990  0.4472  1.4180
13124SOL     OW45207   8.747   7.586   6.288  0.0821 -0.0255 -0.5707
13124SOL    HW145208   8.791   7.664   6.322 -1.9446  1.1803 -0.5660
13124SOL    HW245209   8.775   7.515   6.346 -0.8628  1.3962  1.7673
13125SOL     OW45210   3.122   1.351   8.692 -0.0840 -0.2290 -0.6288
13125SOL    HW145211   3.115   1.412   8.619  1.0832  0.6772 -0.0111
13125SOL    HW245212   3.198   1.296   8.670  1.1639  0.9615  0.5088
13126SOL     OW45213   5.560  10.062   6.842  0.5143  0.2105 -0.1368
13126SOL    HW145214   5.630  10.065   6.907 -1.5923 -0.0192  2.3419
13126SOL    HW245215   5.483  10.095   6.889 -0.8616  1.4274 -3.0161
13127SOL     OW45216  10.679   3.620   5.320 -0.3234 -0.1118  0.8360
13127SOL    HW145217  10.737   3.642   5.393 -1.2463  2.4276  0.9177
13127SOL    HW245218  10.726   3.649   5.242 -0.8133  0.4870  0.7592
13128SOL     OW45219   5.980   5.003   8.660  0.5906 -0.0239  0.0494
13128SOL    HW145220   6.035   5.036   8.731  0.4749  0.6767 -0.1762
13128SOL    HW245221   6.009   5.052   8.583 -0.6490  0.7078  0.0175
13129SOL     OW45222   5.707   7.670   4.933  0.2577 -0.6327  0.1000
13129SOL    HW145223   5.635   7.616   4.968  0.9420 -1.1726  0.6996
13129SOL    HW245224   5.679   7.691   4.844 -1.2400  0.2527  0.7374
13130SOL     OW45225   0.547   0.424   8.225  0.0562 -0.1031 -0.0475
13130SOL    HW145226   0.528   0.371   8.303  1.0865 -1.1971 -0.5201
13130SOL    HW245227   0.603   0.369   8.171  1.3265  1.5560 -0.4866
13131SOL     OW45228   3.993   3.561   5.892 -0.7700 -0.7536 -0.3813
13131SOL    HW145229   3.985   3.657   5.886 -2.3324 -0.9224 -1.7284
13131SOL    HW245230   4.067   3.540   5.835 -0.9094 -0.3998 -0.7035
13132SOL     OW45231   1.956   9.043  10.161  0.1349  0.2343 -0.2970
13132SOL    HW145232   1.915   8.959  10.183  0.6078 -0.0019 -0.3174
13132SOL    HW245233   1.958   9.091  10.244  2.1183 -0.7408  0.2631
13133SOL     OW45234   9.048   4.599   3.337  0.3321 -0.2650 -0.4651
13133SOL    HW145235   9.056   4.694   3.344 -1.0154 -0.1606  0.0527
13133SOL    HW245236   8.957   4.581   3.364  0.7734 -1.7546  0.1275
13134SOL     OW45237   5.436   0.789   5.554  0.5719  0.0215 -0.1254
13134SOL    HW145238   5.476   0.831   5.631 -1.4625 -0.2766  1.1905
13134SOL    HW245239   5.349   0.763   5.585  0.4411 -1.9297 -1.9775
13135SOL     OW45240   6.401   4.696  10.514  0.0721 -0.6630 -0.2217
13135SOL    HW145241   6.466   4.740  10.569 -0.1162 -0.0228 -0.5004
13135SOL    HW245242   6.382   4.615  10.560 -1.1876  0.5075  1.4545
13136SOL     OW45243   6.887   7.124   9.053  0.3966 -0.5846  0.4397
13136SOL    HW145244   6.847   7.206   9.083 -0.0060 -0.8004  0.4946
13136SOL    HW245245   6.852   7.112   8.965  0.1885 -0.8750  0.5623
13137SOL     OW45246   5.646   6.783   0.227  0.0795 -0.1612 -0.7088
13137SOL    HW145247   5.624   6.843   0.299 -0.7867  0.1482 -1.2136
13137SOL    HW245248   5.634   6.835   0.148  0.2536 -0.7293 -1.1138
13138SOL     OW45249   6.343   2.763  10.878 -0.3409  0.0501 -0.4805
13138SOL    HW145250   6.268   2.815  10.850  0.8278  1.1263 -1.7664
13138SOL    HW245251   6.398   2.825  10.927 -0.1712 -0.6696  0.2626
13139SOL     OW45252   0.944   2.483   4.233 -0.3632 -0.0188 -0.2709
13139SOL    HW145253   0.886   2.476   4.158  0.1955 -0.7366 -0.6476
13139SOL    HW245254   0.984   2.397   4.241 -0.0718  0.1838  0.5731
13140SOL     OW45255   4.297   1.783   6.798 -0.0405 -0.3033  0.4676
13140SOL    HW145256   4.380   1.831   6.802 -0.8493  1.2118 -0.0930
13140SOL    HW245257   4.261   1.790   6.886  0.4315 -1.0039  0.7246
13141SOL     OW45258   6.655   6.479   9.095  0.3609 -0.1118  0.1693
13141SOL    HW145259   6.600   6.490   9.018 -0.7591 -1.2395  0.7562
13141SOL    HW245260   6.700   6.563   9.106 -1.6570  1.0654 -0.0427
13142SOL     OW45261   1.699   6.530   3.711 -0.2764  0.4908  0.0148
13142SOL    HW145262   1.782   6.576   3.719  0.2671 -0.2193 -1.3325
13142SOL    HW245263   1.721   6.446   3.671 -1.6328  0.2408 -0.2726
13143SOL     OW45264  10.779   5.396   0.411 -0.4932  0.3041  0.2759
13143SOL    HW145265  10.799   5.371   0.501  2.5651  1.1796 -0.0505
13143SOL    HW245266  10.774   5.491   0.412 -1.0737  0.2960 -0.3986
13144SOL     OW45267   3.306   6.691   2.856 -0.2566 -0.0419  0.1366
13144SOL    HW145268   3.309   6.598   2.878  0.0076 -0.0541  0.0415
13144SOL    HW245269   3.394   6.723   2.874  0.4824 -0.4000 -2.4984
13145SOL     OW45270   5.502   4.156   3.953  0.0980  1.0529  0.4588
13145SOL    HW145271   5.428   4.141   4.012  2.1118 -1.1663  2.6741
13145SOL    HW245272   5.541   4.238   3.983 -0.5365  1.4005  0.3368
13146SOL     OW45273   1.141   8.277   6.737 -0.5073 -0.5292  0.3827
13146SOL    HW145274   1.186   8.282   6.653 -0.7337 -0.4064  0.2707
13146SOL    HW245275   1.054   8.312   6.721 -0.1614  0.6299  0.9499
13147SOL     OW45276  10.855   8.411   9.943 -0.1853 -0.9026  0.3770
13147SOL    HW145277  10.783   8.386   9.885  1.0249  1.1394 -2.2441
13147SOL    HW245278  10.932   8.370   9.903  0.6740  0.4680  0.5802
13148SOL     OW45279   1.697   3.219   4.810 -0.1304 -0.6557 -0.0690
13148SOL    HW145280   1.607   3.250   4.798 -0.4149 -1.6139 -0.5245
13148SOL    HW245281   1.752   3.293   4.784 -0.7788  0.2167  0.9813
13149SOL     OW45282   6.391   0.515   3.613 -0.2310 -0.1738  0.0093
13149SOL    HW145283   6.404   0.524   3.518  0.1437 -2.0814 -0.1619
13149SOL    HW245284   6.479   0.520   3.649 -0.1373 -1.5063  0.0196
13150SOL     OW45285   8.296   5.528   5.963 -0.2474  0.4740  0.2480
13150SOL    HW145286   8.378   5.493   5.926 -0.8137 -0.5037 -0.1162
13150SOL    HW245287   8.253   5.452   6.002 -0.7403  1.0805  0.9172
13151SOL     OW45288   8.095   6.139   0.285 -0.5671  0.0434 -0.2310
13151SOL    HW145289   8.121   6.194   0.358  0.3265 -0.8173  0.1063
13151SOL    HW245290   7.999   6.137   0.289 -0.5007 -1.1102  1.7675
13152SOL     OW45291   8.592   8.138   7.086 -0.3635 -0.0761 -0.6430
13152SOL    HW145292   8.665   8.137   7.024 -1.6368 -0.5636 -2.1971
13152SOL    HW245293   8.557   8.227   7.079 -0.4349 -0.0967 -0.5360
13153SOL     OW45294  10.002   4.417  10.049 -0.0082 -0.1561  0.3456
13153SOL    HW145295   9.982   4.341  10.103 -0.1730  0.8027  1.6770
13153SOL    HW245296  10.041   4.480  10.109 -0.3141  0.9990 -0.6276
13154SOL     OW45297   7.696  10.798   8.059  0.2895  0.6295  0.2128
13154SOL    HW145298   7.748  10.873   8.031  0.8340 -0.0373 -0.5883
13154SOL    HW245299   7.673  10.752   7.978 -0.2152  0.0413  0.6760
13155SOL     OW45300   1.929   0.649   0.385  0.1285 -0.3239 -0.0542
13155SOL    HW145301   1.995   0.672   0.320  1.4678 -0.2134  1.2945
13155SOL    HW245302   1.914   0.730   0.434  0.8211 -0.9278  1.2028
13156SOL     OW45303   7.764   9.920   5.482  0.3203  0.3664  0.3171
13156SOL    HW145304   7.700   9.850   5.492 -1.8683  1.8975 -1.8370
13156SOL    HW245305   7.836   9.881   5.433 -0.1170 -0.7637  0.5459
13157SOL     OW45306   0.371   9.791   5.914  0.1304  0.0387 -0.0991
13157SOL    HW145307   0.427   9.811   5.989  1.6879  0.1862 -1.2541
13157SOL    HW245308   0.327   9.710   5.938  0.0721  0.4487  1.2502
13158SOL     OW45309   2.861   4.625   6.051 -0.3153 -0.0288  0.0640
13158SOL    HW145310   2.921   4.699   6.053 -1.2164  0.7031  1.0251
13158SOL    HW245311   2.859   4.593   6.141 -1.6639  0.2413  0.1574
13159SOL     OW45312   4.284   6.808   2.899 -0.1319  0.0419 -0.4120
13159SOL    HW145313   4.191   6.787   2.907 -0.1637  0.3761  0.1597
13159SOL    HW245314   4.290   6.865   2.822 -0.0880 -1.7447 -1.7975
13160SOL     OW45315   0.373   1.064   4.283 -0.1232 -0.2393  0.0363
13160SOL    HW145316   0.311   1.123   4.326 -0.5565 -0.5757 -0.1278
13160SOL    HW245317   0.397   1.110   4.202 -1.2432 -0.7196 -0.6003
13161SOL     OW45318   3.745   7.773   6.252 -0.2874 -0.6888 -0.2834
13161SOL    HW145319   3.690   7.761   6.175  0.7752  0.5859 -1.2947
13161SOL    HW245320   3.697   7.732   6.323 -1.8828 -0.8165 -1.3942
13162SOL     OW45321   5.161   4.577   8.536 -0.0119  0.1712 -0.6918
13162SOL    HW145322   5.209   4.543   8.611 -1.0328  0.6608  0.2016
13162SOL    HW245323   5.230   4.601   8.473  0.8856  0.3099  0.3104
13163SOL     OW45324   9.594   4.060   0.905 -0.7307 -0.0503  0.5459
13163SOL    HW145325   9.658   3.993   0.927 -0.1053  0.4366  0.2376
13163SOL    HW245326   9.647   4.138   0.887 -1.3607  0.1363 -0.5397
13164SOL     OW45327   2.243   8.234   4.283 -0.0213  0.0107 -0.2491
13164SOL    HW145328   2.209   8.293   4.351 -0.6248  0.3559 -0.8292
13164SOL    HW245329   2.338   8.245   4.287 -0.1355  1.3619 -0.6154
13165SOL     OW45330   6.948   6.336   7.058 -0.2271  0.6380  0.0170
13165SOL    HW145331   6.875   6.345   7.120 -1.0040  0.5338 -0.8529
13165SOL    HW245332   6.907   6.301   6.978  0.9695 -0.5439 -0.1193
13166SOL     OW45333   3.652   9.514   1.991 -0.3566 -0.2736  0.6587
13166SOL    HW145334   3.732   9.532   2.042  0.6879 -0.7540 -0.7425
13166SOL    HW245335   3.614   9.436   2.031 -0.4516  0.2931  1.6997
13167SOL     OW45336   2.469   9.061   5.728 -0.6849 -0.2433 -0.3225
13167SOL    HW145337   2.532   9.080   5.659  0.8341 -0.2085  1.0061
13167SOL    HW245338   2.398   9.124   5.715  1.0559  1.8879  0.0068
13168SOL     OW45339   2.436   8.102   9.717 -0.1230 -0.7595  0.0044
13168SOL    HW145340   2.426   8.077   9.809 -1.2975  0.3842  0.2276
13168SOL    HW245341   2.495   8.178   9.720 -0.0829 -0.7833 -0.1924
13169SOL     OW45342   6.026   9.035   7.349  0.3188 -0.2444  0.6687
13169SOL    HW145343   6.030   9.122   7.388 -1.0244 -0.5115  1.5077
13169SOL    HW245344   6.111   9.022   7.307  0.1403  1.9010 -0.4564
13170SOL     OW45345  10.376   3.427   2.079  0.0773  0.3957  0.1722
13170SOL    HW145346  10.306   3.373   2.044  1.4583 -1.4203  0.0478
13170SOL    HW245347  10.419   3.464   2.002  1.3514 -1.3101 -0.0025
13171SOL     OW45348   2.038   2.099   6.712 -0.1418 -0.0057  0.0011
13171SOL    HW145349   1.990   2.105   6.629 -0.9304  1.9699  0.5295
13171SOL    HW245350   2.073   2.010   6.714 -1.8494 -0.7666 -1.4944
13172SOL     OW45351   8.069   2.739   1.285 -0.1008 -0.4902 -0.0722
13172SOL    HW145352   8.133   2.739   1.213  0.0443  1.3043 -0.0060
13172SOL    HW245353   8.119   2.707   1.360  0.5020  0.1009 -0.2065
13173SOL     OW45354   6.702  10.484   0.098 -0.7365  0.9019 -0.0222
13173SOL    HW145355   6.787  10.482   0.143 -0.0287  0.2718 -1.3173
13173SOL    HW245356   6.679  10.577   0.097  0.3949  1.2055 -0.4293
13174SOL     OW45357  10.706   6.739   8.280  0.5043  0.0052  0.1623
13174SOL    HW145358  10.691   6.645   8.284 -0.5328  0.0910 -1.0463
13174SOL    HW245359  10.769   6.751   8.209 -2.5961  0.4370 -2.8304
13175SOL     OW45360   2.829   2.147   5.544  1.1733  0.0367  0.1160
13175SOL    HW145361   2.891   2.219   5.532 -2.1267  2.8302 -2.3794
13175SOL    HW245362   2.794   2.159   5.632  2.4472 -0.1252  0.6552
13176SOL     OW45363   2.489   1.444   8.732 -0.5544  0.3930 -0.5056
13176SOL    HW145364   2.449   1.503   8.668  1.5367 -0.3027 -2.6207
13176SOL    HW245365   2.491   1.494   8.813 -0.7561  2.4255 -1.6866
13177SOL     OW45366   3.197   5.857   5.926 -0.9180  0.2041  0.2795
13177SOL    HW145367   3.160   5.824   5.844  0.7808 -0.1954 -0.3769
13177SOL    HW245368   3.255   5.787   5.956  0.6518  1.4589  0.3142
13178SOL     OW45369   6.558   9.925   4.240  0.2860  0.2829  0.2130
13178SOL    HW145370   6.624   9.909   4.307  0.5455 -4.4930 -0.8635
13178SOL    HW245371   6.609   9.944   4.161  0.2356 -0.1763  0.0706
13179SOL     OW45372   2.267   2.515   0.399 -0.3935 -0.4339 -0.2672
13179SOL    HW145373   2.339   2.509   0.336 -0.1157  0.7350 -0.0723
13179SOL    HW245374   2.247   2.424   0.419  0.7971 -0.7951 -0.5897
13180SOL     OW45375   1.192   8.823   3.638  0.0585 -0.4418  1.0357
13180SOL    HW145376   1.161   8.893   3.581 -1.0459  0.7678  2.9790
13180SOL    HW245377   1.113   8.773   3.660  0.5276 -1.1492  1.1375
13181SOL     OW45378   0.867   1.980   9.724  0.0148 -0.1160  0.7176
13181SOL    HW145379   0.784   1.971   9.769 -0.7711  0.1833 -0.6141
13181SOL    HW245380   0.853   2.050   9.660  0.4885 -1.6552 -1.2003
13182SOL     OW45381   9.598   4.780   0.254 -0.4546 -0.3192 -0.7701
13182SOL    HW145382   9.653   4.819   0.322 -1.3955 -2.8497  1.6399
13182SOL    HW245383   9.660   4.731   0.199  0.1330  0.2764 -0.6579
13183SOL     OW45384  10.023   6.511   0.832  0.2966 -0.9848 -0.6834
13183SOL    HW145385  10.053   6.549   0.914  1.4323 -1.4341 -0.8737
13183SOL    HW245386   9.987   6.585   0.783 -1.8440 -0.9594  0.8127
13184SOL     OW45387   8.861   5.768   3.691 -0.0672  0.4315 -0.1217
13184SOL    HW145388   8.886   5.760   3.599  0.5038  1.9543 -0.1206
13184SOL    HW245389   8.934   5.729   3.739 -0.3367 -0.3098 -0.2998
13185SOL     OW45390   9.910   2.907   2.494  0.3640 -0.0272  0.3340
13185SOL    HW145391   9.879   2.828   2.539  1.0048  0.5112  1.7767
13185SOL    HW245392   9.872   2.901   2.406 -0.3458 -1.4750  0.7108
13186SOL     OW45393   2.138   1.620   4.906 -0.1024  0.4788 -0.4119
13186SOL    HW145394   2.057   1.593   4.861  1.5213 -2.0554 -2.0712
13186SOL    HW245395   2.139   1.568   4.986 -0.5307  1.2700  0.1341
13187SOL     OW45396   0.133   8.988   7.075  0.3209  0.0178  1.2065
13187SOL    HW145397   0.041   9.007   7.054  1.0068 -0.8408 -3.6771
13187SOL    HW245398   0.183   9.050   7.023  2.4834 -1.9576  0.7731
13188SOL     OW45399   2.444   5.429   9.834 -0.3598  0.0406 -0.3234
13188SOL    HW145400   2.367   5.383   9.868  0.4281 -0.6485  0.6095
13188SOL    HW245401   2.500   5.442   9.911  1.1598 -0.8900 -1.2081
13189SOL     OW45402   4.489   3.008   1.962 -0.2560  0.0581  0.2246
13189SOL    HW145403   4.509   3.102   1.960 -0.1954  0.0478  0.3344
13189SOL    HW245404   4.571   2.967   1.987 -0.2170 -0.0443 -0.0684
13190SOL     OW45405   8.436   8.788   2.167  0.1636 -0.1720  0.3663
13190SOL    HW145406   8.429   8.881   2.189  2.0572  0.6748 -2.1296
13190SOL    HW245407   8.398   8.781   2.080 -1.1414 -2.0462  1.0388
13191SOL     OW45408   7.040   8.716   7.163  0.4402  0.3206 -0.4086
13191SOL    HW145409   7.057   8.630   7.200 -0.9665 -0.4026 -1.3893
13191SOL    HW245410   6.993   8.763   7.232  1.2054  0.3309  0.1235
13192SOL     OW45411   6.308   0.961   5.997 -0.1438  0.0140  0.0921
13192SOL    HW145412   6.318   0.866   5.990 -0.4165  0.0888 -1.9009
13192SOL    HW245413   6.398   0.994   6.005 -0.0472 -0.3878  0.7778
13193SOL     OW45414   2.765   7.069  10.171  0.5777  0.0792  0.3936
13193SOL    HW145415   2.836   7.055  10.235  1.7932 -0.7568 -1.0800
13193SOL    HW245416   2.695   7.011  10.201  1.3146 -0.6769  0.6934
13194SOL     OW45417   2.593   3.536   7.473 -0.0290 -0.1532 -0.1240
13194SOL    HW145418   2.525   3.521   7.539 -0.2797  0.0870 -0.3222
13194SOL    HW245419   2.660   3.587   7.519  0.1905 -0.7059  0.1737
13195SOL     OW45420   9.926   7.437   6.148 -0.1268  0.0603 -0.3069
13195SOL    HW145421   9.840   7.474   6.167  0.2658  1.1693 -0.5621
13195SOL    HW245422   9.930   7.433   6.053 -0.1667 -0.6674 -0.2774
13196SOL     OW45423   7.175   2.213   4.738 -0.1571 -0.2524  0.2993
13196SOL    HW145424   7.243   2.163   4.694 -1.3895  0.4330 -2.6516
13196SOL    HW245425   7.097   2.159   4.731 -0.3788 -0.1865  1.8913
13197SOL     OW45426   1.172   0.131   2.890  0.2922  0.8286  0.4781
13197SOL    HW145427   1.095   0.078   2.910  0.8914  0.9490  3.7105
13197SOL    HW245428   1.244   0.068   2.886  0.4834  1.0230  0.7795
13198SOL     OW45429   4.258   3.055   3.027 -0.2190 -0.2765  0.3726
13198SOL    HW145430   4.296   3.138   2.998 -0.1572 -0.4329 -0.0081
13198SOL    HW245431   4.170   3.055   2.987 -1.1087  0.6232  2.2060
13199SOL     OW45432  10.381  10.131   6.433  0.3535 -0.1102  0.0651
13199SOL    HW145433  10.420  10.185   6.503  1.0562 -0.0257 -0.3859
13199SOL    HW245434  10.291  10.162   6.427  0.7346  1.0139 -0.1646
13200SOL     OW45435   9.720  10.398   0.244  0.4567 -0.2325 -0.5173
13200SOL    HW145436   9.712  10.349   0.326  0.3794 -0.7209 -0.8141
13200SOL    HW245437   9.675  10.344   0.179  1.3841 -0.3342 -1.0884
13201SOL     OW45438   4.655   9.223   3.312 -0.3971 -0.0407  0.4480
13201SOL    HW145439   4.668   9.128   3.311  1.0388  0.0464 -2.9518
13201SOL    HW245440   4.590   9.239   3.244  1.2532  1.5405 -0.8375
13202SOL     OW45441   7.630   4.053   5.711  0.0805 -0.2836  0.8772
13202SOL    HW145442   7.612   3.972   5.663 -0.7499  0.5148 -0.2342
13202SOL    HW245443   7.547   4.073   5.755 -0.4945  1.0826 -0.6663
13203SOL     OW45444   2.718   4.056   3.719 -0.3119  0.3463 -0.1550
13203SOL    HW145445   2.728   4.151   3.712 -0.9870  0.3569 -1.2609
13203SOL    HW245446   2.803   4.021   3.692  0.0694  0.6451  0.6529
13204SOL     OW45447   8.919   2.996   6.504  0.5399 -0.3957 -0.2695
13204SOL    HW145448   8.924   3.002   6.409  0.5380 -0.5380 -0.2792
13204SOL    HW245449   9.010   3.006   6.533  0.3523  1.2712 -0.1826
13205SOL     OW45450   2.807   3.353   7.465  0.1425 -0.4482 -0.5026
13205SOL    HW145451   2.722   3.396   7.475 -0.4514 -1.5919 -0.5508
13205SOL    HW245452   2.844   3.355   7.553 -0.0328 -0.1645 -0.4317
13206SOL     OW45453   5.196   2.841   6.650 -0.5290  0.4876  0.2833
13206SOL    HW145454   5.117   2.789   6.635  0.5933 -0.6882 -2.1328
13206SOL    HW245455   5.229   2.813   6.735 -0.9561 -1.4379 -0.1470
13207SOL     OW45456   3.547   4.339   8.821 -0.2699  0.3725 -0.0715
13207SOL    HW145457   3.536   4.352   8.727 -0.9908 -0.5324 -0.1350
13207SOL    HW245458   3.504   4.255   8.838  1.7434 -0.5675  0.7095
13208SOL     OW45459   7.228   0.354   4.441  0.1835 -0.3210 -0.6978
13208SOL    HW145460   7.307   0.340   4.493  1.2707  1.0573 -1.8857
13208SOL    HW245461   7.246   0.435   4.392 -2.7391  1.1659  0.4648
13209SOL     OW45462   9.086   1.656   0.994 -0.5639  0.5462  0.1522
13209SOL    HW145463   9.087   1.745   0.957 -2.2796  0.1559 -0.9499
13209SOL    HW245464   8.998   1.646   1.030  0.2613 -0.0141  2.1400
13210SOL     OW45465   4.846   3.398   2.621 -0.1559 -0.1502 -0.4573
13210SOL    HW145466   4.939   3.399   2.596  0.0324  2.5317 -0.0280
13210SOL    HW245467   4.799   3.406   2.538  0.0941  0.2409 -0.5669
13211SOL     OW45468   6.673   0.383   9.107 -0.2635 -0.1374  0.2784
13211SOL    HW145469   6.733   0.439   9.155  0.1215 -0.6814  0.4352
13211SOL    HW245470   6.727   0.311   9.075 -0.5868  0.0246 -0.6581
13212SOL     OW45471   9.337   6.325   1.491 -0.1082  0.2810  0.3227
13212SOL    HW145472   9.289   6.280   1.421 -0.8497  0.0871  0.9388
13212SOL    HW245473   9.274   6.388   1.527 -0.1359 -0.4361  1.5797
13213SOL     OW45474  10.661   2.053   0.363 -0.1573  0.7255  0.0999
13213SOL    HW145475  10.632   2.053   0.272 -0.0923  0.6099  0.0789
13213SOL    HW245476  10.584   2.025   0.413 -0.1590  0.6767  0.0699
13214SOL     OW45477   9.391   2.146   3.857 -0.3772 -0.5258 -0.0987
13214SOL    HW145478   9.429   2.234   3.849 -0.4951 -0.2607  1.7416
13214SOL    HW245479   9.371   2.120   3.767 -0.2702  1.2969 -0.6961
13215SOL     OW45480   5.244   0.403   1.893  0.6352  0.1203  0.5388
13215SOL    HW145481   5.236   0.453   1.812 -1.3333 -0.3783  0.3678
13215SOL    HW245482   5.257   0.469   1.961  1.5125  0.5950 -0.0617
13216SOL     OW45483  10.103   2.717   4.994  0.3901 -0.0452  0.0614
13216SOL    HW145484  10.197   2.723   5.012  0.9529  0.4968 -2.6352
13216SOL    HW245485  10.065   2.787   5.047  1.8259  1.1671 -0.4075
13217SOL     OW45486   9.105   5.967   2.015  0.1536 -0.3869  0.4999
13217SOL    HW145487   9.119   5.896   2.078  0.2750 -0.0413  0.8630
13217SOL    HW245488   9.192   5.986   1.980 -0.0550 -1.2950 -0.5600
13218SOL     OW45489   8.356   1.067   7.309 -0.5609 -0.0204 -0.0744
13218SOL    HW145490   8.368   1.079   7.403 -1.3814 -1.2883  0.2093
13218SOL    HW245491   8.294   1.136   7.284 -1.8717 -0.8909  0.6972
13219SOL     OW45492   0.660   6.442   0.236  0.3082 -0.1531 -0.0332
13219SOL    HW145493   0.750   6.420   0.261  1.1621  1.6588 -1.2994
13219SOL    HW245494   0.607   6.373   0.276  2.2514 -1.3319  0.6812
13220SOL     OW45495   3.259   8.067   2.625  0.2373 -0.6037 -0.2416
13220SOL    HW145496   3.255   8.075   2.720  1.5671 -0.6123 -0.1568
13220SOL    HW245497   3.221   7.981   2.606 -0.0575 -0.5911  0.2743
13221SOL     OW45498  10.864   3.891   6.389 -0.1197  0.1113 -0.2383
13221SOL    HW145499  10.906   3.835   6.325  1.1610  0.4090  0.2988
13221SOL    HW245500  10.809   3.832   6.441 -0.3354 -0.3007 -0.9276
13222SOL     OW45501   1.485   4.098   2.075  0.1556 -0.0255  0.0632
13222SOL    HW145502   1.480   4.004   2.094  0.1499  0.3104  1.9745
13222SOL    HW245503   1.408   4.115   2.020  1.3091 -1.4672 -2.1341
13223SOL     OW45504  10.032   1.903   0.933 -0.6141 -0.0485  0.4636
13223SOL    HW145505  10.092   1.839   0.972  0.6552  1.4365  1.0863
13223SOL    HW245506  10.036   1.886   0.839  1.7618  0.7132  0.3511
13224SOL     OW45507   9.232   3.433   0.408 -0.2930  0.7168  0.0585
13224SOL    HW145508   9.149   3.385   0.413 -0.7254  1.4682  0.2389
13224SOL    HW245509   9.295   3.368   0.378 -0.9769  0.1623 -0.2141
13225SOL     OW45510   3.637   0.376   0.390 -0.2617  0.7186 -0.1613
13225SOL    HW145511   3.590   0.411   0.466 -0.4857  1.0989 -0.4735
13225SOL    HW245512   3.705   0.320   0.428 -0.4328  0.8281  0.3167
13226SOL     OW45513   6.770   4.868  10.288  0.0878 -0.6079 -0.6839
13226SOL    HW145514   6.837   4.842  10.225 -0.7397 -0.8119 -1.4860
13226SOL    HW245515   6.715   4.791  10.298  0.2818 -0.6301  0.4135
13227SOL     OW45516   6.075   1.251   7.012  0.0821 -0.2517  0.0149
13227SOL    HW145517   6.118   1.269   6.929  1.1577 -0.2877  0.5545
13227SOL    HW245518   6.029   1.167   6.997  1.7973 -1.2265  0.0110
13228SOL     OW45519   1.520   9.640   8.251 -0.0983 -0.5213  0.3888
13228SOL    HW145520   1.466   9.718   8.256  0.0176 -0.3875 -0.2707
13228SOL    HW245521   1.594   9.658   8.309  0.5433  0.3746 -0.6601
13229SOL     OW45522   2.551  10.601   7.114 -0.5429  0.0145 -0.0348
13229SOL    HW145523   2.583  10.665   7.176 -0.0333  0.2161 -0.4960
13229SOL    HW245524   2.508  10.652   7.045 -2.9650 -0.2950  1.1459
13230SOL     OW45525   2.186   5.015   0.410 -0.0089  0.2868 -0.1092
13230SOL    HW145526   2.140   4.932   0.398  2.0145 -0.6228 -2.6027
13230SOL    HW245527   2.138   5.077   0.354 -0.7921  0.5323  0.8040
13231SOL     OW45528   9.761  10.677   5.199 -0.0392 -0.2176  0.1183
13231SOL    HW145529   9.850  10.648   5.180  0.3087  1.0930 -0.3515
13231SOL    HW245530   9.765  10.711   5.288  0.3441  1.3378 -0.4659
13232SOL     OW45531   3.936   5.285   8.687 -0.2677 -0.3900  0.2484
13232SOL    HW145532   3.882   5.270   8.609 -0.1630 -1.4600  0.3770
13232SOL    HW245533   3.993   5.209   8.692  0.0810 -0.0822  1.0938
13233SOL     OW45534   9.527   4.281   7.987 -0.0293  0.3654 -0.0754
13233SOL    HW145535   9.604   4.327   8.019 -0.9207  1.1652  1.0182
13233SOL    HW245536   9.561   4.211   7.931  1.5412 -0.1988  1.5340
13234SOL     OW45537   0.720   4.861   9.404  0.0277 -0.5455  0.2652
13234SOL    HW145538   0.680   4.897   9.483 -0.0779 -0.2814  0.0923
13234SOL    HW245539   0.656   4.799   9.370 -0.0802 -0.3919  0.1884
13235SOL     OW45540   8.227   9.351   7.929  0.0100 -0.5326 -0.3635
13235SOL    HW145541   8.203   9.284   7.994 -2.1228 -1.1003 -1.6664
13235SOL    HW245542   8.145   9.395   7.908  0.9050  0.5833 -1.6525
13236SOL     OW45543   1.685   6.801   8.693 -0.0616 -0.1941 -0.3506
13236SOL    HW145544   1.637   6.842   8.765 -0.7581  1.1280 -1.5129
13236SOL    HW245545   1.639   6.830   8.614  1.5460 -0.4127 -1.4111
13237SOL     OW45546   7.098   6.851   6.111  0.0778 -0.2613  0.0976
13237SOL    HW145547   7.183   6.811   6.093 -0.8758 -1.6408 -1.7137
13237SOL    HW245548   7.074   6.818   6.198  0.9840 -0.5762  0.2465
13238SOL     OW45549   9.718   2.520   5.325 -0.5749  0.2759  0.4304
13238SOL    HW145550   9.764   2.437   5.320 -1.2973 -0.0690 -1.3421
13238SOL    HW245551   9.625   2.497   5.334 -0.8849  0.8265 -1.0279
13239SOL     OW45552   3.878   2.722   3.510 -0.6177 -0.1792  0.2025
13239SOL    HW145553   3.957   2.738   3.458 -0.2966 -1.7247  0.1442
13239SOL    HW245554   3.830   2.656   3.459 -1.8171  0.5387  0.3727
13240SOL     OW45555   5.145   4.602   5.950  0.0598  0.0953 -0.2324
13240SOL    HW145556   5.202   4.563   6.017  0.4775 -1.9733 -1.7057
13240SOL    HW245557   5.188   4.581   5.867 -1.9107  0.0526 -1.2966
13241SOL     OW45558   5.528   6.455   5.834 -0.2914  0.1514 -0.0283
13241SOL    HW145559   5.612   6.409   5.831 -0.0167  0.5157  1.2594
13241SOL    HW245560   5.471   6.396   5.884 -0.6521  0.1304 -0.4664
13242SOL     OW45561   1.228   3.510   1.030 -0.0063 -0.0863  0.4341
13242SOL    HW145562   1.254   3.593   0.989 -0.5038  0.7884  1.8073
13242SOL    HW245563   1.239   3.526   1.124  0.6974 -1.8730  0.6928
13243SOL     OW45564   9.080   3.244   5.028 -0.2435 -0.2838  0.7371
13243SOL    HW145565   9.103   3.276   5.115  2.4160  2.0582 -0.6546
13243SOL    HW245566   9.142   3.173   5.012 -2.6952 -2.8408  1.7654
13244SOL     OW45567   4.745   9.958  10.924 -0.5818  0.1564 -0.4128
13244SOL    HW145568   4.775   9.988  11.010 -1.2976  0.0225 -0.1068
13244SOL    HW245569   4.815   9.902  10.892 -0.6089 -0.3487  0.3892
13245SOL     OW45570   0.878   2.140   9.124 -0.4516 -0.4768  0.3827
13245SOL    HW145571   0.842   2.190   9.050  1.9433  0.7317 -0.0898
13245SOL    HW245572   0.802   2.114   9.175 -2.0703  0.2282 -1.5466
13246SOL     OW45573   3.351   2.947   3.453 -0.0930 -0.0313 -0.4968
13246SOL    HW145574   3.266   2.902   3.454 -0.2258  0.2224 -0.1740
13246SOL    HW245575   3.334   3.026   3.402  0.6258 -1.2703 -2.7778
13247SOL     OW45576   2.484   4.367  10.227  0.2682 -0.5298 -0.1752
13247SOL    HW145577   2.467   4.458  10.252 -1.1384 -0.3103 -1.7951
13247SOL    HW245578   2.579   4.357  10.237  0.2292  0.5110  1.8728
13248SOL     OW45579   4.532   1.541   9.826 -0.9286 -0.0992  0.1674
13248SOL    HW145580   4.559   1.456   9.860 -2.0952 -0.3885  0.4275
13248SOL    HW245581   4.610   1.595   9.830 -0.4675 -0.8161  1.1133
13249SOL     OW45582   2.139   6.768   1.692 -0.0914 -0.1900 -0.5122
13249SOL    HW145583   2.133   6.700   1.759 -1.5196  0.6178  0.2391
13249SOL    HW245584   2.048   6.792   1.673  0.3447  0.9445 -1.3478
13250SOL     OW45585   2.032   3.472   7.453 -0.2184  0.6149 -0.2235
13250SOL    HW145586   2.053   3.443   7.364  2.6947  0.1700  0.5287
13250SOL    HW245587   1.991   3.395   7.494  2.8869 -0.9834  0.2115
13251SOL     OW45588   8.584   8.644   7.934 -0.2850 -0.0971  0.0691
13251SOL    HW145589   8.520   8.682   7.994  0.9260 -1.3735  2.3141
13251SOL    HW245590   8.535   8.576   7.888 -1.1032  0.4840  0.0657
13252SOL     OW45591   6.646   0.891  10.254  0.1622 -0.4688 -0.5036
13252SOL    HW145592   6.729   0.939  10.257 -0.9874  1.6338 -0.4675
13252SOL    HW245593   6.606   0.917  10.171 -2.2292  1.8500  1.2109
13253SOL     OW45594   8.872   7.806   1.253 -0.0547  0.6282 -0.2276
13253SOL    HW145595   8.826   7.831   1.173  0.2176  0.1273 -0.5465
13253SOL    HW245596   8.879   7.711   1.247  1.5183  0.7333 -0.4690
13254SOL     OW45597   2.546   0.248   6.492  0.1827 -0.0845  0.2903
13254SOL    HW145598   2.458   0.284   6.480 -0.4587 -1.7971 -0.4562
13254SOL    HW245599   2.597   0.283   6.420  0.2514  1.2220  0.9375
13255SOL     OW45600   8.474   2.886   5.388  0.0674 -0.4544  0.3754
13255SOL    HW145601   8.553   2.833   5.393  0.3201  0.0175  2.2953
13255SOL    HW245602   8.501   2.972   5.419 -0.8504  0.1825 -0.5124
13256SOL     OW45603   0.383   6.700   2.984  0.2544 -0.1249  0.3712
13256SOL    HW145604   0.295   6.671   2.962 -0.5046  1.2049  1.4689
13256SOL    HW245605   0.376   6.795   2.994  1.5408 -0.1093  1.5935
13257SOL     OW45606   7.295   2.756   1.328 -0.3689 -0.1431  0.0129
13257SOL    HW145607   7.243   2.771   1.407 -0.6562 -1.1653  0.0316
13257SOL    HW245608   7.382   2.790   1.350 -0.0851 -1.5623  1.2590
13258SOL     OW45609   9.385   6.431   7.855 -0.0210  0.4094 -0.3871
13258SOL    HW145610   9.378   6.383   7.938  1.9254  0.4070 -0.1677
13258SOL    HW245611   9.409   6.365   7.791 -0.5386  0.5791 -0.7651
13259SOL     OW45612   4.029   3.459   0.992  0.6603  1.0037 -0.2174
13259SOL    HW145613   4.053   3.512   0.916 -0.1550  1.9320  0.1520
13259SOL    HW245614   4.099   3.474   1.056  2.1343 -0.9187 -1.2596
13260SOL     OW45615   3.540   5.423   3.119  0.4614 -0.5977 -0.2853
13260SOL    HW145616   3.633   5.405   3.127  0.9938  1.4417 -1.3526
13260SOL    HW245617   3.510   5.364   3.049  1.0217 -1.0001 -0.1897
13261SOL     OW45618   4.855   0.561   8.826  0.1843 -0.5346 -0.1958
13261SOL    HW145619   4.828   0.651   8.804 -0.5870 -0.3539  1.3622
13261SOL    HW245620   4.932   0.573   8.881  0.6105 -0.8814 -0.7089
13262SOL     OW45621   4.818   8.489   0.514 -0.1877  0.1533 -0.1573
13262SOL    HW145622   4.848   8.577   0.490 -1.1102  0.6426  0.3973
13262SOL    HW245623   4.878   8.461   0.583  0.6924 -0.0553 -0.9935
13263SOL     OW45624   4.248   4.933   8.284  0.5160 -0.1985 -0.0168
13263SOL    HW145625   4.251   4.989   8.362 -1.4116  1.1717 -0.8460
13263SOL    HW245626   4.339   4.907   8.270  1.2993  1.6559  1.1963
13264SOL     OW45627   1.671   7.739   0.879 -0.0321 -0.0558 -0.3508
13264SOL    HW145628   1.590   7.789   0.872 -0.5612 -0.7151  0.8392
13264SOL    HW245629   1.663   7.670   0.812 -2.0398 -2.2278  1.9564
13265SOL     OW45630   0.365  10.597   2.864  0.0593  0.0799 -0.2098
13265SOL    HW145631   0.457  10.605   2.888 -0.1092  1.0395  0.1531
13265SOL    HW245632   0.352  10.503   2.848  1.7597  0.2274 -3.0247
13266SOL     OW45633   1.260   6.836   3.754 -0.5918  0.0704 -0.4582
13266SOL    HW145634   1.339   6.785   3.735  0.2958  1.9311 -2.0890
13266SOL    HW245635   1.189   6.786   3.713  0.0312 -0.5716 -0.7835
13267SOL     OW45636   3.862   1.387   3.891 -0.0199  0.4338  0.4055
13267SOL    HW145637   3.908   1.428   3.818  0.0146  1.0744  0.7747
13267SOL    HW245638   3.929   1.377   3.959 -0.2549  0.7037  0.6831
13268SOL     OW45639   8.993   8.248   8.292  0.1596  0.5973  0.1059
13268SOL    HW145640   8.979   8.342   8.280 -0.4843  0.4781 -0.1505
13268SOL    HW245641   8.990   8.235   8.386 -1.5065  0.6036  0.0894
13269SOL     OW45642  10.578  10.619   7.356  0.1529 -0.8466 -0.5808
13269SOL    HW145643  10.520  10.560   7.404 -0.0915 -1.5079 -1.6413
13269SOL    HW245644  10.532  10.635   7.273 -0.3508  1.7947  0.1156
13270SOL     OW45645   7.963   0.052   8.143 -0.4325  0.4994 -0.0771
13270SOL    HW145646   7.875   0.077   8.172 -0.1496  0.2449  1.0666
13270SOL    HW245647   8.020   0.117   8.183  0.2079 -1.2073  2.0254
13271SOL     OW45648   3.639   8.473   7.802  0.0937 -0.0789  0.0600
13271SOL    HW145649   3.582   8.459   7.878 -1.5025 -1.4022 -1.3070
13271SOL    HW245650   3.669   8.386   7.779  0.8156  0.3515 -0.6570
13272SOL     OW45651   1.637   0.169   2.660  1.0277  0.5184 -0.1581
13272SOL    HW145652   1.726   0.155   2.629  0.5055 -1.0720 -1.0620
13272SOL    HW245653   1.592   0.086   2.642 -0.2032  0.6892  1.8094
13273SOL     OW45654  10.185   1.635   0.713 -0.3145  0.5633  0.0022
13273SOL    HW145655  10.270   1.591   0.720 -0.9041 -0.4346  1.4552
13273SOL    HW245656  10.146   1.600   0.633 -0.3446 -0.8625  0.6031
13274SOL     OW45657   4.703   4.360   6.218 -0.8220 -0.3296  0.1032
13274SOL    HW145658   4.782   4.331   6.264  0.2355  0.8421 -0.8901
13274SOL    HW245659   4.664   4.279   6.185 -1.4480 -1.1659  2.6937
13275SOL     OW45660   5.767   5.510   4.367 -0.7936 -0.3937 -0.2020
13275SOL    HW145661   5.785   5.472   4.281 -0.3850  0.6928 -0.6160
13275SOL    HW245662   5.834   5.579   4.377  0.1328 -1.4784  1.6287
13276SOL     OW45663   3.833   3.185   9.661  0.5283  0.2223 -0.3076
13276SOL    HW145664   3.804   3.160   9.749 -0.2509 -0.4528 -0.7462
13276SOL    HW245665   3.809   3.278   9.654  0.8053  0.3450  0.2698
13277SOL     OW45666  10.314   2.041   7.407  0.1188 -0.3013  0.1330
13277SOL    HW145667  10.369   2.005   7.337  0.1168  2.1672 -1.2813
13277SOL    HW245668  10.226   2.043   7.370 -0.2778 -0.8586  1.0120
13278SOL     OW45669   3.837   9.171   3.982  0.6006 -0.1231 -0.0394
13278SOL    HW145670   3.801   9.113   4.049  0.1825  1.0832  0.8155
13278SOL    HW245671   3.838   9.117   3.902 -0.7885 -0.9681  0.4706
13279SOL     OW45672   3.667   6.745  10.058 -0.0089  0.3118 -0.0166
13279SOL    HW145673   3.711   6.678  10.005  0.8842  0.5443  0.4033
13279SOL    HW245674   3.666   6.822  10.001  4.2413  1.7091  1.3915
13280SOL     OW45675   4.625  10.617   2.238  0.1284  0.3409 -0.3124
13280SOL    HW145676   4.681  10.667   2.297 -0.1376 -1.2049  1.3590
13280SOL    HW245677   4.669  10.621   2.154  1.3458  1.3754  0.3365
13281SOL     OW45678   5.423   5.534   8.570  0.3031  0.3170 -0.5799
13281SOL    HW145679   5.443   5.467   8.504  1.4698 -0.2473  0.2997
13281SOL    HW245680   5.386   5.606   8.520  0.5135 -0.3598 -1.7727
13282SOL     OW45681   2.655   5.489   5.679  0.7149 -0.0305  0.1080
13282SOL    HW145682   2.739   5.484   5.724 -0.1614  0.1324  1.8930
13282SOL    HW245683   2.647   5.406   5.633  1.5316 -0.3602  0.5361
13283SOL     OW45684   7.053   0.799   9.366 -0.5531 -0.4352  0.2547
13283SOL    HW145685   7.004   0.769   9.289  0.6852 -0.6846 -0.4672
13283SOL    HW245686   7.005   0.876   9.396 -2.8668 -2.1144  1.1507
13284SOL     OW45687   5.476   7.764   7.531 -0.1672 -0.2757 -0.2123
13284SOL    HW145688   5.502   7.745   7.621 -0.5012  0.8042  0.1158
13284SOL    HW245689   5.485   7.679   7.486  0.8033 -0.6448  0.6310
13285SOL     OW45690   1.408   6.785   1.080  0.0704  0.1289  0.3155
13285SOL    HW145691   1.425   6.876   1.054 -1.4114  0.6616  1.1156
13285SOL    HW245692   1.384   6.741   0.998  0.4724  0.5261 -0.0236
13286SOL     OW45693   4.517   1.454  10.824 -0.7202 -0.3741  0.1962
13286SOL    HW145694   4.496   1.421  10.736 -1.1580  1.8978 -0.6011
13286SOL    HW245695   4.600   1.412  10.845 -0.4572 -0.7576 -1.4360
13287SOL     OW45696   9.377   8.673   7.086 -0.3183  0.0411  0.0907
13287SOL    HW145697   9.412   8.715   7.164 -1.1914  1.2447 -0.1426
13287SOL    HW245698   9.400   8.732   7.014  0.2015 -0.8944 -0.5455
13288SOL     OW45699   5.660   0.539   1.903  0.1956  0.0405 -0.3472
13288SOL    HW145700   5.743   0.563   1.861 -0.4273  2.7851 -0.2020
13288SOL    HW245701   5.600   0.610   1.879 -1.3070 -0.3920  1.8879
13289SOL     OW45702   5.323   2.532   1.827  0.1666  0.1090 -0.3250
13289SOL    HW145703   5.282   2.501   1.907 -1.1183 -1.0794 -1.3748
13289SOL    HW245704   5.312   2.627   1.829 -0.2593  0.0459  0.6769
13290SOL     OW45705   9.576   7.033   1.026  0.4014  0.9921 -0.0081
13290SOL    HW145706   9.515   7.105   1.011 -0.2771  0.3917 -0.1799
13290SOL    HW245707   9.573   6.982   0.945 -1.4432 -0.9183  1.1582
13291SOL     OW45708   4.291   4.859   8.711  0.5214  0.3136  0.0875
13291SOL    HW145709   4.352   4.908   8.766  1.1642  0.9314 -1.1287
13291SOL    HW245710   4.339   4.781   8.685  0.5757  0.5060 -0.3914
13292SOL     OW45711   8.632   5.263   0.693  0.3549 -0.7351  0.4263
13292SOL    HW145712   8.596   5.196   0.634 -2.2573  0.9527 -0.0531
13292SOL    HW245713   8.654   5.336   0.635 -0.5972  0.2987  1.3246
13293SOL     OW45714   2.529   4.319   9.023  0.4837 -0.0528 -0.3977
13293SOL    HW145715   2.592   4.379   8.985  0.9139 -0.0312  0.3360
13293SOL    HW245716   2.472   4.374   9.076  0.4623 -0.2045 -0.2628
13294SOL     OW45717   3.090   2.380   1.083 -0.4781  0.2127  0.2513
13294SOL    HW145718   3.169   2.413   1.126  1.0540 -1.8823 -0.7926
13294SOL    HW245719   3.019   2.404   1.143  0.9519  1.8088  1.4282
13295SOL     OW45720   4.503   8.636   1.344 -0.2805 -0.4086 -0.3119
13295SOL    HW145721   4.584   8.604   1.305 -0.7179 -0.9668 -0.7812
13295SOL    HW245722   4.439   8.567   1.327 -0.8928  0.0822 -0.0598
13296SOL     OW45723   6.445   5.313   9.198  0.2649 -0.3450 -0.4025
13296SOL    HW145724   6.450   5.222   9.168 -1.6805 -0.0857 -1.6268
13296SOL    HW245725   6.376   5.312   9.264 -0.6255  0.4658 -1.3127
13297SOL     OW45726   6.090   7.472   7.623 -0.2250 -0.2263 -0.5714
13297SOL    HW145727   6.180   7.444   7.641 -1.4725 -3.3451  1.7073
13297SOL    HW245728   6.087   7.480   7.528  2.4240  0.0281 -0.7258
13298SOL     OW45729   2.119   4.395   7.312 -0.4709 -0.4353 -0.6252
13298SOL    HW145730   2.096   4.308   7.279 -0.0203 -1.5078  1.6903
13298SOL    HW245731   2.039   4.447   7.299 -1.3349 -1.6783 -0.4645
13299SOL     OW45732   2.044   6.786   2.528 -0.2749  0.1594 -0.2175
13299SOL    HW145733   2.055   6.862   2.586  0.6650 -0.4295  0.4006
13299SOL    HW245734   2.129   6.742   2.530 -1.0182 -1.3263  0.0241
13300SOL     OW45735   1.281  10.134   3.770 -0.0409  0.4419 -0.3946
13300SOL    HW145736   1.279  10.182   3.853 -0.0105  0.2086 -0.2604
13300SOL    HW245737   1.374  10.117   3.754  0.0148  1.1135 -0.8373
13301SOL     OW45738   2.064   3.812   1.261 -0.0595 -0.3389  0.2613
13301SOL    HW145739   2.120   3.771   1.195 -0.1068 -1.2197  0.7614
13301SOL    HW245740   1.975   3.792   1.232 -0.1240  0.6453 -0.2672
13302SOL     OW45741  10.865   1.713   4.538  0.0999 -0.1931 -0.1774
13302SOL    HW145742  10.813   1.661   4.600  0.5888 -0.6212 -0.1200
13302SOL    HW245743  10.942   1.659   4.520  1.7163  1.4010  1.5414
13303SOL     OW45744   7.565   4.115   1.362 -0.0576 -0.0623 -0.3861
13303SOL    HW145745   7.565   4.102   1.267 -2.0039 -3.0481 -0.1246
13303SOL    HW245746   7.510   4.193   1.375  0.2420  0.3944 -1.6841
13304SOL     OW45747   5.240   8.064   4.638 -0.0122  0.5974 -0.8233
13304SOL    HW145748   5.329   8.084   4.608  0.1771 -0.9560 -1.3954
13304SOL    HW245749   5.200   8.017   4.565 -0.6983 -0.2780  0.0870
13305SOL     OW45750   1.377   6.154   9.567 -0.0532 -0.6132 -0.3143
13305SOL    HW145751   1.283   6.145   9.581  0.2931 -0.5094  2.8706
13305SOL    HW245752   1.385   6.219   9.497 -2.2966 -1.3283 -1.3408
13306SOL     OW45753   0.760   5.273   2.072 -0.1818  0.2638 -0.0916
13306SOL    HW145754   0.718   5.282   2.158 -0.0327  0.5356 -0.0461
13306SOL    HW245755   0.817   5.197   2.081 -0.3129  0.1753 -0.0092
13307SOL     OW45756   7.580   5.397   1.646  0.0299 -0.8323 -0.5324
13307SOL    HW145757   7.595   5.486   1.676 -0.4480  0.0736 -2.8019
13307SOL    HW245758   7.506   5.366   1.699  0.1029  0.1658  0.1799
13308SOL     OW45759   0.016   1.036   8.384 -0.3015 -0.3168 -0.2558
13308SOL    HW145760   0.056   1.012   8.301 -0.2970 -0.0086 -0.3420
13308SOL    HW245761   0.059   0.979   8.448 -0.7001 -0.9438 -0.5338
13309SOL     OW45762   7.043   2.780   3.471 -0.5020  0.2026  0.0353
13309SOL    HW145763   7.090   2.811   3.548  0.5422 -1.8203  0.2539
13309SOL    HW245764   7.078   2.834   3.399  1.3055 -0.4498  0.3869
13310SOL     OW45765   7.723   9.384   6.882  0.0929  0.3943 -0.0105
13310SOL    HW145766   7.641   9.422   6.849  0.5190  3.2267  1.8372
13310SOL    HW245767   7.698   9.298   6.913 -2.4629  1.5029  1.3329
13311SOL     OW45768   8.752   5.875   6.403 -0.5039 -0.2768  0.3885
13311SOL    HW145769   8.717   5.791   6.373 -1.2156  0.2800 -0.3866
13311SOL    HW245770   8.717   5.886   6.491  2.0616 -2.1954  1.7826
13312SOL     OW45771   5.745   7.100   7.208  0.0676 -0.0270 -0.1239
13312SOL    HW145772   5.788   7.125   7.126 -1.0930 -1.3503 -1.1818
13312SOL    HW245773   5.659   7.069   7.182 -0.7202  0.4397  1.7210
13313SOL     OW45774   7.273  10.624   7.977  0.0169 -0.2096 -0.1652
13313SOL    HW145775   7.245  10.539   8.011 -1.2590  0.7222  1.2353
13313SOL    HW245776   7.196  10.659   7.933  0.1060  0.7847  0.4364
13314SOL     OW45777   8.346   1.956   4.262 -0.2754  0.5637 -0.6182
13314SOL    HW145778   8.301   1.993   4.186 -0.9046 -0.4306 -0.7447
13314SOL    HW245779   8.297   1.877   4.283 -0.5954  1.2176  1.3167
13315SOL     OW45780   2.270   5.745   4.351  0.1549 -0.1040  0.1516
13315SOL    HW145781   2.179   5.747   4.382 -0.4750  0.7325 -1.6293
13315SOL    HW245782   2.264   5.715   4.261  1.4627  1.5823 -0.5460
13316SOL     OW45783   5.440   8.116  10.132  0.2513 -0.4449 -0.3154
13316SOL    HW145784   5.454   8.204  10.097 -0.0275 -0.3166 -0.1057
13316SOL    HW245785   5.404   8.130  10.220 -0.3755 -0.7645 -0.5143
13317SOL     OW45786   1.106   6.294   8.486  0.3291  0.8146 -0.7117
13317SOL    HW145787   1.062   6.360   8.432 -0.5221 -0.5448 -1.7616
13317SOL    HW245788   1.036   6.254   8.538  0.5152 -0.3610 -1.3142
13318SOL     OW45789   6.825   2.044   0.012  0.5298 -0.6389  0.1075
13318SOL    HW145790   6.791   2.019   0.098  0.8477  1.2908  0.8405
13318SOL    HW245791   6.791   1.976  -0.047  0.3116 -2.0134  1.7235
13319SOL     OW45792   6.252   7.453   2.904  0.1481 -0.4774  0.2100
13319SOL    HW145793   6.275   7.468   2.812  0.4801 -0.5369  0.2803
13319SOL    HW245794   6.213   7.366   2.905 -0.5597 -0.1663  0.0067
13320SOL     OW45795   8.598  10.450   9.465 -0.3441  0.3257  0.2169
13320SOL    HW145796   8.568  10.514   9.399 -1.0551 -2.0973 -1.9715
13320SOL    HW245797   8.518  10.406   9.493  0.2113 -0.0553  1.2095
13321SOL     OW45798   3.191   3.192   4.943 -0.3517 -0.0458 -0.0047
13321SOL    HW145799   3.210   3.244   4.865  1.5891 -0.2546  0.2912
13321SOL    HW245800   3.220   3.104   4.920  0.0354 -0.1567  0.8744
13322SOL     OW45801  10.255   1.492  10.068  0.8417 -0.0202 -0.3991
13322SOL    HW145802  10.251   1.444  10.150 -1.7267  0.4294 -0.1806
13322SOL    HW245803  10.220   1.578  10.089  0.6085  0.2624 -1.8426
13323SOL     OW45804  10.465   8.133   9.260  0.2709 -0.3681 -0.0194
13323SOL    HW145805  10.387   8.098   9.218 -0.4231  0.3124  0.6728
13323SOL    HW245806  10.536   8.075   9.230 -0.7445 -2.0824  0.7133
13324SOL     OW45807   7.413   5.377   4.018  0.2019 -0.1209 -0.3194
13324SOL    HW145808   7.394   5.458   4.064 -1.4043 -0.5768 -0.1061
13324SOL    HW245809   7.508   5.374   4.011  0.4174  0.6025  1.7835
13325SOL     OW45810   3.254   0.857   0.861 -0.2898  0.0056 -1.3412
13325SOL    HW145811   3.230   0.950   0.853 -0.2060  0.1828  0.1888
13325SOL    HW245812   3.350   0.858   0.868 -0.3815 -0.0453  0.1955
13326SOL     OW45813   3.216   4.816   2.078 -0.1340 -0.0535 -0.6562
13326SOL    HW145814   3.210   4.847   1.988 -0.4614 -1.7841 -1.2525
13326SOL    HW245815   3.310   4.802   2.093 -0.1565 -0.5825 -1.0128
13327SOL     OW45816   9.071   2.779   9.140 -0.5735 -0.2476 -0.8754
13327SOL    HW145817   9.010   2.835   9.187  0.0290 -0.2495 -0.0565
13327SOL    HW245818   9.017   2.708   9.104 -0.8866 -1.1219  1.1584
13328SOL     OW45819   7.300   8.251  10.753  0.1917  0.0066 -0.6760
13328SOL    HW145820   7.298   8.322  10.818  1.7426 -0.1085 -0.4545
13328SOL    HW245821   7.329   8.174  10.802 -0.2516 -0.4895 -1.1755
13329SOL     OW45822   4.842   9.074   7.855  0.1321 -0.3933 -0.4644
13329SOL    HW145823   4.872   8.988   7.884  1.4020 -0.3507 -1.5530
13329SOL    HW245824   4.899   9.136   7.901  3.1097 -0.3490 -3.7168
13330SOL     OW45825  10.686  10.181   6.392 -0.4285  0.3742  0.3530
13330SOL    HW145826  10.705  10.123   6.466  1.3398  0.6237  0.1356
13330SOL    HW245827  10.640  10.126   6.330 -2.2369  0.2355  1.7345
13331SOL     OW45828  10.186   4.247   1.705 -0.3612 -0.0664  0.6821
13331SOL    HW145829  10.106   4.298   1.716 -0.2644 -0.1654  1.9005
13331SOL    HW245830  10.192   4.193   1.784  0.9742  0.0263  0.6650
13332SOL     OW45831   2.326   8.773   6.965  0.1378  0.3480 -0.1667
13332SOL    HW145832   2.257   8.804   7.024  0.0960 -0.4934  0.2465
13332SOL    HW245833   2.300   8.805   6.879 -0.6655  0.2163  0.0183
13333SOL     OW45834   7.056   2.519   0.173  0.0898  0.2953  0.2702
13333SOL    HW145835   7.039   2.572   0.251 -0.2312 -0.2530  0.5780
13333SOL    HW245836   6.979   2.463   0.165 -1.0560  2.0480 -1.8900
13334SOL     OW45837   4.887   1.654   8.736  0.0227  0.0803 -0.5893
13334SOL    HW145838   4.926   1.605   8.664  0.3156 -0.5666 -0.0069
13334SOL    HW245839   4.833   1.591   8.782 -0.6639  0.6483 -0.6050
13335SOL     OW45840   7.230   5.444   2.089  0.3858  0.0929 -0.0122
13335SOL    HW145841   7.177   5.411   2.017 -0.8051  2.6324 -0.4024
13335SOL    HW245842   7.179   5.423   2.167  1.9001 -3.0959  0.3046
13336SOL     OW45843   1.832   6.091   0.957 -0.3217  0.1334 -0.1031
13336SOL    HW145844   1.777   6.163   0.926 -1.4554 -0.1851  1.0727
13336SOL    HW245845   1.773   6.016   0.959 -0.0936 -0.0268  2.0145
13337SOL     OW45846   5.752   4.881   8.722  0.3524  0.4609 -0.0725
13337SOL    HW145847   5.840   4.918   8.712  0.6332 -0.3168 -0.5560
13337SOL    HW245848   5.717   4.925   8.799  0.7502  1.5685 -0.5047
13338SOL     OW45849   2.173   3.839   3.137 -0.6983  1.1044 -0.4819
13338SOL    HW145850   2.121   3.772   3.093  1.0904 -0.5187 -0.2627
13338SOL    HW245851   2.109   3.898   3.176 -2.3275  0.3946 -1.9870
13339SOL     OW45852   5.824   2.866   2.884 -0.3841  0.3423 -0.4754
13339SOL    HW145853   5.763   2.889   2.955  1.0628 -0.4038  1.0903
13339SOL    HW245854   5.793   2.781   2.853 -0.3362  0.1004  0.1164
13340SOL     OW45855   0.848  10.872   0.608  0.2390  0.3957  0.0885
13340SOL    HW145856   0.914  10.927   0.568 -0.2857  0.4417 -0.7266
13340SOL    HW245857   0.883  10.783   0.601 -0.7747  0.1336 -2.4491
13341SOL     OW45858  10.853   2.842  10.824 -0.1915  0.3054  0.9298
13341SOL    HW145859  10.772   2.892  10.830 -0.6504 -0.2666 -0.1156
13341SOL    HW245860  10.923   2.907  10.833 -0.7654  1.3335 -1.3514
13342SOL     OW45861   7.542   5.618   5.131 -0.0032 -0.2341  0.1741
13342SOL    HW145862   7.581   5.694   5.088  0.5559 -0.3680  0.4374
13342SOL    HW245863   7.521   5.558   5.059  0.9390 -0.4632  0.0741
13343SOL     OW45864   5.185   9.433   6.477  0.3302  0.4115 -0.6244
13343SOL    HW145865   5.223   9.351   6.508  0.7958  0.0571 -2.0423
13343SOL    HW245866   5.095   9.411   6.454 -0.4669  0.9986  1.7010
13344SOL     OW45867   6.170   5.129   1.795  0.2078  0.0325 -0.2415
13344SOL    HW145868   6.172   5.089   1.882  1.9586  1.5103  0.4431
13344SOL    HW245869   6.231   5.077   1.743  0.2609  0.0409 -0.1867
13345SOL     OW45870   3.803   8.535   3.746 -0.2008  0.0300  0.1782
13345SOL    HW145871   3.848   8.499   3.670 -1.0719  2.0701 -1.3965
13345SOL    HW245872   3.731   8.474   3.763  0.6147 -0.9892  0.0590
13346SOL     OW45873   6.903   6.482   4.722  0.0081  0.4467  0.1904
13346SOL    HW145874   6.827   6.425   4.725  0.4144 -0.0878  0.5247
13346SOL    HW245875   6.978   6.423   4.732  0.4414  1.0180  0.3776
13347SOL     OW45876   8.013   0.623   1.383 -0.1939  0.5764  0.3276
13347SOL    HW145877   8.053   0.551   1.334 -0.4052  1.2441 -0.8529
13347SOL    HW245878   8.078   0.693   1.382 -0.5508  0.9124  0.2262
13348SOL     OW45879   8.713   1.909   2.900 -0.2685  0.0397 -0.1933
13348SOL    HW145880   8.623   1.942   2.897 -0.7817 -1.3106 -0.4713
13348SOL    HW245881   8.764   1.972   2.849 -1.0116  0.9227  0.1218
13349SOL     OW45882   6.995   3.233   6.579  0.3892 -0.5189 -0.1661
13349SOL    HW145883   6.956   3.274   6.502  2.3120  0.1930 -0.8255
13349SOL    HW245884   7.080   3.201   6.549  0.2870 -2.1545  1.1474
13350SOL     OW45885  10.322   5.316   1.431 -0.5771 -0.3121  0.0191
13350SOL    HW145886  10.365   5.244   1.386  0.3039 -0.5871  1.2590
13350SOL    HW245887  10.393   5.374   1.458 -1.1113  0.0574  0.6769
13351SOL     OW45888   4.877   0.026   3.766  0.2332 -0.3189  0.9894
13351SOL    HW145889   4.854   0.118   3.754  1.0767 -0.0798  1.1258
13351SOL    HW245890   4.970   0.027   3.787  0.3682 -1.2396  0.5192
13352SOL     OW45891   0.731   9.877   6.522  0.0612 -0.0012  0.4700
13352SOL    HW145892   0.786   9.913   6.592  1.5919 -0.1979 -0.5825
13352SOL    HW245893   0.693   9.798   6.559  1.5149 -0.5551  0.8229
13353SOL     OW45894   4.695   8.584   9.923 -0.0827  0.0350  0.2868
13353SOL    HW145895   4.756   8.578   9.850 -0.4776  0.6362 -0.1094
13353SOL    HW245896   4.689   8.678   9.941  0.3500 -0.1383  1.3904
13354SOL     OW45897   8.463   4.780   9.335  0.6535 -0.1014  0.0611
13354SOL    HW145898   8.437   4.821   9.253  1.1452  0.5347  0.2127
13354SOL    HW245899   8.394   4.716   9.353 -0.5252  1.1513  0.1772
13355SOL     OW45900   8.009  10.379   3.977  0.0096 -0.2297  0.1882
13355SOL    HW145901   8.098  10.404   4.003  0.1341 -0.3513 -0.1151
13355SOL    HW245902   8.013  10.371   3.882 -0.3765 -0.0475  0.1560
13356SOL     OW45903   6.686   2.532   4.065  0.0830  0.1787  1.0122
13356SOL    HW145904   6.702   2.445   4.028 -0.0724  0.9047 -0.8700
13356SOL    HW245905   6.770   2.578   4.056 -0.5308  1.0827 -0.5971
13357SOL     OW45906   0.048   5.849  10.196  0.4666 -0.6615 -0.1597
13357SOL    HW145907  -0.009   5.839  10.119  0.9637  1.6601 -0.9020
13357SOL    HW245908   0.043   5.764  10.240 -1.2772 -1.4705 -1.7557
13358SOL     OW45909   2.359   3.026   4.291 -0.0760  0.6993  0.1605
13358SOL    HW145910   2.346   3.092   4.223  0.1159 -0.1622 -0.7464
13358SOL    HW245911   2.453   3.029   4.310 -0.0942  0.7939  0.2359
13359SOL     OW45912   0.409  10.612   3.952 -0.2349 -0.0523  0.1301
13359SOL    HW145913   0.463  10.558   4.009  1.2325 -2.7114 -3.3902
13359SOL    HW245914   0.334  10.557   3.929 -0.4881  0.6805 -0.9182
13360SOL     OW45915   8.435   3.403   2.784  0.4152  0.1588 -0.4188
13360SOL    HW145916   8.530   3.392   2.796  0.2429 -0.6568  0.3248
13360SOL    HW245917   8.426   3.487   2.738  1.3628  2.0292  2.5099
13361SOL     OW45918   9.030   4.772  10.836 -0.2567  0.0259 -0.3013
13361SOL    HW145919   9.075   4.734  10.761 -0.5024 -0.3993 -0.2356
13361SOL    HW245920   9.015   4.698  10.895  0.3836  0.4350  0.3959
13362SOL     OW45921   2.898   0.540   7.837  0.1327  0.4092  0.2049
13362SOL    HW145922   2.988   0.546   7.806  0.5837  1.3417  1.5928
13362SOL    HW245923   2.845   0.534   7.757  1.4253 -0.4650 -0.6194
13363SOL     OW45924   1.868   3.027   8.083  0.7703  0.3106 -0.2835
13363SOL    HW145925   1.944   3.045   8.139 -0.3001 -0.0661  1.3853
13363SOL    HW245926   1.852   3.110   8.038  1.3249  0.8248  0.4321
13364SOL     OW45927   5.216   1.247   3.514 -0.3710  0.1067  0.2582
13364SOL    HW145928   5.212   1.161   3.471  0.4448 -0.0703  0.5297
13364SOL    HW245929   5.200   1.228   3.607  1.5854  0.0016  0.6048
13365SOL     OW45930   6.797   8.800   5.836 -0.1833  0.2569 -0.1307
13365SOL    HW145931   6.851   8.765   5.907 -0.2672 -2.0890 -1.1296
13365SOL    HW245932   6.857   8.856   5.786  0.3353  0.5526  0.8082
13366SOL     OW45933   6.504   1.606   1.682  0.0398  0.0767  0.3027
13366SOL    HW145934   6.578   1.624   1.739 -1.9011  1.0062  2.7054
13366SOL    HW245935   6.512   1.669   1.611  1.0406  0.7691  1.0106
13367SOL     OW45936   4.641   9.222   9.782  0.0171 -0.4557  0.3507
13367SOL    HW145937   4.671   9.311   9.769 -0.2361 -0.5281 -0.8475
13367SOL    HW245938   4.721   9.170   9.792  0.2397 -0.3223 -0.6055
13368SOL     OW45939   6.551   9.785   1.327 -0.5166 -0.4050  0.0780
13368SOL    HW145940   6.491   9.773   1.254 -0.5479 -0.2986  0.0861
13368SOL    HW245941   6.507   9.847   1.385 -1.2434 -1.7182  1.0039
13369SOL     OW45942   2.738   0.370   7.407  0.2073  0.5059 -0.3163
13369SOL    HW145943   2.699   0.296   7.361 -0.6928 -0.1216  1.3804
13369SOL    HW245944   2.727   0.444   7.347  0.2421 -0.5219 -1.6247
13370SOL     OW45945   1.901   7.361   0.369  0.5631 -1.0795  0.2899
13370SOL    HW145946   1.990   7.378   0.401  0.1021  2.1352  0.2134
13370SOL    HW245947   1.851   7.339   0.448  0.9442 -0.4248  0.7267
13371SOL     OW45948   8.042   6.921  10.569 -0.2566 -0.0050 -0.1915
13371SOL    HW145949   8.115   6.982  10.572  1.0793 -1.5338 -0.2236
13371SOL    HW245950   8.041   6.879  10.655 -0.1730 -0.9986 -0.6566
13372SOL     OW45951   6.250   7.506   6.963  0.2574 -0.4354  0.0588
13372SOL    HW145952   6.313   7.541   7.026 -1.0149 -0.9160  1.6619
13372SOL    HW245953   6.291   7.522   6.878  0.9309  2.5281  0.8123
13373SOL     OW45954   1.148   8.657   8.776 -0.2569  0.1122  0.4368
13373SOL    HW145955   1.184   8.569   8.773 -0.5586  0.0190 -0.7637
13373SOL    HW245956   1.216   8.712   8.736 -0.4892  0.2740  0.2640
13374SOL     OW45957   4.569   5.802   1.211  0.1377  0.0243 -0.1849
13374SOL    HW145958   4.632   5.873   1.225 -1.7328  1.4657  1.6146
13374SOL    HW245959   4.590   5.738   1.278 -1.6913  1.6382  2.0882
13375SOL     OW45960   1.954   9.018   7.887 -0.3873  0.1448  0.0442
13375SOL    HW145961   2.014   9.085   7.854  1.3189 -1.3431 -0.0207
13375SOL    HW245962   1.978   9.008   7.979  0.5374 -1.4831 -0.3298
13376SOL     OW45963   3.595   8.082   2.054 -0.0400  0.7944  0.3825
13376SOL    HW145964   3.679   8.043   2.027 -0.6172  0.1956 -0.6092
13376SOL    HW245965   3.548   8.011   2.097  0.0447  1.1973  1.1666
13377SOL     OW45966   4.066   4.376  10.018 -0.0649  0.6838  0.2327
13377SOL    HW145967   4.092   4.290  10.049 -1.7038 -0.8814 -2.3191
13377SOL    HW245968   3.979   4.363   9.980  0.3497  3.0330 -1.8479
13378SOL     OW45969   9.151   0.399  10.677 -0.6994  0.3399 -0.7082
13378SOL    HW145970   9.096   0.322  10.691  0.8685 -0.6808  0.1595
13378SOL    HW245971   9.207   0.376  10.602  1.6431 -0.5856  1.1653
13379SOL     OW45972   0.667   1.027   0.656  0.3219  0.3036 -0.0417
13379SOL    HW145973   0.676   1.045   0.750 -0.4267 -0.2116  0.1351
13379SOL    HW245974   0.723   0.951   0.641  0.5939  0.5047 -0.0548
13380SOL     OW45975   4.911   8.148   2.676 -0.3346  0.1537  0.3419
13380SOL    HW145976   4.968   8.161   2.752 -0.2896 -0.0665  0.3474
13380SOL    HW245977   4.952   8.200   2.607 -0.1735  0.0690  0.3706
13381SOL     OW45978   4.461   9.906   2.304  0.3292 -0.4916  0.1170
13381SOL    HW145979   4.438   9.937   2.391  1.2583  0.1366  0.1591
13381SOL    HW245980   4.462   9.811   2.312  0.2024 -0.4444  0.7351
13382SOL     OW45981   4.566  10.364   6.200 -0.4229 -0.1948 -0.3999
13382SOL    HW145982   4.472  10.359   6.184 -0.4184 -0.3990 -0.3735
13382SOL    HW245983   4.599  10.422   6.132 -0.3918 -1.1142 -1.1924
13383SOL     OW45984   0.984   0.834   0.290 -0.1998 -0.3663 -0.1234
13383SOL    HW145985   0.893   0.841   0.317  0.0951 -1.0141  1.1388
13383SOL    HW245986   1.000   0.739   0.288  0.6853 -0.2415  0.5684
13384SOL     OW45987   6.461   9.849   2.653 -0.0017 -0.1931  0.4447
13384SOL    HW145988   6.422   9.767   2.682 -1.0769  0.0876 -0.1787
13384SOL    HW245989   6.399   9.916   2.680 -0.2205  0.2184 -0.9959
13385SOL     OW45990   8.275   5.776   2.689  1.2516 -0.0494 -0.2925
13385SOL    HW145991   8.292   5.864   2.722 -1.2081  0.8703 -1.2096
13385SOL    HW245992   8.276   5.786   2.593 -1.1161 -0.4843 -0.4170
13386SOL     OW45993   7.207   9.546   8.061  0.4595 -0.1137  0.1032
13386SOL    HW145994   7.165   9.542   8.147 -0.5960 -1.2983 -0.4421
13386SOL    HW245995   7.206   9.456   8.029 -1.6456  0.6654 -2.3172
13387SOL     OW45996   3.271   2.311   4.369  0.3279 -0.2692  0.3030
13387SOL    HW145997   3.278   2.223   4.332  1.0474 -0.0412 -0.1191
13387SOL    HW245998   3.249   2.366   4.294 -0.6007 -0.1542  0.6519
13388SOL     OW45999   5.237   2.808   5.702  0.1123  0.0320 -0.0300
13388SOL    HW146000   5.280   2.742   5.756  0.9835  0.2542 -0.4303
13388SOL    HW246001   5.147   2.777   5.692  0.4811 -1.0446 -0.1331
13389SOL     OW46002   1.263   9.005   6.605 -0.1282  0.1011 -0.5175
13389SOL    HW146003   1.213   8.959   6.673 -1.1090  1.1070 -0.5207
13389SOL    HW246004   1.200   9.066   6.567  0.3559 -0.5703 -2.4783
13390SOL     OW46005   1.877   4.944   7.136 -0.0937 -0.2198 -0.1873
13390SOL    HW146006   1.947   4.882   7.119 -0.9082 -0.6574 -2.1892
13390SOL    HW246007   1.919   5.014   7.186  1.0538 -1.8829  1.2691
13391SOL     OW46008   5.016   3.244   5.544  0.2603  0.1357 -0.2092
13391SOL    HW146009   5.072   3.297   5.488  0.8135  1.0606  1.1697
13391SOL    HW246010   5.076   3.204   5.607 -0.5440  0.5784  0.8598
13392SOL     OW46011   8.795   5.309  10.133 -0.6290  0.1969 -0.4480
13392SOL    HW146012   8.787   5.247  10.205 -1.8540 -1.0030 -1.5687
13392SOL    HW246013   8.847   5.263  10.067  1.2608  1.6080 -0.0400
13393SOL     OW46014   9.743   8.475   5.508  0.1484 -0.2293 -0.2520
13393SOL    HW146015   9.837   8.474   5.492 -0.0569  2.0085 -2.2778
13393SOL    HW246016   9.723   8.389   5.545  2.8484 -1.0514 -0.5237
13394SOL     OW46017   7.451   3.231   1.616 -0.0567 -0.4904 -0.1150
13394SOL    HW146018   7.523   3.281   1.655 -0.7715  0.3277  0.1968
13394SOL    HW246019   7.426   3.284   1.540 -1.0846 -0.1485  0.4450
13395SOL     OW46020   7.339   6.970   3.723 -0.2956  0.3784  0.0947
13395SOL    HW146021   7.412   6.921   3.760  0.2525 -0.1554 -1.6015
13395SOL    HW246022   7.261   6.918   3.744  0.1655 -0.6670 -0.7485
13396SOL     OW46023   4.281   8.145   3.527 -0.0708  0.0829 -0.2031
13396SOL    HW146024   4.344   8.096   3.580 -0.2938 -1.5345 -1.3846
13396SOL    HW246025   4.328   8.166   3.447 -0.8610 -0.7465 -0.9061
13397SOL     OW46026   7.896   1.707   6.715 -0.3767  0.0081  0.0772
13397SOL    HW146027   7.987   1.714   6.744 -0.6429  0.2489  0.9113
13397SOL    HW246028   7.901   1.676   6.625  0.5017 -0.8730  0.4126
13398SOL     OW46029   2.317   2.414   0.712 -0.4982  0.2599  0.2593
13398SOL    HW146030   2.275   2.495   0.685 -0.0253  0.4424  0.0643
13398SOL    HW246031   2.291   2.350   0.645  1.0071  0.8083 -0.8966
13399SOL     OW46032   3.765   8.549   2.557 -0.3383 -0.1679  0.1977
13399SOL    HW146033   3.795   8.463   2.586  0.4375  0.2681  0.7107
13399SOL    HW246034   3.836   8.582   2.502 -0.7151  0.0707 -0.1514
13400SOL     OW46035   4.101   3.303   4.006  0.2623  0.1797 -0.4755
13400SOL    HW146036   4.190   3.267   4.012  0.2265  0.1507 -0.1165
13400SOL    HW246037   4.108   3.373   3.941  0.5586  0.2103 -0.4124
13401SOL     OW46038   0.305   1.485   7.739  0.7239  0.5058 -0.0719
13401SOL    HW146039   0.306   1.389   7.736  0.1982  0.4728  0.5189
13401SOL    HW246040   0.396   1.509   7.757  0.6391  0.0447  1.0938
13402SOL     OW46041   6.455   7.392   1.502 -0.3692  0.9423 -0.4559
13402SOL    HW146042   6.505   7.313   1.521  0.5221  1.3000 -1.2349
13402SOL    HW246043   6.364   7.363   1.499 -0.1986  0.2489  0.7993
13403SOL     OW46044   3.736   4.981   0.104 -0.4237 -0.0084 -0.0958
13403SOL    HW146045   3.781   5.004   0.185  0.1244 -1.0301 -0.0995
13403SOL    HW246046   3.698   4.894   0.122  1.3703 -1.1591 -1.5681
13404SOL     OW46047   1.546   6.866   7.435 -0.0030 -0.1025  0.2071
13404SOL    HW146048   1.491   6.832   7.506 -2.1202  2.2549 -0.1726
13404SOL    HW246049   1.484   6.886   7.365  1.5948  1.0527 -0.9310
13405SOL     OW46050   0.737   1.592   6.345  0.6349 -0.5305  0.1240
13405SOL    HW146051   0.713   1.500   6.358 -0.5828 -0.1073  1.0462
13405SOL    HW246052   0.699   1.638   6.421  0.4421  0.8636 -0.7806
13406SOL     OW46053   2.568   2.000   1.539 -0.1921 -0.3996 -0.3029
13406SOL    HW146054   2.557   1.908   1.563  0.6723 -0.4843 -0.2078
13406SOL    HW246055   2.517   2.048   1.604 -1.1515 -0.8294 -0.7118
13407SOL     OW46056   9.643   2.161   4.496  0.3010 -0.2092  0.5022
13407SOL    HW146057   9.719   2.196   4.449 -0.4237 -0.3805 -0.8661
13407SOL    HW246058   9.575   2.227   4.483 -1.6524 -2.6231 -3.6692
13408SOL     OW46059   0.027   8.694   2.634  0.0833  0.3123 -0.2722
13408SOL    HW146060   0.105   8.664   2.679 -0.8196  0.7566  1.7223
13408SOL    HW246061   0.015   8.632   2.562 -0.5867 -2.9980  2.4315
13409SOL     OW46062   1.212   9.184   4.733 -0.2909 -0.2691 -0.1445
13409SOL    HW146063   1.263   9.176   4.813  1.6305  0.0038 -1.2752
13409SOL    HW246064   1.123   9.161   4.759  0.0696  0.7465  2.2547
13410SOL     OW46065   6.747  10.516   9.112  0.4502 -0.0056 -0.1115
13410SOL    HW146066   6.735  10.573   9.188 -1.9906 -0.9112  0.2850
13410SOL    HW246067   6.840  10.523   9.091  0.3971  3.6158  0.2536
13411SOL     OW46068   3.262   3.520   3.447  0.3675 -0.5906  0.0457
13411SOL    HW146069   3.318   3.511   3.371 -0.5064 -1.6452 -0.4983
13411SOL    HW246070   3.322   3.542   3.519  0.9779  2.5179 -1.2866
13412SOL     OW46071   0.752   2.545   8.121 -0.3623  0.8772  0.6898
13412SOL    HW146072   0.682   2.605   8.146 -0.2597  1.0489  0.5639
13412SOL    HW246073   0.714   2.491   8.051 -0.4041  0.8983  0.6964
13413SOL     OW46074   4.829   0.895   5.971 -0.1028 -1.0776  0.1584
13413SOL    HW146075   4.880   0.965   5.931 -0.8374  0.1142  1.2417
13413SOL    HW246076   4.865   0.888   6.060 -1.3681 -0.6691  0.7233
13414SOL     OW46077   6.700   5.205   9.893  0.4660  0.6549  0.0225
13414SOL    HW146078   6.618   5.249   9.916  0.4427  1.2946 -1.2109
13414SOL    HW246079   6.733   5.254   9.818  1.3844 -0.3190 -0.2275
13415SOL     OW46080   4.213   1.108   8.537  0.0277 -0.1161 -0.2832
13415SOL    HW146081   4.267   1.031   8.519 -0.1537 -0.6266  1.1774
13415SOL    HW246082   4.273   1.182   8.526  0.2131 -0.4559 -1.6764
13416SOL     OW46083   3.082   4.070   1.518  0.4741 -0.2212  0.0626
13416SOL    HW146084   3.155   4.026   1.562  1.4768  0.8512 -0.4860
13416SOL    HW246085   3.114   4.088   1.430 -0.4438  0.2995 -0.1803
13417SOL     OW46086   9.633  10.778   1.523 -0.7233 -0.1989 -0.2226
13417SOL    HW146087   9.639  10.743   1.434  0.9161 -0.5005 -0.0320
13417SOL    HW246088   9.540  10.776   1.544 -1.0802 -0.6170 -1.7326
13418SOL     OW46089   4.137  10.250   8.111 -0.0493  0.3256 -0.4331
13418SOL    HW146090   4.129  10.197   8.032  2.0749 -0.4127 -0.2194
13418SOL    HW246091   4.140  10.187   8.182 -1.4269  0.9599  0.2163
13419SOL     OW46092   8.738   3.968   2.630  0.5333  0.5436  0.4780
13419SOL    HW146093   8.733   3.951   2.724  0.2888 -0.9808  0.2265
13419SOL    HW246094   8.784   3.891   2.595  0.1839  0.8545 -0.7012
13420SOL     OW46095   5.313   0.868   2.928 -0.3728 -0.1421  0.1776
13420SOL    HW146096   5.403   0.836   2.937  0.2741  1.2959 -0.6504
13420SOL    HW246097   5.279   0.822   2.851  0.3021  0.5807 -0.5822
13421SOL     OW46098   0.530   8.282   3.981 -0.1775  0.1234  0.0201
13421SOL    HW146099   0.537   8.373   4.009  0.1493 -0.2482  1.2121
13421SOL    HW246100   0.603   8.238   4.025 -0.5947 -0.8012 -0.1860
13422SOL     OW46101   1.697  10.768   5.081  0.2144 -0.0528  0.1781
13422SOL    HW146102   1.695  10.681   5.120  0.9520  0.4163  1.2904
13422SOL    HW246103   1.724  10.826   5.152  2.0057  0.7755 -1.1079
13423SOL     OW46104   5.463   5.015   5.817 -0.6014 -0.2093  0.6235
13423SOL    HW146105   5.538   5.074   5.821 -0.4662  0.3773 -4.4524
13423SOL    HW246106   5.388   5.072   5.800 -1.0424 -1.1885 -0.8869
13424SOL     OW46107   1.519   2.316   9.294  0.3779 -0.2096  0.3805
13424SOL    HW146108   1.518   2.220   9.289 -0.6041 -0.1859  0.0259
13424SOL    HW246109   1.592   2.335   9.353  0.5093 -1.1773  0.5575
13425SOL     OW46110  10.081   2.194   6.126 -0.4768 -0.0363  0.2564
13425SOL    HW146111  10.116   2.271   6.170 -1.7711 -0.1334  1.5511
13425SOL    HW246112  10.072   2.129   6.196 -1.4887 -0.6035 -0.3748
13426SOL     OW46113   5.163   6.003   6.761  0.4470 -0.3852 -0.0372
13426SOL    HW146114   5.148   6.060   6.685  0.8484  0.3847  0.4477
13426SOL    HW246115   5.257   5.987   6.761  0.4099 -0.6145  0.1423
13427SOL     OW46116   7.529   8.841   3.351 -0.1016 -0.1716  0.0366
13427SOL    HW146117   7.547   8.906   3.419 -1.5668 -1.0038  1.2954
13427SOL    HW246118   7.437   8.819   3.363 -0.2883 -0.7074 -1.9490
13428SOL     OW46119  10.130   0.688   7.076  0.1487  0.1442  0.8628
13428SOL    HW146120  10.097   0.766   7.120  1.3143  1.2826 -0.1619
13428SOL    HW246121  10.223   0.685   7.100  0.2376 -0.6067  0.4435
13429SOL     OW46122   4.466   7.179  10.802 -0.0329 -0.4056 -0.1478
13429SOL    HW146123   4.400   7.190  10.734  1.4760  2.0629 -1.3685
13429SOL    HW246124   4.527   7.114  10.767  1.0927  1.3229 -1.5650
13430SOL     OW46125   3.632   7.883   8.304 -0.1726  0.2097  0.7109
13430SOL    HW146126   3.607   7.972   8.327 -1.6812  0.3432 -1.2101
13430SOL    HW246127   3.690   7.855   8.374 -0.2105  2.4564  1.6967
13431SOL     OW46128   8.150   7.695   9.230 -0.9267 -0.0425 -0.1057
13431SOL    HW146129   8.210   7.630   9.267 -0.4064  0.8098  0.6011
13431SOL    HW246130   8.071   7.689   9.283 -0.0221  1.4884  1.5525
13432SOL     OW46131   1.962   3.286   6.499  1.1036 -0.0022 -0.2438
13432SOL    HW146132   1.907   3.321   6.428  0.7274  0.8674  0.4612
13432SOL    HW246133   1.932   3.332   6.577  1.2043 -1.2895  0.5710
13433SOL     OW46134   3.276   9.553   4.897 -0.1731  0.0956 -0.0321
13433SOL    HW146135   3.308   9.511   4.976 -2.0999  0.1927  0.8610
13433SOL    HW246136   3.251   9.480   4.840  2.0587  0.0027 -0.9996
13434SOL     OW46137   9.200   1.906   3.295  0.1664  0.3136 -0.1628
13434SOL    HW146138   9.172   1.878   3.208  0.1194 -2.4331  0.6529
13434SOL    HW246139   9.295   1.896   3.294  0.2581  1.1060 -0.1391
13435SOL     OW46140   5.714   0.043   5.589  0.2456 -0.6562 -0.4868
13435SOL    HW146141   5.728   0.132   5.556  1.1572 -0.3826  0.5754
13435SOL    HW246142   5.690   0.056   5.681 -1.4843 -1.4313 -0.8036
13436SOL     OW46143   5.601   8.221  10.640 -0.6274 -0.8823 -0.3941
13436SOL    HW146144   5.518   8.208  10.687 -0.3941  0.7422  0.5575
13436SOL    HW246145   5.581   8.288  10.575 -0.7326 -2.5429 -2.1663
13437SOL     OW46146   2.104   7.359   4.604 -0.7363  0.2490 -0.0088
13437SOL    HW146147   2.065   7.417   4.539 -0.5553 -0.7288 -1.0288
13437SOL    HW246148   2.192   7.341   4.570 -1.1158 -1.3684 -0.2470
13438SOL     OW46149   0.965   6.234   7.398 -0.0836  0.0904 -0.3236
13438SOL    HW146150   0.964   6.330   7.403 -1.7624  0.0960 -0.3222
13438SOL    HW246151   0.876   6.210   7.373 -0.0568 -1.5377  0.9301
13439SOL     OW46152   4.739   0.561   5.884  0.9216 -0.1757 -0.5553
13439SOL    HW146153   4.792   0.505   5.828  1.2125 -1.5561  1.0308
13439SOL    HW246154   4.656   0.514   5.896  1.1842 -0.3508  0.8327
13440SOL     OW46155   7.909   5.151   4.960  0.2417 -0.2450  0.0006
13440SOL    HW146156   7.996   5.186   4.947  0.9367 -2.1881 -1.0168
13440SOL    HW246157   7.868   5.154   4.874 -0.1116 -0.7742  0.1393
13441SOL     OW46158   0.367   4.484   5.358 -0.4748  0.5723 -0.3532
13441SOL    HW146159   0.434   4.541   5.397  0.0831 -0.7228  0.6766
13441SOL    HW246160   0.378   4.494   5.264  0.8179  0.8122 -0.1910
13442SOL     OW46161   9.586   2.528   0.137  0.1219 -0.1439 -0.1367
13442SOL    HW146162   9.572   2.568   0.223 -0.7686  1.3498 -0.9544
13442SOL    HW246163   9.503   2.486   0.117 -0.6342  1.8488 -1.4356
13443SOL     OW46164   3.922   1.785   9.877 -0.2089  0.3621  0.5744
13443SOL    HW146165   3.956   1.699   9.853 -0.5282 -0.1805  1.9908
13443SOL    HW246166   3.827   1.778   9.862 -0.2194  0.5068  0.5692
13444SOL     OW46167  10.319   6.322   3.639  0.1893 -0.3721 -0.6550
13444SOL    HW146168  10.244   6.368   3.675  0.3506  0.0808 -0.8935
13444SOL    HW246169  10.367   6.289   3.715  0.2416  0.1240 -0.4708
13445SOL     OW46170  10.422   5.563   0.500  0.4433  0.0467  0.2685
13445SOL    HW146171  10.501   5.570   0.553  0.0902 -1.5069  1.0472
13445SOL    HW246172  10.408   5.469   0.489 -0.2330  0.3001 -1.4935
13446SOL     OW46173   7.586   8.388   2.505 -0.1781  0.4998 -0.3144
13446SOL    HW146174   7.560   8.319   2.443 -0.8646  1.5940 -1.3121
13446SOL    HW246175   7.638   8.449   2.452 -3.0460  2.9121 -0.6845
13447SOL     OW46176   8.634   2.586   9.605 -0.3844  0.6905  0.2864
13447SOL    HW146177   8.721   2.554   9.583 -0.2211  1.4891 -0.2839
13447SOL    HW246178   8.639   2.605   9.699  0.5184  2.0573 -0.0049
13448SOL     OW46179   4.409   0.850   2.210 -0.1277  0.6275  0.3888
13448SOL    HW146180   4.448   0.928   2.249 -0.3402  1.4053 -0.9027
13448SOL    HW246181   4.482   0.790   2.198 -0.2247 -0.1095  2.9813
13449SOL     OW46182   0.460   7.898   0.834 -0.4535 -0.3432  0.0192
13449SOL    HW146183   0.381   7.868   0.878 -0.7655 -0.0719 -0.3509
13449SOL    HW246184   0.518   7.927   0.905 -0.5809 -0.7818  0.3057
13450SOL     OW46185   7.472   1.989   7.292  0.4217  0.5583 -0.6973
13450SOL    HW146186   7.412   2.032   7.231  1.0471  3.7261  0.7112
13450SOL    HW246187   7.485   2.054   7.362 -0.2892 -2.7989  2.8897
13451SOL     OW46188   5.432   3.233   7.047 -0.5342 -0.2453  0.1257
13451SOL    HW146189   5.355   3.206   6.996  0.7161  2.0368 -3.3587
13451SOL    HW246190   5.449   3.323   7.019  1.8325  0.2884  2.8250
13452SOL     OW46191   8.129   2.148   4.335  0.3795 -0.1919  0.2273
13452SOL    HW146192   8.200   2.083   4.337  0.3514 -0.2743 -0.9334
13452SOL    HW246193   8.049   2.096   4.329  0.3543 -0.0556 -0.6647
13453SOL     OW46194  10.840   1.208   2.374 -0.2375  0.3038 -0.1170
13453SOL    HW146195  10.873   1.288   2.332  0.2574  0.5144  0.6494
13453SOL    HW246196  10.914   1.147   2.372 -0.0783  0.4556  0.7921
13454SOL     OW46197   8.472   5.723   4.762 -0.6520  0.4889  0.7288
13454SOL    HW146198   8.433   5.636   4.771 -0.8459  0.4307 -0.5303
13454SOL    HW246199   8.412   5.771   4.705  1.1630  0.3124 -1.4844
13455SOL     OW46200   5.272   0.093  10.543 -0.7507 -0.0246  0.2297
13455SOL    HW146201   5.367   0.090  10.536 -0.8375 -0.7779 -0.7724
13455SOL    HW246202   5.240   0.045  10.466 -1.9334 -0.0648  0.7221
13456SOL     OW46203   8.029   2.189   8.063  0.2284 -0.2457  0.1021
13456SOL    HW146204   7.945   2.144   8.063  0.5181 -0.8056  0.7674
13456SOL    HW246205   8.049   2.203   7.970 -0.3995 -0.4788 -0.0716
13457SOL     OW46206   8.852   9.595   4.914  0.7528  0.3932 -0.0611
13457SOL    HW146207   8.901   9.675   4.894  0.0383  0.4659 -1.6877
13457SOL    HW246208   8.859   9.586   5.009  2.5600  1.2575 -0.0638
13458SOL     OW46209   1.517   5.558   0.907 -0.5660 -0.0774 -0.3108
13458SOL    HW146210   1.492   5.589   0.994 -1.1865 -1.3350 -0.0082
13458SOL    HW246211   1.533   5.464   0.919  0.3842 -0.0640 -1.3403
13459SOL     OW46212   8.222   2.160   3.809  0.6527  0.0251 -0.8583
13459SOL    HW146213   8.262   2.144   3.894 -0.7213  0.5560 -0.0739
13459SOL    HW246214   8.263   2.097   3.751  1.6516 -0.3192  0.1846
13460SOL     OW46215   5.416   2.509  10.483  0.0275 -0.9137  0.1424
13460SOL    HW146216   5.343   2.559  10.520  0.0172 -1.0213  0.2695
13460SOL    HW246217   5.392   2.417  10.499 -0.0973 -0.9711 -0.3525
13461SOL     OW46218   7.440   2.184   8.444  0.4777  0.0034 -0.7187
13461SOL    HW146219   7.368   2.150   8.391 -2.1561  1.8211  1.4090
13461SOL    HW246220   7.464   2.267   8.403 -0.6304  0.7512  0.0864
13462SOL     OW46221   3.596   2.071   3.739  0.0699  0.2086  0.1699
13462SOL    HW146222   3.523   2.090   3.679 -1.6098 -1.0422  1.7043
13462SOL    HW246223   3.662   2.031   3.683 -0.1908  1.7946 -1.3614
13463SOL     OW46224   7.900   2.393   2.714  0.0376  0.0098  0.5153
13463SOL    HW146225   7.992   2.406   2.692 -0.4450 -1.0976 -2.5429
13463SOL    HW246226   7.894   2.300   2.736 -0.5763 -0.2672 -0.7636
13464SOL     OW46227   8.321   4.711  10.894 -0.5501  0.3976  0.3306
13464SOL    HW146228   8.343   4.802  10.912  0.0117  0.2724  0.3020
13464SOL    HW246229   8.290   4.711  10.803 -0.8386  0.6056  0.4282
13465SOL     OW46230   1.048  10.013   1.458  0.3018  0.1746  0.0677
13465SOL    HW146231   1.123  10.012   1.518  1.4040  0.8475 -1.2369
13465SOL    HW246232   1.082  10.056   1.379 -0.6301 -2.0782 -1.6347
13466SOL     OW46233   6.104   1.369   3.747 -0.0165  0.0636 -0.3066
13466SOL    HW146234   6.172   1.315   3.787 -0.8278 -0.4942  0.3457
13466SOL    HW246235   6.132   1.379   3.656  1.4437  0.6835  0.1719
13467SOL     OW46236   3.224   3.949   6.273 -0.0979 -0.0017 -0.7107
13467SOL    HW146237   3.148   3.901   6.240 -0.2861 -0.7333  0.7226
13467SOL    HW246238   3.228   4.028   6.218 -0.0619 -1.3956 -2.8168
13468SOL     OW46239   3.542   6.351   8.488  0.0614 -0.7565  0.1041
13468SOL    HW146240   3.484   6.427   8.489  1.9486  0.7510  1.1049
13468SOL    HW246241   3.513   6.299   8.563 -0.7186 -0.6082 -0.0860
13469SOL     OW46242   6.764   0.057   7.161  0.1902  0.3277 -0.3555
13469SOL    HW146243   6.682   0.013   7.184  1.2329 -1.1821  0.6632
13469SOL    HW246244   6.815  -0.011   7.116  1.1501  1.0467 -0.3686
13470SOL     OW46245   5.728   2.043   1.801 -0.6185 -0.3899 -0.5752
13470SOL    HW146246   5.808   2.082   1.765 -0.7498 -0.3738 -0.8555
13470SOL    HW246247   5.669   2.117   1.814 -0.5999 -0.4060 -0.4031
13471SOL     OW46248   5.400   5.299   2.762  0.4633 -0.2253 -0.6911
13471SOL    HW146249   5.372   5.390   2.776  1.5306  0.1180 -0.7370
13471SOL    HW246250   5.488   5.306   2.725  0.6851 -1.2907 -0.3952
13472SOL     OW46251  10.541   5.878   8.472 -0.3605 -0.5812  0.5334
13472SOL    HW146252  10.597   5.831   8.534  0.8273  1.6967  1.2815
13472SOL    HW246253  10.457   5.887   8.518  0.5561  1.2320  1.9854
13473SOL     OW46254   2.226   0.981   4.405 -0.1799  0.6565  0.1285
13473SOL    HW146255   2.134   0.978   4.429  0.1017 -0.7707  1.1316
13473SOL    HW246256   2.226   1.011   4.314 -1.8396 -2.1358 -0.9098
13474SOL     OW46257   5.048   8.672   8.198 -0.6375  0.4300 -0.2502
13474SOL    HW146258   5.028   8.744   8.258  0.3676 -0.5987  1.3958
13474SOL    HW246259   5.107   8.615   8.247 -1.4408 -1.5668 -1.4672
13475SOL     OW46260  10.427   4.787  10.148  0.8131 -0.0903  0.0655
13475SOL    HW146261  10.498   4.770  10.086  0.0271 -1.5477 -0.4818
13475SOL    HW246262  10.347   4.779  10.096  0.1961  0.3778  0.9181
13476SOL     OW46263   6.069   6.424   3.289 -0.1252 -0.4251 -0.3390
13476SOL    HW146264   6.098   6.467   3.209 -0.6472  0.4165 -0.0954
13476SOL    HW246265   6.107   6.337   3.285  0.6111 -0.0853 -1.0606
13477SOL     OW46266   0.406   9.608  10.288 -0.4790  0.1404  0.7385
13477SOL    HW146267   0.317   9.582  10.309  0.0631 -1.4785  1.1451
13477SOL    HW246268   0.432   9.550  10.216  0.3677  0.3487  0.8660
13478SOL     OW46269   3.731   8.515   1.004 -0.1586  0.3585 -0.1827
13478SOL    HW146270   3.642   8.493   1.033 -0.8974  2.6320 -0.5535
13478SOL    HW246271   3.743   8.463   0.924 -2.7023  2.7041 -2.3120
13479SOL     OW46272   6.797   2.775   2.978  0.4075 -0.1093 -0.1099
13479SOL    HW146273   6.719   2.719   2.974 -2.0621  2.8977  1.8465
13479SOL    HW246274   6.856   2.729   3.037 -1.1550 -1.0888  0.7686
13480SOL     OW46275   6.638   1.131   9.585  0.1831  0.1628  0.2465
13480SOL    HW146276   6.566   1.073   9.610 -0.1890 -0.3731 -1.8866
13480SOL    HW246277   6.626   1.209   9.639 -1.4501 -0.2888  0.5920
13481SOL     OW46278  10.628   2.827  10.585  0.0296  0.3239 -0.8405
13481SOL    HW146279  10.629   2.906  10.639  0.8091 -1.6752  2.3707
13481SOL    HW246280  10.543   2.787  10.603 -0.7664  0.8172 -3.2009
13482SOL     OW46281   6.826   7.139   3.531 -0.4074 -0.0415  0.2691
13482SOL    HW146282   6.911   7.101   3.507  0.8134  2.2396  0.7518
13482SOL    HW246283   6.780   7.067   3.574  1.6689 -1.0720  0.9310
13483SOL     OW46284   7.808   2.301   1.616 -0.2142  0.3634 -0.0499
13483SOL    HW146285   7.716   2.318   1.640 -0.1949  0.8347 -0.2806
13483SOL    HW246286   7.838   2.237   1.680 -1.3364 -1.4815 -1.2537
13484SOL     OW46287   8.659   3.458   7.027 -0.1447  0.0721 -0.4430
13484SOL    HW146288   8.701   3.441   6.943 -0.5796 -0.6976 -0.5169
13484SOL    HW246289   8.593   3.525   7.008 -1.1357 -1.0419 -1.0014
13485SOL     OW46290   6.740   3.002   8.777  0.5415 -0.2788  0.3885
13485SOL    HW146291   6.692   3.041   8.850  0.0943  0.0771 -0.0854
13485SOL    HW246292   6.829   2.988   8.810  0.0116 -1.3413  1.4240
13486SOL     OW46293   4.354   4.193   8.013 -0.2412  0.5414 -0.2889
13486SOL    HW146294   4.365   4.129   7.942 -0.8433  0.9309 -0.7422
13486SOL    HW246295   4.260   4.210   8.016 -0.0345  1.8301 -0.5584
13487SOL     OW46296   1.686   4.495   8.349  0.7425 -0.0564 -0.1742
13487SOL    HW146297   1.710   4.488   8.441  4.2475 -1.2589 -1.0200
13487SOL    HW246298   1.658   4.407   8.325  2.8407 -0.5860 -0.8831
13488SOL     OW46299   5.868   7.211   9.511 -0.0990 -0.6003  0.0074
13488SOL    HW146300   5.875   7.304   9.533 -0.3189 -1.0053  1.9794
13488SOL    HW246301   5.807   7.208   9.437  0.6383  0.8800 -0.6925
13489SOL     OW46302   6.368   1.675   4.767  0.5370 -0.3235  0.0339
13489SOL    HW146303   6.419   1.665   4.687 -0.8236  1.3242 -1.1147
13489SOL    HW246304   6.279   1.690   4.737  0.1015  1.0695  1.8417
13490SOL     OW46305   5.601   8.531   7.199  0.1080 -0.1937  0.2801
13490SOL    HW146306   5.524   8.476   7.193  0.4356 -0.4630 -2.7521
13490SOL    HW246307   5.671   8.472   7.226 -0.3030 -0.3719  0.9887
13491SOL     OW46308   7.482   5.164   3.570 -0.2132  0.7549 -0.8231
13491SOL    HW146309   7.552   5.216   3.609 -2.2682  3.7005 -0.7189
13491SOL    HW246310   7.527   5.094   3.524  2.7720  2.2704 -0.4679
13492SOL     OW46311   4.403   1.097   7.293 -0.4336 -0.2792 -0.6817
13492SOL    HW146312   4.418   1.095   7.388 -0.6783 -0.9527 -0.6534
13492SOL    HW246313   4.347   1.021   7.276  1.1926 -1.3211 -1.6409
13493SOL     OW46314   0.576   7.155  10.064  0.7104 -0.9991  0.5118
13493SOL    HW146315   0.520   7.182   9.991  1.6454 -1.6403 -0.4719
13493SOL    HW246316   0.573   7.229  10.125 -1.2633 -1.0605  0.5517
13494SOL     OW46317   1.100   5.265  10.873 -0.0924 -0.2521 -0.3361
13494SOL    HW146318   1.192   5.246  10.893 -0.5015 -0.5867  1.3724
13494SOL    HW246319   1.074   5.197  10.811  0.6017 -0.6505 -0.2023
13495SOL     OW46320   9.940   0.278   0.844 -0.1480 -0.1038  0.2369
13495SOL    HW146321   9.872   0.305   0.783  0.2266  2.3275  0.8022
13495SOL    HW246322   9.914   0.316   0.928  2.0804  1.3573  0.3695
13496SOL     OW46323   0.173   3.913   5.852 -0.1516  0.3758 -0.5358
13496SOL    HW146324   0.245   3.912   5.789 -0.5108  3.0777 -1.0992
13496SOL    HW246325   0.214   3.939   5.934 -0.2332  0.2634 -0.4598
13497SOL     OW46326   2.147   0.565  10.510 -0.9089  0.3572  0.2340
13497SOL    HW146327   2.168   0.620  10.585 -0.6397  0.2212  0.2595
13497SOL    HW246328   2.084   0.501  10.543 -0.0904 -0.2884  0.5838
13498SOL     OW46329   4.541   7.066   4.311 -0.2661 -0.0622 -0.0468
13498SOL    HW146330   4.469   7.007   4.288 -0.4026 -0.9771  2.4776
13498SOL    HW246331   4.573   7.034   4.395  0.6343  2.5801  0.7093
13499SOL     OW46332   9.106   5.094   2.310 -0.3732  0.1095 -0.1012
13499SOL    HW146333   9.195   5.094   2.275 -0.3007  1.3150  0.0435
13499SOL    HW246334   9.115   5.128   2.399 -0.8281 -0.9964  0.3956
13500SOL     OW46335   0.168   8.898   2.124 -0.1598 -0.6910 -0.8484
13500SOL    HW146336   0.177   8.992   2.135  0.3691 -0.9734  1.5122
13500SOL    HW246337   0.073   8.882   2.127 -0.1716 -0.5162  2.0872
13501SOL     OW46338   4.805  10.581   5.143  0.1910 -0.0344 -0.6580
13501SOL    HW146339   4.893  10.547   5.129  0.9902  1.1975  1.0254
13501SOL    HW246340   4.794  10.582   5.239 -1.3268  0.6431 -0.8022
13502SOL     OW46341   9.353   1.400   7.463  0.0750  0.1672  0.4734
13502SOL    HW146342   9.442   1.370   7.482 -0.2498 -1.6907 -0.6996
13502SOL    HW246343   9.296   1.331   7.497 -0.9009  1.0944  0.7687
13503SOL     OW46344   5.288   9.808   4.445 -0.7810  0.1836 -0.0900
13503SOL    HW146345   5.375   9.837   4.418 -0.8773  0.6946  0.1405
13503SOL    HW246346   5.303   9.722   4.485 -0.7307 -0.9665 -2.4227
13504SOL     OW46347   8.885   2.809   3.402 -0.2811 -0.2403  0.0263
13504SOL    HW146348   8.896   2.787   3.309  1.4715 -0.6463  0.2979
13504SOL    HW246349   8.917   2.899   3.409  2.7811 -1.2901  0.7588
13505SOL     OW46350   0.233   0.323   0.208 -0.6395  0.0312 -0.2236
13505SOL    HW146351   0.310   0.331   0.153 -0.6043 -0.7836 -0.3060
13505SOL    HW246352   0.174   0.266   0.159 -0.7992 -0.3271  0.3702
13506SOL     OW46353   9.038   3.444   6.347 -0.8023  0.2131  0.5750
13506SOL    HW146354   8.982   3.384   6.297 -0.0486 -1.0561  1.1987
13506SOL    HW246355   9.016   3.426   6.438 -0.5074  0.8467  0.7756
13507SOL     OW46356   5.349   4.342   1.821  0.2169 -0.0618  0.5943
13507SOL    HW146357   5.427   4.368   1.870 -0.4022  3.4411 -0.0341
13507SOL    HW246358   5.285   4.316   1.888  0.6168  0.9474  1.3803
13508SOL     OW46359   1.136   7.396   5.919 -0.1437  0.2494  0.2656
13508SOL    HW146360   1.214   7.378   5.971  0.3475  0.0055 -0.5490
13508SOL    HW246361   1.140   7.334   5.847  0.6674  2.4243 -1.6569
13509SOL     OW46362   9.663   3.317   4.988  0.0601 -0.2058 -0.2147
13509SOL    HW146363   9.667   3.407   4.954  1.3843 -0.1147  0.1060
13509SOL    HW246364   9.748   3.279   4.963  1.2266 -0.0770  3.0807
13510SOL     OW46365   2.882   9.757   7.097  0.5651 -0.4423 -0.7793
13510SOL    HW146366   2.891   9.662   7.109 -1.6602 -0.5693  0.2844
13510SOL    HW246367   2.951   9.795   7.152 -0.1086 -1.4120  0.7884
13511SOL     OW46368   5.301   7.882  10.701 -0.5806  0.6638  0.9345
13511SOL    HW146369   5.344   7.923  10.626 -0.0461  1.1520  1.4982
13511SOL    HW246370   5.359   7.810  10.725 -0.7825  0.4694  0.8476
13512SOL     OW46371  10.160   0.853   9.470 -0.1673 -0.2933  0.0805
13512SOL    HW146372  10.230   0.852   9.535 -0.9490  1.6151  1.0585
13512SOL    HW246373  10.122   0.766   9.474  1.4180 -1.0014  0.3398
13513SOL     OW46374   2.193   4.268   0.725  0.0844 -0.7191 -0.1594
13513SOL    HW146375   2.258   4.275   0.655  0.1134 -0.6582 -0.1270
13513SOL    HW246376   2.238   4.302   0.802 -0.1090 -0.3286 -0.2176
13514SOL     OW46377   4.989   8.663   1.822 -0.3739  0.3158 -0.9831
13514SOL    HW146378   4.924   8.624   1.881 -0.5483  1.8689 -0.0558
13514SOL    HW246379   4.939   8.689   1.745 -0.2484 -1.2566 -1.6102
13515SOL     OW46380   5.714   7.104   2.568  0.5540 -0.0542 -0.3194
13515SOL    HW146381   5.725   7.187   2.615 -1.0002 -0.3117  0.5822
13515SOL    HW246382   5.800   7.085   2.531  0.9338  2.0016 -0.6238
13516SOL     OW46383   0.151   8.080   2.562  0.2064  0.1734 -0.1098
13516SOL    HW146384   0.140   8.068   2.467 -0.7558 -0.4776  0.0693
13516SOL    HW246385   0.076   8.035   2.600  2.5226 -2.9270  1.1919
13517SOL     OW46386   1.681   7.376   7.564 -0.3059 -0.2362  0.1631
13517SOL    HW146387   1.609   7.403   7.506 -1.7256 -1.5501  1.2463
13517SOL    HW246388   1.664   7.422   7.646 -0.3796 -1.1486  0.6745
13518SOL     OW46389  10.196   3.552  10.838 -0.1846 -0.3193 -0.0463
13518SOL    HW146390  10.226   3.468  10.804 -1.9105 -0.6309 -0.8879
13518SOL    HW246391  10.113   3.568  10.794  0.4735  2.2299 -0.5056
13519SOL     OW46392  10.456  10.329   1.561  0.5591  0.3731 -0.1362
13519SOL    HW146393  10.455  10.285   1.476 -0.5324 -0.6269  0.3745
13519SOL    HW246394  10.451  10.422   1.540  1.0970  0.1815 -1.1800
13520SOL     OW46395   0.370   0.741   7.550  0.2380 -0.1268  0.5241
13520SOL    HW146396   0.364   0.772   7.459 -1.1356  0.3788  0.7689
13520SOL    HW246397   0.360   0.646   7.543  0.7159 -0.1512  0.1031
13521SOL     OW46398   3.842  10.069   0.397  0.2224  0.0177  0.1709
13521SOL    HW146399   3.927  10.041   0.430  0.3637  1.2927  0.9323
13521SOL    HW246400   3.784   9.996   0.417  1.0582 -0.7350 -0.0672
13522SOL     OW46401   8.910   3.447   0.155  0.0448  0.1344 -0.3310
13522SOL    HW146402   8.891   3.432   0.248  0.6404  1.3020 -0.0006
13522SOL    HW246403   8.998   3.409   0.142  0.5456  1.1841 -0.0716
13523SOL     OW46404   7.287   8.388   8.404  0.3332 -0.2226 -0.2153
13523SOL    HW146405   7.245   8.392   8.489  2.2969  0.6605  0.7755
13523SOL    HW246406   7.215   8.390   8.341 -1.0818  1.3125  1.3719
13524SOL     OW46407  10.258   6.965   9.593  0.1961  0.3129  0.3064
13524SOL    HW146408  10.275   7.042   9.539  1.5603  1.4704  2.2592
13524SOL    HW246409  10.187   6.992   9.652 -1.7570 -1.1542 -1.1850
13525SOL     OW46410  10.016   7.866   4.637 -0.4424  0.5157  0.0462
13525SOL    HW146411   9.995   7.818   4.557 -2.1960  0.4596  0.5073
13525SOL    HW246412   9.987   7.955   4.620 -1.3716  0.3711  0.8160
13526SOL     OW46413   9.491   2.376   7.302  0.4383 -0.1207 -0.1983
13526SOL    HW146414   9.566   2.329   7.338  0.7812 -0.8916 -1.8501
13526SOL    HW246415   9.515   2.468   7.306  0.4851 -0.1637  1.4273
13527SOL     OW46416   9.367   4.690   8.590  0.8538 -0.2646 -0.2080
13527SOL    HW146417   9.385   4.724   8.502  0.2885 -1.0726 -0.6427
13527SOL    HW246418   9.454   4.677   8.628  1.0918  0.8774 -0.3301
13528SOL     OW46419  10.053   5.414   4.359 -0.7477  0.3522  0.1897
13528SOL    HW146420  10.077   5.322   4.371 -2.3076  0.1419  2.2294
13528SOL    HW246421  10.040   5.448   4.447 -1.0691  2.3189 -0.5515
13529SOL     OW46422  10.406   7.861   9.423  0.7394 -0.2721 -0.6435
13529SOL    HW146423  10.489   7.830   9.389 -0.2095 -0.2921 -3.1994
13529SOL    HW246424  10.346   7.856   9.348 -1.3677  0.4609  0.8853
13530SOL     OW46425   8.239   0.162   5.837  0.0916 -0.3071  0.1051
13530SOL    HW146426   8.280   0.119   5.762  0.9073  0.0478  0.3338
13530SOL    HW246427   8.191   0.093   5.882 -0.2079 -0.5729 -0.6083
13531SOL     OW46428   3.327   7.058   9.385 -0.0910  0.3949  0.3788
13531SOL    HW146429   3.404   7.113   9.369 -1.2067  1.9439  0.1284
13531SOL    HW246430   3.295   7.036   9.298 -0.6006  0.7448  0.4724
13532SOL     OW46431   1.343   6.200   2.429  0.1274  0.8041  0.0791
13532SOL    HW146432   1.431   6.169   2.449 -0.1904  1.3719  2.6423
13532SOL    HW246433   1.295   6.192   2.511 -2.7933 -1.1650 -1.6195
13533SOL     OW46434  10.447   7.946   9.971  0.3362 -0.6086  0.5504
13533SOL    HW146435  10.354   7.928   9.955  0.5020 -1.3319  0.3565
13533SOL    HW246436  10.490   7.927   9.888  0.5981  0.1903  0.5026
13534SOL     OW46437   6.942   3.468   7.886 -0.2532 -0.0721  0.3810
13534SOL    HW146438   6.940   3.375   7.864 -2.7496 -0.1787  0.8526
13534SOL    HW246439   7.003   3.506   7.822  2.3500 -2.2566  1.3685
13535SOL     OW46440   1.430   5.722   3.190 -0.1090  0.4444 -0.2406
13535SOL    HW146441   1.510   5.763   3.157  1.3927 -1.7375  0.4423
13535SOL    HW246442   1.439   5.727   3.285  0.0670 -1.2496 -0.1412
13536SOL     OW46443   5.189  10.891   8.340 -0.0731  0.1528 -0.6892
13536SOL    HW146444   5.279  10.876   8.312  0.3015 -1.0086  0.9916
13536SOL    HW246445   5.196  10.910   8.433 -1.5628  0.2630 -0.5797
13537SOL     OW46446   3.221   7.017  10.443 -0.1260 -0.2664  0.1816
13537SOL    HW146447   3.274   7.037  10.366  0.4038  0.8830  0.8171
13537SOL    HW246448   3.244   6.928  10.466 -0.1352 -0.5510 -0.8571
13538SOL     OW46449  10.118   8.763   9.403  0.2354 -0.3803  0.7175
13538SOL    HW146450  10.154   8.788   9.488 -0.2647 -0.8710  1.0808
13538SOL    HW246451  10.096   8.670   9.413  2.6008 -1.1999 -0.7740
13539SOL     OW46452   7.877   2.014   4.221 -0.1198  0.3671  0.0952
13539SOL    HW146453   7.821   1.954   4.171 -0.7896  0.5670  0.5812
13539SOL    HW246454   7.885   2.091   4.165  0.9028 -0.2361 -0.6160
13540SOL     OW46455   1.934   2.504   7.955  0.6884 -0.2577 -0.7650
13540SOL    HW146456   1.974   2.586   7.985  0.2196 -0.6664  1.0985
13540SOL    HW246457   1.841   2.524   7.948  0.3533 -0.9740  1.1290
13541SOL     OW46458   2.130   9.008   4.186  0.0094 -0.2931  0.3028
13541SOL    HW146459   2.217   9.014   4.225  0.1066 -1.7306  0.3611
13541SOL    HW246460   2.074   8.978   4.257 -0.7301  1.4253  0.4875
13542SOL     OW46461   7.009   5.387  10.413 -0.5957  0.3451  0.4949
13542SOL    HW146462   7.067   5.463  10.421  0.5353 -0.6523  2.7235
13542SOL    HW246463   7.017   5.342  10.497  0.0578 -3.1319 -1.2252
13543SOL     OW46464   6.716   7.801   6.956 -0.3893 -0.1807  0.4102
13543SOL    HW146465   6.762   7.860   7.017 -0.3943 -0.6060  0.8332
13543SOL    HW246466   6.716   7.716   7.001 -0.6295 -0.4366 -0.0714
13544SOL     OW46467   0.334   6.533   0.458  0.1994  0.0729  0.2397
13544SOL    HW146468   0.376   6.462   0.506 -1.2841 -0.4696  0.7880
13544SOL    HW246469   0.404   6.597   0.445  1.1219 -0.6572  1.3616
13545SOL     OW46470   5.113   5.743   5.089  0.8169 -0.4057  0.0568
13545SOL    HW146471   5.091   5.714   5.000 -1.2056  0.1591  0.3193
13545SOL    HW246472   5.208   5.755   5.087  0.8249 -0.3570 -2.0494
13546SOL     OW46473   1.823   1.290   1.018 -0.0033  0.1861 -0.1524
13546SOL    HW146474   1.784   1.207   1.045 -0.5547  0.2284 -0.7936
13546SOL    HW246475   1.893   1.265   0.957 -1.0882  0.2434 -1.4453
13547SOL     OW46476   3.130   5.842  10.296  0.6387  0.9210  0.2714
13547SOL    HW146477   3.086   5.759  10.279 -0.6861  1.6551 -0.0666
13547SOL    HW246478   3.068   5.891  10.350  0.9606  2.0609 -0.3580
13548SOL     OW46479   9.895   0.377   6.325 -1.0247 -0.5404  0.0047
13548SOL    HW146480   9.864   0.291   6.354 -5.4367  0.4344 -1.0733
13548SOL    HW246481   9.894   0.431   6.403 -3.9212 -0.1898 -0.1605
13549SOL     OW46482   8.822   3.464   1.197 -0.0894  0.2913 -0.6536
13549SOL    HW146483   8.870   3.415   1.264 -0.2115  0.2249 -0.6148
13549SOL    HW246484   8.886   3.526   1.163  0.1177 -0.0218 -0.8372
13550SOL     OW46485   6.397  10.403   7.200 -0.4075  0.2266  0.1439
13550SOL    HW146486   6.482  10.447   7.197 -0.3584  0.1785  0.7235
13550SOL    HW246487   6.384  10.372   7.110  0.4364 -0.2201  0.1578
13551SOL     OW46488   5.840   6.568   3.267 -0.0993  0.4071  0.1241
13551SOL    HW146489   5.894   6.495   3.296 -2.1850 -1.5954 -0.7494
13551SOL    HW246490   5.899   6.644   3.271  2.3132 -1.3577  0.6050
13552SOL     OW46491   4.206   1.858   1.031 -0.4795 -0.0466  0.1010
13552SOL    HW146492   4.192   1.878   1.124 -0.0239 -0.0568  0.1750
13552SOL    HW246493   4.227   1.943   0.991 -0.9603  0.0034 -0.0492
13553SOL     OW46494   6.298   6.574   2.456  0.9576  0.0800 -0.1835
13553SOL    HW146495   6.265   6.609   2.373  0.8278 -0.4936 -0.3793
13553SOL    HW246496   6.275   6.481   2.454 -1.5646  0.5561  1.7050
13554SOL     OW46497  10.827   4.943   3.080  0.1622  0.7647 -0.0900
13554SOL    HW146498  10.799   4.852   3.096 -0.5612  0.8310 -0.9065
13554SOL    HW246499  10.756   4.996   3.117  1.4120  1.0841  2.0239
13555SOL     OW46500   7.727   5.207   7.854 -0.2908  0.0004 -0.4138
13555SOL    HW146501   7.701   5.279   7.911  1.8390  1.0796 -0.7160
13555SOL    HW246502   7.671   5.216   7.776 -1.4085  0.0796  0.3703
13556SOL     OW46503   8.134  10.219   7.672  0.2864  0.8333  0.3335
13556SOL    HW146504   8.065  10.211   7.606 -0.8389  1.7192  1.3475
13556SOL    HW246505   8.152  10.130   7.700 -1.4483  0.6387  0.9988
13557SOL     OW46506   5.462   6.938  10.745  0.4255  0.4904 -0.7046
13557SOL    HW146507   5.436   7.028  10.725 -0.2730 -0.1022 -2.7812
13557SOL    HW246508   5.472   6.897  10.659  2.0777 -1.0603  0.1631
13558SOL     OW46509   7.723   6.774  10.772 -0.7040  0.2351 -0.5345
13558SOL    HW146510   7.669   6.767  10.851 -0.4244 -0.6363 -0.4061
13558SOL    HW246511   7.684   6.845  10.722 -1.9784 -0.3853 -0.4463
13559SOL     OW46512   0.839   5.622   2.370  0.3868 -0.0061  0.0674
13559SOL    HW146513   0.848   5.681   2.444  0.1710 -1.5099  1.3457
13559SOL    HW246514   0.928   5.604   2.341  0.4640  0.6801 -0.1415
13560SOL     OW46515   0.070   4.672   7.439  0.7254  0.4884  0.3326
13560SOL    HW146516   0.058   4.591   7.388 -0.2629 -0.2058  1.6140
13560SOL    HW246517   0.148   4.712   7.400 -1.1189  1.1135 -3.1426
13561SOL     OW46518   2.096   6.893   5.042  0.3676  0.4096 -0.1732
13561SOL    HW146519   2.121   6.848   4.962  1.8254  0.2104  0.3644
13561SOL    HW246520   2.026   6.952   5.015  0.8067  0.3257 -1.5876
13562SOL     OW46521   4.832   9.461   6.479 -0.2429  0.1732 -0.3830
13562SOL    HW146522   4.888   9.384   6.467  0.2959  0.5990 -0.6265
13562SOL    HW246523   4.757   9.445   6.422  0.7650  0.6864 -1.9104
13563SOL     OW46524   6.301   7.819   2.841 -0.2589  0.2421 -0.4572
13563SOL    HW146525   6.294   7.729   2.872 -0.3416  0.4816  0.2430
13563SOL    HW246526   6.394   7.840   2.846 -0.1797  0.0507 -1.0548
13564SOL     OW46527   5.226   2.582   7.867  0.0824 -0.4203  0.2834
13564SOL    HW146528   5.169   2.659   7.855 -0.3337 -1.0463 -2.3453
13564SOL    HW246529   5.306   2.618   7.906 -1.1689  0.8409  1.8850
13565SOL     OW46530   1.609   7.201   2.936  0.2829 -0.5467  0.8054
13565SOL    HW146531   1.688   7.248   2.910 -1.0673  1.6358  0.3216
13565SOL    HW246532   1.563   7.184   2.853 -0.5652 -0.1964  1.1908
13566SOL     OW46533   6.181   3.543   5.858  0.4884  0.4683  0.1530
13566SOL    HW146534   6.197   3.449   5.863  1.7377  0.6099 -0.6758
13566SOL    HW246535   6.266   3.583   5.877 -0.1098  1.4444  0.8527
13567SOL     OW46536   6.040   4.531   2.810 -0.2462 -0.1593  0.1257
13567SOL    HW146537   6.043   4.604   2.872 -0.6971  0.0338 -0.0703
13567SOL    HW246538   5.975   4.559   2.744 -0.5798 -0.8258  0.1666
13568SOL     OW46539   0.884   4.772  10.901  0.2576 -0.2553 -0.8409
13568SOL    HW146540   0.979   4.770  10.911  0.1815  1.8068  0.7973
13568SOL    HW246541   0.871   4.782  10.806  1.6683 -0.1018 -1.0433
13569SOL     OW46542   4.668   0.212   5.939  0.2982  0.6434  0.1546
13569SOL    HW146543   4.626   0.135   5.977 -1.4644  2.0342  1.1656
13569SOL    HW246544   4.699   0.182   5.853 -2.7656 -0.5471 -0.6673
13570SOL     OW46545   5.181   5.289   7.707  0.0181 -0.3569  0.7165
13570SOL    HW146546   5.180   5.337   7.790  0.8680 -0.1599  0.6260
13570SOL    HW246547   5.222   5.350   7.645 -2.2152  0.2082 -0.3105
13571SOL     OW46548  10.528  10.241   6.035 -0.5371  0.4586  0.0644
13571SOL    HW146549  10.585  10.318   6.030 -1.7082  1.3396 -0.2015
13571SOL    HW246550  10.525  10.208   5.945  2.7832 -2.0961  0.7160
13572SOL     OW46551   5.714   0.217   3.143  0.2329 -0.1287 -0.0633
13572SOL    HW146552   5.674   0.235   3.058 -2.2273  0.6828  1.1464
13572SOL    HW246553   5.744   0.302   3.174 -1.1234  0.0569  0.8570
13573SOL     OW46554   1.176   8.386   0.719  0.1576 -0.2280 -0.0250
13573SOL    HW146555   1.212   8.432   0.643 -0.1449  1.0618  0.5991
13573SOL    HW246556   1.132   8.309   0.681  2.0206 -0.9139 -0.9437
13574SOL     OW46557  10.520   9.604   6.883 -0.4219 -0.2290 -0.1737
13574SOL    HW146558  10.586   9.585   6.817  0.7056  0.6575  0.6605
13574SOL    HW246559  10.454   9.657   6.837  1.3788  2.1795 -0.1745
13575SOL     OW46560   9.886   9.889   8.982  0.1951  0.3320  0.8115
13575SOL    HW146561   9.807   9.892   9.036 -0.1461  0.1730  0.3298
13575SOL    HW246562   9.887   9.973   8.937  1.9194  1.6156  3.0353
13576SOL     OW46563   5.274   1.804   4.431  0.0828 -0.4314 -0.5068
13576SOL    HW146564   5.216   1.868   4.388  0.4733 -1.2635 -2.3730
13576SOL    HW246565   5.361   1.822   4.394  0.5076 -1.0068  0.1820
13577SOL     OW46566   6.433   2.788   0.869 -0.3629 -0.2122  0.4279
13577SOL    HW146567   6.412   2.808   0.960  0.9394 -0.7101  0.8698
13577SOL    HW246568   6.475   2.702   0.873 -1.0646 -0.6306 -0.7634
13578SOL     OW46569   4.707   1.472   6.945 -0.6133  0.0880  0.1562
13578SOL    HW146570   4.657   1.417   7.005 -0.4416 -1.1398 -0.7641
13578SOL    HW246571   4.783   1.418   6.921  0.8197  1.6533  1.0094
13579SOL     OW46572   7.035   1.048   7.762 -0.0141  0.4472  0.4253
13579SOL    HW146573   6.990   1.130   7.745 -0.5846 -0.3281 -2.3296
13579SOL    HW246574   6.965   0.985   7.780  0.4301  0.5539  2.7534
13580SOL     OW46575   7.329   2.808   4.673  0.1420  0.1665 -0.0721
13580SOL    HW146576   7.372   2.830   4.590  1.5488 -1.5363  0.1320
13580SOL    HW246577   7.295   2.719   4.659  1.3517 -0.5989  1.4620
13581SOL     OW46578   9.016   4.650   6.840 -0.3389  0.1676  0.2516
13581SOL    HW146579   9.058   4.588   6.899 -0.7503  0.6933  1.1324
13581SOL    HW246580   9.046   4.736   6.871  0.6704  0.4084 -1.2945
13582SOL     OW46581   9.742  10.373   9.364 -0.0391 -0.0334  0.1400
13582SOL    HW146582   9.728  10.334   9.278  0.7570  0.5025 -0.2436
13582SOL    HW246583   9.656  10.367   9.408 -0.3745 -0.5647 -0.5784
13583SOL     OW46584   5.322  10.510   7.391  0.6612 -0.3208  0.8274
13583SOL    HW146585   5.413  10.506   7.422  0.4188  0.3053  1.6710
13583SOL    HW246586   5.272  10.540   7.467 -0.0086  0.9964 -0.0938
13584SOL     OW46587   6.386   8.338  10.573  0.0523 -0.4538 -0.9181
13584SOL    HW146588   6.477   8.367  10.564 -0.6452  1.7598 -1.2672
13584SOL    HW246589   6.365   8.350  10.665  0.1742 -1.2572 -0.7740
13585SOL     OW46590   0.194  10.723   3.086  0.0062  0.0481  0.0592
13585SOL    HW146591   0.282  10.737   3.120 -0.1296 -0.0117  0.4405
13585SOL    HW246592   0.148  10.678   3.157 -0.2475 -0.1751 -0.2467
13586SOL     OW46593   0.638  10.036   9.024 -0.0858 -0.6716  0.3472
13586SOL    HW146594   0.726  10.063   8.997 -0.3021  1.2847  1.4515
13586SOL    HW246595   0.581  10.108   8.997 -1.0484 -1.0164  1.3896
13587SOL     OW46596   4.769   5.565   0.427  0.6609 -0.0938 -0.0890
13587SOL    HW146597   4.813   5.498   0.480  3.9096  1.7333 -0.2676
13587SOL    HW246598   4.676   5.541   0.431  1.3626 -2.9750  2.1145
13588SOL     OW46599   8.671   0.235   7.893  0.0092  0.3198 -0.2943
13588SOL    HW146600   8.694   0.144   7.910 -2.2421 -0.3209 -0.2411
13588SOL    HW246601   8.708   0.254   7.807  1.1995 -0.3699  0.0541
13589SOL     OW46602  10.031   8.889   3.879  0.0598  0.4152 -0.2277
13589SOL    HW146603  10.002   8.843   3.958  2.0339 -0.9647 -0.2292
13589SOL    HW246604  10.010   8.829   3.808 -0.4170  1.0375 -0.6250
13590SOL     OW46605   8.143   4.981   9.405  0.9904  0.0551 -0.3942
13590SOL    HW146606   8.235   4.994   9.428  1.0011 -0.6406 -0.0116
13590SOL    HW246607   8.100   4.963   9.489  0.1744  2.0620 -0.3236
13591SOL     OW46608   1.965  10.760   2.649 -0.6937  0.0323 -0.1888
13591SOL    HW146609   1.878  10.740   2.685  0.1830 -0.8210  1.5690
13591SOL    HW246610   1.966  10.856   2.643 -1.0142  0.2235  1.9020
13592SOL     OW46611   5.587   4.868   4.586 -0.0937 -0.5554  0.5029
13592SOL    HW146612   5.493   4.878   4.599 -0.4390 -1.4092 -1.0777
13592SOL    HW246613   5.610   4.936   4.522  0.1488 -0.9991  0.1063
13593SOL     OW46614   0.043   8.911  10.734  0.4470  0.0342  0.1830
13593SOL    HW146615  -0.002   8.887  10.654 -0.1869  2.2142 -0.1827
13593SOL    HW246616  -0.017   8.970  10.779  0.8001 -1.0983  2.2664
13594SOL     OW46617  10.326   1.184   8.937 -0.4414 -0.1820 -0.2488
13594SOL    HW146618  10.346   1.190   8.844 -1.0604  0.6791 -0.3463
13594SOL    HW246619  10.283   1.099   8.947  2.7854 -1.9175 -0.0797
13595SOL     OW46620   0.819   7.936   8.421 -0.4948 -0.2525  0.2969
13595SOL    HW146621   0.753   7.868   8.429  0.7748 -1.5827 -0.2244
13595SOL    HW246622   0.862   7.938   8.507 -0.9147  0.3259  0.5023
13596SOL     OW46623   6.686   3.406   2.170 -0.1854 -0.2398 -0.2131
13596SOL    HW146624   6.616   3.351   2.134  0.5585 -0.3655 -1.5729
13596SOL    HW246625   6.709   3.365   2.253  0.0293 -1.7372 -0.9799
13597SOL     OW46626   4.157   9.625   4.766 -0.6902 -0.2950  0.4649
13597SOL    HW146627   4.179   9.571   4.842  1.0335 -0.1624  0.1052
13597SOL    HW246628   4.163   9.715   4.799  0.7486 -0.2080  0.0600
13598SOL     OW46629   7.523   8.424   5.545  0.5297 -0.4714 -0.2650
13598SOL    HW146630   7.470   8.389   5.474 -0.7321  1.4460 -0.3427
13598SOL    HW246631   7.459   8.447   5.613  1.2629  1.5434 -0.2033
13599SOL     OW46632   7.615   2.505   3.746  0.0946 -0.3817 -0.1429
13599SOL    HW146633   7.568   2.467   3.671 -0.8425  0.5291 -0.0514
13599SOL    HW246634   7.634   2.431   3.803  0.8787 -1.1003 -1.3064
13600SOL     OW46635   4.036   0.475   9.276 -0.2387  0.0601  0.1896
13600SOL    HW146636   3.996   0.534   9.340 -1.1306  0.7599 -0.9908
13600SOL    HW246637   3.999   0.501   9.192  1.0497 -0.7240 -0.6581
13601SOL     OW46638   9.984   2.239   0.257 -0.2457  0.3519  0.0842
13601SOL    HW146639  10.020   2.237   0.168 -1.0355 -0.6027 -0.2303
13601SOL    HW246640   9.928   2.317   0.257  0.7120  1.0681  0.1567
13602SOL     OW46641   6.777   4.214   8.257 -0.1471 -0.1360 -0.2204
13602SOL    HW146642   6.700   4.164   8.231 -0.1195  0.9006 -2.5410
13602SOL    HW246643   6.802   4.262   8.179  4.2478 -2.1364 -0.3353
13603SOL     OW46644   2.539   0.998   8.023 -0.2827 -0.2410 -0.0965
13603SOL    HW146645   2.613   1.050   7.991 -0.8421  0.0310 -1.0191
13603SOL    HW246646   2.557   0.984   8.116  0.9338 -0.2113 -0.3125
13604SOL     OW46647   4.712  10.619   0.972  0.4643 -0.3185 -0.0190
13604SOL    HW146648   4.767  10.549   1.008  0.8596  0.2503  0.5108
13604SOL    HW246649   4.775  10.681   0.933  0.1445 -0.0951 -0.1813
13605SOL     OW46650   3.886   5.484   5.045  0.7782 -0.0881  0.3814
13605SOL    HW146651   3.844   5.456   4.964  2.0886 -0.8884 -0.0475
13605SOL    HW246652   3.827   5.552   5.080  0.1586  0.2372 -1.1974
13606SOL     OW46653   1.481   3.777   4.032  0.0980  0.5162  0.6350
13606SOL    HW146654   1.480   3.714   3.960 -2.2253  0.8779  0.2797
13606SOL    HW246655   1.494   3.724   4.110 -0.7732 -0.3160  0.2405
13607SOL     OW46656   9.131   7.278   7.241 -0.8414 -0.2730  0.2004
13607SOL    HW146657   9.146   7.231   7.323  1.2715 -0.4943 -0.2616
13607SOL    HW246658   9.172   7.224   7.174 -1.3733  0.5546 -0.8188
13608SOL     OW46659   3.117   1.295   5.436  0.1285 -0.3068 -0.7133
13608SOL    HW146660   3.160   1.364   5.385  1.0619  1.9413  2.8283
13608SOL    HW246661   3.190   1.246   5.475 -0.5606 -1.3555 -0.7153
13609SOL     OW46662   8.924   7.791   7.741  0.7809  0.3972 -0.1972
13609SOL    HW146663   8.977   7.765   7.666 -0.0696 -2.0588 -0.0313
13609SOL    HW246664   8.837   7.805   7.705  0.7716  1.0222  0.0591
13610SOL     OW46665   3.690   2.924   7.422 -0.2422 -0.4636 -0.3871
13610SOL    HW146666   3.754   2.875   7.474  1.0805 -0.8126 -2.2434
13610SOL    HW246667   3.606   2.907   7.464  0.8575  0.1420  2.2438
13611SOL     OW46668   0.953   3.405   7.405  0.0540 -0.0842 -0.4050
13611SOL    HW146669   1.039   3.369   7.425  1.1042  1.8895 -1.0901
13611SOL    HW246670   0.930   3.368   7.320 -1.1279 -2.8066  0.9784
13612SOL     OW46671   0.625   5.303   6.206  0.5184 -0.1572  0.7794
13612SOL    HW146672   0.547   5.249   6.198  0.6953 -0.1880 -1.8163
13612SOL    HW246673   0.696   5.249   6.171  0.9813  1.1421 -0.4238
13613SOL     OW46674   5.432   5.643   7.003 -0.2566  0.1953 -0.1113
13613SOL    HW146675   5.471   5.584   6.939 -1.2146  0.2084 -0.7339
13613SOL    HW246676   5.496   5.647   7.074  2.0172  2.1978 -2.1275
13614SOL     OW46677   9.670   2.838   1.901 -0.0152  0.2681 -0.1771
13614SOL    HW146678   9.665   2.763   1.961 -1.5981 -0.5379 -1.2317
13614SOL    HW246679   9.757   2.831   1.862 -0.5903 -1.8985 -1.2589
13615SOL     OW46680   5.857   6.301   5.246 -0.5087 -0.1381  0.3685
13615SOL    HW146681   5.907   6.281   5.167 -0.2124  1.5320  0.0969
13615SOL    HW246682   5.806   6.379   5.223 -0.7651  0.1009  1.6758
13616SOL     OW46683   5.703   0.738   3.364 -0.0705 -0.4205 -0.5100
13616SOL    HW146684   5.697   0.687   3.283  0.4338 -0.5320 -0.4774
13616SOL    HW246685   5.769   0.805   3.346  2.4334 -2.3720  0.8254
13617SOL     OW46686  10.661   4.204  10.532  0.1183 -0.6450  0.0158
13617SOL    HW146687  10.568   4.187  10.546 -0.0937  1.4183  1.4150
13617SOL    HW246688  10.705   4.148  10.596 -0.1275 -1.6297 -0.6511
13618SOL     OW46689   8.494   7.803   1.095  0.0975 -0.0188  0.1649
13618SOL    HW146690   8.549   7.864   1.144  1.1507  0.0419 -1.0490
13618SOL    HW246691   8.428   7.775   1.158  2.0922 -0.8687  2.0410
13619SOL     OW46692   0.478   6.566   9.112 -0.5073 -0.2752  0.0876
13619SOL    HW146693   0.419   6.623   9.064 -0.6135 -0.9441 -0.6022
13619SOL    HW246694   0.424   6.491   9.138 -0.8368  0.7153  2.5701
13620SOL     OW46695   7.747   8.524   2.798 -0.5438 -0.1003  0.2389
13620SOL    HW146696   7.652   8.529   2.792 -0.4861  0.6690 -0.2288
13620SOL    HW246697   7.765   8.506   2.890 -1.1266  0.3888  0.4539
13621SOL     OW46698   4.356   8.376   4.084 -0.6689 -0.6272  0.0189
13621SOL    HW146699   4.274   8.344   4.047 -1.4662  0.2060  1.0050
13621SOL    HW246700   4.372   8.460   4.041 -0.2979 -0.8093 -0.2057
13622SOL     OW46701   1.035   4.719   5.907  0.0108 -0.7560  0.4322
13622SOL    HW146702   0.949   4.754   5.882  1.5386  1.8088 -1.9560
13622SOL    HW246703   1.047   4.642   5.852 -0.4379 -0.6402  0.1711
13623SOL     OW46704   2.952   7.591   5.676 -0.3052  0.2401 -0.4748
13623SOL    HW146705   2.867   7.558   5.703  1.1547 -2.9108  0.9035
13623SOL    HW246706   2.969   7.548   5.592  0.6284 -0.6687  0.1497
13624SOL     OW46707   0.776  10.682   4.477 -0.0326 -0.0207  0.7535
13624SOL    HW146708   0.707  10.745   4.498  1.5506  1.7611  0.8204
13624SOL    HW246709   0.774  10.676   4.381 -0.1098  0.2112  0.7406
13625SOL     OW46710   9.529   1.986   5.636  0.5117 -0.0208 -0.0438
13625SOL    HW146711   9.588   1.937   5.578  2.1037  0.1890  1.3389
13625SOL    HW246712   9.507   1.924   5.705  0.3904  0.4058  0.2984
13626SOL     OW46713   9.215   1.027   9.003 -0.6233 -0.2951 -0.2922
13626SOL    HW146714   9.296   1.029   8.953  0.8151  3.9257  1.6993
13626SOL    HW246715   9.148   1.060   8.943 -0.0190 -0.0719 -0.8444
13627SOL     OW46716   5.331   2.535   3.970  0.2393  0.0367 -0.3070
13627SOL    HW146717   5.300   2.460   4.021  2.4104 -0.2985  0.6283
13627SOL    HW246718   5.415   2.558   4.010  0.3324  2.0351 -1.5277
13628SOL     OW46719  10.110   5.482   5.991  0.4524  0.1273  0.3454
13628SOL    HW146720  10.078   5.419   5.926  0.5724  0.5116 -0.0923
13628SOL    HW246721  10.203   5.492   5.970  0.0818  1.7812 -0.7330
13629SOL     OW46722   0.714   9.022   0.346  0.1463 -0.1602  0.1390
13629SOL    HW146723   0.662   9.043   0.268  0.6892 -0.3467 -0.2760
13629SOL    HW246724   0.666   8.951   0.388 -0.1046 -0.1182 -0.0747
13630SOL     OW46725   4.065   2.721   7.718 -0.3791  0.2148 -0.3293
13630SOL    HW146726   4.051   2.633   7.754 -1.5114  1.1963  1.8248
13630SOL    HW246727   4.160   2.730   7.713 -0.2508 -1.2294 -0.8682
13631SOL     OW46728   7.371   5.382   9.402  0.6924  0.1250 -0.1288
13631SOL    HW146729   7.414   5.463   9.374  0.4723  0.3490  0.1700
13631SOL    HW246730   7.367   5.388   9.498  0.3841 -0.0893 -0.1254
13632SOL     OW46731   2.315   0.439   7.236 -0.5693  0.5245  0.2045
13632SOL    HW146732   2.335   0.397   7.320  1.0282  1.4520  0.3246
13632SOL    HW246733   2.225   0.469   7.245 -1.0118 -0.9492  0.9140
13633SOL     OW46734   3.179   7.902   7.173  0.1617  0.3886 -0.2475
13633SOL    HW146735   3.191   7.899   7.078 -1.1080  0.1256 -0.4152
13633SOL    HW246736   3.253   7.954   7.205  1.1974 -0.4130 -1.2632
13634SOL     OW46737   2.434  10.659   1.865 -0.2941  0.0253  0.0626
13634SOL    HW146738   2.418  10.575   1.823 -1.9406  0.3562 -0.0328
13634SOL    HW246739   2.530  10.663   1.875 -0.0292 -0.9979 -1.6629
13635SOL     OW46740   9.284   9.259   5.773 -0.0779 -0.1587 -0.9318
13635SOL    HW146741   9.312   9.170   5.792 -1.2296 -0.7367 -1.8535
13635SOL    HW246742   9.236   9.286   5.852 -0.3683 -0.6394 -0.9388
13636SOL     OW46743   0.653   5.168   7.788  0.0203  0.3619 -0.2645
13636SOL    HW146744   0.577   5.111   7.800 -0.8748  1.4182 -0.7882
13636SOL    HW246745   0.718   5.135   7.850 -0.7639 -0.7190  0.0036
13637SOL     OW46746  10.608   7.793   4.929 -0.1509  0.0874 -0.0047
13637SOL    HW146747  10.543   7.860   4.950 -0.1114  0.5035 -1.1237
13637SOL    HW246748  10.593   7.775   4.836  0.7044 -0.5077 -0.0310
13638SOL     OW46749   0.323   4.248   1.644 -0.0798 -0.0643 -0.1538
13638SOL    HW146750   0.252   4.197   1.682 -1.1305  1.4348 -0.0079
13638SOL    HW246751   0.315   4.335   1.684 -0.3767  1.1830 -2.6987
13639SOL     OW46752   2.984   9.322   8.453  0.1850  0.3232 -0.1632
13639SOL    HW146753   2.952   9.402   8.494 -0.4324  0.2846 -0.5531
13639SOL    HW246754   2.966   9.252   8.516  0.0627  0.3935 -0.1199
13640SOL     OW46755   8.159   9.522   2.600  0.0450  0.3054 -0.2417
13640SOL    HW146756   8.242   9.498   2.640 -0.4611 -2.2453 -0.5273
13640SOL    HW246757   8.095   9.514   2.670 -0.1266  1.1048 -0.3014
13641SOL     OW46758   7.814   6.172   9.618 -0.1717  0.3129 -0.1116
13641SOL    HW146759   7.790   6.088   9.656 -2.0953 -0.4360 -2.7383
13641SOL    HW246760   7.805   6.160   9.524  0.5866  3.1701 -0.6637
13642SOL     OW46761   1.019   3.343   6.057  0.1145  0.7356  0.2194
13642SOL    HW146762   0.978   3.401   5.993 -1.4421  0.0414  0.5332
13642SOL    HW246763   1.108   3.329   6.024 -0.6875  0.2778 -1.9101
13643SOL     OW46764   0.437   0.753   7.974 -0.5709 -0.2893 -0.2774
13643SOL    HW146765   0.417   0.804   7.896 -2.5682 -0.0264  0.3499
13643SOL    HW246766   0.517   0.792   8.009 -1.5834  1.9054 -0.2753
13644SOL     OW46767   7.026   5.883   3.460 -0.0998  0.1434 -0.3538
13644SOL    HW146768   6.945   5.849   3.420 -0.3639  0.1482  0.1685
13644SOL    HW246769   7.023   5.850   3.550  0.8665 -0.5127 -0.5459
13645SOL     OW46770   9.841   5.568  10.849  0.2600  0.0519 -0.1189
13645SOL    HW146771   9.840   5.661  10.868  0.7350  0.1451 -0.5340
13645SOL    HW246772   9.785   5.559  10.771 -1.1529 -0.2407  0.8897
13646SOL     OW46773   3.712   3.335   3.280  0.0636 -0.4765 -0.1193
13646SOL    HW146774   3.701   3.252   3.326 -2.4200 -0.3628 -0.3736
13646SOL    HW246775   3.692   3.314   3.188 -0.8936  0.4268 -0.1330
13647SOL     OW46776   8.275   5.066   5.540  0.3225  0.1917 -0.6480
13647SOL    HW146777   8.266   5.161   5.528 -0.9790 -0.0708 -2.0611
13647SOL    HW246778   8.188   5.037   5.568  0.4769 -0.6711 -1.0223
13648SOL     OW46779   9.469   6.538   9.667 -0.2556  0.3439 -0.1571
13648SOL    HW146780   9.409   6.546   9.741 -0.2305  0.4101 -0.1435
13648SOL    HW246781   9.551   6.577   9.699 -0.2271  0.3182 -0.1995
13649SOL     OW46782   2.951   1.768   6.566  0.5165 -0.3346  0.3577
13649SOL    HW146783   2.924   1.686   6.525 -2.1184 -0.5862  2.3479
13649SOL    HW246784   3.016   1.804   6.506 -0.6124 -2.2955 -2.2437
13650SOL     OW46785   8.385   8.041   8.628 -0.1069 -0.1108 -0.2991
13650SOL    HW146786   8.354   8.034   8.537 -0.6348  2.3131 -0.3654
13650SOL    HW246787   8.324   8.101   8.669  1.0013 -0.0197  1.2812
13651SOL     OW46788   5.779  10.329   5.220 -0.0288  0.0921  0.0349
13651SOL    HW146789   5.726  10.249   5.227 -1.1709  0.4200 -3.2161
13651SOL    HW246790   5.844  10.309   5.153 -0.2304  1.7978 -0.7150
13652SOL     OW46791   8.908   2.375  10.362 -0.1782  0.3542  0.0623
13652SOL    HW146792   8.908   2.371  10.458  1.3119 -2.4196  0.0445
13652SOL    HW246793   8.822   2.340  10.337 -0.8301  1.6984  0.3597
13653SOL     OW46794   7.152   4.234   4.228  0.1150  0.4835  0.0410
13653SOL    HW146795   7.080   4.177   4.199  0.2223  1.4567 -2.3621
13653SOL    HW246796   7.175   4.200   4.315 -2.2833 -0.7499  0.3019
13654SOL     OW46797   2.790   0.342   0.730 -0.0407  0.2194 -0.2893
13654SOL    HW146798   2.783   0.364   0.823 -2.3418  0.8772 -0.5579
13654SOL    HW246799   2.841   0.261   0.729 -0.5065 -0.1523  1.6026
13655SOL     OW46800   1.517   4.455   9.623 -0.1725  0.4203  0.2223
13655SOL    HW146801   1.525   4.362   9.646 -0.1813 -0.2072 -2.0393
13655SOL    HW246802   1.424   4.474   9.631 -0.5055 -0.3889 -1.2779
13656SOL     OW46803   4.575   9.440   9.544  0.2107 -0.1667  0.3922
13656SOL    HW146804   4.590   9.504   9.474 -2.1282 -0.6418 -0.6425
13656SOL    HW246805   4.570   9.492   9.624 -0.3463  0.8115 -0.2536
13657SOL     OW46806   5.688   4.232   4.300  0.0229  0.2700 -0.0496
13657SOL    HW146807   5.613   4.276   4.260  0.1911  0.6982  0.1065
13657SOL    HW246808   5.710   4.161   4.239 -0.2433  0.4066 -0.3025
13658SOL     OW46809   3.922   7.198   8.471  0.3111  0.1204 -0.3145
13658SOL    HW146810   3.965   7.213   8.387 -1.9439 -0.1598 -1.5990
13658SOL    HW246811   3.832   7.224   8.456  0.1658  1.5739  2.5286
13659SOL     OW46812   7.288   7.914   7.542  0.4630  0.0399  0.4273
13659SOL    HW146813   7.207   7.864   7.551  0.6204 -0.1041  1.0605
13659SOL    HW246814   7.260   8.006   7.545  0.1266  0.0240 -1.1251
13660SOL     OW46815   0.971   6.096   8.277  0.3908  0.1166 -0.2331
13660SOL    HW146816   1.041   6.157   8.252 -0.0804  0.5382 -0.5516
13660SOL    HW246817   1.017   6.015   8.302  0.9908  0.4062 -0.3823
13661SOL     OW46818   8.103   6.051   8.047  0.0232  0.0957 -0.2073
13661SOL    HW146819   8.179   6.072   7.993  0.7443  1.6025  1.3227
13661SOL    HW246820   8.032   6.103   8.009 -0.1081 -0.7273 -1.1590
13662SOL     OW46821   4.511   5.634   8.217 -0.3795 -0.5747 -0.4544
13662SOL    HW146822   4.493   5.716   8.262  4.3294  0.1204  0.6485
13662SOL    HW246823   4.503   5.656   8.124 -1.3294  0.4682 -0.1522
13663SOL     OW46824   3.340   3.155  10.799 -0.2878  0.0345  0.8318
13663SOL    HW146825   3.352   3.094  10.871 -1.7334 -0.6283  0.5515
13663SOL    HW246826   3.252   3.135  10.765  0.6638 -0.2688 -1.6686
13664SOL     OW46827   1.239   0.626   8.839 -0.4400  0.7332 -1.1159
13664SOL    HW146828   1.300   0.563   8.879  1.2442  3.2175  0.5582
13664SOL    HW246829   1.172   0.572   8.798  0.4076 -2.1147  0.9341
13665SOL     OW46830  10.112   3.192   0.244  0.0352 -0.6253  0.0293
13665SOL    HW146831  10.138   3.101   0.254  2.2715  0.0148  0.5389
13665SOL    HW246832  10.057   3.211   0.320 -1.2392 -1.7630 -0.5697
13666SOL     OW46833   5.821   7.030   3.603 -0.3534  0.2849  0.5997
13666SOL    HW146834   5.906   7.031   3.560 -1.6575 -1.9391 -2.3140
13666SOL    HW246835   5.775   7.107   3.568  0.0941  0.9739  1.4855
13667SOL     OW46836   6.759   5.818   7.911 -0.2013 -0.3174  0.2028
13667SOL    HW146837   6.840   5.805   7.960 -0.1640  0.7661  0.4451
13667SOL    HW246838   6.787   5.852   7.826 -0.4427  0.9291  0.6134
13668SOL     OW46839   6.104   6.570   1.172 -0.5674  0.0083 -0.2478
13668SOL    HW146840   6.092   6.491   1.225  0.1028 -0.0531 -0.1779
13668SOL    HW246841   6.193   6.562   1.138  0.1651  1.5793  1.1641
13669SOL     OW46842   0.584   8.285   8.141 -0.4621  0.5162 -0.4686
13669SOL    HW146843   0.649   8.342   8.101 -0.3324 -0.0837 -1.1261
13669SOL    HW246844   0.635   8.227   8.198 -0.4935  0.4501 -0.5083
13670SOL     OW46845   0.543   5.789  10.053 -0.2568  0.1811  0.1210
13670SOL    HW146846   0.588   5.811   9.972 -1.4599  0.0736 -0.6091
13670SOL    HW246847   0.450   5.801  10.032 -0.5585  0.7225  1.6645
13671SOL     OW46848   1.639   1.632   3.344 -0.4797 -0.3619  0.3290
13671SOL    HW146849   1.615   1.716   3.303  0.0547  0.2137  1.1598
13671SOL    HW246850   1.584   1.626   3.421  0.9044  0.2462  1.4199
13672SOL     OW46851   3.503   6.980   0.574 -0.8469  0.3283  0.3049
13672SOL    HW146852   3.459   6.897   0.554  1.2531 -0.3861 -1.7624
13672SOL    HW246853   3.444   7.047   0.540 -1.4183 -0.4609 -0.3030
13673SOL     OW46854   2.313   4.840   1.795  0.0320  0.2218  0.5831
13673SOL    HW146855   2.336   4.797   1.713 -0.2241 -0.9006  1.0844
13673SOL    HW246856   2.370   4.916   1.799  0.6947 -0.2225 -0.1921
13674SOL     OW46857   3.285   7.775   2.876  0.6426 -0.7500 -0.0715
13674SOL    HW146858   3.247   7.737   2.956  1.2450 -1.1091  0.0542
13674SOL    HW246859   3.248   7.863   2.872 -0.8610 -1.3687 -0.4239
13675SOL     OW46860   3.788   1.112   8.452 -0.0905  0.3673  0.0761
13675SOL    HW146861   3.753   1.165   8.523 -1.2226  1.4214 -1.2188
13675SOL    HW246862   3.868   1.157   8.426 -0.1089  0.4451  0.1537
13676SOL     OW46863   0.899   1.531   4.145  0.5459  0.0535  0.1133
13676SOL    HW146864   0.815   1.546   4.100 -0.8964  1.4653  2.9832
13676SOL    HW246865   0.950   1.609   4.125  0.1541  0.3840  0.3671
13677SOL     OW46866  10.775   5.672   0.385 -0.7123 -0.0991 -0.0420
13677SOL    HW146867  10.836   5.682   0.311  1.7370  3.4442  2.0947
13677SOL    HW246868  10.716   5.747   0.377 -0.9697 -0.1646  1.0593
13678SOL     OW46869   2.576   6.450   0.680 -0.0377 -0.1733 -0.1589
13678SOL    HW146870   2.625   6.509   0.623 -1.4673 -0.4128 -1.7034
13678SOL    HW246871   2.520   6.508   0.732 -0.8223 -0.0770 -1.0744
13679SOL     OW46872   1.985   3.825   8.217  0.2194 -0.0764 -0.4531
13679SOL    HW146873   2.073   3.859   8.231 -0.2987  0.7524  0.9104
13679SOL    HW246874   1.934   3.856   8.292 -1.1507 -0.8515 -1.0203
13680SOL     OW46875   8.752   1.480   6.793  0.0191  0.3297  0.4697
13680SOL    HW146876   8.807   1.415   6.750 -0.9934 -0.0244 -0.3487
13680SOL    HW246877   8.780   1.564   6.756  1.1213  0.3472  1.3027
13681SOL     OW46878   4.543   1.970   7.381  0.1307 -0.1436  0.3768
13681SOL    HW146879   4.509   2.004   7.464 -1.0926  0.1187 -0.2119
13681SOL    HW246880   4.588   2.044   7.341 -1.7853  0.6155 -0.5030
13682SOL     OW46881  10.088   6.914   7.343 -0.3302 -0.0953 -0.3212
13682SOL    HW146882  10.182   6.919   7.364 -1.0241  0.9831  3.1605
13682SOL    HW246883  10.063   6.825   7.367 -0.3938 -0.0739 -0.3084
13683SOL     OW46884   7.546   1.208   5.034  0.9432  0.2899  0.3603
13683SOL    HW146885   7.640   1.195   5.049  1.4964 -0.5232 -3.0412
13683SOL    HW246886   7.508   1.120   5.044  0.5766  0.5253  1.1814
13684SOL     OW46887   6.762   1.592   2.787  0.3928 -0.2310  0.1675
13684SOL    HW146888   6.813   1.572   2.865  1.3293  3.0741  0.5431
13684SOL    HW246889   6.677   1.621   2.821  0.5753  0.5864 -0.0540
13685SOL     OW46890   4.565   1.099   9.281 -0.2906 -0.1571  0.0295
13685SOL    HW146891   4.582   1.181   9.327  0.2718 -0.2971  0.0818
13685SOL    HW246892   4.569   1.032   9.349 -0.8368 -0.2173  0.0004
13686SOL     OW46893   2.004   9.120   1.516 -0.1322  0.1793 -0.2193
13686SOL    HW146894   2.099   9.115   1.502 -0.0423 -0.0122  0.4165
13686SOL    HW246895   1.981   9.209   1.490  0.3553  0.4790  0.3460
13687SOL     OW46896   9.911   7.172   4.671 -0.0754  0.4507 -0.3411
13687SOL    HW146897   9.902   7.264   4.646 -2.2050  0.2174 -0.5716
13687SOL    HW246898   9.849   7.126   4.615 -0.2416 -0.9176  0.9207
13688SOL     OW46899   1.003   0.456   4.645 -0.4786 -0.3752  0.3390
13688SOL    HW146900   0.971   0.509   4.573  1.7261 -0.9641 -1.1735
13688SOL    HW246901   0.945   0.477   4.718 -2.4655  0.6373 -1.4335
13689SOL     OW46902   6.028   2.497   7.386  0.4896  0.6806  0.0381
13689SOL    HW146903   6.020   2.587   7.418  0.3699  1.1115 -1.1434
13689SOL    HW246904   5.965   2.447   7.437  1.5513  0.9723  1.6936
13690SOL     OW46905   5.153   9.546  10.863  0.3618 -0.3818  0.0407
13690SOL    HW146906   5.164   9.557  10.768  1.0922 -1.1250  0.0302
13690SOL    HW246907   5.183   9.628  10.900  1.1600 -0.5090 -0.3118
13691SOL     OW46908   4.393  10.463   5.341  0.4294 -0.0963  0.5198
13691SOL    HW146909   4.370  10.430   5.428  1.4332 -0.3183  0.7135
13691SOL    HW246910   4.466  10.408   5.312  2.4797  2.1526  1.0511
13692SOL     OW46911   6.684   1.790   5.764  0.6706  0.8723  0.1011
13692SOL    HW146912   6.635   1.801   5.845 -0.1616  1.1663 -0.4285
13692SOL    HW246913   6.644   1.852   5.703 -0.1057 -0.7688 -1.1481
13693SOL     OW46914   4.682   7.364   6.998  0.0381  0.2467  0.3140
13693SOL    HW146915   4.693   7.433   6.933 -1.4140  1.0657  0.8942
13693SOL    HW246916   4.724   7.287   6.958 -0.0019  0.9563 -1.1694
13694SOL     OW46917   1.186   6.161   4.522 -0.4141  0.1384 -0.1178
13694SOL    HW146918   1.116   6.194   4.465 -0.2345  1.9959  0.6660
13694SOL    HW246919   1.255   6.132   4.462 -0.6134  1.1691 -0.8599
13695SOL     OW46920   0.598   6.463   3.800 -0.2361  0.1111  0.0509
13695SOL    HW146921   0.589   6.372   3.775  0.2618 -0.0480  0.4327
13695SOL    HW246922   0.542   6.472   3.877  0.6345 -0.1785  0.7340
13696SOL     OW46923   4.180   2.413   0.056  0.0014  0.2831 -0.1839
13696SOL    HW146924   4.235   2.365  -0.006  1.1004  1.1515  0.0962
13696SOL    HW246925   4.227   2.408   0.139 -0.8320  0.2128  0.2958
13697SOL     OW46926   8.184   9.623   7.036 -0.7560  0.0906  0.0657
13697SOL    HW146927   8.193   9.528   7.029 -0.4687  0.1676 -0.7345
13697SOL    HW246928   8.136   9.636   7.117  0.1929 -0.6832  0.7833
13698SOL     OW46929   6.416   5.259   0.015 -0.1411 -0.1815 -0.5500
13698SOL    HW146930   6.445   5.227  -0.070  0.7526 -1.1753  0.1043
13698SOL    HW246931   6.353   5.193   0.045  1.2845 -1.0967  0.5562
13699SOL     OW46932   8.605   6.218   7.886 -0.3327  0.0048 -0.7522
13699SOL    HW146933   8.614   6.134   7.932  2.7814  1.0813  0.8529
13699SOL    HW246934   8.613   6.196   7.794  1.1347 -1.4393 -0.3248
13700SOL     OW46935   4.007   5.047   8.472  0.1314  0.2015  0.3819
13700SOL    HW146936   3.952   4.975   8.505 -1.9809  1.7291  0.4080
13700SOL    HW246937   4.080   5.052   8.533 -0.2876 -1.1622  1.0321
13701SOL     OW46938  10.476   9.669   4.929  0.2517  0.4979  0.0909
13701SOL    HW146939  10.503   9.741   4.986 -0.1418  1.1620 -0.5448
13701SOL    HW246940  10.520   9.686   4.846 -0.5511  0.5084 -0.3435
13702SOL     OW46941   7.489   2.811   4.911  0.0770  0.3476  0.5343
13702SOL    HW146942   7.416   2.817   4.849 -1.6670  1.0186  2.5042
13702SOL    HW246943   7.465   2.739   4.969  2.2518 -1.0606 -0.2072
13703SOL     OW46944   0.127   3.881   1.619  0.4218 -0.1116 -0.3288
13703SOL    HW146945   0.123   3.955   1.679  1.1405 -1.4319  1.4273
13703SOL    HW246946   0.036   3.862   1.598  0.2283  1.3174 -0.9352
13704SOL     OW46947   2.538   6.044   0.944  0.1010  0.2855 -0.0882
13704SOL    HW146948   2.455   6.033   0.989  0.2872  1.0531  0.4634
13704SOL    HW246949   2.562   6.136   0.959  0.6857  0.2691 -0.8581
13705SOL     OW46950   4.286   4.077  10.212  0.1722  0.4961 -0.1378
13705SOL    HW146951   4.299   4.034  10.297 -0.4262  0.1935 -0.1978
13705SOL    HW246952   4.197   4.110  10.215  1.1951  3.5802  0.7176
13706SOL     OW46953   8.217   4.459  10.728  0.5685 -0.0075  0.3405
13706SOL    HW146954   8.185   4.542  10.692  0.2217  0.5432  1.8463
13706SOL    HW246955   8.199   4.395  10.659  0.5051  1.0905 -0.7045
13707SOL     OW46956   2.243   7.322  10.063 -0.1020  0.6830  0.5723
13707SOL    HW146957   2.265   7.261  10.133 -2.2847 -0.1021  0.6543
13707SOL    HW246958   2.306   7.302   9.993  0.6417 -0.1015  1.4413
13708SOL     OW46959   6.417   4.157   4.917 -0.4906 -0.3687  0.3942
13708SOL    HW146960   6.345   4.130   4.974  0.5626 -2.1556  0.9382
13708SOL    HW246961   6.414   4.096   4.843  0.1061 -0.0917  0.1293
13709SOL     OW46962   8.838   3.272   5.944  0.0867 -0.4179 -0.1492
13709SOL    HW146963   8.745   3.289   5.928  0.1132  0.1550  0.2829
13709SOL    HW246964   8.883   3.339   5.894  0.2845 -0.9395 -0.6768
13710SOL     OW46965   3.757   2.695   8.264  0.0074 -0.0668 -0.0576
13710SOL    HW146966   3.667   2.726   8.260 -0.3532 -0.9155  0.8365
13710SOL    HW246967   3.752   2.617   8.320  0.7443 -2.1037 -2.6495
13711SOL     OW46968   6.000  10.103   3.871 -0.1145  0.2036 -0.3208
13711SOL    HW146969   5.984  10.186   3.826  1.5737  0.7918  0.1060
13711SOL    HW246970   6.024  10.042   3.801 -0.0850  0.4171 -0.4992
13712SOL     OW46971   6.577   6.878   1.588  0.2423  0.0145  0.5136
13712SOL    HW146972   6.570   6.783   1.591  3.3186 -0.3025  0.4765
13712SOL    HW246973   6.543   6.901   1.501 -1.2177 -0.9162  0.7965
13713SOL     OW46974   9.163   7.373   9.816  0.0388 -0.1396  0.1420
13713SOL    HW146975   9.087   7.395   9.762 -1.7844  0.3363  2.7251
13713SOL    HW246976   9.223   7.447   9.804 -1.4078  1.1468  0.6104
13714SOL     OW46977   4.344   6.129   8.858 -0.7841  0.3285 -0.1170
13714SOL    HW146978   4.354   6.034   8.862  0.9745  0.3102 -2.3772
13714SOL    HW246979   4.409   6.157   8.793 -3.6749  2.6579 -2.3499
13715SOL     OW46980   5.112   3.869   0.803 -0.3271 -0.0523  0.6058
13715SOL    HW146981   5.197   3.833   0.831  0.2338 -0.7895 -1.8358
13715SOL    HW246982   5.133   3.955   0.767 -0.4711 -0.4987 -0.6002
13716SOL     OW46983   6.007   7.545   3.644  0.7981  0.0719  0.1052
13716SOL    HW146984   5.949   7.620   3.650  0.0292 -0.4797 -0.2476
13716SOL    HW246985   5.948   7.469   3.639  1.5427 -0.5034 -0.1763
13717SOL     OW46986   4.646  10.606   5.642 -0.4247 -0.2590  0.2567
13717SOL    HW146987   4.668  10.672   5.708 -0.3779  0.9529 -0.9112
13717SOL    HW246988   4.634  10.525   5.691 -1.3273  0.7945  1.8590
13718SOL     OW46989   1.233   7.911   3.599  0.1172  0.2082 -0.5132
13718SOL    HW146990   1.205   7.828   3.638  1.0580  0.9979  2.0879
13718SOL    HW246991   1.273   7.887   3.516 -1.6416 -1.6546 -0.8921
13719SOL     OW46992  10.365   6.270  10.016  0.4242 -0.6695  0.3718
13719SOL    HW146993  10.366   6.351  10.068  1.7811 -0.8285  0.6188
13719SOL    HW246994  10.320   6.206  10.071 -1.3148  0.0803 -0.1144
13720SOL     OW46995   7.571   3.590   4.675 -0.7178  0.0796 -0.0055
13720SOL    HW146996   7.585   3.652   4.604  0.2571  1.2238  1.1256
13720SOL    HW246997   7.586   3.642   4.755 -0.2167 -1.5248  0.9884
13721SOL     OW46998   8.078  10.791   4.306  0.5226 -0.2156  0.8831
13721SOL    HW146999   8.128  10.729   4.359  1.2764  0.1947  0.6718
13721SOL    HW247000   8.112  10.780   4.217  0.9646  0.7785  0.9167
13722SOL     OW47001   0.568   7.552   8.241 -0.6314  0.6230 -0.1179
13722SOL    HW147002   0.613   7.572   8.159  0.6310  0.2568  0.4568
13722SOL    HW247003   0.565   7.457   8.244  0.4077  0.6003  0.7998
13723SOL     OW47004  10.546   7.224   3.285 -0.2585  0.1875  0.2017
13723SOL    HW147005  10.552   7.174   3.366  0.6645  0.5360  0.3673
13723SOL    HW247006  10.487   7.174   3.229  0.4547 -0.9627  0.4505
13724SOL     OW47007   8.473   5.295  10.698 -0.6853 -0.0759  0.4950
13724SOL    HW147008   8.554   5.342  10.680 -0.3881 -0.4158  0.9012
13724SOL    HW247009   8.481   5.214  10.649  1.1197 -2.0241  3.6263
13725SOL     OW47010   1.480   1.246   5.857 -0.0753  0.4923  0.1773
13725SOL    HW147011   1.414   1.190   5.896  2.4302 -1.0692  2.5310
13725SOL    HW247012   1.431   1.306   5.801 -3.1271 -2.6134 -0.8243
13726SOL     OW47013   8.596   7.186   1.403  0.1766 -0.3878 -0.6707
13726SOL    HW147014   8.554   7.178   1.489  0.5663  0.8561 -0.3515
13726SOL    HW247015   8.549   7.258   1.360  1.2264  0.2670 -0.7492
13727SOL     OW47016   3.799   8.728   3.152  0.0307  0.4124 -0.3712
13727SOL    HW147017   3.722   8.763   3.195 -0.6757 -0.4522 -0.9081
13727SOL    HW247018   3.785   8.747   3.059  0.8742  1.0129 -0.3872
13728SOL     OW47019   2.769  10.234   9.362 -0.3538 -0.4900 -0.0303
13728SOL    HW147020   2.829  10.289   9.311 -0.2488  0.0236  0.6338
13728SOL    HW247021   2.756  10.157   9.307 -0.6339  0.2619 -1.0584
13729SOL     OW47022   1.784   4.725  10.198 -0.3905  0.1767 -0.0359
13729SOL    HW147023   1.713   4.784  10.222 -0.0216  0.8412 -0.5375
13729SOL    HW247024   1.747   4.637  10.211 -1.8237  0.4716 -1.6395
13730SOL     OW47025  10.436   0.448   1.309  0.2014  0.0522 -0.3389
13730SOL    HW147026  10.369   0.412   1.251 -0.3686 -1.4802  1.1849
13730SOL    HW247027  10.512   0.391   1.297  0.4359  0.3599 -0.3313
13731SOL     OW47028   7.815   4.299   7.228  0.0855  0.2673  0.5636
13731SOL    HW147029   7.741   4.243   7.204  1.2184 -0.8589 -0.4032
13731SOL    HW247030   7.892   4.244   7.216  1.1581  1.7002  0.6759
13732SOL     OW47031   3.064   6.203  10.414  0.4453 -0.2576 -0.4576
13732SOL    HW147032   3.104   6.223  10.499  0.0884 -0.6802 -0.1813
13732SOL    HW247033   3.130   6.226  10.350  0.2960  1.1803 -0.1309
13733SOL     OW47034   1.692   4.723   7.999 -0.1986  0.5957 -0.4496
13733SOL    HW147035   1.684   4.801   7.944 -0.0979  1.0259  0.1424
13733SOL    HW247036   1.786   4.710   8.009 -0.2052  0.0572 -1.0157
13734SOL     OW47037   7.976   7.783   8.495  0.0049 -0.1463 -0.2898
13734SOL    HW147038   7.963   7.804   8.587 -0.7859  0.9783 -0.6503
13734SOL    HW247039   7.902   7.727   8.472 -0.2573  0.2690 -0.4592
13735SOL     OW47040   4.681  10.764  10.656  0.0766  0.0053  0.1764
13735SOL    HW147041   4.678  10.859  10.671  0.6459  0.4369 -2.0629
13735SOL    HW247042   4.642  10.726  10.735 -0.1115  2.0879  1.1545
13736SOL     OW47043   2.467   8.631   0.340 -0.1182  0.5281  0.5722
13736SOL    HW147044   2.431   8.567   0.279  0.4414  0.5677  0.1972
13736SOL    HW247045   2.532   8.679   0.290  1.1792 -0.2045  1.4974
13737SOL     OW47046   4.641   3.870   0.863  0.0602 -0.0611 -0.6138
13737SOL    HW147047   4.717   3.926   0.844 -1.2225  1.5450 -1.3265
13737SOL    HW247048   4.599   3.911   0.938  0.3952 -1.4993  0.3940
13738SOL     OW47049   7.517   2.492   7.072 -0.1154  0.6841  0.4680
13738SOL    HW147050   7.601   2.498   7.117  0.4053  1.0529 -0.5274
13738SOL    HW247051   7.532   2.430   7.001 -0.8600  0.2852  0.6424
13739SOL     OW47052   3.507   9.520   7.958 -0.4634  0.3760  0.0865
13739SOL    HW147053   3.445   9.515   7.885  0.1283  0.6581 -0.4485
13739SOL    HW247054   3.574   9.582   7.928  0.0786  0.0750  0.6499
13740SOL     OW47055   6.551   7.324  10.386 -0.2471  0.0763 -0.2026
13740SOL    HW147056   6.514   7.239  10.411  0.9876 -0.6011 -0.5916
13740SOL    HW247057   6.628   7.335  10.442 -2.1435  2.5049  2.1643
13741SOL     OW47058   4.483   0.311   6.333  0.7729  0.3506  0.0920
13741SOL    HW147059   4.537   0.232   6.338  2.0091  1.0582 -1.2378
13741SOL    HW247060   4.440   0.316   6.418  2.6593 -0.3526  1.1436
13742SOL     OW47061   8.728   3.506   2.246  0.0581  0.8859 -0.0504
13742SOL    HW147062   8.648   3.457   2.227  0.2147  0.7265 -0.2927
13742SOL    HW247063   8.797   3.440   2.250  0.0923  0.9586  0.6857
13743SOL     OW47064   8.487   0.224   2.197 -0.5337 -0.5770  0.2238
13743SOL    HW147065   8.477   0.246   2.104 -0.6392  1.0268  0.5901
13743SOL    HW247066   8.398   0.226   2.232 -0.2876  1.0511  0.8113
13744SOL     OW47067   0.477   0.085   4.854  0.7815 -0.7164 -0.1558
13744SOL    HW147068   0.547   0.111   4.794  1.3612  0.6121  1.0393
13744SOL    HW247069   0.409   0.152   4.842  2.0223  1.1925  2.5023
13745SOL     OW47070   7.299  10.123   4.581  0.3236  0.4911  0.4848
13745SOL    HW147071   7.376  10.125   4.638  0.1987  0.3858  0.6605
13745SOL    HW247072   7.285  10.030   4.562 -0.1023  0.4518  0.9352
13746SOL     OW47073  10.518   5.198   1.891  0.3008  0.0534  0.3818
13746SOL    HW147074  10.594   5.161   1.935 -0.8507 -1.2199  1.3990
13746SOL    HW247075  10.448   5.194   1.956 -0.6251  1.2714 -0.4909
13747SOL     OW47076   6.770   0.413   8.058 -0.1887 -0.0481  0.0550
13747SOL    HW147077   6.840   0.433   7.996 -0.9194 -0.1715 -0.8149
13747SOL    HW247078   6.724   0.496   8.071 -1.6029 -0.5336 -1.5482
13748SOL     OW47079   7.455   3.420   2.964  0.0300  0.2903  0.6035
13748SOL    HW147080   7.379   3.440   3.018  0.4039 -2.2811  2.2362
13748SOL    HW247081   7.515   3.493   2.979 -0.8010  0.7458  1.8790
13749SOL     OW47082   7.061   7.252   9.927 -0.3504 -0.1433  0.3175
13749SOL    HW147083   7.085   7.326   9.982 -0.3076 -0.5288  0.8290
13749SOL    HW247084   7.089   7.175   9.977  0.8058 -0.4671 -0.7788
13750SOL     OW47085   2.977  10.629   9.039  0.5934  0.1746 -0.2257
13750SOL    HW147086   2.973  10.668   8.952 -1.9634  0.9607  0.1397
13750SOL    HW247087   2.952  10.701   9.098 -0.2226 -0.9630  0.8725
13751SOL     OW47088   7.587   6.740   4.955  0.4188  0.1709 -0.0955
13751SOL    HW147089   7.676   6.752   4.989  0.5830 -0.8066 -0.1730
13751SOL    HW247090   7.535   6.803   5.004  1.4959  2.3902 -1.5846
13752SOL     OW47091   3.003   5.168   7.692 -1.1023 -0.2903  0.3919
13752SOL    HW147092   2.928   5.167   7.633 -0.7781 -0.7941 -0.0157
13752SOL    HW247093   2.969   5.206   7.773 -1.0252  2.6320 -0.7939
13753SOL     OW47094   3.215   0.012   0.145  0.0711  0.3362 -0.3303
13753SOL    HW147095   3.306   0.039   0.139  0.1485  0.1555  0.0289
13753SOL    HW247096   3.213  -0.076   0.107  0.3595 -0.3524  1.1963
13754SOL     OW47097   2.280   1.624   1.560 -0.2850 -0.2478  0.1041
13754SOL    HW147098   2.213   1.626   1.492 -0.6752 -0.7113  0.4711
13754SOL    HW247099   2.231   1.620   1.643  0.1736  0.8306  0.4500
13755SOL     OW47100   3.730   3.828   2.772  0.1523  0.4305  0.1113
13755SOL    HW147101   3.659   3.813   2.709 -0.0628  1.5531  0.0619
13755SOL    HW247102   3.804   3.780   2.735 -0.7031 -1.2587  0.4686
13756SOL     OW47103   9.717   1.364   9.640 -0.0518  0.3452 -0.2846
13756SOL    HW147104   9.704   1.270   9.631  1.5569  0.0403  0.3239
13756SOL    HW247105   9.647   1.392   9.699 -0.8733 -0.3394 -0.8908
13757SOL     OW47106  10.104   0.290   1.310 -0.4177  0.4722  0.2849
13757SOL    HW147107  10.060   0.352   1.368  0.0338  1.5429 -0.4816
13757SOL    HW247108  10.078   0.317   1.222  1.0781  0.6164 -0.1423
13758SOL     OW47109   5.280   5.826   2.533 -0.5624 -0.0142 -0.4966
13758SOL    HW147110   5.259   5.919   2.522  1.4730  0.4129 -1.2338
13758SOL    HW247111   5.372   5.820   2.509 -0.5499 -2.1744 -0.0545
13759SOL     OW47112   8.995   6.396   7.935  0.0447  0.8347  0.2627
13759SOL    HW147113   8.943   6.472   7.911  0.2074  1.1578  0.9095
13759SOL    HW247114   8.949   6.358   8.010  0.3308  0.6816  0.3611
13760SOL     OW47115   3.185   8.367   1.085  0.4396 -0.0117  0.1972
13760SOL    HW147116   3.093   8.344   1.076  0.1361  0.9640  0.7059
13760SOL    HW247117   3.186   8.462   1.096  1.5543  0.0689 -0.4423
13761SOL     OW47118   1.991   5.279   9.395  0.8301 -0.0010  0.3448
13761SOL    HW147119   1.990   5.268   9.491 -0.4082 -0.4190  0.2958
13761SOL    HW247120   2.074   5.241   9.368  1.4256  0.5616  1.3012
13762SOL     OW47121   5.942   1.474   9.195  0.2504 -0.3165  0.0909
13762SOL    HW147122   5.931   1.469   9.290  1.3865 -0.9916  0.2111
13762SOL    HW247123   6.030   1.511   9.183 -1.2226  3.3462 -0.7600
13763SOL     OW47124   3.789   7.743   8.504 -0.4130  0.0408  0.7770
13763SOL    HW147125   3.791   7.727   8.598 -0.5474 -2.4266  0.4328
13763SOL    HW247126   3.765   7.659   8.466  0.9039  0.6248 -1.5401
13764SOL     OW47127   2.825   0.124   4.544 -0.6167 -0.9333  0.5374
13764SOL    HW147128   2.911   0.112   4.505 -0.9159 -0.4369 -0.3085
13764SOL    HW247129   2.838   0.107   4.638  0.8665  1.2701  0.8006
13765SOL     OW47130   4.784   3.057  10.157  0.3071  0.0624  0.6543
13765SOL    HW147131   4.773   3.096  10.070  1.7040 -0.4189  0.2276
13765SOL    HW247132   4.728   3.108  10.214 -0.4156  0.5720 -0.4884
13766SOL     OW47133  10.728   0.244   6.536  0.2446 -0.0532 -0.4726
13766SOL    HW147134  10.738   0.303   6.461 -0.0432  0.8876  0.2090
13766SOL    HW247135  10.802   0.264   6.593  0.3789 -0.6569 -0.4248
13767SOL     OW47136   2.148   2.120   2.377  0.0855  0.1367  0.0157
13767SOL    HW147137   2.180   2.200   2.418 -0.3384  1.0522 -1.3639
13767SOL    HW247138   2.207   2.106   2.302  1.0290 -1.6535  1.0113
13768SOL     OW47139   5.190   5.056   7.256  0.4832 -0.0317 -0.2691
13768SOL    HW147140   5.175   5.072   7.349 -0.8298  1.1285 -0.6468
13768SOL    HW247141   5.174   4.962   7.245  0.0304 -0.0607  0.5638
13769SOL     OW47142   7.539   3.740   8.849  1.0182  0.5920  0.4622
13769SOL    HW147143   7.590   3.713   8.773 -0.9515 -2.9643  0.1788
13769SOL    HW247144   7.510   3.829   8.828 -0.0975 -0.5019 -3.3780
13770SOL     OW47145   1.949   1.638   8.177  0.4288 -0.8181 -0.1940
13770SOL    HW147146   1.932   1.719   8.226 -0.7145 -1.3381  0.3140
13770SOL    HW247147   1.968   1.667   8.088  0.5148  0.0359  0.0940
13771SOL     OW47148   6.068  10.644   4.202 -0.3143  0.1356  0.1156
13771SOL    HW147149   5.994  10.638   4.143 -0.2138  1.3733 -0.1701
13771SOL    HW247150   6.144  10.657   4.144 -0.2499  1.6320  0.4934
13772SOL     OW47151   6.296   4.471   4.215  0.3956 -0.1545 -0.1533
13772SOL    HW147152   6.373   4.458   4.270  1.2273 -0.1568 -1.2708
13772SOL    HW247153   6.293   4.393   4.159 -0.6481 -0.3323  0.1280
13773SOL     OW47154   2.822   3.770  10.910 -0.1748  0.2943  0.0433
13773SOL    HW147155   2.843   3.841  10.971 -0.4522  0.4171 -0.0036
13773SOL    HW247156   2.727   3.765  10.911 -0.1303 -0.5283  0.5507
13774SOL     OW47157   5.395   2.092   7.079  0.2657  0.2554 -0.1685
13774SOL    HW147158   5.400   2.187   7.088  0.3284  0.4224 -1.7270
13774SOL    HW247159   5.447   2.059   7.153  3.1193  1.5237 -1.4299
13775SOL     OW47160   1.044   9.555   7.634  0.5360 -0.1165 -0.6867
13775SOL    HW147161   1.025   9.635   7.586 -0.9299 -0.2411 -0.3533
13775SOL    HW247162   1.064   9.490   7.566 -1.2216 -0.2114 -1.1468
13776SOL     OW47163   1.368   2.819   4.634 -0.0609 -0.2106 -0.7239
13776SOL    HW147164   1.367   2.723   4.639 -0.7681 -0.1611  0.7015
13776SOL    HW247165   1.294   2.841   4.578 -1.7137 -0.4656  1.2237
13777SOL     OW47166   6.362   6.359   6.272 -0.5450 -0.2288  0.0380
13777SOL    HW147167   6.444   6.405   6.288 -0.7026  0.3078 -0.6186
13777SOL    HW247168   6.345   6.310   6.352  0.0621  0.2014  0.4362
13778SOL     OW47169   3.766   3.608  10.803 -0.3223 -1.0959 -0.4573
13778SOL    HW147170   3.825   3.532  10.802 -1.8030 -2.2969 -0.4399
13778SOL    HW247171   3.709   3.596  10.727 -0.9650 -0.3193 -0.1179
13779SOL     OW47172   4.881   5.639   5.585 -0.5716  0.3752 -0.2332
13779SOL    HW147173   4.923   5.684   5.659 -0.6196 -1.0450  0.6935
13779SOL    HW247174   4.954   5.611   5.530 -0.2798 -1.2217  0.8731
13780SOL     OW47175   8.319   2.383   1.089 -0.2272 -0.2190  0.0109
13780SOL    HW147176   8.315   2.307   1.147  0.5172 -0.8106 -0.6842
13780SOL    HW247177   8.308   2.347   1.001 -0.2544  0.5260 -0.3032
13781SOL     OW47178   2.968   2.818  10.160 -0.4506 -0.1048  0.3008
13781SOL    HW147179   2.998   2.900  10.120 -0.3331 -0.0895  0.4180
13781SOL    HW247180   2.873   2.824  10.159 -0.4492 -0.1398 -0.0486
13782SOL     OW47181   5.036   9.294   4.663  0.0769 -0.1093 -0.4723
13782SOL    HW147182   4.962   9.282   4.603 -1.1567  0.8235  0.8216
13782SOL    HW247183   5.037   9.387   4.682  0.6504 -0.3382  0.7118
13783SOL     OW47184   4.786   9.837   6.680  0.2008 -0.4536 -0.5049
13783SOL    HW147185   4.850   9.835   6.609 -0.1154 -4.1734 -0.8763
13783SOL    HW247186   4.703   9.813   6.638 -0.7432  0.7842  0.5698
13784SOL     OW47187   3.126   2.275   8.327 -0.2595  0.6037 -0.1208
13784SOL    HW147188   3.116   2.253   8.235 -1.2036  0.9101 -0.1003
13784SOL    HW247189   3.040   2.306   8.354 -0.5873 -1.3446  1.3625
13785SOL     OW47190   8.535   0.285   9.294 -0.4696 -0.1350 -0.5149
13785SOL    HW147191   8.470   0.342   9.253 -1.4496 -2.6101 -2.7582
13785SOL    HW247192   8.606   0.280   9.230  0.5029  0.0937  0.5266
13786SOL     OW47193   1.912   4.641   0.062  0.6136  0.3176 -0.1516
13786SOL    HW147194   1.824   4.622   0.030  0.1657  0.2521  1.0850
13786SOL    HW247195   1.915   4.737   0.067  1.1615  0.4074 -1.6442
13787SOL     OW47196   7.742   1.244   8.912 -0.4543 -0.2475  0.0593
13787SOL    HW147197   7.713   1.321   8.961  1.7817  0.3122  0.6382
13787SOL    HW247198   7.826   1.220   8.953  1.6961  0.3814 -3.5397
13788SOL     OW47199   2.313   3.314   6.916  0.8326  0.1133  0.1392
13788SOL    HW147200   2.268   3.252   6.858  1.0898  1.5331 -1.6549
13788SOL    HW247201   2.284   3.290   7.004 -1.4104 -0.6542 -0.7505
13789SOL     OW47202   0.052   2.544   9.561 -0.9054 -0.4881  0.3835
13789SOL    HW147203  -0.033   2.587   9.569 -0.8721  0.4015 -2.8353
13789SOL    HW247204   0.111   2.598   9.613 -2.0074 -0.2954  1.4757
13790SOL     OW47205   2.453   6.571   7.019  0.4673  0.5892  0.5035
13790SOL    HW147206   2.536   6.583   7.064  0.0424  0.1540  1.4167
13790SOL    HW247207   2.476   6.569   6.926  1.5080  0.1879  0.7595
13791SOL     OW47208  10.412   1.005  10.494  0.1592  0.3351  0.3104
13791SOL    HW147209  10.438   0.977  10.406 -1.4068  0.6309 -0.2832
13791SOL    HW247210  10.326   0.964  10.507 -0.9951  2.6720  0.4883
13792SOL     OW47211   0.316   5.751   0.006 -0.2012 -0.6095 -0.0356
13792SOL    HW147212   0.297   5.668   0.049 -0.3600  0.3489  1.8821
13792SOL    HW247213   0.231   5.792  -0.008 -0.1265 -0.7495 -0.9760
13793SOL     OW47214   1.579   6.505   5.079 -0.5072  0.0837 -0.7566
13793SOL    HW147215   1.586   6.599   5.096  1.0219 -0.1130 -0.0925
13793SOL    HW247216   1.511   6.497   5.013 -2.9756  1.3835  1.4707
13794SOL     OW47217  10.701   1.531   9.062  0.0407 -0.3760  0.2157
13794SOL    HW147218  10.750   1.489   8.991  1.0249  0.3006  0.4737
13794SOL    HW247219  10.763   1.533   9.135  0.0855  1.6478  0.1584
13795SOL     OW47220   0.381   7.447   6.964  0.4303  0.2867 -0.4318
13795SOL    HW147221   0.330   7.366   6.973  0.2783  0.1019 -2.5174
13795SOL    HW247222   0.317   7.517   6.969  0.0479  0.0943 -2.0060
13796SOL     OW47223   9.637   8.954   4.633  0.0578  0.3122  0.1570
13796SOL    HW147224   9.600   8.879   4.680  0.0167  1.0667  1.3680
13796SOL    HW247225   9.589   8.956   4.550  0.3661 -1.2497 -0.0967
13797SOL     OW47226   1.272   9.285   0.620 -0.1043 -0.3568  1.0600
13797SOL    HW147227   1.281   9.248   0.532  0.2750 -0.9109  1.3252
13797SOL    HW247228   1.229   9.216   0.671 -0.6717  0.1056  1.2220
13798SOL     OW47229   7.163   5.584   0.737  0.1689 -0.0804  0.9597
13798SOL    HW147230   7.257   5.566   0.731  0.0096 -0.9388  1.0144
13798SOL    HW247231   7.153   5.671   0.697  0.8997 -0.2422  0.4064
13799SOL     OW47232   4.328   1.110   9.539  0.4226 -0.8609 -0.2162
13799SOL    HW147233   4.413   1.120   9.583  1.6891 -2.0136 -2.2178
13799SOL    HW247234   4.334   1.024   9.496 -1.3473 -0.4961 -1.2888
13800SOL     OW47235   6.035   5.709   4.751  0.3992  0.1554 -0.1588
13800SOL    HW147236   5.952   5.662   4.763  0.1909 -0.0738 -2.1423
13800SOL    HW247237   6.077   5.663   4.678  0.7436  2.2824 -1.3623
13801SOL     OW47238   3.088   5.533   3.283 -0.3012 -0.1068  0.3548
13801SOL    HW147239   3.174   5.543   3.323 -0.2455 -0.2014  0.2626
13801SOL    HW247240   3.106   5.533   3.189 -0.2929 -1.0340  0.3463
13802SOL     OW47241   8.044   1.543   0.784 -0.2643  0.4749  0.8609
13802SOL    HW147242   8.076   1.453   0.795 -0.8380  0.3215  1.3414
13802SOL    HW247243   8.023   1.572   0.873  2.6311  2.1378  1.1388
13803SOL     OW47244   5.703   5.011   5.163 -0.3662 -0.0080  0.0577
13803SOL    HW147245   5.784   4.968   5.135 -0.5868 -1.4335  1.4806
13803SOL    HW247246   5.650   5.016   5.084  0.4723 -0.5256 -0.5570
13804SOL     OW47247   0.958   3.221   9.097  0.0256  0.2146 -0.1810
13804SOL    HW147248   0.985   3.233   9.188  1.0642  1.4378 -0.6162
13804SOL    HW247249   0.876   3.172   9.102  0.4774 -0.4522  1.3715
13805SOL     OW47250   3.138   7.404   2.497  0.4058  0.0819 -0.1632
13805SOL    HW147251   3.102   7.327   2.452 -0.8514  0.2033  0.5887
13805SOL    HW247252   3.095   7.404   2.582  1.2675  0.9796  0.2911
13806SOL     OW47253   6.484   3.769   0.228 -0.3830 -0.1017 -0.0883
13806SOL    HW147254   6.491   3.752   0.322 -0.3302 -1.6102 -0.3517
13806SOL    HW247255   6.428   3.699   0.194  1.2066 -0.7422 -1.5011
13807SOL     OW47256   8.996   4.997   1.938  0.1741 -0.0028  0.0237
13807SOL    HW147257   8.982   4.942   1.861  2.5422  1.5317 -1.6573
13807SOL    HW247258   9.064   4.953   1.988 -0.5464 -0.4173  0.6554
13808SOL     OW47259   1.945   4.942   5.326 -0.2160 -0.4654  0.0662
13808SOL    HW147260   1.965   4.850   5.343  1.1127 -0.2298 -0.0984
13808SOL    HW247261   2.030   4.982   5.307 -1.0440  0.2183 -2.6892
13809SOL     OW47262   3.030   0.265   4.794  0.2110 -0.3456 -0.1151
13809SOL    HW147263   3.010   0.330   4.862  1.9159 -0.1811  0.2739
13809SOL    HW247264   2.986   0.186   4.823  0.2942 -0.0705  0.8165
13810SOL     OW47265   3.961  10.661   0.576  1.0765  0.1383 -0.7906
13810SOL    HW147266   3.926  10.750   0.580  1.7429  0.3689  0.3258
13810SOL    HW247267   3.884  10.605   0.574  0.6419  0.6829  0.1275
13811SOL     OW47268   4.271   2.274   4.528 -0.0398  0.1067 -0.3810
13811SOL    HW147269   4.333   2.238   4.465 -1.0274  0.4487 -1.6010
13811SOL    HW247270   4.303   2.361   4.547 -0.9324  0.9127 -2.2551
13812SOL     OW47271   1.581  10.201   4.447  0.4474 -0.5274  0.2128
13812SOL    HW147272   1.581  10.293   4.473  1.4392  0.8625 -3.9777
13812SOL    HW247273   1.489  10.174   4.452 -0.5121  1.9243 -1.9121
13813SOL     OW47274   7.257   2.053   0.842 -0.0965  0.0618  0.2655
13813SOL    HW147275   7.249   1.965   0.879  0.8756  0.6643  2.0322
13813SOL    HW247276   7.330   2.045   0.781  0.3986 -0.2396  0.8767
13814SOL     OW47277   4.893   2.339   8.535  0.3931 -0.2438 -0.5951
13814SOL    HW147278   4.959   2.399   8.501  0.5451 -0.7971 -1.2820
13814SOL    HW247279   4.935   2.254   8.536 -0.3162 -0.6128 -1.0936
13815SOL     OW47280   6.419   3.021   7.193 -0.1621 -0.2864  0.1519
13815SOL    HW147281   6.436   3.102   7.241  0.7604 -1.2897  1.6109
13815SOL    HW247282   6.334   2.991   7.224 -3.2609  2.6927 -4.2554
13816SOL     OW47283   5.877   1.740   4.756  0.6051 -0.4490 -0.1997
13816SOL    HW147284   5.852   1.808   4.694  0.5035 -0.5781 -0.2997
13816SOL    HW247285   5.796   1.717   4.801  0.7048 -0.2539  0.0830
13817SOL     OW47286   6.494   1.754   1.469 -0.1118 -0.2529 -0.9390
13817SOL    HW147287   6.562   1.769   1.403 -0.7190 -0.3142 -1.5936
13817SOL    HW247288   6.451   1.838   1.479  0.0041 -0.2347 -0.5860
13818SOL     OW47289   7.264   2.602   1.090  0.1133  0.3401  0.2407
13818SOL    HW147290   7.291   2.657   1.164 -0.4216 -1.0341  1.4980
13818SOL    HW247291   7.278   2.513   1.120  0.3972 -0.2528 -1.5460
13819SOL     OW47292   4.386   8.050   3.977 -0.3155  0.3634  0.6809
13819SOL    HW147293   4.434   8.084   4.053 -0.2173 -1.4154  1.4648
13819SOL    HW247294   4.310   8.108   3.969 -0.3792  0.5425  2.2035
13820SOL     OW47295   1.399   2.224   8.787 -0.2344  0.4454  0.1723
13820SOL    HW147296   1.452   2.244   8.864 -1.3242  1.6867  0.6306
13820SOL    HW247297   1.309   2.220   8.820 -0.5619 -0.5838 -0.7734
13821SOL     OW47298   6.558   2.262   3.529 -0.2955  0.0670  0.5747
13821SOL    HW147299   6.557   2.310   3.612  0.2652 -0.1835  0.7348
13821SOL    HW247300   6.467   2.237   3.514  0.0157 -2.9335  2.9190
13822SOL     OW47301   9.715   2.549   4.969 -0.7131  0.0521  0.2130
13822SOL    HW147302   9.755   2.609   5.033  1.3757 -2.9683  2.0330
13822SOL    HW247303   9.626   2.535   5.002 -0.0056 -0.6407  1.9897
13823SOL     OW47304   4.148   8.195   5.756  0.1594  0.1130  0.5358
13823SOL    HW147305   4.053   8.197   5.773  0.1826  1.3402  0.6349
13823SOL    HW247306   4.185   8.149   5.831 -0.4136 -1.1141  0.1011
13824SOL     OW47307   6.144   2.008   5.902  0.4937 -0.2986 -0.1434
13824SOL    HW147308   6.105   1.955   5.972 -0.8419  0.3775 -0.3496
13824SOL    HW247309   6.121   1.961   5.821  0.0149  0.1565 -0.2726
13825SOL     OW47310   2.731   1.923   9.059  0.0571 -0.1428  0.0504
13825SOL    HW147311   2.820   1.899   9.086  0.3032  0.1098 -0.5414
13825SOL    HW247312   2.739   1.945   8.967 -0.8253 -1.2350 -0.3131
13826SOL     OW47313   5.994   5.288   7.025 -0.5039 -0.3922  0.3518
13826SOL    HW147314   6.019   5.319   7.112 -0.5168  1.6718 -0.3389
13826SOL    HW247315   6.063   5.226   7.001  0.3024  0.1402  1.2299
13827SOL     OW47316   4.600   8.428   2.535 -0.5748  0.4032  0.2738
13827SOL    HW147317   4.564   8.343   2.562 -1.6344  0.3423 -1.2312
13827SOL    HW247318   4.537   8.492   2.567 -0.9621  0.4462 -0.5527
13828SOL     OW47319   8.239   3.328   8.865 -0.1288 -0.7021 -0.3095
13828SOL    HW147320   8.159   3.378   8.885  0.6760 -0.0217  1.3410
13828SOL    HW247321   8.213   3.237   8.875 -0.0449 -0.4609  3.2621
13829SOL     OW47322   3.162   4.659   7.193 -0.2991 -0.2802 -0.1864
13829SOL    HW147323   3.097   4.594   7.168 -1.7952  1.2911 -0.5410
13829SOL    HW247324   3.241   4.634   7.144 -1.0448 -1.4211 -0.8320
13830SOL     OW47325   6.702   2.076   5.678  0.6972 -0.3843  0.0104
13830SOL    HW147326   6.746   2.160   5.667  1.1264 -0.7994 -1.7598
13830SOL    HW247327   6.709   2.057   5.771 -0.5563  2.1298  0.6842
13831SOL     OW47328   4.416   3.408   6.157 -0.1631  0.2993  0.2938
13831SOL    HW147329   4.380   3.377   6.074  0.9903  0.3260 -0.2312
13831SOL    HW247330   4.477   3.339   6.184 -0.2639  0.4567  0.9514
13832SOL     OW47331  10.108   5.058   6.472  0.7566  0.0359  0.1486
13832SOL    HW147332  10.198   5.088   6.460  0.7531 -0.2867 -0.6843
13832SOL    HW247333  10.098   4.985   6.411  0.0689 -0.2264  0.5651
13833SOL     OW47334   9.680   9.253   6.840  0.1773  0.6220 -0.7994
13833SOL    HW147335   9.597   9.242   6.795  0.5828  1.2316 -1.7139
13833SOL    HW247336   9.734   9.179   6.812 -0.5520 -0.6799  1.0193
13834SOL     OW47337   3.993   1.115   6.371 -0.0509  0.7289 -0.3238
13834SOL    HW147338   4.067   1.153   6.323 -0.4096  1.9003  0.0249
13834SOL    HW247339   3.928   1.096   6.304  0.0259  0.9946 -0.4750
13835SOL     OW47340   4.608   2.953   8.787 -0.4460  0.5066  0.2212
13835SOL    HW147341   4.597   3.016   8.859  0.8577  1.7038 -0.5694
13835SOL    HW247342   4.693   2.975   8.750 -0.6255 -0.7967 -1.0178
13836SOL     OW47343   4.645   3.650   1.598 -0.3849 -0.0319  0.3117
13836SOL    HW147344   4.731   3.692   1.592 -0.2887 -0.3345 -0.7111
13836SOL    HW247345   4.651   3.577   1.536 -1.7802  0.6748 -0.7205
13837SOL     OW47346   2.779   0.256   6.939 -0.0059  0.2331 -0.3209
13837SOL    HW147347   2.760   0.349   6.926 -0.7379  0.4221  1.6496
13837SOL    HW247348   2.738   0.212   6.864  0.3149  1.4869 -1.2521
13838SOL     OW47349  10.765   5.755  10.026 -0.1596  0.2024 -0.1955
13838SOL    HW147350  10.776   5.678   9.970 -0.3028 -0.3414  0.5100
13838SOL    HW247351  10.688   5.799   9.990 -1.9855 -1.6384  1.2009
13839SOL     OW47352   9.421   6.293   9.563 -0.1133 -0.2126  0.6283
13839SOL    HW147353   9.468   6.376   9.574  1.1939 -1.0570  1.8497
13839SOL    HW247354   9.437   6.268   9.472  0.7057  0.1718  0.6571
13840SOL     OW47355   2.449   6.277   9.155 -0.6246  0.4231 -0.6767
13840SOL    HW147356   2.439   6.245   9.244 -1.4881 -2.9388 -1.8263
13840SOL    HW247357   2.386   6.349   9.148  0.1802  1.4506  1.6268
13841SOL     OW47358   8.956   0.739   8.449 -0.4931  0.1660  0.0407
13841SOL    HW147359   8.912   0.824   8.446 -0.5301  0.2389  1.6326
13841SOL    HW247360   8.897   0.679   8.403 -0.9916  0.7813 -0.1346
13842SOL     OW47361   2.756   3.738   7.564 -0.2414 -0.0623  0.2185
13842SOL    HW147362   2.782   3.817   7.516  1.1913  0.0749  1.1461
13842SOL    HW247363   2.817   3.734   7.637 -1.7077 -0.8263  1.4511
13843SOL     OW47364   7.132   1.769   1.835 -0.3293  0.8255 -0.2709
13843SOL    HW147365   7.131   1.675   1.821  2.8430  0.9026 -1.7669
13843SOL    HW247366   7.138   1.807   1.747  0.9790  2.2860  0.3944
13844SOL     OW47367   3.993   4.117   0.792  0.0495  0.4587 -0.2767
13844SOL    HW147368   4.010   4.211   0.790  0.1490  0.4476  0.0284
13844SOL    HW247369   3.919   4.107   0.853 -0.7638  0.4601 -1.2264
13845SOL     OW47370   6.994   0.596   4.138  0.4951  0.0693  0.3992
13845SOL    HW147371   6.938   0.619   4.064  1.2812 -2.5459 -1.1634
13845SOL    HW247372   7.078   0.639   4.119  0.7213 -0.6617 -0.3286
13846SOL     OW47373   2.907   8.169   8.743  0.9785 -0.1126 -0.2822
13846SOL    HW147374   2.892   8.084   8.703  0.7666 -0.3527  0.2922
13846SOL    HW247375   2.857   8.230   8.689 -1.5345 -0.7824  1.1194
13847SOL     OW47376   6.380   6.927   1.099 -0.8029  0.2731 -0.1526
13847SOL    HW147377   6.366   7.011   1.055  1.8295  1.6317  1.3441
13847SOL    HW247378   6.468   6.901   1.072 -0.9497 -1.1914  0.7143
13848SOL     OW47379   8.545   1.912   9.859  0.2996 -0.8182 -0.1687
13848SOL    HW147380   8.469   1.901   9.915  0.9626 -1.9898  0.5506
13848SOL    HW247381   8.614   1.942   9.919  0.0746  1.7154 -1.0595
13849SOL     OW47382   2.387   8.912   7.786  0.0373 -0.2698  0.3627
13849SOL    HW147383   2.479   8.888   7.794 -0.1195 -0.2477  3.0433
13849SOL    HW247384   2.342   8.831   7.761  0.6297 -0.5363  0.1533
13850SOL     OW47385   4.478   9.797   8.526  0.2168 -0.1319  0.0291
13850SOL    HW147386   4.551   9.858   8.539 -0.0018 -0.0173  0.8164
13850SOL    HW247387   4.460   9.800   8.432  0.7894  0.3447 -0.0701
13851SOL     OW47388   2.512   8.131   2.223 -0.7296 -0.1995  0.0771
13851SOL    HW147389   2.518   8.162   2.313 -0.5424 -1.1010  0.3824
13851SOL    HW247390   2.496   8.037   2.230  1.0323 -0.6166 -0.8248
13852SOL     OW47391   2.644   6.211   4.095 -0.0430  0.2639  0.0635
13852SOL    HW147392   2.657   6.256   4.012  0.7148 -0.1801 -0.0664
13852SOL    HW247393   2.686   6.267   4.160 -0.9321  0.7807  0.2030
13853SOL     OW47394   5.793   6.719   2.997 -0.3692 -0.3219 -0.0675
13853SOL    HW147395   5.816   6.739   2.906  1.2812 -1.1617  0.1310
13853SOL    HW247396   5.778   6.625   2.998  2.3319 -0.8333  0.9917
13854SOL     OW47397   4.928   3.624   2.347  0.6925  0.0171 -0.0399
13854SOL    HW147398   4.857   3.670   2.392  0.2583 -1.2411  0.5964
13854SOL    HW247399   4.926   3.660   2.258  0.1204  0.9397  0.3230
13855SOL     OW47400   4.107   3.884   0.933 -0.1191  0.0171 -0.1003
13855SOL    HW147401   4.041   3.935   0.887 -0.3695 -0.3405 -0.1392
13855SOL    HW247402   4.189   3.930   0.916 -0.2508  0.0462 -0.6670
13856SOL     OW47403  10.258   2.361   6.750 -0.7235  0.0198 -0.0874
13856SOL    HW147404  10.302   2.399   6.674  0.4402 -1.6135 -0.2932
13856SOL    HW247405  10.166   2.380   6.737 -0.6357 -0.7914 -2.3112
13857SOL     OW47406   4.885   2.277   2.642 -0.2058  0.4002 -0.7031
13857SOL    HW147407   4.872   2.200   2.586 -0.5933 -1.6932  2.0552
13857SOL    HW247408   4.801   2.323   2.641 -0.3453  0.1467 -1.4271
13858SOL     OW47409   6.850   3.674   1.953  0.9064 -0.5928 -0.4391
13858SOL    HW147410   6.939   3.663   1.919  0.2383  0.0281 -2.5342
13858SOL    HW247411   6.796   3.618   1.896 -0.2117  0.0927 -0.0847
13859SOL     OW47412   7.915  10.483   2.208 -0.6259  0.5002  0.3255
13859SOL    HW147413   7.933  10.397   2.246  0.5565  0.3907 -0.4222
13859SOL    HW247414   7.820  10.494   2.217 -0.5312  0.0325  2.2974
13860SOL     OW47415   9.988   1.147   9.263  0.2187 -0.3271 -0.5865
13860SOL    HW147416  10.083   1.152   9.255  0.3639 -1.0257  0.5625
13860SOL    HW247417   9.969   1.182   9.350 -0.3599 -2.2162  0.0815
13861SOL     OW47418   4.471   0.454   1.663  0.4952 -0.0261  0.2230
13861SOL    HW147419   4.509   0.368   1.680  1.2057 -0.4411 -2.8056
13861SOL    HW247420   4.536   0.498   1.609 -1.2736  1.1135 -1.0888
13862SOL     OW47421   7.591  10.095  10.886  0.0965 -0.1950  0.0949
13862SOL    HW147422   7.613  10.040  10.961  1.6767 -2.2915 -1.7394
13862SOL    HW247423   7.665  10.083  10.826 -1.2822  1.0175 -1.9765
13863SOL     OW47424   6.442   0.452   3.924  0.1757  0.4097 -0.4236
13863SOL    HW147425   6.480   0.472   3.838  1.4409 -0.5896 -0.1412
13863SOL    HW247426   6.434   0.537   3.967 -1.0779  0.9991 -1.7360
13864SOL     OW47427   9.056   3.841   7.069 -0.0239  0.6600  0.5581
13864SOL    HW147428   8.982   3.849   7.128 -1.3156 -0.6430 -0.7925
13864SOL    HW247429   9.059   3.925   7.023 -0.0950  1.0345  1.2187
13865SOL     OW47430   2.696   1.026   7.356 -0.3235  0.0720  0.0705
13865SOL    HW147431   2.614   0.982   7.380  0.7356 -0.6216  2.6417
13865SOL    HW247432   2.697   1.105   7.408 -0.0258  0.8648 -1.1018
13866SOL     OW47433   0.296   3.577   0.718 -0.2627 -0.2112 -0.0700
13866SOL    HW147434   0.223   3.595   0.778 -1.0574 -0.5789 -0.8998
13866SOL    HW247435   0.367   3.546   0.774 -0.2584  1.4687  0.9172
13867SOL     OW47436   9.708   1.270   3.643  0.3693  0.3477 -0.1725
13867SOL    HW147437   9.657   1.193   3.618  0.7327 -0.0629  0.3424
13867SOL    HW247438   9.715   1.321   3.562  0.0361 -0.1026 -0.4910
13868SOL     OW47439  10.283   2.653   8.651 -0.2242  0.6589  0.4221
13868SOL    HW147440  10.283   2.571   8.602 -0.0058  1.3107 -0.6945
13868SOL    HW247441  10.329   2.631   8.733  0.6532 -0.1087 -0.2470
13869SOL     OW47442   2.383   9.511   4.718 -0.0620  0.4120  0.9237
13869SOL    HW147443   2.370   9.574   4.647  0.8675 -1.0294 -0.5952
13869SOL    HW247444   2.455   9.548   4.770 -0.7828  1.5039  1.1848
13870SOL     OW47445   4.257   9.200   7.327 -0.8388 -0.5956 -0.0498
13870SOL    HW147446   4.277   9.237   7.241  0.3544  1.5266  1.0258
13870SOL    HW247447   4.297   9.113   7.326 -1.3029 -0.8217 -1.7850
13871SOL     OW47448   0.548  10.609   3.712  0.3774 -0.0641  0.2810
13871SOL    HW147449   0.489  10.619   3.786 -0.0091 -0.4061  0.0194
13871SOL    HW247450   0.590  10.524   3.726 -2.2372 -1.8172 -1.6641
13872SOL     OW47451  10.216  10.448   6.537 -0.4475  0.5940  0.0890
13872SOL    HW147452  10.305  10.480   6.521 -0.4158 -0.0136 -1.1056
13872SOL    HW247453  10.180  10.433   6.450 -1.1731 -0.6246  0.5677
13873SOL     OW47454   5.115   5.901   8.842  0.0365  0.0521 -0.1982
13873SOL    HW147455   5.082   5.832   8.785 -0.7336 -0.5075  0.8848
13873SOL    HW247456   5.049   5.909   8.911  1.0893  0.4787  0.8053
13874SOL     OW47457  10.394  10.590   7.773  0.4776  0.3400  0.5807
13874SOL    HW147458  10.311  10.610   7.816 -1.1407  1.4700 -2.7003
13874SOL    HW247459  10.438  10.675   7.766  0.7936  0.1454  0.1986
13875SOL     OW47460   5.842   8.652   0.005 -0.3413 -0.5700 -0.2603
13875SOL    HW147461   5.824   8.648  -0.089  2.0083 -0.7943 -0.7576
13875SOL    HW247462   5.916   8.593   0.017  1.2440  1.5906  1.2250
13876SOL     OW47463   7.354   9.792  10.017 -0.2558 -0.2115 -0.0022
13876SOL    HW147464   7.358   9.703   9.983  1.8271  0.3419 -1.3746
13876SOL    HW247465   7.379   9.784  10.109 -0.5908 -1.0833  0.0194
13877SOL     OW47466  10.159   0.370   5.236 -0.2032 -0.1871  0.1111
13877SOL    HW147467  10.100   0.420   5.293  1.0658  1.6654 -0.1052
13877SOL    HW247468  10.136   0.279   5.252 -3.4930  0.4166 -0.3826
13878SOL     OW47469   8.294  10.542  10.348  0.1203 -0.4756  0.2064
13878SOL    HW147470   8.389  10.548  10.359 -0.0398  1.2725  0.9159
13878SOL    HW247471   8.262  10.520  10.436 -0.1529 -0.9531 -0.0107
13879SOL     OW47472   8.110   4.480   9.738  0.1003  0.2175 -0.1813
13879SOL    HW147473   8.081   4.392   9.763  1.4608  0.0540  0.9962
13879SOL    HW247474   8.193   4.465   9.692  0.0101  0.8512 -0.5546
13880SOL     OW47475   0.507   5.988  10.644 -0.0018 -0.1488 -0.4334
13880SOL    HW147476   0.432   6.025  10.691 -1.2527 -0.4061 -2.1298
13880SOL    HW247477   0.485   5.896  10.633  0.9702 -0.4155 -0.2086
13881SOL     OW47478   1.221   2.124   1.904  0.5169  0.2177 -0.3054
13881SOL    HW147479   1.138   2.116   1.857  1.1634 -1.5827 -1.2736
13881SOL    HW247480   1.218   2.210   1.945 -1.2586  0.7325 -1.4000
13882SOL     OW47481   1.527   9.701   2.549  0.0278 -0.5161  0.5287
13882SOL    HW147482   1.458   9.657   2.598  1.1204 -2.2043  0.6739
13882SOL    HW247483   1.539   9.785   2.593 -1.6007 -0.3736  0.7582
13883SOL     OW47484   7.069   1.805   6.524  0.1497 -0.7428  0.2171
13883SOL    HW147485   7.037   1.716   6.539  0.1652 -0.3532  3.2178
13883SOL    HW247486   6.993   1.861   6.540  0.1706 -0.1569 -1.5351
13884SOL     OW47487   1.551   3.535   1.525  0.1049  0.2702 -0.0245
13884SOL    HW147488   1.560   3.559   1.617 -0.7813 -0.4661  0.2814
13884SOL    HW247489   1.640   3.524   1.493  0.4061 -0.7690  1.1207
13885SOL     OW47490   1.854   0.156   1.445 -0.6805  0.0859 -0.6782
13885SOL    HW147491   1.775   0.147   1.391 -0.5886  0.5683 -0.9040
13885SOL    HW247492   1.926   0.134   1.386 -0.6071  0.2451 -0.6504
13886SOL     OW47493   5.035   9.145   4.871 -0.9148  0.7512  0.1700
13886SOL    HW147494   5.051   9.201   4.795  1.0770 -0.2014 -0.1859
13886SOL    HW247495   5.087   9.184   4.941  0.0447 -0.2705  0.0656
13887SOL     OW47496   0.612   0.698   8.292  0.1831  0.1643 -0.1208
13887SOL    HW147497   0.590   0.606   8.278 -0.6420  0.4538 -0.8154
13887SOL    HW247498   0.700   0.708   8.255 -0.1629 -0.1120 -1.0471
13888SOL     OW47499   3.580   4.609   7.951  0.5930  0.3973 -0.1337
13888SOL    HW147500   3.635   4.637   8.023  0.4196 -0.5949  0.4009
13888SOL    HW247501   3.506   4.670   7.951  0.5537  0.3516  0.5758
13889SOL     OW47502   7.297   1.946   5.181  0.1343  0.1899 -0.5183
13889SOL    HW147503   7.392   1.956   5.172  0.5875 -0.6897  2.2542
13889SOL    HW247504   7.261   2.031   5.153  1.7039  0.5752 -1.5165
13890SOL     OW47505   5.102   2.493   0.091  0.0163  0.4486 -0.1468
13890SOL    HW147506   5.119   2.587   0.083 -2.5436  1.1628  1.5843
13890SOL    HW247507   5.106   2.476   0.185 -0.5646 -0.9642 -0.3487
13891SOL     OW47508   3.216   9.006   0.284 -0.4696 -0.7613 -0.3299
13891SOL    HW147509   3.198   8.994   0.377 -0.5190 -3.0308 -0.5613
13891SOL    HW247510   3.308   8.981   0.274 -0.0359  0.8859 -0.6946
13892SOL     OW47511  10.533   5.964   9.480 -0.0046 -0.8519  0.0374
13892SOL    HW147512  10.590   5.928   9.412 -1.6158 -2.3186 -0.5937
13892SOL    HW247513  10.587   6.030   9.523  1.9146 -1.6528 -1.0046
13893SOL     OW47514   6.416   3.520   4.084 -0.1519 -0.5072  0.0534
13893SOL    HW147515   6.413   3.504   3.990 -0.2399  0.9861 -0.2262
13893SOL    HW247516   6.326   3.507   4.113 -0.3847  0.2208 -0.3059
13894SOL     OW47517   6.374  10.281   8.016 -0.1799  0.2257  1.2601
13894SOL    HW147518   6.314  10.289   8.090 -0.7950  0.4742  0.7449
13894SOL    HW247519   6.351  10.198   7.974 -0.5828  0.6075  0.7072
13895SOL     OW47520   3.510   7.709   6.446 -0.0255  0.1303 -0.0479
13895SOL    HW147521   3.493   7.737   6.356 -0.0796  1.0108  0.2235
13895SOL    HW247522   3.474   7.620   6.451  0.3181 -0.0694 -0.9956
13896SOL     OW47523   3.938   3.609   1.776  1.0249  0.0422  0.0704
13896SOL    HW147524   3.870   3.588   1.840  1.8287  0.8416  1.2179
13896SOL    HW247525   3.900   3.583   1.692  0.7439 -2.9254  1.0251
13897SOL     OW47526   9.701  10.611   4.334  0.1120 -0.4941  0.1310
13897SOL    HW147527   9.636  10.675   4.304  1.2420  0.4399 -0.3976
13897SOL    HW247528   9.737  10.648   4.414 -1.7571 -2.2372  1.9285
13898SOL     OW47529   7.830   0.922   9.718  0.7171 -0.3725 -0.2527
13898SOL    HW147530   7.832   1.002   9.771 -0.0499  0.0422 -0.8354
13898SOL    HW247531   7.747   0.926   9.671 -0.1055 -2.2803  0.8914
13899SOL     OW47532   7.345   7.570   8.998 -0.3500 -0.0586 -0.5617
13899SOL    HW147533   7.356   7.476   9.012  0.6513  0.3688  2.0462
13899SOL    HW247534   7.372   7.583   8.907  3.1772 -1.8361  0.0223
13900SOL     OW47535   5.470   6.605   7.596  0.0016  0.2862 -0.2712
13900SOL    HW147536   5.413   6.580   7.523  1.2912 -2.5520 -0.4051
13900SOL    HW247537   5.558   6.585   7.565  0.7366  0.8628  1.3875
13901SOL     OW47538   3.988   0.241   5.623  0.2493  0.1736  0.1638
13901SOL    HW147539   3.942   0.167   5.663  0.8139 -0.6737 -0.7002
13901SOL    HW247540   3.965   0.316   5.677 -0.2785 -0.6487  1.1135
13902SOL     OW47541   3.655   2.512   4.259 -0.0020 -0.3022  0.1417
13902SOL    HW147542   3.649   2.556   4.344 -2.7978  1.6365 -0.9156
13902SOL    HW247543   3.729   2.452   4.269  0.0630  0.1211  3.7859
13903SOL     OW47544   7.484   9.270   6.151 -0.3738 -0.0126 -0.8420
13903SOL    HW147545   7.514   9.237   6.236 -1.7510 -1.5759 -0.8955
13903SOL    HW247546   7.433   9.348   6.173  0.9061  0.7450 -0.4549
13904SOL     OW47547   7.308   7.646   9.832  0.0850 -0.0403  0.0755
13904SOL    HW147548   7.294   7.726   9.884 -2.1164 -0.1161 -0.2723
13904SOL    HW247549   7.403   7.639   9.824  0.3807  1.9687  0.9951
13905SOL     OW47550   2.351   3.652   3.325 -0.0875 -0.5661  0.5575
13905SOL    HW147551   2.365   3.746   3.337  0.7194 -0.4074 -1.2208
13905SOL    HW247552   2.256   3.642   3.323 -0.2097 -0.0288  2.1983
13906SOL     OW47553   4.503   6.330   0.757  0.2670 -0.2443 -0.0426
13906SOL    HW147554   4.505   6.275   0.835  0.2843 -0.8782 -0.4762
13906SOL    HW247555   4.537   6.414   0.786 -0.9709 -0.0568  0.9367
13907SOL     OW47556   5.001   1.214   2.602 -0.1769 -0.1021  0.1693
13907SOL    HW147557   4.913   1.186   2.630 -0.6696  1.9225  0.8796
13907SOL    HW247558   5.055   1.135   2.608 -1.7532 -1.1966  0.5813
13908SOL     OW47559   2.256   2.934   3.666 -0.6752  0.6161  0.0488
13908SOL    HW147560   2.187   2.998   3.650 -0.8020  0.4006 -0.2479
13908SOL    HW247561   2.215   2.849   3.655 -0.6668  0.4609  1.0738
13909SOL     OW47562   5.989   2.544   7.909  0.4322 -0.1762 -0.3352
13909SOL    HW147563   6.001   2.495   7.990  3.3032 -1.3639 -1.3858
13909SOL    HW247564   6.037   2.626   7.923  3.3290 -1.5154 -1.6723
13910SOL     OW47565   5.900   5.526   7.269 -0.0013 -0.0426  0.0935
13910SOL    HW147566   5.973   5.522   7.207  0.0854  0.8433  0.1138
13910SOL    HW247567   5.935   5.573   7.345 -0.6165  0.5238  0.0470
13911SOL     OW47568   0.404   8.181   9.065  0.1274 -0.3664 -0.1939
13911SOL    HW147569   0.345   8.107   9.050 -0.4708  0.0796 -0.1210
13911SOL    HW247570   0.484   8.142   9.100 -0.0793 -0.9971 -0.4055
13912SOL     OW47571   2.969   8.331   7.448 -0.2917 -0.0880  0.0376
13912SOL    HW147572   2.934   8.266   7.388 -0.1242 -0.6617  0.5570
13912SOL    HW247573   3.056   8.299   7.471 -1.1487 -1.0395  2.2647
13913SOL     OW47574   1.540   0.153   9.002  0.5335  0.1995 -0.4827
13913SOL    HW147575   1.508   0.080   9.054 -1.0465  1.7594  0.8808
13913SOL    HW247576   1.481   0.156   8.926 -0.5333  1.0723  0.3524
13914SOL     OW47577  10.007   6.161   1.898 -0.1956  0.4979  0.1220
13914SOL    HW147578  10.073   6.165   1.828 -0.2906  1.1770  0.0594
13914SOL    HW247579  10.055   6.179   1.978 -0.2812  0.8786  0.0900
13915SOL     OW47580   4.844   8.033   5.708 -0.5866 -0.3121 -0.4563
13915SOL    HW147581   4.754   8.018   5.737 -0.0997 -1.3805  0.5707
13915SOL    HW247582   4.861   7.962   5.646 -0.6862  0.3299 -1.2346
13916SOL     OW47583   1.315   1.543   2.088 -0.9139  0.1548  0.7703
13916SOL    HW147584   1.309   1.638   2.101 -1.2272  0.1650  0.5477
13916SOL    HW247585   1.277   1.505   2.167  2.4823  0.1746  2.5976
13917SOL     OW47586   7.836   0.829   8.140 -0.4107 -0.2360  0.2535
13917SOL    HW147587   7.872   0.793   8.222  0.1536  1.2233  0.6684
13917SOL    HW247588   7.910   0.875   8.100 -0.5539 -1.3016 -1.3406
13918SOL     OW47589   1.076   0.119   5.073  0.7299  0.4635  0.2073
13918SOL    HW147590   1.100   0.032   5.106 -0.3338  0.3671  0.7772
13918SOL    HW247591   1.063   0.171   5.153  0.6542  0.9452 -0.1181
13919SOL     OW47592   4.011   3.423   8.662 -0.1919  0.2168 -0.3575
13919SOL    HW147593   3.954   3.480   8.713  0.0384  0.6786 -0.6066
13919SOL    HW247594   4.021   3.344   8.715 -0.5116  0.4131 -0.0068
13920SOL     OW47595   9.377   2.422   7.553 -0.1505 -0.7900 -0.1177
13920SOL    HW147596   9.315   2.471   7.499 -0.5749 -2.3649 -1.1474
13920SOL    HW247597   9.352   2.442   7.643 -0.1737  0.9985 -0.4942
13921SOL     OW47598   3.092   4.065   3.616 -0.0659  0.4081 -0.0816
13921SOL    HW147599   3.050   4.109   3.541  0.0449 -0.9983 -1.0102
13921SOL    HW247600   3.088   4.129   3.686 -0.6900  1.5760 -1.1328
13922SOL     OW47601  10.767   1.212   4.987 -0.1567 -0.2764 -0.5655
13922SOL    HW147602  10.853   1.252   4.999  0.5810 -1.2732 -2.2818
13922SOL    HW247603  10.740   1.238   4.899 -2.8361  2.1440  0.7672
13923SOL     OW47604   3.828   1.564   1.276  0.0397  0.0427 -0.0074
13923SOL    HW147605   3.868   1.515   1.347  0.6910 -2.6379 -2.0511
13923SOL    HW247606   3.768   1.502   1.234 -0.6300  1.6230 -1.5581
13924SOL     OW47607   0.937   9.011   7.823  0.1308  0.0170  0.4765
13924SOL    HW147608   0.939   8.964   7.906  0.6539 -0.8394 -0.0055
13924SOL    HW247609   1.029   9.023   7.800 -0.0076 -0.2638 -0.2560
13925SOL     OW47610   3.113   8.212   9.469  0.0720 -0.1210  0.4034
13925SOL    HW147611   3.072   8.259   9.542 -1.3002  0.7374 -0.8525
13925SOL    HW247612   3.141   8.281   9.409  1.9731 -0.7774  0.4628
13926SOL     OW47613   8.940   1.052  10.127 -0.8956  0.4206  0.3849
13926SOL    HW147614   8.856   1.091  10.150 -0.8881 -1.0727  3.4236
13926SOL    HW247615   9.004   1.101  10.179 -0.4959 -1.3956  1.6925
13927SOL     OW47616   0.960   6.688   9.099  0.0795 -0.8127 -0.5602
13927SOL    HW147617   0.903   6.645   9.035 -0.3562 -3.3083  1.3755
13927SOL    HW247618   0.901   6.745   9.149  0.1482 -0.0215 -1.3528
13928SOL     OW47619   4.212  10.919   5.365  0.0242  0.1236  0.8962
13928SOL    HW147620   4.278  10.863   5.405  0.3102  0.8609  1.4729
13928SOL    HW247621   4.149  10.937   5.435  1.1074  2.3122  1.3745
13929SOL     OW47622   1.404   4.720   3.073 -0.1815 -0.3184 -0.7523
13929SOL    HW147623   1.371   4.637   3.108  1.0709 -0.6304 -0.2532
13929SOL    HW247624   1.476   4.695   3.016  0.6492  0.4400 -0.0759
13930SOL     OW47625   9.986  10.584   8.556  0.6822 -0.0892 -0.2905
13930SOL    HW147626   9.934  10.620   8.484  1.2385 -2.0227 -1.7641
13930SOL    HW247627   9.925  10.573   8.628 -0.0330  1.3700 -0.6529
13931SOL     OW47628   7.164   3.715   1.171  0.1909 -0.7206  0.0653
13931SOL    HW147629   7.139   3.791   1.224  0.3912  0.1116 -0.9914
13931SOL    HW247630   7.090   3.655   1.177  0.0158 -0.4268  0.8972
13932SOL     OW47631   4.255   1.865   2.602 -0.1708  0.1659  0.3185
13932SOL    HW147632   4.212   1.933   2.654 -1.0851 -0.5110  0.4584
13932SOL    HW247633   4.274   1.795   2.665  3.0175  1.2312  0.7232
13933SOL     OW47634   5.654   9.877   4.221 -0.0058 -0.4101  0.1166
13933SOL    HW147635   5.600   9.919   4.288 -1.2557 -0.0656 -1.0734
13933SOL    HW247636   5.702   9.949   4.181 -0.4104 -0.4058 -0.3705
13934SOL     OW47637   3.199   2.286   4.812 -0.3778 -0.4303  0.1911
13934SOL    HW147638   3.184   2.209   4.757  0.5024 -0.2168 -0.3653
13934SOL    HW247639   3.171   2.360   4.758  1.4653 -0.1226 -0.4364
13935SOL     OW47640   4.961   6.490   9.744  0.2672 -0.2740  0.2324
13935SOL    HW147641   4.876   6.449   9.760  1.2892 -2.5335  0.2158
13935SOL    HW247642   5.023   6.418   9.747  1.8882  0.8491 -2.7101
13936SOL     OW47643   8.562   3.582   1.763  0.0053 -0.1353 -0.1147
13936SOL    HW147644   8.489   3.622   1.715  1.4579 -0.6704 -2.9978
13936SOL    HW247645   8.582   3.644   1.833 -3.1915 -0.0251  0.8744
13937SOL     OW47646   7.910   0.010   3.419  0.5120 -0.0506  0.0127
13937SOL    HW147647   7.953   0.054   3.492  2.2392 -0.1024 -0.9194
13937SOL    HW247648   7.974  -0.054   3.388 -1.1550 -1.7984  0.0338
13938SOL     OW47649   3.647   0.453   7.668  0.1235  0.1281 -0.7142
13938SOL    HW147650   3.700   0.517   7.620 -2.3353  2.9736  0.0451
13938SOL    HW247651   3.667   0.470   7.760  1.2355 -1.9658 -0.5299
13939SOL     OW47652   5.629   4.922   3.316  0.7588  0.3113 -0.1607
13939SOL    HW147653   5.714   4.933   3.359  1.0060  1.0778 -0.8194
13939SOL    HW247654   5.646   4.942   3.224 -0.2282  0.9436 -0.2261
13940SOL     OW47655   6.150   4.314   7.491  0.1286 -0.3328 -0.0493
13940SOL    HW147656   6.221   4.265   7.450 -0.2801 -0.3665 -0.7343
13940SOL    HW247657   6.134   4.269   7.574  0.2866 -0.8805 -0.3129
13941SOL     OW47658   2.570   5.093   8.124  0.5373 -0.1941 -0.0847
13941SOL    HW147659   2.497   5.113   8.182  0.5881 -0.3341  0.0290
13941SOL    HW247660   2.557   5.149   8.048  0.8696  0.5388  0.3833
13942SOL     OW47661   4.865   1.295   8.981  0.4585  0.3240  0.2756
13942SOL    HW147662   4.926   1.221   8.989  0.1465 -0.1586 -1.4062
13942SOL    HW247663   4.796   1.263   8.923 -0.2463  1.6019  0.3741
13943SOL     OW47664   6.132   1.211   6.026 -0.3295  0.3777 -0.1050
13943SOL    HW147665   6.043   1.190   6.055 -0.8824 -0.1618 -2.0157
13943SOL    HW247666   6.177   1.126   6.026 -0.0630  0.5208  0.0984
13944SOL     OW47667   3.845   1.961   5.442  0.0078  0.0781 -0.5004
13944SOL    HW147668   3.885   2.000   5.520  0.1403 -1.4400  0.2325
13944SOL    HW247669   3.902   1.988   5.370  0.3732  0.7952  0.0346
13945SOL     OW47670   0.398   5.091   3.191 -0.3017  0.0577  0.2532
13945SOL    HW147671   0.304   5.079   3.207 -0.1589 -0.3594  0.8104
13945SOL    HW247672   0.441   5.049   3.266  0.2852  2.1352  1.1349
13946SOL     OW47673   1.918   7.455   5.944 -0.1068 -0.1302 -0.3993
13946SOL    HW147674   1.887   7.388   6.005 -2.8708  2.0455  0.8166
13946SOL    HW247675   1.948   7.526   6.000 -0.4254  0.9710 -1.5807
13947SOL     OW47676   8.925   2.191   8.588 -0.2208 -0.3201 -0.5595
13947SOL    HW147677   8.986   2.123   8.560  1.6159  1.8052 -2.1346
13947SOL    HW247678   8.974   2.241   8.654 -0.4113  1.0772 -1.4352
13948SOL     OW47679   7.694   9.599   4.080  0.3188 -0.5801  0.5644
13948SOL    HW147680   7.632   9.662   4.117 -1.5012 -1.2719 -1.1749
13948SOL    HW247681   7.665   9.514   4.115  0.8479 -0.8161  0.4353
13949SOL     OW47682   2.162   9.081   7.030 -0.7080 -0.0097  0.2313
13949SOL    HW147683   2.158   9.009   7.093 -1.6299  0.1911  0.4160
13949SOL    HW247684   2.070   9.106   7.016 -0.3679  1.8836  1.0453
13950SOL     OW47685   3.171   9.226   0.600  0.5840 -0.0678 -0.2086
13950SOL    HW147686   3.133   9.314   0.591  0.5436 -0.0763 -0.1242
13950SOL    HW247687   3.262   9.236   0.572  0.3335 -0.1983 -1.0907
13951SOL     OW47688   3.988   0.533   9.013  0.5247 -0.1850  0.0012
13951SOL    HW147689   3.901   0.504   9.039  0.0865  2.2610  1.5624
13951SOL    HW247690   4.002   0.492   8.927 -1.3261 -2.1473  0.5415
13952SOL     OW47691   1.226   2.168   6.638  0.5481  0.1651  0.6103
13952SOL    HW147692   1.272   2.215   6.708  0.9741  1.0759 -0.2560
13952SOL    HW247693   1.290   2.104   6.606  0.8691  0.7301  0.0989
13953SOL     OW47694  10.484   2.474   7.591 -0.4780 -0.3501  0.4789
13953SOL    HW147695  10.416   2.486   7.524  0.8466 -0.8017 -1.0221
13953SOL    HW247696  10.566   2.469   7.541  0.6477 -0.0827  2.2041
13954SOL     OW47697   7.357   1.617  10.146  0.0666 -0.5507  0.3306
13954SOL    HW147698   7.299   1.583  10.214 -0.7945 -0.4023 -0.3039
13954SOL    HW247699   7.307   1.607  10.064  0.2215  1.1460 -0.0203
13955SOL     OW47700   9.689   1.941   5.884 -0.2011 -0.3829  0.5097
13955SOL    HW147701   9.721   1.863   5.840  3.4958  2.0374 -1.6871
13955SOL    HW247702   9.750   1.955   5.956 -0.6787  0.5561  0.7532
13956SOL     OW47703   7.150  10.319   5.050  0.1365  0.2414 -0.0718
13956SOL    HW147704   7.227  10.267   5.075 -0.6011 -1.3781 -1.0090
13956SOL    HW247705   7.154  10.323   4.954 -0.7113  0.5215 -0.1041
13957SOL     OW47706   1.746   7.274   0.624  0.2382  0.4498 -0.8654
13957SOL    HW147707   1.680   7.299   0.689 -2.2210 -0.6589 -2.7250
13957SOL    HW247708   1.824   7.254   0.675 -1.8192 -1.3174  1.9050
13958SOL     OW47709   3.392   4.943   3.270  0.3436 -0.6623  0.3709
13958SOL    HW147710   3.450   5.016   3.290 -0.2617 -0.7067  2.4990
13958SOL    HW247711   3.304   4.980   3.273  0.1387 -0.9944 -0.9646
13959SOL     OW47712   3.387   4.054  10.756 -0.1414  0.2160 -0.0276
13959SOL    HW147713   3.422   4.132  10.714 -0.4777  0.5645  0.3284
13959SOL    HW247714   3.460   3.993  10.758 -0.1524  0.1454 -1.2213
13960SOL     OW47715   9.327   1.900   2.530  0.2154  0.0776 -0.3332
13960SOL    HW147716   9.259   1.833   2.518 -0.9023  0.8862  1.1572
13960SOL    HW247717   9.312   1.963   2.461 -1.4737  0.9576  0.7887
13961SOL     OW47718   8.568   3.686   2.363 -0.1170 -0.1990  0.6165
13961SOL    HW147719   8.572   3.659   2.455 -0.1872 -0.1346  0.6382
13961SOL    HW247720   8.646   3.646   2.323 -0.1175 -0.2729  0.6910
13962SOL     OW47721  10.710   5.091   5.370 -0.1017 -0.2352 -0.3798
13962SOL    HW147722  10.711   5.184   5.349  1.7482 -0.2828 -0.6324
13962SOL    HW247723  10.729   5.087   5.464 -0.2678 -0.3700 -0.3499
13963SOL     OW47724   8.187   7.838   8.941  0.1471  0.4187 -0.4761
13963SOL    HW147725   8.128   7.913   8.933 -1.7513 -0.4999  2.8360
13963SOL    HW247726   8.149   7.786   9.012  3.0985 -2.0866 -0.5390
13964SOL     OW47727   3.219   8.006  10.400  0.2821 -0.3111 -0.2783
13964SOL    HW147728   3.186   8.095  10.407 -0.0463 -0.4636  0.1308
13964SOL    HW247729   3.313   8.014  10.419 -0.0718 -0.3100  1.7015
13965SOL     OW47730   0.525   8.439   0.734 -0.0837 -0.4292  0.1282
13965SOL    HW147731   0.431   8.426   0.720 -0.3278 -0.3365  1.5295
13965SOL    HW247732   0.558   8.353   0.757  0.0996 -0.3945 -0.0063
13966SOL     OW47733   5.555   8.425   7.624  0.2612  0.2027 -0.0878
13966SOL    HW147734   5.597   8.350   7.583 -0.4493 -0.4776  0.3795
13966SOL    HW247735   5.465   8.423   7.590  0.5846  1.6757 -1.1419
13967SOL     OW47736   4.275   5.421   6.214 -0.4180  0.4437 -0.3171
13967SOL    HW147737   4.266   5.342   6.161 -1.1905  0.4333 -0.1821
13967SOL    HW247738   4.340   5.397   6.280 -1.2509 -0.3791  0.2382
13968SOL     OW47739   0.639   7.631   1.687 -0.5437  0.1265  0.4384
13968SOL    HW147740   0.730   7.600   1.690 -0.0809  1.4244  0.2977
13968SOL    HW247741   0.587   7.556   1.718  0.3828 -1.3257 -1.2854
13969SOL     OW47742   1.744   2.360   2.477 -0.6780 -0.2598  0.1605
13969SOL    HW147743   1.665   2.341   2.528  0.4208 -2.5251  1.1489
13969SOL    HW247744   1.751   2.456   2.478 -2.1253 -0.1252  2.0601
13970SOL     OW47745   5.436   4.997   5.042  0.1411  0.3009  0.6260
13970SOL    HW147746   5.433   4.920   4.985 -1.3042 -0.8374  2.1393
13970SOL    HW247747   5.375   5.059   5.002  0.0804  0.0103  0.2601
13971SOL     OW47748   7.563   0.871   4.073  0.0101  0.2376  0.2492
13971SOL    HW147749   7.628   0.895   4.139 -1.8597  0.5665  2.0769
13971SOL    HW247750   7.583   0.780   4.052  0.8452  0.2219  1.0334
13972SOL     OW47751   4.212   4.950   7.885  0.1401 -0.2432 -0.1340
13972SOL    HW147752   4.129   4.952   7.838  0.3988 -0.1775 -0.6015
13972SOL    HW247753   4.278   4.965   7.817  0.4012  2.5388  0.5976
13973SOL     OW47754   8.671   5.127   0.932  0.5904 -0.1737 -0.1346
13973SOL    HW147755   8.593   5.071   0.935  1.2824 -1.2145 -0.6991
13973SOL    HW247756   8.667   5.170   0.847  1.0738 -0.9127 -0.5399
13974SOL     OW47757   6.276   8.795   0.050 -0.2551  0.0475 -0.2143
13974SOL    HW147758   6.370   8.795   0.069 -0.0218 -1.8087 -1.1383
13974SOL    HW247759   6.235   8.811   0.134  0.8840 -0.2124  0.4194
13975SOL     OW47760   6.444   6.823   6.228 -0.2739  0.2133 -0.0075
13975SOL    HW147761   6.413   6.872   6.152 -0.4813  0.3854  0.1865
13975SOL    HW247762   6.400   6.739   6.222 -2.8719  1.3435  1.6664
13976SOL     OW47763   4.923   2.290   3.860 -0.4673  0.8397  0.0075
13976SOL    HW147764   4.946   2.383   3.867  0.6130  0.6902 -1.0965
13976SOL    HW247765   4.875   2.283   3.778  0.0594  0.3338 -0.2678
13977SOL     OW47766   7.728   7.177   2.665 -0.1066 -0.3438  0.5740
13977SOL    HW147767   7.818   7.173   2.632 -0.1181  1.1455  0.2678
13977SOL    HW247768   7.678   7.118   2.609  0.6230 -0.9663  0.5662
13978SOL     OW47769   5.790   3.965   0.016 -0.3146 -0.0680  0.0687
13978SOL    HW147770   5.713   4.011  -0.016 -0.8670 -0.0633  1.3393
13978SOL    HW247771   5.756   3.900   0.077  0.7161  0.3943  1.1915
13979SOL     OW47772   0.295  10.103   7.943  0.9011  0.4090  0.2545
13979SOL    HW147773   0.259  10.143   7.864 -0.4414 -0.4040  0.4297
13979SOL    HW247774   0.362  10.043   7.911  0.0779 -0.2269 -0.3166
13980SOL     OW47775   5.027   3.796  10.672 -0.2291 -0.2161  0.2900
13980SOL    HW147776   4.965   3.729  10.701 -2.3550  1.0882 -0.9682
13980SOL    HW247777   4.998   3.819  10.584  0.5319  2.1848  0.5786
13981SOL     OW47778   6.126   3.157   7.402 -0.4134  0.1970  0.0579
13981SOL    HW147779   6.180   3.200   7.336 -1.4623  1.2096 -0.1835
13981SOL    HW247780   6.061   3.108   7.351 -1.7044  1.5987  0.2890
13982SOL     OW47781   1.363   6.225   5.931  0.3623 -0.5102 -0.0161
13982SOL    HW147782   1.380   6.300   5.873  0.0246 -0.6220 -0.2653
13982SOL    HW247783   1.284   6.251   5.980  1.2021 -0.0062  1.1072
13983SOL     OW47784   0.083   8.487   9.503 -0.2605  0.2528  0.4780
13983SOL    HW147785   0.158   8.532   9.463  0.8021 -0.2206  1.8464
13983SOL    HW247786   0.116   8.457   9.587 -1.7308 -0.8265  0.7001
13984SOL     OW47787   6.163   4.963   3.264 -0.0767 -0.7170 -0.0706
13984SOL    HW147788   6.158   5.058   3.276 -2.2403 -0.9216  1.1663
13984SOL    HW247789   6.168   4.950   3.170  0.9436  0.6142 -0.2302
13985SOL     OW47790   3.834   6.280   5.128 -0.4102  0.2162  0.2921
13985SOL    HW147791   3.780   6.338   5.075 -0.0427  0.2725 -0.0215
13985SOL    HW247792   3.871   6.217   5.066 -0.7870 -0.3409  0.6250
13986SOL     OW47793   3.058   0.210   1.934  0.3595 -0.3004 -0.0186
13986SOL    HW147794   3.006   0.146   1.886 -0.0098 -0.6560  0.8509
13986SOL    HW247795   3.142   0.166   1.950 -0.0599 -0.7653  0.9943
13987SOL     OW47796   2.234   8.991   9.436 -0.2323  0.1136 -0.3338
13987SOL    HW147797   2.254   9.082   9.457  1.1811  0.0345 -1.2228
13987SOL    HW247798   2.233   8.947   9.521  3.2741  0.1989 -0.1114
13988SOL     OW47799   5.750   6.758   3.527  0.1726 -0.3143 -0.8384
13988SOL    HW147800   5.729   6.846   3.559  0.7284  0.3639 -2.2381
13988SOL    HW247801   5.706   6.752   3.442 -0.2134 -1.5635 -0.5619
13989SOL     OW47802   5.412   2.158   7.792 -0.1596 -0.6461 -0.5183
13989SOL    HW147803   5.370   2.235   7.754  1.2887  0.1359 -0.6274
13989SOL    HW247804   5.362   2.083   7.758 -2.1175  0.2481  0.2659
13990SOL     OW47805   5.874   0.940   6.650 -0.5507 -0.3590  0.0854
13990SOL    HW147806   5.944   0.895   6.602 -0.3208  0.8690 -0.7759
13990SOL    HW247807   5.903   0.938   6.741  0.1391 -0.7098 -0.1278
13991SOL     OW47808   5.580   5.038   8.207 -0.1089 -0.0303  0.2053
13991SOL    HW147809   5.669   5.046   8.242 -0.0914  0.2946  0.0861
13991SOL    HW247810   5.584   5.080   8.121 -0.6514  1.0331  0.6830
13992SOL     OW47811  10.637   7.292   3.562 -0.1629 -0.0598 -0.6127
13992SOL    HW147812  10.599   7.344   3.633  0.9801 -0.6119  0.4293
13992SOL    HW247813  10.593   7.324   3.483 -0.5320  1.4706  0.1765
13993SOL     OW47814   3.882   0.514   0.353  0.0398  0.2395  0.3345
13993SOL    HW147815   3.952   0.517   0.288  0.3588 -0.4658  0.6440
13993SOL    HW247816   3.809   0.561   0.311  0.3818  0.1650 -0.3560
13994SOL     OW47817   7.866   9.723  10.475  0.5446  0.6270 -0.2644
13994SOL    HW147818   7.868   9.685  10.563  0.8826  0.8452 -0.1762
13994SOL    HW247819   7.798   9.673  10.429  1.9392 -1.0263 -0.6091
13995SOL     OW47820  10.455   6.194   7.816  0.3138  0.2162 -0.0262
13995SOL    HW147821  10.454   6.178   7.910 -1.5704 -1.3919 -0.2591
13995SOL    HW247822  10.434   6.109   7.777  0.1590  1.0522 -1.8799
13996SOL     OW47823   4.196   0.607  10.173 -0.2382  0.3390  0.2914
13996SOL    HW147824   4.118   0.551  10.164 -1.3514  1.7636  0.6608
13996SOL    HW247825   4.263   0.563  10.121 -2.0428  0.4088 -2.2857
13997SOL     OW47826   9.703   5.474   7.440  0.1151 -0.2783 -0.3700
13997SOL    HW147827   9.656   5.553   7.467 -0.2007 -0.5590 -0.0940
13997SOL    HW247828   9.715   5.425   7.521  0.6924 -0.3127 -0.4744
13998SOL     OW47829  10.402   5.172   0.088  0.4747 -0.0736 -0.2995
13998SOL    HW147830  10.406   5.078   0.069  0.7865 -0.6752  2.3823
13998SOL    HW247831  10.493   5.202   0.081  0.3698  0.0788 -1.1976
13999SOL     OW47832   1.741   9.211   0.070 -0.5390  0.5059  0.1982
13999SOL    HW147833   1.740   9.149  -0.003  0.4004  1.7252 -0.9026
13999SOL    HW247834   1.758   9.296   0.029  0.5368  1.1618  1.8766
14000SOL     OW47835   0.901   3.295   1.018  0.4673 -0.3525 -0.2220
14000SOL    HW147836   0.868   3.364   1.075  0.3709  0.3409 -1.0967
14000SOL    HW247837   0.975   3.257   1.067 -0.1963 -0.4163  0.7621
14001SOL     OW47838   8.894   6.932   8.991  0.1581 -0.0509  0.5628
14001SOL    HW147839   8.989   6.939   9.000  0.1977  0.2267 -0.0360
14001SOL    HW247840   8.882   6.870   8.918 -0.0849  1.5679 -0.8328
14002SOL     OW47841  10.590   2.610   5.052 -0.1869  0.5026 -0.2015
14002SOL    HW147842  10.654   2.677   5.078  1.3641 -0.3446 -1.6133
14002SOL    HW247843  10.613   2.533   5.104  0.3899  0.0153 -1.1294
14003SOL     OW47844   1.501   2.003   4.343 -0.5206 -0.0797 -0.1401
14003SOL    HW147845   1.539   1.943   4.407  0.3325  0.2020 -0.3636
14003SOL    HW247846   1.553   1.990   4.263  0.8738  2.1709  0.2990
14004SOL     OW47847   7.539   9.734   4.481 -0.8259 -0.2408  0.0860
14004SOL    HW147848   7.539   9.745   4.576  0.9755  1.3446 -0.0414
14004SOL    HW247849   7.598   9.660   4.466 -0.7770 -0.2212  0.1783
14005SOL     OW47850   1.633   3.669   7.270  0.0318 -0.4400  0.0530
14005SOL    HW147851   1.651   3.717   7.351 -1.4211 -0.8961  0.6811
14005SOL    HW247852   1.569   3.722   7.223  1.5474  0.2823 -1.2847
14006SOL     OW47853   5.416   5.282   5.989  0.1114 -0.4957 -0.0345
14006SOL    HW147854   5.387   5.281   6.080 -0.0148  0.4672 -0.0546
14006SOL    HW247855   5.511   5.270   5.994  0.0274 -1.0861  0.1838
14007SOL     OW47856   7.060   7.303   1.296  1.1582  0.8241  0.1197
14007SOL    HW147857   7.130   7.349   1.250  2.0421  0.3730  0.9806
14007SOL    HW247858   7.058   7.216   1.256  1.0790  0.8446  0.0793
14008SOL     OW47859   6.532   7.265   3.857 -0.3738 -0.7561  0.5075
14008SOL    HW147860   6.528   7.327   3.784 -0.7188 -0.3112  0.9029
14008SOL    HW247861   6.599   7.201   3.830  0.4399  0.1314  0.3731
14009SOL     OW47862   5.646   1.397   5.612 -0.2890  0.2970  0.5600
14009SOL    HW147863   5.616   1.398   5.521  0.0733 -3.4973  0.2075
14009SOL    HW247864   5.736   1.429   5.607 -0.6514  1.2373 -0.2175
14010SOL     OW47865   3.644  10.615   2.572 -0.2702  0.7234 -0.4631
14010SOL    HW147866   3.645  10.542   2.635  0.5206 -0.6821 -2.0314
14010SOL    HW247867   3.727  10.661   2.587 -0.0817  0.3927 -0.4795
14011SOL     OW47868   0.753   6.252   8.278 -0.1802  0.4450 -0.3933
14011SOL    HW147869   0.726   6.270   8.368 -0.8987 -1.6920 -0.1391
14011SOL    HW247870   0.823   6.187   8.286  0.1926  0.7059 -1.3693
14012SOL     OW47871   9.581   2.740   4.707 -0.4313 -0.3523 -0.7995
14012SOL    HW147872   9.503   2.769   4.754 -0.0161  1.2362 -1.0068
14012SOL    HW247873   9.629   2.686   4.770  0.5222  2.3849  1.0298
14013SOL     OW47874   9.650   6.921   8.182 -0.1315 -0.2940  0.0258
14013SOL    HW147875   9.633   7.015   8.190 -2.2386 -0.5454 -0.8158
14013SOL    HW247876   9.735   6.915   8.140 -0.8040  1.3051 -1.7116
14014SOL     OW47877   2.103   1.479   6.890  0.8646 -0.2350 -0.2890
14014SOL    HW147878   2.176   1.523   6.848 -0.6282  2.2336 -0.4656
14014SOL    HW247879   2.052   1.549   6.931 -1.9958 -1.6608 -1.1083
14015SOL     OW47880   1.861  10.656   9.510 -0.6693 -0.0798  0.4256
14015SOL    HW147881   1.881  10.636   9.418  1.2196  3.4929 -0.1134
14015SOL    HW247882   1.786  10.715   9.506 -0.5539  0.1252  1.2062
14016SOL     OW47883   2.567   0.194   9.007 -0.2846 -0.0534  0.2806
14016SOL    HW147884   2.528   0.235   9.085  0.6438 -0.1840  0.8325
14016SOL    HW247885   2.502   0.208   8.938 -1.8626 -1.2973  1.4063
14017SOL     OW47886   3.923  10.258   6.981  0.7126 -0.0407  0.1944
14017SOL    HW147887   3.838  10.221   7.006  1.6230 -2.0208  0.5301
14017SOL    HW247888   3.951  10.308   7.057 -0.1271  0.6460  0.0735
14018SOL     OW47889   5.959   4.167   1.161  0.1862  0.4787  0.0458
14018SOL    HW147890   5.984   4.250   1.120 -3.0816  0.6946 -1.8303
14018SOL    HW247891   5.891   4.191   1.224 -1.0948 -0.7578 -0.8093
14019SOL     OW47892   1.086   9.411   6.182  0.5732  0.2832  0.9625
14019SOL    HW147893   1.013   9.472   6.168 -0.7560 -1.5687 -0.6481
14019SOL    HW247894   1.158   9.449   6.132 -0.7085 -0.1958 -1.3985
14020SOL     OW47895  10.550   9.397   8.704 -0.5784 -0.6856 -0.1456
14020SOL    HW147896  10.516   9.418   8.791 -0.7937  0.0558 -0.4045
14020SOL    HW247897  10.483   9.427   8.643 -1.4312 -3.1260 -0.5265
14021SOL     OW47898   0.056   6.889  10.749  0.4055  0.7368  0.1929
14021SOL    HW147899   0.073   6.919  10.660 -0.9532 -0.7755 -0.6333
14021SOL    HW247900   0.044   6.794  10.741  0.0377  0.5937  1.9538
14022SOL     OW47901   4.209   4.940   0.076  1.0868 -0.1345  0.0499
14022SOL    HW147902   4.297   4.978   0.077  0.1169  2.3171  1.0028
14022SOL    HW247903   4.190   4.922   0.169  1.2749 -2.5468 -0.3136
14023SOL     OW47904   1.317   9.196   3.744 -0.3161  0.0055  0.1224
14023SOL    HW147905   1.357   9.277   3.714  0.3283 -0.7381 -1.1494
14023SOL    HW247906   1.229   9.198   3.706 -0.8716  0.8017  1.3964
14024SOL     OW47907   2.417   7.440   9.654 -0.0337  0.2447  0.1443
14024SOL    HW147908   2.344   7.387   9.688  0.9640 -2.5455 -1.6441
14024SOL    HW247909   2.464   7.469   9.732 -0.3395 -2.0618  1.2735
14025SOL     OW47910   5.382   7.310   9.750  0.3516  0.1471 -0.4580
14025SOL    HW147911   5.436   7.282   9.677 -0.9932 -0.5054 -1.2538
14025SOL    HW247912   5.360   7.401   9.730  0.3910  0.1218 -0.6162
14026SOL     OW47913   5.163   2.091   9.515  0.4594 -0.0378 -0.2183
14026SOL    HW147914   5.131   2.180   9.500  0.5829 -0.3158 -2.4659
14026SOL    HW247915   5.117   2.062   9.593  0.2085  1.8955  0.4158
14027SOL     OW47916   6.209   8.129   1.239 -0.1489  0.1769  0.0564
14027SOL    HW147917   6.220   8.063   1.170 -0.1893  0.4048 -0.1699
14027SOL    HW247918   6.190   8.078   1.318  1.5365 -0.1790  0.2572
14028SOL     OW47919   2.653   0.888   2.381  0.2110  0.3595 -0.3524
14028SOL    HW147920   2.715   0.945   2.426  0.8182  0.4329 -1.2533
14028SOL    HW247921   2.595   0.947   2.334 -2.6216  0.4830  2.9209
14029SOL     OW47922   6.641   5.761   5.827  0.5434 -0.3110 -0.0830
14029SOL    HW147923   6.710   5.823   5.805 -0.6654  1.5649  1.1643
14029SOL    HW247924   6.641   5.698   5.755  2.6394  0.3938 -0.7579
14030SOL     OW47925   6.830   1.018   6.269  0.1856 -0.3028 -0.1878
14030SOL    HW147926   6.849   0.924   6.265  0.5573 -0.1861 -1.8204
14030SOL    HW247927   6.884   1.057   6.200  0.6866  1.2411  1.0060
14031SOL     OW47928   0.597   5.012   8.484  0.5392  0.3846 -0.0806
14031SOL    HW147929   0.566   4.994   8.395  1.4286  0.7860 -0.4791
14031SOL    HW247930   0.611   4.925   8.523 -0.3162  0.2001 -0.1498
14032SOL     OW47931   0.061   1.824   6.568  0.2714 -0.2152 -0.2687
14032SOL    HW147932   0.053   1.795   6.477  1.7886  1.6303 -1.0652
14032SOL    HW247933  -0.005   1.893   6.577  0.9075  0.4281 -0.3763
14033SOL     OW47934   5.498   1.437  10.851 -0.0501  0.0169 -0.7706
14033SOL    HW147935   5.553   1.482  10.787  2.0420  0.1606  0.9907
14033SOL    HW247936   5.495   1.346  10.821 -0.3544  0.3643 -1.8326
14034SOL     OW47937   3.521   5.020  10.309 -0.1029  0.5333 -0.0536
14034SOL    HW147938   3.605   5.039  10.351  0.6282 -1.2124 -0.6537
14034SOL    HW247939   3.521   5.073  10.230 -1.2989  3.5115  1.7557
14035SOL     OW47940   1.990   5.540   4.958  0.3978 -0.2166  0.0617
14035SOL    HW147941   2.077   5.549   4.919  0.1771 -0.7472 -0.5637
14035SOL    HW247942   2.003   5.562   5.050  1.0760  0.3012 -0.1466
14036SOL     OW47943   5.094   6.008   7.093 -0.2829 -0.0875  0.2613
14036SOL    HW147944   5.065   6.020   7.002 -1.6278 -1.2376  0.5115
14036SOL    HW247945   5.018   6.034   7.145  0.9743  2.0459  1.1589
14037SOL     OW47946   3.070   1.387   6.170  0.0982 -0.0937  0.7462
14037SOL    HW147947   3.079   1.423   6.081  1.4313 -0.1317  0.8438
14037SOL    HW247948   3.160   1.379   6.201 -0.3783  1.6934  2.8165
14038SOL     OW47949   2.264   6.366   7.248 -0.4823 -0.2476 -0.1070
14038SOL    HW147950   2.243   6.342   7.338 -0.5663  0.9798  0.2161
14038SOL    HW247951   2.200   6.434   7.226 -0.5206 -0.5980 -1.1291
14039SOL     OW47952   1.619   6.739  10.129  0.5435  0.0441  0.1470
14039SOL    HW147953   1.686   6.770  10.189  1.4303 -2.6482  0.6909
14039SOL    HW247954   1.568   6.676  10.179 -0.5283 -0.1570 -1.1223
14040SOL     OW47955   9.192   2.768   9.722  0.3173 -0.1954  0.9089
14040SOL    HW147956   9.123   2.793   9.661  0.3513 -1.1957  0.4528
14040SOL    HW247957   9.161   2.801   9.807 -0.2911  0.1483  0.5656
14041SOL     OW47958   4.460   7.888   1.209  1.1000 -1.1754 -0.6666
14041SOL    HW147959   4.482   7.915   1.298 -3.9518 -3.9803  1.9067
14041SOL    HW247960   4.411   7.962   1.173  1.9927 -0.5356 -0.5774
14042SOL     OW47961   8.849  10.248   9.979  0.4822  0.2627 -0.3514
14042SOL    HW147962   8.849  10.199   9.897 -3.2225  1.2829 -1.1427
14042SOL    HW247963   8.888  10.333   9.957  0.3919  0.1916 -0.7976
14043SOL     OW47964   2.031   1.854   2.257  0.5940  0.0053 -0.4883
14043SOL    HW147965   2.032   1.857   2.161  0.3799 -0.2975 -0.5036
14043SOL    HW247966   2.099   1.916   2.284  2.1395 -1.4584 -0.8690
14044SOL     OW47967   0.985   5.639   1.741  0.6020  0.1466 -0.3467
14044SOL    HW147968   0.959   5.564   1.795  0.8392 -0.1458 -0.6279
14044SOL    HW247969   1.080   5.628   1.730  0.2446 -1.2157 -2.8801
14045SOL     OW47970  10.412   5.235   1.015 -0.0989  0.0281 -0.5142
14045SOL    HW147971  10.357   5.313   1.017 -0.5745 -0.1926 -2.5174
14045SOL    HW247972  10.484   5.258   0.957  0.5073 -0.5771 -0.0202
14046SOL     OW47973   0.745   1.335   8.108  0.0433 -0.1188  0.0231
14046SOL    HW147974   0.691   1.311   8.032 -1.6393  1.2563  0.6891
14046SOL    HW247975   0.702   1.291   8.182 -0.0027  0.7428  0.5223
14047SOL     OW47976   5.659   8.990   5.815 -0.3156 -0.0610 -0.1069
14047SOL    HW147977   5.616   8.982   5.730 -0.2609  0.3203 -0.1721
14047SOL    HW247978   5.736   8.934   5.809 -0.8398 -0.8047  0.0375
14048SOL     OW47979   0.307   2.185   1.998 -0.5891  0.1666 -0.1867
14048SOL    HW147980   0.327   2.096   1.969 -0.2736  0.5896 -1.3297
14048SOL    HW247981   0.287   2.176   2.091 -1.5710 -1.2618 -0.4987
14049SOL     OW47982   6.847   1.974   6.561 -0.5690  0.2196 -0.0767
14049SOL    HW147983   6.770   1.952   6.613  0.5705  0.9456  2.0193
14049SOL    HW247984   6.858   2.068   6.573 -1.5574  0.9205 -3.5560
14050SOL     OW47985   8.503   1.616   3.890 -0.1273  0.1099  0.1202
14050SOL    HW147986   8.558   1.540   3.908 -0.5604 -0.5598 -1.2083
14050SOL    HW247987   8.465   1.598   3.804 -0.1237  1.9198 -0.2938
14051SOL     OW47988   2.613   6.233   9.505 -0.6325 -0.0448 -0.7015
14051SOL    HW147989   2.525   6.226   9.467  0.3221 -1.2146 -2.8817
14051SOL    HW247990   2.615   6.166   9.573 -0.9139 -1.2156 -1.8149
14052SOL     OW47991   0.910   7.537   7.597  0.0824  0.0082 -0.3868
14052SOL    HW147992   0.919   7.625   7.560 -0.6096  1.1390  1.8857
14052SOL    HW247993   0.932   7.478   7.526  2.2510  2.0364 -1.5379
14053SOL     OW47994   2.795   8.024   9.832 -0.2080  0.0378 -0.5984
14053SOL    HW147995   2.747   7.942   9.820  1.4566 -0.9924 -0.4838
14053SOL    HW247996   2.866   8.021   9.768  1.3717  0.1973  1.0626
14054SOL     OW47997   3.532   6.330   9.481 -0.1801  0.2287 -0.1279
14054SOL    HW147998   3.603   6.392   9.466 -0.0844  0.0779 -0.3057
14054SOL    HW247999   3.505   6.303   9.393 -0.6417  0.4947 -0.0723
14055SOL     OW48000   1.432   1.122   2.315 -0.1068 -0.1927 -0.5390
14055SOL    HW148001   1.517   1.095   2.348  0.0758 -0.8407 -1.5254
14055SOL    HW248002   1.451   1.190   2.251 -0.1775 -1.6293 -2.1330
14056SOL     OW48003   5.049  10.749   5.324  0.3093  0.0444 -0.0932
14056SOL    HW148004   4.971  10.777   5.371  0.8725 -0.1340  1.0036
14056SOL    HW248005   5.087  10.830   5.290  0.4512  0.3098  0.6756
14057SOL     OW48006   9.877   7.383   5.870 -0.1610 -0.2036  0.0936
14057SOL    HW148007   9.895   7.295   5.838  0.9214 -0.4231  1.2355
14057SOL    HW248008   9.935   7.439   5.820  1.1374 -0.4826  1.2397
14058SOL     OW48009   0.117   3.880   2.249 -0.2896  0.7208 -0.2784
14058SOL    HW148010   0.107   3.863   2.343  0.9834  2.2079  0.1680
14058SOL    HW248011   0.036   3.924   2.224 -1.4655 -1.3551 -0.3486
14059SOL     OW48012   3.580   5.057   1.256 -0.1239 -0.8410 -0.2999
14059SOL    HW148013   3.652   4.995   1.244 -0.0521 -1.0508  1.0893
14059SOL    HW248014   3.531   5.053   1.173  0.0688 -2.5025 -0.3756
14060SOL     OW48015   1.836   7.672   1.910 -0.3263  0.5878  0.0829
14060SOL    HW148016   1.879   7.651   1.993  1.3955  0.7154 -0.7138
14060SOL    HW248017   1.834   7.589   1.863 -3.5815 -0.0628  1.1387
14061SOL     OW48018   7.098   6.190   6.345 -0.2130 -0.2790  0.5347
14061SOL    HW148019   7.070   6.280   6.360 -0.6631 -0.3845  0.3241
14061SOL    HW248020   7.026   6.136   6.376 -0.6185 -0.5271 -0.7939
14062SOL     OW48021   2.317   3.862  10.800  0.1301  0.4069  0.2371
14062SOL    HW148022   2.332   3.939  10.745 -0.1674  1.0688  1.0679
14062SOL    HW248023   2.244   3.887  10.857  0.3609 -0.3011  0.8617
14063SOL     OW48024   4.510   7.816   9.010 -0.0255 -0.8412 -0.4474
14063SOL    HW148025   4.464   7.799   8.928 -0.8046 -1.5972  0.1311
14063SOL    HW248026   4.456   7.775   9.077  0.9000 -0.7408  0.3847
14064SOL     OW48027   2.483   0.027   9.440  0.6208  0.3667 -0.6805
14064SOL    HW148028   2.551   0.088   9.468  1.3439  0.1661 -1.8903
14064SOL    HW248029   2.404   0.056   9.485  1.7113 -0.0884  1.6603
14065SOL     OW48030   3.236   8.341   2.269 -0.1390 -0.1518 -0.1802
14065SOL    HW148031   3.249   8.383   2.184 -1.1012  0.1697 -0.1827
14065SOL    HW248032   3.279   8.401   2.331 -0.6329  0.3286 -0.2938
14066SOL     OW48033   0.461  10.470   6.404  0.0114  0.0030 -0.4125
14066SOL    HW148034   0.491  10.380   6.397 -0.4123 -0.0550 -1.8093
14066SOL    HW248035   0.421  10.489   6.319 -0.9389  1.1383  0.2602
14067SOL     OW48036   8.787  10.370   8.203  0.1984  0.4115  0.2776
14067SOL    HW148037   8.702  10.335   8.227  0.4265 -0.5583 -0.2698
14067SOL    HW248038   8.769  10.429   8.130 -0.1021  0.9151  0.7486
14068SOL     OW48039   8.411   4.720   5.232 -0.0696 -0.0563  0.1137
14068SOL    HW148040   8.382   4.799   5.186  0.4908 -0.5439 -1.1122
14068SOL    HW248041   8.401   4.742   5.325  1.0435  1.8462 -0.1620
14069SOL     OW48042   0.664   2.069   2.057 -0.1547  0.6194 -0.0782
14069SOL    HW148043   0.734   2.034   2.002 -0.7230 -2.0505  0.7567
14069SOL    HW248044   0.587   2.019   2.034 -0.6998  0.2843  2.2069
14070SOL     OW48045   8.361   3.233   9.499  0.1514 -0.0274  0.0301
14070SOL    HW148046   8.434   3.176   9.474 -2.1567 -1.9022 -3.2167
14070SOL    HW248047   8.382   3.260   9.589  3.1277 -3.2287  0.5463
14071SOL     OW48048   8.175   0.893   4.968 -0.3476  0.4095 -0.4698
14071SOL    HW148049   8.146   0.976   4.928 -0.6283  0.4954 -0.0919
14071SOL    HW248050   8.257   0.915   5.012 -0.2530  0.4107 -0.6462
14072SOL     OW48051   3.857   4.617   0.576 -0.1069 -0.4426 -0.1371
14072SOL    HW148052   3.871   4.712   0.572  0.4691 -0.4605  1.0172
14072SOL    HW248053   3.940   4.579   0.546 -0.3265 -0.5859 -0.5699
14073SOL     OW48054   2.035  10.561   7.716  0.2517 -0.0377 -0.2251
14073SOL    HW148055   1.946  10.573   7.749  0.0697 -1.6713 -0.0626
14073SOL    HW248056   2.030  10.485   7.659  1.2454  0.7871 -1.4801
14074SOL     OW48057   2.384   4.422   2.812 -0.3229 -0.1360  0.2418
14074SOL    HW148058   2.328   4.464   2.877  0.0925 -0.2460  0.6771
14074SOL    HW248059   2.446   4.489   2.786 -0.1372 -0.2524  0.3772
14075SOL     OW48060   8.053   8.096   5.988 -0.4519  0.1592  0.2780
14075SOL    HW148061   8.094   8.013   6.013  1.0687  0.8365  0.1914
14075SOL    HW248062   8.020   8.132   6.070 -0.3705 -0.1586  0.4525
14076SOL     OW48063   0.487   7.357   4.663 -0.0097  0.5100  0.1280
14076SOL    HW148064   0.509   7.435   4.612 -2.2364  0.9240 -0.3197
14076SOL    HW248065   0.527   7.371   4.748  0.0353  1.9329 -0.1061
14077SOL     OW48066   3.072   9.397   0.359  0.2070  0.5799 -0.2406
14077SOL    HW148067   3.056   9.337   0.286  1.4870  2.0332 -1.7877
14077SOL    HW248068   3.166   9.390   0.376 -0.2151 -0.5114  2.0454
14078SOL     OW48069   4.379   5.202   2.665 -0.3208 -0.5434  0.3399
14078SOL    HW148070   4.368   5.286   2.710 -1.7074  0.2658 -1.3901
14078SOL    HW248071   4.419   5.224   2.581  0.6109 -1.7999  0.4240
14079SOL     OW48072  10.390   5.124   5.490  0.1441 -0.2387  0.5499
14079SOL    HW148073  10.346   5.180   5.426 -3.2601 -2.3267  0.8233
14079SOL    HW248074  10.450   5.071   5.439  2.0536  2.2293  0.0528
14080SOL     OW48075   0.962   4.269   0.797 -0.2164  0.2084 -0.2604
14080SOL    HW148076   0.970   4.176   0.816 -0.4499  0.4791  1.3866
14080SOL    HW248077   1.034   4.289   0.737  0.2153 -0.8976 -0.1236
14081SOL     OW48078   2.482   7.247   9.940  0.0504  0.0391  0.5418
14081SOL    HW148079   2.505   7.234   9.848  3.2517 -0.4518  1.3020
14081SOL    HW248080   2.465   7.159   9.974 -1.9323  0.2811  0.3238
14082SOL     OW48081   4.168  10.638   5.675 -0.5416 -0.3174  0.3302
14082SOL    HW148082   4.192  10.722   5.715  0.5956 -0.1501 -0.6502
14082SOL    HW248083   4.238  10.620   5.613 -1.5006 -1.3082 -0.5113
14083SOL     OW48084   4.496   6.323   6.261 -0.6064  0.7022  0.0230
14083SOL    HW148085   4.415   6.373   6.266 -0.7542  0.9037 -2.7913
14083SOL    HW248086   4.489   6.259   6.333 -2.2615  2.0411  1.1313
14084SOL     OW48087   3.046   1.577   3.065 -0.0902 -0.1005  0.2394
14084SOL    HW148088   3.116   1.514   3.081  0.3340  0.1954 -0.4179
14084SOL    HW248089   2.985   1.531   3.007  0.3096  0.1487 -0.3860
14085SOL     OW48090   5.415   4.848  10.785 -0.2920 -0.1783 -0.1754
14085SOL    HW148091   5.366   4.766  10.780 -1.8433  0.7232 -0.2241
14085SOL    HW248092   5.381   4.891  10.863 -1.0083  1.3449 -1.2825
14086SOL     OW48093   9.004   2.617   8.904  0.3114 -0.0144  0.3071
14086SOL    HW148094   9.010   2.553   8.975 -0.6634  1.6353  1.9494
14086SOL    HW248095   9.093   2.621   8.868  0.5737 -1.6648  0.6582
14087SOL     OW48096   3.988   4.128   1.874 -1.0227 -0.4892 -0.1456
14087SOL    HW148097   3.972   4.041   1.911 -1.9838 -0.9451 -1.5456
14087SOL    HW248098   4.072   4.121   1.830 -0.4211 -0.2724  0.9279
14088SOL     OW48099   2.768   5.381   1.800 -0.3280  0.5649  0.2928
14088SOL    HW148100   2.710   5.316   1.840 -0.6036  0.1660 -0.7177
14088SOL    HW248101   2.713   5.428   1.738  0.2669  0.6484 -0.1838
14089SOL     OW48102   7.630   1.979   9.287 -0.2381  0.5926  0.6566
14089SOL    HW148103   7.555   1.994   9.229  0.6849  1.0164 -0.4625
14089SOL    HW248104   7.602   2.014   9.371 -2.2782 -1.5846  1.0026
14090SOL     OW48105   3.250   2.366   0.462 -0.1506 -0.1284  0.4000
14090SOL    HW148106   3.301   2.295   0.500 -0.2631 -0.7992 -0.6551
14090SOL    HW248107   3.228   2.422   0.536 -0.6561 -1.5679  1.3939
14091SOL     OW48108   2.303   2.192   4.947  0.0238 -0.2871 -0.1558
14091SOL    HW148109   2.344   2.116   4.906  0.1189  0.0723 -0.7525
14091SOL    HW248110   2.327   2.186   5.039 -1.8747 -2.2417  0.3020
14092SOL     OW48111   5.427   4.413  10.479 -0.0696  0.5769 -0.1678
14092SOL    HW148112   5.438   4.359  10.557 -0.2251  0.2745 -0.3514
14092SOL    HW248113   5.497   4.478  10.484  0.7690 -0.2772 -0.4662
14093SOL     OW48114   9.165  10.683   4.678  0.0913  0.1194 -0.8105
14093SOL    HW148115   9.247  10.635   4.687  0.6610  0.7390 -2.3927
14093SOL    HW248116   9.145  10.680   4.584 -0.7332  1.5233 -0.7163
14094SOL     OW48117   7.506   0.597  10.122  0.7914  0.8694  0.6486
14094SOL    HW148118   7.420   0.636  10.107  0.3272 -0.0605  0.8124
14094SOL    HW248119   7.561   0.670  10.151  0.5835  1.8550 -1.2902
14095SOL     OW48120   1.744   5.037   6.076 -0.8254  0.1271 -0.2520
14095SOL    HW148121   1.662   5.039   6.027  0.0077  0.2181 -1.6987
14095SOL    HW248122   1.721   5.068   6.163 -2.1339  1.1550 -0.9285
14096SOL     OW48123   0.342  10.564   0.884 -0.7735  0.2035  0.3331
14096SOL    HW148124   0.254  10.593   0.906 -1.3256 -1.6157  0.7411
14096SOL    HW248125   0.333  10.520   0.799 -0.3419 -0.2470  0.5100
14097SOL     OW48126   8.363   0.065   6.661  0.8719  0.6988  0.0772
14097SOL    HW148127   8.378  -0.029   6.673  0.7638  0.7479  0.6752
14097SOL    HW248128   8.412   0.088   6.583  3.6498  0.7792  1.6930
14098SOL     OW48129   0.580   6.854   7.567 -0.6025  0.0318 -0.5800
14098SOL    HW148130   0.654   6.820   7.515  0.2698  1.5505 -0.3944
14098SOL    HW248131   0.538   6.917   7.509 -0.5028  0.6767  0.0414
14099SOL     OW48132   9.177   5.056   3.488  0.0968  0.0981 -0.5890
14099SOL    HW148133   9.228   5.102   3.555 -1.2059  0.3097  0.2882
14099SOL    HW248134   9.088   5.089   3.498 -0.7661 -2.0940 -0.3891
14100SOL     OW48135   1.017   3.638   9.669  0.3258  0.4423 -0.4470
14100SOL    HW148136   1.029   3.628   9.764 -0.5317  0.2904 -0.3429
14100SOL    HW248137   0.922   3.632   9.657  0.5625 -2.5124 -1.6283
14101SOL     OW48138   4.993   2.378   6.984  0.1679 -0.1049 -0.0646
14101SOL    HW148139   5.042   2.379   7.066 -0.2047 -2.4165  0.2429
14101SOL    HW248140   4.907   2.412   7.006  0.7621  1.5534 -0.0755
14102SOL     OW48141   6.210   8.527   3.743  0.0253 -0.6413 -0.1625
14102SOL    HW148142   6.160   8.447   3.727  0.2460 -0.8925  0.3939
14102SOL    HW248143   6.281   8.501   3.801 -0.9089  0.2865  1.4701
14103SOL     OW48144   6.161   6.380   0.426 -0.1796 -0.1411  0.4004
14103SOL    HW148145   6.143   6.306   0.367  0.7254  0.1315 -0.2342
14103SOL    HW248146   6.155   6.457   0.370 -2.1304  0.4019  1.2640
14104SOL     OW48147  10.856   6.398   6.176  0.3135  0.3358 -0.3849
14104SOL    HW148148  10.766   6.413   6.207  0.0854 -1.6880  0.1003
14104SOL    HW248149  10.853   6.310   6.139  1.3968  1.3774 -3.2180
14105SOL     OW48150   0.245   2.488   7.459  0.3228 -0.1598 -0.5010
14105SOL    HW148151   0.304   2.492   7.534 -0.6739 -2.4999  0.4869
14105SOL    HW248152   0.163   2.454   7.494 -0.8891  0.7339 -2.2825
14106SOL     OW48153   8.027   3.545   1.976  0.2329 -0.0495 -0.1971
14106SOL    HW148154   8.114   3.586   1.972  0.9578 -1.5348 -0.2021
14106SOL    HW248155   7.992   3.573   2.060  0.0885  1.7252 -0.7977
14107SOL     OW48156   2.223   1.176   9.353  0.1474 -0.2082  0.1614
14107SOL    HW148157   2.313   1.209   9.357 -0.3210  1.7871 -2.4738
14107SOL    HW248158   2.231   1.090   9.311  1.0055 -1.5181  2.8258
14108SOL     OW48159   5.319   5.712   0.548  0.2091  0.2772 -0.2809
14108SOL    HW148160   5.372   5.755   0.481 -0.2183  0.5956 -0.4212
14108SOL    HW248161   5.363   5.629   0.564  1.4276  1.0547  0.4843
14109SOL     OW48162   7.245   3.870   5.625 -0.5875  0.8631  0.0870
14109SOL    HW148163   7.325   3.862   5.574 -2.0729  0.1266 -2.2641
14109SOL    HW248164   7.193   3.936   5.579 -2.2698 -0.3356  0.1939
14110SOL     OW48165   2.272   3.553   5.563  0.9579 -0.3882  0.0174
14110SOL    HW148166   2.203   3.587   5.505  1.8978  1.9731  0.1655
14110SOL    HW248167   2.235   3.473   5.600 -0.6857 -0.5689 -1.8418
14111SOL     OW48168   2.382   4.253   1.356 -0.1570 -0.3372  0.0772
14111SOL    HW148169   2.312   4.188   1.364  0.8641 -1.3860  0.7791
14111SOL    HW248170   2.400   4.257   1.262 -0.9448 -0.2704 -0.0826
14112SOL     OW48171   4.036   4.219   8.395  0.2811  0.1857 -0.4974
14112SOL    HW148172   4.026   4.156   8.323  0.2367 -0.3060 -0.0739
14112SOL    HW248173   3.956   4.272   8.391 -0.6721 -1.0904  0.3555
14113SOL     OW48174   9.593   5.825   8.507  0.7483  0.5130 -0.4324
14113SOL    HW148175   9.532   5.753   8.490 -0.2679  1.1366  0.4176
14113SOL    HW248176   9.616   5.857   8.420 -1.0038  0.9376 -0.7903
14114SOL     OW48177   1.901   3.746   3.789  0.6186  0.5356 -0.2259
14114SOL    HW148178   1.892   3.671   3.847 -0.3529  0.7821 -0.0351
14114SOL    HW248179   1.849   3.815   3.830 -1.9289  0.0893 -2.4270
14115SOL     OW48180   2.229   3.309   6.440  0.2190  0.4141  0.3895
14115SOL    HW148181   2.133   3.317   6.440  0.1969  0.2078  1.2037
14115SOL    HW248182   2.257   3.356   6.518  0.5220 -2.2927  2.0248
14116SOL     OW48183   8.361   4.442   5.746  0.0125  0.9797 -0.3549
14116SOL    HW148184   8.449   4.405   5.743 -0.3235  0.1322 -0.2012
14116SOL    HW248185   8.340   4.459   5.654 -0.8644 -1.8549 -0.7979
14117SOL     OW48186   6.696   9.488   3.273 -0.1583 -0.4532  0.1704
14117SOL    HW148187   6.701   9.417   3.210 -0.2141 -1.3323  1.1235
14117SOL    HW248188   6.779   9.534   3.265 -1.7229  2.2354 -3.6073
14118SOL     OW48189   1.040   4.254   3.488 -0.2840 -0.0369  0.3086
14118SOL    HW148190   1.059   4.343   3.521 -0.9584  1.0561 -2.0740
14118SOL    HW248191   1.089   4.248   3.407 -1.4061 -1.3128 -0.3073
14119SOL     OW48192  10.923   0.444   0.574 -0.1302  0.6478  0.1925
14119SOL    HW148193  11.012   0.409   0.579 -0.6529 -0.7115  0.4261
14119SOL    HW248194  10.934   0.539   0.581  1.4326  0.6568 -1.6407
14120SOL     OW48195   7.661   7.491   8.100  0.6783  0.1563  0.0125
14120SOL    HW148196   7.733   7.553   8.091 -0.5690  1.6536  0.0552
14120SOL    HW248197   7.699   7.416   8.146  1.7113  1.7909  1.9469
14121SOL     OW48198   4.790   9.272   2.501 -0.6204 -0.0743 -0.2924
14121SOL    HW148199   4.821   9.318   2.422 -0.1735 -0.6369 -0.4539
14121SOL    HW248200   4.697   9.257   2.485 -0.3552 -0.9473 -1.1113
14122SOL     OW48201   9.372   9.955   9.264 -0.0890  1.0194 -0.1915
14122SOL    HW148202   9.344   9.934   9.175 -0.2381  1.3648 -0.2271
14122SOL    HW248203   9.459   9.917   9.271  0.1251  1.4135 -0.6479
14123SOL     OW48204   3.159   5.711   4.628  0.3294  0.0534  0.0665
14123SOL    HW148205   3.167   5.620   4.602 -1.3394 -0.2164  0.3505
14123SOL    HW248206   3.249   5.744   4.630  0.8682 -1.2404 -1.2169
14124SOL     OW48207   6.700   5.595   5.388  0.5304 -0.2500 -0.7576
14124SOL    HW148208   6.617   5.599   5.436 -0.9885  0.1188 -3.2550
14124SOL    HW248209   6.766   5.581   5.456 -0.9252  4.1559  2.0060
14125SOL     OW48210   5.215   9.103   6.131 -0.0683  0.0774  0.6920
14125SOL    HW148211   5.173   9.171   6.184 -0.9533 -0.3969  0.6234
14125SOL    HW248212   5.259   9.151   6.061  0.7318  0.6841  1.5855
14126SOL     OW48213   3.115   0.328   3.272  0.2436  0.0673 -0.1239
14126SOL    HW148214   3.069   0.396   3.223 -2.4479 -1.1153  0.6259
14126SOL    HW248215   3.201   0.366   3.290 -0.7525  2.7959 -0.7029
14127SOL     OW48216   1.536   9.148   3.896 -0.1595  0.3043 -0.0995
14127SOL    HW148217   1.478   9.183   3.829 -1.2778  0.5382  0.9675
14127SOL    HW248218   1.531   9.053   3.884 -0.7689  0.3209 -0.0106
14128SOL     OW48219   6.247   5.405   1.854  0.4928 -0.2964  0.0953
14128SOL    HW148220   6.229   5.393   1.761 -0.4132  2.7383 -0.2062
14128SOL    HW248221   6.219   5.322   1.894 -1.5292 -0.7481 -2.0302
14129SOL     OW48222   4.641   9.589  10.188 -0.1668  0.4704 -0.3797
14129SOL    HW148223   4.658   9.671  10.141 -0.9887  0.6575 -0.3612
14129SOL    HW248224   4.600   9.533  10.123  0.4230  0.0521 -0.3998
14130SOL     OW48225  10.363  10.221   1.788 -0.1344  0.0101  0.0209
14130SOL    HW148226  10.407  10.268   1.718  0.4590 -1.0593 -0.3587
14130SOL    HW248227  10.271  10.218   1.761 -0.2189  1.0764  0.1456
14131SOL     OW48228  10.623   9.048   9.190 -0.0638  0.4901 -0.0292
14131SOL    HW148229  10.587   9.136   9.186  0.2557  0.6469  0.4989
14131SOL    HW248230  10.634   9.030   9.283  1.1066  0.4001 -0.1615
14132SOL     OW48231  10.160   2.109  10.628 -0.0245  0.0913  0.3281
14132SOL    HW148232  10.225   2.044  10.603  1.4630  1.2508  1.0127
14132SOL    HW248233  10.118   2.135  10.546  1.0942  0.0418 -0.2820
14133SOL     OW48234   0.428   3.623   2.315 -0.0659 -0.0347  0.3776
14133SOL    HW148235   0.351   3.579   2.351 -0.5699  0.4381 -0.1062
14133SOL    HW248236   0.476   3.553   2.270  0.5424 -0.6238  1.8752
14134SOL     OW48237   6.614   4.319   8.509 -0.7393  0.4139  0.6289
14134SOL    HW148238   6.684   4.279   8.458  0.2483  1.0708  1.4371
14134SOL    HW248239   6.573   4.247   8.555 -1.0865 -0.0737 -0.4164
14135SOL     OW48240   8.322   7.480   0.755  0.0189  0.2858 -0.0738
14135SOL    HW148241   8.271   7.486   0.674  0.4575 -1.8041 -0.5714
14135SOL    HW248242   8.412   7.501   0.728  0.1679 -0.4268 -0.1624
14136SOL     OW48243   1.082   2.782   6.992 -0.7321 -0.4653 -0.5861
14136SOL    HW148244   1.042   2.868   6.979  0.0592 -0.1254 -0.8565
14136SOL    HW248245   1.080   2.769   7.087  1.2768  0.9427 -0.2807
14137SOL     OW48246   2.615   3.016   8.667 -0.0245 -0.1064  0.3966
14137SOL    HW148247   2.603   3.092   8.610  1.2609  0.8025  1.2706
14137SOL    HW248248   2.698   2.978   8.638 -0.3796 -0.8386  0.3361
14138SOL     OW48249   4.103   0.432   6.149  0.8225 -0.4714  0.1505
14138SOL    HW148250   4.117   0.462   6.059 -0.3915 -0.2904  0.0087
14138SOL    HW248251   4.181   0.460   6.196  0.6071  1.1605 -0.4145
14139SOL     OW48252   1.267   5.883   8.382  0.0087 -0.2618  0.2364
14139SOL    HW148253   1.338   5.874   8.319  0.3393  2.6353  0.0741
14139SOL    HW248254   1.303   5.937   8.452 -1.8521  0.8743  0.4000
14140SOL     OW48255   2.964   9.469   0.728 -0.1691 -0.0988  0.6528
14140SOL    HW148256   2.919   9.504   0.804  0.0891  0.9551  0.3340
14140SOL    HW248257   2.929   9.381   0.718 -1.4629  0.3564  0.9651
14141SOL     OW48258   8.918   7.591   2.539 -0.5531 -0.1358 -0.3060
14141SOL    HW148259   8.884   7.680   2.548 -1.0871 -0.4033  0.4728
14141SOL    HW248260   8.900   7.567   2.448  0.8565  1.0413 -0.9260
14142SOL     OW48261   8.200   3.534   7.395 -0.7494 -0.9431  0.1912
14142SOL    HW148262   8.211   3.476   7.471  0.2619 -1.2373 -0.1573
14142SOL    HW248263   8.261   3.499   7.330 -0.9625 -0.1641 -0.4376
14143SOL     OW48264   6.875   5.591   1.227 -0.5196 -0.1719  0.2405
14143SOL    HW148265   6.788   5.564   1.199  0.0006 -1.3384 -0.3366
14143SOL    HW248266   6.901   5.526   1.293 -0.1281  0.2118  0.4696
14144SOL     OW48267   2.439   9.430   7.827  0.0915  0.1795  0.3745
14144SOL    HW148268   2.534   9.435   7.835  0.0619 -1.6741  2.7006
14144SOL    HW248269   2.419   9.337   7.826 -1.7325  0.5232 -0.2644
14145SOL     OW48270   5.530   2.766   8.623  0.4775  0.6077  0.2166
14145SOL    HW148271   5.437   2.772   8.646  0.3699  0.0977 -0.0686
14145SOL    HW248272   5.531   2.776   8.528  0.4311 -2.1054 -0.1305
14146SOL     OW48273   4.552   8.947   0.503 -0.4176 -0.5809 -0.4019
14146SOL    HW148274   4.646   8.950   0.522 -0.4750 -0.0507 -0.1774
14146SOL    HW248275   4.518   9.028   0.542 -0.7313 -0.0570 -1.7085
14147SOL     OW48276   2.595   9.608   4.900  0.2115 -1.0560 -0.4969
14147SOL    HW148277   2.578   9.559   4.981  1.4063  0.3855  0.7109
14147SOL    HW248278   2.685   9.584   4.877 -0.1386 -1.4973 -1.4691
14148SOL     OW48279   5.449   8.306   3.748  0.1898  0.0821  0.2672
14148SOL    HW148280   5.373   8.275   3.798 -0.2830  1.8406  0.7017
14148SOL    HW248281   5.505   8.349   3.814  0.5369  0.6480 -0.3843
14149SOL     OW48282  10.393   4.844   7.490 -0.1108 -0.3100  0.1561
14149SOL    HW148283  10.416   4.795   7.569 -0.1083  1.0320  1.0177
14149SOL    HW248284  10.392   4.778   7.421 -0.2969 -1.5521  1.2988
14150SOL     OW48285   9.520   7.919   8.501  0.0208 -0.1295  0.4503
14150SOL    HW148286   9.470   7.838   8.491 -0.3577  0.1054  0.4319
14150SOL    HW248287   9.577   7.921   8.424 -1.0579  0.3816 -0.3698
14151SOL     OW48288   7.911  10.027   3.392  0.4660 -0.0697 -0.0390
14151SOL    HW148289   7.964  10.087   3.340  1.8524 -0.4940  0.8286
14151SOL    HW248290   7.902   9.949   3.336  0.4819  0.1282 -0.3193
14152SOL     OW48291  10.091   5.877   9.017  0.0696 -0.8809 -0.5357
14152SOL    HW148292  10.049   5.878   8.931  0.4896  1.8361 -0.8232
14152SOL    HW248293  10.122   5.967   9.029  3.2031 -1.9838  0.9200
14153SOL     OW48294   2.696   6.095   9.954  0.0477  0.1102  0.4910
14153SOL    HW148295   2.734   6.167   9.903 -0.4965  1.3661  1.7786
14153SOL    HW248296   2.728   6.109  10.043 -0.9031 -0.6430  0.9721
14154SOL     OW48297   7.775  10.060   9.420 -0.1398  0.6383 -0.5704
14154SOL    HW148298   7.827  10.141   9.424 -0.9718  1.1660 -0.2274
14154SOL    HW248299   7.687  10.089   9.397 -0.1060 -0.3397 -2.0004
14155SOL     OW48300   4.154  10.155   3.477  0.3177 -0.3288 -0.4039
14155SOL    HW148301   4.066  10.132   3.446 -0.9629  1.0988  1.8416
14155SOL    HW248302   4.186  10.074   3.517 -0.8670 -0.3559  0.5651
14156SOL     OW48303   5.715   3.052  10.021  0.0078 -0.2549 -0.2391
14156SOL    HW148304   5.630   3.049   9.976 -0.7690 -0.3754  1.1787
14156SOL    HW248305   5.779   3.039   9.951 -1.1133  0.1529 -1.3974
14157SOL     OW48306   0.622   4.781   8.868  0.0008  0.5628 -0.0818
14157SOL    HW148307   0.580   4.727   8.935  1.4298 -0.9096 -0.3050
14157SOL    HW248308   0.715   4.772   8.886  0.3138  2.6630 -0.4090
14158SOL     OW48309   5.892   8.474   7.201 -0.0811  0.6159  0.0286
14158SOL    HW148310   5.974   8.443   7.162 -1.6281 -3.3677 -0.5853
14158SOL    HW248311   5.917   8.505   7.288  2.3366  1.7940 -0.9988
14159SOL     OW48312   9.294   6.946   6.405  0.2246  0.1594 -0.3816
14159SOL    HW148313   9.203   6.932   6.380 -0.2682  2.1014  0.1393
14159SOL    HW248314   9.291   7.019   6.467  2.0378 -0.4419  0.5018
14160SOL     OW48315   5.734   6.354   4.774  0.7362 -0.2657 -0.0904
14160SOL    HW148316   5.800   6.400   4.721  2.3185 -1.8611  0.3725
14160SOL    HW248317   5.768   6.264   4.780 -1.3743 -1.0766  0.4219
14161SOL     OW48318   9.923   0.946  10.624 -0.0303  0.0671 -0.1162
14161SOL    HW148319   9.915   0.864  10.672 -0.1260  0.3601  0.3748
14161SOL    HW248320   9.842   0.952  10.574 -0.7483  0.6375  1.0790
14162SOL     OW48321   4.889   7.383  10.541 -0.2169  0.2627  0.2959
14162SOL    HW148322   4.933   7.335  10.612  0.9436 -0.0694 -0.6282
14162SOL    HW248323   4.812   7.422  10.584  0.7515  0.5430  1.8694
14163SOL     OW48324   8.531   2.156   5.981 -0.3283  0.0267 -0.0019
14163SOL    HW148325   8.583   2.124   5.907  0.9897  2.0510 -0.0240
14163SOL    HW248326   8.450   2.106   5.977  0.1724 -0.7046 -2.1467
14164SOL     OW48327   8.490   6.268   1.374  0.6978  0.1793 -0.1283
14164SOL    HW148328   8.407   6.223   1.390  0.4794  0.7074  0.2239
14164SOL    HW248329   8.526   6.224   1.297  1.0415 -1.3746  0.8810
14165SOL     OW48330   3.303   2.476   1.206  0.0384 -0.2457  0.0890
14165SOL    HW148331   3.351   2.558   1.215 -0.3206 -0.0436  0.1514
14165SOL    HW248332   3.264   2.461   1.292 -0.8605  0.1185 -0.2481
14166SOL     OW48333   4.198   8.490   1.189  0.5053 -0.2407  0.3746
14166SOL    HW148334   4.156   8.531   1.264  1.4433  0.1702  0.6936
14166SOL    HW248335   4.157   8.531   1.113 -0.5590 -0.7701  0.6359
14167SOL     OW48336   1.124  10.050   7.844  0.4839 -0.0598  0.2497
14167SOL    HW148337   1.091  10.137   7.821 -0.8926 -0.0302  2.0727
14167SOL    HW248338   1.049  10.006   7.884  1.1728 -2.0892 -0.5605
14168SOL     OW48339   6.821   4.846   2.423  0.2010  0.1574 -0.1238
14168SOL    HW148340   6.775   4.865   2.341 -0.5900 -2.0449 -0.2694
14168SOL    HW248341   6.851   4.756   2.413  3.0514  0.9100  0.7222
14169SOL     OW48342   3.219   4.993   9.590 -0.0506  0.2767  0.4850
14169SOL    HW148343   3.306   4.979   9.629 -0.0442  1.7126  1.0401
14169SOL    HW248344   3.236   5.002   9.496  0.8221  3.2597  0.8216
14170SOL     OW48345   5.298  10.909   8.593 -0.4193 -0.2630 -0.8026
14170SOL    HW148346   5.305  10.840   8.659 -1.1720 -0.4166 -0.8691
14170SOL    HW248347   5.378  10.902   8.542  0.4897  0.2841  0.4941
14171SOL     OW48348   3.140   6.206   4.466  0.4980 -0.1707  0.2601
14171SOL    HW148349   3.114   6.127   4.418 -0.1014 -0.9529  1.8124
14171SOL    HW248350   3.125   6.185   4.558  0.4347  1.7227  0.7297
14172SOL     OW48351   6.103   4.933   9.278 -0.5385  0.5271  0.0878
14172SOL    HW148352   6.091   5.025   9.254 -0.6981  0.8249  1.2396
14172SOL    HW248353   6.069   4.927   9.368  2.2190  0.0126  1.1867
14173SOL     OW48354  10.524   3.275  10.608  0.1177  0.1094  0.1342
14173SOL    HW148355  10.598   3.327  10.639 -0.5833  1.8333 -0.9642
14173SOL    HW248356  10.469   3.337  10.560 -1.5845 -1.3202  0.1380
14174SOL     OW48357   8.889  10.081   8.293 -1.0627  0.6094  0.7910
14174SOL    HW148358   8.961  10.101   8.234 -1.3905  0.7694  0.4352
14174SOL    HW248359   8.822  10.042   8.236 -0.9216 -0.3285  1.2606
14175SOL     OW48360  10.471   6.408   6.624 -0.0866  0.2427  0.2366
14175SOL    HW148361  10.523   6.480   6.588  0.9269 -0.4818  0.1975
14175SOL    HW248362  10.420   6.375   6.550 -1.0464  1.3112  0.3977
14176SOL     OW48363   5.790   1.171   6.541 -0.3225 -0.3395  0.3927
14176SOL    HW148364   5.821   1.094   6.590  0.1992 -0.0088  0.5892
14176SOL    HW248365   5.730   1.135   6.475  2.8534 -1.3951 -2.1437
14177SOL     OW48366   8.156   4.615   8.300  0.0530 -0.2119  0.4341
14177SOL    HW148367   8.151   4.671   8.223 -0.3923 -0.9825 -0.1141
14177SOL    HW248368   8.237   4.640   8.343  0.1399  0.4547 -0.1110
14178SOL     OW48369   9.236  10.694   0.309 -0.3781  0.0939 -0.0440
14178SOL    HW148370   9.275  10.781   0.305 -3.5038  1.6242  0.1347
14178SOL    HW248371   9.221  10.678   0.402 -2.1997  0.5966 -0.2085
14179SOL     OW48372   4.788  10.611   5.422  0.5767  0.4153  0.8509
14179SOL    HW148373   4.877  10.594   5.453  0.5419 -0.2791  0.5876
14179SOL    HW248374   4.734  10.605   5.501  0.5708 -0.7226  0.7742
14180SOL     OW48375   7.397   5.028   9.996 -0.2274  0.8282  0.9797
14180SOL    HW148376   7.313   5.055   9.959 -1.3647 -1.9412  1.2581
14180SOL    HW248377   7.456   5.020   9.921 -0.8648  0.7345  0.4818
14181SOL     OW48378   3.778  10.687   7.506  0.0566 -0.2999  0.4440
14181SOL    HW148379   3.720  10.754   7.471 -0.9587 -0.7983  1.1095
14181SOL    HW248380   3.785  10.708   7.599  0.4277 -0.6110  0.4888
14182SOL     OW48381  10.333   5.877   6.500  0.0917 -0.3112 -0.0917
14182SOL    HW148382  10.289   5.800   6.537  1.1380  0.1466  2.2664
14182SOL    HW248383  10.410   5.889   6.554 -0.1653  2.5695 -0.2067
14183SOL     OW48384   6.039   2.473  10.366 -0.7720  0.3216 -0.3322
14183SOL    HW148385   6.113   2.534  10.362  0.4474 -1.1210 -0.4870
14183SOL    HW248386   6.052   2.425  10.448  0.2672 -2.0898 -1.8148
14184SOL     OW48387   6.118   6.966   6.858 -0.5496  0.3948  0.4192
14184SOL    HW148388   6.064   6.988   6.782  0.3189 -1.1689 -0.6999
14184SOL    HW248389   6.206   6.995   6.835 -0.1471 -0.6979  0.5016
14185SOL     OW48390   9.701   3.481   6.627  0.3753 -0.5759  0.4256
14185SOL    HW148391   9.622   3.525   6.597  1.2023 -0.2898 -1.4837
14185SOL    HW248392   9.752   3.549   6.669  0.4703 -0.3089 -0.1167
14186SOL     OW48393   9.818   3.917   0.958  0.1588  0.1921  0.0340
14186SOL    HW148394   9.791   3.881   1.042  0.0990  1.1158  0.4139
14186SOL    HW248395   9.907   3.883   0.945  0.3827  0.5004  0.7388
14187SOL     OW48396   1.364   8.732   4.144 -0.8349  0.0133  0.0959
14187SOL    HW148397   1.301   8.680   4.095 -1.1495  0.0904  0.4131
14187SOL    HW248398   1.315   8.809   4.173 -0.4965  0.2551  0.0287
14188SOL     OW48399   9.296   7.266   7.736  0.0067 -0.0780  0.3977
14188SOL    HW148400   9.341   7.257   7.819  0.6088  1.7092  0.3024
14188SOL    HW248401   9.358   7.231   7.671  0.8697  1.4267  0.3790
14189SOL     OW48402   9.581   5.212   2.128 -0.2000  0.0095 -0.0405
14189SOL    HW148403   9.629   5.130   2.145  1.4244  0.4375 -2.1780
14189SOL    HW248404   9.492   5.194   2.159  0.8306 -1.4637  2.3759
14190SOL     OW48405   2.106   8.751  10.364  0.2316  0.1659  0.2942
14190SOL    HW148406   2.021   8.794  10.376 -0.5668 -1.4369  0.6808
14190SOL    HW248407   2.121   8.753  10.270 -0.7370 -0.4034  0.1124
14191SOL     OW48408   0.841   2.889   5.229  0.5395 -0.4876 -0.3609
14191SOL    HW148409   0.836   2.793   5.229  0.4894 -0.5246  1.8605
14191SOL    HW248410   0.819   2.915   5.318  0.4159  1.6276 -0.9424
14192SOL     OW48411   2.244  10.579   3.501  0.3586  0.2732  0.2986
14192SOL    HW148412   2.311  10.632   3.546 -0.0920  0.4698  0.7471
14192SOL    HW248413   2.168  10.636   3.495  0.1766 -0.0067 -0.0636
14193SOL     OW48414   6.675   4.577   4.279 -0.0152 -0.9135 -0.2444
14193SOL    HW148415   6.706   4.647   4.221  1.4585 -0.3787  1.1307
14193SOL    HW248416   6.662   4.502   4.221 -0.2656  0.0876 -1.5278
14194SOL     OW48417   0.894   1.719   8.235  0.7501  1.0296  0.2018
14194SOL    HW148418   0.938   1.652   8.182 -2.4949 -2.7006  1.7204
14194SOL    HW248419   0.842   1.770   8.173 -0.3119 -0.9862 -0.6443
14195SOL     OW48420   2.071   5.445  10.694 -0.2036  0.4300 -0.2312
14195SOL    HW148421   2.000   5.385  10.674 -1.4071  0.9504  2.0641
14195SOL    HW248422   2.126   5.397  10.757 -0.0530  0.9920  0.0728
14196SOL     OW48423   2.469   5.800   9.690  0.0972 -0.2659 -0.2797
14196SOL    HW148424   2.489   5.813   9.598  1.7320  1.0146  0.1853
14196SOL    HW248425   2.550   5.766   9.728 -0.4162 -0.4096  0.7421
14197SOL     OW48426   5.755   0.852   1.835 -0.0545  0.1288  0.1798
14197SOL    HW148427   5.799   0.927   1.877 -1.6726  1.9438 -1.1905
14197SOL    HW248428   5.795   0.847   1.748 -1.2600  0.6793 -0.4307
14198SOL     OW48429   1.983  10.809   9.211  0.7192 -0.3556 -0.2201
14198SOL    HW148430   1.956  10.831   9.122 -2.6115  0.4321  0.8115
14198SOL    HW248431   1.978  10.714   9.216 -0.6699 -0.3175 -0.5045
14199SOL     OW48432   1.604   1.953   7.060 -0.1284 -0.3200  0.5203
14199SOL    HW148433   1.672   1.921   7.002  0.9510  1.4380  0.7362
14199SOL    HW248434   1.619   1.907   7.143 -0.5044 -1.4409 -0.0139
14200SOL     OW48435   5.592   8.709   4.365  0.6111  0.4065 -0.3589
14200SOL    HW148436   5.549   8.632   4.403  1.0182  0.5292  0.3779
14200SOL    HW248437   5.674   8.676   4.329  1.3175  0.6539  0.9542
14201SOL     OW48438  10.508   6.644   6.439  0.1900 -0.2875 -0.6581
14201SOL    HW148439  10.416   6.656   6.461  0.3622 -1.9177  1.1940
14201SOL    HW248440  10.534   6.727   6.398 -2.0013  0.2967 -1.0096
14202SOL     OW48441   9.641   6.457   9.230 -0.2817 -0.9698  0.3694
14202SOL    HW148442   9.560   6.407   9.228 -0.2963 -0.9523  0.5878
14202SOL    HW248443   9.636   6.513   9.152 -0.9087 -0.2974  0.8695
14203SOL     OW48444   1.183   1.127   1.371 -0.1854  0.1808  0.1159
14203SOL    HW148445   1.107   1.098   1.321 -0.3496  1.2185 -0.2605
14203SOL    HW248446   1.147   1.171   1.448  0.0629 -0.6438  0.7283
14204SOL     OW48447   2.545   3.856   5.949  0.7467 -0.2356  0.1667
14204SOL    HW148448   2.556   3.951   5.959  2.3211 -0.2883 -0.7049
14204SOL    HW248449   2.540   3.823   6.039  0.8682  0.6075  0.4917
14205SOL     OW48450   7.431   3.253   9.834 -0.4928 -0.4290  0.3328
14205SOL    HW148451   7.457   3.161   9.825 -0.9894 -0.5959  0.5737
14205SOL    HW248452   7.338   3.254   9.810 -0.7816 -0.1862  1.4049
14206SOL     OW48453   1.242   6.350   5.058 -0.1293 -0.0010 -0.6992
14206SOL    HW148454   1.284   6.265   5.042  0.8466  0.5580 -1.2071
14206SOL    HW248455   1.288   6.411   5.001 -0.5819  0.9468 -0.0863
14207SOL     OW48456   0.696   1.603   3.987  0.1973  0.1342  0.2844
14207SOL    HW148457   0.703   1.547   3.910  2.9258  0.1456  0.4096
14207SOL    HW248458   0.675   1.689   3.953  1.0369  0.0639 -0.4357
14208SOL     OW48459   4.880   7.960   4.872  0.0545  0.6741 -0.1831
14208SOL    HW148460   4.835   7.995   4.795 -0.9934 -0.4995 -0.1316
14208SOL    HW248461   4.854   7.868   4.875  2.4014 -0.0523 -0.0767
14209SOL     OW48462   2.284   0.687   1.030 -0.2923 -0.2619  0.6097
14209SOL    HW148463   2.198   0.727   1.047 -1.2439 -1.2912 -1.4021
14209SOL    HW248464   2.285   0.609   1.086 -1.6254 -1.3823 -0.8246
14210SOL     OW48465  10.374   1.380   4.919  0.6217  0.0880  0.1042
14210SOL    HW148466  10.281   1.357   4.918  0.9060 -1.1310 -0.0854
14210SOL    HW248467  10.401   1.363   5.009  0.3893  1.6555  0.4879
14211SOL     OW48468   9.354   5.078   4.381  0.3131 -0.0745 -0.3063
14211SOL    HW148469   9.388   5.128   4.307 -0.6944  1.0404 -0.0550
14211SOL    HW248470   9.272   5.041   4.350  1.4608 -2.4204 -0.7832
14212SOL     OW48471   5.162   2.205   2.691 -0.2442  0.5420 -0.0735
14212SOL    HW148472   5.206   2.224   2.775 -1.8706  1.3775  0.6231
14212SOL    HW248473   5.071   2.231   2.705 -0.7831 -0.3019 -1.7787
14213SOL     OW48474   9.560   7.694   3.103  0.3513  0.3347 -0.0353
14213SOL    HW148475   9.573   7.769   3.044  0.9673 -0.6839 -1.2424
14213SOL    HW248476   9.475   7.658   3.077 -0.6120  1.4026  1.4889
14214SOL     OW48477   2.981   3.654   7.752 -0.4330  0.2763  0.3491
14214SOL    HW148478   3.049   3.596   7.718 -1.2734 -1.0444  0.7966
14214SOL    HW248479   3.025   3.705   7.820  0.4673  0.5737 -0.4469
14215SOL     OW48480   8.197   8.073   1.159 -0.1187  0.5191  0.3244
14215SOL    HW148481   8.204   8.051   1.067 -2.2342 -0.0347  0.2382
14215SOL    HW248482   8.230   7.995   1.205 -0.4932  0.1673  0.0133
14216SOL     OW48483   5.185   4.751   7.866 -0.3284  0.0488  0.1640
14216SOL    HW148484   5.125   4.684   7.900 -0.6812 -0.8192 -1.9508
14216SOL    HW248485   5.269   4.731   7.907 -1.1546  0.4200  2.1140
14217SOL     OW48486   2.406   5.370   0.106 -0.3688  0.1296 -0.0536
14217SOL    HW148487   2.440   5.444   0.056 -0.0755 -0.2458 -0.4158
14217SOL    HW248488   2.422   5.393   0.197  0.3810  0.1965 -0.1942
14218SOL     OW48489   6.228   4.106  10.179  0.3068  0.5255 -0.2480
14218SOL    HW148490   6.256   4.074  10.265 -0.1904 -2.5619 -1.1173
14218SOL    HW248491   6.308   4.113  10.128  0.4495  0.9473  0.0306
14219SOL     OW48492   9.351   6.794   4.444 -0.1930 -1.0695  0.0889
14219SOL    HW148493   9.262   6.821   4.421  0.5529  0.8536 -0.7427
14219SOL    HW248494   9.401   6.807   4.363  1.0372 -1.1859  0.8125
14220SOL     OW48495   4.288   1.176   5.070 -0.2101 -0.7637  0.1054
14220SOL    HW148496   4.345   1.099   5.063  1.4966  0.3566  0.9640
14220SOL    HW248497   4.278   1.207   4.980 -0.3478 -1.5890 -0.1698
14221SOL     OW48498   5.464   0.252   7.733 -0.1778 -0.3371  0.2363
14221SOL    HW148499   5.484   0.196   7.659 -0.0757  0.3385 -0.2606
14221SOL    HW248500   5.472   0.341   7.698 -4.0975  0.0736 -0.0741
14222SOL     OW48501   1.373   9.379   6.961 -0.2464  0.0028  0.4208
14222SOL    HW148502   1.315   9.374   6.885  0.0528  0.8335  0.1249
14222SOL    HW248503   1.460   9.393   6.924 -0.1558  0.8794  0.9150
14223SOL     OW48504   5.556   9.623   6.893  0.5613 -0.2519 -0.3470
14223SOL    HW148505   5.563   9.545   6.838 -3.0755 -1.0856  0.1052
14223SOL    HW248506   5.487   9.675   6.853 -0.5141  0.2909  2.0298
14224SOL     OW48507   0.598  10.366   7.896 -0.1518  0.3762  0.2595
14224SOL    HW148508   0.628  10.275   7.896 -0.5010  0.2251  2.1631
14224SOL    HW248509   0.678  10.417   7.888  0.3437 -0.0970  1.7368
14225SOL     OW48510   8.579  10.173   0.443 -0.0255 -0.1184  0.1091
14225SOL    HW148511   8.631  10.098   0.474  1.4644  0.9645  0.3234
14225SOL    HW248512   8.638  10.248   0.450 -0.9203  0.8141 -1.7007
14226SOL     OW48513   9.827   0.383   5.515 -0.0247  0.1022 -0.0543
14226SOL    HW148514   9.856   0.385   5.424 -0.0535 -0.0852 -0.0685
14226SOL    HW248515   9.746   0.434   5.516 -0.7656 -1.0306 -0.4027
14227SOL     OW48516   8.651   8.624   8.403  0.8897 -0.2506  0.0699
14227SOL    HW148517   8.676   8.586   8.487 -0.3964  0.9116  1.0366
14227SOL    HW248518   8.694   8.709   8.402  2.7431 -1.1404 -1.5129
14228SOL     OW48519   2.246   7.653   4.509 -0.2090  0.0996 -0.3192
14228SOL    HW148520   2.277   7.563   4.519 -1.6827 -0.4494 -0.4206
14228SOL    HW248521   2.280   7.699   4.586  0.4986 -0.5455 -0.2295
14229SOL     OW48522   9.678   4.432   7.778 -0.2203 -0.1179  0.4279
14229SOL    HW148523   9.741   4.439   7.850 -0.7111  1.3068  0.7561
14229SOL    HW248524   9.728   4.457   7.700  0.2164 -1.3036  0.3104
14230SOL     OW48525   6.555   7.021   5.588 -0.0938 -0.1171 -0.3449
14230SOL    HW148526   6.631   6.978   5.628  0.6253  0.0444 -1.4904
14230SOL    HW248527   6.518   6.955   5.530  0.0581  0.2756 -0.8964
14231SOL     OW48528   3.016   2.347  10.409  0.1177  0.5828  0.3617
14231SOL    HW148529   3.055   2.416  10.355  0.5248  0.0520 -0.0239
14231SOL    HW248530   3.088   2.315  10.463  0.9074 -2.0861 -2.0505
14232SOL     OW48531   1.511   5.375   5.493 -0.0934  0.0690 -0.1211
14232SOL    HW148532   1.483   5.408   5.408  2.6262 -0.7149 -1.4553
14232SOL    HW248533   1.451   5.415   5.556 -1.7189  1.2838 -2.3220
14233SOL     OW48534   1.366   5.945   4.624  0.1306  0.0256  0.6091
14233SOL    HW148535   1.342   5.935   4.532  0.5825 -0.0341  0.4988
14233SOL    HW248536   1.308   6.014   4.656  0.8427  0.9428 -0.0402
14234SOL     OW48537   3.234   3.318   2.906 -0.0571 -0.3077  0.2845
14234SOL    HW148538   3.154   3.368   2.922 -0.0811  0.8990 -2.9274
14234SOL    HW248539   3.305   3.381   2.918  0.2321 -0.6754  0.5266
14235SOL     OW48540   0.756   7.030   0.586 -0.2332 -0.2525 -0.2214
14235SOL    HW148541   0.799   7.019   0.501 -1.4251 -1.2398 -0.7337
14235SOL    HW248542   0.821   7.072   0.641  1.2289 -1.3102 -1.0776
14236SOL     OW48543  10.831   8.594   1.297  0.6259 -0.0227 -0.3765
14236SOL    HW148544  10.866   8.612   1.384  0.4124  1.3525 -0.5450
14236SOL    HW248545  10.909   8.585   1.241  0.7611  0.9018 -0.3586
14237SOL     OW48546   5.081   6.837   4.143  0.0375 -0.2077 -0.0855
14237SOL    HW148547   5.015   6.803   4.082 -0.0891 -0.0669 -0.0288
14237SOL    HW248548   5.030   6.881   4.211  0.1237 -1.3938  0.7731
14238SOL     OW48549   1.204   6.516   1.157  0.3085 -0.3532 -0.4562
14238SOL    HW148550   1.294   6.521   1.190  0.1063  2.1634 -0.1171
14238SOL    HW248551   1.150   6.549   1.228 -0.5724  0.9874 -1.6971
14239SOL     OW48552   6.609   4.522   9.085 -0.1238 -0.4600  0.5363
14239SOL    HW148553   6.551   4.492   9.015 -0.1218 -0.0553  0.3565
14239SOL    HW248554   6.680   4.458   9.086 -0.8561 -1.2876  1.1432
14240SOL     OW48555   1.460   8.253   8.674 -0.0999 -0.1444  0.1132
14240SOL    HW148556   1.397   8.182   8.688 -1.0198  0.3399 -1.2874
14240SOL    HW248557   1.546   8.212   8.680 -0.6062 -1.2741 -0.1165
14241SOL     OW48558   6.211   4.695   4.866  0.8657  0.3813 -0.4552
14241SOL    HW148559   6.253   4.724   4.785  0.7406 -1.5512 -1.2820
14241SOL    HW248560   6.118   4.689   4.844  1.0055 -1.5768 -0.6751
14242SOL     OW48561   9.027   6.703   3.650  0.5326  0.4626  0.2625
14242SOL    HW148562   9.000   6.759   3.577  1.8818  1.7493  0.7170
14242SOL    HW248563   8.971   6.731   3.723  0.4315  0.4221  0.2020
14243SOL     OW48564   8.830   0.747   8.737  0.7943 -0.2191 -0.4533
14243SOL    HW148565   8.885   0.759   8.660 -0.4638 -0.1462 -1.3609
14243SOL    HW248566   8.744   0.725   8.703 -0.3150  1.7438  0.8255
14244SOL     OW48567   8.343   1.045   3.281  0.0038  0.4544  0.1405
14244SOL    HW148568   8.282   0.972   3.279  0.4878  0.0328  0.5065
14244SOL    HW248569   8.310   1.106   3.215 -0.2424 -0.2309 -0.3844
14245SOL     OW48570   7.886   1.646   2.829 -0.2385  0.6159 -0.4479
14245SOL    HW148571   7.933   1.623   2.909  1.1422  1.9269 -0.8461
14245SOL    HW248572   7.794   1.649   2.856  0.2835  2.1249  1.3897
14246SOL     OW48573   8.218   1.027   9.277 -0.4186  0.8928  0.3485
14246SOL    HW148574   8.287   0.961   9.279 -1.3662 -0.1243  1.4374
14246SOL    HW248575   8.247   1.094   9.338 -0.2891  0.5783  0.6339
14247SOL     OW48576   4.852   3.245   9.322  0.0187 -0.2602  0.0778
14247SOL    HW148577   4.824   3.224   9.233 -2.5644  0.6200  0.5978
14247SOL    HW248578   4.865   3.340   9.321 -0.3116 -0.2005  0.6799
14248SOL     OW48579   2.699  10.295   5.577  0.4835 -0.4092 -0.2238
14248SOL    HW148580   2.639  10.268   5.647  1.0482 -0.2511  0.3281
14248SOL    HW248581   2.672  10.242   5.502 -0.0967 -0.6233  0.1230
14249SOL     OW48582   3.956   9.832   9.017 -0.6368  0.4527  0.2445
14249SOL    HW148583   3.923   9.745   9.037 -0.1713  0.6592  2.0342
14249SOL    HW248584   4.009   9.819   8.937 -3.1688 -0.2462 -1.4318
14250SOL     OW48585   4.087   9.987   6.974  0.0681  0.3172 -0.1797
14250SOL    HW148586   4.044   9.949   6.898  0.9572 -0.8150 -0.1467
14250SOL    HW248587   4.051  10.076   6.981 -1.0608 -0.0552 -1.0628
14251SOL     OW48588  10.638   0.146   9.542 -0.0881 -0.2954 -0.0184
14251SOL    HW148589  10.711   0.087   9.556  1.2967  1.4324  0.3733
14251SOL    HW248590  10.601   0.159   9.629  1.3800  1.5450  0.3878
14252SOL     OW48591   8.138   9.811   6.823 -0.9342  0.0883 -0.1731
14252SOL    HW148592   8.150   9.753   6.898  0.4695  0.2427 -0.2600
14252SOL    HW248593   8.142   9.753   6.747 -0.7648  0.1347 -0.1999
14253SOL     OW48594   1.096   5.963   9.877  0.2054  0.1845 -0.6692
14253SOL    HW148595   1.033   5.953   9.948  1.5031  1.7919  0.8096
14253SOL    HW248596   1.088   5.882   9.827 -1.7046 -0.4372  0.5193
14254SOL     OW48597   1.458   7.086   2.214 -0.1091  0.1492  0.1893
14254SOL    HW148598   1.394   7.096   2.143 -1.2763 -2.6510  0.7021
14254SOL    HW248599   1.500   7.002   2.197  1.3761  0.5718  1.4890
14255SOL     OW48600   3.683   9.573   0.821  0.3553  0.6682  0.1986
14255SOL    HW148601   3.638   9.496   0.855  0.4571  0.3945 -0.2743
14255SOL    HW248602   3.754   9.538   0.768  1.7366  1.1001  1.7082
14256SOL     OW48603   2.966   4.407   1.562 -0.0920  0.5355  0.2048
14256SOL    HW148604   2.943   4.398   1.655 -0.3509  0.0066  0.0915
14256SOL    HW248605   2.990   4.318   1.535 -2.1832  0.2281 -0.8204
14257SOL     OW48606   0.217   1.523   7.475 -0.2228 -0.2765  0.2164
14257SOL    HW148607   0.244   1.518   7.566  0.1177  0.2554  0.1451
14257SOL    HW248608   0.145   1.586   7.474  1.1154  1.3113 -0.1752
14258SOL     OW48609   2.344   3.472   7.622  0.0083  0.2095  0.3443
14258SOL    HW148610   2.289   3.500   7.695 -0.5970  0.0025 -0.0244
14258SOL    HW248611   2.322   3.531   7.551  0.5665  0.3832  0.3076
14259SOL     OW48612  10.115   0.673   0.584 -0.1040 -0.1678 -0.0483
14259SOL    HW148613  10.108   0.753   0.533  0.0326  0.2041  0.5109
14259SOL    HW248614  10.031   0.666   0.630 -0.4655 -0.8283 -0.7864
14260SOL     OW48615   3.461   0.182   0.338 -0.0254  0.1863 -0.2534
14260SOL    HW148616   3.502   0.137   0.264 -0.6740 -0.0543 -0.4717
14260SOL    HW248617   3.528   0.245   0.367  1.1443 -1.3321  0.4634
14261SOL     OW48618   0.118   2.792   9.237 -0.6235  0.0022 -0.1541
14261SOL    HW148619   0.149   2.877   9.205 -0.6431  0.1577  0.2390
14261SOL    HW248620   0.043   2.813   9.293 -0.9343 -0.3108 -0.4411
14262SOL     OW48621  10.392   7.806   0.761 -0.3485 -0.6729 -0.0316
14262SOL    HW148622  10.483   7.785   0.739  0.0956 -0.2769  1.3841
14262SOL    HW248623  10.393   7.899   0.782 -0.8984 -0.8688  0.8907
14263SOL     OW48624   5.473   3.547  10.333 -0.7978 -0.2869  0.1955
14263SOL    HW148625   5.470   3.635  10.296 -1.8711 -0.3564  0.0874
14263SOL    HW248626   5.457   3.488  10.259  0.9648 -0.6451  0.0728
14264SOL     OW48627   9.833   4.364   4.238  0.4936 -0.3504  0.6000
14264SOL    HW148628   9.865   4.329   4.155  0.0257 -1.6603  0.9522
14264SOL    HW248629   9.899   4.338   4.303 -0.9066 -2.6177  1.2415
14265SOL     OW48630   0.574   1.803   5.670 -0.1790 -0.4835 -0.4636
14265SOL    HW148631   0.537   1.822   5.584 -0.4365  0.9769 -0.0736
14265SOL    HW248632   0.625   1.723   5.658 -0.7056 -0.6427 -1.8196
14266SOL     OW48633   0.867  10.210   0.631 -0.6152 -0.3590  0.0050
14266SOL    HW148634   0.938  10.180   0.687 -2.4488 -1.6782  1.7699
14266SOL    HW248635   0.846  10.135   0.576 -0.2301  0.2486 -1.0043
14267SOL     OW48636   2.277   5.240   6.897  0.1311 -0.0191 -0.3710
14267SOL    HW148637   2.188   5.273   6.894  0.3867  0.9313  1.1973
14267SOL    HW248638   2.331   5.313   6.864  0.4037 -0.1882 -0.3060
14268SOL     OW48639   2.844   5.701   4.358  0.5264  0.1055 -0.2708
14268SOL    HW148640   2.787   5.661   4.293  0.4710  0.8268 -0.6709
14268SOL    HW248641   2.829   5.795   4.350  1.7243  0.3134 -0.3447
14269SOL     OW48642   5.596   2.403   9.218 -0.7735 -0.2900  0.3201
14269SOL    HW148643   5.682   2.364   9.206 -1.2271 -2.4384  3.1731
14269SOL    HW248644   5.543   2.367   9.147 -0.3744 -2.5060  1.0949
14270SOL     OW48645  10.658  10.648   4.343  0.7326  0.3214 -0.0078
14270SOL    HW148646  10.597  10.683   4.278  1.4508  0.2891 -0.7095
14270SOL    HW248647  10.729  10.712   4.347  0.7959  0.2221  0.5977
14271SOL     OW48648  10.443   3.126   6.844 -0.0554 -0.3104  0.0469
14271SOL    HW148649  10.465   3.219   6.843 -2.3837  0.3349  1.3974
14271SOL    HW248650  10.527   3.081   6.856  1.1538  1.5685 -0.9454
14272SOL     OW48651   7.556   2.441   8.874 -0.4585  0.1324 -0.0898
14272SOL    HW148652   7.641   2.485   8.873 -1.0763  1.4111  0.0889
14272SOL    HW248653   7.520   2.457   8.787 -0.1365 -1.2170 -0.4804
14273SOL     OW48654   9.272   5.715   4.896  0.2996 -0.1056  0.0979
14273SOL    HW148655   9.272   5.805   4.865  0.5147 -0.1163  0.0602
14273SOL    HW248656   9.188   5.704   4.941 -0.0820 -0.1381 -0.6114
14274SOL     OW48657   7.508   7.299   5.620  0.1608  0.2451 -0.1628
14274SOL    HW148658   7.428   7.349   5.606  0.8937  1.1450 -1.2218
14274SOL    HW248659   7.568   7.329   5.552  0.8270 -1.6559 -0.4717
14275SOL     OW48660   7.491   1.108   3.959 -0.2411  0.1737  0.1095
14275SOL    HW148661   7.555   1.172   3.991 -1.2344  1.1952  0.1125
14275SOL    HW248662   7.510   1.028   4.008  1.5005  0.2281 -0.4217
14276SOL     OW48663   0.456   3.539   3.118  0.0019 -0.3216 -0.5262
14276SOL    HW148664   0.497   3.554   3.203 -1.3915  0.7371  0.0010
14276SOL    HW248665   0.517   3.577   3.055  0.4580  0.0065  0.1027
14277SOL     OW48666   1.927   4.870   9.010 -0.1169 -0.0522  0.1196
14277SOL    HW148667   1.907   4.816   8.934 -1.4505  1.0294 -0.3418
14277SOL    HW248668   1.957   4.953   8.975 -0.1817  0.2587  0.7732
14278SOL     OW48669  10.908   5.842   5.889  0.3749  0.1892  0.2895
14278SOL    HW148670  11.000   5.844   5.861  0.0365  0.7544 -0.8359
14278SOL    HW248671  10.865   5.908   5.834 -0.8732 -0.6679  0.2033
14279SOL     OW48672   1.961   5.223   2.836  0.3938  0.0237 -0.0899
14279SOL    HW148673   1.899   5.201   2.905 -0.0740  0.1791 -0.4602
14279SOL    HW248674   1.910   5.222   2.756  1.2462 -1.6164 -0.6569
14280SOL     OW48675   5.533   0.100   6.084 -0.7944  0.0558  0.2017
14280SOL    HW148676   5.473   0.040   6.040  0.6277 -0.0782 -1.6546
14280SOL    HW248677   5.476   0.167   6.123 -2.1465  0.0945 -1.7303
14281SOL     OW48678   9.156  10.304   4.303  0.6835  0.0435 -0.1154
14281SOL    HW148679   9.080  10.246   4.293  0.3342  0.7298 -1.6262
14281SOL    HW248680   9.151  10.333   4.395 -1.4899  0.8570 -0.4219
14282SOL     OW48681   6.000   0.467   3.996  0.1437 -0.2315 -0.1227
14282SOL    HW148682   6.012   0.548   4.046 -0.4894  0.3439 -0.8758
14282SOL    HW248683   6.085   0.451   3.955 -0.0692  0.7443 -0.9679
14283SOL     OW48684   1.553   4.883  10.168 -0.0866  0.3262  0.3243
14283SOL    HW148685   1.537   4.975  10.144  2.8399  1.1996  1.2385
14283SOL    HW248686   1.591   4.844  10.090 -1.9238 -0.3607 -0.2751
14284SOL     OW48687   9.927   5.827   1.639  0.0298 -0.2513  0.0610
14284SOL    HW148688  10.022   5.817   1.630  0.0268 -0.7445  0.5401
14284SOL    HW248689   9.912   5.837   1.733 -0.1871  2.2130 -0.1703
14285SOL     OW48690   6.353   9.566   8.473 -0.1405  0.1812  0.4413
14285SOL    HW148691   6.427   9.608   8.429 -1.6567  1.6074 -0.8312
14285SOL    HW248692   6.375   9.571   8.566  2.0941 -0.9166  0.0636
14286SOL     OW48693   5.562   9.925   2.897  0.0576  0.4889 -0.8558
14286SOL    HW148694   5.535   9.928   2.805 -0.0328  0.0363 -0.8438
14286SOL    HW248695   5.550   9.834   2.923 -0.0302  0.6397 -0.3596
14287SOL     OW48696   2.111  10.601  10.485 -0.2526  0.0766 -0.6791
14287SOL    HW148697   2.046  10.531  10.478 -0.1987 -0.0066 -0.3609
14287SOL    HW248698   2.146  10.610  10.396 -0.8559  0.2775 -0.9001
14288SOL     OW48699   6.929   8.303   5.077 -0.0849  0.2619 -0.3446
14288SOL    HW148700   6.865   8.233   5.088  1.0535 -0.6139  1.1860
14288SOL    HW248701   7.004   8.260   5.035  0.4536  0.6531  0.2008
14289SOL     OW48702   6.761   2.447   9.828  0.5666  0.7588  0.6320
14289SOL    HW148703   6.817   2.506   9.779  0.2404  0.2077 -0.4194
14289SOL    HW248704   6.813   2.367   9.839 -0.5279 -0.4070 -1.8230
14290SOL     OW48705  10.304   9.386   4.668  0.2078 -0.2888 -0.1739
14290SOL    HW148706  10.278   9.392   4.760 -0.5597  0.9077 -0.4479
14290SOL    HW248707  10.238   9.330   4.628 -0.9733  1.2784 -0.4983
14291SOL     OW48708   3.313   1.323   6.227 -0.3298  0.4848  0.0898
14291SOL    HW148709   3.366   1.249   6.196  0.4568  0.8111  0.6199
14291SOL    HW248710   3.362   1.357   6.302 -0.8054  1.4030 -0.0080
14292SOL     OW48711  10.024   4.617   6.706  0.1866  0.1297  0.0078
14292SOL    HW148712  10.065   4.703   6.715 -0.7431  0.5097  0.8379
14292SOL    HW248713   9.934   4.637   6.677  0.3124 -0.6352 -0.9692
14293SOL     OW48714   9.238  10.873   7.791 -0.3503 -0.0648 -0.2823
14293SOL    HW148715   9.238  10.852   7.884  1.1692  0.2356 -0.1919
14293SOL    HW248716   9.290  10.804   7.751  0.6160  0.8391 -0.6294
14294SOL     OW48717   9.033   7.444   6.966 -0.1729  0.1325  0.3464
14294SOL    HW148718   8.939   7.452   6.953 -0.0259  3.5392  0.5116
14294SOL    HW248719   9.048   7.350   6.973 -2.9800 -0.8627 -3.4957
14295SOL     OW48720   5.708   3.190   3.593 -0.1901 -0.6692  0.0647
14295SOL    HW148721   5.629   3.225   3.633 -0.5643 -1.4182 -0.0097
14295SOL    HW248722   5.780   3.230   3.642 -0.5306  1.4951 -1.0592
14296SOL     OW48723  10.855   8.748   7.369  0.1150  0.2427  0.1540
14296SOL    HW148724  10.866   8.679   7.435 -0.8495  0.5236  0.6134
14296SOL    HW248725  10.929   8.734   7.309 -0.2878 -1.4592 -0.0100
14297SOL     OW48726   4.861   3.558  10.305 -0.8683  0.6616  0.0179
14297SOL    HW148727   4.880   3.536  10.396 -0.9998  1.5022  0.2556
14297SOL    HW248728   4.887   3.650  10.296 -0.6428  0.5215 -0.8580
14298SOL     OW48729   4.001   4.096   7.734 -0.2804 -0.1243 -0.0921
14298SOL    HW148730   4.001   4.018   7.790  0.5218  0.1400  0.2923
14298SOL    HW248731   4.008   4.062   7.645 -1.0506 -0.5292 -0.0064
14299SOL     OW48732   1.637   8.876   3.426 -0.0550 -0.0444  0.3728
14299SOL    HW148733   1.686   8.956   3.444  0.4321 -0.2790  0.1127
14299SOL    HW248734   1.703   8.813   3.399 -0.4969 -0.3853  0.0657
14300SOL     OW48735   6.441   6.116   2.892 -0.1292  0.2594 -0.1852
14300SOL    HW148736   6.441   6.056   2.967  0.8350  0.5065  0.0193
14300SOL    HW248737   6.443   6.204   2.932  2.6610  0.3996 -0.4475
14301SOL     OW48738   1.283   4.485   4.641 -0.3543 -0.9069  0.0539
14301SOL    HW148739   1.208   4.472   4.699  1.5506 -0.7937  2.7380
14301SOL    HW248740   1.264   4.433   4.564 -2.6768 -1.7510  1.1176
14302SOL     OW48741   1.640   8.436   7.698  0.0941  0.5623 -0.5108
14302SOL    HW148742   1.548   8.460   7.694  0.3504  2.0568  1.2166
14302SOL    HW248743   1.649   8.387   7.780  0.4634 -1.5672 -1.7526
14303SOL     OW48744   3.916   4.944  10.098 -0.0947 -0.2674 -0.0134
14303SOL    HW148745   3.944   4.853  10.106  1.4193  0.1542 -0.3502
14303SOL    HW248746   3.821   4.938  10.084 -0.3413 -1.7039  1.8136
14304SOL     OW48747   7.304   8.087   9.771 -0.5479 -0.2256  0.2518
14304SOL    HW148748   7.308   8.036   9.690  1.3705  0.0653  0.1350
14304SOL    HW248749   7.327   8.176   9.745 -1.7742  0.2930  0.8276
14305SOL     OW48750   0.731   5.949   8.217 -0.1695 -0.1562  0.1342
14305SOL    HW148751   0.782   5.894   8.276 -1.0789 -0.4373  0.6805
14305SOL    HW248752   0.653   5.973   8.268 -1.3558 -1.0467 -1.1893
14306SOL     OW48753   8.123   3.200   7.239 -0.1623  0.2475 -0.7467
14306SOL    HW148754   8.063   3.180   7.167  0.3908  0.6844 -1.3465
14306SOL    HW248755   8.068   3.241   7.305 -0.8657 -1.0787 -0.4898
14307SOL     OW48756   8.569   5.872   7.103 -0.4474  0.4836 -0.2789
14307SOL    HW148757   8.651   5.895   7.146 -1.3916  1.0520  1.3161
14307SOL    HW248758   8.589   5.791   7.055  1.4831  1.5645 -1.4238
14308SOL     OW48759   8.664   9.621   4.159  0.3025  0.4300 -0.0596
14308SOL    HW148760   8.659   9.692   4.222  2.1996 -0.5709  1.3487
14308SOL    HW248761   8.575   9.609   4.127 -0.1038  3.2226 -0.1579
14309SOL     OW48762   7.417   3.538   3.286  0.0835 -0.4252  0.1553
14309SOL    HW148763   7.347   3.511   3.345 -0.0519  1.0777  0.7346
14309SOL    HW248764   7.452   3.457   3.251 -1.5878 -1.2384  0.2766
14310SOL     OW48765   3.581   0.236   8.474 -0.4377 -0.0465 -0.5304
14310SOL    HW148766   3.551   0.311   8.525 -1.4797 -1.0499  0.3847
14310SOL    HW248767   3.529   0.162   8.506  0.3803 -1.1243 -1.5744
14311SOL     OW48768   2.072  10.347   6.881  0.0233  0.0914 -0.4742
14311SOL    HW148769   1.978  10.352   6.895 -0.5330 -2.2668 -2.6395
14311SOL    HW248770   2.087  10.398   6.802  0.4454 -0.0892 -0.5148
14312SOL     OW48771   6.206   1.631   0.146  0.4063  0.3347 -0.0920
14312SOL    HW148772   6.176   1.622   0.236  0.8331  1.7706  0.2252
14312SOL    HW248773   6.177   1.719   0.120  1.0589  0.2805 -1.0498
14313SOL     OW48774   2.595  10.520   4.682 -0.1568  0.6081  0.1699
14313SOL    HW148775   2.532  10.583   4.646  1.5273  2.3814  0.2047
14313SOL    HW248776   2.668  10.521   4.620 -0.1828 -1.5762  0.0110
14314SOL     OW48777   3.629   9.000   2.823 -0.2790  0.3627 -0.6698
14314SOL    HW148778   3.709   9.051   2.831 -0.3558  0.4393 -0.3979
14314SOL    HW248779   3.587   9.033   2.743 -0.4777  0.9306 -0.3379
14315SOL     OW48780   0.141   4.557   8.436 -0.0373 -0.0791  0.2072
14315SOL    HW148781   0.232   4.555   8.405  0.2663 -2.7378  1.0160
14315SOL    HW248782   0.090   4.525   8.361 -0.2567  0.8220 -0.0394
14316SOL     OW48783   9.313   5.627   8.713 -0.1810  0.4915 -0.7648
14316SOL    HW148784   9.352   5.616   8.626  2.6985  1.3146  0.2959
14316SOL    HW248785   9.287   5.719   8.716 -2.8623 -0.1480 -1.6191
14317SOL     OW48786   0.098   2.455   5.278 -0.1046 -0.7245  0.0947
14317SOL    HW148787   0.086   2.510   5.201 -4.3552 -0.3174  0.7698
14317SOL    HW248788   0.052   2.374   5.256  0.8506 -1.6184  1.2899
14318SOL     OW48789   5.704   7.869   9.256 -0.1153  0.3487 -0.2830
14318SOL    HW148790   5.767   7.814   9.303 -0.1816 -0.8299 -1.5049
14318SOL    HW248791   5.747   7.889   9.173 -0.6878  0.9388 -0.4426
14319SOL     OW48792   9.280   4.014   6.726  0.1294  0.1544  0.4483
14319SOL    HW148793   9.327   4.097   6.736  0.0178  0.0895  1.6544
14319SOL    HW248794   9.299   3.986   6.636  0.1461  1.4935  0.0065
14320SOL     OW48795   5.460   0.705   7.698  0.1616  0.1508  0.3621
14320SOL    HW148796   5.429   0.717   7.788 -0.4904 -0.2213  0.1946
14320SOL    HW248797   5.397   0.645   7.659  1.0484 -0.5375 -0.0346
14321SOL     OW48798   4.079   2.140   0.658  0.2486  0.0468  0.2756
14321SOL    HW148799   3.988   2.111   0.654 -0.2715  1.3901  1.4247
14321SOL    HW248800   4.128   2.071   0.614 -1.3403 -0.5972 -0.5718
14322SOL     OW48801   4.828   9.315   7.393  0.5014  0.6228  0.2960
14322SOL    HW148802   4.752   9.279   7.438 -0.6394  0.1774 -1.9029
14322SOL    HW248803   4.892   9.244   7.394  0.4238  0.5549  1.0283
14323SOL     OW48804   1.835   2.749   7.272 -0.6262 -0.5050 -0.4047
14323SOL    HW148805   1.909   2.689   7.263 -0.4002 -0.6893  2.0217
14323SOL    HW248806   1.777   2.726   7.200  1.3218 -0.8422 -1.9463
14324SOL     OW48807   5.123   3.192   5.082  0.0895  0.3536 -0.1047
14324SOL    HW148808   5.082   3.108   5.062  1.2221 -0.2054 -0.1561
14324SOL    HW248809   5.186   3.172   5.152 -0.2763  1.3412  0.5385
14325SOL     OW48810   8.375   7.815   4.626  0.3932  0.0238 -0.4075
14325SOL    HW148811   8.296   7.767   4.599  0.5954 -0.3188 -0.3917
14325SOL    HW248812   8.375   7.811   4.721  0.5539 -0.1732 -0.4162
14326SOL     OW48813   3.357   8.156   4.480  0.3691 -0.0128 -0.0201
14326SOL    HW148814   3.305   8.216   4.533  1.3384  1.7028 -0.9248
14326SOL    HW248815   3.444   8.158   4.520  0.3431 -1.1079  0.1332
14327SOL     OW48816   5.080   2.779   3.276 -0.6788 -0.0361 -0.6491
14327SOL    HW148817   5.084   2.691   3.238  0.0084 -0.2425 -0.1095
14327SOL    HW248818   5.164   2.790   3.321 -1.5257  0.1471  0.9490
14328SOL     OW48819  10.873   7.928   6.691 -0.1673 -0.1525  0.0790
14328SOL    HW148820  10.891   7.836   6.669 -0.5327 -0.3778  0.6953
14328SOL    HW248821  10.903   7.937   6.782  0.1791  0.4304 -0.0888
14329SOL     OW48822   2.136   6.054   9.439  0.0704  0.0304  0.0122
14329SOL    HW148823   2.042   6.038   9.434  0.2217 -0.7801 -0.3507
14329SOL    HW248824   2.167   5.996   9.508  0.5195 -0.8013 -0.8610
14330SOL     OW48825   9.693   8.791   3.999  0.1313  0.1813 -0.1751
14330SOL    HW148826   9.652   8.705   3.998 -0.2541  0.3632 -0.7806
14330SOL    HW248827   9.779   8.776   4.040 -0.0789 -0.4135  0.0646
14331SOL     OW48828   9.115   5.877   6.170  0.6384  0.0367 -0.1415
14331SOL    HW148829   9.069   5.892   6.087  0.9626 -0.3889 -0.4026
14331SOL    HW248830   9.148   5.964   6.195 -2.6690  0.9669  1.5248
14332SOL     OW48831   2.790   6.991   4.607  0.1572 -0.3562  0.2528
14332SOL    HW148832   2.868   6.999   4.662 -0.9994 -2.3571  2.3900
14332SOL    HW248833   2.735   6.926   4.652 -2.1879  0.0028 -1.8253
14333SOL     OW48834  10.549   0.486  10.168  0.0593  0.1889 -0.0144
14333SOL    HW148835  10.512   0.570  10.194  0.3915  0.0423  0.9828
14333SOL    HW248836  10.565   0.440  10.250  1.7737 -0.0456 -0.4332
14334SOL     OW48837   3.764   4.332   2.880 -1.0494 -0.3650 -0.0067
14334SOL    HW148838   3.723   4.411   2.846  0.2347  0.0669 -0.5991
14334SOL    HW248839   3.832   4.310   2.816  0.2357 -0.5559  1.3617
14335SOL     OW48840   8.818   9.687  10.729  0.2746 -0.3360  0.0409
14335SOL    HW148841   8.759   9.745  10.680  1.3221  0.3258 -0.4876
14335SOL    HW248842   8.862   9.745  10.791  1.4372 -0.5092 -0.5898
14336SOL     OW48843   9.577   5.714  10.107 -0.0250  0.8128  0.0526
14336SOL    HW148844   9.636   5.649  10.145 -1.2767 -0.4714 -0.1353
14336SOL    HW248845   9.574   5.692  10.014  0.3853  1.8361 -0.2155
14337SOL     OW48846   1.375  10.092   0.023  0.5754  0.2396 -0.5488
14337SOL    HW148847   1.436  10.098   0.096  1.4077 -1.4028 -1.0460
14337SOL    HW248848   1.294  10.131   0.055  1.2835  0.6258  0.8209
14338SOL     OW48849   2.411   7.987   9.949 -0.0157 -0.0173  0.0903
14338SOL    HW148850   2.462   7.939  10.014 -0.8287 -3.2661 -1.4934
14338SOL    HW248851   2.320   7.963   9.967 -0.3645  0.0671 -1.4108
14339SOL     OW48852  10.650   4.543   4.524 -0.3093  0.4631 -0.6013
14339SOL    HW148853  10.633   4.492   4.604 -2.6659  1.7375 -0.1934
14339SOL    HW248854  10.628   4.482   4.453  1.7246 -0.6527 -0.3490
14340SOL     OW48855   2.971   2.466   5.298  0.0938  0.1236 -0.3268
14340SOL    HW148856   3.013   2.552   5.302 -0.6480  0.4386  1.4785
14340SOL    HW248857   3.012   2.416   5.368 -0.1940 -0.6774 -0.7221
14341SOL     OW48858   8.853   4.914   3.652 -0.3862 -0.3234 -0.2065
14341SOL    HW148859   8.771   4.869   3.635 -0.8614  0.4390  0.0192
14341SOL    HW248860   8.910   4.846   3.691 -0.6117 -1.0597 -1.1328
14342SOL     OW48861   8.028   3.025   2.913  0.1543 -0.0636  0.3444
14342SOL    HW148862   7.965   3.069   2.856  2.3267  0.9543 -1.4214
14342SOL    HW248863   8.106   3.079   2.908  1.6247 -1.9700  1.3918
14343SOL     OW48864  10.575   1.331   3.994  0.3721  0.2778 -0.1780
14343SOL    HW148865  10.572   1.361   3.902 -1.9851 -2.8425 -1.2824
14343SOL    HW248866  10.510   1.386   4.038 -2.8041 -1.8664 -1.8263
14344SOL     OW48867   0.042   9.420   9.064  0.2237  0.2687  0.3175
14344SOL    HW148868   0.120   9.373   9.036  1.2096  0.8801  1.9415
14344SOL    HW248869  -0.027   9.389   9.004  1.1796 -1.9654  0.2751
14345SOL     OW48870   0.594   9.845   9.880 -0.0201 -0.4778 -0.1911
14345SOL    HW148871   0.676   9.794   9.880  1.2611  1.4549 -1.1735
14345SOL    HW248872   0.544   9.810   9.954  1.7014 -1.7036  0.4625
14346SOL     OW48873   2.207  10.214   1.085  0.0301  0.0635  0.2888
14346SOL    HW148874   2.179  10.305   1.080  0.1193  0.0260 -1.8191
14346SOL    HW248875   2.286  10.216   1.140  0.3069  1.3375 -0.1226
14347SOL     OW48876   0.642   3.107   1.600  0.1793 -0.0628 -0.1735
14347SOL    HW148877   0.614   3.030   1.651  0.9461  0.6124  1.3297
14347SOL    HW248878   0.668   3.171   1.666  1.3884  0.8011 -1.4334
14348SOL     OW48879   7.783   4.025   7.904 -0.0159  0.2832  0.4551
14348SOL    HW148880   7.852   4.008   7.968  0.1754  0.4670  0.3005
14348SOL    HW248881   7.782   4.121   7.895 -0.2241  0.2751  0.3836
14349SOL     OW48882   0.094   6.755   2.613 -0.4996 -0.2411  0.2056
14349SOL    HW148883   0.096   6.761   2.708 -0.8330 -1.5509  0.3075
14349SOL    HW248884   0.184   6.737   2.588 -0.9873 -4.0000  0.6299
14350SOL     OW48885   2.740   5.223   4.338 -0.2772 -0.0124  0.5126
14350SOL    HW148886   2.648   5.224   4.313 -0.3981 -0.9259  0.8895
14350SOL    HW248887   2.760   5.314   4.358 -0.5663  0.5421 -1.4421
14351SOL     OW48888   0.876   4.718   4.733 -0.2059 -0.2076  0.0189
14351SOL    HW148889   0.865   4.777   4.807 -1.5112  0.5537 -0.7305
14351SOL    HW248890   0.787   4.686   4.715  0.0009 -0.0246 -1.4682
14352SOL     OW48891   0.109  10.181  10.077 -0.0280 -0.4785  0.5533
14352SOL    HW148892   0.024  10.208  10.044 -0.4512 -1.1388  1.0759
14352SOL    HW248893   0.105  10.086  10.081  0.4155 -0.4762  1.3996
14353SOL     OW48894   9.394   6.927   7.408  0.0690  0.0105 -0.1909
14353SOL    HW148895   9.467   6.935   7.346 -0.1771 -0.9042 -0.6255
14353SOL    HW248896   9.433   6.885   7.485 -0.3307 -2.3387 -1.1612
14354SOL     OW48897   9.485   6.577   6.206 -0.1731 -0.3032  0.1015
14354SOL    HW148898   9.423   6.647   6.184 -0.5917 -0.9558 -0.8532
14354SOL    HW248899   9.522   6.550   6.122  2.1020  0.6712  0.7212
14355SOL     OW48900  10.063   2.197   9.482  0.1018  0.2346 -0.0000
14355SOL    HW148901   9.982   2.248   9.476 -0.1300 -0.1759 -0.5285
14355SOL    HW248902  10.100   2.199   9.394 -0.0961 -0.7865 -0.1280
14356SOL     OW48903   0.908   2.744   9.367 -0.2716  0.4168 -0.3846
14356SOL    HW148904   0.855   2.817   9.336 -2.7661 -0.5450  1.2538
14356SOL    HW248905   0.879   2.669   9.315  0.4499  0.1072 -0.3609
14357SOL     OW48906   2.631   0.969   4.373  0.6085  0.2730  0.1179
14357SOL    HW148907   2.658   1.040   4.315  0.9242 -1.1137 -1.5234
14357SOL    HW248908   2.560   1.006   4.426  0.6473  1.7418 -0.8177
14358SOL     OW48909   0.413   3.625   4.991 -0.1516 -0.0071 -1.2550
14358SOL    HW148910   0.365   3.661   5.066  0.4749  0.0712 -0.8808
14358SOL    HW248911   0.362   3.549   4.964 -0.5532  0.1449 -0.9460
14359SOL     OW48912   6.582   1.713   4.934  0.2840 -0.3632  0.1492
14359SOL    HW148913   6.573   1.713   5.029 -0.4562 -1.8499  0.0959
14359SOL    HW248914   6.503   1.669   4.902 -0.1362  1.2893 -1.2403
14360SOL     OW48915   3.220   5.731   5.294  0.4036  0.2193  0.3774
14360SOL    HW148916   3.286   5.777   5.242  0.7959 -2.3574 -1.6588
14360SOL    HW248917   3.138   5.746   5.247  0.6633 -1.6166 -0.8118
14361SOL     OW48918   0.338   4.623   7.149  0.2818  0.1117  0.5524
14361SOL    HW148919   0.327   4.656   7.060  0.7826  1.0537  0.8280
14361SOL    HW248920   0.310   4.531   7.145 -1.1613  0.5635 -0.2351
14362SOL     OW48921   0.390   2.870   6.858  0.3401 -0.4391 -0.2242
14362SOL    HW148922   0.404   2.822   6.776 -0.5186  0.1052 -0.7054
14362SOL    HW248923   0.472   2.916   6.873 -0.0773  0.8810 -1.7529
14363SOL     OW48924   7.291   0.264   2.753 -1.2619  0.2442  0.2077
14363SOL    HW148925   7.276   0.230   2.842  0.0142  0.0592  0.3820
14363SOL    HW248926   7.340   0.194   2.710 -2.8030 -0.1282 -1.0175
14364SOL     OW48927   1.177  10.615   1.516  0.0819 -0.5646 -0.0703
14364SOL    HW148928   1.125  10.672   1.572  0.9546 -1.3982  1.6793
14364SOL    HW248929   1.126  10.534   1.510 -0.8092  0.0797 -1.9471
14365SOL     OW48930   7.455   4.658   9.851 -0.1626 -0.4468 -0.3468
14365SOL    HW148931   7.467   4.740   9.803  0.3508 -0.4732 -0.2614
14365SOL    HW248932   7.472   4.681   9.942  1.6845 -1.0111 -0.5204
14366SOL     OW48933  10.091   5.964   0.072 -0.0520 -0.5887 -0.0825
14366SOL    HW148934  10.094   6.001  -0.016  2.7006 -0.3937  0.0005
14366SOL    HW248935  10.115   5.872   0.060 -0.9238 -0.8781  0.3411
14367SOL     OW48936   6.927   8.119   4.185 -0.0640  0.4181  0.4676
14367SOL    HW148937   7.007   8.171   4.172 -0.2479  0.3647 -1.1294
14367SOL    HW248938   6.857   8.175   4.149 -0.4854 -0.2648  0.2165
14368SOL     OW48939   5.015   7.941   5.095  0.0247 -0.0105 -0.7422
14368SOL    HW148940   4.993   7.945   5.002  0.0306  0.5693 -0.7235
14368SOL    HW248941   4.932   7.922   5.139 -0.4358  1.8968 -0.6944
14369SOL     OW48942   5.134   0.624   8.561 -0.3208  0.0768 -0.3417
14369SOL    HW148943   5.064   0.601   8.500  0.0852 -0.5768 -0.5728
14369SOL    HW248944   5.114   0.714   8.588 -1.8018 -0.4172  0.3570
14370SOL     OW48945   2.194   5.778   6.645 -0.4014  0.2973 -0.4741
14370SOL    HW148946   2.110   5.816   6.620  0.0701  1.0460 -0.9503
14370SOL    HW248947   2.194   5.780   6.741 -1.6656 -1.3672 -0.4021
14371SOL     OW48948   9.894   0.036   6.041 -0.0905  0.0518  0.4849
14371SOL    HW148949   9.925   0.051   6.131 -0.2252  1.4182  0.3314
14371SOL    HW248950   9.967  -0.009   5.998  1.3295  2.2581  0.4209
14372SOL     OW48951   0.308   8.500   2.142 -0.3877  0.6685 -0.5648
14372SOL    HW148952   0.323   8.527   2.052  1.1361  1.0405 -0.2276
14372SOL    HW248953   0.245   8.564   2.175  1.1500  2.2870 -0.5811
14373SOL     OW48954   2.006  10.167   8.045 -0.2066 -0.3447 -0.0275
14373SOL    HW148955   1.939  10.174   8.114 -0.2314 -1.9785  0.1641
14373SOL    HW248956   2.070  10.106   8.081  1.1147  0.7396 -0.4580
14374SOL     OW48957   1.194   0.764   4.926 -0.1013 -0.1598  0.3412
14374SOL    HW148958   1.144   0.690   4.890 -0.6156  0.3830 -0.0669
14374SOL    HW248959   1.272   0.770   4.871 -1.1533  1.0208 -1.0773
14375SOL     OW48960   2.457   8.348  10.684 -0.4626 -0.1011 -0.2349
14375SOL    HW148961   2.513   8.331  10.609 -3.4172  1.3860 -3.0434
14375SOL    HW248962   2.443   8.262  10.724  1.8865 -0.7909 -0.7617
14376SOL     OW48963   9.804   5.379  10.066 -0.1584 -0.2790  0.0202
14376SOL    HW148964   9.856   5.301  10.084 -0.6200 -0.4337  0.7209
14376SOL    HW248965   9.783   5.373   9.973  1.8457  0.2624 -0.5181
14377SOL     OW48966   0.644   1.882   7.446  0.3977 -0.6862 -0.3673
14377SOL    HW148967   0.564   1.931   7.426 -0.5227 -1.2080  1.7256
14377SOL    HW248968   0.613   1.795   7.469  1.2688 -0.2642  2.7961
14378SOL     OW48969   2.846   6.477   7.316  0.6192  0.4300  0.0276
14378SOL    HW148970   2.769   6.433   7.280  0.0965  1.8315 -0.6657
14378SOL    HW248971   2.892   6.510   7.239 -0.1625  2.9176  0.5271
14379SOL     OW48972   3.366   9.704   2.340  0.1835 -0.5999 -0.1095
14379SOL    HW148973   3.446   9.713   2.392  1.5202  0.4838 -2.1855
14379SOL    HW248974   3.394   9.723   2.251 -2.2743 -0.9757 -1.0345
14380SOL     OW48975   2.521   4.065   8.896  0.1147 -0.0844  0.3650
14380SOL    HW148976   2.511   4.074   8.991 -1.9191 -0.3867  0.2249
14380SOL    HW248977   2.443   4.106   8.860  0.5495 -0.5387 -1.1610
14381SOL     OW48978   5.451   4.847   1.394 -0.3565  0.3885  0.0817
14381SOL    HW148979   5.503   4.794   1.453  0.9645 -0.6863 -1.9215
14381SOL    HW248980   5.370   4.798   1.381 -0.0326 -0.1062 -0.1020
14382SOL     OW48981   3.655   1.305   9.812 -0.3461  0.3236 -0.2560
14382SOL    HW148982   3.603   1.243   9.761 -0.0007  0.5542 -0.9054
14382SOL    HW248983   3.743   1.300   9.774  0.3755 -0.7783  1.4542
14383SOL     OW48984   9.231   8.435   8.401  0.6143 -0.9516 -0.1586
14383SOL    HW148985   9.207   8.429   8.494 -2.1830 -0.7525 -0.7823
14383SOL    HW248986   9.174   8.503   8.366  3.1231  0.5093 -1.6460
14384SOL     OW48987   2.558  10.524   3.499  0.1705  0.0529 -0.1791
14384SOL    HW148988   2.598  10.591   3.444  2.9183  0.4676  2.1127
14384SOL    HW248989   2.519  10.572   3.572  1.2652 -0.7483  0.9644
14385SOL     OW48990   8.545   2.321   3.041 -0.5678 -0.0839 -0.0091
14385SOL    HW148991   8.615   2.364   2.992 -1.2305 -0.1658 -1.0539
14385SOL    HW248992   8.573   2.230   3.048 -0.9504 -0.2973 -1.1525
14386SOL     OW48993   4.468   4.887   7.339  0.0740 -0.2754 -0.2124
14386SOL    HW148994   4.469   4.803   7.385  0.4188 -0.5530 -0.7066
14386SOL    HW248995   4.383   4.925   7.359 -0.2067 -0.8844 -0.2176
14387SOL     OW48996   8.404   7.704   8.843  0.5624 -0.0687  0.1194
14387SOL    HW148997   8.391   7.627   8.899 -0.5601  1.3781  1.9924
14387SOL    HW248998   8.335   7.764   8.870  0.0055  0.7596 -2.8925
14388SOL     OW48999   5.561   1.806   2.268 -0.0214 -0.0735 -0.2482
14388SOL    HW149000   5.493   1.871   2.283 -0.3987 -0.4356 -0.3771
14388SOL    HW249001   5.642   1.857   2.263 -0.2261  0.3149  0.3114
14389SOL     OW49002   3.973  10.236   3.140  0.6326 -0.1926  0.5827
14389SOL    HW149003   4.034  10.308   3.155 -0.2291  1.1452 -1.8437
14389SOL    HW249004   4.029  10.159   3.131  1.9166  0.8412 -0.6203
14390SOL     OW49005   8.377   4.552   1.078 -0.5051 -0.2779 -0.1284
14390SOL    HW149006   8.298   4.498   1.076 -0.6247 -0.1067 -0.0770
14390SOL    HW249007   8.409   4.545   1.168 -1.4487  1.0605  0.3390
14391SOL     OW49008   4.515   2.708   1.062 -0.0449 -0.0154 -0.2359
14391SOL    HW149009   4.592   2.760   1.086  1.3317 -1.7113 -0.7584
14391SOL    HW249010   4.477   2.754   0.988 -1.9125  2.9997  2.3703
14392SOL     OW49011   9.392   3.711   1.888 -0.6590  0.4631 -0.2430
14392SOL    HW149012   9.449   3.678   1.957 -0.3585 -0.0692 -0.7319
14392SOL    HW249013   9.340   3.779   1.930 -0.5125  0.1193  0.5150
14393SOL     OW49014   2.705   1.565  10.367  0.0126  0.2184 -0.4007
14393SOL    HW149015   2.690   1.552  10.273  1.3336 -0.6004 -0.5230
14393SOL    HW249016   2.675   1.484  10.408  1.0347 -0.1440 -0.3259
14394SOL     OW49017   8.093   2.270   7.797  0.0437 -0.6874  0.3588
14394SOL    HW149018   8.007   2.288   7.759  0.0838 -0.0142  0.5690
14394SOL    HW249019   8.155   2.290   7.727  0.1307  0.7807  0.8188
14395SOL     OW49020   0.738   8.371   9.345 -0.3672 -0.0119  0.3895
14395SOL    HW149021   0.682   8.369   9.423  0.6721  0.0845  1.1480
14395SOL    HW249022   0.827   8.363   9.378  0.2952  2.5164 -0.5700
14396SOL     OW49023   9.113   1.432  10.383  0.2611 -0.2821 -0.3967
14396SOL    HW149024   9.162   1.468  10.457 -2.6557 -1.9452  2.6237
14396SOL    HW249025   9.154   1.471  10.306  3.1024  2.1294  2.0722
14397SOL     OW49026   2.535   8.881   8.692  0.3906  0.4731  0.5343
14397SOL    HW149027   2.476   8.951   8.721 -0.4090  0.4532 -0.9473
14397SOL    HW249028   2.609   8.926   8.653  0.2038  0.4956  0.2054
14398SOL     OW49029  10.076   9.427  10.586 -1.3970 -0.7223 -0.0707
14398SOL    HW149030  10.065   9.339  10.624 -0.1173 -1.4010 -1.1846
14398SOL    HW249031  10.015   9.429  10.513  0.0261 -1.5068 -1.3346
14399SOL     OW49032   1.193   8.092   4.408 -0.1241 -0.3747 -0.2028
14399SOL    HW149033   1.236   8.155   4.350 -0.3960 -0.5973 -0.6462
14399SOL    HW249034   1.136   8.146   4.464 -0.0677 -0.1904 -0.3213
14400SOL     OW49035   0.693   5.417   5.476  0.1130  1.0920 -0.0358
14400SOL    HW149036   0.661   5.412   5.386 -0.1583 -1.0472  0.1286
14400SOL    HW249037   0.614   5.421   5.530  0.1234 -1.1695  0.2296
14401SOL     OW49038   1.961   0.927   1.466 -0.2781  0.1323 -0.4731
14401SOL    HW149039   2.019   0.859   1.501 -0.7482 -1.4585 -2.5211
14401SOL    HW249040   1.926   0.971   1.543 -2.3403 -3.9735  1.2947
14402SOL     OW49041   9.498   4.565   2.606  0.0251  0.4045 -0.7456
14402SOL    HW149042   9.510   4.649   2.562  0.8796  1.2635  1.0070
14402SOL    HW249043   9.417   4.574   2.656  0.7874  0.7174  0.4882
14403SOL     OW49044   2.068   0.422   4.767 -0.5630  0.3493 -0.0467
14403SOL    HW149045   2.101   0.335   4.790  0.3901  0.5729 -0.5303
14403SOL    HW249046   2.015   0.408   4.689  0.9851  0.4084 -1.1686
14404SOL     OW49047   9.994   8.607   6.374 -0.3499 -0.1948 -0.3782
14404SOL    HW149048   9.913   8.594   6.324 -0.3389  0.5221 -0.5966
14404SOL    HW249049   9.967   8.656   6.451 -0.3132 -1.0325  0.1851
14405SOL     OW49050   9.501   3.481   3.799  0.4969 -0.0159  0.6780
14405SOL    HW149051   9.458   3.540   3.860  1.6443  0.0901  1.4210
14405SOL    HW249052   9.431   3.446   3.745 -0.6726 -0.6939  2.5510
14406SOL     OW49053   0.521   6.062   2.005 -0.7695  0.0693 -0.0831
14406SOL    HW149054   0.573   6.040   2.082 -0.3704  0.6771 -0.1723
14406SOL    HW249055   0.533   6.156   1.994 -0.1771 -0.1348 -1.3540
14407SOL     OW49056   4.808   5.382   4.958 -0.5752  0.3622  0.2196
14407SOL    HW149057   4.852   5.447   5.013 -1.7363  2.3666 -1.0705
14407SOL    HW249058   4.715   5.400   4.970 -0.8902 -0.2194 -1.1292
14408SOL     OW49059   9.560   7.056   8.932 -0.0507 -0.3578 -0.2951
14408SOL    HW149060   9.610   7.138   8.934 -0.0593 -0.3637  0.2139
14408SOL    HW249061   9.468   7.085   8.930 -0.0381 -0.3423 -1.5180
14409SOL     OW49062  10.344   4.017   7.366  0.0660  0.2486 -0.6858
14409SOL    HW149063  10.276   4.068   7.323  0.8589  0.3282 -1.9096
14409SOL    HW249064  10.298   3.950   7.415 -0.9492  1.3705 -0.0605
14410SOL     OW49065   0.815   5.052   2.458  0.1937  0.1852  0.7162
14410SOL    HW149066   0.764   5.045   2.538 -1.1621 -1.0683 -0.1887
14410SOL    HW249067   0.761   5.008   2.392  0.8693  1.9127 -1.0793
14411SOL     OW49068   1.893   0.439   4.561 -0.6002 -0.6873 -0.3121
14411SOL    HW149069   1.825   0.400   4.616 -0.5062 -0.0628  0.2575
14411SOL    HW249070   1.850   0.512   4.517 -0.2858 -0.2433  0.1076
14412SOL     OW49071   3.987   5.381   0.896  0.0983  0.1385 -0.2352
14412SOL    HW149072   3.907   5.404   0.850  0.6469  0.7733 -0.8835
14412SOL    HW249073   4.043   5.458   0.889  1.3470 -0.8007 -1.0708
14413SOL     OW49074   1.286  10.539   1.891  0.4005  0.0474 -0.2496
14413SOL    HW149075   1.197  10.557   1.922  0.2988  1.1077 -1.1183
14413SOL    HW249076   1.339  10.612   1.924  0.4715  0.6927 -1.7166
14414SOL     OW49077   1.129   2.019   8.453  0.2798 -0.0151 -0.2292
14414SOL    HW149078   1.105   2.086   8.517 -1.6658 -0.1064 -0.8174
14414SOL    HW249079   1.118   2.062   8.368  1.7260 -0.2536 -0.5611
14415SOL     OW49080  10.643   5.513   3.490 -0.5585  0.0200  0.0041
14415SOL    HW149081  10.550   5.530   3.508 -0.0964  1.1769  1.5074
14415SOL    HW249082  10.676   5.474   3.570  0.5591  0.9723  0.0318
14416SOL     OW49083   4.574   7.716  10.884  0.2521  0.7399  0.0193
14416SOL    HW149084   4.504   7.777  10.907  1.5425  2.3023  0.0445
14416SOL    HW249085   4.591   7.668  10.965 -2.3910 -1.4834 -0.6046
14417SOL     OW49086   4.737   1.155   8.289  0.4119  0.2644  0.1977
14417SOL    HW149087   4.651   1.119   8.310 -0.1184  1.9944  1.2484
14417SOL    HW249088   4.719   1.240   8.250  1.6072 -0.5143 -2.2573
14418SOL     OW49089   1.841   1.469  10.269  0.4819  0.4211  0.1194
14418SOL    HW149090   1.779   1.506  10.205 -0.1439 -0.9059 -0.0865
14418SOL    HW249091   1.926   1.477  10.227 -0.0881 -2.0100 -1.7588
14419SOL     OW49092   1.354   0.422   4.845  0.8076 -0.1244 -0.2712
14419SOL    HW149093   1.277   0.365   4.853 -0.1349  1.2887  1.9233
14419SOL    HW249094   1.322   0.499   4.798  1.7121 -0.7555 -1.9965
14420SOL     OW49095   4.428   7.715   9.247 -0.5149  0.0148 -0.3095
14420SOL    HW149096   4.415   7.623   9.270 -1.5178  0.5738  1.5726
14420SOL    HW249097   4.434   7.760   9.331 -1.9472  1.9253 -1.1567
14421SOL     OW49098   3.721   7.674   7.619  0.1299  0.1702 -0.5217
14421SOL    HW149099   3.634   7.641   7.641  0.3973 -1.3610 -1.6310
14421SOL    HW249100   3.709   7.768   7.606 -1.2377  0.0641 -0.0873
14422SOL     OW49101   7.677   2.226   0.924  0.3142  0.2818  0.3423
14422SOL    HW149102   7.658   2.320   0.929 -1.1113  0.0169  0.4658
14422SOL    HW249103   7.764   2.217   0.962  0.0802  1.4392  1.2099
14423SOL     OW49104   5.617   6.618   7.096 -0.4178  0.3806  0.1009
14423SOL    HW149105   5.578   6.589   7.014 -0.2185  1.7368 -0.5020
14423SOL    HW249106   5.669   6.543   7.125  1.6425  0.7098 -2.3719
14424SOL     OW49107   8.984   9.633   3.281  0.7859  0.4740  0.1342
14424SOL    HW149108   9.030   9.693   3.339  1.1226 -0.8944  1.3336
14424SOL    HW249109   8.922   9.587   3.337  1.6730 -1.4674 -0.3750
14425SOL     OW49110   0.947   3.728   0.247 -1.1014 -0.0323  0.2838
14425SOL    HW149111   0.890   3.777   0.187 -0.0832  1.6569  0.6370
14425SOL    HW249112   0.886   3.684   0.307 -2.0726  0.1649 -0.5348
14426SOL     OW49113   1.996   0.361   5.463  0.1420 -0.0303 -0.0654
14426SOL    HW149114   2.061   0.431   5.459  1.2978 -1.0892 -1.0699
14426SOL    HW249115   2.023   0.308   5.538  0.2075 -0.2390 -0.2337
14427SOL     OW49116   6.499   4.765   7.430  0.1308  0.0701  0.1617
14427SOL    HW149117   6.516   4.736   7.340  0.0090  3.1096 -0.9359
14427SOL    HW249118   6.427   4.710   7.460  0.8121 -1.6729 -1.1829
14428SOL     OW49119   5.261   5.397   3.674  0.0854  0.1522  0.2942
14428SOL    HW149120   5.211   5.402   3.593  1.3687  2.0625 -0.4556
14428SOL    HW249121   5.321   5.323   3.661  0.6750  0.7885 -0.7820
14429SOL     OW49122   4.066   5.865   9.335  0.2080 -0.1421 -0.1409
14429SOL    HW149123   3.982   5.881   9.292 -0.1634 -0.7133  0.3569
14429SOL    HW249124   4.130   5.870   9.264 -0.4669 -1.8485 -0.9304
14430SOL     OW49125   4.871   6.067   7.239 -0.4979 -0.4311 -0.3784
14430SOL    HW149126   4.802   6.076   7.304  0.0229 -0.3133  0.1617
14430SOL    HW249127   4.932   6.003   7.276  0.3648  0.4429 -0.2417
14431SOL     OW49128   3.950   8.279   9.197 -0.3736  0.5391  0.5642
14431SOL    HW149129   3.908   8.275   9.111  0.1617  0.7661  0.2902
14431SOL    HW249130   4.029   8.225   9.188  0.2343  1.4164  0.5986
14432SOL     OW49131   9.581   1.067   6.544  0.0119  0.1013 -0.1237
14432SOL    HW149132   9.521   1.025   6.483 -0.3013 -0.0630  0.2944
14432SOL    HW249133   9.566   1.022   6.627  0.7625  0.0039 -0.0298
14433SOL     OW49134   3.707   1.892   7.146  0.0952 -0.3187 -0.0356
14433SOL    HW149135   3.730   1.969   7.093 -1.5855  0.1986 -0.0731
14433SOL    HW249136   3.655   1.927   7.218  0.3473 -1.3001  0.6433
14434SOL     OW49137   1.561   8.622   1.055 -0.1482 -0.2242  0.4761
14434SOL    HW149138   1.509   8.651   0.981  0.2385 -0.9155 -0.0833
14434SOL    HW249139   1.504   8.560   1.102 -0.8641  1.1574  1.5042
14435SOL     OW49140   8.382   4.302   6.543 -0.2568  0.5228  0.0413
14435SOL    HW149141   8.294   4.284   6.511  0.2458  0.5645 -1.4368
14435SOL    HW249142   8.429   4.219   6.531 -0.6762 -0.3098  3.1311
14436SOL     OW49143   6.738   6.948   7.046  0.2936 -0.5835 -0.5715
14436SOL    HW149144   6.700   6.919   7.128  0.5050  0.4679 -0.0871
14436SOL    HW249145   6.669   7.001   7.005  0.3794 -0.6605 -0.8192
14437SOL     OW49146   3.777   4.470   4.393 -0.0709 -0.1276  0.6493
14437SOL    HW149147   3.793   4.515   4.477  2.0113  0.7407 -0.1228
14437SOL    HW249148   3.851   4.411   4.384 -1.3393 -1.7278  0.3134
14438SOL     OW49149   3.308   0.350   7.765  0.1857  0.2418  0.2337
14438SOL    HW149150   3.393   0.309   7.780  0.3923  0.1755 -1.0019
14438SOL    HW249151   3.267   0.353   7.852  1.2207 -0.2122  0.7563
14439SOL     OW49152   4.225   1.938   5.276  0.4742  0.0546  0.3961
14439SOL    HW149153   4.239   1.956   5.369  0.3563  1.4547  0.1724
14439SOL    HW249154   4.303   1.973   5.232 -0.1705  0.8616 -0.1510
14440SOL     OW49155   0.271   0.435   3.304  0.3431  0.1039 -0.0498
14440SOL    HW149156   0.225   0.516   3.327  0.7264  0.5899 -0.9138
14440SOL    HW249157   0.210   0.365   3.325 -0.3790  0.6823 -0.1984
14441SOL     OW49158   2.940   1.939   1.618  0.3963  0.0351 -0.2429
14441SOL    HW149159   3.029   1.956   1.589  0.1629 -0.0562 -1.0578
14441SOL    HW249160   2.930   1.990   1.698  1.0897  0.2619 -0.2957
14442SOL     OW49161   1.355   2.820   0.323  0.0928 -0.6372  0.0689
14442SOL    HW149162   1.380   2.893   0.267 -0.0627 -0.8213 -0.2502
14442SOL    HW249163   1.435   2.769   0.333 -0.3874 -1.9766 -2.0876
14443SOL     OW49164   6.066   3.274  10.329  0.4864  0.2180 -0.1191
14443SOL    HW149165   6.103   3.195  10.370 -0.1756  0.3792  0.8068
14443SOL    HW249166   6.125   3.344  10.356  0.2856  0.2587  0.2132
14444SOL     OW49167   7.947  10.209   8.924 -0.3186  0.0485 -0.4543
14444SOL    HW149168   7.873  10.158   8.891 -0.3158 -0.8878  0.9381
14444SOL    HW249169   7.981  10.254   8.846 -2.6728  0.9571 -1.0363
14445SOL     OW49170   3.481   6.172   0.003 -1.0950 -0.1734  0.3600
14445SOL    HW149171   3.424   6.098  -0.017 -0.4519 -0.1633 -1.7584
14445SOL    HW249172   3.554   6.133   0.051 -1.5014 -0.6467  0.6090
14446SOL     OW49173   8.646   7.520   9.280 -0.1185 -0.0743  0.4261
14446SOL    HW149174   8.602   7.604   9.284 -1.8527 -0.8852 -0.5710
14446SOL    HW249175   8.598   7.464   9.341  2.3010  0.1257  2.7137
14447SOL     OW49176   7.203   0.074   8.853 -0.1766 -0.1888  0.2241
14447SOL    HW149177   7.249   0.145   8.807 -1.1233  1.3882  1.6052
14447SOL    HW249178   7.115   0.074   8.814 -0.7040  0.5680  1.3487
14448SOL     OW49179   5.921   6.896  10.402  0.4012  0.6151 -0.5598
14448SOL    HW149180   5.916   6.992  10.408 -0.5928  0.5452 -0.0824
14448SOL    HW249181   6.003   6.873  10.446  0.7345  1.2535 -0.8323
14449SOL     OW49182   4.516   7.328   0.578  0.3091 -0.2916 -0.0061
14449SOL    HW149183   4.529   7.342   0.485  2.2063  1.8999  0.4848
14449SOL    HW249184   4.537   7.236   0.592  0.8693 -0.4352 -1.6026
14450SOL     OW49185   4.914   6.067   1.370  0.3347 -0.3614 -0.0535
14450SOL    HW149186   4.952   6.126   1.434 -1.3585  1.2624 -0.4278
14450SOL    HW249187   4.951   6.095   1.286 -1.8363  1.5404 -0.4827
14451SOL     OW49188   5.537   8.941  10.440  0.0487 -0.3524  0.4917
14451SOL    HW149189   5.466   9.001  10.413  0.5564  0.5244  1.0601
14451SOL    HW249190   5.552   8.887  10.363  0.0489  0.7254 -0.3011
14452SOL     OW49191   0.934   9.171   0.036 -0.0961  0.5081  0.0860
14452SOL    HW149192   0.839   9.172   0.047 -0.2540 -0.7483 -0.9902
14452SOL    HW249193   0.951   9.094  -0.017  1.5049  0.9073 -0.0151
14453SOL     OW49194   0.532   7.786   7.251  0.2394  0.7676  0.1237
14453SOL    HW149195   0.597   7.782   7.322  1.0547 -1.5794 -0.6672
14453SOL    HW249196   0.479   7.708   7.263  0.1584  0.5136 -1.6205
14454SOL     OW49197   2.635   0.882  10.519 -0.2133  0.1577  0.0893
14454SOL    HW149198   2.722   0.920  10.529 -0.4408  0.9367 -0.7741
14454SOL    HW249199   2.607   0.863  10.609  0.3638  1.0097  0.4642
14455SOL     OW49200   8.759   5.324   1.772  0.0931  0.0134 -0.1941
14455SOL    HW149201   8.777   5.391   1.839 -1.8536 -2.4601  3.1370
14455SOL    HW249202   8.666   5.336   1.750 -0.1099 -1.1094 -0.0381
14456SOL     OW49203   0.067   1.010   0.812 -0.0475  0.5887  0.3287
14456SOL    HW149204   0.149   0.962   0.805 -0.5322 -0.1395 -0.6801
14456SOL    HW249205   0.017   0.962   0.878 -0.0838  0.3851  0.1536
14457SOL     OW49206   1.533   2.804   2.895 -0.4992 -0.3647  0.2111
14457SOL    HW149207   1.624   2.776   2.879 -0.4418 -0.2874  0.4082
14457SOL    HW249208   1.534   2.898   2.878 -0.1505 -0.0347  1.8917
14458SOL     OW49209   4.022   2.800   2.716  0.0434 -0.1672 -0.6876
14458SOL    HW149210   4.114   2.826   2.729  0.6987 -2.3603 -0.5262
14458SOL    HW249211   4.020   2.763   2.628 -1.1419  1.4465 -1.3920
14459SOL     OW49212   2.593   1.626   2.633  0.4722  1.0326  0.4502
14459SOL    HW149213   2.599   1.650   2.725 -0.4202  0.7000  0.6041
14459SOL    HW249214   2.508   1.660   2.605  0.5432  0.7440 -0.1350
14460SOL     OW49215   7.499   2.014   0.221  0.1019  0.0834  0.1224
14460SOL    HW149216   7.450   2.069   0.159  0.5084  0.6124  0.2587
14460SOL    HW249217   7.497   2.063   0.303 -2.7636 -1.8466  1.3464
14461SOL     OW49218  10.431   3.511   0.563 -0.2234  0.0407  0.0252
14461SOL    HW149219  10.368   3.488   0.494  0.6981 -1.5785 -0.3240
14461SOL    HW249220  10.483   3.582   0.525  1.3121 -1.8535 -1.6902
14462SOL     OW49221  10.760   2.674   4.540  0.6052  0.0730  0.0910
14462SOL    HW149222  10.782   2.650   4.630  2.1820 -1.4849 -0.6528
14462SOL    HW249223  10.688   2.737   4.549  2.3278  1.8667  2.4988
14463SOL     OW49224   3.213   8.295   7.889 -0.1375  0.0840  0.3011
14463SOL    HW149225   3.155   8.324   7.819 -0.4857 -0.3843  0.3928
14463SOL    HW249226   3.226   8.202   7.872  0.5254  0.1636  0.3268
14464SOL     OW49227   6.453   3.450   2.643 -0.3106  0.6733  0.4809
14464SOL    HW149228   6.366   3.490   2.635 -0.0150  1.3418  0.5795
14464SOL    HW249229   6.484   3.477   2.729  0.2920  1.0232  0.1566
14465SOL     OW49230   3.634   4.287   0.791  0.2801  0.1506 -0.3510
14465SOL    HW149231   3.665   4.197   0.780  0.4209  0.3430 -1.6020
14465SOL    HW249232   3.691   4.323   0.859  0.8724 -0.4111 -0.5349
14466SOL     OW49233   8.432   3.922   5.364 -0.6643 -0.2306 -0.0564
14466SOL    HW149234   8.427   3.936   5.270 -0.6351  0.0321 -0.0206
14466SOL    HW249235   8.447   4.010   5.401  0.3355 -0.4609  0.1222
14467SOL     OW49236   1.594   5.270   6.894 -0.4235 -0.3047  0.4107
14467SOL    HW149237   1.593   5.177   6.873  1.3320 -0.1181 -0.6693
14467SOL    HW249238   1.627   5.275   6.984  0.6185 -0.6727  0.0554
14468SOL     OW49239   3.707   0.748   0.239  0.5283  0.4296 -0.6726
14468SOL    HW149240   3.764   0.793   0.176  0.3339  0.5244 -0.7821
14468SOL    HW249241   3.657   0.686   0.186  0.9250 -0.0495 -0.4964
14469SOL     OW49242   5.764   0.416   6.194  0.5281  0.0453  0.3651
14469SOL    HW149243   5.732   0.446   6.109 -1.3080 -1.7259  0.3456
14469SOL    HW249244   5.858   0.404   6.181  0.3533  0.2323 -1.2863
14470SOL     OW49245   9.973   4.502   2.067 -0.2453  0.5735  0.2835
14470SOL    HW149246  10.058   4.458   2.055 -0.5008 -0.1459  0.9980
14470SOL    HW249247   9.969   4.566   1.997  0.2781 -0.3546 -0.6224
14471SOL     OW49248  10.230   8.818   9.658 -0.6913  0.5417  0.2883
14471SOL    HW149249  10.324   8.836   9.669 -0.8705  0.6609  1.7706
14471SOL    HW249250  10.212   8.747   9.720 -1.6188  0.5858  0.0816
14472SOL     OW49251   9.288   6.781   9.824 -0.1319  0.7987 -0.3010
14472SOL    HW149252   9.241   6.771   9.906  1.4694  0.0357  0.5657
14472SOL    HW249253   9.234   6.734   9.760 -0.8060  0.4050  0.5351
14473SOL     OW49254  10.419   2.503   0.143 -0.0452  0.0438  0.0566
14473SOL    HW149255  10.489   2.487   0.206 -0.2994  1.6030  0.7818
14473SOL    HW249256  10.461   2.549   0.070  0.4610 -2.6556 -1.4944
14474SOL     OW49257   0.310   2.905   2.952 -0.0391 -0.4328  0.1768
14474SOL    HW149258   0.354   2.821   2.956 -0.3209 -0.8688 -2.9239
14474SOL    HW249259   0.360   2.955   2.887 -1.7074  0.5381 -0.4421
14475SOL     OW49260   6.385   6.496   1.914 -0.4523 -0.3758  0.0942
14475SOL    HW149261   6.318   6.563   1.920  1.0135  1.4856 -2.2507
14475SOL    HW249262   6.445   6.514   1.986 -0.9687 -0.2691  0.4992
14476SOL     OW49263   8.528   1.525   2.860  0.1627 -0.0383 -0.0269
14476SOL    HW149264   8.532   1.588   2.932 -1.1010  0.0346 -0.0009
14476SOL    HW249265   8.439   1.532   2.827  0.7176 -0.0931 -1.5926
14477SOL     OW49266   3.214   8.581   6.642 -0.2801 -0.3542  0.7529
14477SOL    HW149267   3.119   8.577   6.628 -0.0563 -4.6878 -0.9700
14477SOL    HW249268   3.252   8.581   6.554  1.4116  1.0051  1.4146
14478SOL     OW49269   5.405   4.179   5.921  0.0305  0.0151  0.0534
14478SOL    HW149270   5.436   4.269   5.936  0.0258 -0.0919  0.7449
14478SOL    HW249271   5.484   4.125   5.930 -0.1440 -0.1466  0.7011
14479SOL     OW49272   0.352   6.364   7.105  0.0688  0.3514 -0.1030
14479SOL    HW149273   0.378   6.330   7.019  1.5056  0.8211  0.1220
14479SOL    HW249274   0.339   6.457   7.091  2.8581  0.9653  0.6462
14480SOL     OW49275   6.642   9.647   4.680 -0.2765  0.4814 -0.2676
14480SOL    HW149276   6.601   9.563   4.657 -1.3241  1.0685 -0.6084
14480SOL    HW249277   6.696   9.627   4.757 -3.4571  0.1868  2.0915
14481SOL     OW49278   3.352   3.857   9.691  0.3989  0.5334 -0.2669
14481SOL    HW149279   3.338   3.879   9.784 -4.2249 -0.6179 -0.4114
14481SOL    HW249280   3.348   3.762   9.688  3.0656  0.3818 -1.4893
14482SOL     OW49281   1.258   9.128  10.571 -0.2785 -0.1390  0.1508
14482SOL    HW149282   1.319   9.117  10.498 -1.1958  0.3381 -0.7157
14482SOL    HW249283   1.202   9.201  10.545 -0.6748 -0.0151  1.3025
14483SOL     OW49284   5.699   2.906   0.107  0.2913  0.7671  0.3733
14483SOL    HW149285   5.735   2.839   0.050 -0.4450 -1.3931  2.2681
14483SOL    HW249286   5.617   2.933   0.065  1.5011  1.9293 -1.3472
14484SOL     OW49287   8.599  10.638   4.603 -0.2297 -0.4579  0.0737
14484SOL    HW149288   8.587  10.544   4.595  0.5919 -0.6793  1.2579
14484SOL    HW249289   8.670  10.658   4.542  0.5088 -0.8352  0.7898
14485SOL     OW49290   6.778   6.759   9.112 -0.2675  0.0492 -0.4255
14485SOL    HW149291   6.702   6.793   9.065 -0.0213  1.2059 -0.0125
14485SOL    HW249292   6.845   6.825   9.099 -0.1839  0.3930  1.5372
14486SOL     OW49293   9.158   5.881   4.332  0.5855  0.2715 -0.1860
14486SOL    HW149294   9.178   5.866   4.424 -0.5008 -0.9049 -0.1151
14486SOL    HW249295   9.157   5.793   4.293 -2.0837  0.4096 -0.6231
14487SOL     OW49296   1.513   2.057   9.237  0.3699  0.1374 -0.5702
14487SOL    HW149297   1.458   2.019   9.168  0.6166 -0.1516 -0.6086
14487SOL    HW249298   1.575   1.988   9.259 -0.2298 -0.0717  0.5391
14488SOL     OW49299   9.905   3.299   0.996 -0.1285 -0.3213  0.1273
14488SOL    HW149300   9.835   3.249   1.038 -0.4277 -1.0982 -1.2343
14488SOL    HW249301   9.985   3.273   1.043 -0.6888  0.3954  1.5343
14489SOL     OW49302   7.881   8.393   7.898 -0.2389  0.6298 -0.0702
14489SOL    HW149303   7.943   8.329   7.863  1.0228  3.1923 -2.9854
14489SOL    HW249304   7.805   8.341   7.924  0.9114 -2.0890 -1.6987
14490SOL     OW49305   7.007   0.101   5.610  0.0799  0.5025  0.6169
14490SOL    HW149306   7.082   0.157   5.631  0.1287  2.0434 -2.8346
14490SOL    HW249307   6.934   0.163   5.600 -0.3593 -0.2558 -1.2538
14491SOL     OW49308   7.043   1.477   0.571  0.0387  0.8435  0.6761
14491SOL    HW149309   7.109   1.491   0.638 -0.9039  0.5593  1.6970
14491SOL    HW249310   7.088   1.494   0.488  1.8370 -0.9598  1.2063
14492SOL     OW49311   1.036   6.287   4.324  0.3816  0.0647  0.0894
14492SOL    HW149312   0.960   6.259   4.273  0.4867 -0.4773  0.2264
14492SOL    HW249313   1.025   6.381   4.333 -0.0248  0.0583 -0.3022
14493SOL     OW49314   5.538   4.834   6.883  0.4877 -0.0015 -0.1170
14493SOL    HW149315   5.446   4.826   6.857  0.0710 -0.6003  1.4151
14493SOL    HW249316   5.536   4.841   6.978  2.0746 -0.8265  0.0170
14494SOL     OW49317   3.323   1.440   3.346  0.0941 -0.0825  0.3506
14494SOL    HW149318   3.282   1.436   3.259  0.0345 -0.5757  0.3959
14494SOL    HW249319   3.250   1.459   3.406  0.3117  1.4390  0.1789
14495SOL     OW49320   0.795   9.771   6.301  0.2145  0.3124 -0.0976
14495SOL    HW149321   0.842   9.851   6.279 -1.4187  1.2339 -0.4032
14495SOL    HW249322   0.759   9.788   6.388  0.1714 -0.2516 -0.0014
14496SOL     OW49323   3.878   4.948   8.010  0.2642  0.7398  0.1916
14496SOL    HW149324   3.924   4.967   7.928  1.7313 -0.1227  0.7667
14496SOL    HW249325   3.909   5.016   8.070 -0.2812  0.9654  0.2205
14497SOL     OW49326   0.842   2.875   8.864  0.2780  0.1887 -0.1686
14497SOL    HW149327   0.772   2.939   8.876 -0.2573 -0.6017  1.2130
14497SOL    HW249328   0.861   2.877   8.770 -0.5288  1.5083 -0.3334
14498SOL     OW49329   9.548   2.856   5.724 -0.5199  0.5801 -0.0911
14498SOL    HW149330   9.531   2.889   5.812 -1.4219  0.3470 -0.1732
14498SOL    HW249331   9.620   2.910   5.692 -1.5580  2.0707 -0.0041
14499SOL     OW49332   2.022   5.748   0.751  0.3572 -1.1552 -0.4152
14499SOL    HW149333   1.948   5.737   0.809 -0.3487 -2.4030 -1.4792
14499SOL    HW249334   1.997   5.818   0.691 -0.1766 -1.8732 -1.0512
14500SOL     OW49335   0.531   5.026  10.873 -0.1167 -0.5041 -0.5607
14500SOL    HW149336   0.498   5.096  10.815 -1.0847 -0.0425  0.5112
14500SOL    HW249337   0.505   4.945  10.829  0.2902 -0.1874 -1.4098
14501SOL     OW49338   4.042   6.885   5.312 -0.1064  0.2718 -0.3143
14501SOL    HW149339   3.964   6.930   5.346  0.7412  1.5087  0.0595
14501SOL    HW249340   4.061   6.818   5.378  0.9944  2.0597  1.2943
14502SOL     OW49341   5.892   0.794   8.467 -0.1305 -0.2890  0.2873
14502SOL    HW149342   5.896   0.702   8.492 -0.2857 -0.1068  1.0017
14502SOL    HW249343   5.803   0.821   8.490 -0.3081 -0.1380 -0.5575
14503SOL     OW49344   0.462   5.718  10.689  0.0898  0.2160 -0.1321
14503SOL    HW149345   0.395   5.747  10.752 -0.6712  1.1365 -1.3334
14503SOL    HW249346   0.420   5.648  10.639 -0.3775  1.4778 -1.5722
14504SOL     OW49347   1.112   3.032  10.646 -0.3375  0.8892  0.2803
14504SOL    HW149348   1.068   2.980  10.713  0.0694  0.1687  0.0027
14504SOL    HW249349   1.190   3.065  10.690  0.8853 -1.0523 -0.2854
14505SOL     OW49350   1.923   9.351  10.106  0.8974  0.1395 -0.4028
14505SOL    HW149351   2.011   9.319  10.087  0.0109 -2.7338 -0.2801
14505SOL    HW249352   1.929   9.390  10.193  2.2840  1.2249 -0.9588
14506SOL     OW49353   5.013   6.532   1.935 -0.5338 -0.0758 -0.1913
14506SOL    HW149354   5.028   6.625   1.955 -1.0262 -0.0680  0.1650
14506SOL    HW249355   4.948   6.504   2.000 -0.1536 -0.7544 -0.0909
14507SOL     OW49356   9.377   3.422   7.734 -0.4382  0.5344  0.1121
14507SOL    HW149357   9.407   3.341   7.776 -1.6002  0.5216  0.9768
14507SOL    HW249358   9.433   3.490   7.772  1.3133  0.0408 -1.4691
14508SOL     OW49359   5.012   7.247   3.448  0.2586 -0.3813  0.3580
14508SOL    HW149360   4.927   7.217   3.416  1.4385 -1.4473 -2.0309
14508SOL    HW249361   5.004   7.242   3.543 -2.1386 -0.9867  0.2117
14509SOL     OW49362   0.948   1.523   2.814 -0.2502  0.1100 -0.2021
14509SOL    HW149363   0.865   1.485   2.840 -0.2414 -0.6677 -1.2575
14509SOL    HW249364   0.977   1.470   2.739  1.2758  0.2454  0.2491
14510SOL     OW49365   2.973   5.244   2.731 -0.2755 -0.0695  0.3970
14510SOL    HW149366   3.011   5.235   2.644 -0.6647  0.1072  0.2053
14510SOL    HW249367   3.035   5.201   2.789 -1.0719 -2.1813 -0.2311
14511SOL     OW49368   1.037   7.989   7.382  0.2241  0.5521  0.3257
14511SOL    HW149369   1.055   8.063   7.323 -1.5612  1.5045  0.9068
14511SOL    HW249370   0.995   7.924   7.326  0.4432  0.5809  0.1239
14512SOL     OW49371   0.584   1.358   2.052  0.1186  0.1761  0.6613
14512SOL    HW149372   0.494   1.391   2.060  0.0545  0.3326 -0.5915
14512SOL    HW249373   0.573   1.268   2.020  0.4148  1.1599 -2.5866
14513SOL     OW49374   1.267   3.616   5.188 -0.1057 -0.1075  0.0280
14513SOL    HW149375   1.250   3.529   5.151 -0.6064  0.3886 -0.9336
14513SOL    HW249376   1.280   3.599   5.282 -1.9095 -1.0348  0.1666
14514SOL     OW49377   2.614   0.564   7.910  0.0022  0.6610  0.3881
14514SOL    HW149378   2.690   0.591   7.858  0.5187 -0.2501  0.6524
14514SOL    HW249379   2.583   0.484   7.867 -0.9714  1.1675  0.1314
14515SOL     OW49380   9.013   3.014   8.940 -0.3568 -0.1549 -0.4543
14515SOL    HW149381   8.983   3.105   8.934 -1.6654 -0.5450 -0.1386
14515SOL    HW249382   8.939   2.967   8.980 -0.8109 -1.8796 -3.1156
14516SOL     OW49383   5.294   5.664   6.469  0.0024  0.4696  0.0390
14516SOL    HW149384   5.208   5.640   6.503 -0.6747  0.7064 -1.4252
14516SOL    HW249385   5.340   5.701   6.544 -1.8793  2.1703  0.4480
14517SOL     OW49386   0.993   4.872   4.316  0.7072 -0.1411  0.3495
14517SOL    HW149387   0.919   4.925   4.289 -0.9580 -1.0851  2.7361
14517SOL    HW249388   0.981   4.789   4.270  0.8289  0.0117  0.0350
14518SOL     OW49389   1.913   0.926   7.047 -0.2224 -0.3399 -0.6892
14518SOL    HW149390   1.856   0.939   7.124 -2.3259 -3.0057 -1.6290
14518SOL    HW249391   1.987   0.875   7.081  0.1861  0.6652 -0.0031
14519SOL     OW49392   6.582   3.495  10.609 -0.4868 -0.3344  0.3821
14519SOL    HW149393   6.561   3.565  10.671  1.0657 -0.7858  1.4719
14519SOL    HW249394   6.605   3.541  10.528 -2.3467  0.2692  0.1628
14520SOL     OW49395   7.160   5.826   8.790  0.2283 -0.1645  0.1392
14520SOL    HW149396   7.109   5.745   8.784  1.1863 -0.7880  0.2936
14520SOL    HW249397   7.210   5.817   8.871  1.2476  0.0472 -0.4557
14521SOL     OW49398   3.250  10.363   3.758 -0.3649 -0.2473  0.0428
14521SOL    HW149399   3.270  10.455   3.775  2.1306 -0.7159  0.0144
14521SOL    HW249400   3.297  10.343   3.677 -0.4519 -1.6743  0.3160
14522SOL     OW49401   6.111   2.823   9.210  0.8740  0.2890 -0.1507
14522SOL    HW149402   6.094   2.837   9.117  0.5531  0.9589 -0.0004
14522SOL    HW249403   6.024   2.807   9.248  1.0546 -0.4705 -0.0391
14523SOL     OW49404   8.214   5.784   3.919  0.1702 -0.4333  0.1383
14523SOL    HW149405   8.123   5.755   3.922 -0.1285  0.3866  3.6546
14523SOL    HW249406   8.265   5.704   3.933 -0.0174 -0.7576 -0.9373
14524SOL     OW49407   4.477   2.561   7.040 -0.0562  0.4951 -0.0000
14524SOL    HW149408   4.413   2.600   7.100 -0.9899  0.3961 -0.8986
14524SOL    HW249409   4.430   2.489   6.999  0.6496  0.3908 -0.6449
14525SOL     OW49410   7.964   9.840   4.652  0.0752 -0.4072  0.0721
14525SOL    HW149411   7.928   9.771   4.709  0.2246 -1.1235 -0.6804
14525SOL    HW249412   8.050   9.807   4.626  0.4634  0.4116  0.2927
14526SOL     OW49413   9.247   5.981   7.845 -0.4724  0.2107 -0.8054
14526SOL    HW149414   9.340   6.000   7.838 -0.2443 -1.1434 -1.8671
14526SOL    HW249415   9.234   5.960   7.938  0.4236 -0.2549 -0.7748
14527SOL     OW49416   1.745   2.661   0.165 -0.4827 -0.6787  0.1110
14527SOL    HW149417   1.676   2.712   0.122 -1.8174 -0.5858  2.1882
14527SOL    HW249418   1.753   2.581   0.112 -3.0734 -1.2376  0.4119
14528SOL     OW49419  10.319   7.133   0.536 -0.1510  0.4551 -0.7019
14528SOL    HW149420  10.297   7.188   0.611 -1.4626 -0.8986 -0.0415
14528SOL    HW249421  10.412   7.151   0.520 -0.0012  1.2408  0.8316
14529SOL     OW49422  10.132   3.054   6.085 -0.2520  0.0027 -0.1875
14529SOL    HW149423  10.042   3.080   6.105 -0.7763  1.7641 -3.9877
14529SOL    HW249424  10.166   3.123   6.029  3.7390 -0.3811  1.3943
14530SOL     OW49425   2.561   9.604   5.337 -0.8958 -0.0449 -0.4927
14530SOL    HW149426   2.612   9.678   5.367 -0.3620 -1.2501  1.7619
14530SOL    HW249427   2.625   9.544   5.298 -0.9700 -0.3676 -0.1251
14531SOL     OW49428   5.782   5.613   5.806  0.0278  0.1516  0.5201
14531SOL    HW149429   5.869   5.613   5.848 -0.0843 -0.0572  0.7621
14531SOL    HW249430   5.744   5.697   5.830  0.0577  0.1304  0.6481
14532SOL     OW49431   9.110   3.225   0.071 -0.1060  0.2037  0.2262
14532SOL    HW149432   9.157   3.277   0.006  0.3935 -0.2114  0.2470
14532SOL    HW249433   9.172   3.156   0.096 -0.4806  0.0533  0.7598
14533SOL     OW49434   5.118   4.895   4.923 -0.2035 -0.5298 -0.7062
14533SOL    HW149435   5.027   4.925   4.921 -0.3309 -0.9049 -0.6135
14533SOL    HW249436   5.112   4.800   4.933  0.2054 -0.4869  0.0520
14534SOL     OW49437  10.770   6.399   3.680  0.5832 -0.9090  0.5465
14534SOL    HW149438  10.725   6.479   3.706  3.8729  0.5047  2.5453
14534SOL    HW249439  10.771   6.345   3.759  0.4218 -1.9280 -0.1297
14535SOL     OW49440   8.923   5.044   7.897  0.7402  0.0693  0.2356
14535SOL    HW149441   8.888   4.961   7.866 -2.0481  0.7648  1.2255
14535SOL    HW249442   8.890   5.109   7.834  2.6683  0.5166 -0.3878
14536SOL     OW49443   4.050  10.219   9.924  0.3703  0.0795  0.2023
14536SOL    HW149444   3.994  10.173   9.986  2.7707 -2.0152  0.9961
14536SOL    HW249445   4.092  10.150   9.873  0.9140  1.6145 -1.5598
14537SOL     OW49446   7.048  10.703  10.676 -0.2736 -0.6098  0.5572
14537SOL    HW149447   7.088  10.694  10.589 -1.6570  0.0541 -0.1832
14537SOL    HW249448   7.111  10.753  10.727  0.1975 -0.2873 -0.3287
14538SOL     OW49449   0.795   7.034   0.316  0.0716 -0.9340  0.1731
14538SOL    HW149450   0.802   6.966   0.249  0.9107 -0.8255  0.1301
14538SOL    HW249451   0.733   7.097   0.280 -0.7211 -1.6802  0.2177
14539SOL     OW49452   7.862   4.932   6.547 -0.1342 -0.1654  0.1533
14539SOL    HW149453   7.837   5.001   6.609  0.4298 -0.7961  1.1094
14539SOL    HW249454   7.785   4.875   6.543  0.3684 -0.9896  1.5237
14540SOL     OW49455   7.378   4.617  10.404  0.1738  0.1282  0.1593
14540SOL    HW149456   7.308   4.682  10.412 -0.7056 -0.7172 -0.4317
14540SOL    HW249457   7.332   4.532  10.405  1.1886 -0.4380 -0.2417
14541SOL     OW49458   9.099   2.199   0.268  0.5026  0.1717 -0.4007
14541SOL    HW149459   9.147   2.126   0.307  0.3109  0.4205  0.3038
14541SOL    HW249460   9.037   2.158   0.208 -1.4433 -0.4326  1.9042
14542SOL     OW49461   0.958   0.823  10.167 -0.5296 -0.0081  0.3570
14542SOL    HW149462   1.047   0.849  10.144 -0.4474  0.7317  1.4569
14542SOL    HW249463   0.959   0.727  10.162  0.5767 -0.0552  1.2259
14543SOL     OW49464   6.957   6.037   4.557 -1.0270 -0.0524  0.0678
14543SOL    HW149465   6.936   5.946   4.575 -1.8362  0.0891 -0.1199
14543SOL    HW249466   6.891   6.065   4.493 -0.3725  0.4670 -0.4033
14544SOL     OW49467   1.423   0.438   7.813  0.2794  0.4459  0.0458
14544SOL    HW149468   1.454   0.517   7.770 -1.8466  0.9570 -0.6420
14544SOL    HW249469   1.416   0.462   7.906 -0.2148  1.0422 -0.1372
14545SOL     OW49470   2.552   4.432   7.245 -0.2949 -0.2711  0.3135
14545SOL    HW149471   2.535   4.339   7.257 -1.5299 -0.2888 -1.2746
14545SOL    HW249472   2.493   4.475   7.308 -1.5940 -0.5240 -0.6929
14546SOL     OW49473   9.583   4.000  10.031 -0.3436 -0.2861 -0.4550
14546SOL    HW149474   9.528   3.935   9.988 -1.2311 -1.5035  2.2791
14546SOL    HW249475   9.634   3.950  10.094  1.4897  1.2767 -0.6128
14547SOL     OW49476   7.277   5.120   1.579  0.6571  0.0980  0.1474
14547SOL    HW149477   7.369   5.144   1.583  0.6708  0.1626 -0.4332
14547SOL    HW249478   7.233   5.197   1.543  0.1226  0.6847  1.9442
14548SOL     OW49479  10.430   9.010   6.068 -0.1151 -0.5243  0.0668
14548SOL    HW149480  10.396   9.060   5.994 -1.0192 -1.6418 -0.3109
14548SOL    HW249481  10.465   9.076   6.128  1.4671  0.3836 -1.7169
14549SOL     OW49482   4.145   7.892  10.656 -0.0505 -0.5398  0.3176
14549SOL    HW149483   4.068   7.932  10.697 -0.4126  0.6528 -1.4109
14549SOL    HW249484   4.219   7.940  10.693 -0.2161 -0.9205  1.1487
14550SOL     OW49485   3.218   3.458   1.046 -0.0369  0.2324 -0.0317
14550SOL    HW149486   3.183   3.405   0.974  0.8350 -1.1758  0.5400
14550SOL    HW249487   3.259   3.395   1.105 -0.5277  1.3636  1.6133
14551SOL     OW49488   6.265   0.241   8.492  0.1037  0.3299  0.1387
14551SOL    HW149489   6.337   0.179   8.484  2.0335  2.4486 -0.0779
14551SOL    HW249490   6.298   0.308   8.552 -2.8426 -0.0596  2.3964
14552SOL     OW49491   4.124   0.157  10.459 -0.2738  0.1338 -0.1457
14552SOL    HW149492   4.171   0.225  10.410 -0.2707 -0.5568 -1.1311
14552SOL    HW249493   4.037   0.195  10.475 -0.2093  0.4427 -0.5206
14553SOL     OW49494   4.081   8.497   7.127 -0.1971 -0.0338 -0.3528
14553SOL    HW149495   4.172   8.475   7.110  0.0179 -0.5010  1.1810
14553SOL    HW249496   4.079   8.593   7.130  0.8974  0.0074  2.3791
14554SOL     OW49497   5.475   6.756   3.790 -0.5559 -0.1374  0.2133
14554SOL    HW149498   5.553   6.802   3.822 -1.6386  1.3365  0.8269
14554SOL    HW249499   5.452   6.803   3.710 -0.8228 -0.5622  0.0426
14555SOL     OW49500  10.373   6.692   3.572 -0.5796  0.0319  0.4943
14555SOL    HW149501  10.299   6.701   3.632 -1.3109 -1.7923 -0.0782
14555SOL    HW249502  10.379   6.778   3.529 -1.4374  0.6563  1.5608
14556SOL     OW49503   6.740   9.308   8.907 -0.0455  0.4378  0.4488
14556SOL    HW149504   6.813   9.357   8.944  0.4363 -0.8223  1.2256
14556SOL    HW249505   6.754   9.312   8.812  1.2192 -0.0497  0.5978
14557SOL     OW49506   1.204  10.880  10.295 -0.5126  0.4700  0.6390
14557SOL    HW149507   1.134  10.915  10.350 -0.6735 -0.1325  0.8300
14557SOL    HW249508   1.270  10.849  10.356 -0.3261  0.5318  0.4711
14558SOL     OW49509   8.887   4.406   5.823  0.4237 -0.4126  0.1923
14558SOL    HW149510   8.969   4.448   5.851  0.2479 -0.0665  0.1801
14558SOL    HW249511   8.845   4.470   5.767  0.2812 -0.7096 -0.0390
14559SOL     OW49512   1.807   8.570   2.328 -0.6793  0.0891  0.0374
14559SOL    HW149513   1.728   8.518   2.346 -1.0430  0.4343 -0.5287
14559SOL    HW249514   1.774   8.658   2.309 -0.0344  0.7019  1.5744
14560SOL     OW49515   1.239   4.059   7.603  1.0687 -0.0045  0.3990
14560SOL    HW149516   1.233   3.999   7.529 -2.0035 -1.4367  1.6213
14560SOL    HW249517   1.280   4.008   7.673  1.6459  0.4961  0.4319
14561SOL     OW49518   4.289   1.703  10.292 -0.4891 -0.0049 -0.1540
14561SOL    HW149519   4.243   1.631  10.246  1.2098 -0.6941 -0.8604
14561SOL    HW249520   4.377   1.703  10.254 -0.3319  2.2590  0.0838
14562SOL     OW49521   0.930   4.989   4.012 -0.5015 -0.1030 -0.0593
14562SOL    HW149522   0.897   4.899   4.008  0.5402 -0.6391  1.8683
14562SOL    HW249523   1.008   4.988   3.956 -0.0746 -0.6219  0.5310
14563SOL     OW49524   5.566   2.276   9.871 -0.0714  0.4665 -0.7869
14563SOL    HW149525   5.623   2.201   9.861  0.0688  0.5195 -0.4176
14563SOL    HW249526   5.490   2.257   9.816  0.0617  0.1570 -0.8631
14564SOL     OW49527   6.926   2.908  10.023 -0.4724 -0.0338 -0.4056
14564SOL    HW149528   6.833   2.925  10.010 -0.4314 -0.9455 -2.0320
14564SOL    HW249529   6.929   2.842  10.092 -1.0150  0.1378 -0.2158
14565SOL     OW49530   3.765  10.307   0.040 -0.3065 -0.4372  0.0806
14565SOL    HW149531   3.699  10.360   0.085  0.0845 -1.0126  1.3640
14565SOL    HW249532   3.837  10.367   0.023  0.2455 -0.5960  1.7641
14566SOL     OW49533  10.107   7.416  10.297 -0.0036 -0.5712  0.3201
14566SOL    HW149534  10.144   7.458  10.219 -0.7012 -0.5592 -0.0215
14566SOL    HW249535  10.017   7.450  10.301 -0.3617 -1.4910  0.4293
14567SOL     OW49536  10.496   0.641   5.339 -0.2968 -0.3311 -0.1183
14567SOL    HW149537  10.574   0.680   5.300 -1.0396 -0.1242 -1.4724
14567SOL    HW249538  10.509   0.649   5.433  0.1651  2.0690 -0.3212
14568SOL     OW49539   0.889   3.489   7.672  0.5224 -0.0481 -0.4721
14568SOL    HW149540   0.962   3.550   7.677 -0.7237  1.4234  0.4041
14568SOL    HW249541   0.905   3.439   7.592  1.9407  0.9183 -0.8225
14569SOL     OW49542   7.387   8.256   7.990 -0.4979 -0.2143 -0.1042
14569SOL    HW149543   7.324   8.205   7.939 -0.0201 -0.1221 -0.8009
14569SOL    HW249544   7.374   8.347   7.963  3.0010 -0.5345 -3.8814
14570SOL     OW49545   2.478   1.189  10.090  0.1317  0.2622  0.2401
14570SOL    HW149546   2.391   1.152  10.073 -0.0116  0.9364 -0.5822
14570SOL    HW249547   2.465   1.248  10.164  0.0729 -0.2970  0.6760
14571SOL     OW49548   7.615   4.892   5.756  0.0335  0.1760 -0.6277
14571SOL    HW149549   7.529   4.927   5.776  0.9217  3.4906 -1.9710
14571SOL    HW249550   7.642   4.849   5.837 -2.6509 -0.5802 -0.0385
14572SOL     OW49551   7.789   3.476   7.905 -0.3011 -0.1875 -0.1789
14572SOL    HW149552   7.773   3.569   7.891 -0.2575 -0.0225  0.7862
14572SOL    HW249553   7.875   3.473   7.947 -0.7761 -0.5758  0.7966
14573SOL     OW49554   8.529   5.448   1.062 -0.0046 -0.0034 -0.4147
14573SOL    HW149555   8.567   5.388   0.998  0.5854  0.0882 -0.1617
14573SOL    HW249556   8.568   5.421   1.145  0.1557  0.6381 -0.2773
14574SOL     OW49557   1.820   6.104   0.603  0.1802 -0.3313 -0.2457
14574SOL    HW149558   1.874   6.025   0.602  1.2931  0.3938  0.8732
14574SOL    HW249559   1.738   6.078   0.559 -1.4528 -3.4844  4.0529
14575SOL     OW49560  10.416   6.109  10.347  0.2385  0.0248 -0.3416
14575SOL    HW149561  10.338   6.119  10.293  0.0186  0.6498  0.0862
14575SOL    HW249562  10.452   6.023  10.321 -0.3265 -0.0616 -0.8648
14576SOL     OW49563   0.336  10.672   2.463 -0.4756 -0.0970  0.3029
14576SOL    HW149564   0.332  10.577   2.474 -3.2093  0.0404  1.4389
14576SOL    HW249565   0.267  10.705   2.521 -1.5012  2.3852 -2.1321
14577SOL     OW49566   7.141   0.139  10.280 -0.1528 -0.0463 -0.2346
14577SOL    HW149567   7.114   0.120  10.190  0.1265  2.3790 -0.9010
14577SOL    HW249568   7.222   0.189  10.271 -0.6899  1.1910  1.2880
14578SOL     OW49569   7.712   4.878   7.377  0.1151 -0.0149  0.0410
14578SOL    HW149570   7.732   4.800   7.326 -0.6285 -0.2981  0.1829
14578SOL    HW249571   7.793   4.930   7.373 -0.0035  0.0962 -1.6511
14579SOL     OW49572   5.342   7.929   9.044  0.1904  0.4911 -0.4120
14579SOL    HW149573   5.271   7.917   8.982 -0.4818  2.2566 -0.0327
14579SOL    HW249574   5.353   8.024   9.051  0.1969  0.3696  2.1948
14580SOL     OW49575   4.073   2.161   0.305  0.0025 -0.4084 -0.0852
14580SOL    HW149576   4.036   2.196   0.386  0.9752 -2.0399  1.1264
14580SOL    HW249577   4.156   2.209   0.295 -0.3059  0.0781 -0.3502
14581SOL     OW49578   3.432   0.023   3.447 -0.7212 -0.1187 -0.0663
14581SOL    HW149579   3.369   0.039   3.517 -0.1485  1.4166  0.1330
14581SOL    HW249580   3.512  -0.002   3.493 -0.4498  0.5242 -0.1896
14582SOL     OW49581   6.947   3.902   9.408  0.1229 -0.0716 -0.1933
14582SOL    HW149582   6.895   3.943   9.477 -0.3523 -0.2312 -0.4511
14582SOL    HW249583   6.989   3.975   9.363 -1.3251  0.2295 -1.1420
14583SOL     OW49584   4.477   3.486   9.333  0.3040  0.0054  0.0693
14583SOL    HW149585   4.438   3.545   9.397  2.8499  1.0411  0.7932
14583SOL    HW249586   4.495   3.405   9.381 -0.2239 -0.2055 -0.0770
14584SOL     OW49587   1.748   4.525   6.917  0.1377 -0.1978  0.0872
14584SOL    HW149588   1.749   4.550   6.824  0.9022 -0.0622  0.1282
14584SOL    HW249589   1.736   4.608   6.964 -0.2585 -0.2677  0.1123
14585SOL     OW49590   9.241   1.693   0.201  0.0894 -0.4120  0.0352
14585SOL    HW149591   9.223   1.606   0.165  1.5183 -1.1388  0.9903
14585SOL    HW249592   9.336   1.695   0.213 -0.0265  0.9194  0.9587
14586SOL     OW49593   2.046   5.862   8.195  0.1211  0.3709 -0.5659
14586SOL    HW149594   2.057   5.916   8.273 -0.4816  0.1344 -0.3093
14586SOL    HW249595   2.041   5.773   8.229  0.7592  0.1795 -0.9562
14587SOL     OW49596   3.794   3.881   8.990  0.4750 -0.0522  0.1390
14587SOL    HW149597   3.774   3.916   8.903 -0.5013  0.7594  0.6646
14587SOL    HW249598   3.871   3.825   8.977 -0.5477 -1.1557 -1.5050
14588SOL     OW49599   9.070   2.239   2.799 -0.5816  0.5861 -0.2111
14588SOL    HW149600   9.150   2.231   2.851  0.2408  0.4705 -1.4710
14588SOL    HW249601   9.087   2.310   2.738 -2.7154  2.9559  1.6890
14589SOL     OW49602   9.743   7.688   2.300 -0.1236 -0.3503  0.0733
14589SOL    HW149603   9.695   7.631   2.361  0.1272 -0.8846 -0.2253
14589SOL    HW249604   9.816   7.635   2.270  0.1352  0.1470 -0.1812
14590SOL     OW49605   8.436   2.971   8.715 -0.0136 -0.4459 -0.5683
14590SOL    HW149606   8.446   2.968   8.620  0.4059  0.5261 -0.5582
14590SOL    HW249607   8.397   2.886   8.737 -0.5549 -0.4962 -1.6544
14591SOL     OW49608   1.396   3.493   6.009 -0.0572  0.2291 -0.5429
14591SOL    HW149609   1.404   3.534   6.095 -0.7540 -0.2797 -0.2281
14591SOL    HW249610   1.421   3.402   6.023 -1.3114 -0.1426 -0.6190
14592SOL     OW49611   5.847   3.225   5.485 -0.2089  0.9807 -0.4631
14592SOL    HW149612   5.797   3.304   5.467  0.1521  1.7349  1.5626
14592SOL    HW249613   5.904   3.248   5.558  0.3483 -0.9869 -0.1966
14593SOL     OW49614   5.610  10.546   4.721 -0.4787  0.3151 -0.6304
14593SOL    HW149615   5.658  10.548   4.804  0.1778 -1.8605 -0.9069
14593SOL    HW249616   5.616  10.636   4.688  0.3930  0.9089  1.0267
14594SOL     OW49617   4.228   6.745   9.248  0.4056  0.4107  0.3163
14594SOL    HW149618   4.222   6.835   9.214 -2.0129 -0.5981 -2.3685
14594SOL    HW249619   4.179   6.692   9.185 -0.1290 -2.5175  2.9042
14595SOL     OW49620   7.439   9.785   5.355  0.0499  0.3316  0.0036
14595SOL    HW149621   7.373   9.780   5.285 -0.7303  2.8858  0.4354
14595SOL    HW249622   7.403   9.732   5.426 -0.5440  0.0280 -0.5107
14596SOL     OW49623   5.884   2.701   6.743  0.2477  0.4651 -0.1825
14596SOL    HW149624   5.974   2.682   6.718  1.6927  4.8179  0.7804
14596SOL    HW249625   5.885   2.701   6.839 -0.2480  2.1463 -0.1315
14597SOL     OW49626   0.430   4.981   7.493 -0.4669  0.4415  0.0932
14597SOL    HW149627   0.523   4.960   7.505 -0.5478  0.0778  0.0658
14597SOL    HW249628   0.400   4.922   7.425 -0.8023  0.3393  0.3268
14598SOL     OW49629   5.350   5.784   7.988  0.5008  0.3421  0.4414
14598SOL    HW149630   5.296   5.721   8.034 -0.0059 -0.6304 -1.3809
14598SOL    HW249631   5.351   5.861   8.045 -0.4626 -0.6130  1.8099
14599SOL     OW49632   3.566   0.760  10.410 -0.9994 -0.2928  0.6603
14599SOL    HW149633   3.547   0.848  10.443 -0.8384 -0.2389  0.6095
14599SOL    HW249634   3.622   0.774  10.333  0.6333 -0.4912  1.7479
14600SOL     OW49635   7.882   3.552   0.903  0.1293 -0.2021 -1.0526
14600SOL    HW149636   7.963   3.595   0.874  0.3303 -0.4023 -0.7973
14600SOL    HW249637   7.839   3.618   0.957  1.1662 -0.8065  0.5888
14601SOL     OW49638   2.049   1.063   1.245  0.2552 -0.5288 -0.2064
14601SOL    HW149639   2.007   1.015   1.317  3.4410 -0.6956  1.7054
14601SOL    HW249640   2.071   0.995   1.181 -1.1056 -0.6177 -0.6091
14602SOL     OW49641   4.265   2.777   5.406  0.3802 -0.7813  0.1726
14602SOL    HW149642   4.310   2.785   5.490 -0.6187  1.1987  0.5636
14602SOL    HW249643   4.331   2.802   5.341  0.8369 -1.2674  0.4399
14603SOL     OW49644   3.498   8.360   2.392 -0.4452 -0.3852  0.3087
14603SOL    HW149645   3.557   8.397   2.327 -0.9660 -1.4207 -0.8016
14603SOL    HW249646   3.534   8.273   2.411 -0.4093 -0.1708  1.2731
14604SOL     OW49647   4.711   1.696   9.173 -0.1670 -0.5712 -0.3003
14604SOL    HW149648   4.665   1.643   9.238 -1.0493  0.2201 -0.2451
14604SOL    HW249649   4.778   1.742   9.224  1.0972 -2.1336 -0.4716
14605SOL     OW49650   1.854   5.624   2.628  0.1925 -0.3013 -0.0440
14605SOL    HW149651   1.849   5.719   2.615  0.7002  0.0049  1.7323
14605SOL    HW249652   1.948   5.605   2.627  0.0766 -0.8625 -0.8281
14606SOL     OW49653   0.356   7.383   2.638  0.1161  0.5371 -0.0862
14606SOL    HW149654   0.398   7.446   2.697  0.9543 -0.3027  0.2529
14606SOL    HW249655   0.421   7.366   2.570  0.3755 -0.7798  0.4429
14607SOL     OW49656   6.658  10.544   7.634  1.1683 -0.2716 -0.4283
14607SOL    HW149657   6.564  10.562   7.636  1.3233  0.4903  0.8718
14607SOL    HW249658   6.674  10.490   7.712  1.8809  0.0232 -0.3638
14608SOL     OW49659   0.569   0.659  10.422  0.0528 -0.0199  0.1199
14608SOL    HW149660   0.519   0.740  10.437  0.3504  0.1292  0.3192
14608SOL    HW249661   0.578   0.653  10.327  1.5975  1.1555  0.1524
14609SOL     OW49662   8.957   3.711   5.011  0.2693 -0.3439  0.1175
14609SOL    HW149663   8.886   3.651   4.989  0.2821  0.2670 -1.7358
14609SOL    HW249664   9.034   3.654   5.020 -0.0719 -0.7975  0.1618
14610SOL     OW49665   7.353   0.177   6.798  0.0893  0.5017  0.1325
14610SOL    HW149666   7.258   0.174   6.783  0.2149 -0.1241 -0.6605
14610SOL    HW249667   7.365   0.242   6.867 -1.0875 -0.8155  1.6590
14611SOL     OW49668   5.501   8.718   7.378 -0.2817  0.2429  0.0735
14611SOL    HW149669   5.563   8.673   7.321 -0.3543  0.1688  0.0529
14611SOL    HW249670   5.505   8.809   7.350  0.1516  0.3174  0.3758
14612SOL     OW49671   9.126   5.624   4.288 -0.5476  0.5387 -0.0839
14612SOL    HW149672   9.129   5.604   4.382  0.8076 -2.5029 -0.6535
14612SOL    HW249673   9.037   5.600   4.262 -0.8672  1.2074  0.3479
14613SOL     OW49674  10.046   2.424   2.175 -0.1669 -0.3357 -0.4963
14613SOL    HW149675  10.124   2.378   2.143  0.0938 -0.2796  0.0557
14613SOL    HW249676  10.062   2.516   2.153  0.4698 -0.1518  0.6790
14614SOL     OW49677   1.747   0.491   8.883 -1.0702  0.0351 -0.3509
14614SOL    HW149678   1.791   0.561   8.931  0.3907 -0.4902 -0.8788
14614SOL    HW249679   1.788   0.492   8.796 -1.4819 -1.0576 -0.5728
14615SOL     OW49680   9.957   5.524   2.172  0.1031 -0.0316 -0.3217
14615SOL    HW149681   9.979   5.551   2.261  0.6514 -0.6898 -0.2541
14615SOL    HW249682   9.986   5.596   2.117 -0.0837  0.3028  0.0136
14616SOL     OW49683   5.825   6.255  10.837 -0.1616 -0.4115  0.6544
14616SOL    HW149684   5.744   6.305  10.845  0.5047  0.6578  0.9680
14616SOL    HW249685   5.828   6.200  10.915 -1.2269 -1.4739 -0.0166
14617SOL     OW49686   0.832   0.104   4.454  0.0435  0.1866  0.2507
14617SOL    HW149687   0.863   0.151   4.377  0.2006 -0.5894 -0.1682
14617SOL    HW249688   0.771   0.039   4.420  1.9420 -1.8180  0.4660
14618SOL     OW49689   8.281  10.487   4.032 -0.2157 -0.5920 -0.0336
14618SOL    HW149690   8.367  10.526   4.018 -1.0703  1.6818  0.5471
14618SOL    HW249691   8.282  10.458   4.123 -0.3344  0.1992  0.2234
14619SOL     OW49692   6.761   1.477   1.036  0.3293  0.0072 -0.5864
14619SOL    HW149693   6.831   1.532   1.069  0.0984  1.6202 -2.5565
14619SOL    HW249694   6.802   1.392   1.020  1.3505  0.3619  0.0958
14620SOL     OW49695   0.674   6.177   3.159 -0.3257 -0.1813 -0.2408
14620SOL    HW149696   0.687   6.249   3.097  0.7310 -2.3344 -2.7168
14620SOL    HW249697   0.762   6.160   3.194 -0.8741  0.8473  1.7598
14621SOL     OW49698   4.291   7.660   6.207 -0.4652  0.1216 -0.1113
14621SOL    HW149699   4.199   7.686   6.219 -1.0058 -1.5249 -0.4203
14621SOL    HW249700   4.340   7.725   6.257 -1.9608 -0.3588  2.1288
14622SOL     OW49701   0.432   2.715   2.609  0.1163 -0.7719  0.0070
14622SOL    HW149702   0.361   2.765   2.569 -0.6418 -0.7337  1.3200
14622SOL    HW249703   0.508   2.730   2.553 -1.1981 -1.8798 -2.1815
14623SOL     OW49704   7.950   6.929   0.872 -0.0829 -0.3668  0.3937
14623SOL    HW149705   7.997   6.859   0.918 -0.8941 -1.3644 -0.2418
14623SOL    HW249706   8.000   7.008   0.891  0.6310 -1.0466  1.4762
14624SOL     OW49707   5.667   7.695   1.604  0.0849  0.5930 -0.0910
14624SOL    HW149708   5.617   7.622   1.640  0.7267  0.0510 -0.2789
14624SOL    HW249709   5.621   7.719   1.524  0.0598  0.1842 -0.1971
14625SOL     OW49710   6.948  10.416   5.980  0.1581 -0.3087  0.1306
14625SOL    HW149711   7.021  10.383   5.928  0.4315  1.0387 -0.3929
14625SOL    HW249712   6.978  10.502   6.011 -0.6237 -0.4005  1.1756
14626SOL     OW49713   6.966   2.873   0.203 -0.0938 -0.1712  0.6427
14626SOL    HW149714   7.006   2.820   0.272 -0.9571 -1.2126  0.3664
14626SOL    HW249715   6.878   2.837   0.192  0.2551 -0.5365 -1.5044
14627SOL     OW49716   4.642   0.327   0.711  0.0164 -0.2336  0.2032
14627SOL    HW149717   4.564   0.273   0.724  0.1605 -0.5549 -0.2448
14627SOL    HW249718   4.619   0.412   0.748 -0.8155 -0.0901 -0.6217
14628SOL     OW49719  10.390   0.849   9.661 -0.0569  0.2994 -0.2495
14628SOL    HW149720  10.435   0.933   9.664  0.2728  0.1549 -0.9984
14628SOL    HW249721  10.456   0.785   9.688 -1.1268  0.5429  3.5435
14629SOL     OW49722   3.195   4.692   4.598 -0.7605  0.7269 -0.4995
14629SOL    HW149723   3.110   4.650   4.599  0.4074 -1.8675  1.1776
14629SOL    HW249724   3.231   4.673   4.511  0.2054 -3.1410  0.5300
14630SOL     OW49725   6.349   9.921   8.424  0.2403 -0.4839 -0.0961
14630SOL    HW149726   6.359   9.853   8.358 -1.4597 -0.4513 -0.4281
14630SOL    HW249727   6.280   9.889   8.482 -0.2337  0.7245  0.0416
14631SOL     OW49728   9.376   4.165   1.047 -0.4222 -0.4821  0.1979
14631SOL    HW149729   9.386   4.193   1.138  3.2595  1.9282 -0.7302
14631SOL    HW249730   9.453   4.112   1.030 -0.8059 -0.5020 -1.6232
14632SOL     OW49731   2.279   1.383  10.192 -0.7877 -0.2310 -0.2926
14632SOL    HW149732   2.337   1.405  10.119 -0.1485  1.3893  0.6621
14632SOL    HW249733   2.219   1.457  10.198 -1.8031 -1.0448 -0.0857
14633SOL     OW49734   5.267   6.276   8.649 -0.0046  0.4933 -0.1125
14633SOL    HW149735   5.308   6.190   8.657 -0.8996  0.0795  0.1223
14633SOL    HW249736   5.309   6.315   8.572  0.8289  0.0897  0.1252
14634SOL     OW49737   0.041   1.218   1.675  0.0810  0.0551 -0.5437
14634SOL    HW149738   0.036   1.235   1.769  0.0367  1.9299 -0.8387
14634SOL    HW249739   0.130   1.246   1.650  0.4056 -1.2603 -0.9307
14635SOL     OW49740   7.685   6.045   3.901  0.0177  0.2384  0.0022
14635SOL    HW149741   7.643   5.960   3.890  0.2318 -0.0304  1.1191
14635SOL    HW249742   7.771   6.024   3.938 -0.1805  0.9609  0.9078
14636SOL     OW49743   2.034   3.938  10.487 -0.4393 -0.2770 -0.5536
14636SOL    HW149744   2.052   3.853  10.527  0.5967  0.9128  1.7762
14636SOL    HW249745   2.121   3.978  10.478 -0.9709  0.8874 -0.6819
14637SOL     OW49746   8.896   2.346  10.643 -0.4067 -0.2871 -0.0221
14637SOL    HW149747   8.833   2.384  10.705  0.2300 -0.3647  0.6805
14637SOL    HW249748   8.925   2.265  10.685 -0.7400 -0.8831 -0.8956
14638SOL     OW49749   7.673   0.677   7.366 -0.5289  0.6977 -0.0220
14638SOL    HW149750   7.713   0.596   7.399  1.3082  1.1130 -1.0891
14638SOL    HW249751   7.595   0.689   7.420 -1.3171 -2.2175 -0.3468
14639SOL     OW49752   4.733   9.620   2.316  0.3891  0.4750  0.5459
14639SOL    HW149753   4.775   9.536   2.298  2.1541  1.3978  0.1827
14639SOL    HW249754   4.785   9.659   2.386  0.1429  1.6606  0.0896
14640SOL     OW49755   8.701   1.464   7.516 -0.6806  0.3681 -0.3037
14640SOL    HW149756   8.742   1.404   7.453 -0.1714 -1.3191  1.5188
14640SOL    HW249757   8.754   1.543   7.511  0.5319 -0.4331 -0.6418
14641SOL     OW49758   4.358   2.272   6.957 -0.0412  0.0290 -0.4055
14641SOL    HW149759   4.360   2.182   6.924  0.3618 -0.4981  0.9977
14641SOL    HW249760   4.301   2.268   7.033  1.3501  0.5900  0.7029
14642SOL     OW49761   2.749   1.929   2.607  0.0438 -0.2597 -0.2461
14642SOL    HW149762   2.706   1.909   2.690 -0.3722  1.6209  0.0499
14642SOL    HW249763   2.820   1.865   2.601 -0.5467 -1.0847  1.0607
14643SOL     OW49764   9.350   9.751   7.256 -0.0021 -0.6263  0.0569
14643SOL    HW149765   9.356   9.729   7.349 -0.6212 -2.5609 -0.2994
14643SOL    HW249766   9.274   9.702   7.225  0.2590 -0.1074 -1.4996
14644SOL     OW49767   4.367   1.547   5.437 -0.0785  0.0106 -0.7850
14644SOL    HW149768   4.285   1.577   5.398 -0.5639 -0.4970 -0.1929
14644SOL    HW249769   4.435   1.580   5.379 -0.5711  2.0789 -0.2812
14645SOL     OW49770   2.216   5.380   3.100  0.2374  0.1814 -0.0801
14645SOL    HW149771   2.172   5.417   3.176  0.2514  0.2380 -0.1003
14645SOL    HW249772   2.309   5.377   3.125  0.2642  0.3555 -0.1593
14646SOL     OW49773   0.099   2.695   3.004  0.1430 -0.4408  0.2625
14646SOL    HW149774   0.093   2.788   2.986 -1.9939 -0.8138 -1.4444
14646SOL    HW249775   0.107   2.654   2.918 -1.8752 -1.9357  0.7037
14647SOL     OW49776   7.406   2.146   0.449  0.1769 -0.0514 -0.3938
14647SOL    HW149777   7.413   2.239   0.472 -2.4741  0.4108 -1.1000
14647SOL    HW249778   7.448   2.100   0.521  0.3395  1.6481  0.6441
14648SOL     OW49779   7.750   7.261  10.539  0.0620 -0.2392 -0.4916
14648SOL    HW149780   7.672   7.271  10.485  0.0623 -1.9151 -0.8742
14648SOL    HW249781   7.804   7.197  10.492  1.1841  0.1020  0.2881
14649SOL     OW49782   3.965   1.299   2.160  1.0136 -0.0741 -0.2113
14649SOL    HW149783   3.990   1.387   2.130 -0.4610  0.5759  0.3848
14649SOL    HW249784   3.964   1.305   2.255  1.1045 -0.8185 -0.1548
14650SOL     OW49785   3.267   0.588   6.538  0.0349  0.3768 -0.0995
14650SOL    HW149786   3.241   0.680   6.548  1.1292  0.6614  0.1743
14650SOL    HW249787   3.358   0.585   6.566 -0.2778 -0.9898  0.8553
14651SOL     OW49788   0.322   2.686  10.115 -0.5927 -1.0579  0.4295
14651SOL    HW149789   0.385   2.741  10.070 -2.2192 -0.1834 -0.8954
14651SOL    HW249790   0.317   2.606  10.061 -0.0689 -1.4647  0.9680
14652SOL     OW49791   7.280   6.500  10.356  0.9621  0.2418  0.7499
14652SOL    HW149792   7.325   6.474  10.276  0.0703  2.5050 -0.5939
14652SOL    HW249793   7.316   6.587  10.377 -0.7617  0.8954  1.1944
14653SOL     OW49794   9.325   2.120   6.806 -0.0101  0.9665  0.4686
14653SOL    HW149795   9.377   2.072   6.871 -0.2005  1.2220  0.8111
14653SOL    HW249796   9.384   2.190   6.776  1.2773 -0.9757 -1.9815
14654SOL     OW49797   9.004   5.698   5.002 -0.3649 -0.1861 -0.1658
14654SOL    HW149798   8.942   5.724   5.069  1.3211  0.7854  1.1038
14654SOL    HW249799   9.002   5.602   5.003  0.5809 -0.2566  2.3187
14655SOL     OW49800   8.470  10.859   4.772  0.1798 -0.1960 -0.6647
14655SOL    HW149801   8.491  10.783   4.717 -0.0287 -1.1378  0.5202
14655SOL    HW249802   8.548  10.871   4.827 -0.0866 -0.0343 -0.3183
14656SOL     OW49803   6.665  10.619   5.830 -0.7136 -0.4958 -0.0330
14656SOL    HW149804   6.751  10.579   5.820 -1.7189 -2.4895 -1.5218
14656SOL    HW249805   6.652  10.669   5.750 -1.0824 -0.5356 -0.0029
14657SOL     OW49806   2.291   3.341   3.854 -0.4927 -0.3523  0.0395
14657SOL    HW149807   2.301   3.428   3.893  0.6392  0.0057 -0.9887
14657SOL    HW249808   2.268   3.358   3.763 -0.7664 -1.1484 -0.0496
14658SOL     OW49809  10.143   6.315   7.364  0.3927 -0.4581 -0.8578
14658SOL    HW149810  10.213   6.318   7.298  0.7327  2.0415 -0.4870
14658SOL    HW249811  10.109   6.404   7.366 -1.3767 -1.1161  0.5289
14659SOL     OW49812  10.560   3.941   8.376  0.0882  0.0981 -0.1130
14659SOL    HW149813  10.602   4.010   8.428  0.6140 -0.7592  0.6366
14659SOL    HW249814  10.480   3.981   8.344 -0.4465  0.5697  1.6649
14660SOL     OW49815   1.348   2.868   5.829 -0.3739  0.0919  0.3502
14660SOL    HW149816   1.293   2.836   5.901 -1.5922 -0.7218 -0.9039
14660SOL    HW249817   1.355   2.795   5.769  3.5991 -0.4637  1.1956
14661SOL     OW49818   9.429   9.540   7.077  0.1434  0.0723  0.3542
14661SOL    HW149819   9.502   9.487   7.110 -1.4514 -1.5712  1.4416
14661SOL    HW249820   9.428   9.617   7.134  0.0416 -0.6856  1.4018
14662SOL     OW49821   0.202   6.522   6.577  0.0465 -0.1899  0.4444
14662SOL    HW149822   0.133   6.584   6.599  0.2127  0.8176 -1.6386
14662SOL    HW249823   0.282   6.563   6.611 -0.1709 -0.6780  1.5981
14663SOL     OW49824   4.417   6.601   4.318 -0.2732  0.0882  0.0256
14663SOL    HW149825   4.335   6.648   4.331  1.4017  2.6732  2.5699
14663SOL    HW249826   4.483   6.670   4.309  1.8410 -1.8585 -0.3922
14664SOL     OW49827   7.058   6.496   8.817  0.3500  0.1206 -0.0397
14664SOL    HW149828   7.016   6.560   8.759 -1.4865  1.1084  2.2088
14664SOL    HW249829   7.026   6.519   8.905  2.8560 -1.3910  1.3839
14665SOL     OW49830   2.887   4.625   2.485  0.5487  0.0049  0.2563
14665SOL    HW149831   2.940   4.704   2.498  1.6231 -0.4008 -1.2910
14665SOL    HW249832   2.807   4.657   2.444  0.6046  0.3854  0.4385
14666SOL     OW49833   0.986   6.048   4.715 -0.8464  0.3726  0.2864
14666SOL    HW149834   0.991   6.055   4.619 -2.0533  0.6473  0.2273
14666SOL    HW249835   0.894   6.028   4.733 -0.8073  1.0944  1.4259
14667SOL     OW49836   6.173   8.061   4.728  0.1283 -0.6369 -0.2633
14667SOL    HW149837   6.143   8.014   4.650  0.3082 -2.7774  0.8834
14667SOL    HW249838   6.092   8.085   4.773 -0.0005 -2.1062  0.3707
14668SOL     OW49839   0.334   2.980   1.602  0.1846  0.2528 -0.3270
14668SOL    HW149840   0.248   2.940   1.594  1.4049 -2.7984  0.3098
14668SOL    HW249841   0.369   2.980   1.513  0.4550 -0.9658 -0.2463
14669SOL     OW49842   5.661   0.446  10.911  0.0006  0.2056  0.2551
14669SOL    HW149843   5.678   0.357  10.942  0.3753 -0.1202 -0.8203
14669SOL    HW249844   5.744   0.475  10.873 -0.2732  0.8017  0.0882
14670SOL     OW49845   8.630   9.709   7.835 -0.3801  0.2003 -0.3203
14670SOL    HW149846   8.606   9.789   7.789  1.0795  0.6527 -0.3459
14670SOL    HW249847   8.555   9.650   7.822 -0.7337  0.9309 -1.7852
14671SOL     OW49848   7.102   3.644  10.807 -0.0430  0.2883  0.0181
14671SOL    HW149849   7.144   3.726  10.831 -0.5272  1.5956 -3.1739
14671SOL    HW249850   7.160   3.605  10.742 -0.4897 -1.2572  0.5024
14672SOL     OW49851   3.391   1.239   3.770  0.0142 -0.4831  0.1094
14672SOL    HW149852   3.346   1.161   3.802 -1.0852  0.3212  0.6269
14672SOL    HW249853   3.356   1.310   3.825  0.6820  0.4254 -0.6160
14673SOL     OW49854  10.346   8.265   3.656 -0.2667  0.3913 -0.1059
14673SOL    HW149855  10.433   8.304   3.645  0.6400 -1.3913  0.3940
14673SOL    HW249856  10.360   8.191   3.715 -2.5187  1.2936  1.6956
14674SOL     OW49857   2.040   3.225   4.839 -0.1005 -0.3639  0.0960
14674SOL    HW149858   1.977   3.240   4.768 -3.1819 -2.9482  1.9958
14674SOL    HW249859   2.075   3.312   4.859 -0.2074  0.6559 -3.4930
14675SOL     OW49860   8.644   6.366  10.070  0.2382  0.6397  0.3790
14675SOL    HW149861   8.568   6.309  10.061  1.0042 -0.4591  0.6658
14675SOL    HW249862   8.633   6.431  10.000 -0.4887 -0.0597 -0.1837
14676SOL     OW49863   7.318   8.478   7.835 -0.5338  0.5564 -0.3326
14676SOL    HW149864   7.267   8.558   7.844 -0.2862  0.5495  1.3318
14676SOL    HW249865   7.260   8.419   7.786 -0.7238  1.7100 -1.5465
14677SOL     OW49866   2.962   9.562   5.662  0.1761 -0.3772  0.0838
14677SOL    HW149867   2.970   9.534   5.571 -1.2809  0.1392 -0.2316
14677SOL    HW249868   2.967   9.658   5.658 -0.2747 -0.3313  0.4951
14678SOL     OW49869  10.029   4.603   1.399 -0.1819 -0.0769  0.4552
14678SOL    HW149870  10.057   4.690   1.427 -0.4947 -0.2845  1.4644
14678SOL    HW249871   9.961   4.578   1.462 -0.4595 -0.8433 -0.1252
14679SOL     OW49872   1.378   4.995   2.064 -0.1117  0.0398 -0.4352
14679SOL    HW149873   1.358   5.027   2.152 -2.1403  0.1693 -0.8864
14679SOL    HW249874   1.462   5.035   2.041 -1.6234  3.6302 -0.2618
14680SOL     OW49875   5.060   7.385   1.927 -0.3821  0.9784  0.0579
14680SOL    HW149876   5.033   7.475   1.948 -0.3376  0.9906  0.0633
14680SOL    HW249877   4.982   7.345   1.888 -0.2370  1.1896 -0.4605
14681SOL     OW49878  10.365   7.946   7.310 -0.2497  0.3926  0.1381
14681SOL    HW149879  10.276   7.974   7.289  0.1313  1.0133 -0.7035
14681SOL    HW249880  10.356   7.853   7.331 -0.9520  0.1784 -0.9738
14682SOL     OW49881   4.748   7.963   3.204  0.5141 -0.7020 -0.2249
14682SOL    HW149882   4.816   8.023   3.172  0.0006  0.6192  1.0696
14682SOL    HW249883   4.723   7.912   3.127 -0.1806  1.8720 -1.8097
14683SOL     OW49884  10.585   4.386   7.425  0.3872  0.1626  0.4627
14683SOL    HW149885  10.670   4.347   7.402  1.3064  1.3058  1.7106
14683SOL    HW249886  10.601   4.481   7.424 -0.4871  0.3712  2.0143
14684SOL     OW49887   5.362   1.984   9.909  0.3292 -0.0436 -0.5695
14684SOL    HW149888   5.411   1.905   9.887 -0.1113 -0.1810 -1.0934
14684SOL    HW249889   5.373   2.041   9.832 -0.0652  0.0553 -0.5529
14685SOL     OW49890   0.609   4.262   8.555 -0.6797 -0.7620  0.2694
14685SOL    HW149891   0.587   4.180   8.509 -1.5043  0.1095 -0.9605
14685SOL    HW249892   0.568   4.330   8.502 -0.3914  0.4208  1.5304
14686SOL     OW49893   4.243   9.960   0.678 -0.0074 -0.1502  0.6097
14686SOL    HW149894   4.306   9.892   0.700 -0.2139 -0.0107  1.6704
14686SOL    HW249895   4.292  10.042   0.686 -0.1756 -0.0762  0.8855
14687SOL     OW49896   4.744   1.715   7.056 -0.0211  0.2886 -0.5668
14687SOL    HW149897   4.736   1.637   7.002 -0.0430  1.7944 -2.8459
14687SOL    HW249898   4.674   1.706   7.121 -0.5461 -1.1887 -1.2919
14688SOL     OW49899   3.602   7.535   8.960 -0.1138  0.5125 -0.6423
14688SOL    HW149900   3.670   7.577   9.012  1.0795 -2.1533  0.1445
14688SOL    HW249901   3.649   7.495   8.886 -0.9759 -0.3066 -0.7748
14689SOL     OW49902   6.139   8.130  10.769  0.0396  0.1196 -0.1352
14689SOL    HW149903   6.048   8.156  10.751  0.2356  0.8519 -0.0806
14689SOL    HW249904   6.149   8.142  10.863  0.7462  1.8756 -0.3963
14690SOL     OW49905   6.036   6.307  10.475 -0.2022 -0.2186  0.1528
14690SOL    HW149906   6.039   6.232  10.536  0.1177 -0.3769 -0.0566
14690SOL    HW249907   6.127   6.321  10.450 -0.4225 -0.7104 -0.9721
14691SOL     OW49908   6.577  10.614   3.899 -0.4726 -0.0364  0.1640
14691SOL    HW149909   6.576  10.681   3.830  2.0026 -0.4001 -0.3156
14691SOL    HW249910   6.668  10.612   3.929 -0.8704 -1.9530  1.4105
14692SOL     OW49911   1.219  10.593   3.339 -0.1909 -0.1654 -0.2048
14692SOL    HW149912   1.281  10.538   3.290  1.6655  1.4059  0.2621
14692SOL    HW249913   1.203  10.543   3.420  1.2169 -0.2194  0.0766
14693SOL     OW49914   4.914   0.479   1.770  0.1951 -0.4656 -0.1062
14693SOL    HW149915   4.987   0.467   1.709  0.0270  0.3955 -0.4893
14693SOL    HW249916   4.911   0.573   1.785  0.6340 -0.7088  1.7418
14694SOL     OW49917   9.102   5.890   2.314 -0.5549  0.0921 -0.3015
14694SOL    HW149918   9.189   5.920   2.340  0.0832  0.7907 -2.8957
14694SOL    HW249919   9.042   5.958   2.344  0.2262  1.2809 -1.3477
14695SOL     OW49920   3.603   6.936   1.787 -0.1658 -0.1121  0.0055
14695SOL    HW149921   3.521   6.890   1.768 -0.4757  0.9000 -1.2067
14695SOL    HW249922   3.609   7.004   1.721 -0.1488  2.2075  2.2223
14696SOL     OW49923   9.737  10.800  10.635  0.7167  0.4634  0.1918
14696SOL    HW149924   9.832  10.811  10.634  1.1170 -1.2985  3.7218
14696SOL    HW249925   9.707  10.859  10.705 -0.5277 -0.4081  0.4303
14697SOL     OW49926   6.682   1.581   0.418 -0.4361  0.6694 -0.0332
14697SOL    HW149927   6.698   1.495   0.380 -1.2791  0.5411 -0.1193
14697SOL    HW249928   6.730   1.580   0.501 -1.5764 -0.4158  0.6499
14698SOL     OW49929   7.433   8.063   8.776  0.1050  0.3022  0.0071
14698SOL    HW149930   7.469   8.031   8.858  3.1978  0.2846 -1.2156
14698SOL    HW249931   7.488   8.024   8.709 -2.0506  0.6439 -2.1040
14699SOL     OW49932   0.532  10.185   4.377  0.0515  0.0657  0.1079
14699SOL    HW149933   0.489  10.265   4.407 -1.2607 -1.3455  2.2772
14699SOL    HW249934   0.625  10.201   4.391 -0.0780  1.6276 -0.6314
14700SOL     OW49935   0.801   4.609   3.460 -0.2345 -0.1483 -0.1227
14700SOL    HW149936   0.754   4.663   3.524 -1.2322 -0.1285 -0.8381
14700SOL    HW249937   0.770   4.520   3.476  1.9863 -0.7018  1.5696
14701SOL     OW49938   3.749   8.489   6.929  0.2889 -0.1057 -0.2140
14701SOL    HW149939   3.687   8.485   6.857  1.6536 -3.0301 -1.3704
14701SOL    HW249940   3.833   8.507   6.888  0.7511  0.6539  0.9807
14702SOL     OW49941   0.884   9.464   6.437  0.0965 -0.2194  0.1265
14702SOL    HW149942   0.870   9.375   6.404 -1.2636 -0.2504  0.7157
14702SOL    HW249943   0.843   9.521   6.372  0.9530 -0.0091 -0.2419
14703SOL     OW49944   9.202   2.850   3.777 -0.1852 -0.1868 -0.1105
14703SOL    HW149945   9.286   2.896   3.776 -1.2876  1.9634 -0.7457
14703SOL    HW249946   9.185   2.833   3.870  0.5003  0.2632  0.1080
14704SOL     OW49947   2.752   7.040   7.609  0.7248  0.1795 -0.0842
14704SOL    HW149948   2.684   7.105   7.594  0.3503  0.4368  2.2733
14704SOL    HW249949   2.714   6.958   7.577  0.2678  0.7133 -0.9378
14705SOL     OW49950   8.183   5.067   3.110  0.1497  0.0407 -0.1641
14705SOL    HW149951   8.207   5.159   3.098  0.9213 -0.0835  0.3840
14705SOL    HW249952   8.266   5.022   3.127 -0.3767 -0.4894  1.1779
14706SOL     OW49953   9.484   2.921   0.053 -0.1160  0.4924  0.0080
14706SOL    HW149954   9.519   3.008   0.071 -0.2344  0.5217  0.0936
14706SOL    HW249955   9.545   2.861   0.098 -0.8669  0.6024  1.2190
14707SOL     OW49956  10.873   4.147   0.625  0.3345 -0.3744  0.1432
14707SOL    HW149957  10.890   4.108   0.711 -0.3750 -1.4000 -0.1661
14707SOL    HW249958  10.793   4.197   0.637 -1.1887 -2.5278 -0.4834
14708SOL     OW49959   9.029   4.305  10.163  0.0906  0.2687 -0.1087
14708SOL    HW149960   9.100   4.264  10.212 -1.4815 -1.3470  0.9588
14708SOL    HW249961   8.955   4.305  10.224 -1.1584  0.8384 -1.5535
14709SOL     OW49962   1.497   9.355   2.478  0.6300  0.0716  0.1464
14709SOL    HW149963   1.456   9.427   2.526  0.0105 -0.7712  0.9413
14709SOL    HW249964   1.589   9.378   2.472  0.1963  1.6629 -1.0031
14710SOL     OW49965  10.555   4.892   8.423  0.3113 -0.1998 -0.2848
14710SOL    HW149966  10.558   4.807   8.380  1.3176  0.1870 -1.0096
14710SOL    HW249967  10.641   4.930   8.408 -0.5116  1.4706 -1.0203
14711SOL     OW49968   0.335   1.731   2.546  0.2320 -0.0518  0.4892
14711SOL    HW149969   0.244   1.702   2.545  0.5859 -1.2549  0.9294
14711SOL    HW249970   0.360   1.737   2.454 -0.0675 -0.4877  0.3770
14712SOL     OW49971   3.909   9.016   2.237  0.1304 -0.0452  0.2858
14712SOL    HW149972   3.853   9.084   2.200 -0.4541 -0.6944 -0.0336
14712SOL    HW249973   3.886   8.937   2.189  1.9287 -0.1680 -0.4373
14713SOL     OW49974   3.352   6.369   3.455 -0.0524 -0.2051 -0.2510
14713SOL    HW149975   3.388   6.296   3.505  0.5413  0.8368  0.9210
14713SOL    HW249976   3.410   6.378   3.379 -0.4729 -1.2936 -0.7140
14714SOL     OW49977   0.491   0.959   0.081  0.6506 -0.7753 -0.1225
14714SOL    HW149978   0.457   0.909   0.155 -2.4978  1.8572  0.4441
14714SOL    HW249979   0.429   0.941   0.010 -0.0677  1.4651 -0.1520
14715SOL     OW49980   5.180   3.733   9.218  0.1792 -0.1255  0.2010
14715SOL    HW149981   5.211   3.807   9.166 -1.1667 -0.0181 -0.4774
14715SOL    HW249982   5.176   3.660   9.156 -1.5529  0.0277  0.0854
14716SOL     OW49983   3.523   2.939   8.703  0.0401  0.0009 -0.3136
14716SOL    HW149984   3.447   2.937   8.762 -0.2340 -0.7272 -0.6802
14716SOL    HW249985   3.569   3.020   8.727 -1.5835  1.2067 -0.9938
14717SOL     OW49986   1.853   7.176   3.358 -0.1318 -0.3012  0.7546
14717SOL    HW149987   1.838   7.238   3.287 -0.7997  1.8451  2.6448
14717SOL    HW249988   1.946   7.153   3.350  0.4940  1.9999  0.7091
14718SOL     OW49989   7.205   8.686   0.399  0.2321  0.5208  0.3619
14718SOL    HW149990   7.190   8.597   0.366  0.0924  0.6676  0.0241
14718SOL    HW249991   7.124   8.708   0.446 -0.3598  1.0498 -0.8676
14719SOL     OW49992   5.387   9.094   6.732  0.5999 -0.2767 -0.4039
14719SOL    HW149993   5.351   9.097   6.643 -2.0453 -3.0093  0.4108
14719SOL    HW249994   5.455   9.026   6.729 -0.6556 -1.6031 -0.0701
14720SOL     OW49995  10.492   1.252   5.133  0.4570 -0.0404 -0.5325
14720SOL    HW149996  10.462   1.296   5.213 -1.3917  2.1330 -2.2807
14720SOL    HW249997  10.584   1.278   5.125  0.2141  1.0767  0.0648
14721SOL     OW49998   2.937   4.755   9.955 -0.2896  0.6207  0.1591
14721SOL    HW149999   2.995   4.737   9.882 -0.1066  1.8487 -0.0267
14721SOL    HW250000   2.891   4.835   9.930 -0.9568  0.5056  0.9557
14722SOL     OW50001   2.609   2.696   8.496 -0.5018 -0.1265 -0.7011
14722SOL    HW150002   2.532   2.655   8.457  0.0170 -1.1963 -0.6223
14722SOL    HW250003   2.639   2.758   8.429 -0.7776 -0.5131 -1.1948
14723SOL     OW50004   9.038   2.414   7.237  0.0646 -0.0103 -0.4436
14723SOL    HW150005   9.123   2.448   7.208 -0.1295  1.1621  0.2852
14723SOL    HW250006   9.006   2.363   7.162  1.2856 -0.2678 -0.8215
14724SOL     OW50007   9.636   1.816  10.641  0.0464 -0.1813  0.0585
14724SOL    HW150008   9.557   1.775  10.678 -1.1618  3.0078  1.3746
14724SOL    HW250009   9.602   1.878  10.577  1.8135 -1.2955 -2.0995
14725SOL     OW50010   5.719   6.885   2.140  0.3284 -0.2653  0.1192
14725SOL    HW150011   5.773   6.833   2.199 -0.6101 -1.7821 -0.3224
14725SOL    HW250012   5.669   6.943   2.199  0.1631 -1.0255  0.7424
14726SOL     OW50013   7.474   6.309   8.783  0.5446  0.5527 -0.1011
14726SOL    HW150014   7.473   6.239   8.849  2.2496  0.6095  0.0230
14726SOL    HW250015   7.385   6.311   8.750  0.5749 -2.1701 -0.6074
14727SOL     OW50016   6.568   0.750   9.514 -0.3181 -0.1493 -0.3089
14727SOL    HW150017   6.642   0.762   9.574  0.5438  0.2067 -1.4124
14727SOL    HW250018   6.516   0.830   9.524 -0.3491 -0.2312  0.1898
14728SOL     OW50019   0.229   2.673   5.704 -0.3930  0.4387  0.3706
14728SOL    HW150020   0.197   2.763   5.713 -0.0835  0.5954 -0.1155
14728SOL    HW250021   0.151   2.622   5.682 -0.8501  0.3375  2.0557
14729SOL     OW50022   9.959   6.420   1.126 -0.0502  0.0538 -0.0652
14729SOL    HW150023   9.874   6.382   1.103 -0.0782 -0.1627  0.3815
14729SOL    HW250024  10.023   6.354   1.098  0.0507  0.6756 -1.3892
14730SOL     OW50025   7.433   6.065   3.425 -0.2199  0.0170  0.2530
14730SOL    HW150026   7.451   6.098   3.337 -0.5874  0.8650  0.4866
14730SOL    HW250027   7.502   6.104   3.480 -0.7487  0.5279  0.5597
14731SOL     OW50028   2.022   3.567   8.218 -0.6467 -0.1656 -0.4738
14731SOL    HW150029   1.929   3.549   8.200 -0.4171 -0.1502 -1.7578
14731SOL    HW250030   2.030   3.662   8.208 -1.2255  0.4457  3.3224
14732SOL     OW50031   5.989   8.472   6.762  0.5693 -0.0452 -0.2925
14732SOL    HW150032   6.074   8.509   6.787  1.0492  1.1578 -3.2943
14732SOL    HW250033   5.925   8.538   6.790  1.0031  0.8306 -1.2905
14733SOL     OW50034   1.182   7.066  10.477  0.5027  0.0481  0.6400
14733SOL    HW150035   1.093   7.040  10.455  0.3467 -0.4365  1.7796
14733SOL    HW250036   1.180   7.081  10.571  1.6791 -0.1934  0.7212
14734SOL     OW50037  10.467   0.999   1.044 -0.5609  0.1765 -0.1743
14734SOL    HW150038  10.538   0.936   1.049  0.1833  0.9375 -0.7666
14734SOL    HW250039  10.430   0.986   0.957 -0.1794  0.7665 -0.4355
14735SOL     OW50040   4.145   9.416   7.792  0.2153 -0.5185  0.1357
14735SOL    HW150041   4.121   9.389   7.881  0.4529  1.0796  0.7269
14735SOL    HW250042   4.063   9.443   7.752 -0.0218 -2.0250 -0.4544
14736SOL     OW50043   9.032   3.886   6.095  0.1015 -0.7804 -0.4509
14736SOL    HW150044   9.112   3.850   6.056  0.9362 -0.8459  1.2463
14736SOL    HW250045   8.972   3.811   6.100  0.6970 -1.2244  0.1665
14737SOL     OW50046   8.023  10.349   8.698 -0.6237  0.2721 -0.7544
14737SOL    HW150047   8.105  10.398   8.699 -0.9825  0.8936  0.4335
14737SOL    HW250048   7.992  10.353   8.608  0.0120  1.1152 -0.9397
14738SOL     OW50049   6.523   5.424   0.195  0.1907 -0.0645  0.2496
14738SOL    HW150050   6.504   5.379   0.112 -0.1775 -0.3356  0.4794
14738SOL    HW250051   6.449   5.484   0.207  0.6751  0.6034 -0.0519
14739SOL     OW50052   2.091   1.860   9.465 -0.2559 -0.0418 -0.2967
14739SOL    HW150053   2.104   1.849   9.370 -0.7543  1.1460 -0.5244
14739SOL    HW250054   2.092   1.771   9.500  2.1755 -0.4112 -1.1073
14740SOL     OW50055   9.526   2.898   3.623  0.6578 -0.0068  0.5229
14740SOL    HW150056   9.540   2.944   3.540 -1.4471 -0.8074 -0.3316
14740SOL    HW250057   9.490   2.813   3.598  1.4041 -0.8849  2.2216
14741SOL     OW50058   3.207   0.044   9.946 -0.4733  0.2272 -0.2254
14741SOL    HW150059   3.301   0.030   9.962 -0.7233  0.9625  2.4811
14741SOL    HW250060   3.185   0.120   9.999 -2.1928  1.5409 -2.6669
14742SOL     OW50061   1.780   5.898  10.568  0.1466  0.1638 -0.0815
14742SOL    HW150062   1.826   5.815  10.583  2.0421  1.4827  2.0709
14742SOL    HW250063   1.695   5.886  10.609 -0.0346 -1.0764 -0.7838
14743SOL     OW50064   3.692   1.495   9.273  0.1949  0.4423 -0.2225
14743SOL    HW150065   3.782   1.527   9.271 -0.1128  1.5192  1.2844
14743SOL    HW250066   3.643   1.560   9.223 -0.2004  1.6421  1.6190
14744SOL     OW50067   2.481   9.897   6.787  0.4351 -0.0579  0.1439
14744SOL    HW150068   2.549   9.955   6.819  1.0314 -0.5139 -0.2717
14744SOL    HW250069   2.505   9.810   6.820 -0.3565 -0.1069  0.6239
14745SOL     OW50070   6.702   8.530   5.717  0.1578  0.1763 -0.3154
14745SOL    HW150071   6.793   8.545   5.745  0.0232  0.2486  0.0875
14745SOL    HW250072   6.681   8.608   5.664  0.5044 -0.0930 -0.8613
14746SOL     OW50073   0.263   2.680   6.362 -0.2095  0.4095  0.1826
14746SOL    HW150074   0.298   2.704   6.276  0.9920 -0.5429  0.3798
14746SOL    HW250075   0.330   2.624   6.400 -1.6404 -0.8437  0.9326
14747SOL     OW50076   3.588   0.923   6.599  0.1660 -0.0413  0.4606
14747SOL    HW150077   3.564   0.934   6.691 -0.4436  0.6320  0.2276
14747SOL    HW250078   3.678   0.956   6.594  0.6043 -1.0871  1.0150
14748SOL     OW50079   9.093   2.922   1.382  0.4189 -0.0343  0.4782
14748SOL    HW150080   9.139   2.978   1.319  1.8494 -2.5114 -0.8303
14748SOL    HW250081   9.095   2.835   1.343 -1.2627 -1.1432  2.6415
14749SOL     OW50082   6.630   7.035   4.737 -0.0415 -0.5113  0.2405
14749SOL    HW150083   6.697   6.970   4.761  0.8079  0.9820  2.1870
14749SOL    HW250084   6.617   7.086   4.817 -1.1662  1.2944 -1.0347
14750SOL     OW50085   6.396   1.883  10.353 -0.1478 -0.2152 -0.2231
14750SOL    HW150086   6.349   1.804  10.380  0.3940 -0.7255 -0.7404
14750SOL    HW250087   6.364   1.900  10.264  1.3635 -1.1656 -0.9900
14751SOL     OW50088   4.616   9.392   6.313 -0.1018  0.0903  1.2562
14751SOL    HW150089   4.603   9.486   6.324  2.6450  0.6876  0.1936
14751SOL    HW250090   4.548   9.352   6.367 -2.2509  2.6378  0.6586
14752SOL     OW50091   9.488  10.320   9.420  0.0008 -0.2202 -0.2959
14752SOL    HW150092   9.437  10.278   9.351  1.3601 -0.1694 -1.3508
14752SOL    HW250093   9.515  10.248   9.477  1.3543 -0.6590 -1.4608
14753SOL     OW50094   4.060   9.197   5.081 -0.3308 -0.1804 -0.5284
14753SOL    HW150095   4.136   9.227   5.132  0.9390 -0.1249 -2.3433
14753SOL    HW250096   4.040   9.111   5.116  0.6424 -0.2393 -0.0782
14754SOL     OW50097   5.105   8.585   5.034 -0.2907  0.1656 -0.1774
14754SOL    HW150098   5.108   8.662   5.091  1.8445 -0.3029  0.4458
14754SOL    HW250099   5.077   8.619   4.949  0.2019  1.5570  0.1921
14755SOL     OW50100   7.227   1.200   7.495 -0.2657 -0.7183  0.2993
14755SOL    HW150101   7.212   1.268   7.429 -0.9936  0.1075  1.2948
14755SOL    HW250102   7.149   1.144   7.491 -0.3111 -0.6665  0.4576
14756SOL     OW50103   1.523   2.901   4.157 -0.4166  0.1430 -0.5352
14756SOL    HW150104   1.462   2.943   4.218  0.4785 -0.8246  1.0896
14756SOL    HW250105   1.610   2.927   4.188  0.1378 -2.1577  0.0322
14757SOL     OW50106   8.050   3.753   4.725 -0.6706  0.6304 -0.1861
14757SOL    HW150107   8.111   3.681   4.739  1.4403  2.4229  0.2256
14757SOL    HW250108   7.994   3.722   4.654  0.1246 -1.4126 -0.0139
14758SOL     OW50109   7.220   0.110   5.379 -0.0652 -0.3966  0.3436
14758SOL    HW150110   7.184   0.121   5.291 -1.3128  0.7611  0.9507
14758SOL    HW250111   7.144   0.121   5.437  0.7891 -0.7678  1.5781
14759SOL     OW50112  10.047   2.797   8.575  0.0578 -0.2263  0.2588
14759SOL    HW150113   9.969   2.782   8.629  0.7900 -0.5394  1.2547
14759SOL    HW250114  10.113   2.737   8.609  0.0719 -1.6733 -2.0934
14760SOL     OW50115   0.447   7.263  10.896 -0.3154 -0.4097  0.2267
14760SOL    HW150116   0.425   7.181  10.852  0.4113 -0.0155 -0.9121
14760SOL    HW250117   0.363   7.296  10.929 -0.8902 -0.7054 -0.9116
14761SOL     OW50118   4.866  10.801   0.265 -0.1188 -0.0702  0.4933
14761SOL    HW150119   4.826  10.736   0.207 -0.1967  0.1917  0.2557
14761SOL    HW250120   4.929  10.847   0.210  0.1761 -0.1681  0.7483
14762SOL     OW50121  10.664   7.861   6.170 -0.7663 -0.3366 -0.1525
14762SOL    HW150122  10.596   7.926   6.190  1.1235  1.7939 -0.2475
14762SOL    HW250123  10.678   7.869   6.076 -1.1942 -1.6106 -0.3302
14763SOL     OW50124   1.123   2.647   1.554 -0.2718  0.6932  0.1524
14763SOL    HW150125   1.076   2.645   1.471  0.0597 -0.2988 -0.0123
14763SOL    HW250126   1.056   2.625   1.619 -0.3855  0.8498  0.0911
14764SOL     OW50127   4.202   1.134  10.895  0.1814  0.1455 -0.2602
14764SOL    HW150128   4.180   1.175  10.978  1.3273 -0.3652  0.3038
14764SOL    HW250129   4.194   1.040  10.911 -0.4632  0.0608 -0.9872
14765SOL     OW50130   6.023   3.209   1.044 -0.1447 -0.2442  0.2951
14765SOL    HW150131   6.017   3.187   1.137  0.6116 -0.1439  0.3797
14765SOL    HW250132   6.013   3.125   0.999 -2.5127 -0.0532  0.3450
14766SOL     OW50133   8.998   1.516   7.096 -0.4874 -0.0810 -0.3908
14766SOL    HW150134   9.074   1.498   7.152 -0.7926  1.2500  0.4988
14766SOL    HW250135   9.002   1.610   7.078 -1.2761 -0.2046 -1.3171
14767SOL     OW50136   4.737   9.204   4.057 -0.4200  0.5251  0.2757
14767SOL    HW150137   4.737   9.278   4.117  0.8730 -0.7670  1.9404
14767SOL    HW250138   4.758   9.128   4.111  1.0499 -0.6812 -1.8336
14768SOL     OW50139   9.826   1.345  10.896  0.5484 -0.0926  0.0762
14768SOL    HW150140   9.761   1.284  10.931  1.6192 -0.8160  0.8781
14768SOL    HW250141   9.883   1.290  10.842  1.7606  0.0924  1.1258
14769SOL     OW50142   2.796   3.273   2.925  0.1292  0.0125  0.5204
14769SOL    HW150143   2.760   3.214   2.858 -0.9793  0.5840  0.5962
14769SOL    HW250144   2.835   3.214   2.990 -1.2053 -0.6570  0.7343
14770SOL     OW50145   0.239   8.001   8.972 -0.2374 -0.1746 -0.2749
14770SOL    HW150146   0.150   7.988   8.940  0.6371 -1.5257 -2.4192
14770SOL    HW250147   0.282   7.916   8.960  0.6296 -0.4223  3.4155
14771SOL     OW50148   5.820   6.184   8.888 -0.3915 -0.1637 -0.2384
14771SOL    HW150149   5.745   6.128   8.909 -0.6381  0.5915  1.0317
14771SOL    HW250150   5.890   6.152   8.945 -0.6620  1.0486  0.8381
14772SOL     OW50151   2.475   6.972   0.603  0.0124 -0.1726 -0.7197
14772SOL    HW150152   2.465   6.884   0.642  0.6670 -0.7976 -1.9214
14772SOL    HW250153   2.546   7.012   0.653 -0.9285  0.0716  0.4812
14773SOL     OW50154   9.323  10.565   5.812  0.0140  0.5968 -0.3089
14773SOL    HW150155   9.298  10.573   5.720  0.8679  0.6322 -0.5470
14773SOL    HW250156   9.363  10.649   5.834  2.6580 -0.4103 -0.8309
14774SOL     OW50157   6.758   5.806   3.346 -0.0669 -0.3859 -0.4511
14774SOL    HW150158   6.755   5.716   3.313 -0.7604 -0.6837  0.3624
14774SOL    HW250159   6.667   5.837   3.340 -0.0017 -0.0663  0.1220
14775SOL     OW50160   8.122   1.725   2.157 -0.1694 -1.0016  0.9953
14775SOL    HW150161   8.052   1.670   2.193 -0.8474  0.6230  2.2650
14775SOL    HW250162   8.168   1.758   2.234 -0.1632  0.6894  0.3013
14776SOL     OW50163   6.758   0.598   4.862 -0.0594  0.0691 -0.0427
14776SOL    HW150164   6.713   0.562   4.785  0.1393 -1.4563  0.5319
14776SOL    HW250165   6.787   0.522   4.911 -1.2135  0.9821  2.1902
14777SOL     OW50166   8.514   9.576   1.074  0.1563  0.3608 -0.2633
14777SOL    HW150167   8.588   9.630   1.100 -0.8590  0.8526  1.8446
14777SOL    HW250168   8.547   9.486   1.078  0.5500  0.5467  1.0517
14778SOL     OW50169   7.892   4.772   4.283  0.1081  0.2318  0.3141
14778SOL    HW150170   7.924   4.702   4.340 -0.8360  0.0655  0.6672
14778SOL    HW250171   7.924   4.748   4.196 -0.2895 -0.7131  0.4111
14779SOL     OW50172   1.447   3.216  10.071  0.3599  0.1297  0.1681
14779SOL    HW150173   1.438   3.170   9.987 -1.8654  0.7855 -0.0087
14779SOL    HW250174   1.512   3.284  10.053  0.5998 -0.3134 -0.7491
14780SOL     OW50175   1.781   9.662   3.207  0.6451  0.5750 -0.4700
14780SOL    HW150176   1.827   9.728   3.259 -0.0159 -0.8447  2.1055
14780SOL    HW250177   1.693   9.697   3.196  0.8521  0.9832 -0.8733
14781SOL     OW50178   6.354   1.563   5.956  0.5033  0.0521  0.5580
14781SOL    HW150179   6.422   1.501   5.981  0.8686 -1.5529 -3.5426
14781SOL    HW250180   6.387   1.648   5.985  1.9356 -1.2004  2.8071
14782SOL     OW50181   7.216   3.724   2.675  0.4602  0.1536 -0.1355
14782SOL    HW150182   7.224   3.702   2.768  2.5925 -0.0289 -0.3117
14782SOL    HW250183   7.305   3.747   2.648 -0.2878  1.1680 -1.9152
14783SOL     OW50184   1.351  10.741   0.285 -0.4247 -0.7157  0.0698
14783SOL    HW150185   1.321  10.823   0.245  0.1101 -0.8588 -0.6564
14783SOL    HW250186   1.282  10.718   0.347  0.1696  1.1316  1.5151
14784SOL     OW50187   5.072   3.728   1.174 -0.8313  0.4545 -0.3772
14784SOL    HW150188   5.087   3.795   1.107 -0.9614 -1.1948 -2.1408
14784SOL    HW250189   5.159   3.708   1.208 -0.2483 -1.1473 -2.6055
14785SOL     OW50190   0.438   6.244   4.676 -0.1874  0.3506  0.3713
14785SOL    HW150191   0.477   6.220   4.760  0.7373 -0.6839 -0.3371
14785SOL    HW250192   0.470   6.332   4.659  1.1668 -0.1447  0.2235
14786SOL     OW50193  10.858   8.571   2.957 -0.1856 -0.0241  0.2602
14786SOL    HW150194  10.795   8.567   2.885 -0.0477  0.7253  0.0887
14786SOL    HW250195  10.883   8.663   2.961  0.0114 -0.1117  1.0962
14787SOL     OW50196   1.778   7.002   7.415  0.0399  0.1721  0.2295
14787SOL    HW150197   1.700   6.947   7.427  0.0961  0.1570  0.5238
14787SOL    HW250198   1.749   7.090   7.441  0.0228  0.2343  0.0036
14788SOL     OW50199   3.048   1.715   0.260  0.1293 -0.0519 -0.4216
14788SOL    HW150200   2.997   1.793   0.241  0.2239  0.3285  0.7713
14788SOL    HW250201   3.089   1.734   0.345  1.7604 -0.5853 -1.0586
14789SOL     OW50202   6.039   8.484   4.774 -0.1352  0.3144  0.3314
14789SOL    HW150203   5.999   8.498   4.860 -2.3430 -1.4736 -0.3184
14789SOL    HW250204   5.999   8.551   4.718 -0.3105  0.1212  0.2263
14790SOL     OW50205   3.080   7.437   0.513  0.3294 -0.4958 -0.3110
14790SOL    HW150206   3.066   7.419   0.419 -1.4082 -1.7622  0.1324
14790SOL    HW250207   3.028   7.516   0.530  1.0955  0.0667 -0.4950
14791SOL     OW50208   0.382   1.968   5.239  0.0530  0.2970 -0.2122
14791SOL    HW150209   0.327   2.023   5.184  0.0308 -0.0141 -0.5037
14791SOL    HW250210   0.431   2.030   5.293 -1.2248  0.5557  0.6959
14792SOL     OW50211   1.797   8.679   3.947 -0.3042  0.3157 -0.0668
14792SOL    HW150212   1.886   8.678   3.984 -0.3158 -0.2610 -0.0394
14792SOL    HW250213   1.798   8.608   3.883  0.5192  2.8908 -3.1392
14793SOL     OW50214   0.927   3.847   7.782 -0.1162  0.1819  0.2594
14793SOL    HW150215   0.908   3.801   7.864 -1.8013  0.1161 -0.1145
14793SOL    HW250216   0.955   3.934   7.809  0.0689 -0.0788  0.9241
14794SOL     OW50217   9.781   8.236   6.261  0.1304 -0.1915 -0.2874
14794SOL    HW150218   9.687   8.234   6.240 -0.3032 -1.2946  1.5577
14794SOL    HW250219   9.802   8.146   6.286  1.1362  0.4719  1.4307
14795SOL     OW50220  10.232   5.641   6.566 -0.2855  0.0757 -0.0010
14795SOL    HW150221  10.273   5.555   6.556 -2.4785 -1.6052  3.3902
14795SOL    HW250222  10.161   5.640   6.501 -1.6047 -1.7169  1.3413
14796SOL     OW50223  10.857   0.290   5.700  0.8706 -0.0362  0.0855
14796SOL    HW150224  10.884   0.335   5.620  1.7812  0.4087  0.6340
14796SOL    HW250225  10.854   0.197   5.675 -3.1469  0.3496 -1.6677
14797SOL     OW50226   9.565   3.865   4.076 -0.3001 -0.0804 -0.1061
14797SOL    HW150227   9.505   3.801   4.115  1.9673 -1.5687  1.1359
14797SOL    HW250228   9.639   3.870   4.137  0.0998  3.0290 -0.6687
14798SOL     OW50229   2.907   6.160   8.587  0.2320  0.6987  0.0502
14798SOL    HW150230   2.843   6.231   8.595 -1.7440 -0.8746 -0.8722
14798SOL    HW250231   2.917   6.128   8.677  1.2555  2.1803  0.4994
14799SOL     OW50232   1.365   8.920   2.145 -0.1609 -0.4129  0.0624
14799SOL    HW150233   1.315   9.001   2.147 -1.3277 -1.0783 -0.7298
14799SOL    HW250234   1.352   8.881   2.231 -1.3861 -0.7772 -0.2705
14800SOL     OW50235   8.219   1.989   9.179  0.0870 -0.0209  0.3941
14800SOL    HW150236   8.299   2.036   9.204  1.1565 -2.1181  1.1557
14800SOL    HW250237   8.163   1.996   9.256  0.4965 -0.4828  0.7431
14801SOL     OW50238   5.971   1.253   0.257  0.1723  0.0452 -0.5661
14801SOL    HW150239   6.033   1.221   0.191 -0.4561  2.1293 -2.2793
14801SOL    HW250240   6.004   1.218   0.340  2.3069 -0.7933 -1.6948
14802SOL     OW50241   8.829   2.116   0.479 -0.4500  0.6950  0.4326
14802SOL    HW150242   8.869   2.195   0.445  0.5058 -0.3062 -0.8535
14802SOL    HW250243   8.735   2.129   0.466 -0.1958  0.8815 -1.4634
14803SOL     OW50244   0.494   0.008   8.310 -0.0668  0.2419 -0.5054
14803SOL    HW150245   0.552  -0.067   8.298 -0.4754  0.1079 -1.8509
14803SOL    HW250246   0.534   0.059   8.380 -0.1160 -1.5394  0.8846
14804SOL     OW50247   1.730  10.671   9.130 -0.2898 -0.8153 -0.0718
14804SOL    HW150248   1.680  10.592   9.149 -0.7148 -0.5175  0.0679
14804SOL    HW250249   1.670  10.743   9.151  0.4131 -0.4445  0.7185
14805SOL     OW50250   5.110   7.113   9.424 -0.0344  0.3897  0.3064
14805SOL    HW150251   5.033   7.069   9.389  0.5641 -0.4029 -0.0678
14805SOL    HW250252   5.086   7.138   9.513 -0.6947  0.1042  0.2146
14806SOL     OW50253   3.201   3.764  10.206 -0.0415 -0.0792  0.1031
14806SOL    HW150254   3.156   3.841  10.241  2.0213  0.7440  1.1337
14806SOL    HW250255   3.172   3.692  10.262  0.2201  0.5216  1.0420
14807SOL     OW50256   4.410  10.785  10.470 -0.2637  0.2800  0.1114
14807SOL    HW150257   4.374  10.846  10.535  0.9601  2.4764 -1.1600
14807SOL    HW250258   4.485  10.831  10.432 -0.1884 -1.4135 -2.0063
14808SOL     OW50259   4.625   9.055   8.819 -0.0052 -0.0990  0.4519
14808SOL    HW150260   4.671   8.982   8.778 -1.7788 -0.4680 -1.0026
14808SOL    HW250261   4.683   9.131   8.804 -0.0760 -0.4275 -1.8584
14809SOL     OW50262   5.563  10.911   4.409  0.5738  0.3321  0.5756
14809SOL    HW150263   5.505  10.953   4.345  2.1834  3.0084  0.7003
14809SOL    HW250264   5.621  10.856   4.356 -0.0442  0.1351  0.0952
14810SOL     OW50265   7.695   8.959   5.044 -0.2548  0.2426 -0.0229
14810SOL    HW150266   7.750   8.902   4.990 -0.6700  0.6761 -0.9233
14810SOL    HW250267   7.687   8.913   5.128 -1.2709 -1.4476 -1.0010
14811SOL     OW50268   6.396   1.270   7.064 -0.2123  0.0100 -0.6126
14811SOL    HW150269   6.384   1.218   6.984 -0.1995 -0.3709 -0.3712
14811SOL    HW250270   6.340   1.226   7.129  0.9296 -0.5899 -0.0014
14812SOL     OW50271  10.726   2.591   9.330  0.2723 -0.0745 -0.3057
14812SOL    HW150272  10.793   2.547   9.278 -1.2046 -1.6250 -0.9974
14812SOL    HW250273  10.773   2.630   9.403  1.9249 -1.0242 -0.8270
14813SOL     OW50274  10.547   3.486   1.860  0.3113 -0.0669 -0.2273
14813SOL    HW150275  10.619   3.429   1.889 -0.2917 -0.8717 -0.2908
14813SOL    HW250276  10.515   3.445   1.780 -0.2855  0.2433 -0.1525
14814SOL     OW50277   8.774   4.297   9.188  0.2350 -0.2186 -0.1163
14814SOL    HW150278   8.777   4.375   9.133  1.4599 -1.2916 -1.6718
14814SOL    HW250279   8.857   4.298   9.235  0.1658 -0.4854  0.0135
14815SOL     OW50280   2.339   4.218   8.717 -0.4901  0.4444  0.0395
14815SOL    HW150281   2.267   4.277   8.739 -0.4954 -0.0666  1.5638
14815SOL    HW250282   2.418   4.266   8.743 -0.4675  0.0082  0.8387
14816SOL     OW50283   9.202   5.398   7.053 -0.3867  0.0133  0.3683
14816SOL    HW150284   9.282   5.346   7.059  0.4031  1.0685 -0.5193
14816SOL    HW250285   9.144   5.361   7.119  0.7132 -0.9829  0.8123
14817SOL     OW50286   9.983   2.441   1.238  0.2651 -0.7231 -0.4322
14817SOL    HW150287  10.005   2.495   1.314 -0.8287  0.6571 -1.0584
14817SOL    HW250288  10.038   2.363   1.247  0.4053 -0.4349  1.5876
14818SOL     OW50289   1.251   0.033   6.684  0.4574 -0.1182 -0.2670
14818SOL    HW150290   1.201   0.035   6.603  1.6225 -0.4985 -1.0223
14818SOL    HW250291   1.212  -0.039   6.735 -1.3041  1.1337  0.2323
14819SOL     OW50292   1.414   3.648   4.421  0.7340  0.5565 -0.0929
14819SOL    HW150293   1.324   3.618   4.419  1.0663 -0.6878  1.3831
14819SOL    HW250294   1.408   3.744   4.421 -0.5633  0.4840 -0.1968
14820SOL     OW50295   5.377   5.887   5.674  0.5856  0.1196 -0.3050
14820SOL    HW150296   5.385   5.970   5.720  0.7021 -0.9572  1.7650
14820SOL    HW250297   5.466   5.854   5.667  0.6302  0.4973 -1.8455
14821SOL     OW50298   1.759   9.139   3.521 -0.7830  0.5610 -0.4765
14821SOL    HW150299   1.764   9.231   3.549  0.4060  0.4466 -0.2845
14821SOL    HW250300   1.848   9.105   3.532 -1.6154 -1.2258  1.5207
14822SOL     OW50301   9.375  10.567   1.998  0.0084 -0.5576 -0.2740
14822SOL    HW150302   9.341  10.649   2.033 -2.2703 -1.7375  0.5263
14822SOL    HW250303   9.355  10.570   1.905 -0.0264 -0.2017 -0.2549
14823SOL     OW50304   5.360  10.437   5.571  0.3446 -0.0840  0.3986
14823SOL    HW150305   5.411  10.372   5.522 -0.2660 -1.8179  1.9793
14823SOL    HW250306   5.306  10.386   5.631 -1.8709  1.7838  0.1446
14824SOL     OW50307   2.303  10.162   7.811 -0.2243  0.3446 -0.4415
14824SOL    HW150308   2.296  10.212   7.892  1.3241 -1.2080  0.7299
14824SOL    HW250309   2.393  10.176   7.782 -0.3626 -0.2007 -1.1657
14825SOL     OW50310   2.668   4.054   7.417 -0.8064 -0.2114 -0.1363
14825SOL    HW150311   2.587   4.079   7.372 -0.7351 -1.6793 -1.1204
14825SOL    HW250312   2.724   4.131   7.408 -1.9371  0.6920  0.2411
14826SOL     OW50313   7.017   4.190   0.047 -0.2071  0.0688 -0.2697
14826SOL    HW150314   7.103   4.176   0.086 -0.6365 -2.1980  0.0502
14826SOL    HW250315   6.996   4.106   0.006 -2.2426  0.5817 -0.3807
14827SOL     OW50316   6.156   5.299   4.413  0.0295  0.5091 -0.3063
14827SOL    HW150317   6.120   5.218   4.450  0.9165  0.7569  1.1705
14827SOL    HW250318   6.185   5.273   4.325 -0.6317 -0.5053 -0.2554
14828SOL     OW50319   1.151   7.560   2.072 -0.4108 -0.4304  0.0951
14828SOL    HW150320   1.063   7.550   2.110 -0.1651 -0.1725  0.7550
14828SOL    HW250321   1.208   7.574   2.148 -0.1509  1.8622 -0.4396
14829SOL     OW50322   7.391  10.443  10.049 -0.0723  0.3114  0.6230
14829SOL    HW150323   7.475  10.402  10.066 -1.0675 -1.9308  0.5112
14829SOL    HW250324   7.400  10.482   9.962  0.9946  0.6101  0.8525
14830SOL     OW50325   9.650   4.691   7.118 -0.5437 -0.1767 -0.0504
14830SOL    HW150326   9.659   4.654   7.031  1.9382 -0.0431  0.0636
14830SOL    HW250327   9.643   4.786   7.104 -1.0946 -0.2264 -0.1266
14831SOL     OW50328   8.436   6.315   8.632  0.2549 -0.6708 -0.1550
14831SOL    HW150329   8.356   6.322   8.580  1.2171 -0.9003 -1.7047
14831SOL    HW250330   8.496   6.378   8.593  0.1113  1.2384  2.4525
14832SOL     OW50331  10.155   3.902   0.294  0.8301 -0.0375 -0.1569
14832SOL    HW150332  10.137   3.987   0.254 -0.9685 -0.0616  0.5250
14832SOL    HW250333  10.238   3.875   0.255  2.0267  2.4895  0.3644
14833SOL     OW50334   0.890   5.133   8.419  0.2329 -0.1096  0.2675
14833SOL    HW150335   0.863   5.167   8.333 -1.3781 -2.3828 -0.2058
14833SOL    HW250336   0.810   5.132   8.471  1.2624  1.6967  2.0772
14834SOL     OW50337   6.842   4.354   1.311 -0.4859  0.6276  0.6124
14834SOL    HW150338   6.919   4.392   1.267 -1.0015 -0.1384 -1.0572
14834SOL    HW250339   6.780   4.339   1.240 -1.1917 -1.1326  1.5549
14835SOL     OW50340   7.236   7.048   6.327  0.1268  0.0510  0.4189
14835SOL    HW150341   7.278   6.962   6.336  0.6437  0.4352  2.0717
14835SOL    HW250342   7.301   7.100   6.280  0.0590 -0.3114 -0.0763
14836SOL     OW50343   0.832   6.480   6.016  0.4325 -0.5482  0.0625
14836SOL    HW150344   0.883   6.490   6.097 -1.0352 -0.9701  1.0742
14836SOL    HW250345   0.784   6.563   6.008  1.7234  0.1300 -1.2627
14837SOL     OW50346   6.982   7.908   9.554  0.7570  0.1308 -0.4694
14837SOL    HW150347   7.059   7.959   9.528  1.3912  0.9182  2.5154
14837SOL    HW250348   7.014   7.854   9.626 -1.7482  1.6206  1.9452
14838SOL     OW50349   1.046   3.162   8.582  0.0923 -0.0483  0.2692
14838SOL    HW150350   1.042   3.257   8.587  0.9778 -0.0049  0.3044
14838SOL    HW250351   1.138   3.141   8.598  0.3460 -0.7579 -1.7945
14839SOL     OW50352   7.130   0.136  10.008 -0.0505 -0.8650 -0.6180
14839SOL    HW150353   7.042   0.172  10.017  0.9209  1.0943  2.7663
14839SOL    HW250354   7.181   0.208   9.971  1.2148  0.3838  3.0878
14840SOL     OW50355   4.373   8.361   9.321  0.0109 -0.0138 -0.2121
14840SOL    HW150356   4.316   8.437   9.314 -0.3389 -0.2871 -0.3686
14840SOL    HW250357   4.462   8.397   9.324 -0.2194  0.4871  1.3353
14841SOL     OW50358   0.741   0.817   4.561 -0.3146 -0.2774  0.3773
14841SOL    HW150359   0.689   0.873   4.504 -1.3914 -1.7678 -0.1821
14841SOL    HW250360   0.825   0.862   4.570  0.0614 -0.1201 -2.7084
14842SOL     OW50361   7.170  10.338   5.376 -0.4482 -0.0108  0.6875
14842SOL    HW150362   7.176  10.263   5.436  0.2852  0.0349  0.6876
14842SOL    HW250363   7.252  10.335   5.327  0.4604  1.8883  1.9882
14843SOL     OW50364   9.980   7.425   8.942  0.3674 -0.2377 -0.0708
14843SOL    HW150365   9.974   7.348   8.998  0.8169  1.1234  1.9601
14843SOL    HW250366   9.940   7.495   8.993  2.4455  1.4897 -0.6316
14844SOL     OW50367   3.395   4.134   0.710  0.1963 -0.0175  0.2011
14844SOL    HW150368   3.457   4.205   0.726  1.0613 -0.9765  1.2536
14844SOL    HW250369   3.324   4.151   0.772  0.2350  0.1205  0.2095
14845SOL     OW50370   9.792   3.409   8.371 -0.3336 -0.1606  0.6353
14845SOL    HW150371   9.804   3.319   8.342  0.9666  0.3989 -0.7439
14845SOL    HW250372   9.794   3.404   8.466  0.1727 -1.5432  0.5776
14846SOL     OW50373   3.928   8.578  10.824  0.2883  0.1900 -0.4013
14846SOL    HW150374   3.956   8.604  10.737  0.6829 -2.4263 -1.1439
14846SOL    HW250375   3.849   8.527  10.810 -0.1911  0.5299  0.8829
14847SOL     OW50376   3.635   6.039   2.203 -0.4581 -0.0297  0.0371
14847SOL    HW150377   3.623   6.017   2.295  0.0295 -0.3337  0.0330
14847SOL    HW250378   3.602   5.962   2.156  0.5241 -0.4421 -0.0006
14848SOL     OW50379   0.615   6.693   0.150  0.4909 -0.1104  0.1777
14848SOL    HW150380   0.651   6.607   0.173  2.6217  0.9987  1.3757
14848SOL    HW250381   0.542   6.674   0.092  2.3626 -2.6536 -1.5804
14849SOL     OW50382   1.902   9.294   0.857  0.2214 -0.4314 -0.3978
14849SOL    HW150383   1.819   9.248   0.870  0.2723 -0.6234 -0.7301
14849SOL    HW250384   1.907   9.308   0.762 -0.3742  1.3639 -0.2068
14850SOL     OW50385   9.876   6.498   2.302  0.6460  0.3627  0.0533
14850SOL    HW150386   9.930   6.502   2.381 -0.1130  1.7997  0.5390
14850SOL    HW250387   9.902   6.574   2.251  0.2267  0.1580 -0.4764
14851SOL     OW50388   6.763   2.729   1.048 -0.2550 -0.0502 -0.2033
14851SOL    HW150389   6.730   2.686   1.127 -1.4218  1.4476  0.1637
14851SOL    HW250390   6.858   2.734   1.063 -0.4370  0.1087  1.0676
14852SOL     OW50391   8.708   5.935   1.571 -0.1012 -0.8116  0.1648
14852SOL    HW150392   8.732   5.920   1.662  1.5185 -1.2195 -0.2925
14852SOL    HW250393   8.667   5.854   1.543  0.6676 -1.1999  0.1511
14853SOL     OW50394   5.096   9.156   8.898  0.2980 -0.4255  0.5177
14853SOL    HW150395   5.019   9.185   8.947  0.4988  1.2396 -0.0820
14853SOL    HW250396   5.151   9.234   8.892  1.8191 -1.4509  0.5020
14854SOL     OW50397   5.371   6.023   5.246 -0.0503 -0.1772 -0.1311
14854SOL    HW150398   5.279   5.999   5.246 -0.2660  0.5735 -1.3279
14854SOL    HW250399   5.409   5.972   5.318 -1.3853 -0.4929  0.3856
14855SOL     OW50400   2.631   8.458   3.932  0.3145 -0.0995  0.4831
14855SOL    HW150401   2.659   8.430   3.845  0.8995  0.5252  0.4641
14855SOL    HW250402   2.563   8.395   3.957 -0.7292  0.4397 -0.9284
14856SOL     OW50403   1.027   0.990   9.728 -0.4095  0.5225 -0.1794
14856SOL    HW150404   1.110   0.947   9.744 -1.0216 -0.2672  0.9715
14856SOL    HW250405   1.030   1.070   9.781 -0.0292  0.9603 -0.8501
14857SOL     OW50406   0.075  10.402   0.086  0.1314 -0.1511 -0.1780
14857SOL    HW150407   0.164  10.406   0.120  1.0336 -0.7218 -2.3018
14857SOL    HW250408   0.081  10.343   0.011 -2.1031 -0.4146 -0.2080
14858SOL     OW50409   4.292   2.371   3.937  0.1975  0.2788 -0.2279
14858SOL    HW150410   4.307   2.381   4.031  2.8957  0.9271 -0.6520
14858SOL    HW250411   4.285   2.276   3.924  1.6489  0.0493  0.4261
14859SOL     OW50412   9.198   6.045  10.018  0.8843  0.0183  0.0412
14859SOL    HW150413   9.113   6.021   9.981  1.2244  0.9242 -1.3773
14859SOL    HW250414   9.259   5.981   9.981  1.0388  0.2211 -0.0572
14860SOL     OW50415   0.083   9.581   6.280  0.0651 -0.3981 -0.0505
14860SOL    HW150416   0.035   9.570   6.362 -1.6512 -2.3334 -1.2211
14860SOL    HW250417   0.076   9.496   6.237  0.0538  0.8381 -2.6629
14861SOL     OW50418   8.061   3.492   3.510  0.9435  0.5242 -0.0279
14861SOL    HW150419   8.077   3.463   3.600  1.8672  0.9394 -0.0485
14861SOL    HW250420   8.039   3.412   3.462 -0.1905  0.3730  0.6829
14862SOL     OW50421   1.620   5.524   8.510 -0.0857 -0.6486 -0.3483
14862SOL    HW150422   1.538   5.514   8.558 -0.4331 -1.0668 -1.0202
14862SOL    HW250423   1.686   5.534   8.579 -0.5422 -1.5040  0.2397
14863SOL     OW50424   1.952   8.982   6.739 -0.2045 -0.4761  0.2879
14863SOL    HW150425   1.942   9.048   6.807  0.0734  0.0545 -0.1712
14863SOL    HW250426   1.872   8.930   6.743  0.8077 -1.9886  2.5997
14864SOL     OW50427   6.378   7.076   0.824  0.6874  0.4275 -0.2515
14864SOL    HW150428   6.462   7.108   0.791  1.6727 -0.2917  1.3976
14864SOL    HW250429   6.368   6.990   0.782  1.5573 -0.1564  0.6994
14865SOL     OW50430   1.871   0.058   7.990 -0.3895 -0.1977 -0.4945
14865SOL    HW150431   1.945  -0.002   8.002 -0.7536 -0.9090 -1.6747
14865SOL    HW250432   1.912   0.144   7.978  0.1237 -0.1094  1.5417
14866SOL     OW50433  10.842   7.370   5.145 -0.2160 -0.7168 -0.4343
14866SOL    HW150434  10.784   7.393   5.073 -0.7287 -0.5348  0.0267
14866SOL    HW250435  10.906   7.440   5.148 -1.5633  0.5372  0.7410
14867SOL     OW50436   2.050   6.541   7.231 -0.3832  0.5914 -0.1287
14867SOL    HW150437   1.969   6.498   7.257 -0.0747 -0.4060 -0.7813
14867SOL    HW250438   2.051   6.622   7.282 -1.0015 -0.1334  1.0848
14868SOL     OW50439   7.663   0.006   7.533  0.0783  0.2305 -0.3801
14868SOL    HW150440   7.724  -0.014   7.462 -0.3173 -1.4465 -0.2898
14868SOL    HW250441   7.586  -0.047   7.514 -2.1619  3.5266 -1.4608
14869SOL     OW50442   0.071   7.394   2.739 -0.1901  0.3768 -0.2839
14869SOL    HW150443   0.155   7.361   2.706  0.8829  0.8878  1.7595
14869SOL    HW250444   0.007   7.367   2.673  1.0744 -2.8685 -0.3833
14870SOL     OW50445   7.489   4.835   3.568  0.3647  0.2023  0.6517
14870SOL    HW150446   7.481   4.873   3.481  2.0413 -0.3604  0.2173
14870SOL    HW250447   7.409   4.861   3.613 -0.6118  0.3614 -1.1025
14871SOL     OW50448   6.872   4.106   5.806 -0.1282  0.0901 -0.0417
14871SOL    HW150449   6.858   4.025   5.757  0.1090  0.5297 -0.8517
14871SOL    HW250450   6.962   4.101   5.837  0.1948  0.4583 -0.8951
14872SOL     OW50451  10.851   2.162   6.743  0.5340  0.0709  0.0689
14872SOL    HW150452  10.777   2.222   6.747  0.2145 -0.4051  2.2108
14872SOL    HW250453  10.833   2.108   6.666 -0.2168  1.3489 -0.6884
14873SOL     OW50454   1.474   3.849   7.541 -0.5224  0.0892 -0.3235
14873SOL    HW150455   1.524   3.781   7.586  0.1021 -1.0383 -2.5545
14873SOL    HW250456   1.522   3.930   7.560 -0.1840 -0.3723  0.8440
14874SOL     OW50457   9.098   3.750   2.124 -0.1950  0.0113 -0.0803
14874SOL    HW150458   9.173   3.757   2.065 -0.3764  1.0923 -0.1896
14874SOL    HW250459   9.022   3.760   2.067 -0.3652  1.5820  0.3776
14875SOL     OW50460   4.584   2.058   4.180  0.0414 -0.3568  0.0763
14875SOL    HW150461   4.548   1.988   4.126 -1.9367  0.5207  0.1989
14875SOL    HW250462   4.652   2.098   4.126 -0.9912 -0.3429 -1.2415
14876SOL     OW50463   0.335   7.393   8.236 -0.4022 -0.2798  0.2981
14876SOL    HW150464   0.268   7.438   8.286  0.0246 -0.4627  1.0422
14876SOL    HW250465   0.402   7.459   8.221 -0.8999  0.0089 -0.7699
14877SOL     OW50466   5.818   1.322   1.503  0.0710  0.1392 -0.7239
14877SOL    HW150467   5.791   1.395   1.446 -0.7518  0.4118 -0.0092
14877SOL    HW250468   5.745   1.312   1.564  0.5916 -0.6803 -0.2282
14878SOL     OW50469   9.360   2.953   3.003 -0.1077 -0.5017 -0.6074
14878SOL    HW150470   9.391   2.973   2.915  0.8286  0.9651  0.0095
14878SOL    HW250471   9.301   3.025   3.024  1.7582  0.6885  0.9247
14879SOL     OW50472   0.815   7.854   1.774  0.2681  0.7677  0.4366
14879SOL    HW150473   0.811   7.761   1.752 -0.2366  1.2672 -1.8198
14879SOL    HW250474   0.908   7.875   1.771  0.3310  0.4801  0.2953
14880SOL     OW50475  10.544   9.507  10.636  0.2525 -0.1973  0.2873
14880SOL    HW150476  10.461   9.498  10.683 -0.2492 -0.9737 -0.7189
14880SOL    HW250477  10.521   9.551  10.554  1.1207  1.1664  0.7391
14881SOL     OW50478   9.393   5.235   5.809 -0.2096 -0.1291  0.3630
14881SOL    HW150479   9.396   5.149   5.851 -0.6093 -0.6276 -0.5828
14881SOL    HW250480   9.362   5.294   5.877  0.9785 -0.5543  1.3018
14882SOL     OW50481   1.511   6.219   3.775 -0.4274  0.1411 -0.5185
14882SOL    HW150482   1.455   6.143   3.756 -0.3707  0.1772 -0.8397
14882SOL    HW250483   1.506   6.272   3.696 -2.1956  1.5811  0.4927
14883SOL     OW50484   3.462   4.083  10.187 -0.2990 -0.1283 -0.3002
14883SOL    HW150485   3.375   4.102  10.150 -0.3975  0.3733  0.1801
14883SOL    HW250486   3.513   4.161  10.169 -0.1430 -0.1570  0.0084
14884SOL     OW50487   4.742   8.723   9.112  0.2708 -0.7230 -0.0440
14884SOL    HW150488   4.669   8.677   9.072  0.1151 -0.3189 -0.2216
14884SOL    HW250489   4.782   8.658   9.170 -0.1559 -0.9779 -0.0323
14885SOL     OW50490   5.018   8.959   0.468 -0.1234 -0.7849  0.7947
14885SOL    HW150491   5.112   8.942   0.465 -0.5014 -2.9422 -0.3248
14885SOL    HW250492   5.005   9.030   0.404  0.6001 -1.2551  0.1098
14886SOL     OW50493   5.621   1.238   8.848 -0.1176 -0.1737 -0.0529
14886SOL    HW150494   5.578   1.304   8.794  0.1841  0.8380  0.9299
14886SOL    HW250495   5.676   1.287   8.909  1.8674 -1.3973 -0.7436
14887SOL     OW50496   6.608   9.895   8.464 -0.3473 -0.2664  0.3531
14887SOL    HW150497   6.617   9.800   8.458  0.8413 -0.1299 -0.5455
14887SOL    HW250498   6.514   9.911   8.463 -0.5688 -1.4462  0.9044
14888SOL     OW50499   7.543   2.802   1.045  0.4470  0.2622  0.6728
14888SOL    HW150500   7.633   2.779   1.070  1.8677  1.6269 -2.6864
14888SOL    HW250501   7.516   2.732   0.985  0.3654  1.2959 -0.5157
14889SOL     OW50502   0.905   3.070   7.443  0.3227  0.0719 -0.0134
14889SOL    HW150503   0.831   3.105   7.492 -0.8543 -1.1098 -0.8868
14889SOL    HW250504   0.872   2.989   7.404  1.6581  0.2218 -1.5489
14890SOL     OW50505   4.235   1.955   0.163  0.4000  0.3740 -0.1400
14890SOL    HW150506   4.304   1.933   0.226  2.2741  2.0249 -1.4879
14890SOL    HW250507   4.192   2.032   0.199  0.5670  0.5042 -0.2159
14891SOL     OW50508   0.348   4.353   7.167  0.1485  0.2336  0.1022
14891SOL    HW150509   0.273   4.304   7.200 -0.7553  1.0369 -0.7213
14891SOL    HW250510   0.424   4.302   7.197 -0.7268 -1.1383  0.0919
14892SOL     OW50511   2.399   7.485  10.913  0.1452 -0.1371  0.0545
14892SOL    HW150512   2.370   7.493  10.823  0.8105 -1.3800 -0.2975
14892SOL    HW250513   2.343   7.417  10.951  0.2127  0.0055  0.4192
14893SOL     OW50514   9.343   7.739   2.823  0.2773  0.4272 -0.3061
14893SOL    HW150515   9.265   7.701   2.784  0.1548 -0.8946  1.0896
14893SOL    HW250516   9.405   7.750   2.751 -0.6920  0.1349 -1.1883
14894SOL     OW50517   0.708   3.717   6.867 -0.1118  0.1113 -0.0993
14894SOL    HW150518   0.800   3.737   6.884 -0.2740 -0.8068  2.2549
14894SOL    HW250519   0.662   3.747   6.945 -1.7893  0.2068 -1.0717
14895SOL     OW50520   9.713   1.173   6.922 -0.0796  0.0408  0.4566
14895SOL    HW150521   9.801   1.137   6.913  0.4990  0.5327  3.3445
14895SOL    HW250522   9.716   1.258   6.878  0.9458  0.1349  0.6988
14896SOL     OW50523   3.463   4.465   9.263  0.3329  0.2223 -0.4910
14896SOL    HW150524   3.471   4.541   9.321 -0.1490  0.2869 -0.5004
14896SOL    HW250525   3.545   4.462   9.215  0.5070  0.5118 -0.2161
14897SOL     OW50526   3.514   5.213   0.399  0.0091 -0.0557  0.4968
14897SOL    HW150527   3.555   5.127   0.395 -0.1851 -0.1280 -0.0465
14897SOL    HW250528   3.422   5.195   0.418 -0.4919 -0.1294 -1.6864
14898SOL     OW50529   4.101   9.240   9.155  0.6253  0.1853 -0.4082
14898SOL    HW150530   4.066   9.244   9.065  1.5822 -2.7030 -0.9963
14898SOL    HW250531   4.191   9.269   9.147  0.3997  0.9903 -0.1428
14899SOL     OW50532   5.314   9.297   5.554  0.0194  0.2597 -0.0324
14899SOL    HW150533   5.329   9.215   5.600 -0.7875 -0.8308 -1.6056
14899SOL    HW250534   5.387   9.303   5.492  0.3128  0.9546  0.3791
14900SOL     OW50535   2.488   2.516   3.375  0.4844  0.0524 -0.4069
14900SOL    HW150536   2.404   2.561   3.364  0.2082  0.3613  2.3203
14900SOL    HW250537   2.466   2.423   3.367 -0.2474  0.1046  0.7362
14901SOL     OW50538   7.259   9.248   0.425 -0.1831 -0.2325  0.7108
14901SOL    HW150539   7.319   9.175   0.406 -1.4962 -1.4649  1.1592
14901SOL    HW250540   7.248   9.245   0.520 -0.3230  0.5008  0.7197
14902SOL     OW50541   5.031   5.899   8.296 -0.3112 -0.2410 -0.0373
14902SOL    HW150542   4.953   5.844   8.283 -0.3372 -0.0167 -0.8887
14902SOL    HW250543   5.100   5.855   8.246 -0.2284  0.2761 -0.3823
14903SOL     OW50544   1.318   2.888   3.831  0.1905  0.0074  0.4942
14903SOL    HW150545   1.361   2.973   3.822 -1.6071  0.7552 -1.9981
14903SOL    HW250546   1.381   2.825   3.795  1.2777  0.2970  1.7932
14904SOL     OW50547   2.057   6.647   0.986 -0.3447 -0.6284  0.5698
14904SOL    HW150548   2.070   6.741   0.969  0.9456 -0.9882 -0.5831
14904SOL    HW250549   2.121   6.626   1.054  1.7723 -1.3180 -1.5018
14905SOL     OW50550   5.995   1.887   2.343 -0.1844  0.0617 -0.1783
14905SOL    HW150551   6.060   1.854   2.404 -0.8561  0.5161  0.8068
14905SOL    HW250552   5.944   1.810   2.317 -0.4263 -0.0137  0.4965
14906SOL     OW50553   4.259   3.603   4.808  0.1286  0.6542 -0.7891
14906SOL    HW150554   4.251   3.673   4.872 -1.4840  0.9278 -1.2444
14906SOL    HW250555   4.185   3.616   4.748  0.2652 -0.9484 -1.3672
14907SOL     OW50556   3.463   7.178   1.015  0.1605 -0.2749  0.7619
14907SOL    HW150557   3.554   7.194   1.039  0.6273  1.1437 -1.5878
14907SOL    HW250558   3.467   7.107   0.951 -0.0923  1.1306 -0.8825
14908SOL     OW50559   7.050   1.663   4.406 -0.1847  0.2187  0.1494
14908SOL    HW150560   7.096   1.592   4.451  0.3876  1.2265  1.2345
14908SOL    HW250561   7.112   1.693   4.339  0.0288  0.4163  0.4327
14909SOL     OW50562   1.372   1.643   1.622 -0.2389  0.2353 -0.1475
14909SOL    HW150563   1.323   1.663   1.542 -0.0510  1.7184  0.0913
14909SOL    HW250564   1.452   1.696   1.616  0.6984 -1.0759  0.1418
14910SOL     OW50565   4.039   8.739   8.475 -0.0586 -0.0429  0.3222
14910SOL    HW150566   3.980   8.744   8.550  0.0765 -0.4731  0.4629
14910SOL    HW250567   4.062   8.646   8.469 -1.3081 -0.2921 -1.2103
14911SOL     OW50568   7.882   4.634   7.850  0.2378  0.0341  0.2026
14911SOL    HW150569   7.926   4.566   7.798  0.2749 -3.0020  3.7799
14911SOL    HW250570   7.791   4.605   7.854 -0.0576  0.9960  0.6685
14912SOL     OW50571   7.206   5.978   1.113 -0.3662  0.1665 -0.3641
14912SOL    HW150572   7.199   5.894   1.159  0.1974  0.1732 -0.2547
14912SOL    HW250573   7.231   5.954   1.024 -0.8076  0.1893 -0.4968
14913SOL     OW50574   2.105   7.186   6.576 -0.6535 -0.0674 -0.1264
14913SOL    HW150575   2.110   7.106   6.523  1.7313 -0.6099  0.8008
14913SOL    HW250576   2.105   7.257   6.512 -1.9569 -0.7509 -0.9320
14914SOL     OW50577   5.962   7.057   0.505  0.7007 -0.9827  0.0818
14914SOL    HW150578   5.980   7.093   0.592  2.6789 -0.4256 -0.5055
14914SOL    HW250579   5.959   6.962   0.519  2.1976 -0.9796  0.6031
14915SOL     OW50580   0.189   6.642   5.466 -0.1016  0.5808 -0.4645
14915SOL    HW150581   0.140   6.721   5.442 -0.6292  0.1326 -0.8926
14915SOL    HW250582   0.258   6.636   5.400  0.8936  1.5029  0.4411
14916SOL     OW50583   9.004   4.620   0.566  0.2112  0.7993  0.3615
14916SOL    HW150584   9.060   4.696   0.548  0.7146  0.4199  0.3223
14916SOL    HW250585   8.930   4.657   0.615  0.8367  1.2025  1.0356
14917SOL     OW50586   9.664   1.682   8.481  0.6904 -0.7526 -0.4200
14917SOL    HW150587   9.649   1.772   8.509  0.4713 -1.1789  0.9029
14917SOL    HW250588   9.699   1.689   8.392  2.0616  0.6887  0.2087
14918SOL     OW50589   7.118   3.608   6.313 -0.2979  0.3420  0.8383
14918SOL    HW150590   7.144   3.577   6.399 -0.1521  1.7079  1.3042
14918SOL    HW250591   7.093   3.528   6.266 -0.8828 -0.3722  2.2971
14919SOL     OW50592   8.810   5.526  10.306 -0.0057 -0.6759  0.5669
14919SOL    HW150593   8.774   5.473  10.234  0.0666  0.8423 -0.6547
14919SOL    HW250594   8.894   5.485  10.326  0.0714 -1.0141 -0.3621
14920SOL     OW50595   8.021   8.691   3.039 -0.1246  0.0925 -0.0266
14920SOL    HW150596   7.990   8.780   3.019 -0.8194 -0.4513 -1.6022
14920SOL    HW250597   8.080   8.702   3.113 -0.5459  1.8115  0.1071
14921SOL     OW50598   5.674   5.038   6.168 -0.1383 -0.0461 -0.1157
14921SOL    HW150599   5.761   5.007   6.192  0.3514  0.7444 -0.7953
14921SOL    HW250600   5.681   5.133   6.168 -1.4264  0.0928  1.2858
14922SOL     OW50601   6.433  10.577   4.321  0.7744 -0.8004  0.1881
14922SOL    HW150602   6.362  10.637   4.346  0.8230 -1.1705  1.2597
14922SOL    HW250603   6.418  10.499   4.373 -0.0927 -2.3261 -2.1840
14923SOL     OW50604   8.965   7.572   8.216  0.3160 -0.1648 -0.5776
14923SOL    HW150605   8.981   7.480   8.194 -0.1724 -0.2101 -0.7459
14923SOL    HW250606   8.919   7.569   8.300 -0.9302 -0.1442 -1.2312
14924SOL     OW50607  10.143   5.706   9.754  0.8935 -0.1643  0.1992
14924SOL    HW150608  10.233   5.682   9.777  0.7696 -0.0844  0.7900
14924SOL    HW250609  10.097   5.710   9.838  1.1661  3.1755  0.3308
14925SOL     OW50610  10.095   5.104   3.787  0.1776 -0.5672  0.4964
14925SOL    HW150611  10.111   5.058   3.705  2.4124 -0.8914  1.0532
14925SOL    HW250612  10.038   5.044   3.837 -2.8384  0.4620 -1.4388
14926SOL     OW50613   0.385   6.762  10.875  0.0546  0.5726 -0.2654
14926SOL    HW150614   0.462   6.818  10.862  1.9335 -2.0945 -1.7731
14926SOL    HW250615   0.357   6.739  10.787 -0.2969 -1.2523  0.2838
14927SOL     OW50616   9.436   8.924   5.310 -0.1483  0.2499  0.1396
14927SOL    HW150617   9.458   8.831   5.315 -0.4418  0.1177 -0.8116
14927SOL    HW250618   9.495   8.958   5.242 -0.7841  0.5203 -0.2852
14928SOL     OW50619   8.924   2.520   6.791  0.5979 -0.3930  0.1101
14928SOL    HW150620   8.982   2.451   6.824  0.9021 -0.1225  0.1556
14928SOL    HW250621   8.980   2.572   6.733  0.8531  0.8214  1.3988
14929SOL     OW50622   0.904  10.561   3.041  0.3288  0.2497  0.4724
14929SOL    HW150623   0.923  10.594   3.129  1.3813 -0.0264  0.3554
14929SOL    HW250624   0.979  10.506   3.019 -1.4871 -2.6027  0.8308
14930SOL     OW50625  10.499   3.685   7.188  0.2522 -0.7333  0.2015
14930SOL    HW150626  10.460   3.703   7.273 -0.0993  3.2032 -0.6216
14930SOL    HW250627  10.437   3.626   7.145 -0.4599 -1.3205  1.9682
14931SOL     OW50628   1.466   5.902   9.000 -0.3215  0.0559  0.0072
14931SOL    HW150629   1.466   5.810   9.025 -0.5907  0.5625  2.0418
14931SOL    HW250630   1.389   5.912   8.943 -0.4838 -0.9089  0.0497
14932SOL     OW50631   4.745  10.293   8.009  0.2419 -0.3494 -0.4127
14932SOL    HW150632   4.705  10.349   7.943 -1.2312  0.4680  1.1034
14932SOL    HW250633   4.748  10.206   7.968  0.3546  0.3420 -1.9209
14933SOL     OW50634   1.171   2.866   6.659  0.4658 -0.1066  0.3126
14933SOL    HW150635   1.084   2.839   6.686  1.2339 -2.3104  0.8203
14933SOL    HW250636   1.195   2.936   6.721 -0.5058 -0.2146  0.8333
14934SOL     OW50637   9.829   9.732   4.730 -0.0094 -0.6210  0.1668
14934SOL    HW150638   9.871   9.728   4.816  0.8749  1.4226 -0.0978
14934SOL    HW250639   9.899   9.708   4.669  0.4746  1.4383 -0.1765
14935SOL     OW50640   1.704  10.413   1.956 -0.1131 -0.2778 -0.3003
14935SOL    HW150641   1.707  10.504   1.927 -0.0556 -0.3493 -0.5165
14935SOL    HW250642   1.793  10.381   1.946  0.7961  0.6998  3.2039
14936SOL     OW50643   8.564   2.711   2.203 -0.0050  0.5102  0.0212
14936SOL    HW150644   8.537   2.766   2.129 -1.8682 -1.5456 -0.9498
14936SOL    HW250645   8.621   2.645   2.165 -0.2705 -0.0473  0.5746
14937SOL     OW50646   0.069   4.445   9.133 -0.0909 -0.1620  0.4652
14937SOL    HW150647   0.130   4.491   9.076  0.2968  2.1115  2.5147
14937SOL    HW250648   0.006   4.512   9.160 -0.6185 -1.2683  2.1691
14938SOL     OW50649   0.719   7.432   2.227  0.3575 -0.3430 -0.0495
14938SOL    HW150650   0.719   7.407   2.134  1.1455  2.5039 -0.9185
14938SOL    HW250651   0.810   7.457   2.245 -0.0221  0.2013  1.1740
14939SOL     OW50652   7.280  10.151   3.043 -0.0802  0.2497 -0.1709
14939SOL    HW150653   7.320  10.232   3.011  0.0702 -0.1759 -1.1022
14939SOL    HW250654   7.229  10.118   2.968  0.5207 -0.9343 -0.0903
14940SOL     OW50655   4.133  10.901   5.101 -0.2529  0.2072  0.5322
14940SOL    HW150656   4.222  10.905   5.065 -0.4671 -1.2697 -0.2403
14940SOL    HW250657   4.145  10.896   5.196  0.5348 -0.8997  0.3844
14941SOL     OW50658   0.971   3.070   1.942  0.0364  0.2797  0.0350
14941SOL    HW150659   0.924   3.011   1.884  1.3654  0.7242 -1.5896
14941SOL    HW250660   0.930   3.155   1.929  0.8223  0.5372 -0.8957
14942SOL     OW50661   9.749   1.491   8.086 -0.6415 -0.6481 -0.2974
14942SOL    HW150662   9.658   1.502   8.058 -0.1010 -0.1556 -1.9523
14942SOL    HW250663   9.801   1.534   8.018  0.7690  1.1148  1.7600
14943SOL     OW50664   7.638   8.297   7.667  0.2460  0.2611 -0.0101
14943SOL    HW150665   7.645   8.202   7.655  2.5190  0.1989  1.3048
14943SOL    HW250666   7.594   8.308   7.751  0.1851  0.3797 -0.0564
14944SOL     OW50667   1.450  10.395  10.531  0.1943 -0.2372 -0.5567
14944SOL    HW150668   1.466  10.341  10.608 -0.4227  1.0960  0.5422
14944SOL    HW250669   1.465  10.336  10.457  0.7830 -1.5518  0.5680
14945SOL     OW50670   0.238   5.743   1.578 -0.6592 -0.1700  0.0175
14945SOL    HW150671   0.278   5.722   1.494  0.4975 -1.3936  0.8322
14945SOL    HW250672   0.250   5.838   1.588  0.8759 -0.3064 -0.3564
14946SOL     OW50673   4.141   3.941   5.817  0.7379 -0.6136  0.4372
14946SOL    HW150674   4.174   3.912   5.732 -0.7111 -2.8048  0.5485
14946SOL    HW250675   4.113   4.032   5.802  1.7634 -0.5111 -1.0454
14947SOL     OW50676   2.752   8.141   7.678 -0.1461  0.7611  0.2759
14947SOL    HW150677   2.798   8.143   7.762  0.7199 -0.5080 -0.1483
14947SOL    HW250678   2.817   8.107   7.616 -1.7000 -1.2855 -0.3115
14948SOL     OW50679   4.270   0.419   6.537 -0.3391  0.4354 -0.0277
14948SOL    HW150680   4.270   0.492   6.599 -0.3828  0.1187  0.3491
14948SOL    HW250681   4.180   0.384   6.540 -0.3086  0.3397 -0.1769
14949SOL     OW50682   2.352   6.810   1.047  0.1084  0.4751  0.3704
14949SOL    HW150683   2.280   6.864   1.014 -0.8930 -0.4521  0.9768
14949SOL    HW250684   2.365   6.842   1.137 -0.0293  0.1530  0.5035
14950SOL     OW50685   2.854   5.639   6.312  0.0216  0.1908 -0.1091
14950SOL    HW150686   2.930   5.689   6.284 -0.9119  2.1725  0.7125
14950SOL    HW250687   2.856   5.643   6.407 -1.1535  0.3502 -0.0755
14951SOL     OW50688   4.613   1.288   7.620 -0.0937  0.1819  0.1740
14951SOL    HW150689   4.588   1.197   7.604  0.2577 -0.2587  1.9987
14951SOL    HW250690   4.571   1.311   7.702 -1.7174  2.3244 -1.1505
14952SOL     OW50691   1.126  10.152   6.209 -0.4846 -0.2775 -0.0254
14952SOL    HW150692   1.216  10.172   6.234 -0.5009 -0.2825  0.0370
14952SOL    HW250693   1.094  10.095   6.278 -0.0105 -1.6136 -0.8701
14953SOL     OW50694  10.913   9.044   4.342 -0.2700 -0.4028  0.3817
14953SOL    HW150695  10.857   9.104   4.292 -0.7067 -0.6537  0.5577
14953SOL    HW250696  10.854   8.973   4.368 -0.2092  0.0220  1.7814
14954SOL     OW50697   3.399   4.511   0.789  0.0057  0.1951 -0.2249
14954SOL    HW150698   3.434   4.428   0.821  0.6632  0.3356 -0.5533
14954SOL    HW250699   3.317   4.488   0.745 -1.2105  0.0576  1.9670
14955SOL     OW50700   2.654   2.403   1.577 -0.1067 -0.0842 -0.5799
14955SOL    HW150701   2.738   2.429   1.541 -0.0623 -0.2401 -0.5891
14955SOL    HW250702   2.597   2.392   1.500  0.0629 -0.6840 -0.6241
14956SOL     OW50703   9.301   8.653   7.816 -0.4217 -0.0365  0.1368
14956SOL    HW150704   9.299   8.747   7.830 -2.0452  0.1022 -0.8271
14956SOL    HW250705   9.393   8.634   7.795 -0.5406  1.7649 -2.3871
14957SOL     OW50706   2.214  10.877   6.904 -0.1723  0.2647  0.4923
14957SOL    HW150707   2.213  10.958   6.853  1.0488 -0.1147 -0.1878
14957SOL    HW250708   2.122  10.853   6.914 -0.5373 -1.0774 -3.9570
14958SOL     OW50709   1.603   1.650   0.135  0.2659 -0.2431  0.4428
14958SOL    HW150710   1.636   1.627   0.048  2.4284 -1.5238  1.5191
14958SOL    HW250711   1.545   1.724   0.120 -0.1479 -1.0171 -2.1847
14959SOL     OW50712   2.149   8.545   6.692  0.6325  0.0756 -0.1304
14959SOL    HW150713   2.096   8.571   6.617  0.8478 -0.4306 -0.4622
14959SOL    HW250714   2.186   8.460   6.667  2.5257  0.9302 -0.4112
14960SOL     OW50715   6.585   5.586   1.155  0.2365  0.0584 -0.1500
14960SOL    HW150716   6.552   5.621   1.072  0.5010 -3.2074 -1.7979
14960SOL    HW250717   6.514   5.602   1.217 -0.7710  0.9174 -1.4500
14961SOL     OW50718   4.436   3.570  10.054 -0.2993 -0.7525 -0.2615
14961SOL    HW150719   4.347   3.556  10.085  0.1406 -3.0398  0.1828
14961SOL    HW250720   4.476   3.629  10.118 -1.4600  0.2692 -0.4532
14962SOL     OW50721   3.321   7.200  10.639 -0.0858  0.7541 -0.0212
14962SOL    HW150722   3.261   7.272  10.656 -1.1053 -0.5125  2.1255
14962SOL    HW250723   3.281   7.151  10.567 -0.8615  0.7820  0.3810
14963SOL     OW50724   1.249   5.817   7.418  0.3376  0.8891 -0.0926
14963SOL    HW150725   1.215   5.728   7.418 -0.5471  1.1729  1.8503
14963SOL    HW250726   1.335   5.811   7.460 -0.2505  1.0875  1.1867
14964SOL     OW50727   2.395   6.198   5.188 -0.3735  0.1035 -0.0572
14964SOL    HW150728   2.359   6.180   5.274 -1.7831  2.0059 -0.1931
14964SOL    HW250729   2.322   6.232   5.137  0.6457 -0.0590 -1.7276
14965SOL     OW50730   2.351   3.587   9.989 -0.7288 -0.0795 -0.7332
14965SOL    HW150731   2.420   3.584   9.923  0.1613 -0.2321  0.1720
14965SOL    HW250732   2.343   3.680  10.011  2.6948 -0.3110  2.6153
14966SOL     OW50733  10.853   1.278   7.787  0.3011  0.3405  0.6832
14966SOL    HW150734  10.909   1.334   7.842  0.1026 -0.3554  1.6179
14966SOL    HW250735  10.895   1.192   7.790 -0.5075 -0.0489  0.9257
14967SOL     OW50736   6.855   1.065   3.164  0.2503  0.0377  0.1853
14967SOL    HW150737   6.814   0.989   3.205  0.1596 -0.5080 -0.8948
14967SOL    HW250738   6.849   1.048   3.070  2.2810  0.3072 -0.0222
14968SOL     OW50739  10.050   0.505   2.303  0.4044 -0.0833  0.2229
14968SOL    HW150740   9.999   0.426   2.281  2.2585 -0.7464 -2.0560
14968SOL    HW250741   9.986   0.563   2.343 -1.4116 -2.1097  0.4935
14969SOL     OW50742   8.080   8.223   9.405 -0.3110  0.3743  0.1793
14969SOL    HW150743   8.059   8.180   9.488 -1.6311  0.0555 -0.2949
14969SOL    HW250744   8.054   8.160   9.338 -1.7698  1.6465 -0.5283
14970SOL     OW50745   8.221   4.676   8.814  0.2909  0.1112 -0.3658
14970SOL    HW150746   8.171   4.688   8.895  0.0014 -1.2985 -0.2973
14970SOL    HW250747   8.228   4.581   8.805 -0.9120  0.1887 -2.7679
14971SOL     OW50748   9.906   6.204   8.344  0.3715  0.1144 -0.4029
14971SOL    HW150749   9.901   6.282   8.289  2.1186  1.1031  0.7310
14971SOL    HW250750   9.945   6.137   8.289  1.7192  0.9663 -0.5203
14972SOL     OW50751   0.963   8.557   4.839  0.2980  0.4307  0.7872
14972SOL    HW150752   1.017   8.597   4.907  0.0699 -0.2256  1.3716
14972SOL    HW250753   0.988   8.602   4.759  2.7095 -0.7355  0.7880
14973SOL     OW50754   0.928  10.006   6.370 -0.7088  0.7497  0.1631
14973SOL    HW150755   0.853   9.983   6.426  1.0294 -1.8083  1.6340
14973SOL    HW250756   0.997  10.028   6.431  0.5737  0.1944 -1.0359
14974SOL     OW50757   5.938   7.726   1.748 -0.2815 -0.0856 -0.2050
14974SOL    HW150758   5.861   7.746   1.695  0.4073  1.1076 -0.7917
14974SOL    HW250759   5.937   7.792   1.817  0.3146  0.0491 -0.3245
14975SOL     OW50760   1.053   1.163   4.371 -0.4722  0.1165  0.6495
14975SOL    HW150761   1.090   1.097   4.429  2.4700  1.5326  0.5784
14975SOL    HW250762   1.076   1.133   4.283  1.3410  1.3521  0.6348
14976SOL     OW50763   6.676   7.762  10.646 -0.9879  0.2819 -0.4602
14976SOL    HW150764   6.706   7.688  10.699  0.5728 -0.0613 -1.7560
14976SOL    HW250765   6.628   7.722  10.573  0.1758  0.4803 -1.3681
14977SOL     OW50766   4.880   9.052   2.611 -0.7173  0.1885 -0.2252
14977SOL    HW150767   4.817   8.989   2.576  0.0165 -0.3704 -0.5842
14977SOL    HW250768   4.857   9.135   2.569  0.6738 -0.6308 -2.8297
14978SOL     OW50769   1.394   5.890   1.969 -0.3635  0.0811 -0.7768
14978SOL    HW150770   1.399   5.807   2.015 -1.2302  0.0136 -0.7845
14978SOL    HW250771   1.319   5.935   2.008 -0.5483  0.4166 -1.4884
14979SOL     OW50772   2.699   2.428   1.045  0.1308  0.0795 -0.2638
14979SOL    HW150773   2.720   2.485   0.972  0.7586  0.4081  0.1603
14979SOL    HW250774   2.639   2.363   1.009  0.2871  0.3491 -1.0198
14980SOL     OW50775   2.107   5.574   2.436  0.3904 -0.2092  0.3663
14980SOL    HW150776   2.091   5.649   2.378 -0.3836 -0.7867 -0.1870
14980SOL    HW250777   2.185   5.532   2.400 -0.4034 -0.8799 -0.6020
14981SOL     OW50778   0.176   7.231   4.169  0.0280 -0.4566  0.0587
14981SOL    HW150779   0.120   7.163   4.206  0.7020 -1.0653 -0.0067
14981SOL    HW250780   0.235   7.184   4.110 -0.4117  0.3790 -1.0659
14982SOL     OW50781   6.640   8.871   6.866  0.2621  0.1814 -0.0393
14982SOL    HW150782   6.609   8.941   6.809  1.7036 -0.2644 -1.4297
14982SOL    HW250783   6.734   8.887   6.875  0.5732 -1.3929 -0.1442
14983SOL     OW50784   1.603   3.819   3.653 -0.4626 -0.2884 -0.6265
14983SOL    HW150785   1.668   3.886   3.633 -1.1991 -0.1288 -2.7499
14983SOL    HW250786   1.547   3.858   3.720 -0.4480  0.9427 -1.3124
14984SOL     OW50787   9.758   9.719   5.993 -0.2064  0.0654 -0.0283
14984SOL    HW150788   9.838   9.728   6.045 -1.1208  1.4062  1.1989
14984SOL    HW250789   9.692   9.689   6.055 -0.6813 -1.0490 -1.0368
14985SOL     OW50790   2.011   9.532   2.461  0.3406 -0.3724 -0.0277
14985SOL    HW150791   2.060   9.600   2.508  0.3648 -0.7095  0.4372
14985SOL    HW250792   1.945   9.580   2.411  1.5634  0.1622 -1.2059
14986SOL     OW50793   2.391   3.194   4.052 -0.0395  0.0364  1.0933
14986SOL    HW150794   2.334   3.220   3.979 -0.7664 -2.1205  0.7933
14986SOL    HW250795   2.479   3.218   4.024 -0.4806  0.6466  0.1803
14987SOL     OW50796   6.853   8.250   4.511 -0.1574 -0.5129 -0.1430
14987SOL    HW150797   6.914   8.204   4.569  0.7749  1.8048  0.8224
14987SOL    HW250798   6.909   8.298   4.450 -0.9186  1.6416  0.7411
14988SOL     OW50799   1.912   6.029   7.377  0.0621  0.5464 -0.2142
14988SOL    HW150800   1.877   6.088   7.443  0.2300  0.3641  0.0360
14988SOL    HW250801   1.964   5.965   7.425  0.5198  0.6522 -0.5557
14989SOL     OW50802   5.581   4.886   3.647  0.0354  0.6268 -0.3681
14989SOL    HW150803   5.620   4.888   3.560 -0.5214 -0.1787 -0.6495
14989SOL    HW250804   5.506   4.946   3.641  0.2029  0.8422 -0.3340
14990SOL     OW50805   7.396   3.473   2.453  0.1002  0.7645 -0.1395
14990SOL    HW150806   7.421   3.394   2.405  1.8793  2.3131 -1.9594
14990SOL    HW250807   7.398   3.448   2.545 -0.3574 -1.5343 -0.6988
14991SOL     OW50808   4.915   6.093   2.992  0.4045 -0.3180 -0.2779
14991SOL    HW150809   4.931   6.186   3.008  1.9177 -0.6269  0.0993
14991SOL    HW250810   4.920   6.052   3.078  0.9952 -0.9180 -0.5825
14992SOL     OW50811   3.007   1.024   4.529 -0.3168 -0.0311 -0.5016
14992SOL    HW150812   3.096   1.057   4.543  0.4357 -1.5042 -1.5614
14992SOL    HW250813   2.981   1.061   4.444 -0.4486 -0.1593 -0.5168
14993SOL     OW50814   4.212   1.759   9.672  0.1088  0.9748  0.1718
14993SOL    HW150815   4.244   1.758   9.761 -1.9871 -1.8097  1.0437
14993SOL    HW250816   4.184   1.849   9.658  0.9726  1.5966  2.1126
14994SOL     OW50817   3.197   5.721   0.774  0.5142 -0.0268 -0.2775
14994SOL    HW150818   3.126   5.664   0.743  2.3058 -2.0089 -0.9063
14994SOL    HW250819   3.221   5.773   0.697 -0.1447  0.5808 -0.0886
14995SOL     OW50820   2.526  10.149  10.752 -0.3729  0.1531  0.3865
14995SOL    HW150821   2.459  10.088  10.722  0.6633  0.1335 -2.1416
14995SOL    HW250822   2.480  10.232  10.764 -1.1025 -0.2019  0.0956
14996SOL     OW50823   5.228   8.667   2.881 -0.6838  0.7029 -0.8274
14996SOL    HW150824   5.322   8.651   2.887 -0.9497 -0.5906  0.3917
14996SOL    HW250825   5.221   8.752   2.838  1.0504  0.9539 -0.6856
14997SOL     OW50826   5.006   6.241   1.578  0.5569  0.5308 -0.2055
14997SOL    HW150827   5.072   6.228   1.647  0.9423  2.1353 -0.2202
14997SOL    HW250828   4.971   6.329   1.596 -2.1926 -0.5693  0.2808
14998SOL     OW50829   0.961  10.481   6.912  0.4125 -0.1151  0.1425
14998SOL    HW150830   1.051  10.452   6.929  0.1944 -0.9830 -0.1260
14998SOL    HW250831   0.907  10.404   6.933 -0.1628  0.0159 -0.8119
14999SOL     OW50832   2.874   6.193   9.339  0.4328  0.4730  0.3528
14999SOL    HW150833   2.822   6.192   9.419  0.7917 -0.2455  0.5873
14999SOL    HW250834   2.809   6.196   9.269  0.0318 -0.8162  0.6347
15000SOL     OW50835   3.065   7.109  10.069  0.1523 -0.3565  0.2021
15000SOL    HW150836   3.109   7.026  10.049 -0.6751 -1.5038  2.7375
15000SOL    HW250837   2.973   7.086  10.078  0.1658  0.3083  3.0713
15001SOL     OW50838   4.506   2.761   2.291  0.6166  0.2572 -0.3737
15001SOL    HW150839   4.449   2.835   2.267  0.0992 -0.6036 -1.8748
15001SOL    HW250840   4.458   2.715   2.360 -0.0417  0.1215 -0.9189
15002SOL     OW50841   6.157   3.896   5.883  0.1192  0.4863 -0.3726
15002SOL    HW150842   6.190   3.843   5.955 -1.3655  0.4347  0.2969
15002SOL    HW250843   6.134   3.979   5.922  1.3311  1.2575 -1.2142
15003SOL     OW50844   9.285   7.810   2.527 -0.3074  0.0173 -0.0213
15003SOL    HW150845   9.290   7.807   2.431  0.7152  0.2339  0.0148
15003SOL    HW250846   9.192   7.795   2.546 -0.6116  0.4464 -1.0608
15004SOL     OW50847   9.053   4.075   9.984  0.0044 -0.0732  0.5452
15004SOL    HW150848   9.058   4.128  10.064 -0.8973  0.0762  0.5187
15004SOL    HW250849   8.964   4.038   9.985  0.0041 -0.1251 -0.3475
15005SOL     OW50850   1.632   1.881   9.011  0.1553 -0.3674 -0.5983
15005SOL    HW150851   1.602   1.790   8.999  0.1668 -0.3308 -0.9293
15005SOL    HW250852   1.552   1.933   9.005  0.0334 -0.4215  0.4624
15006SOL     OW50853   7.949   6.576   7.221 -0.6843  0.3049 -0.2240
15006SOL    HW150854   7.973   6.487   7.195  0.8376  0.4251  0.6487
15006SOL    HW250855   8.026   6.629   7.201 -0.7937  1.0407  1.1799
15007SOL     OW50856   9.565   6.948   3.745  0.0187 -0.7099  0.0811
15007SOL    HW150857   9.535   6.859   3.758 -1.3487 -0.1213  1.2757
15007SOL    HW250858   9.521   6.977   3.665 -1.1070 -0.4914  0.7597
15008SOL     OW50859   1.092   5.396   7.875 -0.2844  0.3191 -0.1516
15008SOL    HW150860   1.056   5.419   7.961 -0.1099  0.5281 -0.1354
15008SOL    HW250861   1.152   5.468   7.854 -0.3224  0.2646 -0.4452
15009SOL     OW50862   3.589   6.653   6.729 -0.2590  0.2870 -0.5757
15009SOL    HW150863   3.684   6.658   6.720  0.0631 -0.3745  1.7282
15009SOL    HW250864   3.560   6.604   6.653  1.5677 -1.7515 -0.0683
15010SOL     OW50865   6.761   4.198   3.478  0.3696  0.1549 -0.0847
15010SOL    HW150866   6.783   4.175   3.388  1.8250  1.7623 -0.1974
15010SOL    HW250867   6.673   4.235   3.472 -0.1024 -1.0173 -0.6088
15011SOL     OW50868   5.243   4.930   1.910  0.1902  0.0805  0.0709
15011SOL    HW150869   5.271   4.869   1.841  0.5687  0.4838 -0.1416
15011SOL    HW250870   5.150   4.911   1.922  0.1411 -0.0672 -0.4820
15012SOL     OW50871   9.612   2.441   6.696 -0.2072 -0.1202  0.3154
15012SOL    HW150872   9.563   2.475   6.772  0.0859 -0.2273  0.5539
15012SOL    HW250873   9.609   2.346   6.706 -0.1002 -0.1322  0.2371
15013SOL     OW50874   5.745   3.218   1.695 -0.2075  1.2741 -0.2766
15013SOL    HW150875   5.821   3.214   1.637 -0.0557 -0.5870 -0.0153
15013SOL    HW250876   5.763   3.154   1.763 -0.9667  2.5061  1.1347
15014SOL     OW50877   4.971   7.916   9.889 -0.0899 -0.2394 -0.4463
15014SOL    HW150878   4.970   7.835   9.939  1.2379 -1.2972 -2.0243
15014SOL    HW250879   4.948   7.984   9.952  2.2156 -1.3798  1.7801
15015SOL     OW50880   1.197   3.759   0.851  0.2454 -0.2613  0.2514
15015SOL    HW150881   1.137   3.690   0.825  1.1329 -1.1631  0.5302
15015SOL    HW250882   1.281   3.733   0.814  0.5460  0.7927  0.1672
15016SOL     OW50883   2.540   7.889  10.780 -0.2479  0.6522  0.5853
15016SOL    HW150884   2.536   7.813  10.839  1.2018 -0.5766 -0.8163
15016SOL    HW250885   2.632   7.916  10.782  0.1183 -0.1911 -1.9848
15017SOL     OW50886   5.823   5.635   3.081  0.1574  0.1969 -0.1903
15017SOL    HW150887   5.830   5.539   3.081  0.4725  0.2195 -0.5052
15017SOL    HW250888   5.767   5.655   3.007 -1.4711  0.1552  0.9767
15018SOL     OW50889  10.744   0.992   4.570 -0.2344  0.3549 -0.4739
15018SOL    HW150890  10.714   1.072   4.612 -0.7009  1.0540 -2.0557
15018SOL    HW250891  10.744   0.926   4.640 -3.3659  0.8168  0.1003
15019SOL     OW50892   9.407   3.678   2.260 -0.0059  0.1066 -0.0963
15019SOL    HW150893   9.479   3.665   2.199  0.9419 -0.8157  1.1641
15019SOL    HW250894   9.386   3.771   2.253  1.2564  0.3737 -0.5604
15020SOL     OW50895   6.532   2.520   0.548  0.3291  0.5686 -0.0820
15020SOL    HW150896   6.585   2.588   0.591  0.5726  0.5990 -0.4305
15020SOL    HW250897   6.472   2.491   0.617  1.0201  0.2975  0.4268
15021SOL     OW50898   8.648   4.263   5.843 -0.7405 -0.6477 -0.1040
15021SOL    HW150899   8.740   4.286   5.859 -0.2143 -1.9066 -1.1245
15021SOL    HW250900   8.630   4.193   5.906 -0.9726 -0.4643  0.0347
15022SOL     OW50901   2.144   7.012   0.024  0.3098  0.2784 -0.2648
15022SOL    HW150902   2.155   6.998   0.118 -0.5750 -0.0759 -0.1986
15022SOL    HW250903   2.086   6.941  -0.004 -1.1106  1.5453 -0.6900
15023SOL     OW50904   3.902   6.648  10.570  0.1578 -0.4512 -0.4795
15023SOL    HW150905   3.980   6.633  10.517  1.0488 -0.8004  0.9077
15023SOL    HW250906   3.917   6.599  10.650 -0.7623  0.8303  0.5119
15024SOL     OW50907  10.749   8.863   8.131  0.0238  0.0638  0.3500
15024SOL    HW150908  10.767   8.957   8.135  1.3333 -0.0373 -1.8613
15024SOL    HW250909  10.662   8.857   8.092  1.2883  0.3980 -2.7768
15025SOL     OW50910   4.663   5.300   9.922 -0.2025  0.1980  0.4416
15025SOL    HW150911   4.620   5.383   9.942 -2.7662 -0.5961 -1.2572
15025SOL    HW250912   4.736   5.323   9.865 -0.9209  1.2946 -0.0579
15026SOL     OW50913   1.132   8.600   7.686 -0.1782 -0.2817  0.0341
15026SOL    HW150914   1.054   8.571   7.639 -1.1100 -2.0159  2.4299
15026SOL    HW250915   1.206   8.570   7.632 -1.0219  2.1045 -2.7002
15027SOL     OW50916   8.620   5.406   7.541  0.3079 -0.0250 -0.0190
15027SOL    HW150917   8.580   5.481   7.583 -2.3322 -0.5530 -1.3785
15027SOL    HW250918   8.564   5.332   7.565 -0.0131 -0.6994 -2.5344
15028SOL     OW50919   9.309   5.767   5.344 -0.3937  0.1009  0.2629
15028SOL    HW150920   9.287   5.704   5.275 -1.9559  0.1871  0.6387
15028SOL    HW250921   9.316   5.851   5.299  1.0613 -0.2064 -0.1393
15029SOL     OW50922   8.043   2.734   2.879 -0.4198  0.0574  1.2898
15029SOL    HW150923   8.078   2.689   2.955  0.9603  0.6438  1.0256
15029SOL    HW250924   8.057   2.827   2.897 -0.3872  0.2225  0.4772
15030SOL     OW50925   6.828   4.610   8.780  0.9434  0.1539  0.0002
15030SOL    HW150926   6.912   4.565   8.766  0.5580 -1.0847  1.4797
15030SOL    HW250927   6.851   4.687   8.831  1.3674  0.6856 -0.9652
15031SOL     OW50928   1.373   5.237  10.903  0.5475  0.0047  0.2268
15031SOL    HW150929   1.449   5.204  10.952  0.2465 -0.7901  0.1795
15031SOL    HW250930   1.390   5.211  10.813  1.5457  2.2709 -0.3123
15032SOL     OW50931   5.040   7.672   0.362  0.2830 -0.6724 -0.4020
15032SOL    HW150932   5.130   7.647   0.382  0.2982 -0.4265 -0.1465
15032SOL    HW250933   5.042   7.767   0.357 -0.2281 -0.5571  1.0404
15033SOL     OW50934   4.662   4.537   1.393  0.1038 -0.1753  0.3494
15033SOL    HW150935   4.665   4.493   1.478 -0.4132 -0.1827  0.3707
15033SOL    HW250936   4.659   4.466   1.329 -0.8637 -0.1823  0.3898
15034SOL     OW50937   7.213   9.448   5.845  0.0493  0.2296 -0.0432
15034SOL    HW150938   7.148   9.378   5.832  0.7898 -0.3243 -0.8639
15034SOL    HW250939   7.160   9.525   5.863 -0.7846 -0.5672  1.1163
15035SOL     OW50940   5.820  10.591   1.493 -0.4163 -0.2891 -0.8145
15035SOL    HW150941   5.773  10.674   1.482 -0.4018  0.1336  1.6364
15035SOL    HW250942   5.904  10.606   1.451 -0.5202  0.8730 -0.6652
15036SOL     OW50943   4.103   0.182   3.524 -0.0799 -0.4321  0.1598
15036SOL    HW150944   4.067   0.231   3.598 -1.1707 -0.4951 -0.3168
15036SOL    HW250945   4.180   0.232   3.498  0.1881 -0.2862  1.1908
15037SOL     OW50946   2.266   6.552   9.759 -0.2697  0.2249  0.7746
15037SOL    HW150947   2.199   6.507   9.810  0.7340 -3.9613 -1.1247
15037SOL    HW250948   2.337   6.489   9.752  0.5257  1.2417 -3.8516
15038SOL     OW50949   7.256   9.795   4.577 -0.0715 -0.0220 -0.5370
15038SOL    HW150950   7.237   9.763   4.488  0.1902 -2.0928  0.1136
15038SOL    HW250951   7.296   9.720   4.621  1.3569  1.4867  0.8444
15039SOL     OW50952   8.528   2.902   8.164  0.0182 -0.2937 -0.4684
15039SOL    HW150953   8.526   2.922   8.258 -0.3960 -1.2550 -0.2710
15039SOL    HW250954   8.497   2.812   8.157  2.6579 -1.2476 -1.2570
15040SOL     OW50955   8.760   0.854   7.762  0.3083 -0.0805 -0.4453
15040SOL    HW150956   8.790   0.855   7.671  0.7452  0.0023 -0.3033
15040SOL    HW250957   8.751   0.947   7.785  1.5655 -0.0682  0.0356
15041SOL     OW50958   5.153   0.465   3.491  0.3034 -0.1936  0.4522
15041SOL    HW150959   5.229   0.417   3.524 -0.2260 -1.5279 -0.1810
15041SOL    HW250960   5.112   0.501   3.569  1.4901  0.4147  0.8158
15042SOL     OW50961   8.953   1.780   4.823  0.0693  0.3812 -0.5628
15042SOL    HW150962   8.877   1.726   4.844  0.7842 -1.1659 -1.7567
15042SOL    HW250963   9.020   1.752   4.885 -0.0753  1.1831 -0.0299
15043SOL     OW50964   4.284   2.557   4.406  0.4309 -0.5301 -0.0575
15043SOL    HW150965   4.247   2.637   4.445  0.5157 -0.0472 -0.9358
15043SOL    HW250966   4.208   2.500   4.392  0.3215 -0.4595  0.2340
15044SOL     OW50967   5.530   4.132   2.939  0.1455  0.0265 -0.7254
15044SOL    HW150968   5.456   4.133   3.000 -0.1171  0.9153 -1.0445
15044SOL    HW250969   5.574   4.216   2.953  0.5702 -0.1138 -1.1788
15045SOL     OW50970   3.502   9.184  10.633 -0.1050  0.2507 -0.2220
15045SOL    HW150971   3.509   9.118  10.563 -1.2961 -1.3113  1.0514
15045SOL    HW250972   3.573   9.246  10.614  0.5994 -0.9722 -1.9147
15046SOL     OW50973   1.471   5.334  10.302 -0.3581  0.9821 -0.0241
15046SOL    HW150974   1.554   5.382  10.293 -0.0614  0.2804 -1.2398
15046SOL    HW250975   1.429   5.374  10.378  0.9380  1.5876  0.4166
15047SOL     OW50976   1.130   4.422   9.015  0.4382 -0.2693  0.3581
15047SOL    HW150977   1.167   4.508   9.034 -0.4181  0.4326 -0.9641
15047SOL    HW250978   1.039   4.439   8.990 -0.2790 -1.7536  1.7496
15048SOL     OW50979   7.319   6.697   5.232 -0.7385 -0.2827  0.5458
15048SOL    HW150980   7.229   6.669   5.249 -0.1365 -1.2298  2.3825
15048SOL    HW250981   7.368   6.616   5.221 -0.0848  0.2285 -0.5306
15049SOL     OW50982  10.815   1.966   8.237  0.2687 -0.1768  0.0175
15049SOL    HW150983  10.861   1.882   8.237 -0.2684 -0.4781 -0.3127
15049SOL    HW250984  10.773   1.970   8.151  0.7821  0.7105 -0.2079
15050SOL     OW50985   6.466   7.248   2.581 -0.4244  0.0658  0.1516
15050SOL    HW150986   6.402   7.316   2.602 -0.0293  1.2390 -2.0876
15050SOL    HW250987   6.413   7.176   2.546 -0.6999 -0.0263  0.7418
15051SOL     OW50988   6.954   5.075   2.453 -0.0683 -0.2238  0.4932
15051SOL    HW150989   6.921   4.986   2.447 -0.7508 -0.0050  0.8759
15051SOL    HW250990   7.031   5.069   2.509 -0.1636 -0.5550  0.5893
15052SOL     OW50991   7.907   1.718   0.609 -0.0393  0.1130  0.1866
15052SOL    HW150992   7.947   1.660   0.674 -1.0178 -1.6111 -0.6537
15052SOL    HW250993   7.968   1.718   0.535 -0.8899 -1.4812 -0.5805
15053SOL     OW50994   5.227   8.207   8.982  0.4419 -0.2745  0.3332
15053SOL    HW150995   5.160   8.146   8.951  0.4088 -2.2660  3.7987
15053SOL    HW250996   5.177   8.283   9.013  0.2905  0.5119 -1.6779
15054SOL     OW50997   7.785   7.212   7.723  0.1770  0.1686  0.4037
15054SOL    HW150998   7.857   7.262   7.762  0.0224 -0.0187  0.9458
15054SOL    HW250999   7.827   7.154   7.660  0.5646 -0.2989  1.0776
15055SOL     OW51000   2.620   2.643  10.214  0.2951  0.9615 -0.1242
15055SOL    HW151001   2.575   2.687  10.286 -1.1780 -2.6171  1.3643
15055SOL    HW251002   2.564   2.657  10.138 -2.1884 -1.2656  1.1440
15056SOL     OW51003   1.076   6.372  10.831 -0.4590  0.3763  0.1005
15056SOL    HW151004   0.992   6.326  10.827  0.3163 -1.0778 -0.0763
15056SOL    HW251005   1.109   6.371  10.741 -0.7778  2.0023 -0.0596
15057SOL     OW51006   0.418   9.811   6.232 -0.0908  0.0088  0.3370
15057SOL    HW151007   0.324   9.832   6.230 -0.0250  0.2908  0.0307
15057SOL    HW251008   0.422   9.722   6.266 -0.4602  0.0593  0.5200
15058SOL     OW51009   5.482   3.386   1.069  0.1361 -0.2903  0.1269
15058SOL    HW151010   5.514   3.319   1.131  1.5060 -0.1827 -0.4206
15058SOL    HW251011   5.562   3.427   1.037 -0.6759  1.3360  0.1347
15059SOL     OW51012   6.265   1.773   6.621  0.2961  0.0573 -0.3986
15059SOL    HW151013   6.286   1.700   6.563 -0.8185 -0.6701  0.0869
15059SOL    HW251014   6.232   1.842   6.563  1.2373  0.1563 -0.8437
15060SOL     OW51015  10.427   0.258  10.025  0.6540  0.2758 -0.4511
15060SOL    HW151016  10.341   0.301  10.019  0.1740 -0.4718  0.6997
15060SOL    HW251017  10.480   0.317  10.078  0.2025 -0.2026  0.5598
15061SOL     OW51018   7.136   9.564  10.897 -0.0612  0.1513  0.4799
15061SOL    HW151019   7.144   9.484  10.948  1.1763  0.5926  1.0260
15061SOL    HW251020   7.226   9.588  10.876 -0.3626  1.7067  0.8268
15062SOL     OW51021   4.248   9.379   0.584 -0.1189 -0.0026  0.5021
15062SOL    HW151022   4.249   9.407   0.493 -1.5274 -0.7337  0.2389
15062SOL    HW251023   4.221   9.456   0.633 -0.0868  0.1803  0.2300
15063SOL     OW51024   5.664   4.999   4.846 -0.2328 -0.2415 -0.1325
15063SOL    HW151025   5.675   5.093   4.834  0.7198  0.0861  2.5602
15063SOL    HW251026   5.572   4.983   4.825 -0.4529  1.2961 -0.5004
15064SOL     OW51027   6.286   6.814   4.615 -0.1790  0.3505  0.6697
15064SOL    HW151028   6.194   6.787   4.613  0.5039 -2.2823  1.2156
15064SOL    HW251029   6.326   6.758   4.681  2.0281  0.7286 -0.2582
15065SOL     OW51030   7.661   4.127   4.849  0.3070 -0.2230  0.0605
15065SOL    HW151031   7.702   4.117   4.764  1.3715 -1.9056  0.7048
15065SOL    HW251032   7.734   4.142   4.910 -0.4281  0.9756  0.6853
15066SOL     OW51033   5.943   1.584   8.490 -0.1704  0.7008  0.8031
15066SOL    HW151034   5.946   1.489   8.503  0.0866  0.7238  0.9236
15066SOL    HW251035   5.973   1.620   8.573  0.4512  0.8686  0.5127
15067SOL     OW51036   5.827   2.368   9.065  0.4171 -0.0761  0.0075
15067SOL    HW151037   5.781   2.357   8.981  0.2150  0.6069  0.0214
15067SOL    HW251038   5.888   2.440   9.049 -0.7813  1.1872  0.9089
15068SOL     OW51039   2.432   8.798   1.834 -0.5383  0.0497 -0.3252
15068SOL    HW151040   2.338   8.807   1.850 -0.4247  0.4114  0.1581
15068SOL    HW251041   2.467   8.765   1.917 -0.1909  0.2489 -0.3909
15069SOL     OW51042   1.698   3.412   3.796  0.6199  0.2897  0.9567
15069SOL    HW151043   1.658   3.453   3.873 -0.4149 -1.3261  1.3359
15069SOL    HW251044   1.697   3.481   3.730 -3.6414  0.2672  0.6708
15070SOL     OW51045   5.016   3.183   6.254 -0.4736 -0.3308  0.3162
15070SOL    HW151046   5.053   3.117   6.195  2.1374 -0.3755  1.8472
15070SOL    HW251047   4.958   3.133   6.312 -2.7096 -0.3542 -1.7748
15071SOL     OW51048   9.078   3.840   0.411  0.2445 -0.3756 -0.5508
15071SOL    HW151049   9.015   3.880   0.352 -1.0442  0.1189  1.0723
15071SOL    HW251050   9.127   3.914   0.447  0.5563 -0.6076 -0.4944
15072SOL     OW51051   2.751   1.863  10.418 -0.6660  0.2018  0.8034
15072SOL    HW151052   2.755   1.779  10.464 -1.6290  0.5508  1.5430
15072SOL    HW251053   2.812   1.919  10.466  0.1694 -0.1315  0.1553
15073SOL     OW51054   8.838  10.685   9.883  0.4161 -0.0243  0.4330
15073SOL    HW151055   8.776  10.676   9.810  1.0851 -1.6814  0.0162
15073SOL    HW251056   8.907  10.621   9.863  0.8531 -0.1738  2.2969
15074SOL     OW51057   4.375   8.677   4.227 -0.3871 -0.0022  0.1894
15074SOL    HW151058   4.398   8.770   4.223  0.7876 -0.3026 -0.1570
15074SOL    HW251059   4.287   8.677   4.266 -0.7368  1.2947 -0.5278
15075SOL     OW51060   3.411   1.383   6.643  0.2054 -0.2273 -0.3644
15075SOL    HW151061   3.479   1.442   6.677  1.5463 -2.1976  0.5446
15075SOL    HW251062   3.339   1.442   6.619  0.4348  1.6389  2.8649
15076SOL     OW51063   9.757   6.703   5.592 -0.0418  0.4550  0.2680
15076SOL    HW151064   9.676   6.735   5.551 -0.0119  0.8530  0.5215
15076SOL    HW251065   9.819   6.695   5.519 -0.1424  0.6782  0.1590
15077SOL     OW51066   2.113   6.112   1.450  0.4625 -0.5558 -0.2165
15077SOL    HW151067   2.177   6.175   1.483 -0.2216  0.4558 -0.7573
15077SOL    HW251068   2.031   6.161   1.446  0.1252 -1.1696 -1.6235
15078SOL     OW51069   5.690   4.522   2.378  0.3920  0.2401 -0.6767
15078SOL    HW151070   5.716   4.447   2.324  1.9154  2.6572 -3.6293
15078SOL    HW251071   5.628   4.570   2.323 -0.8206  1.0027  1.2742
15079SOL     OW51072   8.972  10.834   4.437 -0.2150 -0.6063 -0.4129
15079SOL    HW151073   8.983  10.915   4.388 -1.0526 -0.1257  0.1608
15079SOL    HW251074   9.054  10.787   4.425 -0.6211 -0.8382 -2.8366
15080SOL     OW51075   9.709   9.376   1.536 -0.1566  0.2466  0.6101
15080SOL    HW151076   9.669   9.461   1.552 -1.4596 -0.4922  1.5159
15080SOL    HW251077   9.797   9.396   1.504 -0.4896  1.9146  0.6504
15081SOL     OW51078   1.770   5.885  10.160 -0.2144 -0.7761  0.1148
15081SOL    HW151079   1.731   5.860  10.244 -1.1393  0.4916  0.0865
15081SOL    HW251080   1.836   5.950  10.182 -0.0716 -0.8478 -0.0942
15082SOL     OW51081   1.347  10.846   2.871  0.4426 -0.2279 -0.4782
15082SOL    HW151082   1.413  10.788   2.910 -1.5314 -1.6357  0.9490
15082SOL    HW251083   1.273  10.788   2.854 -0.6815  1.4380 -1.4124
15083SOL     OW51084   6.425   6.640  10.614 -0.2556 -0.6385 -0.3286
15083SOL    HW151085   6.457   6.716  10.662  0.0489 -1.8963  1.5317
15083SOL    HW251086   6.336   6.626  10.646 -0.3656 -0.9986 -0.7695
15084SOL     OW51087   1.127   2.404   8.792  0.3353 -0.3885 -0.2182
15084SOL    HW151088   1.069   2.459   8.739 -0.9054 -1.6084 -0.1962
15084SOL    HW251089   1.102   2.314   8.767  1.4133 -0.9470  0.6714
15085SOL     OW51090   9.724   2.147   8.936 -0.1059  0.3711 -0.0031
15085SOL    HW151091   9.750   2.056   8.953  1.3711  0.8945  0.6470
15085SOL    HW251092   9.754   2.165   8.847 -1.7620 -0.2136 -0.7348
15086SOL     OW51093   9.404  10.770   3.987  0.0351 -0.3534 -0.5317
15086SOL    HW151094   9.345  10.844   3.985  0.1436 -0.2592 -2.2871
15086SOL    HW251095   9.403  10.740   4.078 -0.4382  1.4286  0.0874
15087SOL     OW51096   5.795   2.257   6.330  0.9016  0.2841 -0.2330
15087SOL    HW151097   5.714   2.286   6.289 -0.0566  0.3437  1.5989
15087SOL    HW251098   5.774   2.251   6.423  2.2620 -2.2237 -0.0045
15088SOL     OW51099   7.663   9.433   5.151 -0.7405 -0.6464 -0.2380
15088SOL    HW151100   7.636   9.359   5.205 -1.7459  1.1560  1.8809
15088SOL    HW251101   7.592   9.496   5.158  0.7103  1.1509 -0.7548
15089SOL     OW51102   0.348   1.832   3.301 -0.5543  0.3718 -0.5948
15089SOL    HW151103   0.304   1.855   3.220  0.7482  0.2191 -1.3811
15089SOL    HW251104   0.380   1.743   3.287  0.8009  0.8029 -0.4408
15090SOL     OW51105  10.460   4.974   7.098  0.4717  0.6391  0.4953
15090SOL    HW151106  10.379   4.969   7.047  0.4879  1.7395  0.3399
15090SOL    HW251107  10.497   4.886   7.092 -0.6098  0.1744  0.4022
15091SOL     OW51108   5.829   7.018   4.511 -0.3280  0.4884 -0.8039
15091SOL    HW151109   5.744   7.060   4.520 -0.8056 -0.8234  1.3490
15091SOL    HW251110   5.838   6.963   4.589  1.5907 -1.0199 -1.9870
15092SOL     OW51111   9.503   3.050   1.805  0.3760 -0.2490 -0.5526
15092SOL    HW151112   9.543   2.974   1.846 -0.4234  0.3715  1.5019
15092SOL    HW251113   9.435   3.014   1.748  0.7620 -1.0995 -0.4894
15093SOL     OW51114   9.071   2.867   4.314 -0.2362  0.2732  0.0468
15093SOL    HW151115   9.024   2.848   4.395 -0.3647 -3.0235 -0.6812
15093SOL    HW251116   9.006   2.856   4.245  0.9446 -2.0362 -0.8009
15094SOL     OW51117   2.314   1.516   9.908 -0.1230 -0.0826  0.6717
15094SOL    HW151118   2.407   1.498   9.891 -0.2995 -1.1461  0.7162
15094SOL    HW251119   2.306   1.611   9.902  0.6942 -0.0718 -0.7337
15095SOL     OW51120   4.225  10.010   6.167 -0.1978  0.3370 -0.2286
15095SOL    HW151121   4.237   9.985   6.258 -1.4647  0.6125  0.0337
15095SOL    HW251122   4.237   9.929   6.117  0.4595  0.1802  0.1674
15096SOL     OW51123  10.912   2.072   8.883  0.4064  0.1734  0.4765
15096SOL    HW151124  10.867   2.143   8.838 -1.4495 -1.1183  0.1920
15096SOL    HW251125  11.001   2.075   8.849  0.2475  2.0297  0.1056
15097SOL     OW51126   5.620  10.279   3.826 -0.3457 -0.0398  0.0007
15097SOL    HW151127   5.703  10.307   3.863  0.0630 -0.3733 -0.6522
15097SOL    HW251128   5.593  10.206   3.881 -0.5276  0.4672  0.5999
15098SOL     OW51129   8.075   8.169   4.402 -0.0874  0.0191  0.3592
15098SOL    HW151130   8.142   8.125   4.349 -0.8152  0.3793 -0.9087
15098SOL    HW251131   7.992   8.136   4.367 -0.5935  0.1741  1.3886
15099SOL     OW51132   4.679   6.474   4.736 -0.0371 -0.3677 -0.0557
15099SOL    HW151133   4.590   6.483   4.701 -0.3478 -2.1410  0.1504
15099SOL    HW251134   4.723   6.414   4.675  1.3485  1.2171 -0.6707
15100SOL     OW51135   2.236   2.008   8.975 -0.0793  0.5220  0.1505
15100SOL    HW151136   2.191   2.086   8.943  1.2477  0.7882 -1.1426
15100SOL    HW251137   2.326   2.017   8.945  1.2307  0.5426  3.5823
15101SOL     OW51138   5.028   7.177   1.713  0.3239  0.0571 -0.2602
15101SOL    HW151139   5.093   7.108   1.729  1.3160  1.0559  0.1460
15101SOL    HW251140   5.056   7.218   1.631  0.0542  0.3190 -0.2250
15102SOL     OW51141   6.821   8.007   7.505 -0.0935 -0.0003 -0.3398
15102SOL    HW151142   6.863   7.928   7.471 -0.5246 -0.4594  0.1576
15102SOL    HW251143   6.867   8.026   7.587  1.1868  1.3154 -1.3231
15103SOL     OW51144   8.666   1.563   8.696 -0.2812  0.1891  0.4897
15103SOL    HW151145   8.710   1.544   8.779 -0.4083 -0.0562  0.5004
15103SOL    HW251146   8.736   1.589   8.637 -0.0710 -0.6332  0.3807
15104SOL     OW51147   0.339   5.270   1.549  0.6928  0.2175  0.3239
15104SOL    HW151148   0.244   5.281   1.556  0.4054 -0.3935 -1.8012
15104SOL    HW251149   0.360   5.199   1.610 -0.1217  0.6959  1.1817
15105SOL     OW51150   2.420  10.106   1.884 -0.6459  0.1395 -0.2649
15105SOL    HW151151   2.489  10.157   1.928  0.3521 -0.2645 -1.3266
15105SOL    HW251152   2.409  10.028   1.939 -0.9027  0.6198  0.3864
15106SOL     OW51153   4.678   8.554   3.854  0.7237  0.3622  0.3971
15106SOL    HW151154   4.708   8.466   3.831  1.3027  0.2230  1.6192
15106SOL    HW251155   4.583   8.549   3.853  0.7010  0.3069 -1.6688
15107SOL     OW51156   5.275   2.466  10.108 -0.0476 -0.1492  0.2614
15107SOL    HW151157   5.279   2.400  10.039 -1.1982 -1.0375  1.0047
15107SOL    HW251158   5.275   2.416  10.189 -3.0695  0.5770  0.8269
15108SOL     OW51159   2.339   0.442   3.920 -0.2051  0.4109  0.2060
15108SOL    HW151160   2.269   0.377   3.922 -0.5504  0.7650 -0.0607
15108SOL    HW251161   2.404   0.410   3.982  0.0137 -0.6018 -0.5346
15109SOL     OW51162   3.304   9.493   2.948 -0.2451 -0.2542  0.0668
15109SOL    HW151163   3.223   9.502   2.999 -0.0501 -1.0128  0.5354
15109SOL    HW251164   3.284   9.534   2.864 -0.9515  0.0131  0.3547
15110SOL     OW51165   6.190   9.485   4.908  0.7371  0.1116 -0.1234
15110SOL    HW151166   6.202   9.430   4.831  0.7520 -2.1501  1.3994
15110SOL    HW251167   6.124   9.549   4.881  1.1863 -0.2082 -2.1791
15111SOL     OW51168  10.370   5.148   0.441 -0.5182 -0.2742 -0.2484
15111SOL    HW151169  10.416   5.198   0.508 -0.8389  0.9584 -0.9216
15111SOL    HW251170  10.357   5.210   0.369 -3.8310 -0.3535  0.1451
15112SOL     OW51171   7.096   3.598   7.655 -0.4046  0.3655  0.1084
15112SOL    HW151172   7.180   3.554   7.664 -1.4362 -1.6941  0.3014
15112SOL    HW251173   7.053   3.553   7.582 -0.8908  2.1667 -0.7651
15113SOL     OW51174   7.095   0.562   3.061 -0.0258  0.2383  0.6700
15113SOL    HW151175   7.113   0.468   3.052  1.7449  0.6352 -0.3238
15113SOL    HW251176   7.062   0.588   2.975  0.0541  0.6403  0.7595
15114SOL     OW51177   3.864   8.436   5.806  0.2353  0.1441 -0.3300
15114SOL    HW151178   3.789   8.485   5.772  0.9394  2.0862  0.7570
15114SOL    HW251179   3.835   8.404   5.891  0.5110  0.5867 -0.0679
15115SOL     OW51180   3.338   4.745  10.618  0.2950 -0.0445  0.1405
15115SOL    HW151181   3.271   4.679  10.639  0.6151 -0.4749 -0.1844
15115SOL    HW251182   3.322   4.768  10.527 -0.4366  1.0668  0.5225
15116SOL     OW51183   2.002   6.282   0.727 -0.0785  0.0504  0.6615
15116SOL    HW151184   1.947   6.353   0.761  0.2381  0.9594 -0.6334
15116SOL    HW251185   1.941   6.223   0.683 -0.2796 -0.1525  1.2190
15117SOL     OW51186   1.040   6.353   4.681 -0.0628  0.6025  0.0214
15117SOL    HW151187   0.998   6.321   4.760  1.2802  0.7458  0.8224
15117SOL    HW251188   1.098   6.282   4.654 -0.7171  0.4363 -1.0223
15118SOL     OW51189   3.983   7.470   3.221 -0.3624  0.5667  0.4983
15118SOL    HW151190   3.983   7.451   3.127  1.6392  0.6768  0.4208
15118SOL    HW251191   4.026   7.394   3.261 -1.9597  0.1223  1.4604
15119SOL     OW51192   5.109   5.941   7.853  0.0615 -0.1082 -0.3514
15119SOL    HW151193   5.146   6.000   7.919  0.7426 -2.9928  2.1012
15119SOL    HW251194   5.024   5.916   7.889 -1.1921  0.9104 -2.4077
15120SOL     OW51195   2.231   0.338   3.597 -0.7118 -0.1432 -0.1879
15120SOL    HW151196   2.180   0.391   3.536 -1.3982  1.4281  1.6198
15120SOL    HW251197   2.311   0.387   3.611 -0.3273 -0.7502 -0.2207
15121SOL     OW51198   1.321   7.386   5.400 -0.2698  0.2190 -0.0619
15121SOL    HW151199   1.271   7.416   5.324  0.2612  1.6737  0.1253
15121SOL    HW251200   1.346   7.296   5.379 -0.1387  0.5939 -1.6092
15122SOL     OW51201   9.498   2.224   3.221  0.3592 -0.2707 -0.2410
15122SOL    HW151202   9.402   2.229   3.223  0.3617  1.0979 -1.3580
15122SOL    HW251203   9.517   2.150   3.163  0.0305 -1.6934  1.3902
15123SOL     OW51204   2.361   0.276   4.978 -0.2889 -0.0099 -0.3767
15123SOL    HW151205   2.384   0.339   5.045 -1.2595 -0.9294  0.8712
15123SOL    HW251206   2.444   0.242   4.946  0.1776  0.0198  0.7871
15124SOL     OW51207   5.158   1.431   7.111  0.2539  0.1490  0.3683
15124SOL    HW151208   5.133   1.350   7.067  0.0320 -0.1399  1.0138
15124SOL    HW251209   5.101   1.435   7.188  0.3654  0.8433  0.4249
15125SOL     OW51210   4.559   6.537  10.659  0.0161  0.7957  0.7959
15125SOL    HW151211   4.569   6.443  10.643  0.3533  0.8477  0.6757
15125SOL    HW251212   4.489   6.544  10.724 -0.6922  0.5169  0.0754
15126SOL     OW51213  10.190   6.815   9.244  0.4195  0.2038  0.1523
15126SOL    HW151214  10.136   6.795   9.321  1.6085 -0.7941  0.7770
15126SOL    HW251215  10.178   6.908   9.229 -1.7426 -0.0432  0.0343
15127SOL     OW51216   6.147   1.546   7.044  0.6557  0.0849 -0.5244
15127SOL    HW151217   6.082   1.510   7.105 -0.0273  1.3184 -0.4830
15127SOL    HW251218   6.186   1.469   7.003 -0.5968 -0.7127 -0.3045
15128SOL     OW51219   9.608   3.389   9.663  0.0541 -0.0250 -0.3243
15128SOL    HW151220   9.578   3.299   9.675 -0.6800  0.1009 -1.1081
15128SOL    HW251221   9.531   3.443   9.683  0.5712  0.4488  0.4452
15129SOL     OW51222   0.814   9.046   5.247  0.1952 -0.8250  0.5341
15129SOL    HW151223   0.772   9.088   5.322  1.0558 -1.1983  1.2435
15129SOL    HW251224   0.794   8.953   5.258 -2.0683 -0.6475 -1.2565
15130SOL     OW51225   0.031  10.738   7.152 -0.1910 -0.5789  0.6112
15130SOL    HW151226   0.005  10.724   7.061  1.1812 -1.1399  0.2799
15130SOL    HW251227  -0.052  10.754   7.199 -1.0952 -1.9326 -0.4320
15131SOL     OW51228   1.240   5.703   9.645  0.5404  0.0010 -0.0298
15131SOL    HW151229   1.292   5.624   9.626 -1.1580 -1.3204  0.5361
15131SOL    HW251230   1.285   5.773   9.599  1.2267 -1.5879 -1.9080
15132SOL     OW51231  10.074   7.502   1.814  0.0649  0.2441 -0.5402
15132SOL    HW151232  10.123   7.482   1.734  0.1346  1.8256 -0.9258
15132SOL    HW251233   9.990   7.536   1.782  0.2573  1.2957  0.0414
15133SOL     OW51234   1.110   5.920   6.519 -0.4543 -0.0676  0.2803
15133SOL    HW151235   1.152   5.964   6.593 -0.2654 -0.1635  0.2322
15133SOL    HW251236   1.046   5.861   6.559 -0.4061 -0.0644  0.3627
15134SOL     OW51237  10.828   8.319   5.972 -0.0154 -0.0488 -0.5098
15134SOL    HW151238  10.879   8.287   5.898  0.0471 -1.0481 -0.0431
15134SOL    HW251239  10.738   8.298   5.949 -0.0420  0.0649 -0.5095
15135SOL     OW51240   5.858   4.242   1.669  0.4128  0.7240  0.1862
15135SOL    HW151241   5.873   4.169   1.730  0.9356 -0.1819 -0.9756
15135SOL    HW251242   5.946   4.264   1.638  0.2075  1.5942  0.2218
15136SOL     OW51243   3.523   0.550   8.984 -0.3405 -0.5351 -0.6095
15136SOL    HW151244   3.447   0.566   8.929 -0.9176 -2.8857 -0.6028
15136SOL    HW251245   3.585   0.619   8.962 -3.3375  3.0603  1.1738
15137SOL     OW51246   4.277   3.601   2.451  0.3334  0.0615 -0.2202
15137SOL    HW151247   4.197   3.648   2.476  0.7812  1.1645 -0.7578
15137SOL    HW251248   4.274   3.520   2.502 -0.5913  0.5638  0.5790
15138SOL     OW51249   0.973   0.585  10.469  0.6550  0.3191 -0.2544
15138SOL    HW151250   0.917   0.637  10.527  0.6829  0.5192 -0.4070
15138SOL    HW251251   0.941   0.604  10.381  0.8712  0.3239 -0.3335
15139SOL     OW51252   2.561   0.199   4.741  0.0174  0.2041  0.1068
15139SOL    HW151253   2.653   0.223   4.727  0.0695  0.4654  0.8462
15139SOL    HW251254   2.519   0.216   4.656  0.3241  1.6486  0.2169
15140SOL     OW51255   8.175   3.802   9.229  0.7678  0.0481  0.4312
15140SOL    HW151256   8.235   3.875   9.216  0.7495  0.0363  0.2765
15140SOL    HW251257   8.171   3.758   9.143  1.4376 -0.6424  0.7372
15141SOL     OW51258   3.875   5.146   1.879  0.2655  0.1336 -0.1390
15141SOL    HW151259   3.825   5.138   1.798  0.7485 -2.2391 -0.3000
15141SOL    HW251260   3.810   5.166   1.946 -0.4716 -0.0178 -0.7970
15142SOL     OW51261   4.012   0.444   2.426  0.4246 -0.2621 -0.0948
15142SOL    HW151262   3.994   0.351   2.436 -0.1013 -0.0465  1.2433
15142SOL    HW251263   4.103   0.449   2.397  0.3399 -1.1994 -0.5280
15143SOL     OW51264   6.573   5.836   4.660  0.2039 -0.0816 -0.2174
15143SOL    HW151265   6.516   5.785   4.718  1.5456 -1.6715 -0.2243
15143SOL    HW251266   6.648   5.779   4.644  0.6045  0.9356 -2.2806
15144SOL     OW51267   7.374   7.319  10.925  0.6252  0.1314 -0.7136
15144SOL    HW151268   7.421   7.343  11.005  1.0279 -1.9694 -0.2517
15144SOL    HW251269   7.444   7.295  10.864  0.2638  0.3256 -1.2022
15145SOL     OW51270   4.807  10.339   3.174  0.4671 -0.2423 -0.2384
15145SOL    HW151271   4.812  10.275   3.103 -0.6719  0.5169 -1.0352
15145SOL    HW251272   4.777  10.420   3.132  0.0486  0.3010  1.0515
15146SOL     OW51273   0.874   5.938   3.804  0.2844  0.2725 -0.0201
15146SOL    HW151274   0.779   5.934   3.815 -0.3678  3.7293 -2.5972
15146SOL    HW251275   0.909   5.918   3.890 -2.8819  0.7486  1.5189
15147SOL     OW51276   5.441   4.320   4.946  0.0290  0.0845 -0.0666
15147SOL    HW151277   5.361   4.288   4.903 -0.1429 -0.5044  0.6736
15147SOL    HW251278   5.504   4.328   4.875 -0.8883  1.2744 -0.7981
15148SOL     OW51279   6.664   1.977   9.052  0.1728  0.0905  0.1820
15148SOL    HW151280   6.622   2.063   9.057  0.8358  0.4309 -0.0153
15148SOL    HW251281   6.716   1.972   9.132  1.4052  0.5597 -0.5582
15149SOL     OW51282   4.811   4.650   0.879 -0.2105  0.3113  0.2017
15149SOL    HW151283   4.882   4.705   0.847 -1.0340  0.9849 -0.5331
15149SOL    HW251284   4.822   4.567   0.834  1.2680 -0.2957  1.5961
15150SOL     OW51285  10.904   5.106   4.502  0.0038 -0.3691  0.2297
15150SOL    HW151286  10.995   5.079   4.502  0.3962  0.8926 -0.0788
15150SOL    HW251287  10.859   5.042   4.447  0.9189 -0.2952 -0.6083
15151SOL     OW51288   1.250   9.982   7.348  0.5074 -0.1564  0.2845
15151SOL    HW151289   1.236   9.949   7.437 -0.2924  2.1156  1.0824
15151SOL    HW251290   1.345   9.982   7.337  0.5594 -2.0184  0.4611
15152SOL     OW51291   7.354  10.237   8.046  0.8410 -0.0214  0.0828
15152SOL    HW151292   7.402  10.188   8.113  0.8970  1.9422  1.5455
15152SOL    HW251293   7.267  10.248   8.083  0.3508 -0.3485 -0.9420
15153SOL     OW51294   5.278   1.229  10.472  0.5366  0.7229  0.1100
15153SOL    HW151295   5.245   1.187  10.551 -2.0006  0.9369 -0.7129
15153SOL    HW251296   5.210   1.212  10.406  1.5021  2.4070 -1.4287
15154SOL     OW51297   3.405   3.252   0.179  0.2498 -0.3934  0.1033
15154SOL    HW151298   3.461   3.180   0.207 -0.0864 -0.9654 -0.6650
15154SOL    HW251299   3.336   3.256   0.246 -0.4222 -1.6024 -0.4967
15155SOL     OW51300   1.767   6.817   2.853 -0.1463  0.2521  0.0959
15155SOL    HW151301   1.798   6.886   2.795 -1.9603  1.0367 -0.0291
15155SOL    HW251302   1.727   6.864   2.926 -0.2378 -0.6953  0.6714
15156SOL     OW51303   2.055  10.504   8.966  0.2662  0.1296  0.1045
15156SOL    HW151304   2.091  10.588   8.937  0.3684 -0.2767 -0.9640
15156SOL    HW251305   2.115  10.438   8.932 -1.2603 -0.5478 -1.4289
15157SOL     OW51306   7.905   7.225   7.006 -0.5591 -0.2995 -0.2596
15157SOL    HW151307   7.977   7.164   6.987  0.1875 -0.5909  2.9699
15157SOL    HW251308   7.826   7.173   6.997 -0.0757 -1.1056  0.0613
15158SOL     OW51309   2.265   8.859   5.144 -0.3429  0.0212  0.0719
15158SOL    HW151310   2.260   8.856   5.239  0.6902 -1.1815  0.1030
15158SOL    HW251311   2.354   8.889   5.125 -0.9322  1.5260 -0.5446
15159SOL     OW51312   9.643   6.740   9.839  0.3154  0.3591  0.0075
15159SOL    HW151313   9.652   6.786   9.755 -0.4186  1.3404  0.4445
15159SOL    HW251314   9.595   6.801   9.894  2.6845  0.6763  1.8854
15160SOL     OW51315   0.372   9.800   3.716  0.0481  0.5372  0.0636
15160SOL    HW151316   0.361   9.841   3.801  0.7129  0.4335  0.2031
15160SOL    HW251317   0.341   9.710   3.728  0.1514  0.5198  0.1975
15161SOL     OW51318   4.968   6.353  10.896 -0.2734 -0.2039 -0.5161
15161SOL    HW151319   5.005   6.266  10.909  0.2297 -0.0247 -0.6980
15161SOL    HW251320   4.880   6.348  10.932  0.4996 -0.1748  1.5215
15162SOL     OW51321  10.354   5.608   7.210  0.1360 -0.0686  0.2124
15162SOL    HW151322  10.400   5.652   7.139  1.2084  0.6429  1.2999
15162SOL    HW251323  10.281   5.666   7.231  0.9706  0.7373  0.9801
15163SOL     OW51324  10.052   7.975   1.405 -0.3601  0.0660 -0.7620
15163SOL    HW151325  10.029   8.043   1.468  0.3125 -0.7618  0.4089
15163SOL    HW251326  10.025   7.894   1.446  2.9203 -0.8213 -0.0420
15164SOL     OW51327   5.111   1.199   3.753  0.6358 -0.3828 -0.0060
15164SOL    HW151328   5.075   1.114   3.729  0.5650 -0.1470 -0.7886
15164SOL    HW251329   5.086   1.211   3.844 -0.1369 -0.8073 -0.1490
15165SOL     OW51330   7.587  10.868   9.241 -0.0364  0.2956  0.3565
15165SOL    HW151331   7.571  10.800   9.306  1.8111 -0.9385 -0.3915
15165SOL    HW251332   7.605  10.821   9.160 -1.9392  1.7901 -1.0373
15166SOL     OW51333   9.514   1.522   5.857 -0.4930 -0.7696  0.5282
15166SOL    HW151334   9.479   1.537   5.945  0.2639  1.3757  0.5257
15166SOL    HW251335   9.599   1.482   5.872 -0.1391  0.0646  0.8315
15167SOL     OW51336  10.487   0.413   5.990  0.1289 -0.3081  0.3399
15167SOL    HW151337  10.524   0.336   5.947  0.2815 -0.6907  1.1565
15167SOL    HW251338  10.398   0.418   5.956 -0.3323 -1.6259  1.2760
15168SOL     OW51339   4.972   8.905   6.583  0.1839 -0.2413  0.1928
15168SOL    HW151340   4.903   8.838   6.592 -0.5224  0.2163 -1.3356
15168SOL    HW251341   5.040   8.862   6.531  1.1691 -0.7324  1.8040
15169SOL     OW51342   1.479   5.572   9.727 -0.2568  0.1638  0.3213
15169SOL    HW151343   1.510   5.517   9.799 -1.0731 -0.2188  0.3898
15169SOL    HW251344   1.445   5.651   9.770  0.8400  0.7017  0.2280
15170SOL     OW51345   7.601   4.158  10.851  0.0649  0.0695 -0.0256
15170SOL    HW151346   7.683   4.205  10.865  0.1932 -0.6464  2.0477
15170SOL    HW251347   7.613   4.075  10.897 -0.9992 -1.0411 -1.6382
15171SOL     OW51348   4.491   8.066   7.189  0.4466 -0.2997 -0.7533
15171SOL    HW151349   4.557   8.111   7.135  0.1916  0.8391 -0.1544
15171SOL    HW251350   4.407   8.092   7.150  0.2278  1.0795  0.5338
15172SOL     OW51351   2.797   8.631   7.960  0.9143 -1.0549 -0.5916
15172SOL    HW151352   2.836   8.718   7.952 -0.7218 -0.4092 -2.5302
15172SOL    HW251353   2.783   8.620   8.054 -0.1618  1.4565 -0.3534
15173SOL     OW51354   3.167   9.700   2.740 -0.4065 -0.3928 -0.0624
15173SOL    HW151355   3.260   9.715   2.760  0.2670 -1.5751 -2.0372
15173SOL    HW251356   3.125   9.784   2.757  1.2999  0.6249 -0.6204
15174SOL     OW51357   4.074   6.347   3.544 -0.4473 -0.3052  0.1837
15174SOL    HW151358   4.100   6.264   3.582 -1.1050 -0.2571  0.7669
15174SOL    HW251359   3.979   6.340   3.534 -0.6606  0.7612  1.2354
15175SOL     OW51360   3.671   1.858   3.351 -0.2190 -0.8883 -0.0909
15175SOL    HW151361   3.732   1.839   3.423 -1.3323  1.5702  1.6512
15175SOL    HW251362   3.585   1.835   3.386 -0.7649  0.2656 -0.6383
15176SOL     OW51363  10.289   0.321   5.600 -0.3682 -0.1563 -0.3684
15176SOL    HW151364  10.353   0.250   5.598  1.1589  1.1074  0.8204
15176SOL    HW251365  10.204   0.277   5.598  0.5165 -2.0119  0.5338
15177SOL     OW51366   7.915   5.574   0.201 -0.3854 -0.1266  0.6336
15177SOL    HW151367   8.009   5.583   0.217 -0.6622  0.9708  1.8016
15177SOL    HW251368   7.903   5.608   0.113 -0.1728  3.6476  1.8665
15178SOL     OW51369  10.389   5.777   8.265 -0.2978  0.0289  0.0443
15178SOL    HW151370  10.449   5.810   8.332 -0.1486 -0.6375  0.2510
15178SOL    HW251371  10.307   5.760   8.311 -0.4470  0.3205 -0.1068
15179SOL     OW51372   3.618   2.774   4.988 -0.1981  0.1904 -0.0962
15179SOL    HW151373   3.593   2.818   5.070  1.1254  2.1367 -0.6696
15179SOL    HW251374   3.604   2.681   5.006  0.9246  0.4568  2.6626
15180SOL     OW51375  10.621   6.448   1.023 -0.6406 -0.4440  0.0687
15180SOL    HW151376  10.649   6.377   0.965  1.0346 -0.0392  0.3469
15180SOL    HW251377  10.555   6.495   0.972  0.8431 -0.0590 -1.5689
15181SOL     OW51378   7.929   8.778   7.165  0.4776  0.1287  0.0066
15181SOL    HW151379   7.869   8.709   7.136 -1.3021  1.2618  0.8330
15181SOL    HW251380   7.950   8.827   7.085  0.3697 -0.3261 -0.3051
15182SOL     OW51381   5.717   0.674   7.767  0.2792  0.4180  0.0693
15182SOL    HW151382   5.717   0.743   7.833 -0.6024  0.2877  0.2215
15182SOL    HW251383   5.625   0.667   7.740  0.1978 -1.2600  0.6514
15183SOL     OW51384   8.167   0.672   7.969 -0.0208 -0.2097 -0.6059
15183SOL    HW151385   8.096   0.732   7.948  0.3491  1.1183  1.5999
15183SOL    HW251386   8.246   0.727   7.970  0.6136 -1.1017 -0.3219
15184SOL     OW51387   9.903   1.507  10.473 -0.0729  0.0286  0.2085
15184SOL    HW151388   9.888   1.601  10.485 -0.9929  0.0938 -1.2544
15184SOL    HW251389   9.933   1.477  10.559 -1.5265  1.3064  1.2197
15185SOL     OW51390   1.034   1.558   5.994 -0.4051 -0.2455  0.1127
15185SOL    HW151391   0.973   1.593   5.929  0.2454  1.0444  0.1675
15185SOL    HW251392   0.988   1.569   6.077  0.5555  2.4445  0.3752
15186SOL     OW51393   6.200   2.903   5.321 -0.6808 -0.1576  0.0068
15186SOL    HW151394   6.186   2.837   5.390 -0.4676  0.0798  0.2759
15186SOL    HW251395   6.174   2.985   5.361 -0.1081  0.0495 -0.0436
15187SOL     OW51396   7.537  10.369   1.219 -0.4599 -0.7741 -0.3981
15187SOL    HW151397   7.468  10.363   1.153  0.4180  0.0547 -1.4403
15187SOL    HW251398   7.576  10.456   1.205  0.4905 -1.0431  0.4490
15188SOL     OW51399   8.126   1.048   9.866 -0.4000 -0.1057 -0.2820
15188SOL    HW151400   8.143   1.072   9.957  0.5829 -1.7366  0.0056
15188SOL    HW251401   8.085   0.962   9.870 -0.7607 -0.0109 -1.3767
15189SOL     OW51402   8.804   6.226   9.204  0.4698 -0.4423  0.2888
15189SOL    HW151403   8.764   6.311   9.186  0.5168 -0.5364 -0.2859
15189SOL    HW251404   8.778   6.206   9.294 -0.9244 -0.5748 -0.1188
15190SOL     OW51405   2.155   4.255   9.817  0.1403 -0.2435  0.3195
15190SOL    HW151406   2.148   4.179   9.759 -1.0064 -0.1609  0.3264
15190SOL    HW251407   2.108   4.230   9.896  1.3370 -0.1983  1.0817
15191SOL     OW51408   3.799   8.887   1.825 -0.3142 -0.1290  0.0020
15191SOL    HW151409   3.857   8.931   1.887  0.8884 -1.6445 -0.0091
15191SOL    HW251410   3.769   8.957   1.767  0.6839  0.8498  0.6299
15192SOL     OW51411   7.616   5.780   7.126 -0.2397  0.3107 -0.0923
15192SOL    HW151412   7.574   5.719   7.187  0.2652  1.1193  1.1003
15192SOL    HW251413   7.704   5.792   7.161  0.1474  0.5993 -1.1354
15193SOL     OW51414   3.891   4.612   4.946  0.6121 -0.5807  0.0873
15193SOL    HW151415   3.826   4.682   4.945 -0.9713 -1.9804  1.1875
15193SOL    HW251416   3.933   4.618   4.860  0.0181  1.2361 -0.1197
15194SOL     OW51417   5.322   7.350  10.384  0.1301  0.0267  0.6974
15194SOL    HW151418   5.282   7.411  10.446  2.6055  0.7780  1.6687
15194SOL    HW251419   5.376   7.406  10.327  0.0212 -0.9494 -0.3983
15195SOL     OW51420   3.524   6.510   5.956 -0.3667 -0.1272  0.7346
15195SOL    HW151421   3.508   6.429   5.907 -3.5459 -0.2652  1.7356
15195SOL    HW251422   3.575   6.482   6.032 -0.2057 -0.9174  0.3566
15196SOL     OW51423  10.682   6.281   1.827  0.3265  0.4424 -0.2609
15196SOL    HW151424  10.739   6.210   1.857 -0.0095  0.4188  0.3492
15196SOL    HW251425  10.699   6.352   1.888 -0.9252  0.1392  0.4837
15197SOL     OW51426   4.118   1.169   4.745 -0.1751  0.3677 -0.0129
15197SOL    HW151427   4.070   1.243   4.780  0.4398  0.4964  0.5833
15197SOL    HW251428   4.060   1.094   4.758 -0.4843  0.6241  0.0859
15198SOL     OW51429   5.292   1.442   1.332  0.1240 -0.0680 -0.1382
15198SOL    HW151430   5.362   1.385   1.300  0.2855  0.4822 -0.8035
15198SOL    HW251431   5.308   1.526   1.287 -0.2939  0.3981  0.5738
15199SOL     OW51432   2.538   4.443   0.096 -0.6458 -0.2938  0.0567
15199SOL    HW151433   2.584   4.366   0.129 -1.4863 -1.4397 -1.2883
15199SOL    HW251434   2.447   4.430   0.123 -0.6976  0.4996  0.2703
15200SOL     OW51435   1.815   8.156   0.647  0.8196  0.8951 -1.1078
15200SOL    HW151436   1.738   8.144   0.592  0.0309  0.5395  0.0432
15200SOL    HW251437   1.871   8.081   0.627  0.2061  0.3738 -0.9003
15201SOL     OW51438   8.030   2.453   9.131 -0.1042  0.0655  0.1054
15201SOL    HW151439   7.992   2.532   9.092 -0.8993  0.0314  0.7662
15201SOL    HW251440   7.995   2.381   9.079  1.2927  0.1803 -1.0272
15202SOL     OW51441   4.681  10.643   1.507 -0.0647  0.7012  0.8261
15202SOL    HW151442   4.613  10.592   1.465 -0.5521  1.4776  0.6515
15202SOL    HW251443   4.690  10.721   1.453  0.9185  0.6493  0.8826
15203SOL     OW51444   6.566   8.015   2.649  0.3444 -0.0223  0.7131
15203SOL    HW151445   6.500   7.958   2.608  0.4674 -0.3324  0.9432
15203SOL    HW251446   6.620   7.956   2.701  1.4893  0.0641 -0.3342
15204SOL     OW51447   3.118   5.330   1.200  0.1161  0.0041 -0.2205
15204SOL    HW151448   3.152   5.409   1.242  0.1139  0.3561 -0.8669
15204SOL    HW251449   3.117   5.351   1.107  2.0817 -1.4825 -0.6498
15205SOL     OW51450   2.427   8.220   5.445 -0.1117 -0.1622 -0.1081
15205SOL    HW151451   2.476   8.229   5.364 -0.5935  0.3007 -0.3500
15205SOL    HW251452   2.363   8.150   5.427 -1.2605  0.9962 -0.6566
15206SOL     OW51453   3.133   4.753   1.353  0.4809 -0.3386  0.1115
15206SOL    HW151454   3.223   4.785   1.340 -0.4383  2.0719 -1.0336
15206SOL    HW251455   3.111   4.711   1.270 -0.2617  1.3936 -0.6153
15207SOL     OW51456   3.156   2.824   7.248 -0.4599 -0.1950 -0.4449
15207SOL    HW151457   3.069   2.786   7.263 -0.5131 -1.1497 -2.7629
15207SOL    HW251458   3.162   2.832   7.153  0.6511  3.1417 -0.2082
15208SOL     OW51459   5.167   4.848   6.625  0.2726  0.2201 -0.4999
15208SOL    HW151460   5.235   4.876   6.687  0.1454 -0.0808 -0.2246
15208SOL    HW251461   5.166   4.753   6.633  0.8144  0.1170 -1.5476
15209SOL     OW51462   8.900   2.471   9.953  0.7385 -0.3567 -0.1771
15209SOL    HW151463   8.929   2.507  10.037  2.5476  0.5367 -1.1279
15209SOL    HW251464   8.863   2.547   9.907  2.3849 -0.1926 -1.2755
15210SOL     OW51465   3.106   6.810   9.219 -0.5002  0.4041 -0.1676
15210SOL    HW151466   3.137   6.721   9.202 -1.0793  0.1340  0.1581
15210SOL    HW251467   3.175   6.867   9.186 -0.8678 -0.1303 -1.9260
15211SOL     OW51468   8.198   6.180   5.290 -0.2750  0.4470  0.1437
15211SOL    HW151469   8.287   6.200   5.261 -0.9306  2.8539 -0.4271
15211SOL    HW251470   8.199   6.086   5.309  2.0773  0.2095 -0.8850
15212SOL     OW51471  10.615   4.321   3.610 -0.3741  0.1149 -0.1922
15212SOL    HW151472  10.525   4.347   3.628  0.1159  1.3553  0.5965
15212SOL    HW251473  10.662   4.403   3.596  0.3794 -0.5603 -1.9904
15213SOL     OW51474   5.062   1.596   8.525 -0.0256  0.0944  0.7414
15213SOL    HW151475   5.057   1.504   8.500 -0.3990 -0.3152  2.2408
15213SOL    HW251476   5.153   1.610   8.547 -0.0541 -0.0422  0.9501
15214SOL     OW51477   2.836   9.172   7.518  0.3906 -0.4072 -0.0037
15214SOL    HW151478   2.830   9.086   7.560  0.6320 -1.0023 -1.1573
15214SOL    HW251479   2.795   9.161   7.433 -1.2541  1.1229  0.5301
15215SOL     OW51480  10.203   5.583   1.493 -0.2208 -0.3887  0.1001
15215SOL    HW151481  10.180   5.655   1.553  1.4748  0.7556 -0.5331
15215SOL    HW251482  10.265   5.530   1.543  0.5454  0.0946 -0.3163
15216SOL     OW51483   5.518   5.098   3.954 -0.0705 -0.0678  0.2885
15216SOL    HW151484   5.515   5.185   3.993  0.7445  0.3569 -0.5340
15216SOL    HW251485   5.428   5.066   3.959 -0.1512  0.3287  1.6613
15217SOL     OW51486   7.517   3.670   5.316  0.1250 -0.5922 -0.0326
15217SOL    HW151487   7.511   3.733   5.243  0.0806 -1.0940 -0.4712
15217SOL    HW251488   7.429   3.631   5.321 -0.0802 -0.0492  0.7660
15218SOL     OW51489   1.971   7.741   4.484 -0.0259  0.5917  0.3586
15218SOL    HW151490   1.929   7.655   4.482 -0.3470  0.7674 -0.5588
15218SOL    HW251491   2.064   7.722   4.495 -0.1529  0.1480  0.6901
15219SOL     OW51492   1.692   8.772   6.789 -0.0304  0.8402 -0.5613
15219SOL    HW151493   1.643   8.824   6.853  1.8457  1.0587  0.7753
15219SOL    HW251494   1.733   8.703   6.841  0.7489  0.4147 -1.7066
15220SOL     OW51495   6.132   2.772   6.986 -0.2412  0.4746 -0.4631
15220SOL    HW151496   6.184   2.755   7.064 -2.2662 -0.9341  0.6828
15220SOL    HW251497   6.131   2.688   6.939  0.4017  1.1214 -1.7071
15221SOL     OW51498   4.431   7.475  10.700  0.5538 -0.0297  0.2090
15221SOL    HW151499   4.459   7.412  10.767  1.0499 -0.1793 -0.1327
15221SOL    HW251500   4.371   7.534  10.747  1.1447  0.0640  0.8761
15222SOL     OW51501   0.284   3.736   5.266 -0.6248  0.3802  0.1404
15222SOL    HW151502   0.264   3.798   5.336 -1.3682 -1.3322  1.5297
15222SOL    HW251503   0.372   3.706   5.285 -0.0637  1.3528 -0.8325
15223SOL     OW51504   1.405   7.989   8.790  0.2611  0.0240  0.0591
15223SOL    HW151505   1.406   7.968   8.697 -1.9307  0.6729 -0.1818
15223SOL    HW251506   1.438   7.910   8.833  1.9471 -0.0464 -1.2591
15224SOL     OW51507   5.780   6.190   9.370  0.1811 -0.3200  0.3229
15224SOL    HW151508   5.712   6.211   9.306  1.1070 -0.0347 -0.6034
15224SOL    HW251509   5.751   6.109   9.411 -1.2859  0.3968  0.7953
15225SOL     OW51510   8.797   9.618   7.561 -0.2791 -0.0887  0.0456
15225SOL    HW151511   8.718   9.665   7.537 -0.6006 -0.2009  0.8527
15225SOL    HW251512   8.865   9.686   7.565 -0.2722 -0.0274 -0.8607
15226SOL     OW51513  10.780   0.626  10.332  0.2145 -0.0757 -0.0961
15226SOL    HW151514  10.717   0.596  10.397 -2.5768  1.9292 -1.6403
15226SOL    HW251515  10.743   0.599  10.248  1.0791  1.7003 -1.1191
15227SOL     OW51516   7.834   8.397   0.549  0.0656 -0.3324 -0.1375
15227SOL    HW151517   7.829   8.305   0.575 -1.4092  0.0165  0.9658
15227SOL    HW251518   7.889   8.438   0.615  0.4829 -0.3635 -0.4632
15228SOL     OW51519   2.080   7.314  10.633  0.7227 -0.6667  0.4032
15228SOL    HW151520   2.021   7.243  10.607 -0.1403  0.4974 -1.0269
15228SOL    HW251521   2.135   7.329  10.557  0.3420  0.6975  0.3551
15229SOL     OW51522   1.973   7.756   1.582 -0.4424  0.3148 -0.1249
15229SOL    HW151523   2.050   7.761   1.526 -0.4545 -0.2381 -0.1909
15229SOL    HW251524   1.917   7.691   1.540 -1.0580  0.8961 -0.2177
15230SOL     OW51525   2.805   4.301   3.700 -0.5242 -0.1476 -0.5250
15230SOL    HW151526   2.888   4.309   3.748 -0.2141 -0.5812 -0.9719
15230SOL    HW251527   2.753   4.376   3.728  0.9053  1.4739 -1.9961
15231SOL     OW51528   7.971  10.303   5.003 -0.3765  0.0821 -0.0575
15231SOL    HW151529   7.945  10.214   4.978  1.3068 -1.2409  2.4384
15231SOL    HW251530   7.978  10.300   5.098  0.6845  2.6394  0.0306
15232SOL     OW51531   9.132   7.444   3.083  0.4139  0.1748  0.0191
15232SOL    HW151532   9.042   7.413   3.097  0.6392 -1.5123 -1.7943
15232SOL    HW251533   9.147   7.507   3.154 -1.9794  0.0718  0.7141
15233SOL     OW51534   1.943   5.119   4.136  0.1695  0.4750  0.6306
15233SOL    HW151535   1.935   5.193   4.075  0.6627  0.4643  0.5496
15233SOL    HW251536   2.014   5.144   4.194 -0.8138  0.8376  1.7143
15234SOL     OW51537   9.027   1.310   6.907 -0.0906  0.1772 -0.5209
15234SOL    HW151538   9.004   1.390   6.954 -1.1797  1.2502 -2.6961
15234SOL    HW251539   9.111   1.331   6.864  0.9557 -0.8281  0.9567
15235SOL     OW51540   3.158   3.911   2.883 -0.9252 -0.1285 -0.5209
15235SOL    HW151541   3.162   3.989   2.939  1.7037  1.0345 -2.1383
15235SOL    HW251542   3.076   3.921   2.834 -1.2726  0.9325  0.2386
15236SOL     OW51543   3.382   7.927   7.908  0.5259  0.1724 -0.0680
15236SOL    HW151544   3.445   7.917   7.980 -0.0906 -2.8285  0.2086
15236SOL    HW251545   3.384   7.842   7.864 -3.7593 -0.3674  0.3759
15237SOL     OW51546   4.502   6.375   6.928 -0.1996 -0.2470 -0.4114
15237SOL    HW151547   4.586   6.415   6.949 -0.6482  0.6359 -0.2369
15237SOL    HW251548   4.439   6.447   6.934 -0.8418 -0.6916 -1.4102
15238SOL     OW51549   6.714   5.332  10.384 -0.1381 -0.5347 -0.6087
15238SOL    HW151550   6.702   5.264  10.318  0.5483 -0.8603 -0.4084
15238SOL    HW251551   6.787   5.302  10.437 -0.3154 -0.0042 -0.0417
15239SOL     OW51552   3.637   2.486   7.064  0.2737  0.6551 -0.0205
15239SOL    HW151553   3.553   2.523   7.090  1.5631  3.1299  0.9457
15239SOL    HW251554   3.657   2.528   6.980  0.8615  0.5812  0.0780
15240SOL     OW51555   1.731   3.049   3.949  0.4212 -0.4905 -0.2724
15240SOL    HW151556   1.639   3.070   3.930  0.2901 -0.6249  0.1970
15240SOL    HW251557   1.746   2.966   3.905 -0.0322 -1.0627  0.6298
15241SOL     OW51558  10.562   7.167   4.674  0.7176 -0.2012 -0.1729
15241SOL    HW151559  10.587   7.208   4.756 -1.4672  1.1947 -0.1246
15241SOL    HW251560  10.590   7.229   4.607  0.2054 -0.1288 -0.3187
15242SOL     OW51561   5.124   2.383   9.005 -0.1913  0.5051  0.7512
15242SOL    HW151562   5.194   2.413   9.064  0.0485  0.7916  0.3285
15242SOL    HW251563   5.043   2.407   9.050 -0.1927 -2.8779  2.9367
15243SOL     OW51564   0.228   3.469  10.852 -0.3387  0.0159 -0.2499
15243SOL    HW151565   0.315   3.506  10.841 -0.0838 -0.4409  0.1653
15243SOL    HW251566   0.206   3.486  10.944 -1.0792  0.9444 -0.5901
15244SOL     OW51567   1.958   3.128   4.504 -0.0989 -0.5139 -0.4567
15244SOL    HW151568   1.873   3.169   4.487  0.0038  0.2655  0.7395
15244SOL    HW251569   1.940   3.035   4.509 -0.5810 -0.5138 -1.8983
15245SOL     OW51570   3.377   8.623   1.144 -0.1325 -0.1997 -0.2570
15245SOL    HW151571   3.403   8.538   1.181 -1.7191 -0.4238  0.4087
15245SOL    HW251572   3.318   8.660   1.209  0.7549  1.5739 -0.4061
15246SOL     OW51573   3.907   1.926   0.304  0.2605 -0.2664  0.0608
15246SOL    HW151574   3.969   1.995   0.280 -0.8801  0.4288 -1.0590
15246SOL    HW251575   3.849   1.919   0.228  0.7072 -2.9251 -0.1540
15247SOL     OW51576   7.270   7.367  10.453 -0.4043 -0.3827 -0.0573
15247SOL    HW151577   7.223   7.299  10.502  1.0090 -0.7488  0.8524
15247SOL    HW251578   7.240   7.449  10.491 -2.1845 -0.4346 -1.2146
15248SOL     OW51579   9.798   7.159   2.835  0.2701  0.1992  0.4967
15248SOL    HW151580   9.729   7.221   2.859 -0.4678 -0.7967  1.0291
15248SOL    HW251581   9.830   7.190   2.750 -1.5264  0.1231 -0.2437
15249SOL     OW51582   0.009   5.487  10.029  0.1282 -0.0378  0.2364
15249SOL    HW151583   0.025   5.507  10.121 -1.3923  0.2221  0.4706
15249SOL    HW251584  -0.005   5.393  10.027  2.8475 -0.5264 -0.1901
15250SOL     OW51585   3.794   7.826   9.972  0.3523 -0.3213  0.1242
15250SOL    HW151586   3.722   7.886   9.992 -0.1853 -0.7597 -0.4337
15250SOL    HW251587   3.818   7.847   9.882  0.1882 -0.9092 -0.0598
15251SOL     OW51588   4.749   3.161   2.687  0.3766  0.4119  0.0067
15251SOL    HW151589   4.754   3.133   2.778  0.6775  1.1577  0.2263
15251SOL    HW251590   4.801   3.242   2.683 -0.6754  1.0905 -0.5337
15252SOL     OW51591   6.227   1.778   8.985  0.2390 -0.0856 -0.3592
15252SOL    HW151592   6.148   1.830   8.972 -0.5040 -1.1441 -0.2272
15252SOL    HW251593   6.298   1.842   8.987 -0.8374  1.1486  2.0757
15253SOL     OW51594   5.512   1.730   0.066 -0.1176 -0.0234 -0.0996
15253SOL    HW151595   5.427   1.709   0.106  1.0704 -0.5460  2.3946
15253SOL    HW251596   5.512   1.683  -0.017 -3.2715  2.1400 -1.5501
15254SOL     OW51597  10.778   6.572   9.906  0.4497  0.4718  0.6267
15254SOL    HW151598  10.757   6.544   9.817  1.6903  1.1018  0.1049
15254SOL    HW251599  10.726   6.652   9.919  1.8463  1.5987 -0.3692
15255SOL     OW51600   4.051   4.777   6.036 -0.7208  0.2535 -0.5247
15255SOL    HW151601   3.967   4.731   6.045  0.3105 -1.7707 -0.6240
15255SOL    HW251602   4.091   4.737   5.958  0.3434  1.1904 -0.4736
15256SOL     OW51603   6.640   8.567   6.483  0.4255 -0.0577  0.2774
15256SOL    HW151604   6.612   8.527   6.566  1.0396  0.0740  0.5567
15256SOL    HW251605   6.717   8.517   6.457 -0.0202 -0.3752 -0.4489
15257SOL     OW51606   7.848   7.573   9.927 -0.1354 -0.4230  0.7971
15257SOL    HW151607   7.875   7.492   9.971  0.0826 -0.9099 -0.1752
15257SOL    HW251608   7.850   7.640   9.994  1.9757 -0.7595  1.1375
15258SOL     OW51609   4.271  10.024   4.571 -0.2900  0.4885 -0.1869
15258SOL    HW151610   4.302  10.114   4.581 -1.5653  0.9735 -0.4034
15258SOL    HW251611   4.309   9.996   4.488 -0.6438  1.1688 -0.5926
15259SOL     OW51612   5.897   1.838   8.328  0.4714  0.3243 -0.2146
15259SOL    HW151613   5.880   1.752   8.366  1.1189 -0.2350 -1.1447
15259SOL    HW251614   5.931   1.890   8.400 -2.0035  0.5279  0.9323
15260SOL     OW51615   4.578   2.718   3.994  0.0677 -0.3022  0.2100
15260SOL    HW151616   4.563   2.624   4.001  0.1838 -0.3965 -0.7551
15260SOL    HW251617   4.501   2.758   4.034 -1.3083 -0.8020 -1.8104
15261SOL     OW51618   2.602   7.128   3.346  0.3322 -0.3079  0.1488
15261SOL    HW151619   2.696   7.135   3.327  0.3087  4.2393  0.4407
15261SOL    HW251620   2.597   7.106   3.439  1.3343  2.2229  0.8855
15262SOL     OW51621   1.052   3.950   4.772 -0.5922  0.6640  0.8078
15262SOL    HW151622   1.063   3.942   4.677  0.7963 -0.0700  1.0142
15262SOL    HW251623   1.138   3.931   4.808 -0.1820  4.2637  2.0931
15263SOL     OW51624   0.048   2.607   1.365  0.2016 -1.0302  0.4810
15263SOL    HW151625  -0.046   2.590   1.374  0.2535 -1.4160  0.3297
15263SOL    HW251626   0.084   2.525   1.330  0.9151 -1.6389  2.5185
15264SOL     OW51627   9.890   1.379   7.403 -0.2115 -0.4719  0.3459
15264SOL    HW151628   9.881   1.457   7.458  1.9013  0.4211 -0.4676
15264SOL    HW251629   9.815   1.381   7.344 -1.4944 -0.4226  1.9186
15265SOL     OW51630   8.817   4.664   2.397 -0.3336  0.4854  0.5436
15265SOL    HW151631   8.836   4.691   2.487  0.3295 -2.0297  1.2398
15265SOL    HW251632   8.885   4.706   2.345  0.2843  0.6670  1.4627
15266SOL     OW51633   8.769   3.431   8.261  0.1332 -0.3238 -0.6733
15266SOL    HW151634   8.714   3.472   8.194 -3.7909 -4.4336 -0.4708
15266SOL    HW251635   8.720   3.443   8.343  1.2874 -1.3512  0.2106
15267SOL     OW51636   2.097   7.655   2.306  0.2020 -0.2565 -0.1785
15267SOL    HW151637   2.021   7.629   2.254  0.7453 -0.6587 -0.7842
15267SOL    HW251638   2.145   7.716   2.249 -0.4878  1.2630  0.8037
15268SOL     OW51639   1.405   9.831   9.809 -0.2247  0.0857 -0.2804
15268SOL    HW151640   1.397   9.923   9.836 -0.9913  0.1077 -0.5702
15268SOL    HW251641   1.484   9.801   9.853 -0.2294  0.7523  0.2086
15269SOL     OW51642   0.594   5.598   1.749 -0.5510  0.0777 -0.5332
15269SOL    HW151643   0.572   5.588   1.842 -1.1050  0.3566 -0.6317
15269SOL    HW251644   0.567   5.515   1.710  0.1902 -0.2548 -0.3550
15270SOL     OW51645   6.379   3.760   5.541 -0.1645  1.1092  0.9908
15270SOL    HW151646   6.304   3.730   5.490 -1.0791  1.3943  2.1218
15270SOL    HW251647   6.440   3.794   5.476 -0.7400  0.2956  0.0018
15271SOL     OW51648   6.641   8.962   9.329 -0.2559 -0.5007 -0.0231
15271SOL    HW151649   6.691   8.902   9.384  1.5228  0.4144 -0.5614
15271SOL    HW251650   6.692   9.043   9.329 -1.8864  0.5762 -0.4261
15272SOL     OW51651   5.826   1.077   1.004 -0.4324 -0.2060 -0.1634
15272SOL    HW151652   5.730   1.071   1.005 -0.4162 -0.5439  0.3603
15272SOL    HW251653   5.853   1.028   1.082  0.1823 -0.4006 -0.4946
15273SOL     OW51654   6.982   2.663   8.483  0.4792  0.0826  0.4118
15273SOL    HW151655   6.927   2.594   8.517 -1.1552  1.2082  0.1602
15273SOL    HW251656   7.015   2.629   8.400 -2.0020  0.3324 -0.7692
15274SOL     OW51657   9.850   3.360   7.271 -0.6706  0.2640 -0.4454
15274SOL    HW151658   9.859   3.265   7.264  0.9961  0.5113 -2.5712
15274SOL    HW251659   9.902   3.383   7.348  0.9888 -0.3132 -1.3632
15275SOL     OW51660   9.291   4.197   3.696  0.1238 -0.0798 -0.1739
15275SOL    HW151661   9.310   4.291   3.694  0.8610 -0.2216 -0.3366
15275SOL    HW251662   9.318   4.165   3.610  2.0671 -0.8250  0.6593
15276SOL     OW51663   3.549   3.337  10.215  0.7356 -0.4300  0.2509
15276SOL    HW151664   3.542   3.428  10.244 -2.0120 -0.9481  1.5113
15276SOL    HW251665   3.551   3.342  10.119 -4.0082  0.9479 -0.0154
15277SOL     OW51666   0.670   5.950   1.811 -0.3476 -0.1629  0.0106
15277SOL    HW151667   0.714   5.872   1.846  0.2941  0.5107  0.7447
15277SOL    HW251668   0.616   5.981   1.883  0.7149  1.0357  0.3207
15278SOL     OW51669   7.137   3.471   4.801  0.4054  0.4318 -0.0451
15278SOL    HW151670   7.044   3.454   4.817  0.8937 -0.4500  2.1354
15278SOL    HW251671   7.142   3.567   4.794 -0.8705  0.4150 -1.9613
15279SOL     OW51672  10.072   3.553   4.807  0.9518 -0.0070 -0.0075
15279SOL    HW151673  10.063   3.552   4.712 -1.1990  0.0668  0.1610
15279SOL    HW251674  10.164   3.531   4.822  1.6209  1.0471 -2.1195
15280SOL     OW51675   9.503   0.229   0.215  0.1480 -0.3254  0.2484
15280SOL    HW151676   9.460   0.294   0.160  0.0722 -1.1729 -0.7094
15280SOL    HW251677   9.588   0.215   0.174 -0.5150 -2.1190 -0.5914
15281SOL     OW51678   9.884   3.847   1.597  0.4151  0.0180 -0.4251
15281SOL    HW151679   9.821   3.783   1.631  1.1770 -0.5120  0.0258
15281SOL    HW251680   9.968   3.819   1.633  0.9494  0.5739 -1.2097
15282SOL     OW51681   6.160   9.150   5.317 -0.5210 -0.6180 -0.4826
15282SOL    HW151682   6.101   9.078   5.294 -3.3140  1.8443 -1.8397
15282SOL    HW251683   6.164   9.203   5.238  1.7981  0.5055  0.3170
15283SOL     OW51684   4.312   6.113  10.504  0.3455  0.3476  0.2288
15283SOL    HW151685   4.274   6.078  10.585  0.5753  0.0904  0.2250
15283SOL    HW251686   4.242   6.107  10.440  0.1895  0.4713  0.3844
15284SOL     OW51687   2.336   1.738   6.171  0.1400 -0.1713 -0.4279
15284SOL    HW151688   2.402   1.731   6.241  0.9975  2.1401 -0.9032
15284SOL    HW251689   2.339   1.653   6.127  1.2077 -0.8976  0.9478
15285SOL     OW51690   9.940   4.808   5.063  0.0544  0.4135  0.7952
15285SOL    HW151691   9.874   4.878   5.063  0.1814  0.6108 -1.6193
15285SOL    HW251692   9.916   4.753   4.988  1.4568 -0.6826  1.1196
15286SOL     OW51693   9.020   0.776  10.085  0.3644  0.0277 -0.1081
15286SOL    HW151694   9.019   0.869  10.107  1.4904 -0.2950  1.5303
15286SOL    HW251695   8.934   0.744  10.111  0.7357  0.2072  1.4632
15287SOL     OW51696   8.531   8.289   4.585  0.0277  0.1381  0.5426
15287SOL    HW151697   8.626   8.298   4.587 -0.1025  1.7172  0.4804
15287SOL    HW251698   8.503   8.306   4.675 -0.2244 -0.0109  0.4923
15288SOL     OW51699   6.342   1.900   4.069 -0.1970  0.1663  0.3047
15288SOL    HW151700   6.287   1.974   4.043 -1.1045 -0.2250  1.0316
15288SOL    HW251701   6.281   1.839   4.110  0.8411 -0.1203  1.4772
15289SOL     OW51702   1.363   8.152   8.190 -0.3200 -0.2937  0.5067
15289SOL    HW151703   1.415   8.231   8.207  0.5417 -0.5839 -0.6712
15289SOL    HW251704   1.384   8.094   8.264  1.0768 -0.4084  0.0632
15290SOL     OW51705   2.009  10.533   9.237  0.3358  0.8796  0.3063
15290SOL    HW151706   2.017  10.522   9.142  0.5933  1.7361  0.2205
15290SOL    HW251707   2.099  10.523   9.269  0.0986 -0.5283  0.6012
15291SOL     OW51708   1.467  10.589   7.484 -0.5049 -0.0763  0.6714
15291SOL    HW151709   1.547  10.640   7.469 -0.1168 -0.4455  1.4499
15291SOL    HW251710   1.497  10.500   7.498 -1.1748 -0.5252 -0.5559
15292SOL     OW51711   9.932   6.177   5.018 -0.3392  0.3474 -0.5271
15292SOL    HW151712  10.012   6.223   4.992  0.4600 -1.5362 -1.6047
15292SOL    HW251713   9.944   6.158   5.111  1.0293 -0.8689 -0.9096
15293SOL     OW51714   7.689   3.727   1.058  0.1656 -0.2387  0.3635
15293SOL    HW151715   7.732   3.792   1.003  0.6442 -1.8605 -1.3089
15293SOL    HW251716   7.673   3.772   1.140 -0.0787  2.1585 -0.8940
15294SOL     OW51717   6.924   3.343   1.557  0.2160  0.0257  0.0746
15294SOL    HW151718   6.947   3.436   1.557  0.3173  0.0024  0.2138
15294SOL    HW251719   6.904   3.323   1.649  0.7280 -0.2145  0.1423
15295SOL     OW51720  10.163   6.949   4.915 -0.0598  0.6459  0.3809
15295SOL    HW151721  10.248   6.923   4.881  0.1100  3.3976 -1.6835
15295SOL    HW251722  10.179   7.036   4.953 -1.4047 -0.0357  2.6651
15296SOL     OW51723   2.828   3.879   4.141  0.2967 -0.6948 -0.0214
15296SOL    HW151724   2.838   3.943   4.070 -1.0748  0.2409  0.5682
15296SOL    HW251725   2.915   3.841   4.152  0.9703  0.4900 -0.9577
15297SOL     OW51726   6.567   3.948   1.588  0.3472  0.1654  0.2728
15297SOL    HW151727   6.651   3.994   1.591  1.0722 -0.9774 -1.2984
15297SOL    HW251728   6.554   3.916   1.678  0.7190  1.7902  0.9484
15298SOL     OW51729   5.350   0.892  10.112  0.3839  0.4195 -0.3204
15298SOL    HW151730   5.393   0.977  10.105  0.7941  0.1562 -1.1284
15298SOL    HW251731   5.385   0.841  10.039  1.3681 -0.9896  1.0536
15299SOL     OW51732   7.896   5.901   1.808  0.1011 -0.7593  0.3137
15299SOL    HW151733   7.928   5.835   1.870  1.9475 -0.9339 -0.7743
15299SOL    HW251734   7.924   5.869   1.722 -0.6677  0.4853 -0.4308
15300SOL     OW51735   2.689   5.816  10.235 -0.4680 -0.2244 -0.3860
15300SOL    HW151736   2.593   5.819  10.229 -0.3796  1.5332 -1.7884
15300SOL    HW251737   2.718   5.891  10.183  1.7121 -1.2397 -0.7150
15301SOL     OW51738   8.744   7.781   2.332 -0.0146 -0.2935 -0.0210
15301SOL    HW151739   8.674   7.728   2.372 -0.6756 -0.3719 -1.2372
15301SOL    HW251740   8.744   7.862   2.383  0.3144 -1.0402  1.2105
15302SOL     OW51741  10.267   8.225   8.099 -0.0893  0.1345 -0.3305
15302SOL    HW151742  10.346   8.233   8.044  0.3620  2.2670  0.5234
15302SOL    HW251743  10.301   8.215   8.188 -0.7860  0.6858  0.0022
15303SOL     OW51744  10.259   3.401   7.118  0.1408 -0.4998 -0.7091
15303SOL    HW151745  10.227   3.311   7.130 -0.3992 -0.0949  1.2919
15303SOL    HW251746  10.180   3.454   7.113  0.4182  0.1443  0.9807
15304SOL     OW51747   7.664   9.327   3.778  0.0471  0.3392 -0.0836
15304SOL    HW151748   7.706   9.303   3.696 -1.4652  1.5552 -1.2862
15304SOL    HW251749   7.725   9.388   3.819  2.4473 -2.8372  1.4952
15305SOL     OW51750  10.374   5.368   0.280 -0.1197  0.0173 -0.5542
15305SOL    HW151751  10.467   5.392   0.279 -0.0762 -0.0542  0.5083
15305SOL    HW251752  10.365   5.304   0.210  0.3108  1.1670 -1.6850
15306SOL     OW51753   7.062   8.037   4.900  0.1816 -0.2330 -0.3892
15306SOL    HW151754   7.063   7.948   4.865  0.8935  0.4044 -2.0904
15306SOL    HW251755   6.977   8.072   4.875 -0.1627 -0.4639  0.4194
15307SOL     OW51756   9.522   9.651   2.704 -0.2631 -0.0486  0.5331
15307SOL    HW151757   9.528   9.675   2.796 -3.0380 -1.8864  1.3176
15307SOL    HW251758   9.430   9.665   2.681  0.3340  0.3290 -2.0030
15308SOL     OW51759   0.352   5.160   2.159 -0.5215 -0.0029  0.3449
15308SOL    HW151760   0.259   5.148   2.178 -0.2711 -1.0282  0.9859
15308SOL    HW251761   0.371   5.098   2.089 -0.0869 -0.5833  0.9644
15309SOL     OW51762  10.514   5.806   3.711  0.0554  0.0784 -0.4655
15309SOL    HW151763  10.506   5.741   3.640  1.7107 -0.1489 -0.4763
15309SOL    HW251764  10.438   5.863   3.700 -0.9237 -1.2964 -1.0405
15310SOL     OW51765   2.756  10.276   3.185  0.2364 -0.1397 -0.0354
15310SOL    HW151766   2.790  10.365   3.198  1.4968 -0.9159  2.7923
15310SOL    HW251767   2.810  10.239   3.115  0.3962  0.9473 -0.5113
15311SOL     OW51768   3.434   0.658   7.130  0.0778 -0.6793  0.0298
15311SOL    HW151769   3.358   0.706   7.098  1.0939  0.4582 -0.7624
15311SOL    HW251770   3.436   0.676   7.224  0.3864  0.8199 -0.2342
15312SOL     OW51771   3.086   0.387   4.191  0.1017  0.6649  0.0693
15312SOL    HW151772   3.134   0.377   4.273 -1.0888 -0.0527  0.7048
15312SOL    HW251773   3.001   0.422   4.218 -0.8255 -0.9085 -0.6770
15313SOL     OW51774   1.859   8.784   7.322 -0.7702 -0.1738  0.0470
15313SOL    HW151775   1.928   8.726   7.356 -1.1598 -0.6100  0.1109
15313SOL    HW251776   1.829   8.741   7.242 -2.0036 -0.7960  0.8101
15314SOL     OW51777  10.173   8.090   7.167  0.1568  0.2342 -0.2504
15314SOL    HW151778  10.095   8.096   7.222  0.0752  2.0718 -0.5069
15314SOL    HW251779  10.162   8.007   7.120 -1.0075 -0.1480  0.6424
15315SOL     OW51780   8.446   5.219   0.246  0.1740 -0.1585  0.6510
15315SOL    HW151781   8.520   5.272   0.217  0.5029 -1.4846 -1.1063
15315SOL    HW251782   8.397   5.276   0.305  1.4064  1.5022  0.1330
15316SOL     OW51783   6.501   2.982   0.035 -0.5714 -0.7266 -0.8159
15316SOL    HW151784   6.552   3.034  -0.027  0.6397 -2.4489 -1.3275
15316SOL    HW251785   6.481   3.043   0.106 -0.9561  0.9618 -2.3047
15317SOL     OW51786   5.388   4.769   0.860 -0.2229 -0.5226 -0.0559
15317SOL    HW151787   5.306   4.771   0.909 -0.1603 -0.0767  0.0399
15317SOL    HW251788   5.396   4.857   0.824  0.3426 -0.4817  0.1552
15318SOL     OW51789   7.004  10.077  10.275 -0.5018 -0.1382  0.5970
15318SOL    HW151790   7.085  10.102  10.232 -0.3986  0.4195  1.1080
15318SOL    HW251791   6.998  10.134  10.352 -2.4155  1.3042 -0.5327
15319SOL     OW51792  10.884   6.320   6.556  0.1187 -0.0399  0.8897
15319SOL    HW151793  10.930   6.238   6.539  0.4314 -0.3086  2.7818
15319SOL    HW251794  10.952   6.387   6.553  0.6236 -0.3593  3.0364
15320SOL     OW51795   6.785   3.109  10.770  0.0836  0.5471 -0.4219
15320SOL    HW151796   6.798   3.111  10.865  0.5021  0.9705 -0.4866
15320SOL    HW251797   6.873   3.118  10.734  0.1645 -1.5075 -0.8544
15321SOL     OW51798   1.859   6.179   2.495  0.4330 -0.5605  0.8877
15321SOL    HW151799   1.881   6.213   2.408  0.4662 -2.6266  0.0173
15321SOL    HW251800   1.932   6.205   2.550 -0.3106  2.1264  0.7198
15322SOL     OW51801   2.931   5.874   2.805  0.4533  0.4205 -0.2069
15322SOL    HW151802   2.905   5.962   2.779  1.3779  0.7969  0.0909
15322SOL    HW251803   3.011   5.857   2.755 -0.9625 -1.1912 -2.0548
15323SOL     OW51804   1.133   0.986   4.152  0.0803  0.1094 -0.3355
15323SOL    HW151805   1.065   0.920   4.161 -0.6023  0.9010  0.4981
15323SOL    HW251806   1.207   0.951   4.201 -0.3239  0.0069  0.2075
15324SOL     OW51807   2.110   4.461   4.001  0.3133 -0.1912  0.3849
15324SOL    HW151808   2.202   4.467   3.975 -0.0803 -1.0471 -1.3770
15324SOL    HW251809   2.066   4.525   3.946 -0.2408 -0.3365  0.6600
15325SOL     OW51810   1.098   0.213   0.804  0.1146  0.2261  0.1570
15325SOL    HW151811   1.095   0.267   0.883  0.6171  0.4457  0.0311
15325SOL    HW251812   1.076   0.125   0.835 -0.7185  0.5016  0.3595
15326SOL     OW51813   6.468   8.073   5.701 -0.0763 -0.0435  0.3565
15326SOL    HW151814   6.418   8.124   5.765 -0.6822 -0.1053 -0.0670
15326SOL    HW251815   6.529   8.136   5.663 -0.0237  0.0965  0.6634
15327SOL     OW51816   7.217   2.547   4.690 -0.0842  0.1099 -0.9035
15327SOL    HW151817   7.252   2.478   4.634  2.5607 -0.1374  0.8863
15327SOL    HW251818   7.204   2.505   4.775 -1.1594  1.1798 -0.5043
15328SOL     OW51819   3.356   2.460   2.352 -0.5141 -0.4058  0.4545
15328SOL    HW151820   3.276   2.486   2.306 -0.1172  1.1548  0.6009
15328SOL    HW251821   3.426   2.479   2.289 -0.0897  0.3643  1.1417
15329SOL     OW51822   8.619   3.719   0.950  0.3325  0.2859  0.1935
15329SOL    HW151823   8.593   3.713   1.042  0.8836 -1.5487  0.2610
15329SOL    HW251824   8.714   3.730   0.952  0.4620 -0.6968 -0.1597
15330SOL     OW51825   3.395   1.148   5.910 -0.8593  0.1552 -0.4593
15330SOL    HW151826   3.415   1.144   6.004 -0.0178 -0.4501 -0.6605
15330SOL    HW251827   3.420   1.062   5.877  0.2501  0.8652 -1.5211
15331SOL     OW51828   2.737   1.798   1.394  0.7381  0.1645  0.4411
15331SOL    HW151829   2.797   1.860   1.436  0.3039  1.8835 -1.3604
15331SOL    HW251830   2.665   1.788   1.457  1.1564  0.9451  1.0522
15332SOL     OW51831   7.413   0.074   3.951 -0.2018  0.2914 -0.2162
15332SOL    HW151832   7.374   0.010   4.011  0.3293 -0.0949 -0.2753
15332SOL    HW251833   7.353   0.078   3.877  0.0806 -0.6220 -0.5076
15333SOL     OW51834   2.953   5.523   4.001 -0.1714 -0.1487 -0.0682
15333SOL    HW151835   2.925   5.435   4.027 -1.0078 -0.5046 -1.9799
15333SOL    HW251836   3.047   5.524   4.013 -0.4736 -0.2651  2.8278
15334SOL     OW51837  10.794   5.992   9.323  0.0624  0.0914 -0.4624
15334SOL    HW151838  10.864   5.928   9.338  0.6052  0.6982 -0.3613
15334SOL    HW251839  10.840   6.073   9.300 -0.4939  1.0387  1.4917
15335SOL     OW51840   3.056   7.241   8.327  0.0599  0.0606  0.4851
15335SOL    HW151841   3.044   7.158   8.373 -0.6373 -0.0450  0.1204
15335SOL    HW251842   2.986   7.243   8.262 -0.0579  1.0308  0.6259
15336SOL     OW51843   0.403   0.041   6.095 -0.7321 -0.4539  0.0418
15336SOL    HW151844   0.499   0.049   6.095 -0.5865 -1.9060 -0.0875
15336SOL    HW251845   0.374   0.103   6.028  0.2459 -1.1168 -1.0307
15337SOL     OW51846   0.055   1.850   5.316  0.3794 -0.4696 -0.4281
15337SOL    HW151847   0.051   1.773   5.373 -0.9532 -0.7974 -0.9238
15337SOL    HW251848   0.117   1.909   5.359 -0.7593 -0.5960  1.5031
15338SOL     OW51849   2.555   6.867   6.992 -0.1673 -0.0629  0.3818
15338SOL    HW151850   2.555   6.887   7.086  1.9419  1.1375  0.1862
15338SOL    HW251851   2.624   6.802   6.980 -1.3510 -1.2761 -0.2001
15339SOL     OW51852   0.921  10.178   3.170  0.2559 -0.2337  0.2524
15339SOL    HW151853   0.876  10.199   3.088  0.1348  1.3434  0.6955
15339SOL    HW251854   1.013  10.193   3.151  0.6212 -2.7789 -0.4401
15340SOL     OW51855   1.817   8.084  10.301  0.0328  0.4961 -0.4197
15340SOL    HW151856   1.893   8.052  10.252 -1.0659 -0.7877 -1.3615
15340SOL    HW251857   1.769   8.005  10.324 -2.0287  1.3519 -1.5412
15341SOL     OW51858   1.930   2.172   6.486 -0.4441  0.1912  0.4365
15341SOL    HW151859   1.970   2.257   6.465  0.9512 -0.4286  0.4654
15341SOL    HW251860   1.982   2.109   6.437 -1.5178 -0.6619  0.3542
15342SOL     OW51861   1.214   4.047   1.381 -0.0709  0.3980 -0.1654
15342SOL    HW151862   1.121   4.048   1.403 -0.4719  0.6869 -1.7232
15342SOL    HW251863   1.225   4.122   1.322  1.1368  0.3385 -0.0336
15343SOL     OW51864   3.429   4.856   3.852  0.7158  0.5983 -0.0956
15343SOL    HW151865   3.519   4.887   3.859  0.5508  1.4187 -1.3914
15343SOL    HW251866   3.419   4.797   3.927  2.0018  1.2760  0.6529
15344SOL     OW51867   9.000   9.532   9.525 -0.1318 -0.0692 -0.8396
15344SOL    HW151868   9.032   9.491   9.444 -1.3556 -1.5166 -0.6364
15344SOL    HW251869   8.978   9.621   9.499  0.4688 -0.1936 -1.8506
15345SOL     OW51870   6.883   2.595   3.557  0.1261  0.1896 -0.3235
15345SOL    HW151871   6.908   2.526   3.495 -1.6472  0.1228 -1.0443
15345SOL    HW251872   6.937   2.670   3.533  3.2682 -1.3118  1.5088
15346SOL     OW51873   9.480   5.419   2.821 -0.0198 -0.2757  0.3810
15346SOL    HW151874   9.408   5.356   2.810  1.9569 -2.5669 -0.3195
15346SOL    HW251875   9.520   5.395   2.904  0.6420  0.1906  0.2058
15347SOL     OW51876   1.862   2.892   0.233  0.3576 -0.1272 -0.5719
15347SOL    HW151877   1.838   2.895   0.326  0.6589 -1.3722 -0.4314
15347SOL    HW251878   1.802   2.827   0.196  1.4335 -0.9794 -0.8600
15348SOL     OW51879   8.605   7.006   9.060 -0.2613  0.0613  0.2469
15348SOL    HW151880   8.698   6.983   9.060 -0.4920 -0.8803  0.3936
15348SOL    HW251881   8.573   6.976   8.975 -0.0705  1.9555 -0.5539
15349SOL     OW51882   4.972   8.805   3.969  0.1066  0.0351  0.0490
15349SOL    HW151883   4.989   8.889   4.012  2.1356  0.5698 -1.6483
15349SOL    HW251884   5.022   8.808   3.888  1.7109 -3.4802  0.6789
15350SOL     OW51885   7.800   3.382   7.226  0.1432 -0.3231  0.0553
15350SOL    HW151886   7.828   3.361   7.316 -0.5409 -0.7755  0.1738
15350SOL    HW251887   7.801   3.298   7.181 -1.6798 -0.5059  0.2583
15351SOL     OW51888   3.639   4.864   7.323  0.0707  0.0288  0.4273
15351SOL    HW151889   3.579   4.935   7.301 -0.8873 -1.2356 -1.4245
15351SOL    HW251890   3.607   4.830   7.406  1.3030  2.4685  1.9946
15352SOL     OW51891   4.901   0.587   7.097  0.2265  0.3723 -0.4943
15352SOL    HW151892   4.986   0.630   7.107 -0.7091  2.3601 -0.5204
15352SOL    HW251893   4.842   0.657   7.067 -1.6408 -0.6875  0.4883
15353SOL     OW51894   2.919   9.938   4.841 -0.4569 -0.1285 -0.0020
15353SOL    HW151895   2.895   9.920   4.751 -1.1051 -1.1435  0.3569
15353SOL    HW251896   2.966   9.860   4.870 -0.2010  0.2112  0.5133
15354SOL     OW51897   1.713   5.004   8.819 -0.1300  0.6044 -0.4874
15354SOL    HW151898   1.699   5.068   8.749 -0.1115  0.7633 -0.3485
15354SOL    HW251899   1.796   5.031   8.860 -0.2462  0.6401 -0.2720
15355SOL     OW51900   2.418   0.868  10.912 -0.2335 -0.1045  0.3724
15355SOL    HW151901   2.489   0.823  10.959  0.9399  3.4323  2.4100
15355SOL    HW251902   2.368   0.911  10.981 -1.2433  1.6437 -1.3554
15356SOL     OW51903   1.378   5.594   2.729 -0.4048  0.0146  0.3389
15356SOL    HW151904   1.375   5.688   2.747 -1.2406  0.8204 -3.3356
15356SOL    HW251905   1.469   5.570   2.742  0.6528  2.2272 -2.2303
15357SOL     OW51906  10.287   0.767  10.072  0.6878 -0.1887 -0.1955
15357SOL    HW151907  10.307   0.694  10.013 -1.4733 -0.7699 -0.3168
15357SOL    HW251908  10.276   0.842  10.015 -0.6108 -0.5803 -0.5038
15358SOL     OW51909   4.388   5.344   1.351  0.3654 -0.3540  0.2304
15358SOL    HW151910   4.313   5.365   1.295  1.1611 -0.9387 -1.1344
15358SOL    HW251911   4.353   5.342   1.440 -1.6436 -2.3366 -0.5058
15359SOL     OW51912   3.690  10.451   8.083  0.1086 -0.4856 -0.4479
15359SOL    HW151913   3.668  10.365   8.047 -1.1777 -0.1121 -0.5980
15359SOL    HW251914   3.765  10.434   8.141 -0.3194 -1.7654 -0.2335
15360SOL     OW51915   9.025   4.473   2.586 -0.2403  0.3715 -0.1959
15360SOL    HW151916   9.068   4.543   2.538  1.1735  0.2923  0.8879
15360SOL    HW251917   9.092   4.440   2.646 -1.1753 -1.2351  0.0218
15361SOL     OW51918   3.213   7.980   9.550 -0.4794  0.2048 -0.1369
15361SOL    HW151919   3.181   8.062   9.513 -1.1981 -0.3682 -0.8262
15361SOL    HW251920   3.262   7.939   9.478  0.1028  0.1413  0.2855
15362SOL     OW51921   0.194   2.111   8.693  0.8656 -0.0006 -0.0877
15362SOL    HW151922   0.277   2.150   8.665  0.7934  0.9688  0.9872
15362SOL    HW251923   0.149   2.090   8.612  1.7474  0.3480 -0.6883
15363SOL     OW51924   9.442   4.910   5.363  0.5319 -0.0916  0.0008
15363SOL    HW151925   9.442   4.990   5.415 -1.2266  0.3570 -0.6294
15363SOL    HW251926   9.530   4.907   5.324  0.3373  2.0867 -0.7485
15364SOL     OW51927   4.315   4.907   2.544  0.0710 -0.1744  0.1366
15364SOL    HW151928   4.327   4.812   2.536 -1.2553 -0.4764  1.4000
15364SOL    HW251929   4.256   4.930   2.473  0.6995 -0.2202 -0.4080
15365SOL     OW51930   1.747   9.418   2.276  0.1121 -0.2488  0.0604
15365SOL    HW151931   1.747   9.511   2.300  0.0525  0.1049 -1.2736
15365SOL    HW251932   1.831   9.403   2.234  0.1903 -0.8512  0.4113
15366SOL     OW51933   2.950   2.540   5.766 -0.2712  0.2473 -0.0659
15366SOL    HW151934   2.962   2.590   5.847 -0.3034 -0.1292  0.1732
15366SOL    HW251935   3.021   2.568   5.710 -0.4251  0.7370 -0.0203
15367SOL     OW51936   7.171   3.382   2.849 -0.1495  0.3101 -0.4122
15367SOL    HW151937   7.257   3.361   2.813  0.1498 -1.1993  1.1172
15367SOL    HW251938   7.110   3.335   2.793  0.1523 -0.1569 -0.3534
15368SOL     OW51939  10.199   0.052   2.321  0.4100 -0.3243  0.0098
15368SOL    HW151940  10.222   0.006   2.402  0.2406 -2.7368 -1.2230
15368SOL    HW251941  10.281   0.053   2.271  0.1977 -0.0463 -0.3323
15369SOL     OW51942   6.474   7.560   7.145  0.5455  0.3858  0.5298
15369SOL    HW151943   6.521   7.567   7.062 -1.5160  0.9684 -0.6538
15369SOL    HW251944   6.534   7.598   7.210  3.0897 -2.0269 -0.2408
15370SOL     OW51945   7.769   3.586   4.089 -0.2781 -0.4273  0.1826
15370SOL    HW151946   7.717   3.509   4.113 -0.1581  0.3271  3.2731
15370SOL    HW251947   7.732   3.656   4.143  0.8199  1.2631 -1.1938
15371SOL     OW51948   9.049   4.307   9.234 -0.2903 -0.3519  0.2285
15371SOL    HW151949   9.069   4.349   9.151  0.7390 -1.6429 -0.2139
15371SOL    HW251950   9.123   4.331   9.291 -0.5096 -0.2512  0.4736
15372SOL     OW51951   9.374   3.681   0.940  0.2659 -0.6315  0.0100
15372SOL    HW151952   9.443   3.616   0.927  0.7435  0.0792 -1.2480
15372SOL    HW251953   9.367   3.691   1.035  1.6325 -1.0073  0.1674
15373SOL     OW51954   5.656   7.947   3.639 -0.0576  0.4650  0.4571
15373SOL    HW151955   5.595   7.876   3.620  1.2318 -0.4773 -0.3377
15373SOL    HW251956   5.621   8.023   3.593 -0.7232 -0.0172  0.1697
15374SOL     OW51957   2.348  10.606   6.915  0.2292  0.1538  0.0054
15374SOL    HW151958   2.357  10.598   6.820  1.4339  0.5367  0.0673
15374SOL    HW251959   2.336  10.700   6.931  2.2438  0.3949  0.3561
15375SOL     OW51960   9.326   3.520  10.487 -0.1889  0.0421  0.0194
15375SOL    HW151961   9.319   3.435  10.531  1.5104  0.3014  0.8385
15375SOL    HW251962   9.296   3.584  10.551 -0.8576  0.1379 -0.3771
15376SOL     OW51963   8.399   7.809   7.449  0.2745  0.1704  0.3012
15376SOL    HW151964   8.304   7.813   7.461 -0.0696 -0.6247 -1.6933
15376SOL    HW251965   8.424   7.899   7.429 -0.3896  0.0996 -0.9817
15377SOL     OW51966   0.985   3.287   0.728 -0.4898  0.9243 -0.6960
15377SOL    HW151967   0.939   3.308   0.809 -0.3171  1.4768 -0.7331
15377SOL    HW251968   1.078   3.289   0.751 -0.4721 -0.8560 -0.4644
15378SOL     OW51969   5.698   8.583   7.956 -0.3504 -0.4958 -0.3161
15378SOL    HW151970   5.633   8.652   7.941 -0.1101 -0.2890 -0.4267
15378SOL    HW251971   5.659   8.504   7.918 -0.8795 -0.5566  0.3242
15379SOL     OW51972   6.031   4.132   4.371  0.0841 -0.2175  0.7620
15379SOL    HW151973   6.012   4.190   4.297 -1.8279 -0.2287  1.2114
15379SOL    HW251974   6.117   4.162   4.402  0.2014  0.8243 -0.4535
15380SOL     OW51975   7.881   6.465   6.284 -0.6115  0.9570 -0.0293
15380SOL    HW151976   7.959   6.476   6.338  0.9051 -0.2768 -1.7983
15380SOL    HW251977   7.829   6.398   6.329  0.4039  0.2636  0.1394
15381SOL     OW51978   7.988   1.838   1.667 -0.0853 -0.0310 -0.1370
15381SOL    HW151979   7.966   1.918   1.714 -0.7932 -0.2728 -0.0370
15381SOL    HW251980   8.070   1.858   1.622 -0.3036  0.7785 -0.1928
15382SOL     OW51981  10.731   7.411   9.206 -0.8672  0.2813 -0.6640
15382SOL    HW151982  10.751   7.503   9.222  1.5347 -0.2818  0.0081
15382SOL    HW251983  10.653   7.394   9.259 -0.0016  1.3924  1.0636
15383SOL     OW51984   7.498   4.160   6.733  0.0342  0.0124 -0.0259
15383SOL    HW151985   7.534   4.131   6.650  0.2864 -0.3806  0.2185
15383SOL    HW251986   7.405   4.174   6.715 -0.2786 -1.7449  0.0378
15384SOL     OW51987   4.215   7.715   4.784  0.1339 -0.1615 -0.2410
15384SOL    HW151988   4.124   7.741   4.797  0.1266 -0.4852  0.4232
15384SOL    HW251989   4.262   7.797   4.770 -0.6194 -0.1239 -3.1655
15385SOL     OW51990   1.324   4.335   9.355  0.2900  0.0881  0.0385
15385SOL    HW151991   1.335   4.427   9.330 -3.4912  0.2385 -1.8591
15385SOL    HW251992   1.236   4.332   9.395  0.6236 -2.5997  0.7450
15386SOL     OW51993   1.311  10.042   4.089  0.2039 -0.1661  0.0395
15386SOL    HW151994   1.252  10.060   4.016 -1.7344 -1.2263  1.2583
15386SOL    HW251995   1.295  10.112   4.151  1.6429  0.5773 -0.3791
15387SOL     OW51996   2.868   8.230   3.691 -0.3845 -0.0605  0.0177
15387SOL    HW151997   2.881   8.214   3.598  2.5934  1.5730  0.0252
15387SOL    HW251998   2.929   8.171   3.735 -0.1025  0.7746  0.7848
15388SOL     OW51999   6.715   9.335   3.050  0.0424  0.1341  0.2626
15388SOL    HW152000   6.676   9.272   3.111 -0.2399  0.4007  0.3620
15388SOL    HW252001   6.772   9.283   2.994  0.3517 -0.1083  0.7941
15389SOL     OW52002   0.277   2.110   6.509 -0.0835  0.3321 -0.5147
15389SOL    HW152003   0.350   2.131   6.567  0.8198 -1.2600 -1.0215
15389SOL    HW252004   0.313   2.049   6.446 -1.8489 -0.4677 -0.8095
15390SOL     OW52005   8.019   6.295   4.249 -0.7268 -0.0940 -0.1667
15390SOL    HW152006   8.085   6.314   4.316  0.2884 -0.7840 -0.9326
15390SOL    HW252007   8.069   6.283   4.168 -1.8410 -0.1719 -0.8782
15391SOL     OW52008   6.308  10.840   7.977  0.2390  0.1171 -0.2359
15391SOL    HW152009   6.247  10.766   7.980  1.3680 -0.8273  0.5603
15391SOL    HW252010   6.322  10.863   8.069  1.4924 -0.0650 -0.3651
15392SOL     OW52011   7.143  10.120   6.032  0.5206 -0.1712 -0.2627
15392SOL    HW152012   7.051  10.123   6.058  0.0033 -0.2099 -1.9639
15392SOL    HW252013   7.150  10.186   5.963  1.6984 -0.4173 -0.3991
15393SOL     OW52014   9.390   3.451   5.321 -0.1319 -0.0359  0.4283
15393SOL    HW152015   9.403   3.522   5.259 -0.5528 -1.2125 -1.0588
15393SOL    HW252016   9.479   3.419   5.339 -0.1184 -1.2647 -1.5319
15394SOL     OW52017   4.536   6.287  10.554  0.0720  0.6737  0.1345
15394SOL    HW152018   4.595   6.236  10.499  0.0408  0.9121 -0.1220
15394SOL    HW252019   4.450   6.248  10.540 -0.0302  1.0907 -0.4244
15395SOL     OW52020  10.433   4.689   0.368  0.7835  0.7713  0.3340
15395SOL    HW152021  10.451   4.637   0.290  0.7826  3.3069 -1.4911
15395SOL    HW252022  10.344   4.666   0.392  0.6410  0.2332 -0.6520
15396SOL     OW52023   3.655   3.387   0.705  0.4026  0.2335 -0.2169
15396SOL    HW152024   3.714   3.340   0.763 -0.7092 -0.8335  0.0959
15396SOL    HW252025   3.615   3.319   0.650  0.1368  1.0242 -1.0314
15397SOL     OW52026   1.722   1.793   6.882  0.1254 -0.2849 -0.2915
15397SOL    HW152027   1.694   1.703   6.867  1.2902 -0.5913 -0.7088
15397SOL    HW252028   1.738   1.828   6.795  0.8788 -0.0735 -0.0738
15398SOL     OW52029   3.520   6.543   0.424 -0.2216  0.0648 -0.2249
15398SOL    HW152030   3.546   6.591   0.346 -0.6448 -0.6312 -0.8021
15398SOL    HW252031   3.540   6.451   0.405 -0.1168 -0.0921  0.5710
15399SOL     OW52032   6.206   4.675  10.204  0.2870  0.0754 -0.3504
15399SOL    HW152033   6.240   4.595  10.244 -0.4784 -0.0074  0.1530
15399SOL    HW252034   6.261   4.689  10.127  1.2075 -0.2594  0.2376
15400SOL     OW52035   1.496   4.842   0.250  0.3324  0.3131 -0.4563
15400SOL    HW152036   1.546   4.761   0.261 -0.9899 -0.4605  0.0768
15400SOL    HW252037   1.419   4.831   0.305  0.6916  2.4634  0.5793
15401SOL     OW52038   6.865   7.669   9.922  0.3960  0.3475 -0.5275
15401SOL    HW152039   6.913   7.712   9.992  1.9649 -1.4226 -0.4229
15401SOL    HW252040   6.925   7.671   9.847  0.2558 -1.0098 -0.7027
15402SOL     OW52041   9.807   8.576   5.871 -0.0299  0.2886  0.1024
15402SOL    HW152042   9.794   8.529   5.788  0.2679  0.7207 -0.1918
15402SOL    HW252043   9.826   8.666   5.845  0.7680  0.2730  0.6199
15403SOL     OW52044   5.707   5.541   1.600 -0.4286 -0.2375 -0.3374
15403SOL    HW152045   5.785   5.581   1.563 -0.4321  1.7522  1.5914
15403SOL    HW252046   5.636   5.569   1.543 -0.3448  2.1320  0.6279
15404SOL     OW52047   2.639   3.784   6.948  0.1938 -0.4483  0.7689
15404SOL    HW152048   2.644   3.830   7.032 -3.6929  2.3379 -0.2480
15404SOL    HW252049   2.656   3.851   6.882 -1.4608 -1.3860 -0.7157
15405SOL     OW52050   3.235   6.366   1.117  0.6485  0.4183  0.0479
15405SOL    HW152051   3.158   6.409   1.153  1.4124  1.6880  0.2422
15405SOL    HW252052   3.276   6.324   1.193  1.2977  1.5820  0.3600
15406SOL     OW52053   1.181   2.435   1.989 -0.5076  0.2346 -0.1797
15406SOL    HW152054   1.095   2.392   1.990 -0.2606 -0.2578  1.2078
15406SOL    HW252055   1.168   2.516   2.038 -0.0333 -0.1640  0.6216
15407SOL     OW52056   0.277   5.611   3.856  0.1751 -0.2792  0.1353
15407SOL    HW152057   0.279   5.605   3.760  0.9110 -1.1171  0.1897
15407SOL    HW252058   0.223   5.688   3.874  0.9263  0.5362 -0.9682
15408SOL     OW52059  10.374   5.838  10.378  0.7578  0.3961  0.0484
15408SOL    HW152060  10.303   5.787  10.338  0.2556  0.4540  0.8386
15408SOL    HW252061  10.329   5.904  10.430  1.3867 -0.0649  1.2006
15409SOL     OW52062   6.777   0.193   7.384 -0.0677 -0.5589 -0.4849
15409SOL    HW152063   6.762   0.144   7.302 -2.4902 -1.4504  0.3920
15409SOL    HW252064   6.729   0.275   7.372 -1.4920 -1.2183  0.4516
15410SOL     OW52065   3.722   5.810  10.683 -0.0290  0.5215  0.1282
15410SOL    HW152066   3.759   5.810  10.595 -0.5713 -0.2329 -0.1145
15410SOL    HW252067   3.627   5.817  10.669  0.0089  4.1560  0.7685
15411SOL     OW52068   2.329  10.391   9.780  0.2804 -0.0646 -0.0586
15411SOL    HW152069   2.362  10.373   9.692  1.6051  0.5897  0.2765
15411SOL    HW252070   2.316  10.485   9.782  0.6345 -0.0225  0.5645
15412SOL     OW52071   8.050   8.110   9.663 -0.2001  0.0788 -0.2262
15412SOL    HW152072   8.106   8.169   9.715 -2.5943  0.0625  2.6650
15412SOL    HW252073   8.094   8.025   9.668  0.5391  0.4734  0.2278
15413SOL     OW52074   8.790   6.536   4.336  0.2510  0.5437  0.0814
15413SOL    HW152075   8.759   6.450   4.365 -0.3328  0.7550  0.0956
15413SOL    HW252076   8.874   6.518   4.293  0.3809  0.0346  0.5403
15414SOL     OW52077   5.466   6.419   2.891 -0.3246 -0.1440 -0.1551
15414SOL    HW152078   5.473   6.498   2.839  1.9800 -0.1153  0.0509
15414SOL    HW252079   5.557   6.396   2.911 -1.0176 -1.3113  2.0785
15415SOL     OW52080   1.375   9.547   1.169 -0.4064  0.4535  0.2032
15415SOL    HW152081   1.342   9.534   1.080 -3.2892  1.0913  1.0715
15415SOL    HW252082   1.329   9.481   1.221  0.9451  0.3448  1.2924
15416SOL     OW52083  10.242   4.299   5.956 -0.6809 -0.3262  0.0517
15416SOL    HW152084  10.185   4.228   5.984 -0.8464  0.2514  1.2624
15416SOL    HW252085  10.264   4.346   6.036  0.3780  0.2968 -0.5660
15417SOL     OW52086   7.663   4.362   4.447  0.2775 -0.9417  0.3387
15417SOL    HW152087   7.644   4.338   4.356 -0.1765 -1.0954  0.4711
15417SOL    HW252088   7.597   4.428   4.468 -0.1165 -1.4813  0.8088
15418SOL     OW52089   2.130   7.732   2.585 -0.1231  0.5309 -0.3484
15418SOL    HW152090   2.087   7.810   2.548 -1.2284  0.2227  0.2473
15418SOL    HW252091   2.139   7.673   2.510  0.0237  0.9247 -0.6483
15419SOL     OW52092  10.158   1.902   7.644  0.3060  0.7310  0.3430
15419SOL    HW152093  10.183   1.955   7.569  0.5870  0.3813  0.1877
15419SOL    HW252094  10.070   1.933   7.668  0.2194  0.8436 -0.1242
15420SOL     OW52095   0.994   6.443   7.954  0.5218  0.2332  0.0669
15420SOL    HW152096   0.980   6.405   7.868  2.0372  1.4085 -0.7523
15420SOL    HW252097   0.906   6.450   7.992  0.0418 -2.8459 -0.1896
15421SOL     OW52098   8.118  10.815   8.489 -0.2343  0.0262 -0.5414
15421SOL    HW152099   8.087  10.767   8.411  0.5845 -0.4276 -0.5927
15421SOL    HW252100   8.061  10.892   8.493 -1.8523 -1.1205 -0.2297
15422SOL     OW52101   8.258   3.685   1.991  0.3560  0.0984 -0.3548
15422SOL    HW152102   8.275   3.639   2.074  0.4316  0.3514 -0.2273
15422SOL    HW252103   8.294   3.772   2.005 -1.3175  0.7771  0.0536
15423SOL     OW52104   3.112   5.150   3.247  0.1409  0.0313  0.0701
15423SOL    HW152105   3.030   5.115   3.214  0.8238 -1.3654 -0.1907
15423SOL    HW252106   3.103   5.149   3.342  0.1245 -0.7847  0.0585
15424SOL     OW52107   9.661   1.054   5.537 -0.2115 -0.0776  0.0854
15424SOL    HW152108   9.742   1.008   5.514  2.0113  3.5061 -0.0616
15424SOL    HW252109   9.639   1.021   5.624 -0.9842 -3.9592 -1.3623
15425SOL     OW52110   7.085   8.383   4.838 -0.4122  0.1220  0.7577
15425SOL    HW152111   7.096   8.465   4.790  0.8529 -0.5300 -0.1178
15425SOL    HW252112   7.112   8.315   4.776 -1.6697 -0.9964  1.3767
15426SOL     OW52113   8.698   0.617   4.891 -0.5308  0.0440  0.1174
15426SOL    HW152114   8.769   0.617   4.955 -0.3421 -1.4358 -0.0572
15426SOL    HW252115   8.730   0.672   4.819 -0.6909  1.6223  1.1850
15427SOL     OW52116   3.175   3.776   5.963  0.6204 -0.3307 -0.3910
15427SOL    HW152117   3.261   3.743   5.989  0.2312 -0.2953  1.0322
15427SOL    HW252118   3.116   3.702   5.977  0.4210 -0.3967 -1.4913
15428SOL     OW52119   7.080  10.655  10.394  0.0334  0.1393 -0.5498
15428SOL    HW152120   7.075  10.720  10.324 -0.4234 -0.0695 -0.7122
15428SOL    HW252121   7.119  10.578  10.352 -0.4185 -0.0499 -0.6205
15429SOL     OW52122   4.615   1.623   7.904  0.2959  0.4738  0.2802
15429SOL    HW152123   4.697   1.629   7.855  0.7710 -0.0932  0.9923
15429SOL    HW252124   4.638   1.648   7.993 -0.4018  0.7291  0.3953
15430SOL     OW52125   3.274   1.210   7.988  0.6678 -0.1130  0.1168
15430SOL    HW152126   3.309   1.298   8.004  2.3392 -0.4924 -1.1899
15430SOL    HW252127   3.194   1.225   7.937  0.8437  0.6680  0.0536
15431SOL     OW52128   5.370   6.447  10.448 -0.0725  0.7398  0.2376
15431SOL    HW152129   5.362   6.430  10.541 -0.1743  2.0389  0.4825
15431SOL    HW252130   5.357   6.541  10.439  0.3550  0.7015 -1.0381
15432SOL     OW52131   0.122   8.057   4.841 -0.4954  0.1067  0.6889
15432SOL    HW152132   0.130   8.115   4.917  0.5670  0.4616  0.3264
15432SOL    HW252133   0.208   8.060   4.800 -0.1287 -2.3625  1.0908
15433SOL     OW52134   2.675   2.430   2.384  0.1672  0.4251  0.5313
15433SOL    HW152135   2.741   2.488   2.346  1.5350 -0.3720  1.5900
15433SOL    HW252136   2.616   2.489   2.433  0.2639  1.1129 -0.1667
15434SOL     OW52137  10.838   2.638  10.190 -0.1213 -0.0379  0.3749
15434SOL    HW152138  10.918   2.612  10.236  1.0047  0.0414 -1.4547
15434SOL    HW252139  10.778   2.565  10.205  0.4285 -0.3027  1.4045
15435SOL     OW52140   2.973   4.424   9.044  0.0050 -0.4691 -0.3982
15435SOL    HW152141   2.948   4.363   9.114 -0.3360 -0.5704 -0.6038
15435SOL    HW252142   3.064   4.446   9.062 -0.2502 -0.0223  0.4373
15436SOL     OW52143   4.826   8.859   7.392  0.3827  0.3340  0.4080
15436SOL    HW152144   4.855   8.781   7.439  1.0021  0.0875 -0.3687
15436SOL    HW252145   4.787   8.914   7.460 -0.5938 -0.8850  0.8890
15437SOL     OW52146   2.135   1.455   3.959  0.7054  0.6372  0.3813
15437SOL    HW152147   2.104   1.457   3.869 -0.2496 -0.4334  0.6503
15437SOL    HW252148   2.159   1.546   3.979  0.9280  0.8800 -0.9311
15438SOL     OW52149   8.274   2.382   4.672  0.0497 -0.0245  0.3181
15438SOL    HW152150   8.354   2.350   4.714  0.8583 -0.2369 -1.3195
15438SOL    HW252151   8.280   2.478   4.680  0.8664 -0.0029 -0.4798
15439SOL     OW52152   5.259   0.978   9.787  0.0682  0.6268  0.8880
15439SOL    HW152153   5.343   1.007   9.752 -0.4908 -0.1963 -1.3350
15439SOL    HW252154   5.272   0.885   9.807 -1.0909 -0.5214 -2.7796
15440SOL     OW52155   6.392   2.099   3.760  0.0400 -0.5526  0.1452
15440SOL    HW152156   6.362   2.113   3.670 -0.0963 -1.7384 -0.0144
15440SOL    HW252157   6.415   2.006   3.763  2.4796  0.0108  0.6265
15441SOL     OW52158   2.376   4.207  10.768 -0.0075  0.3943  0.6116
15441SOL    HW152159   2.308   4.274  10.761  1.1279  1.4091 -1.4050
15441SOL    HW252160   2.381   4.188  10.862 -2.1089  1.2663  0.9478
15442SOL     OW52161   4.395   7.954   2.951  0.0331 -0.2515  0.1283
15442SOL    HW152162   4.315   7.980   2.906 -1.3102 -1.3192  1.7836
15442SOL    HW252163   4.404   8.017   3.022  1.6481  0.8841 -1.0185
15443SOL     OW52164   9.572   9.942   4.954  0.1447 -0.3440 -0.1507
15443SOL    HW152165   9.494   9.959   5.007 -0.5255  2.6618 -1.8724
15443SOL    HW252166   9.646   9.956   5.013 -0.6003  1.5843  0.3810
15444SOL     OW52167   3.091   9.371   8.187 -0.3410  0.3868 -0.0924
15444SOL    HW152168   3.118   9.284   8.159  1.8085  1.1457 -0.5026
15444SOL    HW252169   3.062   9.359   8.278  1.2021 -0.5386  0.3045
15445SOL     OW52170  10.601   0.469   8.390  0.1168  0.1146  0.0452
15445SOL    HW152171  10.564   0.556   8.407 -0.6392  0.1064 -1.3935
15445SOL    HW252172  10.525   0.412   8.380  0.6080 -1.0675  2.4577
15446SOL     OW52173   7.963   6.857   7.325  0.0564  0.1268 -0.3361
15446SOL    HW152174   7.926   6.768   7.322 -0.3548  0.0462  3.0813
15446SOL    HW252175   7.933   6.898   7.244 -0.2397 -2.6245 -1.7529
15447SOL     OW52176   1.618  10.816   8.831  0.0373 -0.6423 -0.4087
15447SOL    HW152177   1.602  10.848   8.742  0.5018  0.7267 -0.0156
15447SOL    HW252178   1.534  10.778   8.858  0.1948 -2.0767 -1.8111
15448SOL     OW52179   4.373   0.082   9.117 -0.1571  0.1732  0.5608
15448SOL    HW152180   4.432   0.069   9.191 -0.4101  2.9167  1.3525
15448SOL    HW252181   4.289   0.105   9.157 -0.3176  1.6110 -0.5259
15449SOL     OW52182   7.901   4.058   9.565 -0.0260 -0.6855  0.6343
15449SOL    HW152183   7.834   4.122   9.588  0.2249 -0.2292  0.1351
15449SOL    HW252184   7.895   4.050   9.470  1.2232  0.0559  0.4639
15450SOL     OW52185  10.560   5.486  10.318 -0.0427  0.1796 -0.3326
15450SOL    HW152186  10.561   5.441  10.234  2.0788  1.4230 -1.0616
15450SOL    HW252187  10.554   5.579  10.295  0.5439  0.5403  0.8777
15451SOL     OW52188   9.455   7.356   8.742  0.0028 -0.1565  0.0579
15451SOL    HW152189   9.538   7.334   8.786  0.1047 -0.9718 -0.5068
15451SOL    HW252190   9.481   7.411   8.669 -0.0094  0.0156  0.1832
15452SOL     OW52191   9.199   6.501   1.868 -0.2292 -0.0225  0.0033
15452SOL    HW152192   9.239   6.588   1.880  0.8878 -0.4051 -0.7326
15452SOL    HW252193   9.266   6.440   1.898  0.3306 -0.7375 -2.4630
15453SOL     OW52194   1.790   1.698   1.705  0.0446  0.4852 -0.0245
15453SOL    HW152195   1.781   1.627   1.768 -0.5354  1.1500  0.6652
15453SOL    HW252196   1.703   1.737   1.700 -0.0108  0.2159 -1.5289
15454SOL     OW52197   3.028   3.274   6.419  0.1005 -0.1381  0.7245
15454SOL    HW152198   3.004   3.310   6.504  0.2002 -0.0536  0.7171
15454SOL    HW252199   2.958   3.303   6.360  1.4908  2.3202  0.1372
15455SOL     OW52200   5.611   0.669   2.257 -0.6389 -0.3372  0.1388
15455SOL    HW152201   5.570   0.738   2.203  0.6985 -0.6542 -1.3672
15455SOL    HW252202   5.567   0.589   2.230  0.7627 -0.6535 -1.3554
15456SOL     OW52203   7.485   0.693   1.082 -0.3289  0.8626  0.0751
15456SOL    HW152204   7.551   0.645   1.132  0.1014  0.7669 -0.5668
15456SOL    HW252205   7.525   0.778   1.063 -0.4377  0.8551 -0.1976
15457SOL     OW52206   5.633   8.862   0.072  0.4788 -0.3383  0.0628
15457SOL    HW152207   5.683   8.781   0.058 -0.1459 -0.9434  1.1936
15457SOL    HW252208   5.667   8.898   0.153  1.3458  1.0212 -0.8746
15458SOL     OW52209   9.823   4.722   5.585  0.9725  0.2911 -0.1633
15458SOL    HW152210   9.880   4.749   5.513  2.3769  0.3869  0.9480
15458SOL    HW252211   9.787   4.804   5.620  1.3622  0.3511  0.0993
15459SOL     OW52212  10.198   4.689   9.945 -0.1198  0.7115 -0.3416
15459SOL    HW152213  10.246   4.608   9.925  1.1070  0.7517  2.0535
15459SOL    HW252214  10.106   4.663   9.942  0.1524 -0.2186 -1.7222
15460SOL     OW52215   5.370   7.160   1.432  0.2730 -0.1792 -0.1358
15460SOL    HW152216   5.378   7.189   1.341  3.1670 -1.6189 -0.4799
15460SOL    HW252217   5.320   7.229   1.475 -1.0933  0.6212 -2.7520
15461SOL     OW52218   5.584   6.119   8.550 -0.1405  0.3886 -0.2173
15461SOL    HW152219   5.633   6.142   8.471  0.6313 -1.4891 -0.3363
15461SOL    HW252220   5.586   6.198   8.603  2.2417  0.6881 -0.6274
15462SOL     OW52221   0.793   3.903   5.567  0.5167 -0.2359 -0.0962
15462SOL    HW152222   0.781   3.987   5.523  1.4760 -0.2267 -0.3601
15462SOL    HW252223   0.785   3.923   5.660  0.9910  0.1967 -0.1457
15463SOL     OW52224   9.695  10.536   7.041 -0.3891  0.2878  0.7638
15463SOL    HW152225   9.637  10.483   6.987 -1.1117  0.7475  1.0662
15463SOL    HW252226   9.677  10.626   7.014  1.0807  0.3894 -0.0040
15464SOL     OW52227   1.862   4.022   1.819 -0.1721 -0.2749  0.2430
15464SOL    HW152228   1.795   3.984   1.761  0.4178  1.7400 -1.9377
15464SOL    HW252229   1.815   4.088   1.870 -0.1951 -0.1187  0.0230
15465SOL     OW52230   0.742   9.698   7.696  0.2509  0.7646 -0.1894
15465SOL    HW152231   0.826   9.740   7.678  0.4157  0.4841 -0.0725
15465SOL    HW252232   0.754   9.656   7.781  1.0941 -2.1367 -1.6411
15466SOL     OW52233   0.209   9.248   7.941 -0.0840 -0.2121 -0.1066
15466SOL    HW152234   0.253   9.332   7.957  1.1157 -0.9099  0.4269
15466SOL    HW252235   0.232   9.227   7.850 -0.0174 -0.1708 -0.0997
15467SOL     OW52236   2.273   2.750   5.892  0.8315 -0.0956 -0.2835
15467SOL    HW152237   2.361   2.778   5.866  1.1529  0.7984  1.6085
15467SOL    HW252238   2.274   2.751   5.988 -1.1577 -0.3563 -0.2069
15468SOL     OW52239   7.473   2.704   2.570 -0.2667  0.2313  0.0895
15468SOL    HW152240   7.382   2.673   2.570  0.1792 -1.1664 -1.0583
15468SOL    HW252241   7.481   2.755   2.490  0.5913 -1.7691 -1.1750
15469SOL     OW52242   4.835   1.862   1.992 -0.1872  0.6868  0.4457
15469SOL    HW152243   4.890   1.818   1.926 -0.9231  1.5949 -0.8223
15469SOL    HW252244   4.830   1.799   2.064 -0.4943 -0.9759 -0.9473
15470SOL     OW52245   8.118   4.406   0.052 -0.6800 -0.1160  0.2153
15470SOL    HW152246   8.114   4.483   0.109 -0.2380 -0.9343  1.3873
15470SOL    HW252247   8.165   4.436  -0.026 -0.5062  0.7969  0.6582
15471SOL     OW52248   0.362   9.498   7.938  0.1476 -0.3332 -0.3976
15471SOL    HW152249   0.442   9.462   7.901  1.3562 -0.0532  1.7898
15471SOL    HW252250   0.344   9.576   7.885  0.3355 -1.3414 -1.9856
15472SOL     OW52251  10.764   6.979   4.511 -0.3188  0.1168  0.3747
15472SOL    HW152252  10.714   7.036   4.569  0.4414  1.3197 -0.1153
15472SOL    HW252253  10.834   6.944   4.565 -1.1866 -0.9208  0.8528
15473SOL     OW52254   1.265   9.788   1.340 -0.0361  0.1840 -0.0615
15473SOL    HW152255   1.234   9.811   1.428  2.1541 -0.2269  0.8773
15473SOL    HW252256   1.192   9.741   1.301 -0.4344 -1.2974  2.2703
15474SOL     OW52257   0.674   9.101  10.839  0.4212 -0.4659  0.5655
15474SOL    HW152258   0.586   9.069  10.822  0.2296 -0.3272  1.2900
15474SOL    HW252259   0.729   9.023  10.832  0.1936 -0.6241  0.5078
15475SOL     OW52260   4.585  10.847   4.871 -0.1226 -0.3173  0.1538
15475SOL    HW152261   4.615  10.757   4.882  0.3003 -0.3909 -1.2974
15475SOL    HW252262   4.532  10.844   4.791  0.1839  0.7705 -0.1010
15476SOL     OW52263  10.824   0.164   3.037 -0.5171  0.2246 -0.2625
15476SOL    HW152264  10.778   0.088   3.001  1.1224 -0.9709  0.0267
15476SOL    HW252265  10.869   0.129   3.114 -0.5053  1.7424  0.4502
15477SOL     OW52266   9.969   0.597   4.061 -0.1587 -0.6693  0.2581
15477SOL    HW152267   9.914   0.521   4.042 -0.7553  0.2196 -1.8046
15477SOL    HW252268  10.057   0.560   4.072 -0.4541 -1.6768 -0.6078
15478SOL     OW52269   3.627   2.311   2.561  0.1294 -0.3184  0.2565
15478SOL    HW152270   3.571   2.369   2.510  0.0022  0.3858  1.1789
15478SOL    HW252271   3.708   2.305   2.509  0.5785  1.5960  0.6497
15479SOL     OW52272   2.459   6.953   7.538  0.3319 -0.2073  0.5094
15479SOL    HW152273   2.483   7.035   7.581 -1.1262  1.2309 -1.2516
15479SOL    HW252274   2.363   6.957   7.530  0.4532 -0.6294 -2.2674
15480SOL     OW52275   5.769   4.023   8.186 -0.6497 -0.0058  0.2855
15480SOL    HW152276   5.829   4.092   8.216 -2.1901  0.7137  1.9270
15480SOL    HW252277   5.761   3.964   8.260 -2.0759  0.0190  0.1888
15481SOL     OW52278   8.208   6.207   1.502 -0.9783 -0.2556  0.2219
15481SOL    HW152279   8.151   6.223   1.427 -1.9420 -1.0126  0.7633
15481SOL    HW252280   8.233   6.294   1.533 -2.9053  0.1622  0.7431
15482SOL     OW52281   4.771   2.780   6.953  0.4498  0.1951 -0.1172
15482SOL    HW152282   4.853   2.784   7.002 -0.1407 -0.6061  0.9809
15482SOL    HW252283   4.711   2.732   7.010 -0.7322  0.5952 -0.9796
15483SOL     OW52284   0.619   1.551   9.167 -0.6974 -0.9212  0.4083
15483SOL    HW152285   0.563   1.492   9.116 -2.3866  0.1253  0.9840
15483SOL    HW252286   0.656   1.611   9.102  0.0468 -1.7883 -0.0100
15484SOL     OW52287   9.238   5.417   6.002 -0.0193 -0.1657  0.6661
15484SOL    HW152288   9.188   5.398   6.081  0.4052 -0.7755  0.7915
15484SOL    HW252289   9.184   5.383   5.931 -0.0684 -0.2681  0.7518
15485SOL     OW52290  10.835   8.201  10.788 -0.0158 -0.6773  0.3917
15485SOL    HW152291  10.854   8.286  10.746  0.1407  1.0400  3.6427
15485SOL    HW252292  10.921   8.164  10.809 -0.1051 -1.1612 -0.0696
15486SOL     OW52293   5.352   8.477   5.028  0.0015  0.9157  0.4733
15486SOL    HW152294   5.352   8.415   4.955  1.3815  0.5488  0.7644
15486SOL    HW252295   5.272   8.529   5.015 -1.2888 -0.9919  0.2880
15487SOL     OW52296   8.238   3.567   4.136  0.1218  0.4375  0.1929
15487SOL    HW152297   8.237   3.640   4.197  0.4298  0.4098  0.2328
15487SOL    HW252298   8.292   3.500   4.178 -2.5909 -1.0411  1.5482
15488SOL     OW52299   3.864   2.085   2.632  0.4646  0.0212 -0.8420
15488SOL    HW152300   3.872   2.173   2.595  1.0248 -0.0183 -0.8321
15488SOL    HW252301   3.828   2.099   2.720  0.1074  0.2013 -1.0189
15489SOL     OW52302   7.956   7.107   3.435 -0.3143  0.1621  0.6236
15489SOL    HW152303   7.999   7.046   3.496  0.2709  0.0805  0.1466
15489SOL    HW252304   7.865   7.078   3.431  0.6761 -3.4367 -2.7452
15490SOL     OW52305   5.474   5.522   8.281 -0.1497  0.2269  0.6366
15490SOL    HW152306   5.476   5.593   8.216 -3.7342 -0.5001 -0.4630
15490SOL    HW252307   5.549   5.467   8.258  0.5292  1.6665 -0.8606
15491SOL     OW52308   0.382  10.223   5.071  0.3106 -0.1133  0.1420
15491SOL    HW152309   0.463  10.237   5.023  1.5266  0.1037  2.1536
15491SOL    HW252310   0.341  10.309   5.075  0.1826 -0.1425 -0.5321
15492SOL     OW52311   3.168   8.441   3.514  0.3470 -0.7601 -0.1511
15492SOL    HW152312   3.203   8.504   3.576 -1.3671  0.1937 -0.0843
15492SOL    HW252313   3.167   8.358   3.562  0.2020 -0.2919  0.6806
15493SOL     OW52314   5.531   2.525   2.766 -0.4213 -0.3777  0.0497
15493SOL    HW152315   5.480   2.493   2.691 -0.0556  0.1235 -0.4245
15493SOL    HW252316   5.539   2.619   2.750  0.2367 -0.3771  0.3713
15494SOL     OW52317   7.437   4.792   2.581 -0.0015 -0.1847  0.0197
15494SOL    HW152318   7.440   4.823   2.672 -1.2201 -0.5146  0.1947
15494SOL    HW252319   7.525   4.808   2.547  0.8144 -1.1165  1.6013
15495SOL     OW52320   9.414   2.289  10.080 -0.5506  0.0203 -0.2565
15495SOL    HW152321   9.352   2.254  10.015 -0.6250 -0.1469 -0.0952
15495SOL    HW252322   9.480   2.221  10.089 -0.8166 -0.1801  0.2261
15496SOL     OW52323   0.462   1.952   6.346  0.8512  0.3422 -0.0156
15496SOL    HW152324   0.552   1.985   6.355  1.9157 -1.1458 -3.3827
15496SOL    HW252325   0.472   1.871   6.295 -2.2629 -1.1406  1.5061
15497SOL     OW52326   6.031   3.661   7.673 -0.4933 -0.1033  0.5602
15497SOL    HW152327   5.943   3.628   7.654 -0.1889 -1.1210  0.8511
15497SOL    HW252328   6.086   3.622   7.605 -0.2059  0.2355  0.6001
15498SOL     OW52329   0.017   6.851   7.629 -0.1086 -0.1793 -0.2244
15498SOL    HW152330   0.079   6.923   7.616 -0.4044 -0.0178 -0.7786
15498SOL    HW252331   0.066   6.772   7.604  0.3468 -0.2188  0.7833
15499SOL     OW52332   4.547   8.270   1.631  0.2235 -0.1619 -0.4146
15499SOL    HW152333   4.562   8.307   1.544  0.4376 -1.3325 -0.8948
15499SOL    HW252334   4.496   8.337   1.676 -1.3829 -0.2115 -2.0142
15500SOL     OW52335   9.409   6.419   3.762 -0.4079 -0.2265  0.4023
15500SOL    HW152336   9.405   6.324   3.775 -0.1065 -0.4272 -0.7955
15500SOL    HW252337   9.318   6.448   3.766 -0.4503 -0.4742  1.3698
15501SOL     OW52338   4.990   6.287   0.537 -0.1393  0.5385  0.6273
15501SOL    HW152339   4.956   6.242   0.614 -0.3596 -1.3519 -0.5172
15501SOL    HW252340   4.957   6.376   0.545 -1.2158  0.0564  2.0601
15502SOL     OW52341   1.424   6.952  10.064  0.7415 -0.2607  0.0575
15502SOL    HW152342   1.343   6.903  10.079 -0.5393  1.8732  0.6447
15502SOL    HW252343   1.494   6.893  10.091 -0.8054 -1.0813  2.6005
15503SOL     OW52344  10.122   7.403   7.087  0.2640 -0.1599 -0.5348
15503SOL    HW152345  10.133   7.498   7.084  0.5587 -0.1798 -0.0951
15503SOL    HW252346  10.031   7.390   7.116  0.0460 -0.0152 -1.1382
15504SOL     OW52347   3.560   9.756   2.536 -0.0271 -0.2310  0.2078
15504SOL    HW152348   3.626   9.808   2.491 -0.5524  0.0087 -0.2925
15504SOL    HW252349   3.538   9.807   2.614 -1.2816  0.8269 -0.7922
15505SOL     OW52350   2.815  10.039   5.091  0.4855 -0.3485  0.0582
15505SOL    HW152351   2.739  10.039   5.033  0.3843  0.3064  0.1825
15505SOL    HW252352   2.859   9.956   5.073 -0.8882 -1.2704  0.8169
15506SOL     OW52353   1.212   1.520   8.031 -0.0518  0.2120  0.1584
15506SOL    HW152354   1.239   1.603   7.992  1.5800 -0.9983 -1.4857
15506SOL    HW252355   1.117   1.519   8.024 -0.0210  1.5162 -0.6865
15507SOL     OW52356   3.673   7.479   4.289  0.8820 -0.4179 -0.0429
15507SOL    HW152357   3.767   7.460   4.292  1.2289  1.2140  0.3802
15507SOL    HW252358   3.647   7.486   4.380  1.6803  4.7852  0.0853
15508SOL     OW52359   5.007   0.837   0.223 -0.5389 -0.0690  0.1032
15508SOL    HW152360   4.931   0.892   0.206 -0.9446 -0.4055  0.8135
15508SOL    HW252361   5.015   0.783   0.144  1.5063  2.8020 -1.8540
15509SOL     OW52362   5.522   6.046   0.004 -0.1605  0.0006  0.5041
15509SOL    HW152363   5.459   6.011  -0.059 -0.6340  0.0296  0.9585
15509SOL    HW252364   5.469   6.096   0.066  0.3740  0.4884  0.5711
15510SOL     OW52365   5.433   3.019   1.006  0.0613  0.2063  0.3706
15510SOL    HW152366   5.473   2.992   1.089  0.5318  1.5562  0.6104
15510SOL    HW252367   5.464   2.953   0.943  0.3962 -0.3523  1.0925
15511SOL     OW52368   5.452   3.812   4.290 -0.2604 -0.3062  0.4100
15511SOL    HW152369   5.414   3.891   4.330  0.2883 -0.2473  0.8294
15511SOL    HW252370   5.527   3.845   4.239 -0.9050 -0.3917 -0.6186
15512SOL     OW52371  10.438   3.337   1.659 -0.0872 -1.1124  0.2641
15512SOL    HW152372  10.369   3.392   1.621  1.0707 -0.8050 -1.5505
15512SOL    HW252373  10.394   3.255   1.682 -1.2198 -0.6091 -0.0388
15513SOL     OW52374   5.233   0.782   0.653 -0.0157  0.3397  0.1668
15513SOL    HW152375   5.321   0.794   0.689  0.3077 -2.1808  0.4207
15513SOL    HW252376   5.246   0.776   0.558  0.4641 -2.0614  0.3137
15514SOL     OW52377   5.974   2.439   9.627 -0.5333 -0.2014  0.1130
15514SOL    HW152378   5.906   2.374   9.610  1.4736 -2.7393  1.0769
15514SOL    HW252379   6.010   2.414   9.712  2.2075  0.3785 -0.7764
15515SOL     OW52380   6.551   3.253   1.314 -0.3073 -0.6416  0.0644
15515SOL    HW152381   6.613   3.326   1.312 -0.2212 -0.6260  1.7870
15515SOL    HW252382   6.558   3.214   1.227  2.7678 -1.1407  0.4139
15516SOL     OW52383   6.063   6.646   6.073 -0.8753  0.3051 -0.6407
15516SOL    HW152384   6.105   6.685   5.996  0.3673 -0.3897 -0.3409
15516SOL    HW252385   6.091   6.554   6.071 -1.7555  0.0176  0.0204
15517SOL     OW52386   4.601   4.499   0.958  0.1205  0.1786  0.1885
15517SOL    HW152387   4.642   4.441   0.894 -1.0135  0.8562 -1.1817
15517SOL    HW252388   4.661   4.573   0.965  1.1908 -0.7472  1.3784
15518SOL     OW52389   8.924   8.571   6.067 -0.4758 -0.3664 -0.5493
15518SOL    HW152390   8.967   8.582   5.982  2.2919  2.7134  1.0101
15518SOL    HW252391   8.841   8.617   6.057 -0.5591 -0.7337 -1.7837
15519SOL     OW52392   6.983   7.113   6.983  0.1736 -0.1882 -0.3583
15519SOL    HW152393   7.011   7.061   6.907  2.3117 -0.8225  0.7845
15519SOL    HW252394   7.004   7.058   7.058  0.4150  1.4155  0.7814
15520SOL     OW52395   3.874  10.645  10.571  0.2669  0.1115 -0.1618
15520SOL    HW152396   3.899  10.582  10.504 -1.2333 -1.8940  1.0371
15520SOL    HW252397   3.785  10.670  10.548  0.1742  0.3234  0.4075
15521SOL     OW52398   5.729   4.437   0.077 -0.1819  0.6506  0.2462
15521SOL    HW152399   5.708   4.431   0.170  0.4806  0.6552  0.3982
15521SOL    HW252400   5.823   4.454   0.074  0.0286 -0.5500 -0.4567
15522SOL     OW52401   1.146   2.227   0.342  0.3815 -0.4754  0.3718
15522SOL    HW152402   1.210   2.226   0.271  0.0443 -1.5557  0.0716
15522SOL    HW252403   1.127   2.320   0.356 -1.0548 -0.2791 -2.3127
15523SOL     OW52404   3.979   4.199   4.029  0.4278  0.0408  0.1368
15523SOL    HW152405   3.887   4.197   4.000  0.8442 -0.1250 -1.2186
15523SOL    HW252406   3.990   4.287   4.065 -0.5004 -0.2334  1.1422
15524SOL     OW52407   1.121   6.295  10.108 -0.1446  0.2333 -0.0064
15524SOL    HW152408   1.048   6.251  10.064  2.3129 -1.7919 -2.4363
15524SOL    HW252409   1.120   6.259  10.197 -2.1684  0.4360  0.0970
15525SOL     OW52410   4.932   0.466   6.170  0.8028 -0.2182  0.0036
15525SOL    HW152411   4.960   0.392   6.117 -0.1108  0.7732 -1.9852
15525SOL    HW252412   4.839   0.476   6.150  0.9197  1.4868  0.1545
15526SOL     OW52413   0.785   0.054   1.763 -0.2077 -0.3819 -0.1740
15526SOL    HW152414   0.756   0.044   1.672 -0.1663 -0.1596 -0.2132
15526SOL    HW252415   0.880   0.059   1.756 -0.1551 -1.0980 -0.0475
15527SOL     OW52416   1.755   8.440   6.574  0.0517  0.3614 -0.5323
15527SOL    HW152417   1.760   8.528   6.535 -1.5074  1.1124  0.8541
15527SOL    HW252418   1.749   8.456   6.668 -1.7613 -1.1534 -0.3336
15528SOL     OW52419   4.669   1.855   1.401 -0.0393 -0.3350 -0.0306
15528SOL    HW152420   4.638   1.843   1.491  1.2711  0.1619  0.5125
15528SOL    HW252421   4.602   1.814   1.347 -1.3115  0.1643  1.1134
15529SOL     OW52422   3.790   5.463   0.740  0.2018  0.5157 -0.0573
15529SOL    HW152423   3.769   5.509   0.659 -0.6280  1.2323  0.5552
15529SOL    HW252424   3.719   5.484   0.800 -1.0043 -2.6801 -0.1666
15530SOL     OW52425   3.608   4.994   9.279 -0.4335 -0.1816  0.0090
15530SOL    HW152426   3.599   5.082   9.243 -1.0161 -0.4320 -0.4775
15530SOL    HW252427   3.669   4.949   9.221 -1.4666 -0.6230 -0.7571
15531SOL     OW52428   9.819   8.068   9.329 -0.0422 -0.3852 -0.0350
15531SOL    HW152429   9.879   8.054   9.403  0.5367  0.0322 -0.4161
15531SOL    HW252430   9.735   8.088   9.370  0.0619 -1.0118  0.5094
15532SOL     OW52431  10.045   2.048   6.897  0.1212  0.2347 -0.4310
15532SOL    HW152432  10.124   2.086   6.935 -0.0530  0.8935 -0.7229
15532SOL    HW252433   9.973   2.101   6.932 -0.1790 -0.2340 -0.3268
15533SOL     OW52434   3.014   7.326   4.972  0.2511  0.1167  0.4373
15533SOL    HW152435   3.037   7.305   4.882  1.9513  1.3949  0.5292
15533SOL    HW252436   2.919   7.340   4.970  0.0208 -1.3801 -0.8080
15534SOL     OW52437   4.524   8.509   8.297 -0.8438  0.4604 -0.2491
15534SOL    HW152438   4.458   8.573   8.270 -1.8875  0.5243  2.2281
15534SOL    HW252439   4.598   8.561   8.326 -0.9308  0.4778 -0.0610
15535SOL     OW52440  10.250   2.903   4.252  0.5011 -0.5303  0.0110
15535SOL    HW152441  10.247   2.989   4.210  1.1113  0.7580  2.4185
15535SOL    HW252442  10.342   2.890   4.275  0.1014 -0.8056  1.5828
15536SOL     OW52443   9.454   6.806   3.524  0.2978  0.1037 -0.0810
15536SOL    HW152444   9.415   6.889   3.498 -2.0942 -0.8548  0.1462
15536SOL    HW252445   9.542   6.808   3.488 -1.0409  1.0279 -3.7518
15537SOL     OW52446   5.495   4.050   4.683 -0.1056 -0.0191  0.2793
15537SOL    HW152447   5.459   4.025   4.768 -0.7606  2.0030  0.6526
15537SOL    HW252448   5.556   3.980   4.661 -0.2728 -0.8227  2.1935
15538SOL     OW52449   9.854   1.371   8.311  0.3006 -0.3430 -0.9579
15538SOL    HW152450   9.891   1.426   8.380 -1.6377  0.1828 -0.2844
15538SOL    HW252451   9.807   1.431   8.254 -1.6429 -1.2293 -0.3541
15539SOL     OW52452   4.892   4.193   6.429  0.0778 -0.3230 -0.4838
15539SOL    HW152453   4.938   4.110   6.439  0.9095  0.0006 -1.4394
15539SOL    HW252454   4.801   4.169   6.417  0.2235 -1.0658 -0.1845
15540SOL     OW52455  10.277   6.205   5.017  0.0758 -0.7435  0.4652
15540SOL    HW152456  10.277   6.177   4.925  2.2916 -0.9497  0.4727
15540SOL    HW252457  10.308   6.295   5.014 -1.6179 -0.1106  0.9085
15541SOL     OW52458   8.488  10.819   0.306  0.2835  0.7036  0.2844
15541SOL    HW152459   8.481  10.880   0.233 -1.0688  0.7578  0.4416
15541SOL    HW252460   8.419  10.845   0.366 -1.1549 -1.7050 -0.1910
15542SOL     OW52461   1.990   2.107   1.047  0.5531  0.2197  0.4020
15542SOL    HW152462   1.976   2.132   1.139 -0.9271 -0.8780  0.5015
15542SOL    HW252463   2.080   2.136   1.029  0.4732  1.5528  1.8159
15543SOL     OW52464   7.744  10.755   8.626  0.2406  0.0675  0.2072
15543SOL    HW152465   7.716  10.739   8.536 -3.1320  1.4028  0.8701
15543SOL    HW252466   7.724  10.847   8.642 -0.0505 -0.3269  2.5493
15544SOL     OW52467   9.395   5.002   2.264 -0.3740  0.3064  0.0998
15544SOL    HW152468   9.421   5.071   2.325  0.3724  0.6992 -0.6524
15544SOL    HW252469   9.469   4.941   2.263 -0.6155  0.0116  0.0004
15545SOL     OW52470   1.170   8.593   2.347 -0.1527  0.0705 -0.0269
15545SOL    HW152471   1.107   8.610   2.417 -0.2197 -0.7428  0.1183
15545SOL    HW252472   1.123   8.617   2.267 -0.9031 -1.1440  0.0247
15546SOL     OW52473   2.476   6.060  10.407  0.2345  0.2496 -0.1860
15546SOL    HW152474   2.465   5.974  10.367  1.6047 -0.5411  1.0378
15546SOL    HW252475   2.536   6.045  10.480 -0.6152  1.9882  0.9416
15547SOL     OW52476   2.484   4.459  10.542 -0.0678 -0.0602 -0.6533
15547SOL    HW152477   2.549   4.390  10.524 -0.0336 -0.4071  0.6627
15547SOL    HW252478   2.533   4.541  10.536  0.1713 -0.2316 -1.0469
15548SOL     OW52479   6.016   6.761   3.587 -0.7905  0.4806 -1.0901
15548SOL    HW152480   6.065   6.779   3.506 -1.9682 -1.0794 -2.2016
15548SOL    HW252481   5.925   6.764   3.560 -1.2553  1.1146  0.4790
15549SOL     OW52482  10.176   7.663   2.329  0.2829  0.0720 -0.2548
15549SOL    HW152483  10.115   7.623   2.391  0.3413 -0.8431 -0.7774
15549SOL    HW252484  10.155   7.623   2.245  0.6214  0.8457 -0.7143
15550SOL     OW52485   5.816   1.460   9.459  0.1617  0.1796  0.4319
15550SOL    HW152486   5.853   1.493   9.541  2.6542 -0.5012 -0.3200
15550SOL    HW252487   5.807   1.366   9.473 -2.1746  0.4141  0.8576
15551SOL     OW52488   6.519   7.861   7.581 -0.0909  0.0076 -0.0300
15551SOL    HW152489   6.463   7.887   7.508 -0.1588  0.8293  0.3014
15551SOL    HW252490   6.571   7.788   7.547 -0.7697 -0.2185 -0.5990
15552SOL     OW52491   2.425   5.007   3.010  0.2599 -0.0777  0.4158
15552SOL    HW152492   2.352   5.068   2.997 -0.2547 -0.5497  1.0143
15552SOL    HW252493   2.502   5.063   3.013  0.4856  0.1809 -4.0289
15553SOL     OW52494   6.529  10.254   7.641 -0.4454  0.3439 -0.2171
15553SOL    HW152495   6.607  10.278   7.591 -0.3545 -0.4821 -0.4812
15553SOL    HW252496   6.456  10.291   7.592 -0.3666 -0.5664 -1.0480
15554SOL     OW52497   7.527   7.263   9.451  0.1196 -0.3203 -0.8559
15554SOL    HW152498   7.577   7.272   9.369 -0.1655  1.4110 -0.8729
15554SOL    HW252499   7.472   7.341   9.454 -0.1117 -0.5139  0.8498
15555SOL     OW52500   6.921   1.633   5.570 -0.1509 -0.5460 -0.3816
15555SOL    HW152501   6.992   1.596   5.623 -0.2933 -0.3202 -0.0282
15555SOL    HW252502   6.918   1.725   5.597 -0.2359 -0.4332 -0.7723
15556SOL     OW52503   4.660   6.293   4.402 -0.3752  0.2100 -0.4960
15556SOL    HW152504   4.567   6.300   4.421  0.0585  0.2142  2.0139
15556SOL    HW252505   4.682   6.203   4.425  0.4025  0.4780 -0.1633
15557SOL     OW52506   6.076   5.552   7.056 -0.6303 -0.5800  0.0749
15557SOL    HW152507   6.055   5.467   7.018  1.2669 -1.6021  1.1706
15557SOL    HW252508   6.118   5.600   6.985 -0.1377 -1.2173 -0.0714
15558SOL     OW52509  10.550   2.764   6.236 -0.1251  0.4700 -0.0281
15558SOL    HW152510  10.624   2.804   6.190 -0.1173  0.9507  0.3818
15558SOL    HW252511  10.475   2.784   6.181 -0.1584  1.3002  0.3066
15559SOL     OW52512   4.186   3.515   5.717  0.0622 -0.4405  0.7153
15559SOL    HW152513   4.263   3.476   5.758  3.6352  2.6421 -2.3496
15559SOL    HW252514   4.186   3.483   5.627 -1.8865  0.1781  0.4312
15560SOL     OW52515   1.673   0.927   0.169 -0.2106 -0.0138 -0.2336
15560SOL    HW152516   1.701   0.863   0.104  0.3024 -0.3616  0.3158
15560SOL    HW252517   1.696   1.012   0.132  0.4801 -0.2321 -0.3128
15561SOL     OW52518   7.993   8.959   9.299 -0.1500  0.1695  0.2378
15561SOL    HW152519   7.942   8.883   9.270  1.0413 -0.7237  0.4186
15561SOL    HW252520   8.016   9.005   9.218 -0.6259  0.1828  0.1077
15562SOL     OW52521   2.312   3.690   6.427 -0.4083  0.7248 -0.3234
15562SOL    HW152522   2.241   3.673   6.488 -0.5614  0.4508 -0.5735
15562SOL    HW252523   2.369   3.613   6.433  0.1243  1.1581  0.2271
15563SOL     OW52524  10.232   9.664   6.363  0.5139 -0.3898 -0.0178
15563SOL    HW152525  10.309   9.720   6.360  0.3078  0.0452  1.7964
15563SOL    HW252526  10.228   9.632   6.453 -0.8684 -1.1995 -0.3245
15564SOL     OW52527   5.509   3.151   4.342  0.1692 -0.6164 -0.0158
15564SOL    HW152528   5.576   3.188   4.400 -0.9225  1.1212  0.2051
15564SOL    HW252529   5.500   3.215   4.272  1.1694 -2.4876 -1.9725
15565SOL     OW52530   1.026   8.860  10.043 -0.1541  0.0608  0.7226
15565SOL    HW152531   1.017   8.956  10.043  0.8967  0.3319 -3.0382
15565SOL    HW252532   0.947   8.829  10.000  0.2924 -0.5865  0.3498
15566SOL     OW52533   2.063   2.931   1.004  0.1539  0.1636 -0.4289
15566SOL    HW152534   2.016   2.954   0.924  1.2909  3.3238 -0.3316
15566SOL    HW252535   2.021   2.983   1.072  1.2499 -0.0311  0.4156
15567SOL     OW52536  10.807  10.257   1.878 -0.0648  0.0062  0.2207
15567SOL    HW152537  10.734  10.212   1.835 -1.1242  1.4355  0.4694
15567SOL    HW252538  10.846  10.190   1.934 -0.6986 -0.9886 -0.4855
15568SOL     OW52539   4.020   3.329   4.883  0.1036  0.0684  0.2340
15568SOL    HW152540   3.941   3.277   4.898 -0.3763  0.8234  0.3988
15568SOL    HW252541   4.081   3.300   4.952  0.1579 -0.8506 -0.1819
15569SOL     OW52542   4.931   0.123   6.541  0.0412 -0.4308 -0.2137
15569SOL    HW152543   4.877   0.150   6.614 -0.8416 -0.1483 -0.9477
15569SOL    HW252544   4.930   0.198   6.481  0.3147 -0.8465 -0.7503
15570SOL     OW52545   7.237   4.668   6.566 -0.0795 -0.3165 -0.0062
15570SOL    HW152546   7.209   4.699   6.480  1.4092  1.0145 -0.0618
15570SOL    HW252547   7.219   4.741   6.625 -1.3303 -1.3157  0.8812
15571SOL     OW52548   4.481   9.686   4.312  0.4026 -0.2420 -0.3662
15571SOL    HW152549   4.406   9.661   4.258  0.4424  0.0510 -0.5564
15571SOL    HW252550   4.530   9.604   4.324 -0.2172 -0.5367  0.1866
15572SOL     OW52551   0.780  10.542   2.444  0.2472 -0.1066 -0.0531
15572SOL    HW152552   0.849  10.609   2.437 -0.7135  1.2832  2.5253
15572SOL    HW252553   0.700  10.587   2.419  0.1321 -1.6986 -2.9520
15573SOL     OW52554   9.715   3.470  10.606  0.1494  0.5812  0.4787
15573SOL    HW152555   9.652   3.515  10.662  0.7203  1.5952  0.3352
15573SOL    HW252556   9.763   3.540  10.564  0.1215 -0.1635 -0.8522
15574SOL     OW52557   9.749   2.291   0.617 -0.5639 -0.1240  0.1412
15574SOL    HW152558   9.736   2.348   0.693 -1.6056  1.5270 -1.2114
15574SOL    HW252559   9.838   2.311   0.587 -0.8224  0.6018 -0.1581
15575SOL     OW52560   5.287   5.216   0.044  0.3403  0.1219  0.3535
15575SOL    HW152561   5.203   5.171   0.046  0.2251  0.3079 -0.2180
15575SOL    HW252562   5.265   5.309   0.039  0.5529  0.0816 -2.2918
15576SOL     OW52563   3.089   9.137   3.807 -0.5105  0.1750  0.5127
15576SOL    HW152564   3.053   9.147   3.895 -1.1552  0.7453  0.1874
15576SOL    HW252565   3.140   9.217   3.792 -0.1001 -0.0826  0.4999
15577SOL     OW52566   8.039   2.339   6.297  0.1119  0.2175  0.2836
15577SOL    HW152567   8.073   2.379   6.217 -0.0430  1.5906  0.8825
15577SOL    HW252568   7.961   2.291   6.269  0.3117  0.3153 -0.4542
15578SOL     OW52569   5.099  10.624   9.717  0.0335  0.0388  0.4613
15578SOL    HW152570   5.084  10.539   9.757  1.8858  0.0675  1.3473
15578SOL    HW252571   5.177  10.611   9.662  0.3241  1.1441  0.5949
15579SOL     OW52572   4.359   2.309   2.070 -0.4049 -0.3621  0.0297
15579SOL    HW152573   4.321   2.314   1.982 -1.6428 -1.4567  0.4705
15579SOL    HW252574   4.429   2.245   2.063  0.2851  0.4169 -0.4040
15580SOL     OW52575   9.824   6.568   6.985  0.0450 -0.1537 -0.1661
15580SOL    HW152576   9.819   6.564   7.081 -2.8429 -0.0512 -0.2366
15580SOL    HW252577   9.848   6.659   6.966 -1.0386  0.2735  0.4542
15581SOL     OW52578   4.649   2.241   3.738 -0.2016  0.2055 -0.4307
15581SOL    HW152579   4.582   2.298   3.699 -0.9135 -0.2429  0.1203
15581SOL    HW252580   4.684   2.191   3.663 -0.3534  0.5640 -0.7465
15582SOL     OW52581   4.776   1.439   2.986 -0.6768  0.1214  0.0528
15582SOL    HW152582   4.809   1.471   2.902 -0.4233  0.2442  0.1995
15582SOL    HW252583   4.826   1.360   3.003  0.8367  1.2653  1.1442
15583SOL     OW52584   3.251   6.708   1.252 -0.4363  0.3151 -0.0608
15583SOL    HW152585   3.194   6.636   1.226 -2.0132  1.5387 -0.1417
15583SOL    HW252586   3.340   6.674   1.239 -1.1242 -1.0145 -1.7044
15584SOL     OW52587   9.186   4.712  10.569  0.1262  0.0440 -0.5139
15584SOL    HW152588   9.216   4.730  10.480  0.0131 -0.7637 -0.7296
15584SOL    HW252589   9.151   4.795  10.601 -0.4785  0.1699 -1.4780
15585SOL     OW52590   2.986  10.460   9.478  0.1932  0.3673  0.1753
15585SOL    HW152591   2.893  10.484   9.485  0.3122  1.7757 -2.1492
15585SOL    HW252592   2.987  10.366   9.496 -1.5085  0.5299  1.3776
15586SOL     OW52593   9.743   6.574   4.230  0.7280 -0.0967  0.0074
15586SOL    HW152594   9.761   6.665   4.207  2.2021 -0.4087 -0.1787
15586SOL    HW252595   9.683   6.543   4.162  0.8785  0.4915 -0.4010
15587SOL     OW52596   3.154  10.621   6.305 -0.0595  0.1938  0.5159
15587SOL    HW152597   3.185  10.696   6.355  2.2372 -1.3533  1.5852
15587SOL    HW252598   3.210  10.619   6.227  0.2781 -0.6904  0.7635
15588SOL     OW52599   1.376   4.329   2.179  0.2111 -0.3349 -0.2209
15588SOL    HW152600   1.411   4.246   2.145  1.4769  0.7447 -1.7056
15588SOL    HW252601   1.429   4.347   2.257  0.9872 -0.1905 -0.7672
15589SOL     OW52602   6.909   8.036   2.588  0.0261  0.0853 -0.5270
15589SOL    HW152603   6.912   7.957   2.643 -2.2088 -0.3608 -0.9630
15589SOL    HW252604   6.865   8.101   2.642  1.5195  0.9581 -0.3159
15590SOL     OW52605   1.146   6.327   0.778  0.0647 -0.4530 -0.2259
15590SOL    HW152606   1.230   6.372   0.764  0.6864 -1.1549  1.0641
15590SOL    HW252607   1.170   6.239   0.807 -1.0483 -0.0220  2.3116
15591SOL     OW52608   7.541   4.734   9.008 -0.1089 -0.4252  0.2531
15591SOL    HW152609   7.527   4.645   8.975  2.5759 -1.5614  1.8974
15591SOL    HW252610   7.521   4.729   9.101 -0.6922  0.9481  0.2364
15592SOL     OW52611   0.648   9.611   0.533 -0.4410  0.2968 -0.3552
15592SOL    HW152612   0.607   9.524   0.540  0.0397  0.1904  2.0316
15592SOL    HW252613   0.580   9.672   0.562  0.1578  0.3739  0.9802
15593SOL     OW52614   6.321   1.045  10.261 -0.0607 -0.5694  0.6300
15593SOL    HW152615   6.249   0.981  10.263 -2.3513  1.7314 -1.2768
15593SOL    HW252616   6.340   1.057  10.168 -0.1494  1.8987  0.8647
15594SOL     OW52617   6.493   6.319   4.991 -0.2848  0.0135  0.7892
15594SOL    HW152618   6.518   6.234   5.026  1.8951 -0.2692 -1.2230
15594SOL    HW252619   6.575   6.359   4.962 -1.3928  2.2704  0.4993
15595SOL     OW52620   7.799   5.620   7.895 -0.4245 -0.4959 -0.1039
15595SOL    HW152621   7.889   5.639   7.920 -0.6825 -0.6769  1.0151
15595SOL    HW252622   7.747   5.682   7.946 -0.9480 -0.4511 -0.6752
15596SOL     OW52623   8.175   9.155   8.127  0.0457 -0.2614  0.0847
15596SOL    HW152624   8.228   9.102   8.186 -0.9820 -1.5213 -0.0726
15596SOL    HW252625   8.084   9.131   8.148 -0.4105  0.7269 -0.6596
15597SOL     OW52626   4.779   8.934   0.615  0.2050 -0.2565 -0.6208
15597SOL    HW152627   4.777   8.845   0.651 -1.2983  0.4790  1.3216
15597SOL    HW252628   4.866   8.943   0.578  0.4890 -2.4418 -0.6238
15598SOL     OW52629   7.369   2.479  10.861  0.0233 -0.1323 -0.2975
15598SOL    HW152630   7.390   2.481  10.954  1.8152  1.1821 -0.6803
15598SOL    HW252631   7.289   2.531  10.853  0.4485  0.6454  0.3828
15599SOL     OW52632   7.173   8.433   0.934 -0.4497  0.2805 -0.0269
15599SOL    HW152633   7.199   8.407   0.846  2.0826  3.4321 -0.3946
15599SOL    HW252634   7.097   8.489   0.921  1.5397  3.0447 -0.7076
15600SOL     OW52635   9.300  10.348  10.568  0.3088  0.4837 -0.1414
15600SOL    HW152636   9.294  10.443  10.557 -1.2604  0.6089  1.4225
15600SOL    HW252637   9.286  10.313  10.480  1.3931  1.6768 -0.8238
15601SOL     OW52638   7.869   5.038   1.123 -0.0426  0.2440 -0.2612
15601SOL    HW152639   7.849   4.946   1.140  0.5018  0.3177  0.8641
15601SOL    HW252640   7.963   5.038   1.102 -0.2744  0.4178 -1.3712
15602SOL     OW52641   1.812   9.285   6.685 -0.0872 -0.1901 -0.3128
15602SOL    HW152642   1.902   9.254   6.673 -0.0650 -1.0740  1.7436
15602SOL    HW252643   1.759   9.206   6.679 -0.7403  0.3090 -1.3565
15603SOL     OW52644   4.500   4.741   0.982  0.6403 -0.0169 -0.1715
15603SOL    HW152645   4.536   4.783   1.060  2.2588  0.7316 -1.2581
15603SOL    HW252646   4.523   4.649   0.991  2.5551  0.3778 -0.6356
15604SOL     OW52647   2.955   4.352   4.787 -0.1876 -0.0164 -0.2249
15604SOL    HW152648   2.974   4.298   4.710 -0.6397  1.1892 -1.2028
15604SOL    HW252649   2.951   4.441   4.754 -1.5572  0.4099  0.9982
15605SOL     OW52650   0.047   9.818  10.606 -0.3173 -0.4481 -0.1318
15605SOL    HW152651  -0.003   9.737  10.596  0.3495 -0.6198 -2.5938
15605SOL    HW252652   0.137   9.794  10.583 -0.0922  0.9792 -0.8408
15606SOL     OW52653   4.457   6.142   0.969 -0.0662 -0.0048 -0.5020
15606SOL    HW152654   4.376   6.136   1.019  0.9900 -1.8721  1.1571
15606SOL    HW252655   4.519   6.184   1.028  0.7329 -0.5474 -0.9315
15607SOL     OW52656   8.201   9.976   0.442 -0.0686 -0.1063 -0.0826
15607SOL    HW152657   8.262  10.006   0.509  3.1177  0.5745 -3.0004
15607SOL    HW252658   8.203   9.880   0.449  1.1979 -0.0915  0.0950
15608SOL     OW52659   6.768   3.771   7.928 -0.0063 -0.0406  0.3463
15608SOL    HW152660   6.680   3.774   7.891 -0.1229  0.4470  0.6454
15608SOL    HW252661   6.826   3.769   7.853 -0.1938  1.9644  0.0741
15609SOL     OW52662   7.789   8.561   3.069  0.0765  0.4312  0.1980
15609SOL    HW152663   7.863   8.622   3.073  0.6407 -0.2784  0.9797
15609SOL    HW252664   7.741   8.577   3.150 -0.0318  0.1632  0.1867
15610SOL     OW52665   8.883   8.275   5.063 -0.1051 -0.2789 -0.2785
15610SOL    HW152666   8.792   8.252   5.049 -0.2060 -0.9217  1.2460
15610SOL    HW252667   8.881   8.370   5.078 -0.6713 -0.4542  0.8169
15611SOL     OW52668   2.979   5.755   6.818  1.0010  0.5970  0.2007
15611SOL    HW152669   2.999   5.662   6.816  0.0933  0.3510  1.5526
15611SOL    HW252670   2.903   5.766   6.761 -0.5675  0.0391  2.1009
15612SOL     OW52671   3.581   8.652  10.879 -0.0785  0.3236 -0.0816
15612SOL    HW152672   3.513   8.603  10.925  0.0833 -0.1748 -0.3571
15612SOL    HW252673   3.544   8.739  10.867 -0.9256 -0.1123 -0.7656
15613SOL     OW52674   4.656   8.305   1.360 -0.1251  0.0139  0.3854
15613SOL    HW152675   4.684   8.393   1.332  1.9122 -0.5861  0.3978
15613SOL    HW252676   4.587   8.282   1.298 -0.1941  1.3304 -0.0725
15614SOL     OW52677   3.488   8.758   6.276  1.1357 -0.4410 -0.0092
15614SOL    HW152678   3.553   8.730   6.340  1.5453  1.6672  0.5774
15614SOL    HW252679   3.539   8.790   6.202  0.7054 -0.9598 -0.5338
15615SOL     OW52680   1.831   7.656   6.280 -0.1174 -0.1870  0.1521
15615SOL    HW152681   1.926   7.650   6.272  0.0644  2.9133 -1.3017
15615SOL    HW252682   1.811   7.609   6.361  2.8230  0.3080  1.2823
15616SOL     OW52683   4.566   9.183   7.511  0.0445 -0.2642  0.1664
15616SOL    HW152684   4.518   9.253   7.466 -1.8985 -1.3746  0.3877
15616SOL    HW252685   4.617   9.228   7.578 -2.3468  0.9158  1.3500
15617SOL     OW52686   1.409   6.224   6.906  0.1023 -0.0675 -0.0572
15617SOL    HW152687   1.396   6.305   6.856 -0.0030 -1.2185 -1.9911
15617SOL    HW252688   1.371   6.243   6.992 -1.4948  1.3751 -1.0109
15618SOL     OW52689   0.926  10.523   9.246 -0.3227  0.2717  0.1808
15618SOL    HW152690   0.858  10.553   9.306 -1.2545 -0.8452 -0.2723
15618SOL    HW252691   0.887  10.448   9.201  1.2758 -0.5196  0.0356
15619SOL     OW52692   4.707   2.907   5.271  0.1471 -0.5040  0.1313
15619SOL    HW152693   4.773   2.954   5.322 -0.0118 -1.0332  0.8470
15619SOL    HW252694   4.756   2.838   5.227  0.1722 -0.5057  0.1615
15620SOL     OW52695   9.529   8.105  10.219 -0.2854  0.1816  0.2234
15620SOL    HW152696   9.549   8.150  10.137 -0.0707  0.0508  0.2035
15620SOL    HW252697   9.436   8.125  10.235 -0.1333  0.8101  0.3309
15621SOL     OW52698   7.898   6.205   3.665 -0.1130  0.1681  0.0315
15621SOL    HW152699   7.822   6.160   3.628 -0.1286 -1.6605  2.0640
15621SOL    HW252700   7.968   6.140   3.664  0.4041  0.6654  1.3774
15622SOL     OW52701   4.957  10.671   9.487 -0.3021  0.4384 -0.5014
15622SOL    HW152702   4.986  10.664   9.578 -3.4361  0.7711  0.6412
15622SOL    HW252703   4.870  10.631   9.487 -0.1112 -0.1933 -3.5483
15623SOL     OW52704  10.236   6.660   2.273  0.5412  0.6779 -0.0092
15623SOL    HW152705  10.296   6.593   2.306 -0.4530 -0.8683 -1.2080
15623SOL    HW252706  10.293   6.733   2.249  1.6097  0.4968  1.7661
15624SOL     OW52707   1.382  10.282   5.358  0.1082 -0.0148  0.0164
15624SOL    HW152708   1.457  10.284   5.300  0.1608 -0.7359  0.0555
15624SOL    HW252709   1.411  10.329   5.437  0.7169 -0.7752  0.2589
15625SOL     OW52710   5.082   0.810   7.371  0.2744 -0.5235 -0.0483
15625SOL    HW152711   5.038   0.742   7.423  1.0214 -1.0282 -0.0577
15625SOL    HW252712   5.175   0.789   7.379  0.5413  0.7034  0.2211
15626SOL     OW52713   8.919   3.662  10.883  0.5608 -0.1397  0.3787
15626SOL    HW152714   8.952   3.740  10.929  0.8155 -0.1934  0.2922
15626SOL    HW252715   8.898   3.600  10.953 -2.0822  0.9104  0.6090
15627SOL     OW52716   9.101   5.479  10.360  0.1493 -0.2020 -0.1002
15627SOL    HW152717   9.105   5.512  10.449 -0.3753 -0.4768  0.0333
15627SOL    HW252718   9.189   5.492  10.324  1.6451 -3.7418  1.7645
15628SOL     OW52719   4.089   6.999   2.806 -0.1809 -0.0197  0.3199
15628SOL    HW152720   4.033   7.059   2.857  0.2568  0.7327 -0.0717
15628SOL    HW252721   4.027   6.942   2.761 -0.6324  0.4929  0.2714
15629SOL     OW52722   9.572   0.542   7.774 -0.2692 -0.0098  0.5310
15629SOL    HW152723   9.649   0.512   7.822  0.3370 -0.7656 -0.8658
15629SOL    HW252724   9.584   0.636   7.765  0.9135 -0.2149 -0.3302
15630SOL     OW52725   3.681   3.441   2.292  0.7180 -0.2863 -0.1916
15630SOL    HW152726   3.709   3.475   2.377 -0.3501 -1.0118  0.4783
15630SOL    HW252727   3.748   3.377   2.268  1.5995  0.7028 -0.4318
15631SOL     OW52728   2.615   5.734  10.887 -0.4337 -0.7674  0.4622
15631SOL    HW152729   2.605   5.695  10.800  1.2959 -1.0202  0.3344
15631SOL    HW252730   2.650   5.821  10.871 -0.2636 -0.7512  0.9014
15632SOL     OW52731   0.845   3.495   5.857 -0.6084  0.6296  0.4964
15632SOL    HW152732   0.847   3.464   5.766 -1.3521 -0.8789  0.9649
15632SOL    HW252733   0.754   3.521   5.871 -0.5468  0.6415  0.8750
15633SOL     OW52734   2.478   5.808   8.092 -0.2362  1.2605 -0.0952
15633SOL    HW152735   2.403   5.769   8.048 -1.1474  0.6853  1.8761
15633SOL    HW252736   2.459   5.902   8.093 -1.3841  1.0492  1.1029
15634SOL     OW52737  10.636   7.900   8.800 -0.1928  0.3925 -0.4077
15634SOL    HW152738  10.655   7.818   8.846 -0.7781  1.6603  2.3421
15634SOL    HW252739  10.543   7.894   8.779  0.0657 -0.1744 -1.4359
15635SOL     OW52740   1.359   6.262   7.905  0.4558  0.7209  0.0897
15635SOL    HW152741   1.269   6.254   7.936  0.8107  1.0697  1.2246
15635SOL    HW252742   1.381   6.173   7.875 -0.2059  0.6008 -0.0637
15636SOL     OW52743   4.473   5.548   4.664  0.1217  0.1387 -0.5498
15636SOL    HW152744   4.478   5.640   4.635 -0.2122  0.0897 -0.7662
15636SOL    HW252745   4.525   5.500   4.600 -0.2256  0.0947 -0.8042
15637SOL     OW52746   4.969   3.813   0.225 -0.4167  0.3400  0.2476
15637SOL    HW152747   4.981   3.844   0.135  2.3586  0.0917  0.4516
15637SOL    HW252748   4.992   3.888   0.280  0.5026 -0.2826  0.7328
15638SOL     OW52749   0.208   7.080   3.351  0.2698 -0.0097  0.3858
15638SOL    HW152750   0.302   7.082   3.334  0.2241 -0.3914  0.0819
15638SOL    HW252751   0.170   7.131   3.279  0.2145 -0.1997  0.2781
15639SOL     OW52752   9.320   0.033   5.229 -0.0542  0.2998  0.1488
15639SOL    HW152753   9.400   0.083   5.240  0.4825 -0.4230 -0.3291
15639SOL    HW252754   9.272   0.079   5.161  0.1888  0.4550  0.0801
15640SOL     OW52755   4.774   9.379   3.052 -0.0552  0.2848  0.8177
15640SOL    HW152756   4.748   9.288   3.067  1.0568 -0.6737 -2.3438
15640SOL    HW252757   4.710   9.413   2.990  0.0793  1.3649  1.2525
15641SOL     OW52758   7.044   6.788   2.458 -0.1629  0.4849  0.3415
15641SOL    HW152759   6.967   6.731   2.448 -0.7059  1.2197  0.2222
15641SOL    HW252760   7.033   6.829   2.544  1.0176 -0.7211  1.1084
15642SOL     OW52761   9.473   3.910   4.702 -0.5352  0.6265 -0.0163
15642SOL    HW152762   9.545   3.904   4.639 -0.6368  1.1451 -0.1849
15642SOL    HW252763   9.446   3.819   4.716 -1.7177  0.6052 -2.0949
15643SOL     OW52764   1.757  10.012   4.757  0.2681  0.3246  0.0375
15643SOL    HW152765   1.799   9.932   4.726  4.5736  3.0129 -2.0138
15643SOL    HW252766   1.792  10.026   4.845  0.6293  0.6509 -0.1576
15644SOL     OW52767   0.605   9.373   6.610 -0.0250 -0.3833 -0.1651
15644SOL    HW152768   0.664   9.339   6.677  0.2158  0.2875 -0.0318
15644SOL    HW252769   0.657   9.371   6.529 -0.3667 -1.3435 -0.3808
15645SOL     OW52770   4.243   5.073   3.120  0.0533 -0.1564 -0.2775
15645SOL    HW152771   4.230   5.053   3.212 -0.7027 -2.3989 -0.8119
15645SOL    HW252772   4.156   5.094   3.087  0.1620 -0.3740 -0.7083
15646SOL     OW52773   5.139   0.386   1.487 -0.2695 -0.0483 -0.3376
15646SOL    HW152774   5.216   0.427   1.527  0.0009 -0.2059 -0.6838
15646SOL    HW252775   5.112   0.320   1.551  1.1019 -1.3756 -1.0493
15647SOL     OW52776   4.867   0.241   7.192  0.2012 -0.0646 -0.0002
15647SOL    HW152777   4.898   0.188   7.118  0.4096  1.3272 -0.9549
15647SOL    HW252778   4.824   0.317   7.151  1.0920  1.1936  1.2895
15648SOL     OW52779   8.040   3.542   4.389  0.1142  0.2415 -0.0390
15648SOL    HW152780   8.081   3.464   4.426 -2.6692 -1.3050  0.1127
15648SOL    HW252781   8.034   3.523   4.295 -2.0699 -0.6263  0.1991
15649SOL     OW52782   3.933   0.102   8.207 -0.0763 -0.1490  0.1348
15649SOL    HW152783   4.027   0.088   8.199 -0.2395 -0.6122 -1.2162
15649SOL    HW252784   3.902   0.029   8.260  0.1406 -0.8148 -0.6343
15650SOL     OW52785   0.898   6.629   9.969  0.0156 -0.0049  0.2766
15650SOL    HW152786   0.878   6.697  10.033  0.5511 -0.3782  0.8502
15650SOL    HW252787   0.964   6.667   9.912  0.2212  0.0031  0.5201
15651SOL     OW52788   5.165   0.435   8.803  0.2016  0.0356  0.4043
15651SOL    HW152789   5.236   0.448   8.866  0.6038  0.9095 -0.2215
15651SOL    HW252790   5.137   0.523   8.779 -2.5515 -0.1998  2.2176
15652SOL     OW52791   5.429   6.103   7.469  0.0625  0.1501 -0.0895
15652SOL    HW152792   5.355   6.146   7.427 -0.6781 -1.6252 -0.6877
15652SOL    HW252793   5.413   6.115   7.563 -0.2644  0.9002 -0.2294
15653SOL     OW52794   4.406   9.206   6.375  0.4936 -0.2045 -0.3712
15653SOL    HW152795   4.470   9.172   6.312  1.5612 -0.8150  0.9886
15653SOL    HW252796   4.349   9.131   6.394  0.4539 -0.1515 -0.2793
15654SOL     OW52797  10.137   3.160   1.371  0.1607 -0.1043 -0.1411
15654SOL    HW152798  10.135   3.153   1.276 -1.7944 -2.0259 -0.0147
15654SOL    HW252799  10.180   3.244   1.387 -0.2665  0.7007 -2.7213
15655SOL     OW52800   5.374  10.080   7.028 -0.4110  0.4448 -0.0113
15655SOL    HW152801   5.313  10.016   7.065  0.1855  0.6739  1.4311
15655SOL    HW252802   5.413  10.123   7.104  1.9635 -0.0771 -0.8687
15656SOL     OW52803   7.570   4.913   1.005 -0.0852 -0.1185 -0.6583
15656SOL    HW152804   7.497   4.883   0.950 -0.7366  0.5894 -0.2055
15656SOL    HW252805   7.641   4.929   0.943  0.6663 -3.4705 -0.8602
15657SOL     OW52806   9.288   6.656   7.724  0.4401 -0.0195  0.0027
15657SOL    HW152807   9.376   6.683   7.696  1.0404  0.5018  2.1817
15657SOL    HW252808   9.304   6.580   7.780 -0.4219  0.4441  0.9108
15658SOL     OW52809   5.729   8.686   8.730 -0.4285 -0.0636  0.6471
15658SOL    HW152810   5.731   8.592   8.747 -1.1580 -0.0618  0.7887
15658SOL    HW252811   5.643   8.715   8.763  0.2111  0.8448  1.6126
15659SOL     OW52812   9.316   3.867   1.296 -0.0468  0.3243 -0.1190
15659SOL    HW152813   9.376   3.794   1.277 -0.0497  0.5427 -0.9998
15659SOL    HW252814   9.357   3.913   1.370  0.6924  0.2597 -0.4766
15660SOL     OW52815   3.925   0.548   4.019 -0.5077  0.5787 -0.4172
15660SOL    HW152816   3.873   0.500   4.084  0.9348  1.1102  1.1850
15660SOL    HW252817   3.887   0.636   4.019  1.3733  1.4857  2.0524
15661SOL     OW52818   4.054   2.357   5.268  0.7171  0.0428 -0.3138
15661SOL    HW152819   4.019   2.269   5.252 -0.8745  0.6913 -0.6667
15661SOL    HW252820   3.976   2.414   5.268  1.7228  1.4801 -0.2889
15662SOL     OW52821   9.427   5.948   4.008 -0.1523  0.3678  0.0179
15662SOL    HW152822   9.412   5.960   4.101 -0.7684  0.4418 -0.0863
15662SOL    HW252823   9.472   5.863   4.002  0.0904  0.4701  0.3980
15663SOL     OW52824   2.551   1.734  10.776 -0.4322  0.2582  0.4274
15663SOL    HW152825   2.604   1.808  10.748 -0.6844 -0.8926 -3.7624
15663SOL    HW252826   2.462   1.768  10.779 -0.2513  0.6943  1.1521
15664SOL     OW52827   2.183   8.707   8.856  0.1792  0.0919 -0.1829
15664SOL    HW152828   2.228   8.627   8.883  0.0711  0.2622  0.5314
15664SOL    HW252829   2.218   8.727   8.769 -2.1573 -2.5532 -1.8889
15665SOL     OW52830   9.426   4.261   6.749  0.2819 -0.6622 -0.0846
15665SOL    HW152831   9.512   4.299   6.765  0.5651 -1.2748 -0.1279
15665SOL    HW252832   9.380   4.327   6.697  1.1400 -0.8065 -1.0773
15666SOL     OW52833   6.976   6.701   3.658  0.2881 -0.6159 -0.3608
15666SOL    HW152834   6.913   6.634   3.681 -0.0241 -0.5999 -1.1350
15666SOL    HW252835   6.999   6.743   3.741 -2.1702  0.6724 -0.2291
15667SOL     OW52836   1.909   7.824   6.553 -0.2160  0.0403  0.2333
15667SOL    HW152837   1.892   7.765   6.480  3.5672 -0.6302 -0.2949
15667SOL    HW252838   1.922   7.910   6.512  1.6575 -0.2888  0.0442
15668SOL     OW52839   5.933   1.715   1.397  0.5030  0.2025 -0.1719
15668SOL    HW152840   5.882   1.720   1.316  1.1025 -0.5478 -0.6055
15668SOL    HW252841   5.950   1.806   1.420 -0.2462  0.4418 -0.5207
15669SOL     OW52842   8.090   3.341   6.972 -0.1891 -0.5644  0.5110
15669SOL    HW152843   8.154   3.303   7.032 -0.4722 -2.3175 -0.2207
15669SOL    HW252844   8.114   3.433   6.966  2.5294 -1.2177 -0.0247
15670SOL     OW52845   9.706   9.283   6.352 -0.0689  0.4839 -0.1174
15670SOL    HW152846   9.726   9.268   6.445 -0.0349  2.3953  0.2252
15670SOL    HW252847   9.630   9.226   6.335  0.2548 -0.3059  0.9162
15671SOL     OW52848   9.810   5.050   7.293 -0.1310  0.2587 -0.0130
15671SOL    HW152849   9.868   4.984   7.331  0.1398  0.2464 -0.4392
15671SOL    HW252850   9.865   5.128   7.285 -0.3312  0.4127  0.0942
15672SOL     OW52851   9.486   8.851   9.086 -0.2902 -0.0826  0.0042
15672SOL    HW152852   9.510   8.891   9.169 -0.8872  0.7713 -0.2238
15672SOL    HW252853   9.547   8.889   9.022 -0.1587 -0.3587 -0.0398
15673SOL     OW52854  10.883   5.916   9.014 -0.2630 -0.2426  0.1020
15673SOL    HW152855  10.869   5.823   9.033  0.8569 -0.7338 -1.3025
15673SOL    HW252856  10.938   5.947   9.086 -0.1019 -0.8421  0.2454
15674SOL     OW52857   7.653   7.827   4.850  0.5286  0.1301  0.1434
15674SOL    HW152858   7.599   7.875   4.788 -0.1572 -0.8783 -0.0706
15674SOL    HW252859   7.733   7.807   4.801  0.3065 -0.0050 -0.1688
15675SOL     OW52860   1.434   9.554   0.367 -0.1813  0.2263 -0.7003
15675SOL    HW152861   1.476   9.564   0.282  1.1869  0.2767 -0.0479
15675SOL    HW252862   1.474   9.475   0.404 -0.1409  0.6761  0.2390
15676SOL     OW52863   4.100   0.349   8.294 -0.0733 -0.3607  0.2737
15676SOL    HW152864   4.041   0.293   8.345 -0.4045 -1.0714 -0.8486
15676SOL    HW252865   4.173   0.292   8.271  0.1514 -0.0033  0.0969
15677SOL     OW52866  10.109   5.631   9.153  0.0054 -0.6765  0.0038
15677SOL    HW152867  10.053   5.587   9.089 -0.4556  0.2385 -0.2234
15677SOL    HW252868  10.105   5.723   9.130 -0.3648 -0.2904  1.4898
15678SOL     OW52869   2.353   2.126   7.667 -0.3323 -0.4745 -0.4160
15678SOL    HW152870   2.281   2.189   7.655  0.9882  0.7643 -2.4948
15678SOL    HW252871   2.309   2.041   7.674 -2.0355  0.3147 -0.8632
15679SOL     OW52872   8.942   1.138   4.428 -0.2154  0.0275  0.2694
15679SOL    HW152873   8.892   1.166   4.505 -1.2463  0.6544 -0.6029
15679SOL    HW252874   9.030   1.173   4.443 -0.5464  0.6050  0.9208
15680SOL     OW52875   7.473   1.558   9.441 -0.4531  0.3379 -0.4507
15680SOL    HW152876   7.426   1.505   9.378 -0.6978  0.4093 -0.3304
15680SOL    HW252877   7.547   1.595   9.392 -1.3176  1.3650 -1.0147
15681SOL     OW52878   9.942   7.693   4.437 -0.0587 -0.1471 -0.1321
15681SOL    HW152879   9.982   7.741   4.364  0.3877  0.7169  0.6650
15681SOL    HW252880   9.856   7.666   4.403 -0.9761  2.4883 -0.1540
15682SOL     OW52881   7.599   1.460  10.104  0.2337 -0.0547  0.3697
15682SOL    HW152882   7.524   1.520  10.111  1.4230  2.1695 -3.1948
15682SOL    HW252883   7.561   1.376  10.079 -1.1497  1.2884 -2.4294
15683SOL     OW52884   7.087   3.184   2.651 -0.1844 -0.1439  0.3729
15683SOL    HW152885   7.007   3.202   2.602 -0.3091  0.6379  0.8489
15683SOL    HW252886   7.150   3.153   2.585 -0.9828 -1.1330  0.0541
15684SOL     OW52887   4.825   4.888   2.381  0.2238  0.6221  0.5177
15684SOL    HW152888   4.892   4.823   2.360  0.5110  1.7474 -2.5871
15684SOL    HW252889   4.743   4.839   2.385  0.6251 -0.1393 -0.3614
15685SOL     OW52890   7.815  10.735   6.840 -0.0766  0.2161  0.0298
15685SOL    HW152891   7.755  10.801   6.875 -1.6938 -0.5120 -1.2614
15685SOL    HW252892   7.815  10.750   6.746 -0.9919 -2.0089 -0.3800
15686SOL     OW52893   7.898   7.642   4.928 -0.6147 -0.0990  0.2300
15686SOL    HW152894   7.919   7.736   4.926  0.6974 -0.3812 -1.2928
15686SOL    HW252895   7.976   7.602   4.967 -0.5621 -0.6777 -0.4605
15687SOL     OW52896   4.399   5.615   3.599  0.3356 -0.3503  0.3724
15687SOL    HW152897   4.447   5.649   3.674  0.5344 -0.0757  0.1268
15687SOL    HW252898   4.315   5.586   3.634 -0.0137  0.8191  0.5086
15688SOL     OW52899   9.190   5.867   2.621 -0.2480  0.0073 -0.2579
15688SOL    HW152900   9.226   5.946   2.660  1.9140 -0.6586 -0.7164
15688SOL    HW252901   9.104   5.892   2.589 -0.2925  1.7058  1.0602
15689SOL     OW52902  10.647   7.049   8.477 -0.4393  0.3238  0.3598
15689SOL    HW152903  10.713   7.079   8.539  0.3564  0.7218 -0.6421
15689SOL    HW252904  10.565   7.090   8.506 -0.0630  0.5646  1.0839
15690SOL     OW52905   0.218   0.831   1.554  0.3044 -0.0700  0.1141
15690SOL    HW152906   0.229   0.751   1.504  1.8902  1.0143 -1.3825
15690SOL    HW252907   0.142   0.874   1.515 -0.5752 -0.8223  0.9484
15691SOL     OW52908   2.911   6.464   0.187 -0.3447  0.0439 -0.2626
15691SOL    HW152909   2.994   6.506   0.164  0.4272 -0.9314  0.6451
15691SOL    HW252910   2.845   6.531   0.171  0.7104  1.1603 -0.1084
15692SOL     OW52911  10.722   3.594  10.390 -0.8343  0.3827  0.6198
15692SOL    HW152912  10.748   3.662  10.453  0.1799 -0.2994  0.9581
15692SOL    HW252913  10.720   3.639  10.306  0.7739  0.6451  0.6920
15693SOL     OW52914   9.788   4.884   0.885 -0.2164 -0.0553  0.4115
15693SOL    HW152915   9.821   4.881   0.795  2.2496 -1.3487  1.2431
15693SOL    HW252916   9.839   4.954   0.926  0.6408 -1.2012  1.4010
15694SOL     OW52917   4.011   0.399  10.140 -0.8655 -0.2078  0.0599
15694SOL    HW152918   4.012   0.355  10.054  1.9227  2.4960 -1.4887
15694SOL    HW252919   4.075   0.351  10.192  2.2619  1.8112 -1.6612
15695SOL     OW52920   1.694   6.861   6.438 -0.2831 -0.1439 -0.2321
15695SOL    HW152921   1.783   6.827   6.428  0.2331  0.5961  1.5572
15695SOL    HW252922   1.640   6.802   6.385  1.0035 -1.8487  0.2808
15696SOL     OW52923   1.288  10.388   8.392  0.2119  0.8650  0.6863
15696SOL    HW152924   1.342  10.355   8.463 -0.4699 -0.4757  0.6067
15696SOL    HW252925   1.346  10.386   8.315  0.3571  0.4107  0.8050
15697SOL     OW52926   6.210  10.275   2.094  0.1241 -0.4071  0.2592
15697SOL    HW152927   6.207  10.181   2.079 -1.5271 -0.0867 -2.0244
15697SOL    HW252928   6.295  10.302   2.060 -0.0091 -0.9130 -0.5087
15698SOL     OW52929   9.940   1.560   9.266 -0.0358 -0.1183 -0.2944
15698SOL    HW152930   9.969   1.649   9.247 -2.0740  0.5279 -0.6239
15698SOL    HW252931   9.897   1.531   9.186 -0.3019 -1.0246  0.1587
15699SOL     OW52932   3.819   8.498   4.441 -0.6723  0.0051 -0.0872
15699SOL    HW152933   3.840   8.588   4.413 -0.9654  0.3658  0.8208
15699SOL    HW252934   3.903   8.462   4.469 -0.7564  0.4384  0.7462
15700SOL     OW52935   4.029   7.432   3.932 -0.8113 -0.5338  0.1883
15700SOL    HW152936   3.936   7.431   3.910 -1.2204  2.1210  1.4390
15700SOL    HW252937   4.073   7.462   3.852 -1.4248  1.2904  0.4839
15701SOL     OW52938   0.584  10.621   8.988  0.1234  0.2001  0.6083
15701SOL    HW152939   0.604  10.635   9.080  0.2338  1.9687  0.3446
15701SOL    HW252940   0.501  10.666   8.974  1.0322  1.6294 -0.5433
15702SOL     OW52941   2.440   8.338   4.816 -0.4188 -0.1590 -0.1539
15702SOL    HW152942   2.392   8.276   4.761 -1.3087 -0.0021  0.4247
15702SOL    HW252943   2.464   8.409   4.756  1.0216 -1.2499 -0.9251
15703SOL     OW52944   2.408   6.751   1.609 -0.2656 -0.2867  0.6138
15703SOL    HW152945   2.463   6.809   1.661 -0.7313 -0.2647  1.0950
15703SOL    HW252946   2.319   6.771   1.638 -0.7703  1.3244 -1.7308
15704SOL     OW52947   8.387   7.532   7.928  0.0335  0.4345  0.0770
15704SOL    HW152948   8.317   7.592   7.902 -0.2101 -0.3467 -1.1296
15704SOL    HW252949   8.380   7.459   7.867  1.1024 -0.2569  0.7525
15705SOL     OW52950   4.863   1.201  10.006  0.1162  0.6675  0.2868
15705SOL    HW152951   4.833   1.162  10.088 -0.2007  0.9883  0.3245
15705SOL    HW252952   4.937   1.145   9.979  0.3428  0.6674  0.8816
15706SOL     OW52953   3.794   8.313  10.820  0.0113  0.4297 -0.5717
15706SOL    HW152954   3.750   8.286  10.901 -1.3294  3.2386 -0.2411
15706SOL    HW252955   3.723   8.322  10.756  0.2581  3.2105 -0.5632
15707SOL     OW52956   5.346   9.760   6.732 -0.6054 -0.5015 -0.0463
15707SOL    HW152957   5.341   9.839   6.677 -0.3228 -1.1937 -1.1018
15707SOL    HW252958   5.266   9.762   6.784 -1.1084 -0.0538 -0.8093
15708SOL     OW52959   3.073   0.582  10.671  0.0305 -0.6042 -0.2499
15708SOL    HW152960   3.145   0.634  10.634 -0.2359  1.5222  2.0247
15708SOL    HW252961   3.052   0.519  10.601  3.3186 -0.6221 -1.4354
15709SOL     OW52962   6.003   8.865   9.513 -0.2238  0.0934  0.5635
15709SOL    HW152963   5.935   8.835   9.573  0.3290 -0.8478  0.7352
15709SOL    HW252964   6.084   8.859   9.563  0.1970 -0.3211 -0.1444
15710SOL     OW52965   3.940   0.671   1.087 -0.0701 -0.3439  0.2230
15710SOL    HW152966   3.940   0.677   1.183 -1.4317 -0.1181  0.2360
15710SOL    HW252967   3.943   0.577   1.069 -1.0109 -0.4420  0.5240
15711SOL     OW52968   6.192   4.299   4.009 -0.4749  0.8133  0.1467
15711SOL    HW152969   6.259   4.233   3.990 -1.1926  0.8052 -2.6977
15711SOL    HW252970   6.117   4.249   4.040 -0.5744  0.4128 -0.7335
15712SOL     OW52971   1.876   3.400   3.497  0.1952  0.0710  0.0682
15712SOL    HW152972   1.807   3.455   3.535  0.6951 -0.4547  1.8383
15712SOL    HW252973   1.837   3.313   3.491  0.6604 -0.2135  1.0093
15713SOL     OW52974   2.192   4.676   2.543  0.7003 -0.1129 -0.7130
15713SOL    HW152975   2.172   4.588   2.575  2.3319 -0.4203 -0.4550
15713SOL    HW252976   2.170   4.674   2.450 -1.8263  0.0645 -0.1986
15714SOL     OW52977   7.767   5.684   8.931 -0.1603 -0.0081  0.5616
15714SOL    HW152978   7.800   5.603   8.893  0.0558  0.7541 -0.9462
15714SOL    HW252979   7.682   5.697   8.888  0.4511  1.2877 -0.3138
15715SOL     OW52980  10.811   8.197   8.983 -0.0860 -0.1109 -0.1328
15715SOL    HW152981  10.868   8.269   8.955  1.4727 -0.6300  1.5283
15715SOL    HW252982  10.839   8.123   8.930 -0.0726 -0.0576 -0.2007
15716SOL     OW52983   5.822   0.753   7.242 -0.0173  0.2082  0.2561
15716SOL    HW152984   5.801   0.700   7.165 -1.3878  0.8971  0.1424
15716SOL    HW252985   5.789   0.840   7.221  0.8570  0.7559  1.0657
15717SOL     OW52986   9.145   6.451   7.267 -0.1427  0.1366  0.3604
15717SOL    HW152987   9.133   6.370   7.218 -0.0105 -0.8294  1.8699
15717SOL    HW252988   9.152   6.519   7.199 -0.2681 -1.0906 -0.9313
15718SOL     OW52989   3.497   3.142   0.738 -0.0291  0.9141 -0.0931
15718SOL    HW152990   3.435   3.078   0.703 -0.4118  0.1904  1.7412
15718SOL    HW252991   3.565   3.089   0.780 -0.5570  1.6490  1.8010
15719SOL     OW52992   0.466   2.532   6.510 -0.6418  0.3982  0.0266
15719SOL    HW152993   0.521   2.455   6.495 -1.6730 -0.5699  1.0003
15719SOL    HW252994   0.438   2.524   6.602 -0.1962  2.3244  0.3790
15720SOL     OW52995   7.714   9.844   8.287  0.3758  0.2112  0.1646
15720SOL    HW152996   7.666   9.902   8.347  0.4017  0.5814 -0.1701
15720SOL    HW252997   7.676   9.861   8.201  0.3040 -0.3605  0.0829
15721SOL     OW52998   6.359   9.023   7.306 -0.3280 -0.0267  0.9144
15721SOL    HW152999   6.371   9.094   7.369  0.0750 -0.8092  1.7354
15721SOL    HW253000   6.340   8.946   7.359 -2.1578 -0.2784 -0.0320
15722SOL     OW53001   8.771   9.480   7.902 -0.9304 -0.4574  0.2796
15722SOL    HW153002   8.744   9.565   7.868 -0.1871  0.0495  0.9203
15722SOL    HW253003   8.714   9.417   7.858 -0.2126  0.1992 -1.6585
15723SOL     OW53004   8.516   8.912   8.904  0.2386 -0.1175  0.1461
15723SOL    HW153005   8.421   8.923   8.893 -0.5374 -2.5670  2.8575
15723SOL    HW253006   8.546   8.880   8.819 -1.8312 -1.4191 -0.1845
15724SOL     OW53007   3.946   5.764   4.652  0.4193  0.2458 -0.1412
15724SOL    HW153008   3.900   5.770   4.569 -0.4474  0.9279  0.3661
15724SOL    HW253009   3.879   5.736   4.715  0.7692  0.9038  0.5431
15725SOL     OW53010   5.668   0.023   2.204  0.8514  0.2623 -0.3577
15725SOL    HW153011   5.718  -0.039   2.257  0.1165 -0.7231 -0.8137
15725SOL    HW253012   5.599   0.054   2.263 -0.6655 -1.6899 -1.0413
15726SOL     OW53013   7.014   2.534   7.105 -0.2130 -0.3297 -0.1129
15726SOL    HW153014   7.001   2.462   7.166 -0.0823  0.9162  1.4726
15726SOL    HW253015   6.931   2.582   7.105  0.2854  0.5727  0.3443
15727SOL     OW53016   2.108   1.530   2.907  0.7787 -0.2354  0.1489
15727SOL    HW153017   2.051   1.583   2.962  1.4679  0.7591 -0.0809
15727SOL    HW253018   2.125   1.451   2.960 -1.3526 -0.9003 -0.0597
15728SOL     OW53019   6.351   3.336   3.393 -0.0567  0.3416  0.1667
15728SOL    HW153020   6.411   3.262   3.400  1.0374  1.2994  1.4712
15728SOL    HW253021   6.287   3.322   3.464 -0.4646  0.1311 -0.2358
15729SOL     OW53022   2.154   8.847   1.516 -0.2638  0.2460  0.7208
15729SOL    HW153023   2.203   8.775   1.476 -0.5409  0.9310 -0.9524
15729SOL    HW253024   2.203   8.925   1.492 -0.9943  0.7663  0.8940
15730SOL     OW53025   4.991   8.638   7.501  0.0684 -0.1592 -0.3674
15730SOL    HW153026   5.021   8.547   7.507  0.8911 -0.0749 -2.3890
15730SOL    HW253027   5.051   8.679   7.439 -0.4029  1.7389  0.3643
15731SOL     OW53028   8.969   4.336   1.994 -0.3216 -0.2431  0.2040
15731SOL    HW153029   8.906   4.364   1.928 -0.3283 -1.2385 -0.2326
15731SOL    HW253030   8.922   4.344   2.077 -0.6222  0.1431 -0.0017
15732SOL     OW53031   4.285   5.566   3.852  0.2790  0.1287  0.4281
15732SOL    HW153032   4.367   5.520   3.833  0.3574  0.6841 -0.6687
15732SOL    HW253033   4.285   5.579   3.947  0.6830 -1.3175  0.6452
15733SOL     OW53034   0.891   4.425   0.454  0.4778 -0.3187  0.1186
15733SOL    HW153035   0.885   4.518   0.431 -0.6993 -0.8932 -2.1600
15733SOL    HW253036   0.945   4.386   0.385  0.2714 -1.4844  0.5848
15734SOL     OW53037   3.234   0.985   5.291 -0.3735 -0.1389 -0.3071
15734SOL    HW153038   3.244   0.927   5.215  0.0794 -1.2590  0.5878
15734SOL    HW253039   3.139   0.995   5.300 -0.4521 -0.5196 -0.6484
15735SOL     OW53040   3.994   2.270   3.144  0.1493 -0.2284 -0.4235
15735SOL    HW153041   4.087   2.266   3.121  0.5803 -0.3907  1.2715
15735SOL    HW253042   3.990   2.247   3.236 -1.5622  0.0436 -0.3903
15736SOL     OW53043   6.233   4.347   2.814 -0.0688  0.4590  0.6087
15736SOL    HW153044   6.286   4.336   2.894  1.0183 -0.5930 -0.2150
15736SOL    HW253045   6.173   4.418   2.835  1.0974  1.1156  1.9038
15737SOL     OW53046  10.716   3.207   6.226  0.6407 -0.0680 -0.2055
15737SOL    HW153047  10.635   3.168   6.257  0.4849  0.0122 -0.5058
15737SOL    HW253048  10.737   3.273   6.292  0.0295  0.4697 -0.5389
15738SOL     OW53049   7.898   7.386   8.517 -0.1325 -0.4611  0.3029
15738SOL    HW153050   7.850   7.386   8.434 -3.2856 -1.5129  1.9849
15738SOL    HW253051   7.904   7.294   8.542  2.9940 -0.3988  0.1652
15739SOL     OW53052   3.941   9.544   4.594 -0.1424 -0.5613  0.1056
15739SOL    HW153053   3.912   9.475   4.653 -2.8145  1.4815  1.3964
15739SOL    HW253054   4.026   9.571   4.629 -0.1197 -1.6315  0.9374
15740SOL     OW53055   2.225   2.072   9.888 -0.2351 -0.1380  0.4846
15740SOL    HW153056   2.133   2.100   9.890  0.0862  0.9965  2.1327
15740SOL    HW253057   2.243   2.056   9.796 -1.3653  2.2431 -0.2518
15741SOL     OW53058   6.537   2.546   3.717 -0.0070  0.2480  0.2420
15741SOL    HW153059   6.604   2.599   3.761  0.3871  0.1685 -0.2478
15741SOL    HW253060   6.536   2.464   3.766  0.5459  0.0978  0.0127
15742SOL     OW53061   6.124   1.131   1.961 -0.1621  0.2217  0.0172
15742SOL    HW153062   6.152   1.154   2.050 -0.7095  1.8137 -0.1865
15742SOL    HW253063   6.029   1.120   1.968  0.0294 -1.9530  0.0518
15743SOL     OW53064  10.003   4.159   6.569  0.4630 -0.1862  0.0826
15743SOL    HW153065  10.035   4.241   6.532 -0.4298 -0.0967 -0.5247
15743SOL    HW253066   9.992   4.179   6.663 -1.3378  0.9662 -0.2994
15744SOL     OW53067   9.275   7.112   7.079 -0.9213 -0.0936  0.2755
15744SOL    HW153068   9.349   7.075   7.127 -1.0809  0.9294  1.3853
15744SOL    HW253069   9.293   7.092   6.987  1.1273  0.7405  0.4233
15745SOL     OW53070  10.333   5.167   6.270 -0.0107 -0.4927 -0.1346
15745SOL    HW153071  10.297   5.148   6.184 -0.5268 -0.0269 -0.0265
15745SOL    HW253072  10.401   5.232   6.254 -1.4268  1.0861  0.0029
15746SOL     OW53073   6.488   2.837   5.133 -0.1950  0.0099  0.0226
15746SOL    HW153074   6.449   2.758   5.170 -1.8050 -0.0886 -1.7597
15746SOL    HW253075   6.415   2.897   5.121  0.5758  0.7711 -1.0770
15747SOL     OW53076   7.302   4.890   9.565 -0.4762  0.1650  0.2247
15747SOL    HW153077   7.307   4.966   9.506 -1.0448  0.0850  0.0662
15747SOL    HW253078   7.346   4.820   9.517  0.9659  0.6376  0.7927
15748SOL     OW53079   2.360   8.620   8.086 -0.0900  0.3526 -0.0746
15748SOL    HW153080   2.325   8.688   8.144  1.2866  0.2771  0.8983
15748SOL    HW253081   2.345   8.538   8.134  3.1351  0.4780  1.3604
15749SOL     OW53082   9.961   8.240   8.482  0.4401  0.4159 -0.3599
15749SOL    HW153083   9.866   8.240   8.468  0.2473  1.5122  0.8119
15749SOL    HW253084   9.987   8.331   8.471  1.9728 -0.2863 -4.1477
15750SOL     OW53085  10.322   7.030   5.766 -0.0700  0.2359 -0.7107
15750SOL    HW153086  10.326   6.975   5.844  1.0991 -2.0834 -2.2815
15750SOL    HW253087  10.397   7.003   5.713 -0.0093  2.6984 -2.0603
15751SOL     OW53088   3.280   5.839   3.449 -0.2146  0.2172  0.0979
15751SOL    HW153089   3.186   5.848   3.461 -0.3471  0.3992 -1.0182
15751SOL    HW253090   3.307   5.779   3.519 -1.0343  0.7089  0.8616
15752SOL     OW53091   5.889   2.232   6.661  0.1847 -1.0257  0.0972
15752SOL    HW153092   5.947   2.172   6.708 -0.6741 -0.9833  1.2476
15752SOL    HW253093   5.839   2.275   6.729  1.9583  2.3424 -0.5042
15753SOL     OW53094   7.500   6.031   4.437 -0.4277  0.0662 -0.6364
15753SOL    HW153095   7.520   5.980   4.359  1.0247 -2.5022  1.2750
15753SOL    HW253096   7.579   6.081   4.454 -0.5380  0.1888 -0.4861
15754SOL     OW53097   4.631   6.080   9.784 -0.0526  0.1737  0.0314
15754SOL    HW153098   4.702   6.017   9.788 -0.4079 -0.2467 -0.1159
15754SOL    HW253099   4.554   6.032   9.814 -0.9195 -0.3676 -2.7497
15755SOL     OW53100   5.188  10.213   6.488  0.2057 -0.2576 -0.3144
15755SOL    HW153101   5.153  10.129   6.520 -0.0185 -0.2935 -0.6513
15755SOL    HW253102   5.148  10.279   6.545  2.0034 -0.5091  1.3417
15756SOL     OW53103   8.076  10.635   7.611  0.7648 -0.0384 -0.2226
15756SOL    HW153104   8.107  10.725   7.617 -0.6231  0.4263  0.3085
15756SOL    HW253105   7.981  10.641   7.623  0.4789 -1.4344 -1.5025
15757SOL     OW53106   4.742   1.744   3.972  0.1991 -0.4828  0.9215
15757SOL    HW153107   4.829   1.770   4.001  0.6252  0.0581 -0.7468
15757SOL    HW253108   4.752   1.723   3.880 -1.0795 -2.2457  1.1359
15758SOL     OW53109   9.828   8.979   5.283  0.1802 -0.0460  0.1679
15758SOL    HW153110   9.771   8.927   5.226  1.2883 -0.9697 -0.1631
15758SOL    HW253111   9.881   9.031   5.222 -0.1728  0.6692  0.4604
15759SOL     OW53112   0.358   6.385   9.489  0.3663 -0.2350  0.1568
15759SOL    HW153113   0.365   6.479   9.472 -0.8484 -0.1724 -0.0761
15759SOL    HW253114   0.396   6.374   9.576  0.0234  0.5576  0.4168
15760SOL     OW53115   6.368   9.307   8.418 -0.9986 -0.1187 -0.4603
15760SOL    HW153116   6.340   9.397   8.433  0.7071  0.2069  1.1779
15760SOL    HW253117   6.341   9.259   8.496  0.5947 -0.3577 -0.0183
15761SOL     OW53118   9.073   1.453   9.502  0.0246  0.3721  0.0176
15761SOL    HW153119   9.113   1.378   9.547  0.6631  0.9027  0.3609
15761SOL    HW253120   9.018   1.414   9.434  2.8613 -0.4158 -2.0196
15762SOL     OW53121   7.386   5.142  10.467  0.4110 -0.3088 -0.1835
15762SOL    HW153122   7.384   5.085  10.390 -0.7287 -0.4322 -0.0817
15762SOL    HW253123   7.306   5.120  10.515  2.3069 -2.0986  2.4216
15763SOL     OW53124   4.280   0.820   6.086 -0.0599 -0.2053 -0.0820
15763SOL    HW153125   4.219   0.885   6.121  0.6316  0.1595  0.4742
15763SOL    HW253126   4.224   0.750   6.052 -0.8004  0.4412 -0.2209
15764SOL     OW53127   2.302   6.503   9.350  0.2410  0.2908 -0.0707
15764SOL    HW153128   2.380   6.557   9.365  0.5368 -0.3933  0.9710
15764SOL    HW253129   2.230   6.565   9.350  0.5004  0.6460  1.8214
15765SOL     OW53130   3.953   6.883   0.333  0.2946 -0.5867  0.7931
15765SOL    HW153131   3.993   6.826   0.268  0.4361  0.0112  0.3486
15765SOL    HW253132   4.011   6.959   0.339  0.5300 -0.8352  1.9574
15766SOL     OW53133   2.703   7.385   7.156  0.0066 -0.1557  0.3134
15766SOL    HW153134   2.639   7.317   7.137  0.5155 -0.7908  0.8280
15766SOL    HW253135   2.764   7.383   7.082  0.4120 -0.7355  0.6567
15767SOL     OW53136   8.733   6.286  10.861 -0.2470  0.5552 -0.0394
15767SOL    HW153137   8.681   6.367  10.863 -1.6476 -0.3133 -0.3588
15767SOL    HW253138   8.766   6.281  10.771  0.5257  1.1639  0.1942
15768SOL     OW53139   8.713   8.889   2.352 -0.0606 -0.2165 -0.1383
15768SOL    HW153140   8.761   8.964   2.317  0.2625  0.8711  2.4202
15768SOL    HW253141   8.622   8.907   2.333  0.2357 -0.7872 -2.3253
15769SOL     OW53142   3.015   2.221   0.182 -0.5481 -0.3439 -1.0324
15769SOL    HW153143   2.965   2.245   0.260  0.4858  0.0106 -0.4615
15769SOL    HW253144   2.948   2.204   0.116 -1.5682 -2.9232  0.5112
15770SOL     OW53145   3.796   6.489   4.876  0.0302 -0.0988  0.1919
15770SOL    HW153146   3.844   6.450   4.802 -0.1879 -2.2630  1.1205
15770SOL    HW253147   3.704   6.480   4.852 -0.0142  0.3780  0.1757
15771SOL     OW53148   4.126   5.296   7.006 -0.9867  0.3668 -0.1901
15771SOL    HW153149   4.160   5.255   7.085  0.0425  0.2845 -0.6589
15771SOL    HW253150   4.171   5.251   6.934 -0.1430  1.9870 -0.7412
15772SOL     OW53151   2.731   4.168   2.890 -0.6994 -0.6809  0.5404
15772SOL    HW153152   2.778   4.086   2.884 -1.3993 -1.2080  1.9466
15772SOL    HW253153   2.797   4.232   2.916 -0.1791 -0.8054 -0.4381
15773SOL     OW53154   2.127   9.336   8.376  0.2410 -0.6511 -0.3198
15773SOL    HW153155   2.133   9.393   8.452  1.5532  0.7227 -1.3876
15773SOL    HW253156   2.040   9.351   8.341 -0.1122 -0.7577  0.4946
15774SOL     OW53157   1.373  10.826   4.257 -0.0630 -0.2105  0.3456
15774SOL    HW153158   1.280  10.839   4.241  0.1236  0.9268  0.0929
15774SOL    HW253159   1.405  10.913   4.282  1.0873 -0.4011 -0.3948
15775SOL     OW53160   0.881   8.310   3.228  0.1238  0.2482 -0.1098
15775SOL    HW153161   0.866   8.259   3.308 -2.4503  1.4156  0.2463
15775SOL    HW253162   0.870   8.246   3.157  0.1469 -0.3244  0.3941
15776SOL     OW53163   9.805   5.809   7.229  0.2944 -0.2866  0.3171
15776SOL    HW153164   9.853   5.875   7.280 -0.6091  1.2899 -0.7696
15776SOL    HW253165   9.714   5.822   7.254  0.1952 -1.8576  0.8388
15777SOL     OW53166   1.019   3.301   4.664 -0.1201  0.0756 -0.2449
15777SOL    HW153167   1.012   3.284   4.570  0.4360 -0.3461 -0.2160
15777SOL    HW253168   0.929   3.318   4.692 -0.2780  0.2864 -0.8680
15778SOL     OW53169  10.906   3.870   5.338 -0.0206  0.0588 -0.0621
15778SOL    HW153170  10.887   3.821   5.417  1.7218 -1.7576 -0.6942
15778SOL    HW253171  10.820   3.895   5.304 -0.9961 -2.2889  0.4779
15779SOL     OW53172   0.000   5.244   3.928  0.0298 -0.0916 -0.4731
15779SOL    HW153173   0.084   5.280   3.958 -0.0144 -0.1256 -0.3104
15779SOL    HW253174   0.023   5.196   3.848  0.3290 -0.9116  0.0951
15780SOL     OW53175   2.112   8.383   6.202  0.3400  0.1173 -0.2222
15780SOL    HW153176   2.028   8.362   6.243  0.3189  3.0162  1.4381
15780SOL    HW253177   2.091   8.451   6.138  1.3663  0.6513 -0.0047
15781SOL     OW53178   2.740   3.286   5.848 -0.6385  0.1999 -0.4691
15781SOL    HW153179   2.653   3.270   5.885 -0.4526 -0.2416 -0.2095
15781SOL    HW253180   2.798   3.287   5.924 -0.3029 -0.3384 -0.7158
15782SOL     OW53181   8.460   5.987   7.725 -0.2382  0.2593  0.2097
15782SOL    HW153182   8.410   5.943   7.656  0.1133  0.1382  0.0277
15782SOL    HW253183   8.431   5.945   7.806  1.4104 -1.6219 -0.1029
15783SOL     OW53184   6.124   0.741   2.210  0.1191 -0.3423 -0.3438
15783SOL    HW153185   6.043   0.698   2.185  0.0838 -0.4902  0.0260
15783SOL    HW253186   6.115   0.830   2.175  0.3900 -0.7585 -1.5083
15784SOL     OW53187   0.328   7.167   6.557  0.1457 -0.5803  0.5008
15784SOL    HW153188   0.265   7.097   6.537 -3.0593  2.3952 -0.8219
15784SOL    HW253189   0.385   7.170   6.480  0.9187 -2.1802  0.9494
15785SOL     OW53190   2.362   4.924   3.402  1.1010  0.4682  0.0008
15785SOL    HW153191   2.447   4.891   3.434  1.6265  1.6692 -0.1133
15785SOL    HW253192   2.354   5.011   3.440 -0.4936  0.0538  0.6874
15786SOL     OW53193   3.214   4.021   9.480 -0.0975  0.2244 -0.0271
15786SOL    HW153194   3.252   3.945   9.524  0.3802  0.2403 -0.4027
15786SOL    HW253195   3.163   3.984   9.408  1.5321  0.2937 -1.2917
15787SOL     OW53196   1.448   0.199  10.752 -0.1736  0.4949 -0.2816
15787SOL    HW153197   1.402   0.184  10.670  2.1847 -1.7179 -1.3139
15787SOL    HW253198   1.410   0.135  10.813 -0.9778  1.2218  0.0112
15788SOL     OW53199   4.103   5.038   0.997 -0.4498 -0.0256 -0.2355
15788SOL    HW153200   4.174   5.099   1.017  1.0690 -1.8374  0.0807
15788SOL    HW253201   4.110   4.970   1.064 -2.6472 -0.1760 -0.0565
15789SOL     OW53202   8.861   6.788   9.714 -0.0617 -0.2248 -0.5283
15789SOL    HW153203   8.869   6.695   9.693  2.3433 -0.4716  1.0331
15789SOL    HW253204   8.811   6.790   9.795  0.9586 -0.2833  0.1128
15790SOL     OW53205  10.202   6.114   7.547  0.0384  0.0884  0.1509
15790SOL    HW153206  10.184   6.191   7.493  0.3798 -1.1404 -1.8122
15790SOL    HW253207  10.120   6.099   7.594 -0.6549  0.5576 -0.8715
15791SOL     OW53208   7.125   8.062   1.041  0.5147  0.6919  0.1812
15791SOL    HW153209   7.065   8.135   1.024 -0.5862  0.5906  3.1161
15791SOL    HW253210   7.208   8.104   1.063  0.5990  0.9536 -0.6176
15792SOL     OW53211   7.989   6.760   8.547 -0.0974 -0.2458  0.3636
15792SOL    HW153212   7.961   6.769   8.638 -1.5787 -1.3016  0.0537
15792SOL    HW253213   8.076   6.799   8.544 -0.8853  1.7552  1.7627
15793SOL     OW53214   9.543   2.103   1.685  0.3824 -0.7819  0.3011
15793SOL    HW153215   9.525   2.161   1.611  0.2712 -0.8801  0.2516
15793SOL    HW253216   9.478   2.033   1.678 -1.1380  0.4073  1.7934
15794SOL     OW53217   9.417   1.656   2.851  0.1609  0.8061  0.7879
15794SOL    HW153218   9.351   1.588   2.866 -0.2043  0.6835 -1.0793
15794SOL    HW253219   9.438   1.648   2.758 -0.1189  3.4458  0.4125
15795SOL     OW53220   6.986   0.775   8.744  0.4376  0.7346 -0.2475
15795SOL    HW153221   6.946   0.858   8.771 -0.3763  0.6683 -1.2041
15795SOL    HW253222   7.050   0.756   8.813  1.4573  2.7252 -0.5749
15796SOL     OW53223   9.446  10.441   5.157 -0.2006  0.7418 -0.7159
15796SOL    HW153224   9.388  10.516   5.155 -0.8882  0.2712  0.3960
15796SOL    HW253225   9.532  10.478   5.178 -0.3271  1.3102 -1.1750
15797SOL     OW53226   6.766   2.283   1.743 -0.6578  0.2063 -0.2057
15797SOL    HW153227   6.763   2.320   1.832  0.3924  0.1959 -0.1578
15797SOL    HW253228   6.696   2.329   1.696 -0.9310  0.5314  0.5014
15798SOL     OW53229   4.021   0.142   2.531 -0.3135  0.0631  0.0546
15798SOL    HW153230   4.100   0.176   2.573 -1.2632  2.9793 -0.3319
15798SOL    HW253231   4.031   0.166   2.438 -0.3861 -2.1226 -0.5779
15799SOL     OW53232   1.431   8.324   9.093 -0.3731 -0.0064  0.7545
15799SOL    HW153233   1.517   8.283   9.098 -0.9605 -1.3902  0.1595
15799SOL    HW253234   1.447   8.417   9.109  1.4281 -0.0094 -0.7433
15800SOL     OW53235  10.807  10.864   5.045  0.1469 -0.2993  0.0647
15800SOL    HW153236  10.789  10.847   5.138 -1.4078  0.6143 -0.0435
15800SOL    HW253237  10.902  10.862   5.039  0.2737 -0.5027  1.6531
15801SOL     OW53238   6.773   2.214   2.180 -0.1579  0.2219 -0.1038
15801SOL    HW153239   6.717   2.148   2.138 -2.3084  2.4217 -0.9465
15801SOL    HW253240   6.740   2.221   2.269  1.0592 -0.8006  0.4740
15802SOL     OW53241   4.946  10.035   2.801 -0.0211 -0.5526 -0.0163
15802SOL    HW153242   4.878  10.008   2.740  2.2936 -0.0239 -3.0507
15802SOL    HW253243   4.956   9.961   2.861 -3.2278 -0.5792  0.6467
15803SOL     OW53244   6.810   5.418  10.064 -0.5193 -0.3417  0.0514
15803SOL    HW153245   6.734   5.468  10.033 -1.8845 -1.7465  0.9695
15803SOL    HW253246   6.789   5.328  10.042  0.3951 -0.8831  1.3156
15804SOL     OW53247   7.945   9.104   3.998  0.3665 -0.2454  0.1484
15804SOL    HW153248   7.984   9.150   4.073  0.4243 -2.2065  1.3980
15804SOL    HW253249   8.004   9.030   3.982  1.2649  1.0082 -2.9714
15805SOL     OW53250   1.262   2.518   9.203  0.4653 -1.0271 -0.0794
15805SOL    HW153251   1.348   2.549   9.232  1.3566 -1.6040 -2.0060
15805SOL    HW253252   1.280   2.435   9.160 -1.0616 -1.0951 -0.6195
15806SOL     OW53253   0.610   1.613   1.637 -0.1257 -0.5593  0.0931
15806SOL    HW153254   0.525   1.579   1.608  0.3541 -1.3973 -0.3312
15806SOL    HW253255   0.674   1.570   1.581  0.5795  0.1768  0.3178
15807SOL     OW53256   4.153   0.754   0.928 -0.1499 -0.4414  0.1650
15807SOL    HW153257   4.073   0.754   0.981 -0.2078 -1.4126  0.1037
15807SOL    HW253258   4.164   0.662   0.903  1.8719 -0.6430  1.5508
15808SOL     OW53259  10.712   9.558   5.941  0.4462  0.1209 -0.1604
15808SOL    HW153260  10.618   9.557   5.924  0.2901  0.5896  0.6117
15808SOL    HW253261  10.733   9.470   5.971  0.3038 -0.0539 -0.5700
15809SOL     OW53262   2.331   7.605   6.366 -0.1132  0.6808 -0.6643
15809SOL    HW153263   2.414   7.564   6.391  0.2353  0.8196 -1.5728
15809SOL    HW253264   2.269   7.573   6.432  0.3789 -0.4320 -0.7100
15810SOL     OW53265   6.027   8.094   0.280 -0.1558  0.3506  0.0559
15810SOL    HW153266   6.001   8.134   0.363  0.3020  2.7671 -0.8819
15810SOL    HW253267   5.959   8.029   0.262 -0.4009 -0.0417  2.1589
15811SOL     OW53268   5.913   3.666   5.405 -0.4966 -0.3801  0.1040
15811SOL    HW153269   5.862   3.586   5.417  0.7022 -1.4001 -1.1997
15811SOL    HW253270   5.954   3.681   5.489 -0.4942 -1.3282  0.2848
15812SOL     OW53271   0.505   0.037   2.229  0.3681  0.1000  0.2925
15812SOL    HW153272   0.470   0.096   2.296  0.0999  0.0979  0.1533
15812SOL    HW253273   0.434   0.026   2.167  1.0709  1.1989 -0.7361
15813SOL     OW53274   2.462   2.093   0.737  0.9374 -0.1413 -0.1885
15813SOL    HW153275   2.470   2.113   0.643  3.6669  0.3925  0.0561
15813SOL    HW253276   2.424   2.006   0.740 -1.9539  0.9193 -1.6296
15814SOL     OW53277   0.330   5.529   4.896 -0.1682 -0.3585  0.1240
15814SOL    HW153278   0.310   5.529   4.989  0.7231 -0.8874  0.3279
15814SOL    HW253279   0.400   5.594   4.887 -2.6744  2.4169 -0.7648
15815SOL     OW53280   1.740   7.538   0.039 -0.2253  0.8046  0.2749
15815SOL    HW153281   1.800   7.536  -0.036  0.3455  1.3414  0.7072
15815SOL    HW253282   1.775   7.474   0.100 -1.1799 -0.2736 -0.2564
15816SOL     OW53283   6.964   1.531   6.457 -0.1294 -0.0264 -0.5021
15816SOL    HW153284   6.877   1.571   6.449 -0.4100 -0.7350 -1.1759
15816SOL    HW253285   6.973   1.510   6.549 -1.4895 -1.6957 -0.7054
15817SOL     OW53286   9.673   2.152   9.414  0.2919  0.0878  0.6656
15817SOL    HW153287   9.595   2.192   9.453  0.9545  0.8552  1.2250
15817SOL    HW253288   9.640   2.073   9.372 -1.2447  1.6017 -1.2391
15818SOL     OW53289   3.947   5.960   9.937  0.3629  0.3820  0.1368
15818SOL    HW153290   3.880   5.898   9.909 -0.5162  0.5049  1.8072
15818SOL    HW253291   3.898   6.026   9.986  1.7713  0.1248  1.9811
15819SOL     OW53292   1.860   4.717   0.419 -0.0757 -0.3729  0.2646
15819SOL    HW153293   1.954   4.733   0.421  0.0780 -1.1343  2.6773
15819SOL    HW253294   1.844   4.659   0.494 -2.1800 -1.9263 -1.2680
15820SOL     OW53295   7.737   3.312   4.012 -0.0371 -0.0809  0.2498
15820SOL    HW153296   7.824   3.349   3.999 -0.5132  0.9536 -0.0571
15820SOL    HW253297   7.704   3.296   3.923 -1.4086  2.5561  0.1823
15821SOL     OW53298   7.974  10.089   4.520  0.3312 -0.1663  0.0017
15821SOL    HW153299   7.948  10.027   4.588 -0.6322 -1.0915 -1.1686
15821SOL    HW253300   7.967  10.040   4.438  2.3299  0.6454 -0.7314
15822SOL     OW53301   2.255  10.680   8.821  0.1270  0.4327 -0.2620
15822SOL    HW153302   2.288  10.595   8.848  2.5477  1.2393 -0.4278
15822SOL    HW253303   2.223  10.721   8.902  0.2635 -0.0753  0.0473
15823SOL     OW53304   1.120  10.426   5.253 -0.2992  0.1479  0.6361
15823SOL    HW153305   1.049  10.363   5.242 -0.5065  0.4241  0.3731
15823SOL    HW253306   1.186  10.380   5.305 -0.8161 -0.0013  1.1700
15824SOL     OW53307   2.388   8.035   6.090  0.0142 -0.1901 -0.3667
15824SOL    HW153308   2.410   7.969   6.025  0.0270  0.6007 -1.1829
15824SOL    HW253309   2.403   7.992   6.174 -1.6678 -1.7992 -0.8315
15825SOL     OW53310   2.232   0.561   0.479 -0.3626  0.0994  0.4512
15825SOL    HW153311   2.328   0.558   0.479 -0.3102  0.1754 -1.8660
15825SOL    HW253312   2.205   0.482   0.525  0.8348 -0.4553  0.2289
15826SOL     OW53313   9.497   9.030   6.351  0.2130  0.6459  0.5422
15826SOL    HW153314   9.537   9.026   6.438 -0.9150  0.2054  1.0718
15826SOL    HW253315   9.451   8.946   6.343  0.1147  0.7790 -0.3920
15827SOL     OW53316   3.973   4.994   8.954 -0.0834 -0.2688  0.5417
15827SOL    HW153317   3.879   5.012   8.956 -0.1847 -0.6680 -0.4206
15827SOL    HW253318   3.983   4.915   9.007 -0.3474 -0.4975  0.2482
15828SOL     OW53319   3.813   2.193   3.987 -0.6857  0.3080 -0.6203
15828SOL    HW153320   3.757   2.147   3.924 -0.5535 -0.5949 -0.0937
15828SOL    HW253321   3.889   2.135   3.997  0.3978  1.5427 -1.3812
15829SOL     OW53322   1.960   1.508   5.168 -0.6158  0.4782  0.2873
15829SOL    HW153323   1.944   1.480   5.078  0.5748 -0.3982  0.3153
15829SOL    HW253324   1.897   1.578   5.184  0.0431  1.5863 -1.6834
15830SOL     OW53325   5.835  10.090   5.071  0.5357 -0.0218 -0.2283
15830SOL    HW153326   5.833  10.021   5.138  1.0746 -0.3513 -0.5409
15830SOL    HW253327   5.927  10.117   5.068  0.4750  0.1438 -0.6811
15831SOL     OW53328   9.726  10.112  10.440 -0.0033  0.4272 -0.2868
15831SOL    HW153329   9.806  10.061  10.428 -0.0209  0.6181 -1.2992
15831SOL    HW253330   9.694  10.087  10.527  1.5952  0.9588  0.4886
15832SOL     OW53331   3.045   3.919   9.260 -0.0078  0.3552 -0.1283
15832SOL    HW153332   2.976   3.860   9.230  0.3331 -0.4532  0.6421
15832SOL    HW253333   3.127   3.876   9.236  0.3073 -0.6876  2.4813
15833SOL     OW53334   8.583   2.943   6.230 -0.3407  0.2352 -0.3623
15833SOL    HW153335   8.567   2.871   6.292  1.4479 -1.4317 -1.6928
15833SOL    HW253336   8.497   2.965   6.196 -0.9554 -1.3672  0.0534
15834SOL     OW53337   2.888   8.656   1.873 -0.4823  0.1856 -0.2064
15834SOL    HW153338   2.910   8.742   1.909 -0.3351  2.0990 -4.3510
15834SOL    HW253339   2.799   8.639   1.903 -0.5034  1.7314  0.7036
15835SOL     OW53340   2.157   5.822   7.950 -0.3049 -0.0037  0.1716
15835SOL    HW153341   2.122   5.834   8.038 -0.0643  0.9441  0.1531
15835SOL    HW253342   2.138   5.731   7.928 -1.6918  0.1566  0.6230
15836SOL     OW53343   5.844   9.542   5.452 -0.0422  0.4418 -0.1082
15836SOL    HW153344   5.758   9.517   5.485  0.4149 -0.8527  0.1441
15836SOL    HW253345   5.897   9.463   5.458  0.8470  0.8994 -1.3549
15837SOL     OW53346   3.959   4.356   9.685  0.0545  0.0777  0.6846
15837SOL    HW153347   4.039   4.321   9.646 -0.6813  0.3788 -1.2128
15837SOL    HW253348   3.934   4.290   9.750  0.9053 -0.8797  0.0758
15838SOL     OW53349  10.589   0.705   9.453 -0.0480  0.0276 -0.3691
15838SOL    HW153350  10.571   0.775   9.390  0.5620 -0.3089 -0.9294
15838SOL    HW253351  10.505   0.661   9.464 -0.4966  0.9730  0.1642
15839SOL     OW53352   4.956   3.964   8.948 -0.1418 -0.0476  0.5392
15839SOL    HW153353   4.865   3.939   8.938 -0.4543  0.8225  1.1176
15839SOL    HW253354   5.004   3.903   8.891 -1.2158  0.5060 -1.0101
15840SOL     OW53355   7.677   6.943   2.835  0.2025 -0.1584 -0.4206
15840SOL    HW153356   7.754   6.890   2.815  0.0714 -0.0620 -1.1997
15840SOL    HW253357   7.702   7.032   2.810  0.3806  0.1543  0.7746
15841SOL     OW53358   5.125   3.218   7.241 -0.4943  0.2845 -0.1418
15841SOL    HW153359   5.097   3.277   7.171 -0.2456  0.8154  0.2058
15841SOL    HW253360   5.129   3.132   7.199  2.5343  1.0082 -1.6291
15842SOL     OW53361   1.410  10.091   9.839  0.0780 -0.4596  0.6833
15842SOL    HW153362   1.377  10.090   9.928 -1.4681  0.3092  0.1581
15842SOL    HW253363   1.504  10.105   9.848 -0.2363  1.0143  2.1522
15843SOL     OW53364   3.850   4.477   9.483  0.0777 -0.0624 -0.1701
15843SOL    HW153365   3.887   4.442   9.564 -0.4392  1.4287  0.7474
15843SOL    HW253366   3.908   4.445   9.415 -0.4540 -2.8653  0.5366
15844SOL     OW53367   2.422   4.802   5.167  0.2430 -0.4853  0.8626
15844SOL    HW153368   2.399   4.837   5.253  0.1850  0.0197  0.6474
15844SOL    HW253369   2.504   4.756   5.180 -0.1249 -1.0158  1.3310
15845SOL     OW53370   8.374  10.391   3.361 -0.0794 -0.2332  0.3856
15845SOL    HW153371   8.463  10.397   3.325 -0.0510 -0.0587  0.4811
15845SOL    HW253372   8.358  10.297   3.369 -0.6540 -0.3369 -1.4760
15846SOL     OW53373   0.625  10.067   5.847 -0.1181  0.9215 -0.2160
15846SOL    HW153374   0.575  10.123   5.907 -0.1457  1.9787 -1.1946
15846SOL    HW253375   0.620   9.980   5.886  0.1737  1.6299  1.5104
15847SOL     OW53376   6.355   4.368   0.884  0.9747 -0.5300  0.2502
15847SOL    HW153377   6.355   4.351   0.790  0.9851 -1.4509  0.4087
15847SOL    HW253378   6.308   4.452   0.893  1.7500  0.0182 -0.6379
15848SOL     OW53379  10.482   4.375   1.636  0.0896  0.3634 -0.3294
15848SOL    HW153380  10.572   4.383   1.667 -0.0205 -1.4022  0.5816
15848SOL    HW253381  10.429   4.418   1.703  0.0988 -0.7553  0.4336
15849SOL     OW53382   7.738   7.224   9.259 -0.5462  0.1090 -0.0716
15849SOL    HW153383   7.785   7.218   9.343  0.6745  1.1640 -0.6584
15849SOL    HW253384   7.721   7.317   9.248 -3.4011 -0.2655  0.4062
15850SOL     OW53385   9.474   1.183   5.373  0.2631  0.1977 -0.4305
15850SOL    HW153386   9.511   1.124   5.438  1.6129  0.2299 -1.1249
15850SOL    HW253387   9.473   1.269   5.416 -0.4924 -0.0845  0.1327
15851SOL     OW53388   1.094   5.692   2.057 -0.7010 -0.2294 -0.5748
15851SOL    HW153389   1.056   5.614   2.017 -1.5253 -1.6109  2.5814
15851SOL    HW253390   1.186   5.669   2.073 -0.9478 -0.5786  0.3701
15852SOL     OW53391  10.386   5.551   3.564 -0.0096  0.4986 -0.1836
15852SOL    HW153392  10.311   5.593   3.521 -0.6101 -0.8419 -0.4853
15852SOL    HW253393  10.350   5.518   3.647  0.3624  0.2738 -0.1112
15853SOL     OW53394   7.490   9.170   7.784 -0.0918 -0.4881 -0.2453
15853SOL    HW153395   7.489   9.219   7.702  1.3269 -0.2487 -0.1503
15853SOL    HW253396   7.564   9.110   7.775 -0.2624 -0.8486  0.6392
15854SOL     OW53397  10.242   7.155   1.610 -0.2961  0.2969 -0.0772
15854SOL    HW153398  10.277   7.092   1.672  0.1722  1.1153  0.5112
15854SOL    HW253399  10.285   7.134   1.527 -1.5233 -1.3134 -0.3584
15855SOL     OW53400   8.810   4.503   7.967 -0.1375  0.1577 -0.6862
15855SOL    HW153401   8.815   4.420   7.919 -2.3186 -1.6831  1.9513
15855SOL    HW253402   8.900   4.535   7.970  0.5921 -1.4997 -2.7559
15856SOL     OW53403   4.691  10.432   1.200  0.4894 -0.2604 -0.1231
15856SOL    HW153404   4.687  10.340   1.224  0.3860 -0.0787  0.5699
15856SOL    HW253405   4.602  10.454   1.172  0.7334 -0.6131 -1.2514
15857SOL     OW53406   4.357   9.037   2.280  0.6145 -0.0816  0.0915
15857SOL    HW153407   4.275   9.044   2.329  0.4223  1.4827 -0.3890
15857SOL    HW253408   4.401   9.121   2.296  1.8325 -0.6560 -0.1705
15858SOL     OW53409  10.682   4.469   5.111 -0.1958  0.3394 -0.8106
15858SOL    HW153410  10.654   4.560   5.121 -1.0090  0.0938 -0.7749
15858SOL    HW253411  10.609   4.417   5.145  0.7696 -0.3124  0.3615
15859SOL     OW53412   6.506   0.950   2.137  0.0496  0.4600 -0.2165
15859SOL    HW153413   6.596   0.967   2.162 -0.1296 -2.0924  2.7311
15859SOL    HW253414   6.511   0.920   2.046  2.2953 -0.5535  0.1816
15860SOL     OW53415   4.467   5.027   1.642  0.0827  0.3339  0.0966
15860SOL    HW153416   4.480   5.041   1.548  0.1502  0.9903  0.1997
15860SOL    HW253417   4.398   5.088   1.666 -0.2782 -0.1832  0.3810
15861SOL     OW53418   2.211   7.412   8.380  0.2149 -0.5384 -0.3006
15861SOL    HW153419   2.159   7.482   8.340 -1.9098 -1.3632  0.8350
15861SOL    HW253420   2.284   7.399   8.320 -0.3159  1.4011 -1.4622
15862SOL     OW53421   8.654   5.425   6.166 -0.2079  0.1625  0.0123
15862SOL    HW153422   8.627   5.515   6.182  0.5373  0.0535  2.4279
15862SOL    HW253423   8.620   5.404   6.079 -0.6368  2.6569 -0.4996
15863SOL     OW53424   3.143   0.409   1.121  0.2089  0.5770 -0.0336
15863SOL    HW153425   3.097   0.397   1.038 -0.2806  0.3106  0.2671
15863SOL    HW253426   3.205   0.479   1.105 -1.2322  1.8983 -0.0809
15864SOL     OW53427   6.239   1.901  10.113  0.0982  0.2005  0.0686
15864SOL    HW153428   6.157   1.857  10.095 -0.0763  0.1070  1.0306
15864SOL    HW253429   6.224   1.993  10.089 -1.3265  0.8500  3.0482
15865SOL     OW53430   3.717   7.088   3.373 -0.2401 -0.0527 -0.2203
15865SOL    HW153431   3.695   7.179   3.353 -1.4316 -0.0679  0.8206
15865SOL    HW253432   3.661   7.067   3.448  0.2712 -1.5381 -0.2293
15866SOL     OW53433   4.772   5.226   4.745 -0.1889  0.4448 -0.2710
15866SOL    HW153434   4.818   5.281   4.809 -0.6397 -0.4349  0.8508
15866SOL    HW253435   4.682   5.257   4.748 -0.3054  0.0967 -0.1356
15867SOL     OW53436   3.068   0.523   1.782  0.3243  0.0478 -0.1185
15867SOL    HW153437   3.089   0.594   1.721 -0.2675 -0.0315 -0.4165
15867SOL    HW253438   2.973   0.528   1.794  0.3957 -0.1131  0.5861
15868SOL     OW53439   9.562   7.535   2.450  0.5169  0.4325  0.2493
15868SOL    HW153440   9.620   7.479   2.501 -1.0584 -1.0103  0.5752
15868SOL    HW253441   9.550   7.487   2.367  1.0628  1.5135 -0.4775
15869SOL     OW53442   2.550   6.531   8.893 -0.0403 -0.2560  0.3085
15869SOL    HW153443   2.472   6.493   8.934 -0.2877 -0.1566 -0.0628
15869SOL    HW253444   2.516   6.578   8.817  0.1021  1.8190  1.4511
15870SOL     OW53445   2.308   3.470   7.211 -0.2083  1.2600  0.2146
15870SOL    HW153446   2.400   3.449   7.199 -0.3758  0.9322 -0.5668
15870SOL    HW253447   2.266   3.385   7.228 -0.2336  1.5150  1.5379
15871SOL     OW53448   8.147   8.438   2.568 -0.4451  0.2761 -0.1487
15871SOL    HW153449   8.103   8.447   2.652 -1.1657  0.5862 -0.5514
15871SOL    HW253450   8.132   8.522   2.523  2.4823  1.3313  0.5786
15872SOL     OW53451   7.120   1.729   3.236 -0.0493  0.1234  0.0337
15872SOL    HW153452   7.215   1.727   3.248 -0.1721 -1.4989  1.1163
15872SOL    HW253453   7.097   1.640   3.208 -1.4970 -0.4001  2.5114
15873SOL     OW53454   0.746   4.230   3.274  0.2934  0.5848  0.4501
15873SOL    HW153455   0.796   4.180   3.338  0.7495 -0.5649 -0.7690
15873SOL    HW253456   0.811   4.276   3.222  0.1666 -1.1560 -1.3383
15874SOL     OW53457   7.109   1.113   9.317 -0.0223  0.3035 -0.1842
15874SOL    HW153458   7.055   1.092   9.241 -1.2321  4.4144 -0.7415
15874SOL    HW253459   7.066   1.070   9.391 -1.9999  0.5290 -1.1434
15875SOL     OW53460   2.954   5.921   0.925  0.2802 -0.3697 -0.0026
15875SOL    HW153461   2.896   5.870   0.982  1.3499 -1.9364 -0.2469
15875SOL    HW253462   2.904   5.933   0.845 -0.0189 -1.0109  0.0812
15876SOL     OW53463   8.148   0.024  10.895 -0.0342 -0.0023  0.2150
15876SOL    HW153464   8.150   0.056  10.985  1.4767 -0.0948  0.2543
15876SOL    HW253465   8.199  -0.057  10.898  1.5047  0.8502 -0.9960
15877SOL     OW53466   9.670   3.225   3.220  0.3175 -0.2031 -0.5885
15877SOL    HW153467   9.701   3.305   3.263  2.4655 -0.5927 -1.3084
15877SOL    HW253468   9.732   3.210   3.149 -0.4880 -2.1088 -0.9596
15878SOL     OW53469   0.836   1.037  10.269 -0.0503  0.4734 -0.0125
15878SOL    HW153470   0.885   0.976  10.214  1.3208  0.1411  1.4880
15878SOL    HW253471   0.863   1.015  10.358  0.3975  3.1697  0.6106
15879SOL     OW53472   7.517   3.553   3.862 -0.3925 -0.1672 -0.3475
15879SOL    HW153473   7.612   3.556   3.872 -0.5063 -1.1032  1.5432
15879SOL    HW253474   7.499   3.607   3.785  1.3591  3.1970  1.3748
15880SOL     OW53475   6.658   6.139   6.923 -0.5032  0.3464 -0.2337
15880SOL    HW153476   6.751   6.121   6.911 -0.7374 -1.3222  0.2075
15880SOL    HW253477   6.644   6.128   7.017 -1.0020  1.3975 -0.1750
15881SOL     OW53478   5.052   1.661   4.546 -0.4170  0.4080 -0.7574
15881SOL    HW153479   5.018   1.722   4.612 -0.6245 -0.5380  0.0271
15881SOL    HW253480   5.123   1.709   4.503 -0.5048  1.1625 -0.0834
15882SOL     OW53481   9.925   9.239   4.247 -0.7089  0.8386 -0.4875
15882SOL    HW153482   9.945   9.205   4.160  2.3445 -1.3008  0.8794
15882SOL    HW253483   9.984   9.314   4.258 -1.6710  1.6246 -0.5006
15883SOL     OW53484   5.753  10.241   4.775 -0.5242 -0.0909 -0.8568
15883SOL    HW153485   5.678  10.230   4.716  1.2398  1.3207 -3.5799
15883SOL    HW253486   5.786  10.329   4.755  1.3602 -0.3562  0.8481
15884SOL     OW53487   5.691   8.840   1.898 -0.0805 -0.0945 -0.2453
15884SOL    HW153488   5.674   8.903   1.968  1.5742  1.3611 -1.0706
15884SOL    HW253489   5.627   8.770   1.912 -1.5979  1.4763  1.0595
15885SOL     OW53490   9.142   5.134   9.807 -0.1192 -0.2882 -0.1051
15885SOL    HW153491   9.143   5.189   9.886  1.6924  0.5012 -0.6341
15885SOL    HW253492   9.152   5.045   9.840  0.0635 -0.0213  0.5824
15886SOL     OW53493   1.564   7.740   8.274  0.7301 -0.1813  0.1843
15886SOL    HW153494   1.643   7.703   8.315  0.0722  0.5979  2.3135
15886SOL    HW253495   1.582   7.833   8.267  0.8828 -0.3120 -1.5590
15887SOL     OW53496   6.508   8.467   4.542 -0.6618  0.5733 -0.0244
15887SOL    HW153497   6.428   8.463   4.596 -0.9748  1.8148 -0.3603
15887SOL    HW253498   6.487   8.416   4.464 -0.3047 -1.0060  0.8737
15888SOL     OW53499  10.759   4.966   1.268 -0.1835 -0.6460 -0.3624
15888SOL    HW153500  10.792   5.033   1.328 -2.2181 -0.3640  0.5169
15888SOL    HW253501  10.718   5.016   1.197 -1.7066 -0.9176  0.2917
15889SOL     OW53502   0.921   1.867   7.050  0.3933  0.3101  0.0335
15889SOL    HW153503   0.839   1.835   7.090 -0.3152 -0.3064 -1.8064
15889SOL    HW253504   0.895   1.895   6.963  2.0287  0.9110 -0.2814
15890SOL     OW53505   8.793   9.040   6.610 -0.0311 -0.6354 -0.0970
15890SOL    HW153506   8.700   9.057   6.626 -0.3200 -1.2009 -1.0650
15890SOL    HW253507   8.794   8.984   6.533  1.0777 -1.4539  0.4847
15891SOL     OW53508   9.625   6.072   5.874  0.2887 -0.5641 -0.3811
15891SOL    HW153509   9.551   6.130   5.858  0.8185 -0.2269 -1.7893
15891SOL    HW253510   9.699   6.117   5.833  1.3532 -0.7438  1.2584
15892SOL     OW53511   8.322   3.804   4.511 -0.1648  0.1359  0.3380
15892SOL    HW153512   8.418   3.812   4.511 -0.1082  0.3020 -2.0301
15892SOL    HW253513   8.292   3.878   4.563  0.9940  1.0386 -0.2269
15893SOL     OW53514   8.046   8.892  10.461 -0.2653  0.2175  0.1850
15893SOL    HW153515   8.075   8.977  10.427  0.8799 -0.5215 -0.7273
15893SOL    HW253516   7.956   8.883  10.428 -1.0695  1.8213  1.7407
15894SOL     OW53517   7.488   4.303   0.693  0.0236  0.8288 -0.4970
15894SOL    HW153518   7.492   4.248   0.771  1.2840  2.3571  0.5816
15894SOL    HW253519   7.411   4.271   0.645  1.0659 -2.2861 -0.3344
15895SOL     OW53520   0.648   3.627   2.926  0.3384  0.0309 -0.0079
15895SOL    HW153521   0.686   3.715   2.931 -0.7158  0.4365  2.0106
15895SOL    HW253522   0.710   3.572   2.972  1.0861 -0.3603 -1.4258
15896SOL     OW53523   6.649   9.357   6.782  0.5533 -0.5075 -0.4513
15896SOL    HW153524   6.727   9.315   6.818 -1.0966 -2.4802  1.0519
15896SOL    HW253525   6.599   9.385   6.859 -1.0288 -0.8731 -1.2993
15897SOL     OW53526   4.984   1.235   7.368  0.9859  0.1709 -0.8228
15897SOL    HW153527   4.915   1.212   7.431 -1.0789 -2.6867 -3.8180
15897SOL    HW253528   4.961   1.322   7.337  0.8694  0.7473  0.7631
15898SOL     OW53529   4.107   2.139   1.321  0.2584 -0.2158 -0.6716
15898SOL    HW153530   4.135   2.219   1.366  1.2499  0.0894 -1.7763
15898SOL    HW253531   4.013   2.135   1.336  0.3347  0.6562  0.1725
15899SOL     OW53532   2.006   3.604   5.526 -0.2789  0.2308 -0.0967
15899SOL    HW153533   1.965   3.598   5.439 -0.0652 -0.5148 -0.1564
15899SOL    HW253534   1.933   3.622   5.586 -0.4265  0.7577 -0.4274
15900SOL     OW53535   4.808   5.743   0.228  0.0025 -0.2747 -0.2755
15900SOL    HW153536   4.784   5.728   0.320 -3.6037 -0.7083 -1.1260
15900SOL    HW253537   4.780   5.664   0.183  3.7079 -1.0177 -1.5902
15901SOL     OW53538   8.325   2.345   7.950 -0.1016 -0.1805  0.0165
15901SOL    HW153539   8.251   2.306   7.904  0.1925 -0.9143  0.1462
15901SOL    HW253540   8.398   2.285   7.932  0.4369  0.4897 -0.0433
15902SOL     OW53541   9.842   7.232   6.299  0.2285  0.6900 -0.0514
15902SOL    HW153542   9.849   7.169   6.227  0.2092  1.1309 -0.4427
15902SOL    HW253543   9.881   7.312   6.264 -0.6418  1.1858  0.1056
15903SOL     OW53544   8.323   7.692   6.669  0.2250 -0.1298  0.1602
15903SOL    HW153545   8.310   7.597   6.675  1.5909 -0.2602  1.9264
15903SOL    HW253546   8.324   7.722   6.760 -0.2662  1.6020 -0.3739
15904SOL     OW53547   2.210   1.936   7.268 -0.0610 -0.3078  0.3314
15904SOL    HW153548   2.274   1.940   7.339 -1.1446 -0.4329  1.3389
15904SOL    HW253549   2.201   2.026   7.238  1.4102 -0.4301 -0.6122
15905SOL     OW53550   8.542   3.271   5.848  0.7352 -0.0095  0.5440
15905SOL    HW153551   8.533   3.367   5.848 -0.9304 -0.1260 -0.8519
15905SOL    HW253552   8.484   3.242   5.918 -0.0238 -0.0596 -0.0890
15906SOL     OW53553   1.813   7.881   1.209  1.2205  0.7331  0.0330
15906SOL    HW153554   1.791   7.960   1.160 -0.4254  0.7691  0.7706
15906SOL    HW253555   1.767   7.890   1.292  0.9151 -1.0434  0.1007
15907SOL     OW53556   8.941   6.133   3.767  0.4258 -0.0308  0.4582
15907SOL    HW153557   9.001   6.077   3.718  0.1922 -0.2959  0.4757
15907SOL    HW253558   8.880   6.072   3.808  0.8690  0.1632  1.4184
15908SOL     OW53559   3.827   1.160  10.371 -0.1203 -0.0749 -0.3625
15908SOL    HW153560   3.842   1.255  10.377 -0.8145 -0.0372  1.8815
15908SOL    HW253561   3.906   1.122  10.410 -0.0363 -0.4244 -0.8669
15909SOL     OW53562  10.078   7.180   8.000 -0.2591  1.0721  0.4136
15909SOL    HW153563  10.172   7.170   8.015  0.1488  2.9793 -0.5093
15909SOL    HW253564  10.055   7.259   8.048 -1.0094  1.5998 -0.7690
15910SOL     OW53565   9.632   4.502   0.599 -0.5280  0.5336 -0.1815
15910SOL    HW153566   9.628   4.429   0.537  1.8858  0.7821 -0.7168
15910SOL    HW253567   9.545   4.542   0.594 -0.6264  0.2228 -3.0664
15911SOL     OW53568  10.419   6.943   6.044  0.1460  0.3530 -0.1427
15911SOL    HW153569  10.331   6.927   6.079  0.5494 -0.5026  0.5166
15911SOL    HW253570  10.426   6.882   5.971 -0.2377  1.2638 -0.9538
15912SOL     OW53571   0.069   2.979   7.339  0.5023  0.1989  0.1357
15912SOL    HW153572   0.139   3.024   7.386  1.9736 -0.2398 -1.5215
15912SOL    HW253573   0.097   2.888   7.337 -0.8469 -0.2484  0.6531
15913SOL     OW53574   6.975   4.882   8.026 -0.7486 -0.3283 -0.4777
15913SOL    HW153575   7.009   4.941   8.093  1.5253 -2.6182  0.5470
15913SOL    HW253576   7.034   4.893   7.952 -1.9952  0.6445 -1.3698
15914SOL     OW53577   2.814   1.811  10.923 -1.0611  0.1123  0.3095
15914SOL    HW153578   2.780   1.854  10.845 -1.2520  1.1361  0.9362
15914SOL    HW253579   2.769   1.726  10.925  1.3602 -1.4064 -2.4522
15915SOL     OW53580   6.194   9.050   7.092 -0.1547 -0.2538  0.0989
15915SOL    HW153581   6.254   9.085   7.158  2.8598 -3.2408 -0.8023
15915SOL    HW253582   6.224   9.089   7.009 -2.9462  2.2719  0.0947
15916SOL     OW53583   4.714   6.130   5.583 -0.3844 -0.4905 -0.2380
15916SOL    HW153584   4.799   6.122   5.626 -0.7388  0.8805  0.7867
15916SOL    HW253585   4.652   6.140   5.655 -1.0567  1.4136 -1.0240
15917SOL     OW53586   7.715   4.484   9.128 -0.3798  0.1028 -0.6138
15917SOL    HW153587   7.643   4.435   9.087  2.6098 -3.8196 -1.7834
15917SOL    HW253588   7.744   4.544   9.059 -2.6927  2.1596  0.0620
15918SOL     OW53589   5.345   0.511   5.966  0.4321 -0.1096 -0.3445
15918SOL    HW153590   5.416   0.558   5.924  0.7529 -2.1840 -2.3427
15918SOL    HW253591   5.267   0.562   5.945  1.0228  0.7857 -0.4009
15919SOL     OW53592   5.008   3.558   4.288 -0.3219 -0.5909 -0.2979
15919SOL    HW153593   4.935   3.575   4.229 -0.1267  2.3765  0.1653
15919SOL    HW253594   5.085   3.560   4.232 -0.3049  0.2158 -0.2594
15920SOL     OW53595   0.828   2.415   7.086  0.1994 -0.6004 -0.4722
15920SOL    HW153596   0.747   2.465   7.074 -0.0707 -0.9844 -0.2662
15920SOL    HW253597   0.872   2.419   7.000 -0.4760 -1.1454 -0.8587
15921SOL     OW53598  10.813   1.203  10.357 -0.4627 -0.2964  0.2397
15921SOL    HW153599  10.813   1.206  10.262 -0.9917 -2.3188  0.1361
15921SOL    HW253600  10.904   1.219  10.382 -0.4646  1.0172 -0.5460
15922SOL     OW53601   6.509   8.729  10.543  0.3331 -0.0008 -0.3282
15922SOL    HW153602   6.425   8.745  10.587 -0.2036 -1.7344 -0.6192
15922SOL    HW253603   6.540   8.647  10.581  1.8756  0.5629 -0.2991
15923SOL     OW53604   7.488   7.329   5.899 -0.5400 -0.2359 -0.4306
15923SOL    HW153605   7.522   7.419   5.899 -0.0119 -0.3981  1.4439
15923SOL    HW253606   7.478   7.307   5.806 -1.2564  1.9652 -0.9396
15924SOL     OW53607   8.927   5.169   3.535  0.2923  0.2232 -0.5509
15924SOL    HW153608   8.898   5.094   3.587  2.0024 -0.7538 -0.9422
15924SOL    HW253609   8.955   5.234   3.600 -2.3687  1.1364 -0.1563
15925SOL     OW53610   3.249   7.853   6.923  0.1819  0.3805 -0.3009
15925SOL    HW153611   3.214   7.764   6.920 -2.3726  1.2856  0.3438
15925SOL    HW253612   3.203   7.899   6.853 -1.7148  2.1856  1.9755
15926SOL     OW53613   7.907   3.103   8.102 -0.1945  0.2332 -0.1428
15926SOL    HW153614   7.880   3.022   8.146 -0.3522  0.1495 -0.3861
15926SOL    HW253615   7.945   3.073   8.019 -2.5481  0.5084 -1.3965
15927SOL     OW53616   0.611  10.899  10.501  0.0112  0.1542  0.6207
15927SOL    HW153617   0.522  10.870  10.520 -1.0965  2.6128 -0.3605
15927SOL    HW253618   0.622  10.979  10.552  0.5543  1.4787 -1.4422
15928SOL     OW53619  10.442   0.726  10.270  0.2276 -0.1854  0.1384
15928SOL    HW153620  10.382   0.744  10.198  0.4603  1.4293  0.3125
15928SOL    HW253621  10.487   0.809  10.285 -0.8348 -0.0266  3.0791
15929SOL     OW53622   7.126   4.513   5.104  0.0156 -0.1685 -0.3139
15929SOL    HW153623   7.097   4.601   5.129 -0.7468 -0.3042 -0.6748
15929SOL    HW253624   7.181   4.527   5.027 -0.8025 -0.0613 -0.8942
15930SOL     OW53625   1.567   6.635   4.472 -0.7175  0.0848  0.3057
15930SOL    HW153626   1.628   6.563   4.477 -0.2277  0.1274 -2.9142
15930SOL    HW253627   1.488   6.603   4.516 -0.1316 -1.9823 -0.0466
15931SOL     OW53628   7.999  10.017   4.906 -1.0539 -0.7373 -0.4247
15931SOL    HW153629   8.012   9.962   4.829 -0.4910 -1.4810  0.1858
15931SOL    HW253630   7.929   9.973   4.955  0.1618 -1.5823  0.6299
15932SOL     OW53631   4.558  10.351  10.887 -0.1720 -0.9872  0.0690
15932SOL    HW153632   4.542  10.322  10.977 -1.2728 -1.5572 -0.2941
15932SOL    HW253633   4.652  10.339  10.874  0.0219 -0.7563  1.1844
15933SOL     OW53634   5.520  10.922   7.219  0.6066  0.2962  0.0470
15933SOL    HW153635   5.434  10.890   7.248  0.1227  1.4282 -0.0712
15933SOL    HW253636   5.529  10.889   7.130  0.9989 -1.1247  0.5841
15934SOL     OW53637   2.333   3.839   6.700 -0.0608  0.1059  0.4875
15934SOL    HW153638   2.301   3.770   6.642  0.4318 -0.2548  0.6345
15934SOL    HW253639   2.342   3.916   6.644 -1.2675  0.2436  0.4677
15935SOL     OW53640   5.800   1.643   2.837 -0.5896  0.6485  0.1087
15935SOL    HW153641   5.761   1.649   2.924 -1.0440 -0.8219  0.0271
15935SOL    HW253642   5.887   1.682   2.847  0.1385 -1.2404  1.7249
15936SOL     OW53643   5.143   0.152   8.056 -0.0564 -0.4597  0.4694
15936SOL    HW153644   5.098   0.070   8.034  0.0152 -0.4223  0.1855
15936SOL    HW253645   5.233   0.126   8.073  0.0357 -0.3982  0.0811
15937SOL     OW53646   6.175   6.137   8.854 -0.3294  0.3745  0.3446
15937SOL    HW153647   6.142   6.216   8.812  0.5710  1.9813  2.4585
15937SOL    HW253648   6.108   6.114   8.918 -0.4063 -0.3779  0.0123
15938SOL     OW53649   1.228   9.348   6.430  0.1630  0.7924  0.4550
15938SOL    HW153650   1.172   9.376   6.358 -1.1334 -0.5926  0.8885
15938SOL    HW253651   1.295   9.417   6.436 -0.2690  1.4263 -1.4057
15939SOL     OW53652   7.874   2.572   4.607 -0.5916 -0.4147 -0.3991
15939SOL    HW153653   7.932   2.549   4.535  0.3835  1.5164 -0.3142
15939SOL    HW253654   7.812   2.634   4.569 -1.5823 -1.2065 -0.1033
15940SOL     OW53655   3.617   9.863   4.351 -0.2644 -0.1802  0.1607
15940SOL    HW153656   3.704   9.837   4.380 -0.0878  0.2422  0.0159
15940SOL    HW253657   3.587   9.926   4.417 -0.9486 -1.1989  0.8559
15941SOL     OW53658   3.925   1.595   6.817  0.2598  0.4725  1.0485
15941SOL    HW153659   3.905   1.599   6.910  0.0880  0.9422  0.9967
15941SOL    HW253660   4.013   1.632   6.810 -0.6705  2.8495  0.7631
15942SOL     OW53661   6.775   5.331   8.792 -0.2554 -0.5492 -0.4441
15942SOL    HW153662   6.720   5.309   8.717  1.5404 -1.7075 -1.4851
15942SOL    HW253663   6.858   5.287   8.775  0.0840 -1.2278  2.4486
15943SOL     OW53664   7.128   5.777   0.248 -0.2442 -0.1918  0.4796
15943SOL    HW153665   7.089   5.714   0.308 -2.5627 -0.8794 -1.5657
15943SOL    HW253666   7.162   5.724   0.176 -0.2801  0.7502 -0.2560
15944SOL     OW53667   4.063   3.303   1.971 -0.0060  0.4253 -0.9469
15944SOL    HW153668   4.093   3.339   2.054 -1.1944  0.4298 -0.5040
15944SOL    HW253669   4.024   3.378   1.926 -0.2958  0.2060 -1.0631
15945SOL     OW53670   2.963   3.691   3.366  0.0584 -0.0381  0.0270
15945SOL    HW153671   2.988   3.757   3.301 -0.0337  1.2606  1.2692
15945SOL    HW253672   3.004   3.610   3.334  1.7532  0.9968 -0.5719
15946SOL     OW53673   6.321   8.134   6.189 -0.0060 -0.5434 -0.1890
15946SOL    HW153674   6.249   8.123   6.126  0.7748  0.4551 -1.2989
15946SOL    HW253675   6.277   8.137   6.274 -1.0502 -2.5020 -0.5791
15947SOL     OW53676   2.430   1.890   3.233  0.1128 -0.2999 -0.0681
15947SOL    HW153677   2.343   1.929   3.228 -0.1055 -0.7509  0.0794
15947SOL    HW253678   2.413   1.796   3.240  0.6434 -0.5309 -1.5160
15948SOL     OW53679   7.499   0.391   7.710 -0.2542 -0.4792  0.1498
15948SOL    HW153680   7.496   0.303   7.748  3.3400 -0.3158  1.1857
15948SOL    HW253681   7.542   0.379   7.625 -3.5059 -0.1190 -1.7319
15949SOL     OW53682   4.371  10.202  10.381  0.0951  0.4926  0.5958
15949SOL    HW153683   4.389  10.295  10.389 -0.4977  0.4697  2.8677
15949SOL    HW253684   4.351  10.173  10.470 -2.4371 -1.2295 -0.3965
15950SOL     OW53685   2.818   9.529   7.988 -0.1845 -0.0615 -0.4627
15950SOL    HW153686   2.851   9.439   7.980 -2.9874 -1.1343 -1.0965
15950SOL    HW253687   2.819   9.563   7.898  1.2458  0.7423 -0.1725
15951SOL     OW53688  10.235   2.603   7.005 -0.5005  0.1040  0.1289
15951SOL    HW153689  10.304   2.545   7.035 -0.1900  1.4539  2.2372
15951SOL    HW253690  10.171   2.545   6.963 -0.0693 -1.7281  1.8439
15952SOL     OW53691   0.436   0.437   7.392  0.0273  0.2578 -0.0910
15952SOL    HW153692   0.456   0.432   7.485  0.5757  0.9101 -0.1662
15952SOL    HW253693   0.468   0.354   7.356  0.1242  0.1490  0.2429
15953SOL     OW53694   3.467  10.778   9.669 -0.1464  0.2225  0.5099
15953SOL    HW153695   3.460  10.857   9.723 -2.2488  0.1170  0.4627
15953SOL    HW253696   3.396  10.785   9.605 -0.6053 -1.8363  0.7057
15954SOL     OW53697   1.616   2.325   1.639 -0.5097  0.2291  0.0169
15954SOL    HW153698   1.699   2.360   1.606 -0.0477 -0.7497  0.1160
15954SOL    HW253699   1.581   2.273   1.567  0.3423 -1.6473  0.8970
15955SOL     OW53700   3.185   8.847   7.403  0.0369  0.5216  0.7345
15955SOL    HW153701   3.200   8.753   7.389  1.0649  0.8626 -0.7102
15955SOL    HW253702   3.143   8.877   7.322  0.8307  1.5272  0.6777
15956SOL     OW53703   6.365   6.728   8.659  0.2240 -0.3205  0.0059
15956SOL    HW153704   6.396   6.774   8.581 -1.0837 -0.2405 -0.5002
15956SOL    HW253705   6.345   6.640   8.628  0.6821 -0.6015  0.4946
15957SOL     OW53706   2.352   5.901   3.154 -0.4861  0.8564 -0.3462
15957SOL    HW153707   2.360   5.990   3.121 -2.9855  1.1492 -0.4152
15957SOL    HW253708   2.325   5.849   3.078 -3.2582  0.9434  0.4638
15958SOL     OW53709  10.331   8.202   5.458 -0.0545  0.3951  0.1534
15958SOL    HW153710  10.360   8.210   5.549 -2.3531  0.6172  0.9334
15958SOL    HW253711  10.357   8.113   5.432  1.9689  0.8590  0.4761
15959SOL     OW53712   8.297   1.335   0.102 -0.0889  0.1325  0.6073
15959SOL    HW153713   8.380   1.312   0.060 -0.7008 -0.0084 -0.5517
15959SOL    HW253714   8.317   1.412   0.154  0.8437 -0.0914  0.5940
15960SOL     OW53715   3.779   1.337   5.327 -0.5611 -0.8283 -0.5231
15960SOL    HW153716   3.781   1.253   5.372 -1.0535 -0.7568 -0.3637
15960SOL    HW253717   3.777   1.315   5.234  0.7103 -0.9743 -0.5299
15961SOL     OW53718  10.781   5.771   1.814  0.4918 -0.6130 -0.4677
15961SOL    HW153719  10.791   5.694   1.759 -0.9743 -2.2651  1.4258
15961SOL    HW253720  10.697   5.809   1.788 -0.5993 -1.8568  1.0353
15962SOL     OW53721   6.754   2.103   8.312  0.9223  0.3624  0.1572
15962SOL    HW153722   6.660   2.122   8.312  0.6363 -0.9004 -0.8697
15962SOL    HW253723   6.759   2.007   8.308  2.2549  0.4367 -0.6081
15963SOL     OW53724   2.107   1.679   6.370  0.2232 -0.3896  0.3161
15963SOL    HW153725   2.038   1.624   6.333  0.3097  0.2383 -0.8510
15963SOL    HW253726   2.180   1.670   6.308  0.6281  0.1709  0.7022
15964SOL     OW53727   1.363   9.551   8.654  0.0850  0.8602 -0.2664
15964SOL    HW153728   1.288   9.504   8.688 -0.6467  3.6457  2.4201
15964SOL    HW253729   1.326   9.624   8.604  1.0850  0.5818 -1.4666
15965SOL     OW53730   0.177  10.603   5.550  0.3949 -0.6360 -0.1924
15965SOL    HW153731   0.188  10.562   5.464  1.3700 -0.7060 -0.0490
15965SOL    HW253732   0.128  10.538   5.601 -2.5182  0.4649 -1.4206
15966SOL     OW53733   1.623   5.816   7.843  0.3484  0.2401  0.0643
15966SOL    HW153734   1.618   5.722   7.863  0.9724 -0.5723 -3.1345
15966SOL    HW253735   1.691   5.848   7.903  0.4628 -1.4421  0.9167
15967SOL     OW53736   8.828   6.536   1.827  0.2743  0.2349 -0.5682
15967SOL    HW153737   8.827   6.491   1.742 -0.8733  0.1257 -0.5134
15967SOL    HW253738   8.737   6.536   1.855  0.6587  0.1864  0.7221
15968SOL     OW53739   2.944   3.728  10.003  0.4500 -0.3011 -0.3715
15968SOL    HW153740   2.976   3.638   9.991  0.4110 -0.4369  0.4210
15968SOL    HW253741   2.965   3.747  10.095 -0.1223  0.2646 -0.3580
15969SOL     OW53742   5.471   6.986   9.135 -0.6983  0.4730 -0.8811
15969SOL    HW153743   5.394   6.949   9.091 -0.7601 -2.2706  1.2368
15969SOL    HW253744   5.434   7.043   9.202 -1.2319 -2.4286  1.5437
15970SOL     OW53745   7.941   1.590   8.651  0.6923  0.4066  0.4227
15970SOL    HW153746   7.856   1.567   8.690  1.3862 -0.6702  1.3690
15970SOL    HW253747   7.932   1.566   8.559  0.1735 -0.2711  0.6417
15971SOL     OW53748   2.448   4.953   0.372 -0.5625 -0.0081  0.0324
15971SOL    HW153749   2.446   4.905   0.289  0.0522  0.5522 -0.3105
15971SOL    HW253750   2.357   4.979   0.387 -0.7375 -0.4324 -0.2762
15972SOL     OW53751   8.585   5.206   6.937 -0.3629 -0.3328  0.1510
15972SOL    HW153752   8.678   5.195   6.916 -0.2394  2.1318 -0.9399
15972SOL    HW253753   8.555   5.118   6.960  1.7822 -1.5400 -1.3198
15973SOL     OW53754   7.944   0.604   6.766 -0.0778  0.8234  0.1835
15973SOL    HW153755   7.852   0.606   6.739 -0.5368 -1.0684  1.4387
15973SOL    HW253756   7.947   0.654   6.847 -0.5369 -1.1024  1.4541
15974SOL     OW53757   6.640   4.841   0.821  0.0991 -0.1105  0.0370
15974SOL    HW153758   6.549   4.865   0.805  0.2722 -0.1338 -1.1102
15974SOL    HW253759   6.653   4.855   0.915 -1.3014 -0.8714  0.3680
15975SOL     OW53760   9.161   3.116   7.134 -0.1625 -0.6562  0.1368
15975SOL    HW153761   9.133   3.063   7.209 -0.9881 -2.6564 -1.5049
15975SOL    HW253762   9.257   3.119   7.142 -0.0481 -2.6904  0.1689
15976SOL     OW53763   9.281   8.490   2.153 -0.2398  0.9616 -0.2777
15976SOL    HW153764   9.264   8.582   2.171 -1.4130  1.1881 -2.3087
15976SOL    HW253765   9.375   8.479   2.168  0.2575  2.9202 -1.6570
15977SOL     OW53766   0.321   0.280   9.587  0.4241  0.0753 -0.5443
15977SOL    HW153767   0.247   0.264   9.645  1.0831  1.2726  0.6937
15977SOL    HW253768   0.296   0.356   9.536  0.6486  0.2772 -0.3595
15978SOL     OW53769   4.686   1.242   1.525 -0.1099 -0.0397  0.0141
15978SOL    HW153770   4.696   1.185   1.449  4.1089 -2.2474  1.8316
15978SOL    HW253771   4.675   1.181   1.598  0.2053  1.7166  1.5979
15979SOL     OW53772   0.657   5.388   3.191  0.7352 -0.1204 -0.2062
15979SOL    HW153773   0.713   5.354   3.121  1.4362  0.4075  0.0928
15979SOL    HW253774   0.568   5.377   3.157  0.9803 -1.3855 -0.5046
15980SOL     OW53775   0.786   9.730  10.018  0.1841  0.0518 -0.3843
15980SOL    HW153776   0.801   9.635  10.016 -1.4350 -0.2487  0.4338
15980SOL    HW253777   0.780   9.751  10.111 -0.1221  0.8534 -0.5811
15981SOL     OW53778   7.740  10.060  10.082 -0.1560 -0.0920 -0.0070
15981SOL    HW153779   7.778   9.998  10.144 -1.4321  0.9752  1.9272
15981SOL    HW253780   7.794  10.051  10.004  2.0825 -0.8802  1.5242
15982SOL     OW53781   2.875   9.503   1.259  0.3249 -0.2858  0.2307
15982SOL    HW153782   2.811   9.523   1.328  1.6098  1.0187  1.1079
15982SOL    HW253783   2.942   9.451   1.303  1.4455  1.0314  0.1581
15983SOL     OW53784  10.845   1.594   7.280  0.0283 -0.3361  0.1854
15983SOL    HW153785  10.849   1.591   7.376 -0.5768 -2.0521  0.1960
15983SOL    HW253786  10.753   1.579   7.260 -0.0239  0.9567 -0.6740
15984SOL     OW53787   0.129   6.885   1.593  0.4232  0.1138 -0.4467
15984SOL    HW153788   0.148   6.926   1.677  1.4726 -0.0654 -0.5903
15984SOL    HW253789   0.089   6.955   1.541 -1.1856 -0.0347  0.5095
15985SOL     OW53790   7.984   7.070   2.568 -0.0075  0.3930  0.3808
15985SOL    HW153791   8.066   7.117   2.579  0.0787  0.3866 -0.2223
15985SOL    HW253792   7.983   7.044   2.476 -0.8580  0.7249  0.2825
15986SOL     OW53793   2.136   9.451   3.465 -0.4418  0.1278 -0.3130
15986SOL    HW153794   2.127   9.525   3.405  1.1871  0.0348 -0.7221
15986SOL    HW253795   2.178   9.489   3.543 -0.0089 -0.2679 -0.3483
15987SOL     OW53796   1.409   2.498   0.799 -0.0486 -0.2592 -0.0065
15987SOL    HW153797   1.351   2.569   0.774 -1.6876 -1.6977 -0.4740
15987SOL    HW253798   1.362   2.451   0.868  1.4393 -0.3167  1.0053
15988SOL     OW53799   6.318   6.389   9.840  0.2225 -0.1438 -0.4403
15988SOL    HW153800   6.291   6.407   9.750 -1.0430 -0.0213 -0.0500
15988SOL    HW253801   6.242   6.348   9.880  0.3544  0.8703  0.9058
15989SOL     OW53802   5.838   1.843   4.109  0.4536 -0.5766  0.5560
15989SOL    HW153803   5.765   1.786   4.086 -0.3867  1.0604 -1.0915
15989SOL    HW253804   5.884   1.796   4.179 -0.6172 -2.8693 -0.1774
15990SOL     OW53805  10.400  10.833   1.452  0.5280  0.3775  0.1770
15990SOL    HW153806  10.462  10.842   1.379 -2.1242  0.2813 -2.3103
15990SOL    HW253807  10.337  10.904   1.437 -2.2768 -2.0017 -0.0044
15991SOL     OW53808   7.687   7.858   6.708  0.1307 -0.0765  0.0419
15991SOL    HW153809   7.639   7.778   6.687  0.5144  0.1847 -2.1135
15991SOL    HW253810   7.779   7.832   6.711  0.1655  0.0852  0.4266
15992SOL     OW53811   5.318   6.795   2.042 -0.1179  0.8458 -0.2732
15992SOL    HW153812   5.327   6.812   2.135 -0.5378  1.7839 -0.3993
15992SOL    HW253813   5.406   6.772   2.013 -0.3400 -1.5794  0.7486
15993SOL     OW53814   6.660  10.780   8.524  0.1605  0.3575  0.0628
15993SOL    HW153815   6.699  10.803   8.440  2.4010 -3.0324 -0.0270
15993SOL    HW253816   6.600  10.708   8.504  1.1441 -0.8830  1.3349
15994SOL     OW53817   9.552  10.901   3.678 -0.4074 -0.3342 -1.2255
15994SOL    HW153818   9.581  10.839   3.611 -1.2213 -1.3467 -0.6700
15994SOL    HW253819   9.509  10.847   3.745  0.1072  0.6777 -0.0262
15995SOL     OW53820   1.927   1.585   7.364  0.0272  0.8129 -0.0329
15995SOL    HW153821   1.933   1.492   7.346  0.1830  0.2970  2.3785
15995SOL    HW253822   2.001   1.624   7.316  1.0772 -0.5555  0.4293
15996SOL     OW53823   0.599  10.177   4.904 -0.0201  0.2252  0.1762
15996SOL    HW153824   0.663  10.147   4.969 -0.2150  0.6770  0.5857
15996SOL    HW253825   0.561  10.097   4.869  0.3096 -0.0316  0.4008
15997SOL     OW53826   3.977   8.153   4.755 -0.3899  0.0504 -0.0582
15997SOL    HW153827   3.898   8.101   4.774 -0.3922  0.6912  1.8497
15997SOL    HW253828   4.047   8.107   4.800 -0.0649  0.7218  0.1304
15998SOL     OW53829   9.934   3.610   7.826  0.2437 -0.3487  0.8711
15998SOL    HW153830  10.009   3.654   7.865 -0.2419 -0.3233  1.8131
15998SOL    HW253831   9.858   3.649   7.869 -0.2847 -0.8041  0.3800
15999SOL     OW53832   8.434   2.401   3.560  0.1983  0.2687 -0.6145
15999SOL    HW153833   8.351   2.390   3.607  0.4559 -0.0632 -0.2316
15999SOL    HW253834   8.411   2.391   3.468 -0.1163 -0.2633 -0.4829
16000SOL     OW53835   7.406   8.527   9.268  0.0524 -0.0595 -0.0467
16000SOL    HW153836   7.425   8.472   9.344 -0.6810  2.3474  2.0000
16000SOL    HW253837   7.313   8.511   9.251 -0.0564  0.2096  0.2796
16001SOL     OW53838   1.045   9.406   7.345  0.3467 -0.0354 -0.2595
16001SOL    HW153839   1.008   9.371   7.264 -0.0667  0.8029 -0.4434
16001SOL    HW253840   1.124   9.353   7.360 -1.0096 -1.9988  0.2659
16002SOL     OW53841   5.326   4.865   3.301 -0.0761 -0.5250 -0.7576
16002SOL    HW153842   5.341   4.793   3.239  1.8401 -1.4047  0.6176
16002SOL    HW253843   5.414   4.888   3.332 -0.6984  1.9860 -0.6408
16003SOL     OW53844   5.858   7.426   1.424 -0.3941 -0.0493  0.2934
16003SOL    HW153845   5.884   7.336   1.448 -1.2670 -0.2533  0.5053
16003SOL    HW253846   5.923   7.481   1.467  0.3399 -0.5884 -0.0942
16004SOL     OW53847   6.597  10.770   7.202 -0.6168  0.7147 -0.6900
16004SOL    HW153848   6.614  10.675   7.203  0.4302  0.8915  0.7929
16004SOL    HW253849   6.507  10.779   7.232 -1.2946  0.1206 -2.4264
16005SOL     OW53850   5.463   2.500   5.534  0.5552 -0.1398 -0.4364
16005SOL    HW153851   5.411   2.440   5.587  0.4414  2.5358  2.8289
16005SOL    HW253852   5.399   2.540   5.474 -0.0076 -0.8702 -0.3364
16006SOL     OW53853  10.479  10.878   5.491  0.0629  0.0050  0.2400
16006SOL    HW153854  10.560  10.892   5.441  1.5266  0.5931  2.6529
16006SOL    HW253855  10.419  10.840   5.427  1.6209  1.2388 -2.1203
16007SOL     OW53856   9.218   4.170   9.815  0.8636 -0.1035  0.7812
16007SOL    HW153857   9.165   4.136   9.887 -2.5989 -1.5334 -2.0984
16007SOL    HW253858   9.249   4.092   9.769  0.4294  0.6849 -0.9197
16008SOL     OW53859   4.926   6.480   6.038  0.3198  0.0792  0.4330
16008SOL    HW153860   4.897   6.428   6.113  0.7293  2.1280  2.0903
16008SOL    HW253861   4.950   6.415   5.972 -1.8283 -1.7731  1.3495
16009SOL     OW53862   7.350   3.205   7.325 -0.1907 -0.5940  0.1189
16009SOL    HW153863   7.325   3.288   7.365 -1.3894 -0.4870 -0.7832
16009SOL    HW253864   7.439   3.189   7.356  0.8471  2.0145 -1.2060
16010SOL     OW53865   0.334   0.534   1.636 -0.1286  0.3816 -0.2426
16010SOL    HW153866   0.311   0.605   1.696 -1.1416 -0.6704  0.6840
16010SOL    HW253867   0.429   0.539   1.626 -0.2828  2.5174 -1.0890
16011SOL     OW53868   8.434   6.460   5.106 -0.2443 -0.0809  0.0616
16011SOL    HW153869   8.465   6.550   5.101 -2.2682  0.6999  0.7542
16011SOL    HW253870   8.494   6.417   5.168 -0.8310  1.5253  1.8238
16012SOL     OW53871   7.347   7.543   7.022  0.1763  0.4246  0.3467
16012SOL    HW153872   7.327   7.618   7.077  0.4843 -0.1587  1.2767
16012SOL    HW253873   7.261   7.504   7.001 -0.2002  2.3006 -2.0535
16013SOL     OW53874  10.864   9.620   9.990 -0.1091 -0.7569  0.1062
16013SOL    HW153875  10.831   9.546  10.041  0.9289  0.1504  2.2580
16013SOL    HW253876  10.951   9.637  10.027  0.3383  0.5209 -1.4389
16014SOL     OW53877  10.061   5.093   4.678 -0.4093 -0.0826  0.0934
16014SOL    HW153878  10.039   5.176   4.720  1.0475  0.6172 -0.4886
16014SOL    HW253879  10.155   5.082   4.693  0.2614  0.3101 -3.1308
16015SOL     OW53880   7.018   9.675   5.932 -0.0494 -0.8681  0.0703
16015SOL    HW153881   6.955   9.715   5.872  1.4318 -0.7944 -1.4835
16015SOL    HW253882   7.069   9.749   5.965  0.3869 -1.1175 -0.0501
16016SOL     OW53883   6.399   1.788   7.576 -0.0877  0.0122 -0.2302
16016SOL    HW153884   6.330   1.726   7.598 -0.2637  1.1081  2.7718
16016SOL    HW253885   6.352   1.868   7.553  0.1491  0.1912 -0.0974
16017SOL     OW53886   6.905   8.277   6.633 -0.0392 -0.1199  0.2464
16017SOL    HW153887   6.871   8.265   6.722  0.3769 -0.0905  0.4150
16017SOL    HW253888   6.940   8.191   6.609 -1.1709 -0.4328 -0.3396
16018SOL     OW53889   2.738   6.296   9.791  0.5565  0.3368 -0.1863
16018SOL    HW153890   2.775   6.247   9.717  1.8107  2.1932 -0.8684
16018SOL    HW253891   2.654   6.328   9.760  0.2778 -0.3803 -0.1676
16019SOL     OW53892   4.644   2.624   9.663  0.2540  0.4161  0.1240
16019SOL    HW153893   4.642   2.619   9.758 -1.7922 -1.4244  0.0507
16019SOL    HW253894   4.553   2.614   9.636  0.7604  0.9947 -2.0449
16020SOL     OW53895   4.651   3.999  10.265  0.1281  0.1512  0.0657
16020SOL    HW153896   4.725   3.986  10.206  0.5809 -0.1587  0.6878
16020SOL    HW253897   4.617   3.911  10.282 -1.0238  0.3564 -0.9924
16021SOL     OW53898   9.316   3.431   6.244 -0.3572 -0.5018 -0.0765
16021SOL    HW153899   9.222   3.411   6.248 -0.7960  1.2556 -0.3531
16021SOL    HW253900   9.360   3.350   6.269 -1.9999 -0.6744  2.6539
16022SOL     OW53901  10.511   2.980   8.735 -0.0809  0.6185  0.0146
16022SOL    HW153902  10.559   2.908   8.777 -0.9207  0.8418  1.4223
16022SOL    HW253903  10.429   2.941   8.706  0.1215  0.6736 -0.6641
16023SOL     OW53904   2.255   1.649   5.732 -0.6596 -0.3736 -0.4569
16023SOL    HW153905   2.182   1.600   5.771 -1.3929  0.8802 -0.2210
16023SOL    HW253906   2.214   1.718   5.681  0.3533  0.7597  0.1990
16024SOL     OW53907   3.230   0.135   6.313  0.4312 -0.6843  0.5474
16024SOL    HW153908   3.204   0.151   6.403  0.8151 -1.6753  0.8499
16024SOL    HW253909   3.213   0.042   6.299  1.6630 -0.8577  0.0361
16025SOL     OW53910   3.484   3.909   2.046  0.2652  0.2375  0.2361
16025SOL    HW153911   3.510   3.989   1.999  0.0095 -0.0644 -0.4353
16025SOL    HW253912   3.389   3.917   2.055  0.2124 -0.0973 -0.0315
16026SOL     OW53913   1.109   4.479   6.857 -0.5397 -0.0219 -0.6746
16026SOL    HW153914   1.104   4.555   6.799 -0.1012  0.2931 -0.3093
16026SOL    HW253915   1.027   4.480   6.906 -1.0007 -0.4005 -1.4148
16027SOL     OW53916   2.255   1.398   7.820 -1.1749  0.4456  0.1304
16027SOL    HW153917   2.262   1.329   7.886  0.2208  1.4531  1.0734
16027SOL    HW253918   2.303   1.364   7.744 -0.8393  0.2025  0.4482
16028SOL     OW53919   3.505  10.839   1.614 -0.0793 -0.2684 -0.4041
16028SOL    HW153920   3.590  10.873   1.640  0.1326 -0.5248 -0.7596
16028SOL    HW253921   3.447  10.915   1.619  0.4639  0.2391 -1.5326
16029SOL     OW53922   6.455   4.186   3.844  0.1148 -0.3011  0.0856
16029SOL    HW153923   6.551   4.185   3.851  0.0066 -1.2516  2.0598
16029SOL    HW253924   6.431   4.097   3.821 -0.2855  0.1371 -1.2987
16030SOL     OW53925   3.626   7.690   1.724  0.0845 -0.0773 -0.1595
16030SOL    HW153926   3.576   7.609   1.732  1.7384 -1.2786 -1.3177
16030SOL    HW253927   3.711   7.663   1.690  1.0089  2.0609  0.2518
16031SOL     OW53928   4.573   6.569   2.882  0.0879  0.0886 -0.0115
16031SOL    HW153929   4.544   6.485   2.847  0.8827  0.1233 -0.7992
16031SOL    HW253930   4.664   6.578   2.852  0.8969  0.0545  2.2357
16032SOL     OW53931  10.671   9.059   0.517  0.1456  0.1383 -0.4413
16032SOL    HW153932  10.671   9.024   0.606 -0.5783  1.0894 -0.0454
16032SOL    HW253933  10.738   9.009   0.471 -1.3805 -2.3435 -0.1530
16033SOL     OW53934   6.506   7.362   9.501 -0.1922  0.2107  0.5185
16033SOL    HW153935   6.468   7.348   9.587 -0.8005  1.2169  0.4189
16033SOL    HW253936   6.571   7.292   9.493 -1.2016 -0.8400  1.1517
16034SOL     OW53937  10.578   8.041   7.168 -0.0989  0.1468 -0.2312
16034SOL    HW153938  10.511   8.011   7.229  1.6383 -1.6261  0.9416
16034SOL    HW253939  10.570   7.982   7.093 -0.9770  1.0683 -0.8651
16035SOL     OW53940   9.910   5.978   2.612 -0.5521 -0.3743 -0.6155
16035SOL    HW153941   9.966   5.939   2.545  0.1304  0.4524 -0.5464
16035SOL    HW253942   9.933   6.071   2.612 -0.3304 -0.3917  0.9350
16036SOL     OW53943   7.097   1.424   1.482  0.0562  0.3380  0.2288
16036SOL    HW153944   7.030   1.357   1.496  1.5226 -1.1196  0.4844
16036SOL    HW253945   7.047   1.505   1.467 -1.7342 -0.6055  0.8641
16037SOL     OW53946   3.943   8.002   3.067  0.0135 -0.3436 -0.5361
16037SOL    HW153947   3.884   7.943   3.114 -1.5675  0.8259 -0.9696
16037SOL    HW253948   3.901   8.016   2.983  0.5879  1.0411 -0.6206
16038SOL     OW53949   6.265   3.753   9.807 -0.1667  0.5624  0.0118
16038SOL    HW153950   6.327   3.823   9.784  0.0993  0.4952  0.5111
16038SOL    HW253951   6.181   3.798   9.816 -0.1571  0.6841 -0.4885
16039SOL     OW53952   3.616   4.542   5.284 -0.1832 -0.2311  0.0234
16039SOL    HW153953   3.682   4.483   5.247 -1.0040 -2.2013  1.5334
16039SOL    HW253954   3.534   4.515   5.242 -0.3997  0.6758 -0.1591
16040SOL     OW53955   5.004   5.351   5.288  0.1358  0.0802 -0.8150
16040SOL    HW153956   4.944   5.406   5.238 -0.1002  1.1056  0.5397
16040SOL    HW253957   5.028   5.404   5.364  2.5688 -0.3709 -1.1659
16041SOL     OW53958   4.821   4.719   3.536  0.5621 -0.2631  0.4819
16041SOL    HW153959   4.903   4.681   3.567  0.3165  0.4145  2.0540
16041SOL    HW253960   4.823   4.707   3.441  1.0373 -3.0653  0.7595
16042SOL     OW53961   9.978   2.177   2.398  0.4443  0.1701 -0.3080
16042SOL    HW153962   9.974   2.250   2.459 -1.1227 -0.0675 -0.0876
16042SOL    HW253963   9.965   2.217   2.312  0.3698  0.2431 -0.2631
16043SOL     OW53964   4.890   4.228   6.732 -0.2581  0.0871  0.1418
16043SOL    HW153965   4.863   4.150   6.684  1.5643 -0.0098 -0.8144
16043SOL    HW253966   4.889   4.298   6.666  0.1558  0.4240  0.4841
16044SOL     OW53967   0.425   5.991   5.314  0.1499  0.4299 -0.6529
16044SOL    HW153968   0.336   5.992   5.279 -0.5126 -0.1575  0.9291
16044SOL    HW253969   0.416   6.027   5.402  1.3290 -0.4421 -0.1615
16045SOL     OW53970   0.846   7.336   4.328  0.1787 -0.3704 -0.0748
16045SOL    HW153971   0.827   7.257   4.380 -1.0986 -0.5908 -0.8338
16045SOL    HW253972   0.765   7.387   4.334  1.1877  1.1931  0.8958
16046SOL     OW53973   5.535   0.524   7.216 -0.5303 -0.3257  0.0486
16046SOL    HW153974   5.581   0.539   7.133  0.6632  0.5813  0.8301
16046SOL    HW253975   5.578   0.583   7.278 -2.5120  0.2869  0.9372
16047SOL     OW53976   3.195   8.369   5.372  0.4952 -0.1042  0.5132
16047SOL    HW153977   3.187   8.298   5.307 -1.5832  1.3754 -1.0054
16047SOL    HW253978   3.117   8.423   5.357  0.4211  0.8610  3.6631
16048SOL     OW53979   6.830  10.392   9.469 -0.4154  0.6447  0.0647
16048SOL    HW153980   6.834  10.355   9.557 -0.6231  0.9241  0.1944
16048SOL    HW253981   6.820  10.316   9.411  0.9769  0.3561  0.1720
16049SOL     OW53982  10.404   5.043   9.293 -0.0604 -0.1145  0.9995
16049SOL    HW153983  10.386   5.088   9.376 -1.1986  0.7788  0.2855
16049SOL    HW253984  10.468   5.099   9.249 -0.3537  0.0237  0.7527
16050SOL     OW53985   6.953   8.497   5.867  0.1763 -0.7449 -0.5143
16050SOL    HW153986   6.885   8.443   5.908  0.3089 -0.5485 -0.0247
16050SOL    HW253987   7.030   8.482   5.921  0.0797  0.3393 -0.0424
16051SOL     OW53988   0.001   3.852   4.186  0.3599  0.7522  0.1727
16051SOL    HW153989  -0.004   3.800   4.105  1.3086 -0.2986  0.7545
16051SOL    HW253990  -0.031   3.793   4.254  2.1674  0.6142  0.9689
16052SOL     OW53991   2.292   7.144   4.394  0.2374 -0.3101 -0.1225
16052SOL    HW153992   2.360   7.080   4.373  1.6755  0.7159  1.2078
16052SOL    HW253993   2.240   7.101   4.462  0.7337 -0.3620  0.2283
16053SOL     OW53994   6.693   8.387   4.094  0.2221 -0.2296  0.4347
16053SOL    HW153995   6.749   8.426   4.027  1.5895  0.5408  1.9640
16053SOL    HW253996   6.721   8.427   4.176 -2.4964  0.0737  1.3187
16054SOL     OW53997  10.021   1.245   9.801 -0.3471  0.3359  0.8308
16054SOL    HW153998   9.989   1.171   9.750  2.1317 -0.7708  0.7568
16054SOL    HW253999  10.031   1.211   9.890 -2.1087  1.5061  1.5301
16055SOL     OW54000   0.234   0.796   6.327  0.0489 -0.1797 -0.2925
16055SOL    HW154001   0.254   0.728   6.391  0.1927 -0.0718 -0.2240
16055SOL    HW254002   0.291   0.777   6.253  1.7306  1.1889  0.6065
16056SOL     OW54003   7.002   4.603   6.086  0.0265  0.3512  0.3013
16056SOL    HW154004   6.913   4.577   6.062 -0.1099 -0.3883  1.4995
16056SOL    HW254005   7.026   4.543   6.156  1.7546  0.0864 -0.4785
16057SOL     OW54006   3.250   7.641   0.921 -0.2198  0.5378  0.0106
16057SOL    HW154007   3.202   7.724   0.920 -0.4150  0.6185 -4.4752
16057SOL    HW254008   3.188   7.577   0.956 -2.1923  1.3765 -1.7618
16058SOL     OW54009   1.399  10.164   1.557 -0.4593  0.0825  0.2349
16058SOL    HW154010   1.455  10.234   1.592 -0.5600 -0.5444  1.7021
16058SOL    HW254011   1.449  10.084   1.572 -1.7185 -0.4888  1.5888
16059SOL     OW54012   6.538   2.228   0.462 -0.0348  0.2685  0.0706
16059SOL    HW154013   6.490   2.310   0.468  1.2444  1.0333  0.2329
16059SOL    HW254014   6.627   2.250   0.490  0.1556 -1.3407  0.8763
16060SOL     OW54015   9.099   0.399   8.243 -0.5850  0.0863 -0.1687
16060SOL    HW154016   9.153   0.441   8.311 -0.1928 -0.3617 -0.1995
16060SOL    HW254017   9.089   0.467   8.176  1.6035 -0.4064 -1.0956
16061SOL     OW54018   8.537   5.281   3.369  0.4623  0.1421 -0.4326
16061SOL    HW154019   8.539   5.315   3.280 -0.6667 -1.2677 -1.0455
16061SOL    HW254020   8.601   5.210   3.369  1.5771  1.1241  0.3409
16062SOL     OW54021   8.484   8.702   6.405  0.1617  0.4824 -0.7120
16062SOL    HW154022   8.412   8.764   6.393  0.0805  0.2238 -1.6176
16062SOL    HW254023   8.505   8.672   6.316  0.4931 -0.4492 -0.3305
16063SOL     OW54024   7.638  10.234   3.764  0.4230 -0.0620  0.1741
16063SOL    HW154025   7.548  10.267   3.762  0.9056  1.3571  0.4576
16063SOL    HW254026   7.649  10.189   3.681 -0.2957  0.4691 -0.2198
16064SOL     OW54027  10.032   2.358   7.698  0.3410 -0.0698 -0.7363
16064SOL    HW154028   9.982   2.299   7.755 -0.7637 -0.0903 -1.6711
16064SOL    HW254029  10.121   2.356   7.732 -0.4334  0.5620  1.4851
16065SOL     OW54030   4.101   3.531   7.114  0.6304  0.2476 -0.1476
16065SOL    HW154031   4.105   3.608   7.056 -1.7508  1.1905  0.8090
16065SOL    HW254032   4.182   3.535   7.165  1.1433  1.3882 -0.9984
16066SOL     OW54033   6.222   9.900   3.930 -0.0163 -0.2127 -0.3395
16066SOL    HW154034   6.158   9.967   3.952 -0.6365 -1.2481  1.0975
16066SOL    HW254035   6.256   9.870   4.014  0.2583 -1.6943 -0.9426
16067SOL     OW54036   2.443   0.851   7.400  0.9327 -0.5083  0.4898
16067SOL    HW154037   2.441   0.833   7.306 -0.9842 -0.6480  0.5226
16067SOL    HW254038   2.366   0.806   7.435 -0.1030  1.9970  1.6698
16068SOL     OW54039   0.497   6.349   9.732  0.2298 -0.1234 -0.0066
16068SOL    HW154040   0.512   6.399   9.812  0.7628  0.2615 -0.3399
16068SOL    HW254041   0.583   6.342   9.692 -0.0186 -0.3830 -0.5038
16069SOL     OW54042   6.191   5.151  10.402  0.2807  0.1610 -0.4468
16069SOL    HW154043   6.237   5.081  10.356  0.4563 -0.6669  0.9375
16069SOL    HW254044   6.170   5.214  10.333  2.2462 -0.0875 -1.3597
16070SOL     OW54045   4.150   6.518   4.564 -0.4722  0.2108 -0.0910
16070SOL    HW154046   4.084   6.491   4.501 -0.4844 -0.5679  0.2360
16070SOL    HW254047   4.102   6.528   4.646 -0.1884 -0.3948  0.1564
16071SOL     OW54048   9.373   8.775   6.377 -0.2194 -0.1840 -0.7782
16071SOL    HW154049   9.334   8.756   6.462  0.8191 -0.9478 -0.4517
16071SOL    HW254050   9.342   8.704   6.320 -1.1849  0.5140 -1.1319
16072SOL     OW54051  10.008   7.632   9.883  0.5270  0.1780  0.9685
16072SOL    HW154052  10.054   7.648   9.966  0.0372 -0.4440  1.3750
16072SOL    HW254053  10.077   7.628   9.817  0.8410  1.7165  1.1779
16073SOL     OW54054   9.387   9.667   8.867 -0.1731  0.2758  0.3734
16073SOL    HW154055   9.316   9.604   8.875  0.0710  0.2134  2.8033
16073SOL    HW254056   9.458   9.631   8.920  0.1024  2.3946  1.5773
16074SOL     OW54057   6.055   4.575   7.890 -0.1962  0.1342  0.8679
16074SOL    HW154058   5.975   4.627   7.882 -0.2155 -0.0999 -0.7905
16074SOL    HW254059   6.117   4.635   7.932 -0.5629  1.1078  0.0638
16075SOL     OW54060   9.405   7.567   6.263  0.2608 -0.2349 -0.1113
16075SOL    HW154061   9.395   7.597   6.172  2.0353  2.7618  0.5589
16075SOL    HW254062   9.482   7.511   6.261  1.4160  1.2974 -0.2175
16076SOL     OW54063   1.594   2.963   3.623  0.6578  1.2728 -0.1538
16076SOL    HW154064   1.626   2.877   3.650 -1.4601  0.6003  0.4592
16076SOL    HW254065   1.506   2.945   3.588  0.0436  3.2266  0.2683
16077SOL     OW54066  10.035   6.528   2.861 -0.3199  0.2859 -0.3770
16077SOL    HW154067  10.048   6.621   2.882  0.6652 -0.3004  1.8501
16077SOL    HW254068  10.099   6.482   2.914 -1.5683 -1.7677 -0.5395
16078SOL     OW54069   5.775   6.721   8.473  0.4518  0.4414  0.2951
16078SOL    HW154070   5.804   6.812   8.468  1.2187  0.2153  0.3519
16078SOL    HW254071   5.824   6.685   8.547  0.2511 -0.0479  0.1936
16079SOL     OW54072   6.346  10.600   8.680  0.6066 -0.0287  0.3754
16079SOL    HW154073   6.323  10.536   8.613 -1.8703 -0.0045  1.0944
16079SOL    HW254074   6.442  10.604   8.679  0.6918 -1.2682 -1.9551
16080SOL     OW54075   0.839   7.040   8.990  0.1792  0.2044  0.5144
16080SOL    HW154076   0.855   7.128   8.955 -0.3765  0.2214  0.2985
16080SOL    HW254077   0.798   6.993   8.918 -1.5599  0.4168  1.3156
16081SOL     OW54078   0.906   8.374   2.332  0.9964 -0.1742 -0.1680
16081SOL    HW154079   0.840   8.385   2.263 -1.0471 -0.9552  1.5652
16081SOL    HW254080   0.917   8.279   2.339  0.6021 -0.1441  1.0686
16082SOL     OW54081   2.367   0.266   2.301  0.2777 -0.2327  0.4115
16082SOL    HW154082   2.384   0.360   2.297  1.1219 -0.3125  1.6077
16082SOL    HW254083   2.433   0.226   2.244 -1.7755  0.0171 -2.3407
16083SOL     OW54084  10.872   7.582  10.868  0.1000  0.1487  0.1399
16083SOL    HW154085  10.816   7.638  10.814  1.1303  0.8905 -0.1813
16083SOL    HW254086  10.960   7.596  10.835  0.6893  0.1496  1.6154
16084SOL     OW54087   7.988   5.888   5.694  0.1384  0.2827  0.6244
16084SOL    HW154088   8.066   5.942   5.702 -0.6312  1.4649  0.3206
16084SOL    HW254089   8.009   5.826   5.624  0.6241  0.9106  0.2071
16085SOL     OW54090   1.696  10.758   8.006 -0.0076  0.4533  0.2805
16085SOL    HW154091   1.734  10.846   8.000 -1.6921  1.2897  1.0369
16085SOL    HW254092   1.631  10.765   8.076 -0.8339 -1.1672 -0.2702
16086SOL     OW54093   4.156   2.980  10.642 -0.5083 -0.4098  0.5697
16086SOL    HW154094   4.195   3.064  10.666  0.3474 -0.8168  0.6333
16086SOL    HW254095   4.087   3.002  10.579  1.5192  0.1410 -1.5837
16087SOL     OW54096   7.893   3.050  10.238  0.0412  0.0952  0.3651
16087SOL    HW154097   7.830   3.067  10.167 -0.2255 -0.6315  0.4259
16087SOL    HW254098   7.978   3.073  10.200 -0.1962  0.5694  0.1042
16088SOL     OW54099   4.127   1.069   1.039 -0.4403 -0.6558  0.1458
16088SOL    HW154100   4.157   1.043   0.952 -1.8193 -0.7621 -0.3265
16088SOL    HW254101   4.192   1.031   1.098 -0.1040 -1.5942 -0.7747
16089SOL     OW54102   0.851   4.678  10.618 -0.0133  0.1182  0.0106
16089SOL    HW154103   0.872   4.593  10.657  1.1239 -0.3086 -1.4463
16089SOL    HW254104   0.933   4.706  10.577 -1.0210  0.7488 -1.6497
16090SOL     OW54105   8.587   7.771   6.926  0.3453 -0.3651  0.3966
16090SOL    HW154106   8.556   7.805   6.843  1.7521  2.6766  0.9736
16090SOL    HW254107   8.527   7.808   6.991  1.2553  0.1404  0.9712
16091SOL     OW54108   3.238   7.821   7.457 -0.0861 -0.3144  0.2740
16091SOL    HW154109   3.238   7.774   7.373  0.5301 -0.1865  0.1976
16091SOL    HW254110   3.216   7.753   7.521 -1.7763 -0.1667 -0.1042
16092SOL     OW54111   1.937   2.327   6.143  0.2860 -0.1115  0.0426
16092SOL    HW154112   2.024   2.301   6.172 -0.2626 -1.5917  0.4633
16092SOL    HW254113   1.925   2.283   6.059 -0.0819  0.0046  0.0298
16093SOL     OW54114   7.302   8.348   8.706  0.0615 -0.8398 -0.2825
16093SOL    HW154115   7.327   8.334   8.797 -1.3053 -0.9545  0.0977
16093SOL    HW254116   7.332   8.269   8.661 -0.9702 -1.6764  0.4499
16094SOL     OW54117   9.064   8.423   2.324  0.0700  0.1905 -0.1261
16094SOL    HW154118   9.145   8.408   2.274 -0.3171  1.1036 -1.0569
16094SOL    HW254119   8.996   8.378   2.274  0.0365 -0.9173  0.8661
16095SOL     OW54120  10.222   8.419   3.214  1.0142  0.0432 -0.0030
16095SOL    HW154121  10.238   8.504   3.173  1.1654  0.3800  0.7529
16095SOL    HW254122  10.221   8.436   3.308 -0.5928 -0.5104  0.1124
16096SOL     OW54123   6.786   8.737   4.831 -0.4027  0.2247 -0.3460
16096SOL    HW154124   6.760   8.655   4.874 -0.2058 -0.0397 -0.7316
16096SOL    HW254125   6.755   8.728   4.741  2.7218 -0.9620 -1.4269
16097SOL     OW54126   8.693   1.892   8.202 -0.0212 -0.1307  0.1393
16097SOL    HW154127   8.737   1.955   8.145 -0.7053 -0.1884 -0.4597
16097SOL    HW254128   8.636   1.946   8.258 -0.7594 -0.2171 -0.5099
16098SOL     OW54129   0.581   0.689   2.030  0.6169 -0.5767 -0.3584
16098SOL    HW154130   0.493   0.653   2.020  0.2173  0.2063  0.2279
16098SOL    HW254131   0.607   0.667   2.119 -0.1315  1.5727  0.4548
16099SOL     OW54132   4.383   4.785   7.060  0.6937  0.1760  0.2401
16099SOL    HW154133   4.336   4.789   7.143 -2.0388 -1.8043 -1.0520
16099SOL    HW254134   4.393   4.692   7.042  1.4577  0.5472 -1.4974
16100SOL     OW54135   6.402   0.973   1.068  0.4622 -0.0718 -0.0581
16100SOL    HW154136   6.432   1.023   1.144  1.2313  1.8480 -1.5537
16100SOL    HW254137   6.481   0.934   1.031  0.0798 -1.0758  0.1360
16101SOL     OW54138  10.851   0.278   9.820  0.4450  0.0316 -0.3573
16101SOL    HW154139  10.870   0.186   9.841  0.9671 -0.1014 -1.3352
16101SOL    HW254140  10.866   0.284   9.725 -3.1319  0.2670 -1.0270
16102SOL     OW54141   7.971   5.474   8.213 -0.4639  0.2464 -0.1313
16102SOL    HW154142   7.958   5.434   8.299  1.4679  0.2824  0.2253
16102SOL    HW254143   7.992   5.401   8.156 -2.6260  0.1107 -0.8192
16103SOL     OW54144   4.033  10.130   1.658  0.2780 -0.1044 -0.0330
16103SOL    HW154145   4.072  10.217   1.670 -2.0831  1.1401 -0.7760
16103SOL    HW254146   4.066  10.079   1.732  2.1445  1.2361  0.1354
16104SOL     OW54147   4.497   9.354  10.714  0.2031 -0.7380  0.3328
16104SOL    HW154148   4.479   9.448  10.711 -1.1330 -0.9979 -0.9599
16104SOL    HW254149   4.587   9.346  10.680  0.4556  0.0838  0.7699
16105SOL     OW54150   9.761  10.528   7.610 -0.0370 -0.3446 -0.5418
16105SOL    HW154151   9.813  10.551   7.687  0.1704 -2.4346  0.0143
16105SOL    HW254152   9.796  10.583   7.540  1.8526 -0.5217  0.1944
16106SOL     OW54153   0.338   9.143   1.521 -0.3933 -0.2130 -0.3440
16106SOL    HW154154   0.393   9.094   1.582 -1.2310 -0.0190  0.5992
16106SOL    HW254155   0.385   9.140   1.438  0.1848 -1.5245  0.0095
16107SOL     OW54156   2.502   6.984   5.251  0.7013 -0.0032  0.0360
16107SOL    HW154157   2.492   6.899   5.207 -0.7174  0.1917 -0.0884
16107SOL    HW254158   2.537   6.962   5.337 -0.8014 -0.8813  0.4664
16108SOL     OW54159   3.760   3.856   7.650  0.0671 -0.1511 -0.2064
16108SOL    HW154160   3.807   3.790   7.598 -1.2542 -0.2678 -1.3268
16108SOL    HW254161   3.771   3.828   7.740  1.5756 -0.5289 -0.4778
16109SOL     OW54162  10.130   0.945   9.903  0.2042  0.0908  0.1632
16109SOL    HW154163  10.163   1.031   9.928 -0.7658  1.3218 -2.3986
16109SOL    HW254164  10.087   0.959   9.818 -1.6859 -2.5496  0.5455
16110SOL     OW54165   5.364   8.540  10.025 -0.1963 -0.2181  0.1780
16110SOL    HW154166   5.278   8.506  10.051 -0.2577  0.2652  0.6292
16110SOL    HW254167   5.426   8.473  10.053 -0.2505  0.3021  1.6912
16111SOL     OW54168  10.403   0.278   1.040  0.0368 -0.1779 -0.5527
16111SOL    HW154169  10.319   0.323   1.031  0.2374  0.4780  0.6012
16111SOL    HW254170  10.469   0.346   1.024  0.3524 -0.6174 -1.1503
16112SOL     OW54171   5.876   0.459   3.274  0.0828  0.4246 -0.3121
16112SOL    HW154172   5.961   0.499   3.291 -0.0016  0.0875  1.0306
16112SOL    HW254173   5.843   0.435   3.361 -0.5663 -1.1171 -0.9382
16113SOL     OW54174   7.234   3.941   1.778  0.1571 -0.0238 -0.3786
16113SOL    HW154175   7.294   3.906   1.844  1.1320  0.0089 -1.2148
16113SOL    HW254176   7.256   4.034   1.772  0.2782 -0.0841 -0.9414
16114SOL     OW54177   9.178   7.057   6.670  0.7695 -0.3075 -0.4632
16114SOL    HW154178   9.194   6.996   6.742 -0.2728 -1.0030 -0.7910
16114SOL    HW254179   9.119   7.123   6.708  3.3547  1.6359  0.4376
16115SOL     OW54180   1.886   8.736   6.179  0.1194  0.1833  0.2548
16115SOL    HW154181   1.889   8.682   6.100  0.2625 -0.2039  0.5236
16115SOL    HW254182   1.856   8.822   6.148 -2.5452 -0.6821  0.1640
16116SOL     OW54183   6.207   3.555   6.743 -0.5032 -0.4819  0.4868
16116SOL    HW154184   6.113   3.550   6.730 -0.3102 -0.0103 -1.3395
16116SOL    HW254185   6.244   3.504   6.671  0.6860  1.8894 -0.6760
16117SOL     OW54186   3.843   7.982   3.941  0.4503 -0.5509  0.5197
16117SOL    HW154187   3.752   7.952   3.950 -0.6159  2.1932  0.0025
16117SOL    HW254188   3.888   7.948   4.018 -1.5366 -0.3671  1.8283
16118SOL     OW54189   1.930  10.354   1.573 -0.4782 -0.0343  0.0743
16118SOL    HW154190   1.950  10.353   1.666  1.1430  0.0973 -0.2410
16118SOL    HW254191   1.875  10.276   1.559  1.4934 -1.6198  0.7124
16119SOL     OW54192   9.346   8.728   2.766  0.5208  0.2456  0.0181
16119SOL    HW154193   9.305   8.810   2.793 -0.5812 -0.8868  1.9763
16119SOL    HW254194   9.357   8.678   2.847  1.3898 -1.4504 -1.0836
16120SOL     OW54195   1.848   4.378   7.673  0.3214  0.0785 -0.1116
16120SOL    HW154196   1.831   4.342   7.586 -0.9346 -0.7880  0.4623
16120SOL    HW254197   1.895   4.460   7.657  0.0314 -0.0302 -1.5991
16121SOL     OW54198   8.543   9.087   7.184 -0.0717  0.4991  0.3430
16121SOL    HW154199   8.501   9.009   7.149  2.8449 -1.0914  0.0429
16121SOL    HW254200   8.546   9.148   7.111  0.3938 -0.3721 -0.3886
16122SOL     OW54201   5.894   5.807   9.423  0.1420  0.5358 -0.0917
16122SOL    HW154202   5.805   5.791   9.456 -0.2546  0.8609 -0.9562
16122SOL    HW254203   5.921   5.887   9.467 -0.6830  1.3941 -1.0768
16123SOL     OW54204   7.201   0.805   3.621  0.1213  0.1290 -0.1263
16123SOL    HW154205   7.206   0.715   3.654 -0.9075  0.0820 -0.0784
16123SOL    HW254206   7.277   0.849   3.659  0.4589 -0.6340  0.0995
16124SOL     OW54207   3.514   9.766   9.446  0.8228  0.5738 -0.0537
16124SOL    HW154208   3.445   9.753   9.381  0.6763 -0.9421  0.3750
16124SOL    HW254209   3.595   9.744   9.401  0.9124  1.2192 -0.2168
16125SOL     OW54210   7.060   4.150   7.177 -0.4752  0.2061  0.0828
16125SOL    HW154211   7.030   4.059   7.181  0.7567 -0.1940  2.4855
16125SOL    HW254212   7.075   4.166   7.084 -1.6537 -1.7245 -0.4982
16126SOL     OW54213   2.404  10.923   0.876  0.1364 -0.2424  0.0234
16126SOL    HW154214   2.382  10.862   0.806 -2.4181 -0.9972  1.3358
16126SOL    HW254215   2.472  10.878   0.926 -0.0102 -0.9609 -0.3986
16127SOL     OW54216   9.438   3.347   9.302 -0.0805 -0.5439 -0.1645
16127SOL    HW154217   9.371   3.364   9.369 -1.5437  1.8441 -2.0627
16127SOL    HW254218   9.388   3.323   9.224  1.3305  0.1919 -1.3403
16128SOL     OW54219   5.555   8.133   3.231  0.1562 -0.2806 -0.3143
16128SOL    HW154220   5.511   8.060   3.188 -0.3456 -0.8314  1.0671
16128SOL    HW254221   5.506   8.145   3.313  1.8809 -0.1902  0.7529
16129SOL     OW54222   3.529   1.163  10.026  0.4763 -0.3422  0.5517
16129SOL    HW154223   3.547   1.081   9.979 -0.1138  0.3612 -0.9601
16129SOL    HW254224   3.612   1.210  10.024  0.0796  0.3779 -1.2844
16130SOL     OW54225   4.063   7.960   5.995 -0.0414 -0.1662  0.0507
16130SOL    HW154226   3.970   7.976   5.979 -0.8696 -3.2599  1.1521
16130SOL    HW254227   4.087   8.025   6.062 -0.9973  1.5345 -1.2002
16131SOL     OW54228   0.548   0.728   4.786 -0.2866  0.1434 -0.1033
16131SOL    HW154229   0.607   0.734   4.712 -0.6254  1.0202 -0.3174
16131SOL    HW254230   0.466   0.766   4.755 -0.6739 -0.1942  0.4776
16132SOL     OW54231   8.182   4.139   6.720  0.4525  0.3799 -0.1341
16132SOL    HW154232   8.087   4.142   6.719  0.3270 -0.5158  2.3494
16132SOL    HW254233   8.205   4.071   6.657 -0.4583  1.1257 -1.3208
16133SOL     OW54234   0.197   5.774   0.337  0.3166 -0.2677  0.0870
16133SOL    HW154235   0.174   5.862   0.366 -1.7510 -0.2734 -1.3759
16133SOL    HW254236   0.259   5.743   0.403 -0.6557  1.4160  1.8874
16134SOL     OW54237   4.324   3.857   9.096  0.0901  0.0582 -0.3789
16134SOL    HW154238   4.267   3.896   9.031  2.2789  1.3438 -1.6477
16134SOL    HW254239   4.353   3.931   9.150 -0.7602 -0.8194  1.3824
16135SOL     OW54240   7.309   1.506   6.759  0.0622 -0.7124 -0.4165
16135SOL    HW154241   7.353   1.532   6.840 -0.5013  2.6119 -1.0105
16135SOL    HW254242   7.258   1.429   6.782  0.3963 -0.2250  2.2478
16136SOL     OW54243   7.209   3.398   9.600  0.5819  0.1296 -0.0049
16136SOL    HW154244   7.142   3.423   9.537 -1.6459 -0.8437  1.8232
16136SOL    HW254245   7.222   3.304   9.587  1.5968  0.3005 -0.3197
16137SOL     OW54246   7.814   4.364  10.087  0.1857  0.8602 -0.3640
16137SOL    HW154247   7.830   4.457  10.070  0.0305  1.7920  3.6014
16137SOL    HW254248   7.725   4.360  10.120  0.6576 -0.4448  0.8814
16138SOL     OW54249   3.920   0.786   9.154 -0.0388 -0.6105  0.6160
16138SOL    HW154250   3.919   0.765   9.248 -1.7798 -2.0589  0.3318
16138SOL    HW254251   3.918   0.701   9.110  1.8833  0.0125 -0.8019
16139SOL     OW54252   2.359   8.428   3.617  0.6648  0.0469  0.5730
16139SOL    HW154253   2.448   8.411   3.647  1.7752 -0.1162 -2.4463
16139SOL    HW254254   2.304   8.378   3.676  2.6898 -1.1053  1.5908
16140SOL     OW54255   9.796   5.313   3.718  0.2870  0.2658  0.4549
16140SOL    HW154256   9.847   5.356   3.786 -0.2530 -0.0706  1.0768
16140SOL    HW254257   9.854   5.246   3.683  0.2173 -0.2310  1.2808
16141SOL     OW54258   0.947  10.438   8.511 -0.3791  0.8944  0.3219
16141SOL    HW154259   0.989  10.492   8.444  1.6610 -2.8673 -1.7142
16141SOL    HW254260   1.018  10.388   8.550 -2.3163 -1.9501  0.4703
16142SOL     OW54261   8.216   5.323   6.844  0.2105 -0.2597 -0.2389
16142SOL    HW154262   8.221   5.235   6.807 -0.6909  0.4697 -2.2233
16142SOL    HW254263   8.142   5.365   6.800 -0.6990  0.8739  2.1278
16143SOL     OW54264   2.622   1.012   9.861  1.0730  0.2957 -0.1000
16143SOL    HW154265   2.630   1.045   9.950  2.3381  1.3631 -0.5721
16143SOL    HW254266   2.540   0.963   9.860 -0.4496  2.6654  0.8862
16144SOL     OW54267   1.675   2.028   1.142 -0.1649 -0.3289 -0.6935
16144SOL    HW154268   1.740   2.095   1.163 -0.3676 -0.3211 -0.0764
16144SOL    HW254269   1.714   1.978   1.070 -0.3486  0.9344 -1.7107
16145SOL     OW54270   0.201   4.146   9.454 -0.3075  0.5882  0.1310
16145SOL    HW154271   0.281   4.138   9.403 -1.4253 -1.2534 -1.4934
16145SOL    HW254272   0.215   4.091   9.531  0.4426  1.3241  0.5329
16146SOL     OW54273   4.441   3.137   2.338 -0.2503 -0.2899  0.5232
16146SOL    HW154274   4.428   3.065   2.399 -1.3393  0.3036  1.0241
16146SOL    HW254275   4.368   3.129   2.276 -0.5947  0.5721  0.8002
16147SOL     OW54276   6.615   6.389   4.237 -0.4460 -0.3116 -0.5112
16147SOL    HW154277   6.626   6.478   4.205 -3.9004  1.2401  2.0406
16147SOL    HW254278   6.554   6.348   4.175 -1.7163  0.3951  0.2274
16148SOL     OW54279   4.605  10.634  10.087  0.2702 -0.2915 -0.0889
16148SOL    HW154280   4.513  10.663  10.092  0.5606  0.5841  0.5552
16148SOL    HW254281   4.638  10.645  10.176  1.2501  0.2687 -0.5030
16149SOL     OW54282   4.128   9.279   9.969  0.2811 -0.1670 -0.0902
16149SOL    HW154283   4.202   9.221   9.953  3.3568  3.3195  0.2030
16149SOL    HW254284   4.101   9.260  10.059  0.6083 -1.6528 -0.2783
16150SOL     OW54285   2.185   3.282   5.292 -0.3525 -0.0905 -0.4293
16150SOL    HW154286   2.100   3.268   5.251  0.3274 -1.3832 -1.5145
16150SOL    HW254287   2.174   3.254   5.382 -1.0328 -0.3966 -0.6036
16151SOL     OW54288   9.422   1.425   5.618 -0.4373  1.0953  0.4651
16151SOL    HW154289   9.480   1.466   5.684 -1.4935  1.1989  1.3596
16151SOL    HW254290   9.377   1.356   5.666  0.4794 -0.4192 -0.7524
16152SOL     OW54291   6.485   5.989   6.475 -0.9880 -0.7742 -0.2026
16152SOL    HW154292   6.443   5.921   6.423  0.7331 -0.7417 -1.7187
16152SOL    HW254293   6.533   6.043   6.412  1.6374 -1.0371  1.3844
16153SOL     OW54294   1.576   9.321   0.501  0.1576 -0.4733  0.6709
16153SOL    HW154295   1.571   9.229   0.525  0.3049 -0.9885 -1.1397
16153SOL    HW254296   1.669   9.341   0.498  0.2949 -1.1439 -1.8461
16154SOL     OW54297   8.961   5.941   9.659  0.1663 -0.4998  0.2025
16154SOL    HW154298   8.896   5.871   9.655 -1.0338  0.5825  0.3423
16154SOL    HW254299   8.978   5.953   9.753 -0.9624  0.5752  0.2886
16155SOL     OW54300   7.416   7.052   5.715  0.2887  0.0663 -0.2572
16155SOL    HW154301   7.497   7.002   5.721  0.4496  0.3183 -0.3074
16155SOL    HW254302   7.436   7.124   5.655 -1.0575 -1.9282 -3.3576
16156SOL     OW54303   4.478   7.301   8.408 -0.1680 -0.2919 -0.1404
16156SOL    HW154304   4.486   7.211   8.439  0.4146  0.1900  1.1948
16156SOL    HW254305   4.494   7.355   8.485 -0.9357  0.9676 -0.8155
16157SOL     OW54306  10.137  10.175   9.210  0.9112 -0.7212 -0.2518
16157SOL    HW154307  10.202  10.231   9.253 -0.1957  2.1173 -2.0142
16157SOL    HW254308  10.188  10.103   9.173  2.5300 -0.4743  1.3334
16158SOL     OW54309   2.113   0.354   2.200  0.3586 -0.0618 -0.7538
16158SOL    HW154310   2.097   0.369   2.107  0.0895  0.0689 -0.6863
16158SOL    HW254311   2.190   0.296   2.202  2.6423  2.7073 -1.0228
16159SOL     OW54312   8.970   7.191   4.600  0.8365 -0.1059  0.2998
16159SOL    HW154313   8.991   7.284   4.606 -2.0990  0.7275 -0.7315
16159SOL    HW254314   9.033   7.148   4.659  1.4233  2.6387  1.8203
16160SOL     OW54315   8.349   8.020   8.354  0.2145  0.3577 -0.3771
16160SOL    HW154316   8.363   8.102   8.307  0.4843 -0.7321 -2.3055
16160SOL    HW254317   8.352   7.952   8.286  0.9393 -1.3607  1.2689
16161SOL     OW54318   6.415   3.288   8.250 -0.0157 -0.1219  0.3231
16161SOL    HW154319   6.320   3.292   8.251 -0.5367  0.7505 -6.2235
16161SOL    HW254320   6.443   3.379   8.244  0.9629 -0.4299 -0.1383
16162SOL     OW54321   6.645   5.115  10.228  0.1660  0.2295 -0.4171
16162SOL    HW154322   6.696   5.039  10.257 -0.2933  0.2231  0.4096
16162SOL    HW254323   6.601   5.086  10.148  1.6241  0.3115 -1.2904
16163SOL     OW54324   3.272   4.791   7.440 -0.9086 -0.0377  0.9642
16163SOL    HW154325   3.242   4.880   7.458  0.6721  1.1511 -1.6133
16163SOL    HW254326   3.235   4.771   7.354  3.0622  0.4580 -1.0954
16164SOL     OW54327   4.894   9.191   0.641  0.1246  0.6697  0.4350
16164SOL    HW154328   4.971   9.144   0.610 -0.1073  1.5131 -1.5329
16164SOL    HW254329   4.827   9.122   0.651  0.3779  0.2824 -0.4217
16165SOL     OW54330   4.652   3.924   8.959  0.3930  0.0056 -0.2782
16165SOL    HW154331   4.611   3.875   9.031 -0.2280  0.1349 -0.5418
16165SOL    HW254332   4.614   3.887   8.880  2.0571 -1.0629 -0.6404
16166SOL     OW54333   3.307   0.420   0.335  0.2176 -0.3878 -0.1040
16166SOL    HW154334   3.335   0.363   0.263  1.5100 -0.6530  0.5975
16166SOL    HW254335   3.352   0.386   0.412 -0.9388  0.0674  0.7977
16167SOL     OW54336   6.088   9.017   9.048  0.2115 -0.1846  0.2359
16167SOL    HW154337   6.047   8.971   9.121  1.1667 -0.0916  0.8385
16167SOL    HW254338   6.172   8.974   9.036  0.4791  0.4370 -0.1719
16168SOL     OW54339   7.723   7.271   6.500 -0.5335  0.0835 -0.2561
16168SOL    HW154340   7.742   7.294   6.409 -0.8999  0.5147 -0.2289
16168SOL    HW254341   7.700   7.178   6.496  0.4746 -0.1727 -0.4421
16169SOL     OW54342   1.782   3.170  10.885  0.0822 -0.6078 -0.0259
16169SOL    HW154343   1.801   3.259  10.855 -1.3312 -1.0019 -2.3407
16169SOL    HW254344   1.852   3.116  10.848 -0.7570 -0.8539 -1.3330
16170SOL     OW54345  10.850   8.654   3.939 -0.2508  0.2008  0.4670
16170SOL    HW154346  10.892   8.718   3.883 -1.1262  0.2561 -0.1512
16170SOL    HW254347  10.906   8.648   4.016  1.0007  0.0862 -0.4261
16171SOL     OW54348   9.267  10.644   3.754  0.3282 -0.6325  0.3090
16171SOL    HW154349   9.319  10.584   3.701 -0.0942 -0.7586  0.0296
16171SOL    HW254350   9.299  10.631   3.844  1.2835 -0.1692  0.0499
16172SOL     OW54351   4.522   6.075   1.976 -0.3229 -0.0104 -0.4166
16172SOL    HW154352   4.571   6.142   2.023 -1.3683 -0.2882  1.1606
16172SOL    HW254353   4.554   6.079   1.886  1.9748  0.3467  0.3693
16173SOL     OW54354   8.076   9.328   6.819 -0.2153  0.0532 -0.1044
16173SOL    HW154355   8.017   9.275   6.766  0.2883 -0.2928 -0.3222
16173SOL    HW254356   8.094   9.275   6.896 -0.8172  0.4890  0.3509
16174SOL     OW54357   4.897   9.597   7.104  0.3353 -0.0743  0.5870
16174SOL    HW154358   4.923   9.639   7.187  2.4575  1.3617 -0.7082
16174SOL    HW254359   4.874   9.670   7.047  0.5963 -0.9183 -0.6291
16175SOL     OW54360   9.729   5.341   8.572  0.0185 -0.0956 -0.3722
16175SOL    HW154361   9.804   5.390   8.603 -0.6780  0.4858  0.4506
16175SOL    HW254362   9.726   5.358   8.477 -0.5180  1.9043 -0.0340
16176SOL     OW54363   1.560   5.726   8.776 -0.0731  0.0999 -0.4759
16176SOL    HW154364   1.582   5.818   8.788  2.4428 -0.6081  1.2290
16176SOL    HW254365   1.642   5.685   8.749 -0.5979 -1.9081  0.7403
16177SOL     OW54366   2.210   4.974   7.598  0.2409 -0.4998 -0.0800
16177SOL    HW154367   2.128   4.946   7.639  0.1287 -0.5271 -0.3199
16177SOL    HW254368   2.230   5.058   7.640 -0.3274 -0.1116 -0.5712
16178SOL     OW54369   8.708   5.538   3.048  0.4230 -0.0991  0.1950
16178SOL    HW154370   8.795   5.536   3.010 -0.1333  0.3058 -1.1540
16178SOL    HW254371   8.710   5.613   3.108  0.9537 -0.0142  0.0738
16179SOL     OW54372   1.479   0.326   1.063 -0.0356  0.0488 -0.1124
16179SOL    HW154373   1.555   0.333   1.006  0.3942 -0.8631  0.3254
16179SOL    HW254374   1.414   0.278   1.012  0.1316 -0.2410 -0.0554
16180SOL     OW54375   0.454   5.110   6.248 -0.3271 -0.2585  0.3012
16180SOL    HW154376   0.436   5.028   6.201  1.8738  0.2358 -1.5620
16180SOL    HW254377   0.459   5.084   6.340  1.3035 -2.4473 -0.3287
16181SOL     OW54378   3.250   4.167   2.117  0.1180 -0.7750  0.0512
16181SOL    HW154379   3.241   4.132   2.028 -2.3690  0.1444 -0.1459
16181SOL    HW254380   3.188   4.240   2.120 -1.5102 -2.1045  3.1822
16182SOL     OW54381   5.613   5.875   9.199  0.0444 -0.0710 -0.0048
16182SOL    HW154382   5.567   5.802   9.240  0.4936 -0.4546 -0.1738
16182SOL    HW254383   5.662   5.835   9.127  0.4212  0.3712  0.0005
16183SOL     OW54384   9.360   1.685   9.811 -0.3461  0.3909  0.1002
16183SOL    HW154385   9.377   1.757   9.872 -0.0770 -0.3174  0.8680
16183SOL    HW254386   9.264   1.680   9.806 -0.3854  1.5190 -0.8354
16184SOL     OW54387   2.739   6.601   5.415 -0.3459  0.0174  0.2690
16184SOL    HW154388   2.778   6.581   5.500  1.2510  0.0531 -0.4339
16184SOL    HW254389   2.696   6.520   5.389 -0.4139 -0.1474  0.8795
16185SOL     OW54390   4.123   7.924   0.902 -0.2671  0.2991 -0.0600
16185SOL    HW154391   4.157   7.923   0.812 -2.0849  2.1977 -0.8512
16185SOL    HW254392   4.112   7.832   0.924 -1.4781 -0.2316 -2.5189
16186SOL     OW54393   3.555   7.232   5.386  0.4468 -0.3090 -0.1402
16186SOL    HW154394   3.628   7.243   5.448  1.2410 -0.0333 -1.1054
16186SOL    HW254395   3.498   7.307   5.403  0.3900 -0.5084  0.5978
16187SOL     OW54396   6.411   1.970   8.925  0.9017 -0.0990 -0.0109
16187SOL    HW154397   6.503   1.951   8.945  0.9753  0.5504  0.2718
16187SOL    HW254398   6.410   1.981   8.830  0.8916 -1.2920 -0.1702
16188SOL     OW54399   4.444   1.353   3.719  0.0363  0.9332  0.4172
16188SOL    HW154400   4.470   1.263   3.697 -3.0119  0.4157 -1.7269
16188SOL    HW254401   4.516   1.407   3.688 -0.0713 -0.5129 -2.7196
16189SOL     OW54402   8.176   6.807   6.689  0.6967 -0.3793 -0.3624
16189SOL    HW154403   8.208   6.733   6.741  1.3489 -0.4602 -0.8677
16189SOL    HW254404   8.101   6.772   6.642  0.4160 -0.4491  0.1252
16190SOL     OW54405   1.390   1.746   7.979  0.0226 -0.1220 -0.0017
16190SOL    HW154406   1.428   1.789   7.902  0.7205  0.1027  0.4599
16190SOL    HW254407   1.459   1.685   8.008 -0.6450 -0.9860 -0.1802
16191SOL     OW54408   1.176  10.272   2.135 -0.2792 -0.1935  0.1494
16191SOL    HW154409   1.180  10.342   2.199  1.1420  0.4625 -0.6087
16191SOL    HW254410   1.253  10.286   2.079  0.3174 -2.6103  0.2439
16192SOL     OW54411   5.017  10.553   3.409  0.2584  0.7202  0.6227
16192SOL    HW154412   5.100  10.518   3.440  0.1093 -0.3640 -0.1332
16192SOL    HW254413   5.032  10.647   3.398  1.7432  0.3728 -0.6137
16193SOL     OW54414   9.757   4.411   6.562  0.1215 -0.2790  0.0141
16193SOL    HW154415   9.736   4.496   6.600 -0.4614 -0.5309  0.2813
16193SOL    HW254416   9.739   4.421   6.469 -1.8292 -0.6397  0.3009
16194SOL     OW54417   5.171   2.973   9.914 -0.0179  0.2975 -0.1883
16194SOL    HW154418   5.122   3.049   9.881 -2.1095 -0.7326  0.3369
16194SOL    HW254419   5.140   2.961  10.004  1.7175 -0.0566  0.4002
16195SOL     OW54420   1.840   8.997   6.082  0.2350  0.1097  0.8604
16195SOL    HW154421   1.837   9.080   6.130  3.3963  1.1829 -0.5308
16195SOL    HW254422   1.839   9.021   5.990 -0.7289 -1.5769  0.3750
16196SOL     OW54423   6.726   7.614   0.676  0.0933  0.1303  0.2431
16196SOL    HW154424   6.761   7.691   0.721 -0.4190  0.6227 -0.1914
16196SOL    HW254425   6.641   7.642   0.642 -1.1498 -1.2684  1.9538
16197SOL     OW54426   2.777   5.763   1.732 -0.1500  0.3467 -0.4684
16197SOL    HW154427   2.808   5.756   1.822 -0.4090  1.0136 -0.3232
16197SOL    HW254428   2.853   5.738   1.678 -0.5861 -2.1572 -0.0579
16198SOL     OW54429   2.162   6.238   0.462  0.1436  0.7756 -0.3170
16198SOL    HW154430   2.236   6.263   0.518  0.0538  0.2173  0.0590
16198SOL    HW254431   2.087   6.281   0.503 -0.1380 -0.6673  0.7830
16199SOL     OW54432   4.123   2.212   2.229 -0.2006  0.5233  0.1288
16199SOL    HW154433   4.213   2.202   2.200 -0.1054 -0.5580  0.7255
16199SOL    HW254434   4.070   2.195   2.152  0.0745 -1.0675  0.2574
16200SOL     OW54435   6.573   6.268  10.674  0.0089 -0.3775 -0.3342
16200SOL    HW154436   6.658   6.305  10.652  0.0317 -0.3604 -0.2148
16200SOL    HW254437   6.538   6.236  10.590 -1.1760  2.3166 -0.9669
16201SOL     OW54438   8.839   5.109   6.912  0.2234  0.0316 -0.2868
16201SOL    HW154439   8.898   5.118   6.987  0.9342  0.6080 -0.9052
16201SOL    HW254440   8.810   5.018   6.915 -0.1665  0.1829  0.9830
16202SOL     OW54441   8.839   2.398   1.691  0.2789  0.8973  0.3287
16202SOL    HW154442   8.763   2.430   1.740  0.1026  0.3849  0.3963
16202SOL    HW254443   8.850   2.307   1.719  1.1412  1.0752  0.5769
16203SOL     OW54444   5.344   8.919  10.169  0.4672  0.4227  0.1251
16203SOL    HW154445   5.353   9.014  10.157 -0.6404  0.4633 -0.4255
16203SOL    HW254446   5.399   8.881  10.100 -2.4470  0.6811 -2.5290
16204SOL     OW54447   3.399   0.877   2.865 -0.5296 -0.6301  0.0262
16204SOL    HW154448   3.370   0.843   2.950 -0.7501 -0.8655 -0.1437
16204SOL    HW254449   3.494   0.880   2.872 -0.5896  0.3974  0.6823
16205SOL     OW54450  10.684   7.395   1.147  0.6880 -0.9334 -0.0848
16205SOL    HW154451  10.772   7.416   1.178 -0.5096  0.8485  2.5117
16205SOL    HW254452  10.673   7.302   1.167  2.1863 -1.4055 -1.2116
16206SOL     OW54453   0.170   9.478   9.847  0.2618 -0.1961  0.7445
16206SOL    HW154454   0.194   9.391   9.814  1.2505  0.9174 -1.7264
16206SOL    HW254455   0.075   9.476   9.852 -0.0278 -0.4552 -2.5903
16207SOL     OW54456   4.021   8.129   7.885 -0.3266  0.0519  0.0157
16207SOL    HW154457   4.072   8.055   7.853  0.7342  0.3405  0.9599
16207SOL    HW254458   3.942   8.090   7.921  0.1435 -0.6075  0.3519
16208SOL     OW54459   9.769   3.908  10.213  0.1008  0.6895 -0.5796
16208SOL    HW154460   9.813   3.879  10.133 -0.8301 -0.0585 -0.8453
16208SOL    HW254461   9.766   3.829  10.268 -3.0195  0.0163 -1.5519
16209SOL     OW54462   6.139   8.210  10.175 -0.1987  0.4271 -0.2898
16209SOL    HW154463   6.170   8.219  10.265 -0.5367  0.8083 -0.2103
16209SOL    HW254464   6.219   8.211  10.122 -0.0137  0.4373 -0.0128
16210SOL     OW54465   0.898   4.369   3.041 -0.5582 -0.3474  0.4070
16210SOL    HW154466   0.982   4.385   2.997 -0.9006 -0.1942 -0.2081
16210SOL    HW254467   0.832   4.390   2.975 -1.0671 -1.7537  0.4411
16211SOL     OW54468   9.481   2.543   5.070  0.5297 -0.1551 -0.2177
16211SOL    HW154469   9.471   2.617   5.129  2.3187 -0.0418  0.0079
16211SOL    HW254470   9.398   2.539   5.022 -0.1165  1.1184  0.7281
16212SOL     OW54471   2.585   0.155   0.044  0.2642 -0.0071 -0.1500
16212SOL    HW154472   2.492   0.177   0.039  0.2980 -0.1621 -2.8834
16212SOL    HW254473   2.586   0.061   0.063 -0.0819  0.1827  0.8790
16213SOL     OW54474   9.753   9.449   0.253 -0.2503  0.4082  0.4604
16213SOL    HW154475   9.767   9.362   0.216 -0.3894  0.5425  0.0864
16213SOL    HW254476   9.677   9.438   0.311 -0.1351  0.2334  0.5793
16214SOL     OW54477   1.034   9.759   9.539  0.2389 -0.4413  0.3494
16214SOL    HW154478   1.003   9.672   9.517  1.3244 -0.8979  0.5767
16214SOL    HW254479   1.127   9.748   9.560 -0.1357  0.3201  2.8080
16215SOL     OW54480   0.213   2.194   6.017 -0.3906  0.1583 -0.6224
16215SOL    HW154481   0.224   2.260   5.949  0.4595  2.3707  1.5342
16215SOL    HW254482   0.285   2.210   6.078 -1.5481 -1.1985  1.2075
16216SOL     OW54483   4.213   8.901   1.323  0.5290  0.6895  0.1130
16216SOL    HW154484   4.271   8.878   1.251 -0.0943 -2.5284  0.4528
16216SOL    HW254485   4.127   8.909   1.283  0.0465 -1.8486  0.4510
16217SOL     OW54486   6.489   9.528   8.064 -0.2792  0.1064 -0.2172
16217SOL    HW154487   6.545   9.547   7.988  0.0792 -2.5615 -0.7231
16217SOL    HW254488   6.482   9.432   8.065 -2.0564  0.1835  1.8742
16218SOL     OW54489   2.582   5.641   7.503  0.3233 -0.1563 -0.4810
16218SOL    HW154490   2.631   5.613   7.425  2.1916  0.4844  0.3991
16218SOL    HW254491   2.500   5.676   7.468  0.0386 -2.0840 -1.9600
16219SOL     OW54492   0.065   2.364   2.053  0.7787  0.6209 -0.8535
16219SOL    HW154493   0.133   2.300   2.030  0.5337 -0.6361  1.5910
16219SOL    HW254494   0.110   2.427   2.109  0.0784  0.0188  0.4336
16220SOL     OW54495   1.566   2.690   5.676 -0.0199  0.3987 -0.6610
16220SOL    HW154496   1.636   2.669   5.739  1.5433 -0.4716 -2.5879
16220SOL    HW254497   1.570   2.785   5.667  0.4007  0.4348 -0.1802
16221SOL     OW54498   1.513   6.763   1.496  0.0303  0.0549  0.2576
16221SOL    HW154499   1.572   6.822   1.449 -0.7624  1.4428  0.9279
16221SOL    HW254500   1.537   6.774   1.588  0.7076 -1.6490  0.3059
16222SOL     OW54501   6.825   0.636   4.350 -0.0606  0.2114  0.2496
16222SOL    HW154502   6.843   0.729   4.367 -1.2428  0.0044  3.1921
16222SOL    HW254503   6.890   0.611   4.284 -1.3802  3.6977 -2.7324
16223SOL     OW54504   7.988   1.111   7.249 -0.0859 -0.1907 -0.0205
16223SOL    HW154505   7.999   1.095   7.343  0.4275  0.8786  0.1209
16223SOL    HW254506   8.062   1.168   7.226 -1.2541  1.1349 -0.6519
16224SOL     OW54507  10.915   1.286   8.562 -0.0504 -0.2652  0.8886
16224SOL    HW154508  10.925   1.208   8.508 -1.3873 -0.4865  0.9221
16224SOL    HW254509  10.935   1.359   8.504  1.0683 -0.6124  0.8182
16225SOL     OW54510   3.860   3.140   9.356  0.5255  0.1694  0.0018
16225SOL    HW154511   3.787   3.179   9.308  1.3649  1.9903  0.1310
16225SOL    HW254512   3.852   3.174   9.445  0.8432 -0.5934  0.3333
16226SOL     OW54513   8.558   7.399   2.352 -0.1151  0.1927  0.0938
16226SOL    HW154514   8.556   7.398   2.448  1.1847 -0.8524  0.1373
16226SOL    HW254515   8.632   7.455   2.329 -0.2088  0.1655 -0.2892
16227SOL     OW54516   9.250   3.474   5.761  0.4876 -0.6538 -0.5446
16227SOL    HW154517   9.266   3.381   5.750 -2.4793 -1.4022  0.4326
16227SOL    HW254518   9.251   3.488   5.855  0.0316  0.1181 -0.6432
16228SOL     OW54519   1.279  10.385   9.164  0.1993 -0.5039 -0.5713
16228SOL    HW154520   1.189  10.361   9.186 -0.0684 -0.5997 -1.6931
16228SOL    HW254521   1.277  10.401   9.069  0.3465  3.9564 -0.0404
16229SOL     OW54522   3.527   0.225   8.922  0.4637 -0.7161 -0.4470
16229SOL    HW154523   3.456   0.278   8.958  2.0976 -0.5552  2.8842
16229SOL    HW254524   3.485   0.171   8.855 -2.4889  0.3868  0.3603
16230SOL     OW54525   2.471   0.873   8.267  0.6652 -0.0394  0.5434
16230SOL    HW154526   2.438   0.960   8.290 -0.0537 -0.1732  0.0247
16230SOL    HW254527   2.450   0.819   8.342 -0.5225 -0.1756  0.1357
16231SOL     OW54528   4.210   3.225   5.978  0.7923 -0.2368  0.9688
16231SOL    HW154529   4.195   3.142   6.025  0.8755 -0.1863  1.0876
16231SOL    HW254530   4.184   3.207   5.888 -1.2729  0.2481  1.4280
16232SOL     OW54531   0.348   3.874   0.586  0.6287 -0.1233  0.0956
16232SOL    HW154532   0.442   3.869   0.598  0.7861  1.6827 -0.0926
16232SOL    HW254533   0.313   3.796   0.630  2.1270 -0.3601  0.9160
16233SOL     OW54534   2.929   8.235   0.044 -0.0574  0.2043  0.2045
16233SOL    HW154535   3.001   8.255  -0.016 -1.1201  1.4420 -0.7285
16233SOL    HW254536   2.972   8.216   0.127  1.4567 -1.5683 -0.9166
16234SOL     OW54537   4.531   8.706   2.053 -0.3063  0.1984  0.0165
16234SOL    HW154538   4.608   8.693   2.108 -0.1668  0.7660 -0.0466
16234SOL    HW254539   4.518   8.801   2.049 -0.9731  0.1159 -0.0226
16235SOL     OW54540   5.481   0.365   6.483 -0.7904 -0.3027 -0.0970
16235SOL    HW154541   5.400   0.328   6.447 -0.7015  1.3415 -2.0921
16235SOL    HW254542   5.551   0.309   6.449 -1.0076 -1.5631  1.4130
16236SOL     OW54543   5.810   4.216   1.371 -0.0990  0.4021 -0.4457
16236SOL    HW154544   5.767   4.271   1.436  1.6049  2.2251 -0.7639
16236SOL    HW254545   5.865   4.157   1.422 -0.5785  0.1991 -0.1606
16237SOL     OW54546   0.268   5.372   7.809 -0.4587 -0.5868 -0.1964
16237SOL    HW154547   0.215   5.441   7.768  0.3182  0.6377  0.7832
16237SOL    HW254548   0.319   5.335   7.736 -1.6383 -0.8683 -0.9139
16238SOL     OW54549   7.695   3.052   9.073 -0.1324 -0.2380  0.7079
16238SOL    HW154550   7.691   2.976   9.132 -1.4528  0.8210  2.0690
16238SOL    HW254551   7.770   3.102   9.103  0.7275 -0.9618 -0.1779
16239SOL     OW54552   6.875   5.030   6.883 -0.3193 -0.2546 -0.1021
16239SOL    HW154553   6.841   4.943   6.906  0.2222 -1.1076 -2.2705
16239SOL    HW254554   6.801   5.075   6.842 -0.4193  0.0600  0.4232
16240SOL     OW54555   2.939   4.059   8.404 -0.1527  0.6646  0.2077
16240SOL    HW154556   2.870   4.014   8.354 -3.0450  0.3385  4.0368
16240SOL    HW254557   2.915   4.151   8.400  1.8860  1.1948 -2.0191
16241SOL     OW54558   9.762   1.723   3.600  0.7522  0.1958  0.5040
16241SOL    HW154559   9.819   1.695   3.528  0.4538 -1.5250  0.8807
16241SOL    HW254560   9.817   1.715   3.678  0.1429 -1.2137  0.8374
16242SOL     OW54561   2.843   4.150   1.619  0.0946 -0.2791  0.6688
16242SOL    HW154562   2.781   4.099   1.566  0.2005 -1.1466  1.3626
16242SOL    HW254563   2.928   4.108   1.604  0.2720  0.0175  0.8363
16243SOL     OW54564   6.825   5.697  10.755 -0.0262 -0.4797 -0.4271
16243SOL    HW154565   6.739   5.655  10.763 -1.0740  1.6644  0.4845
16243SOL    HW254566   6.855   5.708  10.845  0.7860 -0.3905 -0.7004
16244SOL     OW54567   0.656  10.850   5.572  0.6789  0.3416  0.0810
16244SOL    HW154568   0.610  10.772   5.604 -1.0982  1.5651  0.6670
16244SOL    HW254569   0.721  10.816   5.511 -0.8913 -1.5264 -0.6635
16245SOL     OW54570   3.649   3.828   0.286  0.3981  0.2027  0.0659
16245SOL    HW154571   3.584   3.758   0.292  2.2542 -1.5839  0.7188
16245SOL    HW254572   3.634   3.881   0.365  0.7414 -1.1620  1.0911
16246SOL     OW54573   1.571   7.527   8.088 -0.1360  0.5214  0.0606
16246SOL    HW154574   1.556   7.604   8.143 -1.3890  0.4826 -0.2098
16246SOL    HW254575   1.495   7.523   8.030 -0.5814 -1.4744  0.7007
16247SOL     OW54576   5.075   3.964   9.900 -0.5764  0.4849  0.4141
16247SOL    HW154577   5.112   4.036   9.952 -1.2925  2.1751 -1.3008
16247SOL    HW254578   5.150   3.907   9.881  0.0951  0.9932  1.4525
16248SOL     OW54579   0.571   9.055   6.966 -0.0786 -0.4177 -0.0811
16248SOL    HW154580   0.621   8.993   6.913  0.5635  0.0619 -0.0533
16248SOL    HW254581   0.627   9.133   6.971 -0.2828 -0.3207  1.0075
16249SOL     OW54582  10.842   8.437   4.222 -0.6798  0.0635 -0.1542
16249SOL    HW154583  10.888   8.510   4.262 -0.0201 -0.9123  0.9493
16249SOL    HW254584  10.876   8.433   4.132 -0.6231  1.0032 -0.1806
16250SOL     OW54585   2.311   5.536   6.574  0.3393  0.3178  0.0664
16250SOL    HW154586   2.341   5.507   6.659  1.1353  1.5236  0.2212
16250SOL    HW254587   2.261   5.616   6.592 -1.1836 -0.4779 -0.4126
16251SOL     OW54588   8.521   0.178   2.570  0.3725 -0.1439  0.3613
16251SOL    HW154589   8.550   0.090   2.593  1.2298  0.2755  0.9243
16251SOL    HW254590   8.587   0.236   2.608  0.4905  0.6902 -1.0610
16252SOL     OW54591   7.966   4.693   2.045  0.6353 -0.0396 -0.0275
16252SOL    HW154592   7.889   4.688   2.101 -0.1169  0.1419 -1.0239
16252SOL    HW254593   7.931   4.709   1.957  1.7973 -0.1336 -0.5228
16253SOL     OW54594   5.797   9.391   1.301 -0.4296 -0.0929 -0.1458
16253SOL    HW154595   5.842   9.393   1.386 -1.2530  1.1442  0.3016
16253SOL    HW254596   5.857   9.434   1.241 -0.4101  0.2702  0.1301
16254SOL     OW54597   1.788   9.232   3.815  0.1780 -0.3464  1.0725
16254SOL    HW154598   1.760   9.149   3.776  1.4603 -0.9065  1.2604
16254SOL    HW254599   1.843   9.205   3.889  2.2997  0.6170 -0.0586
16255SOL     OW54600   4.087   2.685   6.458 -0.9193 -0.0693 -0.2005
16255SOL    HW154601   4.136   2.670   6.540 -0.4838 -2.8321 -0.8504
16255SOL    HW254602   4.125   2.764   6.421 -1.8172  1.8729  2.7005
16256SOL     OW54603   1.073   2.123   4.835  0.4365  0.1637 -0.2450
16256SOL    HW154604   0.983   2.151   4.820 -0.1571 -0.8230  1.2557
16256SOL    HW254605   1.119   2.147   4.755 -1.6397 -1.3934 -2.0179
16257SOL     OW54606  10.719   5.316   9.585 -0.0416  0.6593  0.0907
16257SOL    HW154607  10.733   5.386   9.649  1.7473  1.1277 -0.7761
16257SOL    HW254608  10.724   5.235   9.636 -2.6978  1.0715  1.2083
16258SOL     OW54609   7.911   0.542   2.972  0.1816 -0.6013  0.2218
16258SOL    HW154610   7.837   0.541   2.911  1.1853 -0.0988 -1.0556
16258SOL    HW254611   7.926   0.449   2.992 -2.1424 -0.6529  2.2962
16259SOL     OW54612   8.182   5.728   2.180 -0.1858 -0.1725  0.3911
16259SOL    HW154613   8.154   5.783   2.253  1.9831 -0.9848  1.9496
16259SOL    HW254614   8.273   5.754   2.164 -0.0995 -1.1705 -0.9160
16260SOL     OW54615   4.764   1.375   6.565  0.3723  0.1757 -0.1222
16260SOL    HW154616   4.735   1.464   6.587 -0.9232 -0.3225  0.3264
16260SOL    HW254617   4.732   1.321   6.638  1.0864 -0.6709 -0.4148
16261SOL     OW54618   5.228   2.927   1.222  0.5570 -0.3298  0.4771
16261SOL    HW154619   5.232   3.014   1.184  0.3941 -0.3086  0.5072
16261SOL    HW254620   5.317   2.893   1.215  0.5810 -0.2293  0.3034
16262SOL     OW54621   2.528   2.128   8.877 -0.1366  0.3076  0.2585
16262SOL    HW154622   2.549   2.168   8.961  1.6726  0.3841 -0.1866
16262SOL    HW254623   2.518   2.202   8.816  1.7368  0.1925 -0.2446
16263SOL     OW54624  10.893  10.701   5.306 -0.6826 -0.1304 -0.1568
16263SOL    HW154625  10.963  10.679   5.244 -0.3540  1.2591 -0.3055
16263SOL    HW254626  10.924  10.666   5.389 -0.6949 -1.1785 -0.5670
16264SOL     OW54627   8.692   5.888   7.436 -0.9733 -0.3359 -0.3164
16264SOL    HW154628   8.748   5.849   7.369 -2.1691  1.4021 -2.4492
16264SOL    HW254629   8.609   5.842   7.426 -0.8602 -0.7763  0.7117
16265SOL     OW54630   6.711   6.360   7.224  0.6723 -0.0805 -0.1289
16265SOL    HW154631   6.616   6.372   7.215  0.5669 -0.1261  0.8202
16265SOL    HW254632   6.720   6.273   7.264  1.1390 -0.2626 -0.6227
16266SOL     OW54633  10.272  10.889  10.420 -0.0810  0.4280 -0.1850
16266SOL    HW154634  10.333  10.837  10.473  0.4592  1.2018 -0.0276
16266SOL    HW254635  10.275  10.849  10.333 -2.4403 -2.1007  0.7455
16267SOL     OW54636  10.552   3.075   4.381 -0.2072 -0.3426  0.4981
16267SOL    HW154637  10.565   3.014   4.454  0.5962 -0.5384  0.1980
16267SOL    HW254638  10.558   3.020   4.302 -0.8529 -0.0983  0.2706
16268SOL     OW54639   1.965   5.623   2.902 -0.5019  0.1111 -0.1449
16268SOL    HW154640   1.992   5.694   2.845  0.5859  0.2039  0.4657
16268SOL    HW254641   2.004   5.544   2.863  0.7810  0.2569  0.7855
16269SOL     OW54642  10.698   7.397   8.457  0.2494  0.3310  1.0388
16269SOL    HW154643  10.609   7.371   8.433 -0.1996  3.2060 -0.7877
16269SOL    HW254644  10.688   7.440   8.542 -0.5970  2.7495 -0.2056
16270SOL     OW54645   5.736   9.175   2.755 -0.8895 -0.2049  0.0935
16270SOL    HW154646   5.791   9.119   2.810  0.5560  0.9881 -0.0445
16270SOL    HW254647   5.754   9.146   2.666  2.4253  2.3890 -0.2896
16271SOL     OW54648   2.914   7.857   7.723 -0.1573  0.0893 -0.5117
16271SOL    HW154649   2.942   7.913   7.651  1.9263 -1.2857 -0.8450
16271SOL    HW254650   2.852   7.796   7.683  1.4875 -1.0958 -1.3654
16272SOL     OW54651   3.880   5.450  10.096 -0.0987 -0.2072 -0.4058
16272SOL    HW154652   3.807   5.499  10.133 -0.7976 -0.4396 -1.4439
16272SOL    HW254653   3.951   5.514  10.089 -0.9357  0.6469 -1.5758
16273SOL     OW54654  10.430   5.686   2.856  0.6880  0.6330 -0.0290
16273SOL    HW154655  10.494   5.749   2.825  0.0140  0.8261 -1.1115
16273SOL    HW254656  10.386   5.656   2.776  0.0250 -0.1283  0.6037
16274SOL     OW54657   5.963   2.526  10.822 -0.1941 -0.1828  0.3671
16274SOL    HW154658   6.023   2.526  10.748 -0.0109  2.9295  0.3562
16274SOL    HW254659   5.941   2.434  10.836  1.3144 -1.0474 -2.2486
16275SOL     OW54660   1.592   2.383   5.651  0.1453 -0.0822 -0.3598
16275SOL    HW154661   1.578   2.403   5.744 -0.4927  0.8313 -0.6301
16275SOL    HW254662   1.507   2.352   5.620  0.1698  0.2657 -0.7899
16276SOL     OW54663   8.503   4.298   4.775 -0.4835  0.0452  0.2756
16276SOL    HW154664   8.488   4.245   4.697 -0.1714 -1.0472  0.9321
16276SOL    HW254665   8.424   4.350   4.785 -0.6275  0.0023 -0.6264
16277SOL     OW54666   1.124   2.947  10.380 -0.5693 -0.0843  0.0770
16277SOL    HW154667   1.032   2.924  10.389 -0.3627 -0.7321  0.6629
16277SOL    HW254668   1.146   2.988  10.464 -0.7517  1.6465 -0.6946
16278SOL     OW54669   5.087   4.051   8.156 -0.2778 -0.6458  0.4149
16278SOL    HW154670   5.138   3.978   8.192  0.7183 -0.5724 -0.7655
16278SOL    HW254671   5.120   4.061   8.067 -1.0493  0.6642  0.2521
16279SOL     OW54672   1.330   5.604   2.325 -0.0211 -0.5533 -0.0357
16279SOL    HW154673   1.383   5.585   2.402  1.3163 -1.0241 -1.0356
16279SOL    HW254674   1.283   5.684   2.348  0.1822 -0.7941  1.3373
16280SOL     OW54675   6.852   0.721   9.676  0.3359  0.1215 -0.2605
16280SOL    HW154676   6.822   0.633   9.699  0.4883 -0.3209 -1.6580
16280SOL    HW254677   6.944   0.709   9.652  0.9616  1.0255  1.4717
16281SOL     OW54678   5.798   4.207   4.542  0.1633 -0.7615  0.4130
16281SOL    HW154679   5.773   4.209   4.450  0.8579 -0.0979  0.2271
16281SOL    HW254680   5.839   4.292   4.558  0.7085 -1.1452  1.1431
16282SOL     OW54681   3.342   8.292   9.201  0.1594 -0.1996 -0.2420
16282SOL    HW154682   3.302   8.371   9.238  0.7953  0.0915 -0.1545
16282SOL    HW254683   3.421   8.278   9.254  0.3384 -0.5775 -0.6043
16283SOL     OW54684   6.700   5.937   6.051 -0.7981 -0.2418 -0.2839
16283SOL    HW154685   6.738   5.992   5.983 -0.9934  1.0141  0.5738
16283SOL    HW254686   6.707   5.848   6.018 -0.3144  0.2850 -1.6522
16284SOL     OW54687   9.318  10.755   7.181  0.0774  0.4521 -0.7001
16284SOL    HW154688   9.399  10.775   7.229  0.1435  1.1642 -1.0996
16284SOL    HW254689   9.345  10.687   7.119  0.0267 -0.3651  0.1493
16285SOL     OW54690  10.871  10.245   8.552  0.6796  0.3509  0.4090
16285SOL    HW154691  10.837  10.253   8.463  0.9083  2.6976  0.4773
16285SOL    HW254692  10.795  10.266   8.608  1.4033  2.7757  0.6161
16286SOL     OW54693   7.923   6.174   6.303 -0.4482 -0.0906 -0.3560
16286SOL    HW154694   7.887   6.161   6.216 -0.6600 -1.0927 -0.1328
16286SOL    HW254695   7.854   6.144   6.363 -0.5092  1.0650  0.1754
16287SOL     OW54696   7.584   8.467   1.970  0.3965  0.7432  0.4525
16287SOL    HW154697   7.589   8.529   1.897  1.2944 -0.1535 -0.2775
16287SOL    HW254698   7.590   8.522   2.048  2.0907  1.5287 -0.1786
16288SOL     OW54699  10.782   2.594   3.171 -0.4667 -0.1566  0.3560
16288SOL    HW154700  10.833   2.624   3.097  0.0359 -2.0055 -0.1009
16288SOL    HW254701  10.709   2.545   3.132 -2.0219  1.5211  1.0238
16289SOL     OW54702   6.728   7.624   7.634 -1.1949  0.2318 -0.3637
16289SOL    HW154703   6.700   7.653   7.721 -1.2555 -0.1825 -0.2464
16289SOL    HW254704   6.821   7.647   7.630 -0.4847 -2.1323  0.8451
16290SOL     OW54705   7.155   7.979   6.528  0.1268 -0.2110  0.4838
16290SOL    HW154706   7.217   7.909   6.507 -0.8656 -0.8940 -0.2432
16290SOL    HW254707   7.070   7.936   6.530 -0.3158  0.6754  1.6965
16291SOL     OW54708   0.499   9.273   1.736  0.1754 -0.2351  0.0176
16291SOL    HW154709   0.591   9.281   1.760  0.1831 -1.8585  0.6907
16291SOL    HW254710   0.489   9.329   1.659  1.2583  1.4457  1.0459
16292SOL     OW54711   1.651   5.044   3.331  0.1013  0.0253  0.1169
16292SOL    HW154712   1.641   4.979   3.262  2.7217  0.2642 -0.5763
16292SOL    HW254713   1.592   5.115   3.305  0.8253 -0.0047 -1.7806
16293SOL     OW54714   6.750   7.236   6.948 -0.9523 -0.1698  0.6379
16293SOL    HW154715   6.674   7.224   7.006 -2.2906 -0.5551 -1.1284
16293SOL    HW254716   6.806   7.161   6.966 -0.4194  0.6337  2.7011
16294SOL     OW54717   8.996   1.800   7.159 -0.2194  0.0276 -0.2781
16294SOL    HW154718   9.016   1.837   7.073 -0.0549  0.9898  0.1664
16294SOL    HW254719   9.034   1.861   7.221  0.6845 -1.2386  0.4799
16295SOL     OW54720   2.944   5.114   6.087  0.0460 -0.2119  0.4251
16295SOL    HW154721   2.886   5.070   6.149 -0.6782 -0.0266 -0.1030
16295SOL    HW254722   2.914   5.085   6.001  2.0204 -1.6939  0.1634
16296SOL     OW54723   3.755   1.517   3.339 -0.3742 -0.0270  0.3435
16296SOL    HW154724   3.821   1.492   3.275  0.5467 -0.1035  1.2836
16296SOL    HW254725   3.708   1.436   3.359 -0.4305 -0.0719  0.0349
16297SOL     OW54726   3.407   2.914   5.603 -0.2113  0.1081  0.0285
16297SOL    HW154727   3.328   2.968   5.610 -0.7542 -0.7879  1.1883
16297SOL    HW254728   3.420   2.903   5.509 -1.8868 -0.2894 -0.1948
16298SOL     OW54729   2.017  10.386   3.551  0.1688 -0.1123  0.2700
16298SOL    HW154730   2.030  10.340   3.634  0.5066 -0.3328  0.0935
16298SOL    HW254731   2.094  10.441   3.542  1.7245 -2.3992 -1.4230
16299SOL     OW54732   7.563   6.357   7.269  0.8204 -0.4340 -0.6240
16299SOL    HW154733   7.535   6.267   7.252  0.1007 -0.1569 -0.9690
16299SOL    HW254734   7.483   6.409   7.258  1.6369  0.5054 -2.6364
16300SOL     OW54735   8.986   4.602   5.276  0.2849  0.2528 -0.3030
16300SOL    HW154736   8.899   4.583   5.242  0.0328 -1.1565  0.9992
16300SOL    HW254737   8.999   4.696   5.260 -0.9357  0.2141 -1.6465
16301SOL     OW54738   2.959   7.172   1.763 -0.1660  0.0437  0.2248
16301SOL    HW154739   2.946   7.082   1.793 -1.5472  0.0823 -0.1911
16301SOL    HW254740   2.889   7.187   1.700  0.4563  1.1947 -0.2315
16302SOL     OW54741   0.045   6.982   9.048  0.4824 -0.4145  0.2364
16302SOL    HW154742   0.137   6.958   9.034  0.7559 -0.2861  1.7117
16302SOL    HW254743   0.047   7.040   9.124 -0.4407  2.3750 -1.6822
16303SOL     OW54744   8.822   5.371   9.766 -0.4239 -0.3023  0.5699
16303SOL    HW154745   8.888   5.338   9.704  0.5630 -0.4550  1.6714
16303SOL    HW254746   8.764   5.297   9.781  0.8853 -1.1141  1.8446
16304SOL     OW54747   5.022   2.506   4.246  0.2352 -0.3173 -0.1737
16304SOL    HW154748   5.041   2.445   4.174  1.4733 -1.7704  1.2997
16304SOL    HW254749   4.934   2.538   4.227  0.7309 -0.1714 -2.6343
16305SOL     OW54750   6.456   7.661   6.390  0.5001 -0.4893 -0.6631
16305SOL    HW154751   6.386   7.597   6.381  0.6082 -0.5984 -0.7217
16305SOL    HW254752   6.444   7.721   6.316 -0.4641  0.3882  0.1665
16306SOL     OW54753  10.257   3.788   2.201  0.0546 -0.3044 -0.3428
16306SOL    HW154754  10.278   3.697   2.179 -0.8228 -0.6534  0.2046
16306SOL    HW254755  10.335   3.820   2.247  0.4198 -0.7403 -0.6485
16307SOL     OW54756   3.350   6.541   3.899  0.1720 -0.1785  1.0841
16307SOL    HW154757   3.412   6.479   3.862 -1.2010 -0.3589 -1.0620
16307SOL    HW254758   3.380   6.626   3.868 -0.6458 -0.2731 -0.0256
16308SOL     OW54759   1.852   9.460   9.048  0.9289 -0.0137 -0.3628
16308SOL    HW154760   1.759   9.481   9.045  0.9495 -0.0775 -1.6487
16308SOL    HW254761   1.860   9.398   9.121 -0.2972 -1.3102 -1.2886
16309SOL     OW54762   5.956   1.997   1.423 -0.4234 -0.0831 -0.7321
16309SOL    HW154763   5.956   2.017   1.330  1.5285  1.5297 -0.4666
16309SOL    HW254764   5.931   2.080   1.465 -1.0011 -0.7094  0.1954
16310SOL     OW54765   0.589   2.051   2.938  0.1156 -0.0395 -0.1095
16310SOL    HW154766   0.536   1.973   2.955 -0.6923  0.8274  1.6743
16310SOL    HW254767   0.528   2.124   2.948  1.4293  0.9478  1.1214
16311SOL     OW54768   7.177   4.810   2.647  0.1098 -0.0898  0.2605
16311SOL    HW154769   7.160   4.894   2.605 -0.2447 -1.5376 -2.7419
16311SOL    HW254770   7.273   4.805   2.652  0.1710  1.4339  2.8093
16312SOL     OW54771   3.589   3.589   1.991 -0.3123 -0.3970 -0.1008
16312SOL    HW154772   3.514   3.596   2.050  1.3469 -0.9909  2.2686
16312SOL    HW254773   3.551   3.582   1.904 -2.9062  2.0104  0.6830
16313SOL     OW54774  10.750   9.728   9.775  0.0302  0.1341  0.0558
16313SOL    HW154775  10.664   9.752   9.811  0.0939  0.1164  0.2196
16313SOL    HW254776  10.799   9.694   9.850 -0.5175 -1.8152 -0.3935
16314SOL     OW54777   4.642   8.581   4.252 -0.7002 -0.0745 -0.2336
16314SOL    HW154778   4.559   8.615   4.219 -0.0977  0.2788 -1.4337
16314SOL    HW254779   4.644   8.490   4.225 -0.7932 -0.1532  0.0144
16315SOL     OW54780   1.813  10.437   7.360 -0.1885 -0.5593  0.0807
16315SOL    HW154781   1.848  10.348   7.368  0.7975 -0.4384 -2.2159
16315SOL    HW254782   1.725  10.431   7.395 -0.4011 -2.6251 -0.6499
16316SOL     OW54783   7.129   6.976   8.289 -0.5472 -0.3759  0.3080
16316SOL    HW154784   7.097   6.921   8.361 -2.3449  0.6796  0.3892
16316SOL    HW254785   7.104   6.928   8.210  2.1043 -1.9127  0.2835
16317SOL     OW54786   6.850   6.184   3.478 -0.1604 -0.0469 -0.3031
16317SOL    HW154787   6.801   6.250   3.430 -1.7038 -0.3951  0.7383
16317SOL    HW254788   6.911   6.148   3.414  0.8616  2.4808 -0.8657
16318SOL     OW54789  10.176   7.957   1.685 -0.1674 -0.7218  0.5620
16318SOL    HW154790  10.126   8.036   1.705 -0.3291 -0.4313 -0.9070
16318SOL    HW254791  10.219   7.935   1.768 -1.6889 -0.2524  1.5206
16319SOL     OW54792   7.134   6.145   4.970  0.6484 -1.1138  0.1281
16319SOL    HW154793   7.092   6.082   5.029 -1.8667 -0.5371 -0.9137
16319SOL    HW254794   7.163   6.216   5.027 -0.9588 -0.9612  0.7892
16320SOL     OW54795   8.774   4.004   2.292 -0.3175 -0.1230  0.0557
16320SOL    HW154796   8.767   3.909   2.297 -0.6116 -0.2224 -1.5111
16320SOL    HW254797   8.856   4.025   2.335 -0.0032 -1.1470 -0.0247
16321SOL     OW54798   9.069   7.388   0.390 -0.5356  0.1749 -0.1554
16321SOL    HW154799   9.118   7.435   0.322  0.8887  0.6401  1.1557
16321SOL    HW254800   9.007   7.452   0.424 -0.2901  0.3659 -0.0654
16322SOL     OW54801   5.378   4.484  10.191 -0.4019  0.0294  0.1349
16322SOL    HW154802   5.392   4.577  10.173 -0.3078 -0.0011  0.0426
16322SOL    HW254803   5.372   4.477  10.286 -2.1334  0.3694  0.0893
16323SOL     OW54804   5.938   6.364   7.368 -1.0363  0.3354 -0.1255
16323SOL    HW154805   5.878   6.305   7.322 -1.0095  0.5149 -0.3931
16323SOL    HW254806   5.958   6.433   7.305 -0.1681  0.0247 -0.2061
16324SOL     OW54807   3.957   9.422   1.977 -0.1503  0.0516  0.1137
16324SOL    HW154808   3.937   9.386   1.891 -3.3597  0.8439  0.3926
16324SOL    HW254809   3.987   9.511   1.959 -1.9720  0.6506 -0.2454
16325SOL     OW54810   7.247   2.322   3.609  0.4134  0.0231  0.7365
16325SOL    HW154811   7.310   2.388   3.581 -0.3609  1.1706  1.6235
16325SOL    HW254812   7.196   2.302   3.530  0.3542  0.8294  0.5678
16326SOL     OW54813   0.930   5.272   7.348 -0.3875  0.3607  1.0953
16326SOL    HW154814   0.917   5.288   7.254  1.2695  0.6087  0.8800
16326SOL    HW254815   0.851   5.224   7.375 -1.1776  0.8266 -0.2769
16327SOL     OW54816   9.819   1.798   6.479 -0.0450 -0.9349 -0.0174
16327SOL    HW154817   9.767   1.718   6.483  0.0804 -0.9660  2.7395
16327SOL    HW254818   9.867   1.800   6.562 -1.7768  3.1315  1.1652
16328SOL     OW54819   0.582   2.159   0.053  0.0366 -0.1533 -0.2792
16328SOL    HW154820   0.555   2.217  -0.019 -0.7303 -0.3788 -0.1799
16328SOL    HW254821   0.515   2.092   0.057  0.7639 -0.8926 -0.1920
16329SOL     OW54822   9.105   6.013   1.406 -0.4324  0.4067 -0.1247
16329SOL    HW154823   9.026   6.034   1.456 -1.2608  0.0700 -1.2507
16329SOL    HW254824   9.141   5.936   1.448 -3.2705 -2.3153 -2.2444
16330SOL     OW54825   2.773   0.715   4.413  0.2299  0.1680  0.1673
16330SOL    HW154826   2.846   0.732   4.472 -0.6881 -0.1424  1.4393
16330SOL    HW254827   2.727   0.798   4.408 -1.9967 -0.7034  3.2185
16331SOL     OW54828   7.905   8.549   8.697  0.4396 -0.7927  0.1505
16331SOL    HW154829   7.992   8.546   8.659  0.2013 -0.1806 -0.4636
16331SOL    HW254830   7.847   8.516   8.629 -0.0691  0.9535 -0.3148
16332SOL     OW54831   5.100   7.071   1.985  0.6569 -0.4560 -1.0016
16332SOL    HW154832   5.058   7.152   1.957  0.6862  0.2319  0.8018
16332SOL    HW254833   5.059   7.051   2.070  5.0226  1.2607  1.8802
16333SOL     OW54834   6.030   4.041   1.941 -0.1075 -0.5498  0.1269
16333SOL    HW154835   6.118   4.073   1.921 -0.3931 -0.6368 -1.3876
16333SOL    HW254836   5.994   4.107   2.000  1.0485 -0.6468  0.9807
16334SOL     OW54837   7.018   8.207  10.918 -0.2576 -0.4862  0.2296
16334SOL    HW154838   7.111   8.227  10.913 -0.6150  1.0823 -0.6891
16334SOL    HW254839   6.979   8.282  10.962 -1.0401 -1.4125  1.1837
16335SOL     OW54840   7.150   5.730   4.932 -0.3051 -0.2700 -0.2687
16335SOL    HW154841   7.187   5.667   4.871  0.1528 -0.3479  0.0757
16335SOL    HW254842   7.225   5.783   4.960 -0.6724  0.3942 -0.5113
16336SOL     OW54843   8.647   9.782   9.890 -0.4725 -0.2583  0.0949
16336SOL    HW154844   8.580   9.725   9.852  0.5882 -0.7239 -1.1130
16336SOL    HW254845   8.730   9.747   9.859  0.2905  0.9846  0.6489
16337SOL     OW54846   4.893   1.599   3.354 -0.0263  0.2857  0.3773
16337SOL    HW154847   4.819   1.556   3.312  1.2055  0.6619 -2.3803
16337SOL    HW254848   4.934   1.529   3.406 -0.8659 -0.5853 -0.0970
16338SOL     OW54849   8.480   7.946   6.658 -0.2665  0.1399 -0.6331
16338SOL    HW154850   8.416   7.874   6.654 -2.4476  1.9714 -0.7162
16338SOL    HW254851   8.436   8.015   6.706  2.3714  0.9180  0.8616
16339SOL     OW54852   6.696   9.704   2.876  0.1267  0.2265  0.0464
16339SOL    HW154853   6.628   9.645   2.909  0.2280 -0.1102 -0.3444
16339SOL    HW254854   6.703   9.684   2.783  1.6042 -0.5913  0.3073
16340SOL     OW54855   3.038  10.203   4.448 -0.2161  0.5673 -0.7860
16340SOL    HW154856   3.091  10.147   4.504 -0.9303  3.1194  2.8167
16340SOL    HW254857   2.959  10.221   4.500 -1.7083  1.9424 -3.3129
16341SOL     OW54858   0.972   9.815   5.949  0.0110  0.0318 -0.0291
16341SOL    HW154859   1.002   9.905   5.938  1.4716 -0.5409 -0.9899
16341SOL    HW254860   1.011   9.768   5.876 -1.7412 -1.1606 -0.2670
16342SOL     OW54861   1.119   9.759   6.612  0.2589 -0.1999  0.6856
16342SOL    HW154862   1.051   9.693   6.620 -0.3031  0.4479  1.4914
16342SOL    HW254863   1.189   9.717   6.563 -1.0736 -0.5918 -0.9400
16343SOL     OW54864   7.053   9.248   7.744  0.2316  0.4949 -0.0039
16343SOL    HW154865   7.036   9.342   7.750  1.1323  0.6759 -0.0380
16343SOL    HW254866   7.081   9.223   7.832  1.1399  0.5196 -0.2683
16344SOL     OW54867   6.783   9.648  10.009 -0.2959 -0.1540  0.1075
16344SOL    HW154868   6.716   9.656   9.941 -1.3691  0.5329  1.1820
16344SOL    HW254869   6.739   9.678  10.089  1.2943  0.2613  0.8722
16345SOL     OW54870   4.583   4.912   1.860 -0.1400  0.2948  0.1251
16345SOL    HW154871   4.540   4.971   1.798  0.8022 -0.2837 -1.1177
16345SOL    HW254872   4.612   4.838   1.806  1.5032  0.1890  1.0905
16346SOL     OW54873  10.007   9.711   8.518  0.0261  0.0418  0.1459
16346SOL    HW154874  10.052   9.694   8.601  0.7732  0.9699 -0.0460
16346SOL    HW254875   9.956   9.790   8.534 -0.4521 -0.2268 -0.0460
16347SOL     OW54876   7.934   4.690   2.557  0.8475 -0.2929  0.4720
16347SOL    HW154877   7.901   4.750   2.623  1.0044  0.9926 -0.5646
16347SOL    HW254878   8.024   4.719   2.542  1.4761 -1.8224  1.0930
16348SOL     OW54879   0.301   0.210  10.701  0.2902 -0.2070  0.3606
16348SOL    HW154880   0.386   0.212  10.657  0.1638  1.3344  0.1250
16348SOL    HW254881   0.322   0.202  10.794  0.6305 -1.3869  0.1904
16349SOL     OW54882   5.062   1.706   6.767 -0.3060 -0.4928  0.0996
16349SOL    HW154883   5.053   1.618   6.730 -1.4849 -0.2808 -0.1728
16349SOL    HW254884   5.025   1.763   6.699  3.3614  0.6053 -1.2154
16350SOL     OW54885   1.166   4.468   1.604  0.7637  0.2537 -0.3317
16350SOL    HW154886   1.100   4.535   1.620  0.6889  0.1991 -0.4120
16350SOL    HW254887   1.160   4.409   1.679  1.4091  0.8034  0.1622
16351SOL     OW54888   1.441   1.583   2.617 -0.2958 -0.0241  0.3763
16351SOL    HW154889   1.498   1.512   2.585 -2.5407 -1.1926 -1.3211
16351SOL    HW254890   1.483   1.613   2.697  2.6019 -0.8963 -0.6938
16352SOL     OW54891   1.657   6.486   7.244  0.3582 -0.6554 -0.0073
16352SOL    HW154892   1.593   6.428   7.202 -0.0923 -0.5745  0.5608
16352SOL    HW254893   1.644   6.571   7.201 -0.0037 -0.6075  0.1942
16353SOL     OW54894   1.346   5.385   2.557  0.0267  0.1922  0.2838
16353SOL    HW154895   1.427   5.337   2.568  0.8518  1.8188  1.7921
16353SOL    HW254896   1.346   5.450   2.627 -2.0882  0.9271 -0.2987
16354SOL     OW54897   5.962   3.111   9.858  0.1364  0.2547 -0.0409
16354SOL    HW154898   5.980   3.143   9.947 -0.3104  0.9011 -0.1753
16354SOL    HW254899   6.020   3.036   9.847 -0.4235 -0.3765  1.1300
16355SOL     OW54900   8.722   8.990   7.925 -0.0673 -0.4519  0.0452
16355SOL    HW154901   8.682   8.980   7.838 -1.1712 -1.2328  0.6233
16355SOL    HW254902   8.746   9.083   7.930 -1.0958 -0.1366 -0.6278
16356SOL     OW54903   7.511   8.009   9.033  0.5889  0.1255  0.3668
16356SOL    HW154904   7.561   8.090   9.024 -1.5457  1.3087 -2.0592
16356SOL    HW254905   7.442   8.031   9.095 -0.9153  0.7447 -1.4493
16357SOL     OW54906   5.034   2.951   9.556 -0.4253  0.3617 -0.3561
16357SOL    HW154907   5.051   2.950   9.650  0.0474  1.4855 -0.4148
16357SOL    HW254908   4.954   2.900   9.545  0.3816 -1.1516  0.4649
16358SOL     OW54909  10.709   8.353   3.129 -0.6025  0.0052  0.8413
16358SOL    HW154910  10.730   8.407   3.053  0.3420 -1.0536  0.3096
16358SOL    HW254911  10.668   8.413   3.191 -0.1753  1.1772  0.0292
16359SOL     OW54912   2.551   8.249   5.203  0.5367  0.7618  0.7299
16359SOL    HW154913   2.646   8.247   5.214  0.4399  0.7149  1.6539
16359SOL    HW254914   2.529   8.166   5.162  0.8577  0.5983  0.8858
16360SOL     OW54915   4.027   8.951   0.002 -0.2189 -0.3711 -0.1594
16360SOL    HW154916   3.951   8.968   0.057 -1.3398 -1.2483 -1.3686
16360SOL    HW254917   4.065   9.037  -0.015  0.3880 -0.0893  2.2210
16361SOL     OW54918   8.044   3.452   7.665  0.0784 -0.2242  0.6979
16361SOL    HW154919   8.121   3.509   7.668  0.4319 -0.5164 -1.3737
16361SOL    HW254920   8.069   3.374   7.715  2.1262 -1.3860 -1.9224
16362SOL     OW54921   3.300   5.220  10.634  0.1001 -1.0492 -0.5240
16362SOL    HW154922   3.308   5.199  10.540  0.3964 -2.3307 -0.2344
16362SOL    HW254923   3.292   5.135  10.677  1.3232 -0.5715  0.7424
16363SOL     OW54924   9.411   7.257   6.535 -0.1226 -0.5758 -0.6306
16363SOL    HW154925   9.355   7.325   6.496 -0.6758 -1.8569 -2.1802
16363SOL    HW254926   9.352   7.208   6.593  0.4039  0.5586  0.9120
16364SOL     OW54927   5.711   3.155   2.261  0.6137 -0.4606 -0.1692
16364SOL    HW154928   5.719   3.217   2.334 -0.0848  0.5636 -0.9263
16364SOL    HW254929   5.639   3.190   2.209 -0.1260 -2.2118 -0.3579
16365SOL     OW54930   2.501   5.464   4.019  0.5604  0.0926 -0.8119
16365SOL    HW154931   2.470   5.435   3.933 -2.3141 -0.7314  0.3747
16365SOL    HW254932   2.533   5.384   4.061 -2.7155 -0.6652  0.6012
16366SOL     OW54933   5.338   4.214   7.429 -0.3571 -0.1178 -0.0776
16366SOL    HW154934   5.392   4.205   7.350 -0.7491 -0.6544 -0.2987
16366SOL    HW254935   5.399   4.234   7.499 -0.2086  2.6782 -0.8938
16367SOL     OW54936   0.905   8.199  10.115  0.0389 -0.5509  0.4583
16367SOL    HW154937   0.984   8.147  10.126 -0.0885 -0.5186  1.6159
16367SOL    HW254938   0.882   8.227  10.203 -0.5472  0.5077 -0.0151
16368SOL     OW54939   5.878   1.960   7.385 -0.1705 -0.4595  0.1833
16368SOL    HW154940   5.798   1.958   7.436 -0.1265  1.4136  0.3951
16368SOL    HW254941   5.886   1.872   7.348 -1.6579 -1.0237  1.1484
16369SOL     OW54942   4.992   6.622   3.602  0.3669  0.3799 -0.0867
16369SOL    HW154943   5.059   6.573   3.651  0.4978  0.0980 -0.5436
16369SOL    HW254944   5.023   6.712   3.601  0.8981  0.1958 -0.5600
16370SOL     OW54945   8.580  10.135   4.543 -0.1888  0.3583 -0.4043
16370SOL    HW154946   8.608  10.062   4.599  0.0302  0.6847 -0.0847
16370SOL    HW254947   8.594  10.104   4.454  0.7913  0.3542 -0.2565
16371SOL     OW54948   0.505   5.976   8.375  0.5787 -0.4021  0.1273
16371SOL    HW154949   0.465   5.890   8.388  0.9895 -0.4239  1.4418
16371SOL    HW254950   0.470   6.029   8.447  1.1336  0.2347 -0.0655
16372SOL     OW54951   9.763   9.955  10.686 -0.5910 -0.3203  0.0194
16372SOL    HW154952   9.682   9.977  10.731 -0.5217 -1.6232  0.8373
16372SOL    HW254953   9.749   9.866  10.654  0.7541 -0.8432  0.7852
16373SOL     OW54954   6.683   6.007   8.092  0.4029 -0.1682  0.0450
16373SOL    HW154955   6.722   5.931   8.048  0.6995 -0.0692  0.1354
16373SOL    HW254956   6.590   6.002   8.070  0.2519 -1.1010  0.8298
16374SOL     OW54957   2.497   8.311   2.015  0.2821  0.1698 -0.0948
16374SOL    HW154958   2.443   8.276   1.944  0.9468  0.3887 -0.7201
16374SOL    HW254959   2.473   8.259   2.092  0.1059 -0.5946 -0.6562
16375SOL     OW54960   3.302   2.409   1.956 -0.1055 -0.1962  0.6882
16375SOL    HW154961   3.305   2.399   1.861 -2.0035  1.1326  0.4036
16375SOL    HW254962   3.388   2.442   1.980  0.7965 -1.6827 -0.3881
16376SOL     OW54963   6.311   7.158   2.293 -0.0517 -0.3661  0.1956
16376SOL    HW154964   6.321   7.252   2.305 -1.2910  0.0824 -1.7296
16376SOL    HW254965   6.401   7.124   2.292  0.4173  0.8202  0.7259
16377SOL     OW54966  10.676   1.006   2.324  0.2662 -0.1413  0.0638
16377SOL    HW154967  10.701   0.992   2.233  0.5531  0.7488 -0.0017
16377SOL    HW254968  10.735   1.075   2.355  0.8326 -1.1055  1.2182
16378SOL     OW54969   3.935   3.291   5.891 -0.3367 -0.2101 -0.3428
16378SOL    HW154970   3.876   3.277   5.966  0.1920 -0.7985 -0.0270
16378SOL    HW254971   3.951   3.385   5.890 -1.3382 -0.0234 -0.4802
16379SOL     OW54972   9.267   4.426   0.969 -0.0636 -0.4533 -0.1001
16379SOL    HW154973   9.231   4.348   0.926  0.3642 -0.6183 -0.1697
16379SOL    HW254974   9.331   4.391   1.031  0.3508 -0.1459 -0.3480
16380SOL     OW54975   2.216   1.283   5.175  0.4604  0.0829 -0.4049
16380SOL    HW154976   2.278   1.211   5.162 -0.2779 -0.4257 -1.1583
16380SOL    HW254977   2.266   1.361   5.151  0.7313 -0.3478 -1.2851
16381SOL     OW54978   5.101   7.788   8.397 -0.1592  0.1724  0.3356
16381SOL    HW154979   5.177   7.804   8.451  0.1838  3.3910 -0.8569
16381SOL    HW254980   5.117   7.702   8.357  0.6980 -1.1762  3.3034
16382SOL     OW54981   3.089   1.949   3.425 -1.0024  0.7669 -0.3449
16382SOL    HW154982   3.120   2.006   3.354 -1.9498  0.8210 -0.7317
16382SOL    HW254983   3.050   1.874   3.380 -1.6422  0.8136  0.1194
16383SOL     OW54984   5.483   1.206   7.686  0.2502 -0.1563 -0.3286
16383SOL    HW154985   5.397   1.242   7.664 -1.0215 -2.6170  0.2241
16383SOL    HW254986   5.487   1.124   7.636  1.0847 -1.4431  1.7567
16384SOL     OW54987   7.811   3.530   1.478  0.6759 -0.3138 -0.0964
16384SOL    HW154988   7.748   3.556   1.411 -0.6334 -0.5436  0.9987
16384SOL    HW254989   7.838   3.442   1.453 -0.4165 -0.7145  0.0874
16385SOL     OW54990   2.734   8.846   4.310  0.6256 -0.1004  0.6291
16385SOL    HW154991   2.704   8.821   4.223  1.4903  1.1004 -0.0506
16385SOL    HW254992   2.805   8.785   4.330  0.7317 -0.0911  0.2875
16386SOL     OW54993   9.925   1.861   6.745  0.2277  0.0817 -0.0200
16386SOL    HW154994   9.956   1.931   6.803  2.2842 -0.0571 -0.8397
16386SOL    HW254995   9.837   1.841   6.776  1.0459  0.3232  2.7397
16387SOL     OW54996   1.157   3.598   0.522 -0.0469 -0.2416  0.0826
16387SOL    HW154997   1.177   3.690   0.503 -1.7213  0.0329 -0.4950
16387SOL    HW254998   1.174   3.552   0.440  0.8647 -0.4920  0.3924
16388SOL     OW54999   9.774   6.508   1.366  0.0924 -0.2046 -0.5718
16388SOL    HW155000   9.729   6.425   1.386  0.4937  0.0302  1.5741
16388SOL    HW255001   9.844   6.483   1.306  2.3949 -2.1750  2.5980
16389SOL     OW55002   9.628   6.288   1.413  0.3183 -0.3366  0.1190
16389SOL    HW155003   9.542   6.321   1.437  0.0345 -0.9577 -0.0237
16389SOL    HW255004   9.626   6.282   1.317  1.0918  1.1739 -0.0238
16390SOL     OW55005   1.467   0.388   5.984  0.4735 -0.4513  0.1951
16390SOL    HW155006   1.530   0.386   5.912 -1.3897  0.5809 -1.5565
16390SOL    HW255007   1.484   0.471   6.028 -0.3797  0.3731 -0.9887
16391SOL     OW55008   1.735   4.022   6.038 -0.2120 -0.0690  0.1494
16391SOL    HW155009   1.718   4.044   5.946  0.1974  0.3997  0.1819
16391SOL    HW255010   1.674   4.078   6.088  1.5761  1.8903  0.2840
16392SOL     OW55011   3.342   6.361   2.240 -0.6084  0.7073 -0.8003
16392SOL    HW155012   3.377   6.277   2.213 -2.1416 -0.6768  1.1647
16392SOL    HW255013   3.418   6.419   2.244  0.9752 -1.3151  0.3574
16393SOL     OW55014   4.215  10.328   5.123 -0.1503  0.2455 -0.0415
16393SOL    HW155015   4.268  10.394   5.168 -2.3328 -0.2860  3.7220
16393SOL    HW255016   4.276  10.257   5.103  1.1135  0.8391  1.4875
16394SOL     OW55017   8.325   6.076   2.733  0.1058 -0.2230  0.4498
16394SOL    HW155018   8.322   6.070   2.828  0.1126 -2.4032  0.3699
16394SOL    HW255019   8.417   6.058   2.710  0.0077 -0.1910  0.0128
16395SOL     OW55020   5.034   1.224   0.469  0.3972  0.5417 -0.0537
16395SOL    HW155021   5.098   1.166   0.426 -0.4470 -0.0802 -0.4899
16395SOL    HW255022   5.022   1.187   0.556  0.0032  0.1739 -0.2645
16396SOL     OW55023   6.232   7.502   6.347 -0.3840 -0.3075 -0.0509
16396SOL    HW155024   6.177   7.428   6.371 -2.3619  1.0581 -0.1606
16396SOL    HW255025   6.210   7.520   6.256 -0.2993  0.7147  0.1206
16397SOL     OW55026   7.920   6.239   7.996  0.1145 -0.6869  0.0225
16397SOL    HW155027   7.832   6.203   7.982  0.3542 -0.3691 -2.8080
16397SOL    HW255028   7.920   6.322   7.947  0.4816  1.9431  4.0311
16398SOL     OW55029   2.640   4.388   2.374 -0.1264  0.0247 -0.7842
16398SOL    HW155030   2.601   4.475   2.379  0.1235  0.0997  0.2957
16398SOL    HW255031   2.610   4.344   2.454 -0.4780 -0.9871 -1.4518
16399SOL     OW55032   5.419   3.752   9.334  0.4807  0.0141 -0.2037
16399SOL    HW155033   5.472   3.757   9.254  0.5536 -1.8654 -0.3073
16399SOL    HW255034   5.329   3.750   9.302  0.5000 -0.4959 -0.2270
16400SOL     OW55035   0.585  10.911   0.845 -0.1611 -0.0426 -0.1596
16400SOL    HW155036   0.540  10.977   0.898 -0.0554 -0.0403 -0.0720
16400SOL    HW255037   0.675  10.944   0.838 -0.8712  1.7299 -3.1227
16401SOL     OW55038   7.061   0.358   8.772 -0.1168 -0.3859 -0.1229
16401SOL    HW155039   7.059   0.312   8.688 -1.1661 -0.4557 -0.0760
16401SOL    HW255040   7.007   0.435   8.759  0.3175 -0.0060  0.2768
16402SOL     OW55041   9.157   9.637   5.117  0.0756  0.5907  0.0995
16402SOL    HW155042   9.210   9.641   5.196  0.6840  0.5091 -0.2993
16402SOL    HW255043   9.067   9.646   5.148  0.3553  1.2743  0.7321
16403SOL     OW55044   1.603   0.666   1.562  0.6329 -0.0514  0.0586
16403SOL    HW155045   1.557   0.584   1.542  0.5137  0.1350 -0.4320
16403SOL    HW255046   1.534   0.725   1.592  0.2873  0.7005 -2.0596
16404SOL     OW55047   2.441   7.953   3.476  0.0951 -0.3873 -0.5528
16404SOL    HW155048   2.406   8.010   3.408 -0.0542 -1.1251 -1.0974
16404SOL    HW255049   2.405   7.867   3.457  0.5950 -0.7439  0.0636
16405SOL     OW55050   2.091   6.693   9.296 -0.4251 -0.1683 -0.0626
16405SOL    HW155051   2.017   6.732   9.250 -0.4236  0.3559  0.3745
16405SOL    HW255052   2.059   6.679   9.385 -0.5129 -1.4060 -0.2658
16406SOL     OW55053   0.384   1.648   9.933 -0.1135 -0.2953  0.4045
16406SOL    HW155054   0.458   1.664   9.875 -0.5846  0.2700 -0.0640
16406SOL    HW255055   0.330   1.727   9.924 -1.8678 -1.5639 -0.9558
16407SOL     OW55056   9.926   9.085   5.048 -0.9743  0.0545  0.0028
16407SOL    HW155057   9.881   9.102   4.965 -0.0532  1.2313 -0.2694
16407SOL    HW255058  10.010   9.048   5.023 -0.8181  0.1200  0.4236
16408SOL     OW55059   5.485   7.325   0.472 -0.2473 -0.0622  0.0488
16408SOL    HW155060   5.516   7.382   0.402 -0.4691  0.7075  0.5748
16408SOL    HW255061   5.452   7.247   0.426 -1.5704  0.9636 -0.7996
16409SOL     OW55062   6.551   0.838   4.849  0.1838 -0.1840  0.7009
16409SOL    HW155063   6.623   0.775   4.849 -0.2771 -0.7438 -0.8015
16409SOL    HW255064   6.473   0.784   4.859 -0.0878  0.3530  1.5522
16410SOL     OW55065   8.238   5.390   9.596 -0.4300 -0.1161  0.4390
16410SOL    HW155066   8.209   5.323   9.659 -0.8691 -0.0890  0.2688
16410SOL    HW255067   8.178   5.380   9.522  0.1343 -0.2048 -0.0178
16411SOL     OW55068   5.657   0.848   5.372  0.4578  0.1571 -0.5700
16411SOL    HW155069   5.678   0.937   5.400  0.9061 -0.4565  1.1302
16411SOL    HW255070   5.623   0.805   5.450  1.9654 -1.7149 -0.8736
16412SOL     OW55071   5.147   9.947   7.081 -0.3553 -0.2494  0.3819
16412SOL    HW155072   5.123  10.024   7.029 -0.1765 -0.8885 -0.6748
16412SOL    HW255073   5.074   9.936   7.143  0.3483  1.6791  1.6244
16413SOL     OW55074   9.596   4.826   3.207 -0.4473 -0.4167 -0.0549
16413SOL    HW155075   9.685   4.861   3.213 -0.6093 -0.0970  0.6646
16413SOL    HW255076   9.546   4.897   3.165 -0.9964  0.7219  2.3454
16414SOL     OW55077   1.588   4.012   1.351  0.5590 -0.6368  0.0785
16414SOL    HW155078   1.668   3.960   1.357  0.7816 -0.3975 -0.6998
16414SOL    HW255079   1.617   4.103   1.361  0.4998 -0.4908 -0.9487
16415SOL     OW55080   5.453   3.426   4.883  0.2150 -0.4459 -0.2020
16415SOL    HW155081   5.502   3.421   4.801 -1.2497  1.7215 -1.2921
16415SOL    HW255082   5.521   3.419   4.951  1.6218 -0.9016 -1.5798
16416SOL     OW55083   4.782   1.832   0.011  0.1427 -0.2440  0.2542
16416SOL    HW155084   4.742   1.903   0.062 -1.1105 -1.2712  0.7656
16416SOL    HW255085   4.728   1.825  -0.067 -0.1027 -1.0046  0.4836
16417SOL     OW55086   2.793  10.379   5.333 -0.1373  0.5081  0.4493
16417SOL    HW155087   2.767  10.400   5.422 -0.2396 -1.9065  1.0389
16417SOL    HW255088   2.726  10.320   5.301  0.6317  0.2407 -0.7390
16418SOL     OW55089  10.231   5.390   6.468  0.8759  0.0926  0.7281
16418SOL    HW155090  10.204   5.300   6.489  0.1849 -0.0880 -0.7644
16418SOL    HW255091  10.268   5.383   6.380 -0.2260  1.4453  0.1188
16419SOL     OW55092   4.281   5.987   2.028  0.0714 -0.0166  0.0576
16419SOL    HW155093   4.364   6.017   1.991 -0.2290 -1.1314 -1.6433
16419SOL    HW255094   4.215   6.045   1.989 -0.1184 -0.2970 -0.0445
16420SOL     OW55095   4.679   3.481   6.361  0.4563 -0.4853 -0.5386
16420SOL    HW155096   4.692   3.407   6.301  1.8519 -1.1281  0.4950
16420SOL    HW255097   4.630   3.545   6.309 -1.5160 -2.4077 -1.2224
16421SOL     OW55098   3.675   9.201   5.788  0.0435  0.0899  0.4216
16421SOL    HW155099   3.602   9.144   5.766  0.2169  0.1318 -0.2703
16421SOL    HW255100   3.636   9.272   5.838 -0.3293 -0.0726  0.3649
16422SOL     OW55101   9.495   6.950   5.929 -0.3625 -0.0960  0.1701
16422SOL    HW155102   9.427   6.908   5.877  0.7117 -3.7143  1.3398
16422SOL    HW255103   9.488   6.908   6.015  1.8778  1.0653  0.9892
16423SOL     OW55104   2.580   9.567   8.130  0.4336  0.1898 -0.4524
16423SOL    HW155105   2.669   9.565   8.097  1.0458  0.6339  1.0855
16423SOL    HW255106   2.562   9.477   8.157  0.2062 -0.0129 -1.2649
16424SOL     OW55107  10.749   6.645   5.021  0.5774 -0.2406 -0.1842
16424SOL    HW155108  10.750   6.738   4.996  0.7590 -0.7837 -2.4332
16424SOL    HW255109  10.757   6.598   4.938 -2.4051 -2.3479  0.5382
16425SOL     OW55110   9.431   6.524   2.813 -0.5186 -0.0684  0.4352
16425SOL    HW155111   9.500   6.509   2.878  1.0158  1.9993 -0.6078
16425SOL    HW255112   9.433   6.445   2.759  0.2824 -0.5148  1.0764
16426SOL     OW55113  10.798   1.512   0.912 -0.4305  0.6049 -0.5835
16426SOL    HW155114  10.708   1.478   0.907 -0.4927  0.7806 -0.6627
16426SOL    HW255115  10.847   1.442   0.956 -0.6545  0.6073 -0.3233
16427SOL     OW55116   4.278   6.969   6.818  0.5478 -0.0866 -0.5421
16427SOL    HW155117   4.213   7.027   6.857  1.5258 -0.0392  1.1428
16427SOL    HW255118   4.297   7.007   6.733 -1.1507  0.2361 -0.8015
16428SOL     OW55119  10.600   8.139   8.665  0.2550  0.0651  0.0955
16428SOL    HW155120  10.674   8.182   8.622 -1.0057  0.2330 -2.0724
16428SOL    HW255121  10.637   8.060   8.704  1.4087 -0.4292 -1.8815
16429SOL     OW55122   8.524   8.050   7.332  0.1114 -0.2672  0.7073
16429SOL    HW155123   8.455   8.114   7.344  0.2631 -0.1061  0.7243
16429SOL    HW255124   8.568   8.077   7.251 -0.5060 -0.9699  0.1227
16430SOL     OW55125   1.400   9.537   4.927 -0.1972 -0.1347  0.3513
16430SOL    HW155126   1.467   9.558   4.862  0.2694 -0.8092  0.6164
16430SOL    HW255127   1.325   9.507   4.875 -1.4315  3.3875 -0.1851
16431SOL     OW55128   0.789  10.834   4.973  0.1381 -0.0170  0.4431
16431SOL    HW155129   0.766  10.826   5.065 -1.4555 -2.2840 -0.0458
16431SOL    HW255130   0.870  10.783   4.964  0.3339  0.2665  0.6021
16432SOL     OW55131   3.219   1.824   4.033  0.6314  0.5392 -0.1243
16432SOL    HW155132   3.233   1.883   3.959  0.0397  0.3754 -0.3724
16432SOL    HW255133   3.177   1.878   4.100 -0.1609  0.3412 -0.4537
16433SOL     OW55134   8.174   6.169   4.657  0.3185 -0.0365  0.3355
16433SOL    HW155135   8.262   6.135   4.673  0.6173  1.4201  2.0352
16433SOL    HW255136   8.177   6.259   4.688 -1.5616  0.3017 -0.3562
16434SOL     OW55137   0.811   3.785   4.460  0.2978 -0.2218  0.0688
16434SOL    HW155138   0.810   3.710   4.520 -0.0865 -0.8449 -0.6942
16434SOL    HW255139   0.776   3.857   4.511 -1.2054 -1.0324  0.2478
16435SOL     OW55140   2.296   3.288   9.032  0.4761  0.0650 -0.4193
16435SOL    HW155141   2.297   3.228   8.957 -0.2483  1.8516 -1.9298
16435SOL    HW255142   2.203   3.297   9.054  0.6535 -0.0939  0.4156
16436SOL     OW55143   7.397   2.879   6.814  0.1222 -0.3021 -0.4574
16436SOL    HW155144   7.424   2.813   6.750 -0.0422  1.0997 -2.0401
16436SOL    HW255145   7.464   2.875   6.883  1.8623 -0.0216 -2.0458
16437SOL     OW55146   0.400   9.051   2.438 -0.0678  0.6944 -0.9217
16437SOL    HW155147   0.408   9.094   2.523  0.5655 -0.3101 -0.4548
16437SOL    HW255148   0.306   9.043   2.424 -0.1831 -0.1746  0.2426
16438SOL     OW55149   3.012   0.343   5.233 -0.3921 -0.1938 -0.4544
16438SOL    HW155150   2.989   0.420   5.181 -0.1332  1.3441  1.5759
16438SOL    HW255151   3.088   0.371   5.284 -0.9484 -1.4095  1.1123
16439SOL     OW55152   0.478   2.353   6.713  0.2543  0.1960  0.9351
16439SOL    HW155153   0.397   2.302   6.703  0.6321 -0.5030  1.3694
16439SOL    HW255154   0.468   2.397   6.797 -0.2470  1.1886  0.3793
16440SOL     OW55155   8.944   7.484   1.656  0.2485 -0.0843 -0.5317
16440SOL    HW155156   8.896   7.558   1.692 -0.8921 -1.0858  0.0909
16440SOL    HW255157   8.890   7.452   1.584  1.2201  0.2769 -1.4510
16441SOL     OW55158  10.423   6.170   8.100 -0.1516  0.0107 -0.2855
16441SOL    HW155159  10.378   6.228   8.162  0.0476  1.4584 -1.4187
16441SOL    HW255160  10.501   6.142   8.146 -0.5933  0.0958  0.5385
16442SOL     OW55161  10.652  10.403  10.707 -0.9475 -0.1675 -0.4814
16442SOL    HW155162  10.586  10.362  10.763 -0.2194 -1.5919 -0.6273
16442SOL    HW255163  10.663  10.491  10.745 -1.2083 -0.7315  0.9872
16443SOL     OW55164   5.203   8.214   9.974 -0.7097 -0.1786  0.2495
16443SOL    HW155165   5.255   8.142   9.938 -2.1597 -0.5375 -1.2018
16443SOL    HW255166   5.123   8.173  10.006 -0.9392  0.6129  0.7267
16444SOL     OW55167   3.388   0.340   0.077  0.1405  0.5429  0.2239
16444SOL    HW155168   3.369   0.405   0.009  0.7073  1.5609  1.0187
16444SOL    HW255169   3.440   0.273   0.032  0.0774  0.9416 -0.4612
16445SOL     OW55170   5.025   2.568   1.411 -0.1353  0.1003 -0.3131
16445SOL    HW155171   4.971   2.529   1.480  0.7196  0.2697  0.4758
16445SOL    HW255172   4.988   2.535   1.330 -1.5574  0.3756  0.1884
16446SOL     OW55173   1.958   1.354   7.805  0.6912  0.2598 -0.5194
16446SOL    HW155174   2.035   1.407   7.784  2.1083 -1.8553 -1.0176
16446SOL    HW255175   1.883   1.413   7.790  2.1524  2.1152 -0.8883
16447SOL     OW55176   4.885   4.519   5.986  0.0479  0.2607  0.3893
16447SOL    HW155177   4.916   4.430   6.001  0.0228  0.0489 -0.7463
16447SOL    HW255178   4.963   4.567   5.959 -0.2419  0.1426 -0.7385
16448SOL     OW55179   2.430   9.504   0.713  1.0675  0.0874 -0.0358
16448SOL    HW155180   2.466   9.589   0.739  0.5138  0.2196  0.3367
16448SOL    HW255181   2.503   9.443   0.724  1.0551  0.2650  1.1755
16449SOL     OW55182   9.360   6.888  10.663  0.4558 -0.9069  0.2693
16449SOL    HW155183   9.442   6.901  10.615  0.0069  2.6542  0.1808
16449SOL    HW255184   9.291   6.900  10.597 -0.1510 -0.8553  0.9040
16450SOL     OW55185   3.396   6.078  10.590  0.0450 -0.2926  0.0882
16450SOL    HW155186   3.316   6.125  10.568 -0.4707 -0.0861  2.1729
16450SOL    HW255187   3.422   6.034  10.509 -0.8976  1.4675 -1.2283
16451SOL     OW55188   2.013   5.959   9.743  0.7091  0.3697  0.1534
16451SOL    HW155189   2.014   6.001   9.829 -1.5359  1.9612 -0.5134
16451SOL    HW255190   1.949   6.009   9.692 -0.1554 -2.2708 -1.5673
16452SOL     OW55191   0.129   3.627   0.944  0.2384  0.6154 -0.1959
16452SOL    HW155192   0.154   3.719   0.953 -0.1306  0.8273 -1.2091
16452SOL    HW255193   0.122   3.595   1.034  0.3923  1.5684  0.1650
16453SOL     OW55194   7.313   6.660   6.095 -0.0519  0.5643 -0.4691
16453SOL    HW155195   7.405   6.670   6.069 -0.6016  0.6901 -2.5665
16453SOL    HW255196   7.282   6.585   6.044 -1.0794  0.4004  0.3585
16454SOL     OW55197   1.725   1.226   1.350  0.5452 -0.6244  0.0434
16454SOL    HW155198   1.760   1.163   1.287  0.1059 -0.3535 -0.4805
16454SOL    HW255199   1.733   1.311   1.307  0.7185 -0.3743  0.5660
16455SOL     OW55200   9.765  10.116   5.059  0.2364  0.2489  0.4678
16455SOL    HW155201   9.821  10.074   5.124  1.4870  2.1748  0.6933
16455SOL    HW255202   9.735  10.197   5.101 -1.0846  0.2429 -0.4035
16456SOL     OW55203   2.871  10.066   2.374 -0.4413 -0.1188  0.3220
16456SOL    HW155204   2.877  10.045   2.281 -2.8941  0.8152 -0.1232
16456SOL    HW255205   2.955  10.107   2.395  0.5399 -1.2367 -1.1877
16457SOL     OW55206   4.169   0.267   1.056 -0.3050 -0.7512 -0.2673
16457SOL    HW155207   4.089   0.286   1.007 -0.6401  0.1302  0.5766
16457SOL    HW255208   4.234   0.328   1.021 -0.0283 -1.3767 -0.8613
16458SOL     OW55209   7.460   4.398   0.355 -0.6250  0.7009  0.1980
16458SOL    HW155210   7.483   4.431   0.268  0.9638  1.2395  0.7750
16458SOL    HW255211   7.493   4.308   0.356 -3.1957 -0.3496 -0.6882
16459SOL     OW55212   8.795   0.411   5.897  1.1006 -0.2318 -0.1367
16459SOL    HW155213   8.829   0.328   5.932  2.4536  0.7777  1.0636
16459SOL    HW255214   8.765   0.459   5.974  2.2848  1.2451 -0.5566
16460SOL     OW55215   5.123   9.031   3.289  0.3109  0.0529 -0.3767
16460SOL    HW155216   5.106   9.048   3.381 -0.3882  0.2790 -0.5384
16460SOL    HW255217   5.058   8.965   3.264 -0.1249  0.6717 -0.9266
16461SOL     OW55218   2.892   3.679   9.264  0.0073  0.2857  0.1324
16461SOL    HW155219   2.852   3.705   9.181 -0.6944  1.7470  0.8852
16461SOL    HW255220   2.871   3.586   9.273  0.4551 -0.0105 -1.4980
16462SOL     OW55221   2.197   4.027   4.513  0.5933  0.1532 -0.2585
16462SOL    HW155222   2.274   4.061   4.466  1.5832 -0.9016  0.5362
16462SOL    HW255223   2.195   3.934   4.492  0.7481 -0.2378  1.3270
16463SOL     OW55224   2.613   8.401   5.864  0.2268 -0.2278  0.0506
16463SOL    HW155225   2.608   8.350   5.783  0.5238 -0.9456  0.4762
16463SOL    HW255226   2.559   8.353   5.926  1.0973 -0.4283  0.6681
16464SOL     OW55227   8.078   1.004   4.145  0.2068 -0.0138 -0.5739
16464SOL    HW155228   8.005   0.944   4.129 -0.9290  0.9630  0.6783
16464SOL    HW255229   8.065   1.075   4.081  0.6488 -0.3181 -1.0104
16465SOL     OW55230   8.087   5.665   4.507  0.5064  0.2016 -0.1010
16465SOL    HW155231   8.074   5.570   4.504  0.9560  0.1370 -0.0859
16465SOL    HW255232   8.014   5.698   4.560  0.2859 -0.1210 -0.2003
16466SOL     OW55233   7.408   3.346   2.697  0.1243 -0.1863 -0.4965
16466SOL    HW155234   7.427   3.385   2.782 -2.3945 -2.3777  1.2245
16466SOL    HW255235   7.426   3.252   2.709 -0.6520 -0.6034 -2.2525
16467SOL     OW55236   2.934   1.985   7.076 -0.2636  0.5534  0.2848
16467SOL    HW155237   2.888   1.937   7.006 -1.7914  0.4056  1.3511
16467SOL    HW255238   2.924   1.930   7.153 -0.9459  1.9817  1.2478
16468SOL     OW55239   4.825   3.798   1.273  0.6189 -0.1178 -0.3402
16468SOL    HW155240   4.778   3.781   1.191  0.8193 -1.1106 -0.2688
16468SOL    HW255241   4.916   3.776   1.253  0.5266 -1.2458  0.3761
16469SOL     OW55242   1.399   4.318   8.153 -0.1021 -0.2010 -0.4019
16469SOL    HW155243   1.467   4.261   8.189  0.4340  0.3549 -0.5262
16469SOL    HW255244   1.383   4.382   8.223 -1.5850 -1.2041  0.2450
16470SOL     OW55245  10.244   5.014   0.955  0.6006  0.0469 -0.3806
16470SOL    HW155246  10.299   5.083   0.992 -0.1626  0.7585 -0.5438
16470SOL    HW255247  10.232   5.038   0.864 -0.4814  0.2443 -0.2015
16471SOL     OW55248   6.898  10.363   1.380  0.5089 -0.2650  0.1215
16471SOL    HW155249   6.989  10.334   1.391  0.8743 -0.0423 -1.8671
16471SOL    HW255250   6.905  10.456   1.360 -0.1452 -0.2588 -0.0939
16472SOL     OW55251   9.822  10.783   4.531  0.2835  0.0201  0.2938
16472SOL    HW155252   9.771  10.774   4.612  1.6450  1.5838  1.3902
16472SOL    HW255253   9.910  10.806   4.561  1.8793 -3.0370 -1.4948
16473SOL     OW55254   9.633   4.536  10.646 -0.4797  0.6392  0.2978
16473SOL    HW155255   9.689   4.603  10.606 -0.1182  0.7170  0.9198
16473SOL    HW255256   9.560   4.526  10.585  0.0572  0.7539 -0.3873
16474SOL     OW55257   1.980   1.308   2.474  0.0360  0.2420 -0.3339
16474SOL    HW155258   1.941   1.353   2.549 -0.7538 -0.9962  0.0248
16474SOL    HW255259   2.008   1.224   2.508 -0.5905 -0.4505 -1.4780
16475SOL     OW55260  10.712   0.476   9.942  0.4218 -0.2238 -0.9265
16475SOL    HW155261  10.764   0.398   9.924  1.3791 -0.1744  1.2059
16475SOL    HW255262  10.673   0.459  10.028  1.3853  1.9658  0.0195
16476SOL     OW55263   3.331   0.115   1.623 -0.3928  0.3853 -0.0171
16476SOL    HW155264   3.369   0.138   1.537 -0.1762  0.8368  0.1943
16476SOL    HW255265   3.344   0.194   1.676 -1.1421  0.3485  0.2262
16477SOL     OW55266   9.841   7.173   4.035  0.8007 -0.2236  0.1980
16477SOL    HW155267   9.859   7.110   3.965 -0.2410 -0.1194 -0.1828
16477SOL    HW255268   9.802   7.121   4.105 -0.8968  0.0840 -0.4602
16478SOL     OW55269   5.715   4.114   8.800  0.4836  0.3677  0.0042
16478SOL    HW155270   5.628   4.109   8.761  0.2873 -1.5829  0.5647
16478SOL    HW255271   5.700   4.149   8.888 -0.0475 -1.7099  0.7947
16479SOL     OW55272   1.275   0.241   7.417 -0.0626  0.0285 -0.1852
16479SOL    HW155273   1.259   0.262   7.509  0.3785 -1.2471  0.2045
16479SOL    HW255274   1.369   0.255   7.406 -0.0459 -0.2108 -0.3398
16480SOL     OW55275   0.222   2.957   4.038 -0.0683 -0.2659 -0.6059
16480SOL    HW155276   0.286   2.930   4.104 -0.3048 -0.4835 -0.4611
16480SOL    HW255277   0.187   2.874   4.003 -0.1374 -0.1507 -0.8132
16481SOL     OW55278  10.308   6.939   1.739  0.1956 -0.1215 -0.0496
16481SOL    HW155279  10.364   6.890   1.800  0.4095 -1.6561 -1.4003
16481SOL    HW255280  10.225   6.891   1.740  0.8397 -1.4410 -2.4018
16482SOL     OW55281   5.307   8.314   1.406  0.3469  0.2394  0.4950
16482SOL    HW155282   5.366   8.303   1.480  1.4459 -0.5339 -0.4489
16482SOL    HW255283   5.322   8.237   1.351 -1.7619 -0.1223  0.3373
16483SOL     OW55284   5.013   9.795   1.812  0.7695  0.0981 -0.2364
16483SOL    HW155285   5.052   9.791   1.899  0.3678 -0.0774 -0.0630
16483SOL    HW255286   5.028   9.709   1.774 -0.9639 -0.5814  0.4991
16484SOL     OW55287   4.546  10.192   5.273 -0.3328  0.0898 -0.1174
16484SOL    HW155288   4.480  10.125   5.254 -0.2281  0.2097 -0.9403
16484SOL    HW255289   4.577  10.171   5.361 -0.3250 -0.9166 -0.3534
16485SOL     OW55290   6.639   0.532   3.710  0.2570 -0.5393  0.2153
16485SOL    HW155291   6.713   0.472   3.708  0.0579 -0.7802  0.0158
16485SOL    HW255292   6.675   0.615   3.678 -0.0596 -1.2161 -2.1112
16486SOL     OW55293   1.249   3.540   1.633  0.1839  0.2410 -0.2393
16486SOL    HW155294   1.270   3.629   1.660 -0.1264  0.6274 -1.2334
16486SOL    HW255295   1.240   3.491   1.715 -2.6862  1.7889  0.5094
16487SOL     OW55296   2.441   8.085   4.500  0.0492  0.3391  0.1297
16487SOL    HW155297   2.535   8.080   4.515 -0.0683  2.6418  2.1473
16487SOL    HW255298   2.430   8.162   4.445 -0.7101  0.4870  0.4806
16488SOL     OW55299   8.798   0.909   7.502 -0.5006 -0.3347  0.1765
16488SOL    HW155300   8.873   0.967   7.490 -1.4333  0.8262 -0.2912
16488SOL    HW255301   8.741   0.928   7.427 -1.0914 -1.4619  0.3210
16489SOL     OW55302   4.549   9.148   1.474 -0.0063  0.2286 -0.8373
16489SOL    HW155303   4.463   9.170   1.437 -0.8506  0.5401  1.1872
16489SOL    HW255304   4.546   9.053   1.486 -0.7111  0.4149  0.6601
16490SOL     OW55305   8.097   8.440   5.619 -0.7252  0.6754  0.0677
16490SOL    HW155306   8.130   8.528   5.601 -0.8599  0.6192 -0.4720
16490SOL    HW255307   8.016   8.434   5.569  0.0556 -0.2786 -1.1473
16491SOL     OW55308   5.672   1.657   4.888 -0.2923  0.0155  0.3028
16491SOL    HW155309   5.714   1.581   4.929  0.2327 -0.1125 -0.4493
16491SOL    HW255310   5.618   1.620   4.818  1.0487  0.4071 -0.9814
16492SOL     OW55311   7.872  10.161   7.232 -0.0758 -0.2704 -0.4958
16492SOL    HW155312   7.827  10.212   7.165  1.1806 -0.1772 -1.3039
16492SOL    HW255313   7.825  10.181   7.313 -0.9647  0.4457 -1.1656
16493SOL     OW55314   7.678   0.576  10.518  0.1828  0.4699  0.7230
16493SOL    HW155315   7.754   0.520  10.533  0.1408  0.4943  1.0352
16493SOL    HW255316   7.703   0.632  10.444  0.0802 -0.2163  0.1607
16494SOL     OW55317   8.627   5.220   9.468  0.1856  0.3727 -0.0824
16494SOL    HW155318   8.690   5.193   9.400  0.1471  1.3283 -0.5153
16494SOL    HW255319   8.594   5.305   9.438 -1.8354 -0.4016 -0.2072
16495SOL     OW55320   4.210   3.918   3.086  0.1238 -0.0183 -0.0987
16495SOL    HW155321   4.130   3.869   3.103 -0.3855  1.3139  1.6565
16495SOL    HW255322   4.193   3.965   3.004 -0.8735  0.1698  0.2077
16496SOL     OW55323  10.696   0.117   9.269 -0.1302 -0.4184 -0.0594
16496SOL    HW155324  10.661   0.129   9.357  1.4418 -0.2530  0.5829
16496SOL    HW255325  10.627   0.148   9.211 -1.8022 -1.8983  1.0247
16497SOL     OW55326   2.763   5.008   3.974 -0.0967 -0.3088  0.4980
16497SOL    HW155327   2.742   4.921   3.940  1.2134 -0.8091  0.9160
16497SOL    HW255328   2.840   4.994   4.029 -2.4426  0.2940  4.3053
16498SOL     OW55329   2.667  10.135   2.543 -0.1189 -0.1689 -0.3831
16498SOL    HW155330   2.747  10.120   2.494 -0.3481  0.8066 -1.1000
16498SOL    HW255331   2.619  10.053   2.538  0.2388 -0.3392 -1.0858
16499SOL     OW55332   6.502   6.071   1.654 -0.5406  0.1724  0.8120
16499SOL    HW155333   6.582   6.021   1.672 -1.0120 -1.1993 -0.6615
16499SOL    HW255334   6.498   6.076   1.558 -2.4766 -0.2344  0.8300
16500SOL     OW55335  10.722  10.150   9.770  0.2402  0.9174 -0.1841
16500SOL    HW155336  10.734  10.155   9.864 -0.5399 -0.7075  0.0280
16500SOL    HW255337  10.639  10.194   9.754 -0.9817 -1.1153  0.2597
16501SOL     OW55338   0.278   0.784   6.720  0.0270 -0.4120  0.0022
16501SOL    HW155339   0.183   0.793   6.734 -0.4167 -1.1412 -2.1562
16501SOL    HW255340   0.304   0.866   6.679 -0.4802 -1.5477 -2.8536
16502SOL     OW55341   8.551   5.816   0.770 -0.1383 -0.2829 -0.2719
16502SOL    HW155342   8.570   5.762   0.693 -1.3839 -1.5021  0.2312
16502SOL    HW255343   8.631   5.866   0.785  0.0295  0.2176 -2.5309
16503SOL     OW55344   5.102   5.484   8.606  0.2093 -0.0677 -0.0404
16503SOL    HW155345   5.135   5.453   8.690  1.8869 -0.8030 -0.9194
16503SOL    HW255346   5.161   5.556   8.582 -0.1594  0.0381 -0.6467
16504SOL     OW55347   1.353   9.120   1.086 -0.1226 -0.8633 -0.0734
16504SOL    HW155348   1.347   9.054   1.155 -1.3224 -0.5266  0.1749
16504SOL    HW255349   1.273   9.173   1.096  1.1605  1.1318  0.2379
16505SOL     OW55350   3.769   2.304   3.647  0.2337 -0.5215 -0.0506
16505SOL    HW155351   3.683   2.278   3.679 -0.6852  1.4264 -0.7860
16505SOL    HW255352   3.806   2.358   3.717  1.3022 -2.1203  0.6631
16506SOL     OW55353   6.395   4.178  10.595  0.2563  0.2551  0.5462
16506SOL    HW155354   6.470   4.185  10.654  3.4505 -1.0447 -2.9529
16506SOL    HW255355   6.375   4.268  10.571  1.2409  0.5945  0.9464
16507SOL     OW55356   7.907   4.283   0.403 -0.4423  0.2314  0.4720
16507SOL    HW155357   7.864   4.240   0.477 -0.7435 -1.1299 -0.4722
16507SOL    HW255358   7.905   4.219   0.332 -1.1764  1.8802 -1.0993
16508SOL     OW55359   1.911   6.244   8.582  0.4055 -0.2417 -0.2640
16508SOL    HW155360   1.866   6.319   8.545 -1.3711 -2.2685 -2.5634
16508SOL    HW255361   1.861   6.221   8.661 -1.1857 -0.9877 -1.4380
16509SOL     OW55362   6.881   8.411   0.161 -0.1126  0.2683 -0.2745
16509SOL    HW155363   6.812   8.386   0.222 -0.1349 -0.7529 -0.6843
16509SOL    HW255364   6.944   8.461   0.213 -0.4236 -0.0820  0.4400
16510SOL     OW55365   2.324   4.890   1.340 -0.3711  0.0786 -0.8609
16510SOL    HW155366   2.251   4.941   1.375 -1.6475 -1.5669 -1.0194
16510SOL    HW255367   2.345   4.931   1.256 -1.1194  0.5768 -0.8067
16511SOL     OW55368   7.091   5.343   0.290 -0.8651 -0.5042  0.0964
16511SOL    HW155369   7.169   5.350   0.234 -0.8246  1.8996  0.3729
16511SOL    HW255370   7.021   5.383   0.239 -1.3917 -0.5442  0.7849
16512SOL     OW55371   1.417   2.170   1.154 -0.4540 -0.0814  0.1206
16512SOL    HW155372   1.501   2.131   1.129  1.3036  3.1102  0.5106
16512SOL    HW255373   1.379   2.200   1.072  0.5304  1.5340  0.2083
16513SOL     OW55374   6.684   3.235   0.618 -0.8139 -0.5950 -0.0499
16513SOL    HW155375   6.741   3.193   0.683  0.2805  0.6084 -0.2085
16513SOL    HW255376   6.666   3.321   0.654 -2.1129 -0.7571 -0.2695
16514SOL     OW55377   6.458   1.958   4.450 -0.1698 -0.5630  0.3605
16514SOL    HW155378   6.492   1.872   4.476  2.0535 -0.5330 -1.9355
16514SOL    HW255379   6.537   2.011   4.436 -1.2653  0.6170 -1.9992
16515SOL     OW55380   4.779  10.273   9.324 -0.3548 -0.1889 -0.2395
16515SOL    HW155381   4.795  10.360   9.288 -0.7407 -0.1379 -0.2951
16515SOL    HW255382   4.730  10.227   9.256  0.0993 -0.5534 -0.3295
16516SOL     OW55383   9.538   6.582   3.209 -0.1636 -0.5814 -0.3151
16516SOL    HW155384   9.449   6.549   3.201 -0.2559 -0.2817 -0.5910
16516SOL    HW255385   9.587   6.511   3.249 -0.8188 -0.2486  1.1626
16517SOL     OW55386   9.169   2.319   0.826 -0.2932 -0.2054 -0.2516
16517SOL    HW155387   9.228   2.269   0.882 -2.0366 -1.3190  0.6948
16517SOL    HW255388   9.172   2.408   0.862 -0.4951 -0.6453  0.9005
16518SOL     OW55389   1.790   8.019   7.110 -0.5871  0.3028  0.7618
16518SOL    HW155390   1.789   8.040   7.016  0.6522  0.0713  0.6855
16518SOL    HW255391   1.726   8.080   7.148 -2.3299 -0.6853 -0.4167
16519SOL     OW55392   2.723   4.844  10.216  0.1750  0.5480  0.0933
16519SOL    HW155393   2.771   4.864  10.136  1.3984  1.5858  1.0417
16519SOL    HW255394   2.775   4.775  10.258 -0.2976  0.2162  0.1356
16520SOL     OW55395   3.449   4.612   9.498 -0.1062  0.0880 -0.1577
16520SOL    HW155396   3.353   4.617   9.503  0.0096  1.8399  1.2597
16520SOL    HW255397   3.474   4.563   9.576  0.1285 -1.6235 -1.2566
16521SOL     OW55398   6.398   1.297   1.982  0.3253 -0.2326 -0.4193
16521SOL    HW155399   6.339   1.285   2.057  0.2171 -2.0595 -0.7338
16521SOL    HW255400   6.348   1.350   1.921 -0.5915 -0.8458 -0.2288
16522SOL     OW55401   9.308   2.145   7.178  0.0533  0.4986  0.1786
16522SOL    HW155402   9.268   2.178   7.259  0.5728  0.5403  0.4262
16522SOL    HW255403   9.235   2.114   7.125 -0.5994  3.1474 -0.5915
16523SOL     OW55404   9.155   9.387   5.996  0.4994 -0.2996 -0.3522
16523SOL    HW155405   9.122   9.393   6.086  0.5890  1.3126 -0.4047
16523SOL    HW255406   9.209   9.465   5.985 -1.2859  0.7474 -2.4964
16524SOL     OW55407   1.615   9.430   3.076  0.1831  0.4714 -0.3205
16524SOL    HW155408   1.646   9.454   2.989  0.1462  0.8842 -0.2225
16524SOL    HW255409   1.659   9.491   3.135  0.1107  0.2769 -0.0606
16525SOL     OW55410   7.240   4.636   9.081 -0.3075 -0.1794  0.3377
16525SOL    HW155411   7.242   4.730   9.063 -0.8970 -0.0883  0.7474
16525SOL    HW255412   7.173   4.625   9.148 -0.4311 -0.9279  0.1026
16526SOL     OW55413   8.445   7.067   7.773  0.0643  0.0601  0.2336
16526SOL    HW155414   8.484   7.133   7.715  2.0385 -0.1125  1.3019
16526SOL    HW255415   8.466   7.097   7.861  1.4274 -2.1833  0.7534
16527SOL     OW55416  10.163   6.872  10.408 -0.4355  0.1511 -0.7502
16527SOL    HW155417  10.152   6.940  10.474 -0.7167 -1.1178  0.5382
16527SOL    HW255418  10.234   6.904  10.352  1.3302  0.2859  1.4517
16528SOL     OW55419   7.422   2.087   8.191  0.6914 -0.1325  0.2533
16528SOL    HW155420   7.501   2.088   8.245  0.9181  2.3531 -0.0018
16528SOL    HW255421   7.449   2.125   8.108 -0.2667 -1.4828 -0.7217
16529SOL     OW55422   0.228   4.571   8.966 -0.4252  0.3043  0.0204
16529SOL    HW155423   0.264   4.660   8.963  0.6189 -0.1256 -1.1219
16529SOL    HW255424   0.194   4.556   8.878  0.2162 -0.7271 -0.0680
16530SOL     OW55425   4.313   3.030   1.078 -0.1500 -0.5596 -0.0364
16530SOL    HW155426   4.228   3.073   1.090 -1.3000 -2.0406 -2.2387
16530SOL    HW255427   4.373   3.102   1.060 -1.6659  0.3297 -1.8962
16531SOL     OW55428   3.946   1.232   8.985 -0.2266  0.4147  0.1103
16531SOL    HW155429   4.027   1.262   8.945  0.2097 -1.1853 -0.2585
16531SOL    HW255430   3.895   1.196   8.912 -0.8779  0.5627  0.4832
16532SOL     OW55431   9.685   5.415   1.335 -0.5368  0.1610  0.3305
16532SOL    HW155432   9.734   5.341   1.370 -0.7307 -0.5124 -0.7846
16532SOL    HW255433   9.750   5.484   1.324  0.1707 -0.6656 -0.9645
16533SOL     OW55434   7.655   4.750   6.787  0.3634 -0.2832  0.7376
16533SOL    HW155435   7.624   4.839   6.766  1.3244 -0.2015 -0.4699
16533SOL    HW255436   7.578   4.695   6.775 -0.2976  0.3949  1.6866
16534SOL     OW55437   7.993   1.953   3.241  0.3618  0.1325  0.2628
16534SOL    HW155438   7.917   1.926   3.190  1.7972 -1.4994 -1.1435
16534SOL    HW255439   7.974   2.044   3.266 -1.7583 -0.0395 -0.5249
16535SOL     OW55440  10.562   8.269   2.804 -0.0756  0.1673 -0.6924
16535SOL    HW155441  10.627   8.293   2.738  0.2677 -1.3089 -0.9478
16535SOL    HW255442  10.494   8.224   2.754  1.2052 -2.9500  0.0771
16536SOL     OW55443  10.834   4.078   5.864 -0.1449  0.4574 -0.3490
16536SOL    HW155444  10.900   4.016   5.832  1.2580  1.2128  0.9131
16536SOL    HW255445  10.854   4.088   5.957 -2.0871  0.7141  0.0817
16537SOL     OW55446   0.663   5.353   6.782  0.5042 -0.4009 -0.5638
16537SOL    HW155447   0.758   5.353   6.798  0.4288 -0.4879 -0.0879
16537SOL    HW255448   0.654   5.351   6.687  0.9745 -1.1621 -0.5953
16538SOL     OW55449   3.613   9.132   7.660  0.4908 -0.3611 -0.1032
16538SOL    HW155450   3.649   9.220   7.653  1.0383 -0.4938  0.8297
16538SOL    HW255451   3.523   9.140   7.629  0.7226  0.3923 -0.6090
16539SOL     OW55452   8.259   0.207   1.327  0.1134 -0.0262 -0.2609
16539SOL    HW155453   8.166   0.230   1.320 -0.4062 -1.8313  0.1551
16539SOL    HW255454   8.283   0.230   1.416  0.2860  1.1306 -0.5922
16540SOL     OW55455   6.365   5.480   5.286 -0.3409 -0.4339  0.0225
16540SOL    HW155456   6.404   5.559   5.248  0.1844 -0.8430 -0.3067
16540SOL    HW255457   6.294   5.512   5.340  0.5139  0.3551  0.7196
16541SOL     OW55458   2.933   7.620  10.000 -0.3833  0.2177  0.4996
16541SOL    HW155459   2.878   7.659  10.068 -1.7685  0.7667 -0.8837
16541SOL    HW255460   2.882   7.547   9.966  1.5043 -1.9254  1.9387
16542SOL     OW55461   2.086   3.139   8.154  0.0664 -0.0211 -0.3168
16542SOL    HW155462   2.140   3.144   8.075  2.0458  0.0538  0.9704
16542SOL    HW255463   2.099   3.224   8.197  0.8772 -0.8500  1.1855
16543SOL     OW55464   2.213   3.220   7.876 -0.6705  0.1888 -0.0880
16543SOL    HW155465   2.178   3.226   7.787  0.4020  2.1014 -0.4173
16543SOL    HW255466   2.164   3.286   7.925  1.6160  2.1716 -0.3142
16544SOL     OW55467   8.250   1.733   0.640 -0.3037  0.0510 -0.6635
16544SOL    HW155468   8.332   1.684   0.643 -0.2426 -0.1276 -3.1628
16544SOL    HW255469   8.182   1.669   0.660  0.0544 -0.1094  0.0547
16545SOL     OW55470   3.316   3.949   3.532 -0.1765 -0.0148 -0.1237
16545SOL    HW155471   3.300   3.892   3.457  0.0423  0.9574 -0.9365
16545SOL    HW255472   3.229   3.977   3.561 -0.3351 -1.3900  0.8112
16546SOL     OW55473   9.898   0.999   4.239 -0.1867 -0.2089  0.5926
16546SOL    HW155474   9.882   0.917   4.193  0.6965  0.3147 -0.7412
16546SOL    HW255475   9.955   1.048   4.179  2.0737  0.0183  2.7807
16547SOL     OW55476   8.573   2.799   2.465 -0.0251 -0.7535  0.5473
16547SOL    HW155477   8.566   2.776   2.372  0.7262 -2.4955  0.8687
16547SOL    HW255478   8.552   2.892   2.469 -0.2696 -0.6912 -1.3387
16548SOL     OW55479   0.149   9.351   8.602 -0.3389 -0.3580 -0.2301
16548SOL    HW155480   0.072   9.320   8.649  0.2565 -0.3009  0.8172
16548SOL    HW255481   0.223   9.318   8.653  0.3256  0.1586 -0.8339
16549SOL     OW55482   2.638   3.256   0.607 -0.2634  0.3683 -1.1571
16549SOL    HW155483   2.709   3.278   0.667 -1.4547  1.0501  0.0808
16549SOL    HW255484   2.653   3.164   0.584  0.6592  0.3162 -0.4058
16550SOL     OW55485   1.488   2.807   0.682 -0.0529  0.1280  0.1986
16550SOL    HW155486   1.395   2.785   0.692 -0.3976  1.9492  1.4514
16550SOL    HW255487   1.513   2.766   0.600 -2.6766  1.7776 -1.5812
16551SOL     OW55488  10.359   5.162   7.820  0.0692  0.5935  0.4725
16551SOL    HW155489  10.356   5.098   7.891  0.0726  0.6505  0.5243
16551SOL    HW255490  10.331   5.244   7.860  0.5846  0.7415  0.5369
16552SOL     OW55491   0.152   1.164   3.358  0.5720 -0.0322  0.0240
16552SOL    HW155492   0.062   1.154   3.327  0.4501 -3.5866  1.0805
16552SOL    HW255493   0.196   1.084   3.330  2.7370  0.4765  1.6969
16553SOL     OW55494   1.408   8.833   1.226  0.1050 -0.7314 -0.0722
16553SOL    HW155495   1.437   8.829   1.317 -0.3307 -0.5718  0.0746
16553SOL    HW255496   1.476   8.787   1.177 -0.0525 -1.5044  0.4240
16554SOL     OW55497   3.235   7.733   4.223  0.5767 -0.0508 -0.5824
16554SOL    HW155498   3.146   7.768   4.220  0.6520  0.9141  3.1977
16554SOL    HW255499   3.251   7.715   4.315  3.6885 -1.9967 -1.3413
16555SOL     OW55500   3.141   9.756   3.986  0.2794 -0.0936 -0.1603
16555SOL    HW155501   3.196   9.678   3.991 -1.9571 -1.8441 -1.1854
16555SOL    HW255502   3.183   9.810   3.919  0.6111 -1.5078 -1.1391
16556SOL     OW55503   5.010   5.929   3.373 -0.0890 -0.4190 -0.0703
16556SOL    HW155504   4.947   5.925   3.445  0.7737 -3.9800  0.6812
16556SOL    HW255505   4.996   6.015   3.334 -2.9139  0.3431  2.2439
16557SOL     OW55506   9.189   9.887   0.292 -0.6653 -0.0463  0.1521
16557SOL    HW155507   9.200   9.792   0.302 -0.6988  0.1843  3.1134
16557SOL    HW255508   9.278   9.921   0.284 -0.3988 -0.1152  2.2488
16558SOL     OW55509   8.452   7.302   9.698  0.2667 -0.3259 -0.2969
16558SOL    HW155510   8.495   7.228   9.739  1.3798  0.1704 -0.5424
16558SOL    HW255511   8.373   7.316   9.750  0.1566 -1.5355 -0.1187
16559SOL     OW55512   6.171   6.625   7.573  0.5555  0.1059 -0.0485
16559SOL    HW155513   6.157   6.536   7.542  0.0005  0.1789 -0.0176
16559SOL    HW255514   6.136   6.625   7.662  1.1996  0.1699  0.2152
16560SOL     OW55515   2.054   6.638   2.236  0.6063 -0.1485 -0.1646
16560SOL    HW155516   1.960   6.647   2.220  0.4633  1.2305  1.1918
16560SOL    HW255517   2.092   6.719   2.201  1.2618 -0.6266 -0.5573
16561SOL     OW55518  10.382   1.479   5.624  0.6431  0.2141  0.3054
16561SOL    HW155519  10.378   1.479   5.719 -1.0686 -0.2935  0.2531
16561SOL    HW255520  10.430   1.399   5.602  1.1075  0.3700  0.7195
16562SOL     OW55521   7.800   3.406   2.007 -0.3120 -0.7158  0.1462
16562SOL    HW155522   7.774   3.385   1.918 -0.8033 -0.2425  0.1704
16562SOL    HW255523   7.889   3.440   2.000 -0.0193 -1.4869 -0.0514
16563SOL     OW55524   4.462   9.156   0.635  0.1377 -0.8115  0.1792
16563SOL    HW155525   4.375   9.178   0.601  0.0902 -0.0099  0.7971
16563SOL    HW255526   4.493   9.236   0.676  0.5197 -1.5158  1.3327
16564SOL     OW55527   9.099   5.872   5.496 -0.2631 -0.3244 -0.4879
16564SOL    HW155528   9.086   5.828   5.581  0.0716  1.2815  0.4450
16564SOL    HW255529   9.163   5.818   5.451 -0.4610 -1.2325  0.2703
16565SOL     OW55530   8.591   7.618   7.525 -0.1633  0.0874  0.0935
16565SOL    HW155531   8.539   7.541   7.548  0.1704 -0.5071 -1.0644
16565SOL    HW255532   8.529   7.677   7.482 -0.3569  0.3527  0.7291
16566SOL     OW55533   7.991   9.647   7.485  0.7939  0.0533 -0.3204
16566SOL    HW155534   8.029   9.683   7.405  0.0311  0.3920 -0.5420
16566SOL    HW255535   7.920   9.590   7.455  1.1046 -0.5607  0.0844
16567SOL     OW55536  10.060   4.245   2.857 -0.0106  0.3918  0.4456
16567SOL    HW155537  10.102   4.215   2.776  0.2506  0.6002  0.5019
16567SOL    HW255538  10.005   4.319   2.830  0.4198  0.7453  0.5271
16568SOL     OW55539   7.612   2.864   3.529  0.2379 -0.6809 -0.1962
16568SOL    HW155540   7.630   2.916   3.451 -0.4086  1.0519  0.7535
16568SOL    HW255541   7.694   2.818   3.547  1.3128  1.0849 -0.3053
16569SOL     OW55542   3.154  10.430   8.771  1.0269  0.3085 -0.0040
16569SOL    HW155543   3.086  10.479   8.726  0.4718 -1.6013 -1.3989
16569SOL    HW255544   3.230  10.435   8.713  0.9814 -0.3828 -0.1363
16570SOL     OW55545   0.650   0.345   9.346 -0.0125 -0.6413 -0.1871
16570SOL    HW155546   0.732   0.295   9.349  1.7509  2.0594  0.2709
16570SOL    HW255547   0.652   0.389   9.261 -0.4271  0.3061  0.2824
16571SOL     OW55548   9.337   6.009   9.660 -0.1488 -0.3461  0.0511
16571SOL    HW155549   9.349   5.939   9.725  0.1499 -1.4590 -1.1753
16571SOL    HW255550   9.414   6.064   9.670 -0.7566  0.3003  1.5713
16572SOL     OW55551   2.698   3.549   5.734  0.3343  0.2872 -0.2337
16572SOL    HW155552   2.609   3.555   5.768  0.2266  0.5616 -0.5584
16572SOL    HW255553   2.717   3.455   5.731 -1.0182  0.0098 -2.9178
16573SOL     OW55554   2.995   3.648   4.468 -0.2765 -0.6570  0.0497
16573SOL    HW155555   3.084   3.614   4.464 -0.7942 -2.0603  0.1082
16573SOL    HW255556   2.950   3.608   4.394 -0.7038  0.5534 -0.3737
16574SOL     OW55557   1.456  10.329   7.222 -0.3826  0.1411 -0.4018
16574SOL    HW155558   1.516  10.284   7.162 -0.3056 -1.0175  0.5153
16574SOL    HW255559   1.374  10.337   7.173 -0.5439 -1.4439 -0.4247
16575SOL     OW55560   3.501   6.575   7.210 -0.8195 -0.2100  0.5129
16575SOL    HW155561   3.526   6.539   7.125  0.5216  1.5499  0.1017
16575SOL    HW255562   3.579   6.621   7.240 -2.2772  2.0258  1.1236
16576SOL     OW55563  10.654   8.023   3.570 -0.6382  0.2647 -0.1790
16576SOL    HW155564  10.608   7.943   3.596  0.1569 -0.5849 -1.2669
16576SOL    HW255565  10.626   8.039   3.480  0.6486  0.1022 -0.6358
16577SOL     OW55566   8.938   8.617   5.792  0.4073 -0.3729  0.2189
16577SOL    HW155567   8.982   8.616   5.707  1.1181  0.1381  0.5715
16577SOL    HW255568   8.873   8.686   5.785  0.6686 -0.1287  0.1900
16578SOL     OW55569  10.876   7.952   0.211 -0.2245  0.4321 -0.3775
16578SOL    HW155570  10.940   7.934   0.142 -0.8134  1.2384 -1.1603
16578SOL    HW255571  10.816   7.877   0.208  0.2526  0.0303 -0.1254
16579SOL     OW55572   8.258   2.616  10.035 -0.4020  0.3774  0.1781
16579SOL    HW155573   8.172   2.653  10.013 -1.0127  0.9107  3.1216
16579SOL    HW255574   8.320   2.682  10.004 -1.0081  0.0450 -1.8805
16580SOL     OW55575   3.480   2.084   6.675  0.3941  0.3183 -0.2062
16580SOL    HW155576   3.467   1.992   6.655  0.5524  0.0847  0.7147
16580SOL    HW255577   3.544   2.115   6.611 -0.1570 -0.0381 -0.9371
16581SOL     OW55578  10.589   6.907   9.068  0.1011 -0.5313  0.1903
16581SOL    HW155579  10.527   6.924   8.998  1.0061  1.7564 -0.1625
16581SOL    HW255580  10.657   6.853   9.028 -0.1392 -0.4762 -0.2914
16582SOL     OW55581  10.740  10.321   7.241  0.3922  0.5264 -0.2439
16582SOL    HW155582  10.766  10.355   7.155 -0.3276 -1.6443 -1.3630
16582SOL    HW255583  10.649  10.296   7.231  0.2441  0.4008  1.2241
16583SOL     OW55584   4.816  10.823   6.430 -0.3524  0.2823  0.0236
16583SOL    HW155585   4.871  10.876   6.487  1.1129 -1.7508  0.6271
16583SOL    HW255586   4.780  10.755   6.487 -0.5984 -0.5419 -1.0632
16584SOL     OW55587   8.727   6.158   5.762  0.0537  0.3280  0.2763
16584SOL    HW155588   8.695   6.191   5.846  1.2008 -3.0624  2.2110
16584SOL    HW255589   8.650   6.160   5.705 -1.2993  0.7686  2.0298
16585SOL     OW55590   1.472   0.036   9.865 -0.6931  0.7747  0.3022
16585SOL    HW155591   1.529   0.020   9.940  1.8215 -0.0570 -1.6718
16585SOL    HW255592   1.396  -0.021   9.880  1.0659 -1.5366  0.8606
16586SOL     OW55593   1.445   7.726   8.886  0.1895 -0.1722 -0.1324
16586SOL    HW155594   1.405   7.691   8.965 -0.6129 -0.0855 -0.4896
16586SOL    HW255595   1.514   7.663   8.864  0.2521 -0.3253  0.4850
16587SOL     OW55596   0.032   8.481   8.238 -0.4783 -0.1650 -0.5725
16587SOL    HW155597   0.035   8.539   8.162  1.5885 -0.0199 -0.4281
16587SOL    HW255598   0.113   8.430   8.234 -1.3120 -1.6686  0.3958
16588SOL     OW55599   8.274   6.536   7.499 -0.1633  0.4986  0.3337
16588SOL    HW155600   8.326   6.457   7.485 -2.2079 -0.5148 -2.1784
16588SOL    HW255601   8.260   6.538   7.594 -0.8347 -2.7346  0.4174
16589SOL     OW55602   1.221   4.265   6.036  0.4949 -0.2183  0.0175
16589SOL    HW155603   1.158   4.206   6.077  0.4349 -0.3406 -0.2516
16589SOL    HW255604   1.201   4.260   5.943  1.6762 -1.1933 -0.2103
16590SOL     OW55605   3.236   7.812   5.274 -0.5972  0.1226  0.3128
16590SOL    HW155606   3.233   7.903   5.302 -3.3488  0.0123  0.7444
16590SOL    HW255607   3.147   7.794   5.244  0.0540 -2.2362 -0.4162
16591SOL     OW55608   7.161   4.142   4.481  0.2565 -0.5267  0.0603
16591SOL    HW155609   7.114   4.105   4.555 -0.5083  0.5235  0.1177
16591SOL    HW255610   7.227   4.076   4.459 -0.6890 -1.6591  0.5119
16592SOL     OW55611   0.255   3.992   5.410 -0.5049 -0.6888 -0.0266
16592SOL    HW155612   0.169   4.033   5.413  0.2990  1.1699 -0.3838
16592SOL    HW255613   0.299   4.023   5.490 -0.4427 -2.3366  0.6125
16593SOL     OW55614   1.954   6.828   8.986  0.5776 -0.5566  0.5452
16593SOL    HW155615   1.868   6.803   9.021  0.3422 -2.2827 -1.0575
16593SOL    HW255616   1.966   6.919   9.013 -2.4185  0.2335 -0.3405
16594SOL     OW55617   2.213   1.870   7.620 -0.0995  0.1994 -0.7814
16594SOL    HW155618   2.258   1.824   7.691  0.8831  2.0856 -0.1053
16594SOL    HW255619   2.228   1.816   7.543  2.6173  0.2588 -0.4074
16595SOL     OW55620   1.286   8.694  10.782 -0.2340 -0.5520 -0.4050
16595SOL    HW155621   1.226   8.690  10.707 -0.3051  0.9437 -0.4518
16595SOL    HW255622   1.367   8.653  10.750 -0.9809 -2.0158 -0.5403
16596SOL     OW55623   4.132   4.832   2.361  0.1504  0.5557  0.5505
16596SOL    HW155624   4.064   4.855   2.299 -0.7734  0.4080  1.4876
16596SOL    HW255625   4.086   4.789   2.433  1.2500  0.2859  1.1209
16597SOL     OW55626   5.826   6.414   8.066 -0.2291 -0.3137 -0.1156
16597SOL    HW155627   5.781   6.492   8.100 -1.5885 -0.0735 -2.2972
16597SOL    HW255628   5.803   6.344   8.128 -1.3937  0.3992  0.2870
16598SOL     OW55629   2.974  10.899   1.376  0.6808 -0.0457  0.1251
16598SOL    HW155630   3.022  10.981   1.364  1.9599 -0.9688 -1.5111
16598SOL    HW255631   3.015  10.858   1.452  2.0642 -0.4742 -0.8077
16599SOL     OW55632   2.708   7.635   0.670  0.0132 -0.5664  0.2948
16599SOL    HW155633   2.803   7.630   0.673  0.0744 -3.1438 -2.1606
16599SOL    HW255634   2.684   7.688   0.747  3.3447 -0.0829  1.1444
16600SOL     OW55635   3.045   4.774   8.297  0.3904  0.2645  0.7219
16600SOL    HW155636   3.112   4.803   8.359  0.3270  0.9913  0.4617
16600SOL    HW255637   3.071   4.684   8.274  0.5558  0.0835  1.5882
16601SOL     OW55638   2.885  10.747   0.937 -0.2561  0.0007 -0.1352
16601SOL    HW155639   2.849  10.771   0.851 -0.8698  0.7337  0.3078
16601SOL    HW255640   2.890  10.652   0.935  0.9583  0.0663 -1.4608
16602SOL     OW55641   7.940   9.946   7.610  0.0710 -0.2403  0.3272
16602SOL    HW155642   7.977   9.867   7.570  1.0563 -0.7720  2.2009
16602SOL    HW255643   7.977   9.949   7.698 -0.6260  1.8580  0.6148
16603SOL     OW55644   0.300   1.431   6.539 -0.4290  0.2163  0.4215
16603SOL    HW155645   0.324   1.476   6.458 -0.3435 -0.4823  0.0446
16603SOL    HW255646   0.309   1.338   6.518 -0.6341  0.0188  1.1660
16604SOL     OW55647   0.921   7.622   6.504 -0.2372 -0.0455  0.0924
16604SOL    HW155648   0.899   7.640   6.412  2.0890  1.2345 -0.3026
16604SOL    HW255649   0.998   7.566   6.500  0.1838  0.4121  1.2456
16605SOL     OW55650   7.069   6.253   5.398  0.5903  0.3287  0.0260
16605SOL    HW155651   7.058   6.161   5.376 -1.0209  0.0539  1.6664
16605SOL    HW255652   7.143   6.255   5.459 -1.4203 -0.5067  2.7382
16606SOL     OW55653  10.083   3.243   7.614 -0.2828  0.0794  0.2961
16606SOL    HW155654  10.174   3.270   7.606  0.0516 -1.1685 -0.5430
16606SOL    HW255655  10.033   3.324   7.610  0.7950  0.7895  0.8723
16607SOL     OW55656   7.473   3.503   9.566 -0.0263  0.3747  0.0019
16607SOL    HW155657   7.382   3.481   9.587  0.0263  1.3409  1.4133
16607SOL    HW255658   7.520   3.420   9.576 -0.5143  0.1873  0.9056
16608SOL     OW55659   8.151  10.503   7.369 -0.0198  0.3124  0.4187
16608SOL    HW155660   8.079  10.514   7.432 -2.1339  1.8767 -2.0332
16608SOL    HW255661   8.206  10.581   7.382  1.7721 -1.1906  2.7313
16609SOL     OW55662  10.677   4.931   3.865  0.0091  0.5868 -0.2592
16609SOL    HW155663  10.658   4.987   3.940  0.1523  0.8883 -0.4452
16609SOL    HW255664  10.610   4.862   3.869 -0.2777  0.8712 -0.1310
16610SOL     OW55665   1.417   7.322   4.087 -0.0058 -0.0362  0.2000
16610SOL    HW155666   1.493   7.376   4.067  0.3808  0.5477  2.8027
16610SOL    HW255667   1.454   7.238   4.115 -0.3079  0.1387  1.1664
16611SOL     OW55668   5.216   4.301   7.180  0.6929  0.7393  0.3458
16611SOL    HW155669   5.172   4.220   7.206  0.7821  0.5002 -0.2435
16611SOL    HW255670   5.148   4.351   7.134  1.3453 -0.1809 -1.7071
16612SOL     OW55671   5.356   6.580   8.930 -0.0001 -0.4486  0.4047
16612SOL    HW155672   5.356   6.485   8.912 -1.9261  0.0230 -2.8934
16612SOL    HW255673   5.284   6.593   8.991  1.5739 -1.2314  2.5694
16613SOL     OW55674   1.004   0.468   2.927  0.5060  0.4514  0.7224
16613SOL    HW155675   1.030   0.437   2.840  1.3752  1.8517  0.4623
16613SOL    HW255676   0.914   0.437   2.937  0.7952 -0.7700 -0.1540
16614SOL     OW55677   2.883   6.469   8.733 -0.4479 -0.4429  0.5574
16614SOL    HW155678   2.916   6.396   8.785  1.8298 -0.8179 -1.2524
16614SOL    HW255679   2.823   6.428   8.671  0.6359 -0.8010 -0.2912
16615SOL     OW55680   2.900   3.902   2.730 -0.6609  0.1607 -0.3451
16615SOL    HW155681   2.875   3.960   2.658 -2.0244 -1.1768 -1.0037
16615SOL    HW255682   2.818   3.881   2.774  0.0493  0.2380  1.0860
16616SOL     OW55683   7.886   9.075   9.529  0.1844  0.2221 -0.8001
16616SOL    HW155684   7.917   9.005   9.587 -1.8585 -1.1357 -1.2494
16616SOL    HW255685   7.905   9.043   9.441 -2.4563 -0.7483 -1.1027
16617SOL     OW55686   1.186   8.117   5.447  0.3809 -0.1773  0.1330
16617SOL    HW155687   1.191   8.040   5.503  0.6946  0.0139  0.3698
16617SOL    HW255688   1.276   8.132   5.418  0.4066  0.3946  0.4955
16618SOL     OW55689   7.163   0.993   6.051  0.3528 -0.0189 -0.3417
16618SOL    HW155690   7.206   1.076   6.070  1.2746 -0.6800  0.5052
16618SOL    HW255691   7.224   0.947   5.994  0.2548 -0.4860 -0.0741
16619SOL     OW55692   9.173   6.886   0.649 -0.1240 -0.0780 -0.2948
16619SOL    HW155693   9.172   6.968   0.699 -2.4589 -0.3935  0.2656
16619SOL    HW255694   9.139   6.911   0.563 -0.6439 -0.4221 -0.1891
16620SOL     OW55695   6.203   1.213   6.364  0.0666  0.5314  0.2848
16620SOL    HW155696   6.200   1.263   6.282 -1.3877  0.3269  0.1914
16620SOL    HW255697   6.138   1.256   6.420  1.1219  0.7359  1.3924
16621SOL     OW55698   2.993   9.960  10.262  0.5018 -0.3039 -0.2858
16621SOL    HW155699   2.898   9.960  10.278  0.5466  2.2142  0.4910
16621SOL    HW255700   3.013   9.871  10.236 -2.4274 -0.4317 -2.6270
16622SOL     OW55701   8.496   0.867   9.499  0.1997  0.0588  0.5281
16622SOL    HW155702   8.537   0.815   9.568 -0.2473 -0.3981  0.4592
16622SOL    HW255703   8.416   0.901   9.540  0.5822  0.8435  0.6269
16623SOL     OW55704  10.210   3.833   7.507  0.2128 -0.4912  0.3502
16623SOL    HW155705  10.205   3.774   7.431  1.6007  0.4634 -0.5344
16623SOL    HW255706  10.122   3.869   7.514  0.0379 -0.6278 -0.8013
16624SOL     OW55707   4.433   5.250   7.043  0.2845  0.6805  0.8840
16624SOL    HW155708   4.398   5.265   6.955  0.3424 -0.4964  0.6465
16624SOL    HW255709   4.492   5.176   7.033  0.1180  0.3849  1.9592
16625SOL     OW55710   0.514   1.425   5.247 -0.4741  0.1073 -0.2442
16625SOL    HW155711   0.605   1.403   5.262 -0.7784  0.0704  1.8115
16625SOL    HW255712   0.516   1.518   5.223  0.0011  0.6976  1.8477
16626SOL     OW55713  10.804   6.201   3.486 -0.6247  0.3460  0.3413
16626SOL    HW155714  10.718   6.159   3.490 -1.3981  1.6520 -1.1049
16626SOL    HW255715  10.800   6.271   3.551 -0.5206  0.1952  0.5115
16627SOL     OW55716   4.489   3.611   0.040 -0.5390  0.3179 -0.0825
16627SOL    HW155717   4.480   3.561   0.121 -0.2359 -0.1379 -0.3224
16627SOL    HW255718   4.477   3.703   0.067  0.5922  0.2720  0.6656
16628SOL     OW55719   8.287  10.106   4.560  0.3870  0.3038  0.2303
16628SOL    HW155720   8.193  10.089   4.568  0.6530 -0.6895  1.6230
16628SOL    HW255721   8.311  10.144   4.644  1.5766 -1.2385  0.6145
16629SOL     OW55722   6.670   4.375   4.089  0.5521  0.0797  0.1686
16629SOL    HW155723   6.684   4.281   4.076 -1.8187 -0.1887 -0.9410
16629SOL    HW255724   6.668   4.411   4.000 -1.7923  0.6042  0.3731
16630SOL     OW55725   2.579  10.745   8.852 -0.1970 -0.1124  0.1560
16630SOL    HW155726   2.548  10.752   8.943 -0.0290 -0.1153  0.2144
16630SOL    HW255727   2.616  10.831   8.833  1.1645 -0.5594  0.6098
16631SOL     OW55728   4.703   8.357   6.749 -0.7532  0.2731  0.0592
16631SOL    HW155729   4.640   8.423   6.718 -1.4123 -1.1715 -1.8399
16631SOL    HW255730   4.683   8.279   6.698  2.6713 -0.2418 -0.7297
16632SOL     OW55731   8.593   2.582   3.700  0.6531 -0.3477  0.6358
16632SOL    HW155732   8.673   2.531   3.688  0.4097 -0.3893 -1.0826
16632SOL    HW255733   8.527   2.534   3.651  0.0020  0.6457  0.5112
16633SOL     OW55734   7.376   1.777   8.126  0.6934  0.1705  0.8921
16633SOL    HW155735   7.443   1.841   8.104  0.3490 -0.2482 -1.6563
16633SOL    HW255736   7.371   1.779   8.221  2.4343  2.1110  1.0012
16634SOL     OW55737   1.792   3.877   3.099 -0.2772  0.3407 -0.4960
16634SOL    HW155738   1.843   3.821   3.040 -1.1935  0.2534 -1.2174
16634SOL    HW255739   1.833   3.864   3.184 -0.0270 -0.8895 -0.7818
16635SOL     OW55740   1.609   2.644   6.776 -0.0027  0.1970  0.5940
16635SOL    HW155741   1.619   2.646   6.681  1.5475  1.1000  0.7325
16635SOL    HW255742   1.578   2.556   6.795 -2.9759  0.8072 -0.9225
16636SOL     OW55743   1.384   1.353   1.615  0.1109  0.2159  1.3193
16636SOL    HW155744   1.421   1.326   1.531 -2.2389 -0.4298  0.4234
16636SOL    HW255745   1.392   1.449   1.614  0.1580  0.2117  0.3924
16637SOL     OW55746   4.862   9.251   1.944  0.0062  0.2995 -0.1015
16637SOL    HW155747   4.956   9.242   1.930  0.2658  1.4275  0.7521
16637SOL    HW255748   4.823   9.233   1.858  1.1302  1.7129 -0.9588
16638SOL     OW55749   5.979   7.241   7.008  0.2233 -0.2915 -0.1463
16638SOL    HW155750   5.938   7.160   6.976 -0.9539 -0.1236  0.9015
16638SOL    HW255751   6.068   7.214   7.033  0.0121 -1.1469 -0.2834
16639SOL     OW55752   2.170   7.076   8.450  0.1486 -0.0084 -0.1959
16639SOL    HW155753   2.215   6.994   8.469  1.8198  1.0435  0.6420
16639SOL    HW255754   2.218   7.114   8.376 -0.0569  0.6075 -0.0218
16640SOL     OW55755   0.577  10.287  10.236  0.0060 -0.3704  0.6367
16640SOL    HW155756   0.524  10.353  10.279  1.3652 -0.1989  2.1462
16640SOL    HW255757   0.667  10.316  10.249  0.5527 -1.2224 -0.8750
16641SOL     OW55758   6.713   6.294   4.700  0.4260 -0.4095 -0.1314
16641SOL    HW155759   6.678   6.362   4.643  0.3000  0.1276  0.5762
16641SOL    HW255760   6.672   6.213   4.669 -1.4837  0.2002  0.6955
16642SOL     OW55761   4.941   5.977   0.487  0.0395  0.0940  0.0666
16642SOL    HW155762   4.991   5.910   0.534  1.9849  1.4317 -0.0189
16642SOL    HW255763   4.923   6.044   0.553 -1.6145 -0.3071  0.0677
16643SOL     OW55764   2.024   8.209   9.737  0.0271  0.2097 -0.1096
16643SOL    HW155765   2.093   8.147   9.713 -0.4710 -0.0873 -0.8031
16643SOL    HW255766   1.985   8.172   9.815  0.4772  0.2430  0.1342
16644SOL     OW55767   0.582   6.459   8.753 -0.3418  0.2974 -0.2139
16644SOL    HW155768   0.488   6.479   8.751  0.1378  3.1117  1.0165
16644SOL    HW255769   0.620   6.519   8.690  0.7137 -0.4606 -0.3151
16645SOL     OW55770   0.264   0.407   0.472  0.3217  0.0194 -0.4815
16645SOL    HW155771   0.326   0.479   0.457  0.2142  0.1067 -0.5086
16645SOL    HW255772   0.252   0.368   0.385  1.7670 -1.1781 -0.1954
16646SOL     OW55773   5.989   7.869   9.304 -0.0998 -0.4881  0.1710
16646SOL    HW155774   6.014   7.958   9.328 -0.6682  0.2401 -1.7753
16646SOL    HW255775   6.045   7.848   9.229 -0.9042 -1.2601 -0.2247
16647SOL     OW55776   4.923   0.943  10.361  0.2882 -0.4741  0.3201
16647SOL    HW155777   4.864   0.942  10.286 -0.8773 -1.5045  1.1895
16647SOL    HW255778   5.004   0.981  10.328 -0.6182  0.3225 -1.1106
16648SOL     OW55779   6.271   8.150   5.114  0.3412  0.1247  0.3883
16648SOL    HW155780   6.316   8.233   5.097  0.9947 -0.3303 -0.1814
16648SOL    HW255781   6.178   8.172   5.110  0.4824  0.5481 -1.2975
16649SOL     OW55782   6.243   5.405   2.768 -0.3158  0.5290  0.0921
16649SOL    HW155783   6.170   5.353   2.802  0.3599  0.5111  1.5717
16649SOL    HW255784   6.314   5.342   2.756 -0.5090  0.5405 -1.3745
16650SOL     OW55785   0.539   6.319   1.924 -0.7367 -0.0304  0.0584
16650SOL    HW155786   0.569   6.316   1.834 -0.7879 -0.8408  0.0593
16650SOL    HW255787   0.521   6.411   1.941 -0.6299  0.1368 -0.7265
16651SOL     OW55788   5.854   5.563   2.600 -0.4165 -0.5043  0.2673
16651SOL    HW155789   5.869   5.579   2.507 -1.2405  0.2279  0.2393
16651SOL    HW255790   5.795   5.487   2.602 -0.3753 -0.5382  0.1918
16652SOL     OW55791   6.453   0.101   3.723  0.2429  0.5177 -0.6716
16652SOL    HW155792   6.489   0.103   3.812 -0.7315 -0.1264 -0.2387
16652SOL    HW255793   6.515   0.048   3.673  0.3359  0.1130 -0.1430
16653SOL     OW55794   5.244   0.832   3.841 -0.0009 -0.3189  0.0380
16653SOL    HW155795   5.240   0.887   3.919  0.8497 -0.3539  0.1164
16653SOL    HW255796   5.170   0.861   3.787 -0.1154  0.2554  0.4978
16654SOL     OW55797   7.819   5.273   5.374  0.2216 -0.2095 -0.2152
16654SOL    HW155798   7.789   5.221   5.301  0.6221 -0.0314 -0.5148
16654SOL    HW255799   7.799   5.221   5.452 -1.6183  0.2727 -0.3289
16655SOL     OW55800   4.339   2.997  10.296 -0.4155 -0.1301 -0.7214
16655SOL    HW155801   4.248   3.012  10.271 -0.4371 -1.0644 -1.2292
16655SOL    HW255802   4.369   2.928  10.237  0.4752 -0.1818 -0.2204
16656SOL     OW55803   1.848   3.991   1.445  0.3104 -0.4323 -0.6565
16656SOL    HW155804   1.921   4.033   1.491  1.2644 -1.0241 -1.5665
16656SOL    HW255805   1.843   3.903   1.484  0.6580 -0.6890 -1.1781
16657SOL     OW55806   2.609   2.166   1.284  0.4416  0.6499 -0.1097
16657SOL    HW155807   2.607   2.118   1.367 -1.2908  1.7634  0.5548
16657SOL    HW255808   2.530   2.137   1.238  0.6711  1.0568 -0.7729
16658SOL     OW55809   3.057   7.591   3.926  0.0735  0.4864 -0.0725
16658SOL    HW155810   3.148   7.611   3.945 -0.0908  2.0530 -0.7870
16658SOL    HW255811   3.061   7.514   3.869  0.9154  0.3500  0.1525
16659SOL     OW55812   7.632   2.703   1.893 -0.1906 -0.1157  0.3025
16659SOL    HW155813   7.714   2.747   1.871  0.7445 -1.6797  0.4973
16659SOL    HW255814   7.614   2.731   1.983  1.2668 -1.3382  1.0222
16660SOL     OW55815   3.134   3.494   4.112  0.3273  0.0500  0.3615
16660SOL    HW155816   3.162   3.522   4.025 -0.5103 -0.9591 -0.2633
16660SOL    HW255817   3.203   3.436   4.143 -0.2679 -1.1512 -0.4890
16661SOL     OW55818   2.555   7.731   2.144 -0.4021 -0.1197 -0.2468
16661SOL    HW155819   2.555   7.726   2.239  1.2041 -2.6302 -0.2880
16661SOL    HW255820   2.639   7.692   2.118 -1.7609 -1.6389 -2.7351
16662SOL     OW55821   2.648   4.881   0.940  0.0775 -0.6475  0.2390
16662SOL    HW155822   2.688   4.836   0.866 -0.2401 -0.0051 -0.3296
16662SOL    HW255823   2.722   4.912   0.992  0.3067 -0.6442 -0.0853
16663SOL     OW55824   0.519   9.775  10.807  0.0552 -0.0656 -0.1253
16663SOL    HW155825   0.598   9.762  10.859 -0.8498 -0.0293  1.3128
16663SOL    HW255826   0.527   9.712  10.735  1.0597 -0.5547  0.3918
16664SOL     OW55827   9.486   1.686   6.100  0.1617 -0.3423  0.1208
16664SOL    HW155828   9.425   1.752   6.133 -0.3759 -0.0836 -1.3408
16664SOL    HW255829   9.569   1.707   6.142 -0.4437  0.0807  1.1581
16665SOL     OW55830   3.967   4.054   4.575  0.0695  0.0173  0.0994
16665SOL    HW155831   3.956   4.050   4.480  1.2615 -0.7679 -0.0286
16665SOL    HW255832   3.927   4.137   4.600 -0.8291 -0.0561 -0.9933
16666SOL     OW55833   3.293   0.811   9.539 -0.4052 -0.8433  0.1166
16666SOL    HW155834   3.290   0.772   9.452 -0.2638  0.1958 -0.3603
16666SOL    HW255835   3.201   0.811   9.568 -0.4572 -1.1556 -0.0340
16667SOL     OW55836   6.298   1.472   1.803 -0.1022 -0.1769  0.3205
16667SOL    HW155837   6.281   1.539   1.869 -1.3450 -0.5996  0.4507
16667SOL    HW255838   6.381   1.498   1.764 -0.2857  1.1361  0.7477
16668SOL     OW55839   8.684   1.530   6.165  0.4994 -0.4030 -0.2622
16668SOL    HW155840   8.654   1.570   6.246 -1.1062 -0.1030 -0.9642
16668SOL    HW255841   8.633   1.449   6.158 -1.4675  0.8659 -2.2505
16669SOL     OW55842   2.845   3.594   6.447 -0.2825  0.1516 -0.7405
16669SOL    HW155843   2.778   3.541   6.404  0.2445  0.2738 -1.7648
16669SOL    HW255844   2.806   3.619   6.531 -1.4149  0.0190 -1.2036
16670SOL     OW55845   8.197   6.038   8.493 -0.8624 -0.2419  0.2840
16670SOL    HW155846   8.224   6.082   8.573  0.1515  0.5787 -0.4864
16670SOL    HW255847   8.103   6.052   8.489 -0.6341  1.5481  0.2647
16671SOL     OW55848   6.579   4.754   4.761 -0.2060  0.7648 -0.2870
16671SOL    HW155849   6.515   4.795   4.819 -1.6084 -1.4985 -0.1511
16671SOL    HW255850   6.536   4.752   4.676  0.2801  0.5560 -0.5308
16672SOL     OW55851   2.166   5.378   2.053  0.3909 -0.2381  0.1657
16672SOL    HW155852   2.235   5.407   1.994 -0.0834 -0.4667 -0.5111
16672SOL    HW255853   2.097   5.345   1.995 -0.5369  0.5324  0.7916
16673SOL     OW55854   9.903   1.209   0.292 -1.1826 -0.0625  0.1140
16673SOL    HW155855   9.874   1.119   0.308 -1.8967  0.0458 -0.4839
16673SOL    HW255856   9.949   1.205   0.209  0.3946 -0.1941  0.9679
16674SOL     OW55857   9.606   4.121   5.535 -0.2962 -0.2738 -0.4107
16674SOL    HW155858   9.698   4.144   5.520  0.1511 -1.2179  0.7255
16674SOL    HW255859   9.592   4.042   5.482 -0.2043 -0.6248  0.0870
16675SOL     OW55860  10.315   5.995   1.851 -0.3101  0.3370  0.4595
16675SOL    HW155861  10.286   5.959   1.935  1.0872  1.4258  1.4524
16675SOL    HW255862  10.301   6.090   1.860  0.2880  0.5094 -0.3617
16676SOL     OW55863   8.192   6.794   9.655  0.7314  0.8434  0.0819
16676SOL    HW155864   8.222   6.755   9.573 -1.2933  1.6659 -1.1613
16676SOL    HW255865   8.135   6.727   9.694  0.9998  0.7789  0.3602
16677SOL     OW55866   2.045   4.865   4.678  0.4427 -0.4752  0.2531
16677SOL    HW155867   2.137   4.871   4.704  0.2629 -0.1904  0.8227
16677SOL    HW255868   2.018   4.956   4.664  0.1908 -0.5479  0.2674
16678SOL     OW55869   1.260   2.561   4.431  0.1965  0.6331 -0.1624
16678SOL    HW155870   1.299   2.551   4.518 -0.0119 -1.6821 -0.2855
16678SOL    HW255871   1.182   2.614   4.446  0.4413  0.7002  0.9718
16679SOL     OW55872   3.613   5.477   1.662 -0.1342  0.4713  0.0325
16679SOL    HW155873   3.646   5.567   1.660 -0.8599  0.7352 -0.2048
16679SOL    HW255874   3.560   5.472   1.741  0.1239  0.1655  0.1922
16680SOL     OW55875   5.467   7.001   3.012 -0.1398 -0.3096  0.0583
16680SOL    HW155876   5.542   7.027   2.959 -0.7547 -0.3089 -0.8218
16680SOL    HW255877   5.490   7.028   3.101  0.6201  0.2848 -0.3136
16681SOL     OW55878   5.868   0.687   5.709  0.5623 -0.3928 -0.3170
16681SOL    HW155879   5.878   0.739   5.629 -0.0103 -0.5024 -0.4695
16681SOL    HW255880   5.852   0.598   5.677  0.6067 -0.4888 -0.0730
16682SOL     OW55881   8.051   1.181   9.649  0.4546 -0.1888 -0.1097
16682SOL    HW155882   7.958   1.202   9.657  0.8734  1.7283  0.2552
16682SOL    HW255883   8.076   1.151   9.737  0.3079 -0.1463 -0.0524
16683SOL     OW55884   4.443   8.420  10.092 -0.5414 -0.0998 -0.0493
16683SOL    HW155885   4.436   8.468  10.175  1.3245 -0.5944  0.4512
16683SOL    HW255886   4.451   8.329  10.118 -0.7882 -0.3524 -0.8318
16684SOL     OW55887   4.202   7.221   2.968  0.5653  0.4600 -0.2994
16684SOL    HW155888   4.223   7.196   2.878  0.6106 -0.4210 -0.0535
16684SOL    HW255889   4.109   7.202   2.977  1.3923 -4.2649  1.2625
16685SOL     OW55890   8.931   1.652   8.868  0.2429 -0.0910 -0.2743
16685SOL    HW155891   8.937   1.652   8.772 -1.6140  1.7733 -0.4596
16685SOL    HW255892   8.972   1.734   8.894 -2.4907  1.2527  0.1564
16686SOL     OW55893   6.443  10.627   5.434  0.0474 -0.1725  0.1771
16686SOL    HW155894   6.497  10.552   5.458  1.3341  1.0509  1.2439
16686SOL    HW255895   6.354  10.592   5.428  0.6962 -1.8782  0.0753
16687SOL     OW55896   0.134   4.285   2.440  0.1284  0.4118 -0.4406
16687SOL    HW155897   0.038   4.283   2.444  0.1787 -0.7270  0.9808
16687SOL    HW255898   0.162   4.250   2.524  1.8043 -0.1230 -1.1817
16688SOL     OW55899   5.650   0.728   5.886  0.6758 -0.4170 -0.1561
16688SOL    HW155900   5.693   0.758   5.965  1.6372 -3.6107  0.6749
16688SOL    HW255901   5.721   0.696   5.830  0.1129  2.4116 -2.7548
16689SOL     OW55902  10.893   6.447   2.264  0.2607 -0.1126  0.4715
16689SOL    HW155903  10.866   6.537   2.246 -1.4085 -0.5759  0.5516
16689SOL    HW255904  10.959   6.429   2.197 -2.3953 -0.1898 -2.3583
16690SOL     OW55905  10.322   7.015   3.219  0.8116 -0.0987 -0.1879
16690SOL    HW155906  10.293   6.987   3.132  0.2679 -0.0773 -0.0185
16690SOL    HW255907  10.292   7.106   3.227  1.0895 -0.0147 -0.0779
16691SOL     OW55908   7.348   0.280   8.183 -0.6503  0.1040  0.2334
16691SOL    HW155909   7.372   0.237   8.265 -0.0715  0.7850  0.4297
16691SOL    HW255910   7.405   0.358   8.179 -0.3963 -0.1303 -1.0008
16692SOL     OW55911   8.164   4.824   3.743 -0.0704 -0.1225 -0.2894
16692SOL    HW155912   8.082   4.777   3.728 -0.5454  1.1282 -1.7630
16692SOL    HW255913   8.223   4.757   3.778 -2.0007 -0.8069  1.8742
16693SOL     OW55914   1.818   6.867   7.159 -0.1918 -0.3905 -0.2195
16693SOL    HW155915   1.799   6.913   7.241  0.2709  0.9596 -0.8406
16693SOL    HW255916   1.733   6.841   7.125 -0.4105 -0.6580  0.5106
16694SOL     OW55917   9.524   9.771   8.636  0.1430 -0.0530 -0.5396
16694SOL    HW155918   9.552   9.857   8.668  3.1835 -1.4700  1.0886
16694SOL    HW255919   9.496   9.724   8.715 -2.5025 -0.2972 -1.5470
16695SOL     OW55920   7.944   6.557   3.367 -0.1434 -0.1015 -0.1879
16695SOL    HW155921   8.040   6.565   3.366 -0.2572  1.3836 -0.4983
16695SOL    HW255922   7.919   6.576   3.458 -0.1895  0.0427 -0.2313
16696SOL     OW55923   6.404   2.537  10.124 -0.4010  0.0440 -0.0148
16696SOL    HW155924   6.393   2.599  10.052  0.4126 -0.4804 -0.6107
16696SOL    HW255925   6.359   2.578  10.198 -0.5931  0.9510 -0.6178
16697SOL     OW55926   3.516   8.920   9.617 -0.1325 -0.9087  0.2613
16697SOL    HW155927   3.483   8.913   9.706  0.2549 -0.2850  0.4643
16697SOL    HW255928   3.496   9.010   9.591 -2.1859 -1.6874 -1.0900
16698SOL     OW55929   4.686   0.239   1.495  0.3486  0.7426  0.2620
16698SOL    HW155930   4.680   0.333   1.480 -1.1045  0.5333 -0.6279
16698SOL    HW255931   4.626   0.222   1.568 -1.1240  0.2159 -1.0394
16699SOL     OW55932   2.716   0.938   7.785  0.0345  0.1419  0.4226
16699SOL    HW155933   2.736   0.892   7.704 -1.0723 -0.3335  0.4070
16699SOL    HW255934   2.761   0.887   7.853 -1.3197 -1.0924  0.4273
16700SOL     OW55935   9.750   4.596   0.126  0.0037  0.2441  0.1593
16700SOL    HW155936   9.713   4.510   0.148 -0.1064  0.1537 -0.3714
16700SOL    HW255937   9.842   4.589   0.151 -0.0430  0.0277  0.2796
16701SOL     OW55938   9.629   0.086   1.834 -0.0190  0.0993  0.0869
16701SOL    HW155939   9.695   0.149   1.807  1.5579 -1.3474  0.4391
16701SOL    HW255940   9.638   0.013   1.772 -0.7848 -0.4323  0.5822
16702SOL     OW55941   5.462   0.560   5.249  0.3248 -0.2262 -0.1919
16702SOL    HW155942   5.411   0.622   5.301  0.9572  0.1351  0.0045
16702SOL    HW255943   5.456   0.592   5.160 -0.5289 -0.6891 -0.3164
16703SOL     OW55944  10.819   3.457   1.271 -0.3553 -0.5457 -0.3805
16703SOL    HW155945  10.832   3.372   1.229  1.5355 -0.2122 -0.5925
16703SOL    HW255946  10.757   3.440   1.341  0.3839 -2.2463 -0.0710
16704SOL     OW55947   1.669   0.509   5.472 -0.2104  0.5131  0.0821
16704SOL    HW155948   1.589   0.539   5.429  0.9117  0.4373 -2.2118
16704SOL    HW255949   1.719   0.589   5.489 -0.1405  0.4560  0.1441
16705SOL     OW55950  10.444   4.363   5.171 -0.1962 -0.2430 -0.1142
16705SOL    HW155951  10.426   4.297   5.104 -0.7799  1.0592 -1.2614
16705SOL    HW255952  10.358   4.394   5.198  0.1013  1.0676 -0.6219
16706SOL     OW55953   7.789   6.342   8.876  0.5806  0.2858 -0.0460
16706SOL    HW155954   7.807   6.290   8.797  0.1911  0.8816 -0.5376
16706SOL    HW255955   7.699   6.317   8.900  1.3272 -1.2858  1.3108
16707SOL     OW55956   0.274   9.577   8.174 -0.1290  0.2201 -0.5664
16707SOL    HW155957   0.308   9.539   8.093 -0.0360 -0.8285 -0.0500
16707SOL    HW255958   0.252   9.667   8.150 -1.8010 -0.5647 -2.2439
16708SOL     OW55959   4.489   0.692   3.616 -0.4888 -0.3994 -0.4013
16708SOL    HW155960   4.466   0.774   3.571  0.1380 -0.0883 -0.1563
16708SOL    HW255961   4.493   0.716   3.709  1.2270 -0.3532 -0.4737
16709SOL     OW55962   3.684   1.495   8.027  0.1393  0.3703 -0.1338
16709SOL    HW155963   3.770   1.495   8.068  0.1057 -0.0339 -0.0648
16709SOL    HW255964   3.691   1.559   7.956  0.2369  0.9650  0.4081
16710SOL     OW55965   7.017  10.264   0.060 -0.9818  0.7778 -0.5542
16710SOL    HW155966   7.076  10.325   0.015 -0.0100  0.4582  0.2259
16710SOL    HW255967   6.994  10.200  -0.006  1.9788 -0.8018 -0.2371
16711SOL     OW55968   9.495   7.486   7.634  0.2722 -0.2875 -0.0907
16711SOL    HW155969   9.457   7.538   7.563  0.9410  0.5474  0.1535
16711SOL    HW255970   9.488   7.396   7.604 -1.4123 -0.1227 -0.2872
16712SOL     OW55971   7.437  10.519   8.338 -0.4832  0.5771  0.5166
16712SOL    HW155972   7.379  10.594   8.350 -1.8551 -0.1685 -0.9721
16712SOL    HW255973   7.403  10.452   8.398 -1.1682  0.1495 -0.3345
16713SOL     OW55974   7.825   3.194   5.287 -0.2455  0.1194 -0.1671
16713SOL    HW155975   7.829   3.286   5.263 -0.4024  0.0770 -0.3583
16713SOL    HW255976   7.872   3.149   5.216 -0.4891  0.0170 -0.2629
16714SOL     OW55977   9.633   6.070   1.613  0.0326  0.2618 -0.1114
16714SOL    HW155978   9.684   5.998   1.577  1.3134 -0.3613  2.6540
16714SOL    HW255979   9.650   6.144   1.554  0.7261 -1.0305 -1.5896
16715SOL     OW55980   9.361   6.092   1.647  0.0319 -0.5265 -0.7299
16715SOL    HW155981   9.453   6.088   1.621 -0.1922  0.1545 -1.6654
16715SOL    HW255982   9.334   6.181   1.627 -0.5386 -0.3724  0.6123
16716SOL     OW55983   9.402   2.465   6.082  0.3935 -0.0419  0.3494
16716SOL    HW155984   9.313   2.431   6.075  1.1247 -2.0370 -0.1044
16716SOL    HW255985   9.458   2.388   6.069  2.2000  1.3991 -0.9650
16717SOL     OW55986   6.295   5.827   1.727 -0.2835 -0.2926  0.1821
16717SOL    HW155987   6.362   5.882   1.686 -0.1552  0.1174  0.9371
16717SOL    HW255988   6.216   5.845   1.676  0.1007 -0.5531 -0.5262
16718SOL     OW55989   3.209   8.050   2.908  0.1143  0.9279  0.1360
16718SOL    HW155990   3.137   8.111   2.927  0.9949  1.4890  1.8832
16718SOL    HW255991   3.273   8.068   2.976  0.7796 -1.3859  0.1785
16719SOL     OW55992   5.833   6.094   4.814  0.1302  0.1390  0.1852
16719SOL    HW155993   5.870   6.058   4.733  2.2562  2.4273  0.0407
16719SOL    HW255994   5.851   6.028   4.880  1.0639 -0.4642 -0.6422
16720SOL     OW55995   8.050   4.334   1.411 -0.0457 -0.6076 -0.4582
16720SOL    HW155996   8.066   4.381   1.493  0.3095  0.7946 -1.2930
16720SOL    HW255997   7.977   4.276   1.431 -0.6376  0.4343  0.5889
16721SOL     OW55998   6.498   3.433   3.790  0.3197 -0.0205 -0.5189
16721SOL    HW155999   6.465   3.497   3.727  2.6496  1.2206 -0.6022
16721SOL    HW256000   6.537   3.365   3.735  1.5979  0.6457 -0.4881
16722SOL     OW56001   8.637   5.088   2.485  0.0998  0.6065 -0.2412
16722SOL    HW156002   8.638   5.056   2.575 -0.0774 -0.0007 -0.4474
16722SOL    HW256003   8.710   5.043   2.442 -1.3452 -1.1309 -1.0539
16723SOL     OW56004   4.442   6.868   3.729 -0.0402  0.2196  0.1688
16723SOL    HW156005   4.446   6.814   3.650  0.1744  2.3563 -1.3671
16723SOL    HW256006   4.375   6.934   3.710 -0.5690  0.2999  2.1140
16724SOL     OW56007   1.354   0.212   2.669  0.2961 -0.3414 -0.4359
16724SOL    HW156008   1.403   0.224   2.588  0.8032 -1.3585 -0.2922
16724SOL    HW256009   1.415   0.169   2.728 -0.8238 -1.9291 -0.3607
16725SOL     OW56010  10.743   7.480   7.243 -0.3514 -0.2293  0.0395
16725SOL    HW156011  10.794   7.399   7.248  1.2159  0.7862  1.1498
16725SOL    HW256012  10.757   7.511   7.154 -0.0464 -0.5901 -0.0403
16726SOL     OW56013   4.527   7.035   8.573 -0.6669 -0.9765  0.2329
16726SOL    HW156014   4.612   6.992   8.580 -0.1152  0.0938  0.2669
16726SOL    HW256015   4.477   6.979   8.514 -0.0575 -1.7927  0.4706
16727SOL     OW56016   6.076   3.891   0.405  0.3700  0.4442 -0.0224
16727SOL    HW156017   6.115   3.959   0.349 -0.3197  0.8304 -0.0395
16727SOL    HW256018   6.108   3.912   0.493  0.1513  0.8024 -0.0247
16728SOL     OW56019  10.093   6.061   7.250  0.3003  0.2805  0.9121
16728SOL    HW156020  10.037   6.024   7.318 -0.0316 -0.3417  0.3130
16728SOL    HW256021  10.120   6.146   7.284 -2.6663  1.5627  0.3984
16729SOL     OW56022   2.781   2.823   8.278 -0.4309 -0.6092 -0.3098
16729SOL    HW156023   2.861   2.772   8.292 -1.4161 -2.2459 -0.3423
16729SOL    HW256024   2.800   2.877   8.202  0.9465 -0.2979  0.2332
16730SOL     OW56025   0.414   2.194   8.492  0.3238  0.2833 -0.2673
16730SOL    HW156026   0.406   2.147   8.409  3.4905 -0.4438 -0.2663
16730SOL    HW256027   0.452   2.130   8.552  3.0218  2.1894  0.2441
16731SOL     OW56028   6.953   2.116   1.844 -0.1925 -0.4567 -0.0374
16731SOL    HW156029   6.926   2.208   1.840 -1.9508 -0.8838  1.0951
16731SOL    HW256030   7.020   2.108   1.776  2.1145  2.3077  1.6685
16732SOL     OW56031   0.713   2.964   6.751  0.4220  0.7941 -0.0573
16732SOL    HW156032   0.759   2.995   6.829 -1.5599  1.5673  0.8863
16732SOL    HW256033   0.715   3.038   6.690  1.4614  0.3954 -0.5209
16733SOL     OW56034   5.629   8.957   0.335 -0.0806 -0.2962 -0.6499
16733SOL    HW156035   5.602   9.045   0.309  0.1582 -0.5855 -1.9158
16733SOL    HW256036   5.699   8.972   0.398 -0.3158  0.4197 -0.5430
16734SOL     OW56037   4.827   3.997   6.647 -0.0865  0.3969  0.8611
16734SOL    HW156038   4.821   3.912   6.691  0.9634  1.7255  3.8571
16734SOL    HW256039   4.887   3.982   6.575  0.3982 -1.3264  1.5632
16735SOL     OW56040   0.941   4.112   1.403  0.5798 -0.0518  0.0760
16735SOL    HW156041   0.957   4.088   1.311  0.9694  0.5253 -0.0145
16735SOL    HW256042   0.893   4.195   1.398 -1.8089 -1.3385  0.3589
16736SOL     OW56043   5.664   3.891   6.894 -0.1644  0.4609 -0.3058
16736SOL    HW156044   5.759   3.883   6.880 -0.1979  0.4208 -0.5114
16736SOL    HW256045   5.628   3.905   6.806 -0.7899 -3.5123 -0.8369
16737SOL     OW56046   6.247   7.024   2.020 -0.9056 -0.4040 -0.4495
16737SOL    HW156047   6.301   7.032   2.098  0.0170  0.2905 -1.1446
16737SOL    HW256048   6.306   6.989   1.953 -1.4930 -0.3101 -1.0266
16738SOL     OW56049   2.933   7.257   2.409 -0.0899  0.3255 -0.3195
16738SOL    HW156050   2.949   7.282   2.319 -1.9817  0.0058 -0.7706
16738SOL    HW256051   2.929   7.161   2.407  1.4120  0.2132  0.4043
16739SOL     OW56052  10.467   4.192   2.691 -0.5626  0.0409 -0.1404
16739SOL    HW156053  10.380   4.162   2.667 -1.4008  2.1696  0.0149
16739SOL    HW256054  10.452   4.268   2.747  1.3740  1.1340 -1.0097
16740SOL     OW56055   4.761   4.749   8.238  0.5294 -0.0185 -0.3436
16740SOL    HW156056   4.757   4.679   8.302  1.9640  1.4493  1.4571
16740SOL    HW256057   4.848   4.787   8.248 -0.2816  2.1921 -1.0407
16741SOL     OW56058   0.840   7.884  10.684 -0.3432 -0.3234 -0.2010
16741SOL    HW156059   0.810   7.905  10.773 -0.5682  1.5522 -0.6747
16741SOL    HW256060   0.862   7.791  10.687 -2.1607 -0.7509  1.3051
16742SOL     OW56061   6.144   7.173   9.506 -0.3420  0.1155 -0.0821
16742SOL    HW156062   6.181   7.204   9.589  0.2075 -0.0494 -0.2551
16742SOL    HW256063   6.050   7.176   9.519 -0.5188  4.2609 -0.9450
16743SOL     OW56064  10.041   7.998   1.956  0.3511  0.1567 -0.1526
16743SOL    HW156065  10.061   7.914   1.916 -0.2233 -0.1024  0.0953
16743SOL    HW256066  10.016   8.055   1.883 -1.2119 -0.4636 -0.1242
16744SOL     OW56067   3.360   8.462   9.627  0.6404  0.2670 -0.2795
16744SOL    HW156068   3.362   8.397   9.697  2.7543  1.2281  0.6225
16744SOL    HW256069   3.449   8.498   9.625  0.3461  1.0281 -2.7544
16745SOL     OW56070   5.931   7.689   5.141 -0.3660 -0.2659 -0.2094
16745SOL    HW156071   5.994   7.760   5.133 -1.4494  0.9327  1.4044
16745SOL    HW256072   5.856   7.717   5.088 -1.9925  1.2723  2.7050
16746SOL     OW56073  10.049   7.296   7.396 -0.0831  0.0598 -0.2390
16746SOL    HW156074  10.002   7.329   7.473  0.8618  2.0584 -0.4447
16746SOL    HW256075   9.983   7.290   7.328 -0.8621 -1.3859  0.6044
16747SOL     OW56076   6.714   7.917  10.872 -0.9964  0.2762 -0.2418
16747SOL    HW156077   6.713   7.873  10.786 -0.2231  1.1106 -0.6994
16747SOL    HW256078   6.672   7.855  10.931 -0.6944 -0.7236 -1.0383
16748SOL     OW56079   1.574  10.050   0.565 -0.4550  0.2537 -0.0855
16748SOL    HW156080   1.553  10.102   0.643  0.5539 -0.2297  0.5300
16748SOL    HW256081   1.655  10.089   0.531 -1.2640  0.9147 -1.3322
16749SOL     OW56082   0.953   5.779   4.352 -0.1005  0.5863  0.2498
16749SOL    HW156083   0.873   5.739   4.387  0.1915 -0.1845  0.0641
16749SOL    HW256084   1.015   5.707   4.347  0.8421  1.3136  1.0625
16750SOL     OW56085   3.796   1.895   6.055  0.4311 -0.2680 -0.5490
16750SOL    HW156086   3.797   1.990   6.045 -0.8950 -0.2214 -0.4551
16750SOL    HW256087   3.720   1.866   6.004 -1.4497 -0.8853  2.3528
16751SOL     OW56088   5.924   6.743   0.165  1.0513 -0.3157  0.3383
16751SOL    HW156089   5.828   6.736   0.166  0.8680  1.2659 -1.0435
16751SOL    HW256090   5.945   6.802   0.238  0.8603  0.1587  0.0172
16752SOL     OW56091   6.015   2.913  10.270 -0.2119  0.3911  0.3722
16752SOL    HW156092   6.040   2.955  10.353 -0.3917  1.1422  0.0565
16752SOL    HW256093   5.919   2.919  10.268 -0.1768  0.8395 -0.1239
16753SOL     OW56094   7.083   3.121   4.264 -0.1475  0.0663 -0.4792
16753SOL    HW156095   7.044   3.192   4.316  0.6114 -0.1895  0.4767
16753SOL    HW256096   7.078   3.152   4.174 -1.8837  0.3506 -0.3214
16754SOL     OW56097  10.065   0.032   4.593 -0.1452 -0.7038  0.0129
16754SOL    HW156098  10.053   0.078   4.510 -0.7827 -2.4141 -0.8815
16754SOL    HW256099  10.001   0.073   4.652 -1.0619 -0.7548 -0.9142
16755SOL     OW56100   9.616   4.549   3.220  0.2382 -0.0899 -0.0004
16755SOL    HW156101   9.610   4.643   3.201  0.3651  0.0019  0.4039
16755SOL    HW256102   9.570   4.507   3.148  1.3246  0.2043 -0.8947
16756SOL     OW56103   4.796   6.934   0.058  0.0241 -0.0017 -0.6394
16756SOL    HW156104   4.886   6.948   0.029 -0.5018  0.7853 -1.9552
16756SOL    HW256105   4.755   6.887  -0.014 -0.8887  0.5742 -0.5059
16757SOL     OW56106   2.372   1.254   4.048 -0.1165  0.5141  0.2536
16757SOL    HW156107   2.437   1.194   4.010 -0.2537  1.5166 -1.7178
16757SOL    HW256108   2.423   1.332   4.071 -0.1152  0.0844  1.8055
16758SOL     OW56109   2.886   3.189   7.238 -0.1960  0.0999  0.2794
16758SOL    HW156110   2.918   3.278   7.249 -1.1199  0.2581  2.0553
16758SOL    HW256111   2.809   3.197   7.181  0.8014  0.1515 -1.1196
16759SOL     OW56112  10.411   9.098   9.495 -0.1383  0.3160 -0.3071
16759SOL    HW156113  10.474   9.080   9.564 -1.0966 -0.5398  0.3584
16759SOL    HW256114  10.412   9.019   9.440  0.1339  0.7268 -0.9090
16760SOL     OW56115   7.433   5.651   6.883 -0.1349 -0.0947 -0.1679
16760SOL    HW156116   7.471   5.597   6.814  0.7624  1.2785 -0.7984
16760SOL    HW256117   7.507   5.669   6.942 -0.6360 -0.3249  0.5418
16761SOL     OW56118   9.775   2.192   2.151 -0.3437 -0.5330  0.5206
16761SOL    HW156119   9.742   2.282   2.148  0.2707 -0.3259 -1.3659
16761SOL    HW256120   9.696   2.138   2.162 -1.1593  0.0929 -1.6129
16762SOL     OW56121   6.363   6.038   7.719  0.6071  0.0293 -0.4511
16762SOL    HW156122   6.297   5.969   7.734 -0.4312  0.8894 -0.9453
16762SOL    HW256123   6.414   6.039   7.800 -1.8086  1.2684  1.1721
16763SOL     OW56124   1.613   9.738   7.975 -0.0753  0.6719 -0.1859
16763SOL    HW156125   1.650   9.723   7.888 -1.7053  0.4094 -0.8625
16763SOL    HW256126   1.563   9.658   7.994  0.9802  0.3304  1.4090
16764SOL     OW56127   4.314   7.946   1.719 -0.1145 -0.0021 -0.2044
16764SOL    HW156128   4.324   7.868   1.665  0.8465  0.6036 -0.9195
16764SOL    HW256129   4.220   7.951   1.736 -0.1941 -1.2895 -0.1679
16765SOL     OW56130   6.226   9.344   4.670 -0.2818  0.5096  0.0241
16765SOL    HW156131   6.211   9.280   4.601 -1.4518  2.2814 -1.4627
16765SOL    HW256132   6.182   9.423   4.640  1.9887  2.3932  1.2608
16766SOL     OW56133   4.952   9.091   7.041  0.3475  0.3138 -0.3687
16766SOL    HW156134   4.987   9.075   6.954 -0.0396  1.2892 -0.7127
16766SOL    HW256135   4.962   9.185   7.054 -2.8314  0.8242 -0.8230
16767SOL     OW56136   8.927   1.894   0.374 -0.0699  0.0987  1.0672
16767SOL    HW156137   8.915   1.833   0.446 -1.7402 -0.6164  0.2337
16767SOL    HW256138   8.939   1.979   0.417  0.1832 -0.4848  2.1968
16768SOL     OW56139   2.581  10.758   2.648  1.0943 -0.5091 -0.2505
16768SOL    HW156140   2.588  10.664   2.634 -0.4316 -0.4881 -1.2977
16768SOL    HW256141   2.625  10.797   2.572  2.1507 -0.3365  0.4156
16769SOL     OW56142   7.227   3.382   3.413  0.2374 -0.0263 -0.1360
16769SOL    HW156143   7.145   3.343   3.385  0.3305 -0.5142  0.2730
16769SOL    HW256144   7.290   3.310   3.413  0.6764  0.3477 -0.4770
16770SOL     OW56145   6.778   4.476   9.935  0.8056 -0.1458  0.6203
16770SOL    HW156146   6.776   4.572   9.932  0.6027 -0.1199  1.2861
16770SOL    HW256147   6.855   4.455   9.987  1.1208 -0.3623  0.0733
16771SOL     OW56148  10.039   6.119   0.803  0.3901 -0.8131  0.2125
16771SOL    HW156149  10.079   6.032   0.806 -0.7923 -1.3906 -0.1507
16771SOL    HW256150  10.060   6.153   0.716 -0.7431 -1.5459 -0.3714
16772SOL     OW56151   6.586   7.846   0.475 -0.0467  0.3861 -0.4712
16772SOL    HW156152   6.587   7.860   0.380 -0.4958  0.2799 -0.4912
16772SOL    HW256153   6.550   7.758   0.487  0.5704  0.1596 -0.2281
16773SOL     OW56154   7.126   2.381   6.432 -0.2452 -0.4197  0.3265
16773SOL    HW156155   7.169   2.433   6.500  1.0134 -0.1142 -0.6493
16773SOL    HW256156   7.182   2.303   6.422  0.3013  0.1142 -1.1628
16774SOL     OW56157   7.352   5.739   1.737 -0.0380  0.3592  0.1049
16774SOL    HW156158   7.307   5.823   1.746 -0.6108 -0.0254  1.0415
16774SOL    HW256159   7.283   5.678   1.711  0.6136  0.4032 -1.8999
16775SOL     OW56160  10.117   0.849   4.096  0.1263  0.1604 -0.6205
16775SOL    HW156161  10.069   0.773   4.128  2.8790 -1.0074  1.2146
16775SOL    HW256162  10.089   0.860   4.005 -3.4635 -0.3490  0.2960
16776SOL     OW56163   8.086   7.092  10.280  0.0415  0.1633 -0.5149
16776SOL    HW156164   8.056   7.029  10.214  0.9341 -0.6321 -0.1840
16776SOL    HW256165   8.160   7.137  10.238  0.0864  0.2336 -0.3595
16777SOL     OW56166  10.555   1.362   5.876  0.0263 -0.2621  0.0458
16777SOL    HW156167  10.619   1.309   5.922  0.9432  0.2040 -0.6477
16777SOL    HW256168  10.489   1.384   5.942  2.2893  2.0357  1.7127
16778SOL     OW56169   0.836   2.317  10.734 -0.0592 -0.4387  0.1427
16778SOL    HW156170   0.797   2.230  10.722 -0.8715 -0.1788  0.8113
16778SOL    HW256171   0.761   2.376  10.741  0.4951  0.3864 -0.7167
16779SOL     OW56172   2.945   1.703   9.376 -0.6474  0.0523 -0.3464
16779SOL    HW156173   2.859   1.746   9.382 -0.2731  0.6248  1.2383
16779SOL    HW256174   2.964   1.673   9.465  1.3461  1.0393 -0.3795
16780SOL     OW56175  10.884   4.740   6.751 -0.1342  0.4495  0.1672
16780SOL    HW156176  10.888   4.808   6.683  0.9266 -1.8130 -2.1678
16780SOL    HW256177  10.800   4.696   6.736  0.0417  0.0236  0.4220
16781SOL     OW56178   2.696  10.633   2.194  0.1113  0.0209  0.4220
16781SOL    HW156179   2.750  10.571   2.145  0.0573  0.3440 -0.0548
16781SOL    HW256180   2.608  10.624   2.156 -0.1188 -0.3161  1.0204
16782SOL     OW56181   8.640  10.365   3.254  0.3541 -0.1207  0.4096
16782SOL    HW156182   8.678  10.423   3.189  1.1028 -0.0222  0.9248
16782SOL    HW256183   8.655  10.277   3.220 -2.8061 -0.0606 -1.5268
16783SOL     OW56184  10.622   5.782  10.381  0.2516  0.3986  0.0571
16783SOL    HW156185  10.646   5.833  10.304 -0.0180 -0.6839 -0.7628
16783SOL    HW256186  10.528   5.797  10.390  0.3175  0.6803  0.3031
16784SOL     OW56187   5.120   5.680  10.171  0.0726  0.0590  0.0161
16784SOL    HW156188   5.151   5.612  10.232  0.7449 -0.8543 -1.2824
16784SOL    HW256189   5.045   5.640  10.128  1.0250 -0.2683 -1.4146
16785SOL     OW56190   2.387   0.927   3.728  0.7380  0.6736  0.2546
16785SOL    HW156191   2.357   0.979   3.654  0.4200 -0.9643 -0.8292
16785SOL    HW256192   2.482   0.927   3.721  0.7445  1.1987  0.3345
16786SOL     OW56193   6.939   6.041   7.225  0.2721  0.1244 -0.0416
16786SOL    HW156194   6.916   5.983   7.152 -0.4765  0.5086 -0.1269
16786SOL    HW256195   6.993   6.110   7.185 -0.9538  0.8835 -0.4512
16787SOL     OW56196   1.501   0.701   4.470  0.3347 -0.2937  0.8114
16787SOL    HW156197   1.585   0.745   4.455  0.3683 -0.9921 -1.3114
16787SOL    HW256198   1.515   0.612   4.439 -0.8166 -0.8182  1.7044
16788SOL     OW56199   3.305   3.086   9.451  0.2615 -0.0729 -0.3440
16788SOL    HW156200   3.332   3.026   9.521  1.9667  1.6829  0.5742
16788SOL    HW256201   3.212   3.066   9.438  0.2762 -1.5193  1.3212
16789SOL     OW56202   6.456   2.933   6.843  0.1002  0.0248  0.1165
16789SOL    HW156203   6.437   2.843   6.868  1.6642 -0.1012  0.9387
16789SOL    HW256204   6.370   2.977   6.844 -0.3511 -0.7679  2.4814
16790SOL     OW56205   5.238  10.905   6.909  0.0601  0.3381  0.4767
16790SOL    HW156206   5.232  10.936   6.818  0.6595  0.1706  0.3700
16790SOL    HW256207   5.330  10.880   6.918 -0.1174 -0.1330  0.9747
16791SOL     OW56208   3.447   2.517   5.953 -0.0492 -1.0669  0.5934
16791SOL    HW156209   3.508   2.578   5.994  1.3074 -0.8078 -1.6326
16791SOL    HW256210   3.364   2.565   5.952  0.5672  0.0471  0.4773
16792SOL     OW56211   0.406   8.415   5.414 -0.4374  0.4267 -0.8022
16792SOL    HW156212   0.393   8.456   5.328  0.4226  0.3900 -0.9568
16792SOL    HW256213   0.466   8.343   5.397  0.5200  1.0185 -0.0111
16793SOL     OW56214   3.775   7.440   6.150  0.0762  0.5131 -0.0132
16793SOL    HW156215   3.869   7.443   6.128 -0.0799  0.9041 -0.6803
16793SOL    HW256216   3.733   7.485   6.077 -0.7448 -0.6857 -0.3070
16794SOL     OW56217  10.719  10.461   8.054  0.2078 -0.0596 -0.1652
16794SOL    HW156218  10.768  10.542   8.064 -0.1162  0.4841 -2.4460
16794SOL    HW256219  10.636  10.476   8.100  0.1875  0.8638 -0.4931
16795SOL     OW56220   4.669   8.740   8.069  0.0246  0.0100 -0.5307
16795SOL    HW156221   4.761   8.758   8.046  0.0194  1.0169  0.1945
16795SOL    HW256222   4.664   8.755   8.163 -1.1008  0.8726 -0.7112
16796SOL     OW56223   3.191   4.575   9.361 -0.2448 -0.2102  1.0479
16796SOL    HW156224   3.166   4.499   9.414 -2.5517 -0.2613  0.0246
16796SOL    HW256225   3.129   4.644   9.388  0.1554  0.5136  0.1624
16797SOL     OW56226   1.053   0.017   2.080  0.3303  0.2079  0.0382
16797SOL    HW156227   0.961   0.030   2.057  0.0313 -0.5234  0.7765
16797SOL    HW256228   1.060   0.049   2.170  0.8863  0.6102 -0.1431
16798SOL     OW56229   7.614   6.897   6.225  0.7086  0.0440  0.3414
16798SOL    HW156230   7.621   6.801   6.225  1.7195  0.1099  0.7188
16798SOL    HW256231   7.558   6.916   6.150 -1.4106 -0.9497  1.5453
16799SOL     OW56232   0.574   9.329   2.915  0.0948 -0.3238  0.0752
16799SOL    HW156233   0.621   9.362   2.838  1.0426 -0.6792  0.4835
16799SOL    HW256234   0.521   9.403   2.944  1.1702  0.4401  0.1815
16800SOL     OW56235   5.646   2.976   8.971  0.1368  0.2262 -0.1941
16800SOL    HW156236   5.582   2.960   8.901 -1.1733  0.2982  0.9591
16800SOL    HW256237   5.628   2.908   9.036  0.8445  0.6109  0.4173
16801SOL     OW56238   0.351   9.561   6.933  0.5271 -0.0383 -0.5846
16801SOL    HW156239   0.361   9.487   6.872 -1.3387  0.0697 -1.0629
16801SOL    HW256240   0.384   9.636   6.884 -1.1970  0.0963 -1.6305
16802SOL     OW56241   8.275   6.567   9.081  0.1279 -0.2550 -0.1407
16802SOL    HW156242   8.245   6.651   9.117 -0.3070 -0.1967 -0.6319
16802SOL    HW256243   8.224   6.502   9.130  0.4830 -0.2343  0.2573
16803SOL     OW56244   5.037   5.342   6.797 -0.6818 -0.1045 -0.7184
16803SOL    HW156245   4.975   5.269   6.804  0.8803 -1.5349 -1.2749
16803SOL    HW256246   5.123   5.303   6.811  0.0209  2.3495  3.4714
16804SOL     OW56247   7.719   4.729   6.021  0.0459  0.0919 -0.0868
16804SOL    HW156248   7.770   4.648   6.017 -0.0381 -0.0131  0.7326
16804SOL    HW256249   7.747   4.771   6.102 -0.1750  0.7092 -0.3236
16805SOL     OW56250   9.699   1.365   0.389  0.1030  0.1398 -0.2896
16805SOL    HW156251   9.646   1.301   0.437 -0.0781  0.8115  0.4388
16805SOL    HW256252   9.766   1.313   0.345 -0.6502 -0.6423 -0.5389
16806SOL     OW56253   1.080   0.485   8.674 -0.2053 -0.2121  0.1084
16806SOL    HW156254   1.005   0.505   8.730 -0.9021 -0.5973 -0.6575
16806SOL    HW256255   1.055   0.405   8.628  0.7483 -0.4382 -0.0424
16807SOL     OW56256   1.383   8.243   1.034 -0.6425  0.0808  0.1364
16807SOL    HW156257   1.312   8.191   1.069 -0.9164 -0.0218 -0.5595
16807SOL    HW256258   1.359   8.334   1.055 -0.3244 -0.0331  1.0567
16808SOL     OW56259   9.568   3.878   5.400  0.3892 -0.9207 -0.2956
16808SOL    HW156260   9.613   3.797   5.423 -0.5443 -1.5565 -0.6449
16808SOL    HW256261   9.475   3.856   5.403  0.0951  0.3165  0.2356
16809SOL     OW56262   7.730   4.584   3.915 -0.2078  0.3423 -0.4713
16809SOL    HW156263   7.673   4.617   3.985 -0.4552  0.4421 -0.7152
16809SOL    HW256264   7.673   4.581   3.838 -0.4619 -1.5726 -0.2473
16810SOL     OW56265   4.728   4.795   0.199  0.4506  0.6358 -0.6621
16810SOL    HW156266   4.743   4.858   0.270  1.3582  0.7941 -0.9774
16810SOL    HW256267   4.700   4.849   0.125 -2.0065  0.3244 -0.0304
16811SOL     OW56268   0.547   5.453   8.496 -0.0291  0.4964 -0.0721
16811SOL    HW156269   0.614   5.488   8.438 -0.5279  2.4855  0.4760
16811SOL    HW256270   0.466   5.460   8.445 -0.3902  1.7812  0.6278
16812SOL     OW56271   4.928  10.195   9.975 -0.0344  0.2184  0.2843
16812SOL    HW156272   4.926  10.151  10.060  2.5129  0.2736  0.4484
16812SOL    HW256273   4.981  10.274   9.991  1.2337 -0.2163 -1.5187
16813SOL     OW56274   1.416   6.654   8.337 -0.0270 -0.1645 -0.2759
16813SOL    HW156275   1.438   6.629   8.247 -0.6461  2.7603 -1.3297
16813SOL    HW256276   1.321   6.643   8.342 -0.0212 -0.1113 -0.0344
16814SOL     OW56277   7.005   5.139   8.887  0.1103  0.0963 -0.8107
16814SOL    HW156278   6.956   5.070   8.932  0.5243 -0.0855 -0.6425
16814SOL    HW256279   7.056   5.182   8.956 -0.2504  0.6641 -0.8892
16815SOL     OW56280   5.024   7.634   2.449 -0.4849 -0.1757  0.1893
16815SOL    HW156281   4.932   7.657   2.463 -0.3211  0.5788  0.0818
16815SOL    HW256282   5.028   7.540   2.464 -1.5606 -0.4924 -1.2901
16816SOL     OW56283   7.068   7.158  10.546  0.3369  0.2555 -0.4244
16816SOL    HW156284   7.104   7.119  10.466  1.5180 -0.3674  0.3889
16816SOL    HW256285   6.974   7.138  10.542  0.4766 -0.2916 -1.3507
16817SOL     OW56286   3.349  10.563   0.674  0.4001 -0.0657  0.2331
16817SOL    HW156287   3.396  10.499   0.726 -1.3931 -1.2119  0.5469
16817SOL    HW256288   3.259  10.561   0.709  0.2778  2.6747  0.2948
16818SOL     OW56289   0.661   8.519   9.822  0.0262 -0.4062  0.1890
16818SOL    HW156290   0.726   8.545   9.757 -1.9210  0.4214 -1.5314
16818SOL    HW256291   0.691   8.433   9.853  0.9410 -0.9021 -1.9116
16819SOL     OW56292  10.347   9.659   4.626  0.0548  0.5232 -0.4652
16819SOL    HW156293  10.291   9.688   4.698 -1.7023 -0.4488 -1.3893
16819SOL    HW256294  10.339   9.564   4.626 -0.4199  0.5428 -2.2755
16820SOL     OW56295   5.400   0.351   4.461  0.1043 -0.0231 -0.5173
16820SOL    HW156296   5.447   0.417   4.411 -2.0865  2.5677  0.6111
16820SOL    HW256297   5.314   0.345   4.419 -0.9533  0.5033  1.4381
16821SOL     OW56298   8.974   4.198   3.205 -0.7201 -0.0626  0.4668
16821SOL    HW156299   8.914   4.272   3.198  0.0416  0.5299  0.0912
16821SOL    HW256300   9.044   4.229   3.262  0.0859 -0.1534 -0.4480
16822SOL     OW56301   1.527   3.008  10.794  0.7216 -0.4062  0.2995
16822SOL    HW156302   1.589   3.076  10.821  1.0848 -0.5760 -0.0979
16822SOL    HW256303   1.442   3.051  10.796  0.5590 -0.6988  2.7932
16823SOL     OW56304   9.518   0.460   6.825 -0.1805 -0.1541  0.5187
16823SOL    HW156305   9.598   0.510   6.808 -0.7808  0.8401  0.5929
16823SOL    HW256306   9.501   0.414   6.742 -0.5503  1.0787 -0.1067
16824SOL     OW56307   0.288   3.313   8.682 -0.0709 -0.1479 -0.1018
16824SOL    HW156308   0.280   3.407   8.667 -0.2211  0.0562  1.1498
16824SOL    HW256309   0.322   3.278   8.599 -0.1693  0.9741 -0.6345
16825SOL     OW56310   8.040   2.417   0.852  0.0717 -0.1194  0.2636
16825SOL    HW156311   7.999   2.427   0.938 -1.1113 -0.4891 -0.2388
16825SOL    HW256312   8.107   2.485   0.850  0.0171  0.0021  1.4158
16826SOL     OW56313   0.484   7.237   2.102 -0.3823  0.1908 -0.6933
16826SOL    HW156314   0.542   7.163   2.121 -0.3766  0.3560 -0.0403
16826SOL    HW256315   0.451   7.219   2.014  1.1962  0.4520 -1.3618
16827SOL     OW56316   2.283   9.056   6.790  0.1208  0.3800 -0.4158
16827SOL    HW156317   2.305   9.148   6.805 -0.9885  0.4930  0.6902
16827SOL    HW256318   2.243   9.027   6.872  1.8626 -1.5571 -0.1837
16828SOL     OW56319   4.936   8.345  10.809  0.2726  0.1521  0.1324
16828SOL    HW156320   4.964   8.405  10.878  0.6631  0.3383 -0.1834
16828SOL    HW256321   4.881   8.280  10.854  1.2301 -0.2351  0.7757
16829SOL     OW56322   9.215   8.037   9.179 -0.2193  0.0430 -0.2198
16829SOL    HW156323   9.178   7.950   9.161  1.3423 -0.7372  0.1772
16829SOL    HW256324   9.310   8.025   9.171  0.0246  1.7493 -0.2585
16830SOL     OW56325   4.652   2.551   0.319  0.1337 -0.0364 -0.8696
16830SOL    HW156326   4.727   2.610   0.311  1.0897 -1.3052 -1.5516
16830SOL    HW256327   4.578   2.602   0.286  0.8553  0.9184 -1.0515
16831SOL     OW56328  10.013   6.407   0.277  0.0369  0.0615 -0.4672
16831SOL    HW156329   9.934   6.461   0.269  0.9547  1.6957  0.9410
16831SOL    HW256330   9.990   6.343   0.344 -0.7494 -0.8034 -1.5140
16832SOL     OW56331   5.480   5.462  10.426  0.6371 -0.6494 -0.7655
16832SOL    HW156332   5.537   5.408  10.480 -0.1335 -0.9115 -0.2021
16832SOL    HW256333   5.529   5.475  10.344  0.6550 -2.5619 -1.0869
16833SOL     OW56334   1.129   2.057   8.977  0.0757 -0.3518 -0.0132
16833SOL    HW156335   1.083   2.024   8.899 -1.5651  3.2797 -0.7929
16833SOL    HW256336   1.061   2.061   9.044  0.3663  0.7324  0.2287
16834SOL     OW56337  10.354   4.751   4.471  0.0390  0.3676  0.6935
16834SOL    HW156338  10.374   4.701   4.392  0.5988  0.3395  0.8506
16834SOL    HW256339  10.350   4.842   4.442 -1.7947  0.1818  0.2502
16835SOL     OW56340   2.246   6.574   4.012 -0.4852 -0.7207  0.1839
16835SOL    HW156341   2.185   6.584   4.085  0.3560 -2.1345  1.1093
16835SOL    HW256342   2.304   6.504   4.038  1.5002  0.4998 -0.7212
16836SOL     OW56343   9.849   8.442   6.733  0.4210 -0.3164  0.7842
16836SOL    HW156344   9.834   8.536   6.722 -1.0248 -0.5770  0.2378
16836SOL    HW256345   9.927   8.424   6.680  0.3286  0.4688  0.3671
16837SOL     OW56346   1.161   3.145   0.332 -0.6782 -0.3267 -0.0847
16837SOL    HW156347   1.203   3.102   0.258 -0.8440 -0.1123 -0.3071
16837SOL    HW256348   1.090   3.085   0.357  0.7040 -1.4445  1.2948
16838SOL     OW56349   6.423   1.955   9.871 -0.1087 -0.3352  0.1662
16838SOL    HW156350   6.446   2.017   9.941 -0.3095 -0.9278  0.7719
16838SOL    HW256351   6.468   1.988   9.794 -0.8358  1.0018  0.2891
16839SOL     OW56352   0.197   1.066   7.234 -0.3764 -0.2893  0.3522
16839SOL    HW156353   0.178   1.086   7.143 -1.6935 -2.0403  0.1988
16839SOL    HW256354   0.148   1.131   7.284  0.0139  0.4146 -0.1712
16840SOL     OW56355   2.328   1.110   1.595  0.4260  0.1333 -0.3300
16840SOL    HW156356   2.355   1.166   1.667 -0.4217 -0.0210  0.1256
16840SOL    HW256357   2.263   1.162   1.547  2.3095  0.9733 -2.1122
16841SOL     OW56358   5.908   9.960   4.791  0.2165  0.0436 -0.5901
16841SOL    HW156359   5.964   9.954   4.869 -2.1492 -2.1379  1.0842
16841SOL    HW256360   5.970   9.961   4.718  2.5434  2.0389  1.2160
16842SOL     OW56361   7.439   6.014   9.750  0.1633  0.4244  0.2319
16842SOL    HW156362   7.489   5.991   9.828 -0.9903 -0.0502  0.8447
16842SOL    HW256363   7.442   5.936   9.695  2.0339  1.1620 -0.8149
16843SOL     OW56364   8.249   3.051   4.489 -0.5304  0.4657  0.0700
16843SOL    HW156365   8.338   3.019   4.480 -0.1383  1.3729  0.6237
16843SOL    HW256366   8.196   2.972   4.500  0.2655 -0.0505  0.2572
16844SOL     OW56367   8.709  10.072   6.360  0.2023 -0.4255  0.5605
16844SOL    HW156368   8.679  10.059   6.270 -1.7518 -0.5926  1.1857
16844SOL    HW256369   8.688  10.164   6.380  0.4387 -0.4426  0.9113
16845SOL     OW56370   5.248   0.899   2.044  0.4973  0.4069 -0.2496
16845SOL    HW156371   5.332   0.915   2.087  0.0784 -0.4440  0.9440
16845SOL    HW256372   5.183   0.911   2.113 -0.1631 -1.5459 -0.4524
16846SOL     OW56373   2.678   5.915  10.545 -0.1169  0.1874 -0.2597
16846SOL    HW156374   2.773   5.926  10.538  0.2751 -1.9188  0.8757
16846SOL    HW256375   2.657   5.946  10.633 -0.0201 -1.7087  0.4773
16847SOL     OW56376   5.860   3.101   6.868 -0.1727  0.2247  0.5226
16847SOL    HW156377   5.805   3.077   6.943 -0.3843  0.9102  0.5903
16847SOL    HW256378   5.855   3.196   6.864 -1.6403  0.1130 -1.4884
16848SOL     OW56379   2.560   4.283   7.906  0.4291 -0.2189  0.5795
16848SOL    HW156380   2.630   4.224   7.933  0.7008 -0.3912 -0.4664
16848SOL    HW256381   2.480   4.233   7.922  0.6253 -0.6139  0.3426
16849SOL     OW56382  10.261   4.421   2.009  0.6473 -0.2768 -0.4173
16849SOL    HW156383  10.352   4.407   1.984  0.2823 -0.2221 -1.8813
16849SOL    HW256384  10.251   4.374   2.092  2.7402  2.0614  1.3072
16850SOL     OW56385   6.335   1.510   7.728 -0.0548  0.0342  0.2880
16850SOL    HW156386   6.247   1.516   7.766 -0.2573  1.2068 -0.3116
16850SOL    HW256387   6.320   1.475   7.640  0.2103 -0.8762  0.5980
16851SOL     OW56388   3.390  10.681   2.727 -0.5804  0.2183 -0.2386
16851SOL    HW156389   3.423  10.768   2.703 -0.1991 -0.2246 -1.3741
16851SOL    HW256390   3.469  10.628   2.739 -0.8249 -0.1098 -0.0481
16852SOL     OW56391   0.739  10.409   4.444 -0.2715 -0.3392  0.1216
16852SOL    HW156392   0.819  10.357   4.445 -0.0371  0.0291  1.0831
16852SOL    HW256393   0.769  10.499   4.451 -0.7726 -0.1990  0.4779
16853SOL     OW56394   0.148  10.695   0.470  0.5673 -0.3499 -0.0569
16853SOL    HW156395   0.210  10.660   0.534  1.0717 -1.0953 -0.9153
16853SOL    HW256396   0.149  10.790   0.483  0.0615 -0.5476  1.5466
16854SOL     OW56397   3.474  10.316   6.696  0.2329  0.1947  0.1651
16854SOL    HW156398   3.540  10.246   6.694 -0.4340 -0.4545  0.3740
16854SOL    HW256399   3.391  10.269   6.698 -0.2152  1.0030  0.5935
16855SOL     OW56400   4.427  10.611   7.201  0.3156  0.3676 -0.2991
16855SOL    HW156401   4.380  10.529   7.216 -1.1234  1.0013 -1.2467
16855SOL    HW256402   4.396  10.643   7.117  1.2225  1.6582 -0.1826
16856SOL     OW56403  10.535   8.209   0.114  0.0848  0.2038 -0.2091
16856SOL    HW156404  10.581   8.177   0.191  0.2267 -0.3575 -0.5255
16856SOL    HW256405  10.524   8.303   0.130  0.1774  0.1041  0.4585
16857SOL     OW56406   3.957   3.726   2.690 -0.3600  0.4765 -0.3691
16857SOL    HW156407   3.995   3.700   2.606  1.9102 -1.1971  1.0732
16857SOL    HW256408   4.027   3.714   2.753 -1.7865  2.3141  1.7321
16858SOL     OW56409   8.721   9.154   9.185 -0.1882  0.2208 -0.0789
16858SOL    HW156410   8.706   9.153   9.090  0.1741  1.0511 -0.1592
16858SOL    HW256411   8.676   9.077   9.218  1.6000 -1.3886 -1.1995
16859SOL     OW56412   0.796   1.374   0.945  0.1128 -0.5975 -0.5710
16859SOL    HW156413   0.841   1.446   0.901 -0.3720 -0.0698 -0.2032
16859SOL    HW256414   0.748   1.415   1.017  1.9334 -1.5599  1.3117
16860SOL     OW56415   2.358   1.714   2.412 -0.2016 -0.3560 -0.3142
16860SOL    HW156416   2.391   1.775   2.478  0.0369 -0.6431 -0.1598
16860SOL    HW256417   2.290   1.664   2.459  0.1871 -0.7764 -0.1818
16861SOL     OW56418   4.375   5.059   8.511 -0.2017 -0.5761 -0.0879
16861SOL    HW156419   4.394   5.027   8.599  0.0386 -1.1280 -0.3392
16861SOL    HW256420   4.459   5.094   8.479  0.4753 -3.0384 -1.2075
16862SOL     OW56421   4.339   8.607   2.403  0.3097 -0.0939 -0.3298
16862SOL    HW156422   4.257   8.657   2.403 -0.3118 -1.0902 -1.0437
16862SOL    HW256423   4.312   8.516   2.407  1.3774 -0.4487 -0.8060
16863SOL     OW56424  10.898   8.661  10.207  0.7016 -0.3878 -0.1330
16863SOL    HW156425  10.972   8.637  10.150  0.0497 -1.7055 -0.4608
16863SOL    HW256426  10.856   8.735  10.163  0.7564 -0.7992 -0.8801
16864SOL     OW56427   9.644   7.878  10.302 -0.5218  0.0360  0.1439
16864SOL    HW156428   9.595   7.954  10.271 -0.8008 -0.0725  0.3140
16864SOL    HW256429   9.722   7.916  10.344 -0.2092  0.1857 -0.5610
16865SOL     OW56430   6.426   5.704   3.654 -0.1832 -0.8052 -0.5101
16865SOL    HW156431   6.431   5.647   3.732  1.8570  0.3423  0.2685
16865SOL    HW256432   6.513   5.743   3.647 -0.5914 -0.1656 -2.8742
16866SOL     OW56433   9.240   2.989   0.126  0.6309 -0.0070  0.2608
16866SOL    HW156434   9.324   2.949   0.105  0.4052 -1.1063  1.3379
16866SOL    HW256435   9.205   2.936   0.197 -1.5589 -0.3862 -0.9824
16867SOL     OW56436   2.877   9.243   9.486  0.6009 -0.3347 -0.0200
16867SOL    HW156437   2.811   9.229   9.554 -0.9437 -1.6577 -1.6878
16867SOL    HW256438   2.923   9.323   9.513  0.6411 -1.2501  2.9690
16868SOL     OW56439   0.474   3.588   0.010 -0.2722  0.0413 -0.6179
16868SOL    HW156440   0.553   3.551  -0.030 -0.1692 -0.3190 -0.0873
16868SOL    HW256441   0.507   3.657   0.067 -0.2624 -0.6588  0.2445
16869SOL     OW56442   4.076   2.368   5.575 -0.6541  0.3098  0.6126
16869SOL    HW156443   4.168   2.351   5.595 -0.6460 -0.0918  0.2555
16869SOL    HW256444   4.076   2.392   5.482 -0.8914  0.4709  0.6537
16870SOL     OW56445   8.859   7.860   2.611  0.2586 -0.1402  0.0764
16870SOL    HW156446   8.882   7.909   2.690  1.3919 -1.8670  0.8537
16870SOL    HW256447   8.845   7.928   2.545  2.1875  1.2420  0.9885
16871SOL     OW56448  10.373   1.082   3.537 -0.2973 -0.1355  0.3176
16871SOL    HW156449  10.284   1.078   3.573 -1.5101 -0.9104 -2.4668
16871SOL    HW256450  10.402   1.172   3.555 -1.4587  0.0014  1.6559
16872SOL     OW56451   4.278   7.429   2.652 -0.3216 -0.3134  0.2234
16872SOL    HW156452   4.344   7.445   2.585 -0.4708  0.0370  0.1565
16872SOL    HW256453   4.288   7.337   2.675  0.0911 -0.2976  0.1060
16873SOL     OW56454   8.682   2.169   6.821  0.1043 -0.1611 -0.0145
16873SOL    HW156455   8.602   2.219   6.831 -0.9756 -1.9901  1.1053
16873SOL    HW256456   8.656   2.078   6.837  2.6038 -0.7027  1.6509
16874SOL     OW56457   0.416   6.357   0.939  0.3595  0.1937  0.1078
16874SOL    HW156458   0.483   6.392   0.998  1.1035  0.5920 -0.9394
16874SOL    HW256459   0.371   6.433   0.905 -0.0350 -0.0314  0.1239
16875SOL     OW56460   9.548   7.740   2.610 -0.4505  0.2763  0.0959
16875SOL    HW156461   9.554   7.670   2.545 -0.7057 -1.1054  1.4966
16875SOL    HW256462   9.476   7.795   2.580 -1.2710 -0.9427 -0.2547
16876SOL     OW56463   2.007   5.286   6.924 -0.4684  0.1468 -0.0748
16876SOL    HW156464   1.986   5.257   7.013  0.1849 -0.4096 -0.0927
16876SOL    HW256465   1.950   5.361   6.909 -2.2832 -1.1527 -0.0456
16877SOL     OW56466   7.977   2.909   7.018 -0.0027  0.1768 -0.1620
16877SOL    HW156467   7.961   2.842   7.084 -0.3175  1.0432  0.6669
16877SOL    HW256468   8.070   2.901   6.999 -0.2002 -1.0390 -0.6984
16878SOL     OW56469   4.614  10.863   4.328 -0.1781 -0.2246 -0.4354
16878SOL    HW156470   4.590  10.835   4.239 -0.6002  0.1224 -0.4348
16878SOL    HW256471   4.699  10.905   4.318 -0.6603  0.6814 -0.8414
16879SOL     OW56472   4.251   1.262   8.164 -0.5370  0.3987 -0.2000
16879SOL    HW156473   4.302   1.200   8.113 -0.8474  0.6736 -0.8577
16879SOL    HW256474   4.267   1.347   8.121  0.0347  0.8110  0.7967
16880SOL     OW56475  10.377   7.257   3.811  0.4214 -0.0184  0.1334
16880SOL    HW156476  10.449   7.200   3.838  1.4242  0.9534 -0.4317
16880SOL    HW256477  10.417   7.343   3.800 -0.6448  0.3484 -1.1024
16881SOL     OW56478   7.819   3.727   1.789 -0.0357  0.1903 -0.0624
16881SOL    HW156479   7.869   3.769   1.859 -1.0424 -1.9112  2.0611
16881SOL    HW256480   7.883   3.673   1.743  0.1451 -0.7496  1.2200
16882SOL     OW56481   5.224   6.975   2.859  0.0650  0.3315 -0.2683
16882SOL    HW156482   5.317   6.957   2.870 -0.1191 -1.0066 -0.8147
16882SOL    HW256483   5.215   7.006   2.769 -0.1042 -0.1510 -0.4194
16883SOL     OW56484   8.181   4.366   1.146 -0.5933 -0.0595 -0.3008
16883SOL    HW156485   8.137   4.371   1.231  0.3133  1.1644  0.1316
16883SOL    HW256486   8.200   4.273   1.134 -1.4495 -0.3478  0.4405
16884SOL     OW56487   8.418   2.088   9.356  0.1268 -0.3656 -0.0660
16884SOL    HW156488   8.440   2.171   9.398 -2.8995  0.6365 -0.1581
16884SOL    HW256489   8.502   2.048   9.335  1.7139  2.4736  0.3488
16885SOL     OW56490   5.687   0.960  10.173  0.2051 -0.4291  0.4030
16885SOL    HW156491   5.678   0.879  10.123  1.3697  0.2331 -0.9702
16885SOL    HW256492   5.754   0.941  10.239 -0.6849 -1.0409  1.1474
16886SOL     OW56493   6.467   8.301   5.357 -0.1553  0.1928 -0.4351
16886SOL    HW156494   6.518   8.322   5.435  0.7612 -0.1589 -0.9147
16886SOL    HW256495   6.393   8.361   5.358  0.2949  0.7391  0.2682
16887SOL     OW56496   6.509  10.018   9.026 -0.0316 -0.2243  0.7098
16887SOL    HW156497   6.514  10.096   9.080 -0.9384  0.4141 -0.0989
16887SOL    HW256498   6.596  10.011   8.985  0.8022 -0.9546  2.5159
16888SOL     OW56499   3.419  10.120   1.370 -0.1173 -0.4875  0.0520
16888SOL    HW156500   3.334  10.100   1.331 -0.7454 -0.9288  1.5878
16888SOL    HW256501   3.399  10.168   1.450  1.1164  0.0492  0.0662
16889SOL     OW56502   5.478   7.553   8.311  0.0828  0.3035  0.3504
16889SOL    HW156503   5.565   7.592   8.297 -0.3150  1.7291  1.5792
16889SOL    HW256504   5.481   7.521   8.401 -0.1260 -1.2283 -0.1505
16890SOL     OW56505   8.386   1.010   5.464  0.3984 -0.0935 -0.3352
16890SOL    HW156506   8.421   1.012   5.375 -0.0199 -0.9791 -0.5219
16890SOL    HW256507   8.462   0.989   5.519  0.4596 -0.5325 -0.5836
16891SOL     OW56508   0.095   4.461   8.714  0.6007 -0.7878  0.5230
16891SOL    HW156509   0.124   4.490   8.627 -0.5128 -0.9810  0.0633
16891SOL    HW256510   0.159   4.395   8.740  0.1660 -1.7891 -0.8158
16892SOL     OW56511   4.432   4.549   8.202 -0.2214  0.5106 -0.1894
16892SOL    HW156512   4.358   4.517   8.254 -1.1975  1.9063 -0.6687
16892SOL    HW256513   4.399   4.628   8.159  1.9080  1.8895  0.5436
16893SOL     OW56514   1.820   2.068   8.817  0.0789 -0.1807  0.3804
16893SOL    HW156515   1.727   2.047   8.819 -0.4078  1.8473  0.7292
16893SOL    HW256516   1.832   2.132   8.887  1.5202  0.4348 -0.3900
16894SOL     OW56517   0.235   3.550   8.543  0.5923  0.3800 -0.3007
16894SOL    HW156518   0.149   3.592   8.541  0.2333 -0.3035  0.2490
16894SOL    HW256519   0.288   3.599   8.480 -0.5690  0.0245 -1.5930
16895SOL     OW56520   9.282  10.348   4.662 -0.5488 -0.1018 -0.1843
16895SOL    HW156521   9.329  10.431   4.657 -0.3531 -0.0034  2.0915
16895SOL    HW256522   9.326  10.299   4.732 -1.5817 -1.5096 -0.4599
16896SOL     OW56523   3.123   3.184   5.354  0.3572  0.4392 -0.3828
16896SOL    HW156524   3.048   3.182   5.294  0.3261 -1.2522 -0.3273
16896SOL    HW256525   3.144   3.277   5.362 -0.3368  0.7901 -2.1380
16897SOL     OW56526   7.986   8.437   4.721  0.3533  0.6217  0.0059
16897SOL    HW156527   8.038   8.368   4.679  0.5785 -0.9966  2.6859
16897SOL    HW256528   7.901   8.432   4.679  0.9286 -0.0466 -1.1139
16898SOL     OW56529   8.005   6.713   0.445 -0.1220 -0.0383  0.3092
16898SOL    HW156530   8.055   6.730   0.365 -0.4784 -0.1597  0.0623
16898SOL    HW256531   8.041   6.776   0.508 -0.7081  0.9352 -0.2996
16899SOL     OW56532   9.974   0.999   9.681 -0.7100  0.4173 -0.1520
16899SOL    HW156533  10.006   0.986   9.591  0.2346  2.0564 -0.1086
16899SOL    HW256534   9.883   0.969   9.678 -0.3175 -0.7897 -1.3029
16900SOL     OW56535   8.192   2.589   6.411 -0.1490  0.1327 -0.5407
16900SOL    HW156536   8.272   2.543   6.435  0.1794  0.8072 -0.3402
16900SOL    HW256537   8.185   2.577   6.317 -0.1435 -0.4513 -0.4694
16901SOL     OW56538   7.537   9.164   8.882  0.4351 -0.1781  0.0867
16901SOL    HW156539   7.518   9.152   8.789  0.3000  0.4210  0.0299
16901SOL    HW256540   7.496   9.089   8.926 -1.5982  0.7649 -0.0897
16902SOL     OW56541   0.051   7.252   8.390  0.5212  0.0145  0.1680
16902SOL    HW156542  -0.021   7.194   8.363 -1.9863  1.1991  3.5884
16902SOL    HW256543   0.032   7.335   8.347 -0.2075  0.3173  1.0424
16903SOL     OW56544   3.337   0.103   8.768 -0.4366  0.0464 -0.7127
16903SOL    HW156545   3.272   0.125   8.835 -0.9659 -1.0979 -0.8264
16903SOL    HW256546   3.293   0.122   8.685 -0.2261  0.2914 -0.7706
16904SOL     OW56547   8.208   6.621   7.268 -0.0920  0.5834 -0.4042
16904SOL    HW156548   8.298   6.648   7.251  0.3339  0.2699  1.1502
16904SOL    HW256549   8.209   6.593   7.360 -2.0040  1.5552 -0.0418
16905SOL     OW56550   2.560   7.241   1.305 -0.0364  0.5259  0.2456
16905SOL    HW156551   2.560   7.329   1.342 -0.9249  1.2064 -1.3014
16905SOL    HW256552   2.651   7.225   1.280  0.0957  1.0678  0.3844
16906SOL     OW56553   5.453   8.200   2.537 -0.2754  0.3655  0.4834
16906SOL    HW156554   5.544   8.171   2.541 -0.3907 -0.2379 -0.7705
16906SOL    HW256555   5.418   8.181   2.624  1.0327  1.4889  1.2922
16907SOL     OW56556   6.105   3.030   5.858  0.0992 -0.3145 -0.1873
16907SOL    HW156557   6.043   3.064   5.793 -1.2481  1.0747  1.7223
16907SOL    HW256558   6.152   3.107   5.890  1.3953 -1.0979 -0.1454
16908SOL     OW56559   5.591   8.603   8.370 -0.3786 -0.1907  0.7048
16908SOL    HW156560   5.645   8.682   8.364 -2.0403  0.8814 -2.5327
16908SOL    HW256561   5.654   8.531   8.373  1.3683  0.9997 -2.4767
16909SOL     OW56562   7.915   1.709   7.028 -0.0536 -0.6563 -0.1108
16909SOL    HW156563   7.835   1.735   6.982  0.5789  1.8002 -0.0051
16909SOL    HW256564   7.986   1.752   6.980  1.1035 -1.8392  0.4615
16910SOL     OW56565   2.441   6.056   6.727 -0.6703 -0.2098 -0.3673
16910SOL    HW156566   2.367   6.117   6.729 -0.3314  0.2234 -0.5972
16910SOL    HW256567   2.517   6.110   6.750 -0.6371 -0.9999  1.5283
16911SOL     OW56568   0.866   8.828   2.818  0.5270 -0.1292 -0.1689
16911SOL    HW156569   0.862   8.772   2.896 -0.8552 -0.2094 -0.2747
16911SOL    HW256570   0.820   8.778   2.751  0.5632  0.5105 -0.6722
16912SOL     OW56571  10.055   8.295   6.164 -0.0299  0.1388 -0.8407
16912SOL    HW156572  10.110   8.217   6.167  0.4075  0.4692  0.0139
16912SOL    HW256573  10.014   8.300   6.250  0.0603  0.9303 -0.8330
16913SOL     OW56574   6.597   8.141  10.919  0.1893 -0.1337  0.0349
16913SOL    HW156575   6.640   8.057  10.902  0.0574 -0.0664 -0.6494
16913SOL    HW256576   6.521   8.142  10.861  0.3918  0.6080 -0.2435
16914SOL     OW56577  10.630   9.302   0.180  0.2309 -0.3213 -0.4237
16914SOL    HW156578  10.681   9.372   0.219  2.7684 -2.0443 -0.4353
16914SOL    HW256579  10.636   9.316   0.086  0.2888 -0.2530 -0.4093
16915SOL     OW56580   5.479   7.967  10.500 -0.1064 -0.5091  0.1850
16915SOL    HW156581   5.463   8.034  10.434 -0.2812 -0.0582  0.6797
16915SOL    HW256582   5.572   7.977  10.523  0.0152 -0.8211 -0.1548
16916SOL     OW56583   5.778   7.538   5.751  0.2049 -0.0758  1.0598
16916SOL    HW156584   5.755   7.625   5.717 -0.5629 -0.2114  1.2195
16916SOL    HW256585   5.704   7.483   5.729  1.1856 -0.9959 -0.0923
16917SOL     OW56586   0.046   2.939   5.980 -0.3221  0.6240 -0.7465
16917SOL    HW156587   0.084   3.007   6.036  0.5957  1.0227 -1.8110
16917SOL    HW256588   0.066   2.857   6.025 -0.0006  0.9581 -0.2663
16918SOL     OW56589   9.887   0.640  10.223  0.5539  0.4216 -0.3216
16918SOL    HW156590   9.887   0.568  10.161  0.2591  0.2161 -0.0830
16918SOL    HW256591   9.805   0.686  10.207  0.2356  0.0674  0.2618
16919SOL     OW56592   3.130   0.441   1.424 -0.1971  0.8536 -0.0210
16919SOL    HW156593   3.126   0.469   1.332  1.7845 -0.9173 -0.7130
16919SOL    HW256594   3.218   0.407   1.435 -1.3617 -1.9166  1.6689
16920SOL     OW56595   5.840   3.973  10.498 -0.1870 -0.1490  0.1646
16920SOL    HW156596   5.745   3.972  10.492 -0.1484 -1.3301 -0.6833
16920SOL    HW256597   5.860   3.924  10.578 -0.2972  1.4534  1.2255
16921SOL     OW56598   4.335   7.293   7.711 -0.3974  0.1149 -0.0367
16921SOL    HW156599   4.405   7.250   7.760 -0.7054  0.8940  1.1449
16921SOL    HW256600   4.372   7.378   7.685 -1.6517  1.7542  2.9669
16922SOL     OW56601   4.034   6.104   3.334 -0.0016 -0.1163 -0.4610
16922SOL    HW156602   4.020   6.082   3.242  2.6947  0.2606 -1.0400
16922SOL    HW256603   4.042   6.020   3.379  3.1912 -0.4486 -1.4342
16923SOL     OW56604   1.644   6.674   2.594  0.0228 -0.0465  0.0567
16923SOL    HW156605   1.664   6.694   2.685  1.7133 -0.7795 -0.1143
16923SOL    HW256606   1.659   6.580   2.586  1.1152  0.1966 -1.2226
16924SOL     OW56607   7.126   5.369   1.820  0.0442  0.5333 -0.5407
16924SOL    HW156608   7.064   5.431   1.859 -1.5299 -0.7017 -1.0010
16924SOL    HW256609   7.087   5.345   1.736  0.0028 -1.9569  0.1125
16925SOL     OW56610   2.115  10.507  10.042  0.3917  0.2400  0.5084
16925SOL    HW156611   2.037  10.483  10.091  0.2099 -1.1194 -0.3838
16925SOL    HW256612   2.084  10.520   9.952  1.1627 -0.2436  0.1581
16926SOL     OW56613   1.186   2.239   2.297 -0.5191 -0.3401 -0.3067
16926SOL    HW156614   1.100   2.231   2.256  0.4204 -1.0133 -2.2735
16926SOL    HW256615   1.236   2.165   2.262  0.3644 -1.0008  2.1726
16927SOL     OW56616   0.287   8.736   6.811  0.2010  0.5956  0.2067
16927SOL    HW156617   0.318   8.822   6.781 -2.3772  1.9156  1.0492
16927SOL    HW256618   0.276   8.686   6.731 -0.1125  1.7242 -0.4796
16928SOL     OW56619   4.473   7.868   5.996  0.5479 -0.2679 -0.3774
16928SOL    HW156620   4.470   7.775   6.016  3.7142 -0.7897 -1.6559
16928SOL    HW256621   4.482   7.911   6.082 -0.5943 -1.1305  0.1945
16929SOL     OW56622   3.407   1.471   5.243 -0.4340  0.3052 -0.4587
16929SOL    HW156623   3.321   1.477   5.201 -0.0889 -1.1566 -1.4773
16929SOL    HW256624   3.421   1.556   5.285 -0.7753  1.9144 -3.4036
16930SOL     OW56625  10.522   2.191   1.574 -0.1786  0.0297 -0.2715
16930SOL    HW156626  10.608   2.223   1.600 -1.0506  2.3341 -0.0217
16930SOL    HW256627  10.521   2.100   1.604  1.8612  0.1898  0.4404
16931SOL     OW56628   9.451   6.139   4.755 -0.0426  0.3437 -0.3437
16931SOL    HW156629   9.525   6.162   4.810  0.7264 -1.5596 -0.5148
16931SOL    HW256630   9.441   6.213   4.695  0.3290  1.5682  1.0558
16932SOL     OW56631   1.343   2.462   5.066 -0.0320 -0.1302 -0.0539
16932SOL    HW156632   1.353   2.557   5.068  0.7044 -0.2111  0.9141
16932SOL    HW256633   1.303   2.444   4.981 -0.3597  1.0562 -0.1709
16933SOL     OW56634   1.321   2.378   6.797 -0.2380  0.2445 -0.4160
16933SOL    HW156635   1.313   2.374   6.892  0.3051  0.4918 -0.3603
16933SOL    HW256636   1.292   2.466   6.774 -0.8979  0.0056 -0.5397
16934SOL     OW56637  10.860   8.198   4.358  0.0252  0.7341  0.4825
16934SOL    HW156638  10.830   8.240   4.439  0.9602  0.2295  1.1075
16934SOL    HW256639  10.850   8.266   4.291 -1.5454  0.9063  0.8394
16935SOL     OW56640   1.092   0.937   7.855  0.5248 -0.0059  0.3110
16935SOL    HW156641   1.173   0.890   7.837  0.7885 -0.0495  1.5216
16935SOL    HW256642   1.078   0.992   7.778  0.0106 -2.2639 -1.3220
16936SOL     OW56643   7.034   6.640   4.009 -0.3848  0.5366 -0.2571
16936SOL    HW156644   7.023   6.546   4.023 -1.7990  0.7048 -0.1061
16936SOL    HW256645   6.945   6.674   3.997  0.0847  1.8756 -0.1926
16937SOL     OW56646   7.723   4.397   0.802  0.4835  0.0689  0.3011
16937SOL    HW156647   7.769   4.441   0.731  2.9781 -2.7454 -0.0279
16937SOL    HW256648   7.630   4.407   0.781  1.0345  2.3411 -1.3609
16938SOL     OW56649   7.176  10.360   1.346 -0.9142  0.1441 -0.9966
16938SOL    HW156650   7.223  10.280   1.370 -0.9903  0.7951  1.6165
16938SOL    HW256651   7.214  10.386   1.262  1.6037 -0.7318 -0.2159
16939SOL     OW56652   3.907   1.522   5.913  0.3712 -0.3642 -0.6100
16939SOL    HW156653   3.886   1.467   5.989 -1.0716 -0.1965 -0.8714
16939SOL    HW256654   3.906   1.462   5.839 -1.4154  0.0230 -0.9254
16940SOL     OW56655   2.657   3.276   9.452  0.2802 -0.3108 -0.1097
16940SOL    HW156656   2.571   3.282   9.412  0.6978  0.4785 -0.9509
16940SOL    HW256657   2.673   3.183   9.464 -0.9261 -0.4412  0.6180
16941SOL     OW56658   5.658   6.797   3.218  0.6729 -0.0147 -0.1902
16941SOL    HW156659   5.584   6.740   3.237  0.1601  0.6901 -0.0173
16941SOL    HW256660   5.693   6.765   3.135  0.3961 -0.5706 -0.0957
16942SOL     OW56661   3.990   2.424   4.588 -0.3373  0.0355  0.2787
16942SOL    HW156662   3.980   2.442   4.494  0.5361  0.8735  0.3313
16942SOL    HW256663   4.018   2.333   4.591 -0.4845 -0.0357 -0.2672
16943SOL     OW56664   3.735   3.501   4.381 -0.2154 -0.5753 -0.2741
16943SOL    HW156665   3.799   3.446   4.336  1.0039 -0.4095  1.1785
16943SOL    HW256666   3.668   3.440   4.412 -0.7910 -0.7541 -1.7812
16944SOL     OW56667   4.562   8.423  10.422 -0.5123 -0.4299 -0.1207
16944SOL    HW156668   4.620   8.464  10.486  0.6725  0.8659 -1.9411
16944SOL    HW256669   4.601   8.336  10.408 -0.3570 -0.4437  0.3596
16945SOL     OW56670   9.188   3.275   9.906 -0.3956 -0.1814  0.4772
16945SOL    HW156671   9.154   3.324   9.981 -2.2829 -2.4352  1.2223
16945SOL    HW256672   9.245   3.208   9.944 -0.1349 -0.3792 -0.2377
16946SOL     OW56673   6.622   1.058  10.548  0.3944  0.3100 -0.3970
16946SOL    HW156674   6.683   1.123  10.513  0.8444  0.2054  0.1821
16946SOL    HW256675   6.650   1.045  10.639 -0.5781  0.3685 -0.0767
16947SOL     OW56676   3.873  10.470   4.644  0.0169 -0.8201  0.5567
16947SOL    HW156677   3.876  10.559   4.680 -3.4924 -1.1206  2.0151
16947SOL    HW256678   3.890  10.413   4.718  2.6554 -1.4873 -0.4546
16948SOL     OW56679   8.739   7.402   8.515 -0.0876 -0.3253 -0.1945
16948SOL    HW156680   8.703   7.352   8.588  1.0380 -1.5876 -0.4594
16948SOL    HW256681   8.825   7.363   8.499 -0.1055  0.2345 -1.8747
16949SOL     OW56682   5.250   0.998   7.525 -0.0753 -0.1465 -0.1108
16949SOL    HW156683   5.185   0.964   7.463  2.5002 -2.2090 -1.8919
16949SOL    HW256684   5.226   0.958   7.609 -2.2885  0.8883 -0.1670
16950SOL     OW56685   2.494   8.608   8.811  0.3929  0.0355  0.0664
16950SOL    HW156686   2.523   8.694   8.779  0.5371  0.0523  0.2379
16950SOL    HW256687   2.518   8.547   8.741  1.0216  0.0220  0.2817
16951SOL     OW56688   3.303   1.974   6.125 -0.2095  1.0592  0.5279
16951SOL    HW156689   3.378   2.015   6.168 -1.5600  2.5535  1.5240
16951SOL    HW256690   3.294   1.889   6.169  0.8104  0.8911  0.4473
16952SOL     OW56691   7.622   8.232   9.298 -0.2161  0.3721 -0.1838
16952SOL    HW156692   7.683   8.305   9.311  0.3370 -0.1036 -0.0609
16952SOL    HW256693   7.588   8.245   9.209  0.5791  0.2730 -0.5113
16953SOL     OW56694   0.072   9.070   1.401  0.5315  0.1016  0.4835
16953SOL    HW156695   0.071   9.164   1.383  2.4171  0.1104  0.2562
16953SOL    HW256696   0.157   9.053   1.441  0.9917 -1.7744 -1.1003
16954SOL     OW56697   2.902   7.244   6.596 -0.3185 -0.0443 -0.1624
16954SOL    HW156698   2.809   7.240   6.572 -0.5712  1.2171  0.5067
16954SOL    HW256699   2.909   7.322   6.652  1.0330 -0.4737  0.3090
16955SOL     OW56700   7.059   7.567   6.610 -0.2150 -0.6101 -0.3479
16955SOL    HW156701   7.033   7.476   6.629 -0.2292 -0.1281  2.2617
16955SOL    HW256702   7.154   7.566   6.616 -0.3117  0.1056  3.0613
16956SOL     OW56703   4.048   5.699   9.764 -0.2534  0.4756  0.3606
16956SOL    HW156704   3.955   5.718   9.755 -0.7947 -1.6509  0.7979
16956SOL    HW256705   4.071   5.655   9.682  0.9576  2.8981 -0.6798
16957SOL     OW56706   1.413   4.995   5.778 -0.2231 -0.4312 -0.0219
16957SOL    HW156707   1.398   4.911   5.821 -1.3314  0.5383  1.5897
16957SOL    HW256708   1.364   4.989   5.696  1.1770 -1.9852 -0.8057
16958SOL     OW56709   6.445   9.858   2.373 -0.5318  0.1393 -0.2168
16958SOL    HW156710   6.372   9.913   2.347  0.3472  0.7472 -1.4999
16958SOL    HW256711   6.470   9.891   2.459 -1.3974  0.2878 -0.0123
16959SOL     OW56712   2.960  10.298   7.595  0.0969 -0.1992 -0.0972
16959SOL    HW156713   2.916  10.374   7.633 -3.7959 -1.8620 -0.8091
16959SOL    HW256714   2.980  10.242   7.670  1.2743  0.6529  0.2541
16960SOL     OW56715   6.388   7.075   6.836 -0.2374 -0.1628  0.3616
16960SOL    HW156716   6.439   7.136   6.781 -0.3877  0.1260  0.5399
16960SOL    HW256717   6.414   6.988   6.806 -1.0684 -0.0160 -0.8824
16961SOL     OW56718   1.410   3.004   3.132  0.3870  0.0697  0.1255
16961SOL    HW156719   1.483   3.021   3.191 -0.0180 -2.1747  1.4014
16961SOL    HW256720   1.429   2.918   3.094  1.1916  1.8225 -4.0240
16962SOL     OW56721   3.893   5.092   0.301 -0.0809 -0.1909  0.0169
16962SOL    HW156722   3.889   5.131   0.389  0.2710 -0.1914  0.0330
16962SOL    HW256723   3.972   5.039   0.302 -1.0638 -1.7004  0.3095
16963SOL     OW56724   3.091   6.926   6.501  0.0818  0.7530  0.1043
16963SOL    HW156725   3.149   6.860   6.540 -0.7729  0.3734  0.7788
16963SOL    HW256726   3.003   6.893   6.519 -0.3645  0.8016 -1.7688
16964SOL     OW56727   0.346   2.081  10.697  0.3905  0.1843  0.1421
16964SOL    HW156728   0.347   1.998  10.745  0.1242 -0.0392 -0.2248
16964SOL    HW256729   0.374   2.057  10.608 -1.4531  0.1281 -0.4777
16965SOL     OW56730   3.872   6.672   4.626  0.3776  0.1647 -0.5991
16965SOL    HW156731   3.871   6.579   4.649  0.8413  0.4010  0.4200
16965SOL    HW256732   3.784   6.689   4.592 -0.4234 -0.1756  1.1915
16966SOL     OW56733   9.304   3.212   3.483  0.3194 -0.6456  0.0088
16966SOL    HW156734   9.312   3.304   3.460 -1.5826 -0.8988 -1.9286
16966SOL    HW256735   9.297   3.211   3.578  2.5021  0.9747  0.2660
16967SOL     OW56736   6.960  10.286   0.887  0.2480  0.4203 -0.1337
16967SOL    HW156737   6.992  10.329   0.967 -2.5961  0.7927  0.9182
16967SOL    HW256738   7.035  10.235   0.857  3.0362  4.0035 -0.0392
16968SOL     OW56739   3.723   2.043   9.706  0.2915 -0.4031  0.5709
16968SOL    HW156740   3.817   2.058   9.716  0.3162 -0.7004  0.8055
16968SOL    HW256741   3.710   1.952   9.734  0.3314 -1.2572 -1.9247
16969SOL     OW56742   7.414   4.352   0.990  0.2755 -0.0031 -0.2001
16969SOL    HW156743   7.351   4.296   0.943 -0.8198  0.8354  0.2178
16969SOL    HW256744   7.434   4.422   0.928  0.7975 -0.2514 -0.3202
16970SOL     OW56745   2.878   4.223   7.332 -0.3029 -0.1701  0.1606
16970SOL    HW156746   2.964   4.206   7.368 -0.4758 -0.1825  0.5726
16970SOL    HW256747   2.861   4.315   7.354 -0.1739 -0.0139 -0.3814
16971SOL     OW56748   8.237   2.934   0.591 -0.3683  0.3732 -0.1684
16971SOL    HW156749   8.324   2.903   0.618 -0.8525  0.0090  1.0629
16971SOL    HW256750   8.212   2.998   0.658 -0.6316  1.2482 -1.0750
16972SOL     OW56751   9.326   9.675   5.804  0.1916  0.1658  0.2634
16972SOL    HW156752   9.417   9.689   5.776  0.7458  0.0565  1.8978
16972SOL    HW256753   9.317   9.730   5.882 -0.6613 -1.0400  1.0410
16973SOL     OW56754   7.839   1.728   3.481  0.0054  0.1926 -0.7790
16973SOL    HW156755   7.755   1.691   3.507  0.5617 -0.3802  0.2615
16973SOL    HW256756   7.896   1.652   3.467  0.7099  0.6050 -0.1984
16974SOL     OW56757   5.154   6.594  10.659  0.3561  0.4950  0.5154
16974SOL    HW156758   5.096   6.518  10.657 -0.2974  0.9703  1.0499
16974SOL    HW256759   5.218   6.573  10.727  0.9642 -0.1254 -0.2281
16975SOL     OW56760   0.413   7.536  10.408 -0.1439 -0.1379  0.0512
16975SOL    HW156761   0.466   7.599  10.457  0.9086 -0.4434 -0.6406
16975SOL    HW256762   0.381   7.585  10.332 -0.9605  0.0761  0.5287
16976SOL     OW56763   7.168   6.556   4.243 -0.1872  0.0579  0.7974
16976SOL    HW156764   7.145   6.540   4.152  0.0555  0.1567  0.7156
16976SOL    HW256765   7.139   6.478   4.290 -0.0756 -0.1080  0.5933
16977SOL     OW56766  10.440   2.659   2.078 -0.4787  0.1279  0.8251
16977SOL    HW156767  10.376   2.730   2.066 -0.5097 -0.0203  0.0039
16977SOL    HW256768  10.407   2.588   2.023 -2.1516 -1.7365  3.9451
16978SOL     OW56769   1.055   2.434  10.176  0.0695  0.0217  0.2471
16978SOL    HW156770   1.111   2.392  10.111 -0.1221 -0.0846  0.1506
16978SOL    HW256771   1.106   2.509  10.208 -0.8498  1.6667 -1.9035
16979SOL     OW56772   1.821   3.730   7.482  0.7754  0.0622  0.0639
16979SOL    HW156773   1.846   3.821   7.467 -0.4267  0.3478 -0.2925
16979SOL    HW256774   1.884   3.679   7.432 -0.3789  0.8305 -2.3199
16980SOL     OW56775   2.711   4.287   0.401  0.1350 -0.5161 -0.5196
16980SOL    HW156776   2.741   4.378   0.409  0.2018 -0.7026  1.8146
16980SOL    HW256777   2.678   4.281   0.311 -1.1183  2.2041 -0.3453
16981SOL     OW56778   5.308   2.690   0.427  0.2129  0.1077 -0.1165
16981SOL    HW156779   5.315   2.781   0.397  2.7732 -0.8477 -2.8816
16981SOL    HW256780   5.246   2.650   0.366  0.5781 -0.4601 -0.1168
16982SOL     OW56781   6.009   8.530   6.073 -0.5156  0.0946 -0.0224
16982SOL    HW156782   6.016   8.484   6.156 -2.5109 -1.3459 -0.5749
16982SOL    HW256783   6.013   8.462   6.007  0.5590  1.1708 -1.1017
16983SOL     OW56784  10.341   8.663   8.530 -0.1075  0.2689 -0.0774
16983SOL    HW156785  10.414   8.611   8.563 -0.7792 -1.2062 -0.8311
16983SOL    HW256786  10.273   8.599   8.510 -1.2334  1.5174 -0.3583
16984SOL     OW56787   3.237   8.768   4.065 -0.4377 -0.5556 -0.7710
16984SOL    HW156788   3.288   8.722   3.998 -1.0767 -0.3309 -1.4227
16984SOL    HW256789   3.256   8.860   4.050  2.1881 -0.5752  1.6066
16985SOL     OW56790   1.075   8.762   2.125  0.9136 -0.2573 -0.3469
16985SOL    HW156791   1.004   8.703   2.104  2.8245 -2.1419 -1.9665
16985SOL    HW256792   1.097   8.804   2.042 -0.1436  2.6016  0.6790
16986SOL     OW56793   0.226   1.280   8.236  0.1993 -0.6070  1.0216
16986SOL    HW156794   0.262   1.237   8.313  2.4269 -0.4686  0.1485
16986SOL    HW256795   0.291   1.264   8.167 -0.7093  0.9913 -0.2873
16987SOL     OW56796   3.795   5.612   6.539 -0.4890  0.2856  0.1796
16987SOL    HW156797   3.781   5.675   6.468 -0.1635  0.5885  0.3842
16987SOL    HW256798   3.722   5.550   6.530 -0.8465  0.7224  0.0124
16988SOL     OW56799   6.961   4.517   5.774  0.3306  0.2049 -0.1318
16988SOL    HW156800   6.972   4.612   5.775  1.8638  0.0770  1.8952
16988SOL    HW256801   6.899   4.499   5.844  0.0926 -0.3075 -0.4647
16989SOL     OW56802   5.602   8.659   3.079 -0.0490 -0.2453 -0.3477
16989SOL    HW156803   5.530   8.721   3.078 -0.2037 -0.3963  0.4390
16989SOL    HW256804   5.593   8.613   3.163  0.5241 -0.7770 -0.5655
16990SOL     OW56805   5.321   5.857   1.850  0.1301  0.1671 -0.1817
16990SOL    HW156806   5.297   5.846   1.758  2.2003 -1.9801 -0.5566
16990SOL    HW256807   5.238   5.875   1.894 -1.1397 -0.3036 -2.2453
16991SOL     OW56808   6.811   3.099   0.101  0.5910 -0.2198  0.3768
16991SOL    HW156809   6.845   3.020   0.142 -1.8551 -1.5977 -0.0664
16991SOL    HW256810   6.788   3.156   0.174  0.7644 -0.6475  0.7669
16992SOL     OW56811   5.532   9.133   4.925  0.8787  0.5540 -0.8138
16992SOL    HW156812   5.485   9.149   5.007 -0.3455 -0.3484 -1.3088
16992SOL    HW256813   5.516   9.211   4.872  0.0749  0.3244 -0.9114
16993SOL     OW56814   0.815   5.227   5.648  0.3141 -0.4135  0.5329
16993SOL    HW156815   0.849   5.151   5.601  1.6230 -0.7346  1.9093
16993SOL    HW256816   0.798   5.292   5.580 -0.5162 -1.7932 -0.6408
16994SOL     OW56817   9.455   5.043   6.916 -0.2619  0.1229 -0.0855
16994SOL    HW156818   9.450   5.135   6.943 -0.1426 -0.4506  2.1092
16994SOL    HW256819   9.500   4.999   6.989  0.2677 -1.5769 -1.3726
16995SOL     OW56820   9.456   4.233   9.629 -0.1777  0.6171  0.5577
16995SOL    HW156821   9.432   4.208   9.719  0.2799  0.3713  0.6140
16995SOL    HW256822   9.551   4.225   9.627 -0.1121  1.3688  0.2730
16996SOL     OW56823   4.494   2.421   8.344  0.4146  0.1449  0.0972
16996SOL    HW156824   4.537   2.403   8.428  1.9720 -0.7956 -0.8522
16996SOL    HW256825   4.402   2.400   8.359  0.8078 -0.8069  1.3516
16997SOL     OW56826   3.536  10.586   8.952  0.1804 -0.0032 -0.4283
16997SOL    HW156827   3.600  10.656   8.964  0.2451 -0.5317  3.9751
16997SOL    HW256828   3.464  10.627   8.904  1.1327  2.4265  0.0973
16998SOL     OW56829   0.198   7.483   4.215  0.1907  0.1170  0.0270
16998SOL    HW156830   0.186   7.389   4.206 -1.1850  0.2456  0.3860
16998SOL    HW256831   0.239   7.494   4.301 -1.2585 -0.0530  0.7621
16999SOL     OW56832   8.146   6.554   4.505 -0.4171  0.4689  0.2044
16999SOL    HW156833   8.050   6.549   4.498 -0.4824  1.3011  0.4623
16999SOL    HW256834   8.167   6.644   4.482  0.3196  0.2668  0.0716
17000SOL     OW56835   5.043   0.287   0.084  0.5315 -0.0116 -0.1779
17000SOL    HW156836   4.982   0.360   0.093  0.6822  0.2134 -0.9569
17000SOL    HW256837   5.034   0.259  -0.007 -0.1711 -1.5429  0.3163
17001SOL     OW56838   6.498   2.176   6.047  0.5118  0.0455  0.1977
17001SOL    HW156839   6.406   2.153   6.053 -0.0597  0.9582 -3.1005
17001SOL    HW256840   6.534   2.156   6.134 -2.2076 -2.6705  0.8604
17002SOL     OW56841   8.440   4.880   7.723  0.2680 -0.3359 -0.3165
17002SOL    HW156842   8.495   4.834   7.660  1.4287 -0.1971  0.5644
17002SOL    HW256843   8.496   4.949   7.758  0.5680 -1.9503  2.7196
17003SOL     OW56844   5.941   2.471   4.487  0.4899  0.4920 -0.1468
17003SOL    HW156845   5.863   2.526   4.496  1.2366  1.7254 -0.9729
17003SOL    HW256846   5.926   2.399   4.549 -2.0269 -0.2000 -1.4049
17004SOL     OW56847   7.352   8.171   6.090 -0.1035  0.0901  0.0101
17004SOL    HW156848   7.359   8.077   6.070  0.9718  0.2308 -0.3530
17004SOL    HW256849   7.326   8.174   6.182 -0.0037 -0.5647  0.0680
17005SOL     OW56850   2.821  10.387   9.087 -0.0370  0.0097  0.5542
17005SOL    HW156851   2.880  10.462   9.087 -1.1924  0.9475  0.1164
17005SOL    HW256852   2.855  10.330   9.018 -0.7171  1.4451 -1.0491
17006SOL     OW56853   8.839   1.462   5.930  0.1129 -0.2325 -0.1751
17006SOL    HW156854   8.810   1.496   6.015 -1.1806 -1.1820 -0.1996
17006SOL    HW256855   8.822   1.533   5.868 -1.2493 -0.3897 -0.0107
17007SOL     OW56856   8.237   2.020   7.110 -0.3242  0.5035 -0.3890
17007SOL    HW156857   8.150   2.020   7.070  0.1460  2.4170 -1.5409
17007SOL    HW256858   8.223   2.055   7.198 -0.7787  0.3721 -0.4059
17008SOL     OW56859   1.611   1.924  10.020  0.3155  0.3606 -0.1407
17008SOL    HW156860   1.705   1.928  10.039  0.3745  1.0553 -0.5489
17008SOL    HW256861   1.596   1.833   9.994  1.1655  0.5791 -1.5045
17009SOL     OW56862  10.894   0.094  10.841  0.9853  0.0729 -0.3094
17009SOL    HW156863  10.917   0.137  10.758  1.6101  0.0718 -0.1358
17009SOL    HW256864  10.885   0.001  10.818 -0.5138  0.2844 -0.7154
17010SOL     OW56865   0.064   4.081   9.758  0.1111  0.0166 -0.1684
17010SOL    HW156866   0.091   4.171   9.737 -0.7751  0.0210 -1.4039
17010SOL    HW256867   0.132   4.026   9.719  0.0765  0.1159 -0.3667
17011SOL     OW56868   5.821   1.056   4.213 -0.0728 -0.5044  0.2101
17011SOL    HW156869   5.793   0.976   4.168  1.7038 -0.3771 -1.2427
17011SOL    HW256870   5.767   1.125   4.175 -1.7939 -0.9965  1.6511
17012SOL     OW56871   8.527   3.110   8.949  0.2955  0.2907  0.1420
17012SOL    HW156872   8.494   3.059   8.875  0.4421 -0.9027  0.8773
17012SOL    HW256873   8.590   3.170   8.910  0.5853 -0.5246 -0.6719
17013SOL     OW56874   9.991   9.988   9.663  0.1346 -0.1219 -0.4312
17013SOL    HW156875   9.966  10.021   9.576 -0.4525 -2.3910 -1.1961
17013SOL    HW256876   9.967  10.059   9.723 -0.5851  1.0278 -1.9975
17014SOL     OW56877   0.557   9.856   4.569  0.0435  0.7623  0.1006
17014SOL    HW156878   0.542   9.912   4.493  2.6835  1.4104 -0.0129
17014SOL    HW256879   0.652   9.845   4.574 -0.2377 -3.4113  0.3499
17015SOL     OW56880   3.310  10.053   6.216  0.3166 -0.2290 -0.2167
17015SOL    HW156881   3.379  10.001   6.175  1.8241  1.2523  0.3224
17015SOL    HW256882   3.333  10.054   6.309 -1.4953 -1.2197  0.2949
17016SOL     OW56883   9.678   6.193   4.911  0.0851 -0.0491 -0.0706
17016SOL    HW156884   9.764   6.214   4.946  0.0377  0.4261 -0.2229
17016SOL    HW256885   9.672   6.098   4.916 -0.0974  0.0181  1.6449
17017SOL     OW56886   6.446   3.729  10.696 -0.3257  0.2830  0.0249
17017SOL    HW156887   6.530   3.774  10.700 -0.2058  0.1753 -1.0448
17017SOL    HW256888   6.381   3.798  10.712 -0.0038  0.0436  2.7323
17018SOL     OW56889   3.443   3.117   6.531 -0.5079  0.0670  0.1821
17018SOL    HW156890   3.408   3.206   6.542  0.2428  0.3827  0.0951
17018SOL    HW256891   3.368   3.060   6.542 -1.6936  0.8468 -2.8113
17019SOL     OW56892  10.206   4.859   7.137  0.3142  0.1440 -0.2518
17019SOL    HW156893  10.245   4.781   7.178  0.6411  1.5160  2.2644
17019SOL    HW256894  10.150   4.897   7.205 -1.8525  0.7794 -2.2523
17020SOL     OW56895   9.767   5.975   9.568  0.0140  0.5889  0.3353
17020SOL    HW156896   9.845   5.922   9.552  0.7483  1.2110  1.7163
17020SOL    HW256897   9.743   6.009   9.482  0.3758 -0.7955 -0.3477
17021SOL     OW56898   3.211   9.136   5.182  0.2063  0.1339  0.2435
17021SOL    HW156899   3.184   9.207   5.240  1.5642 -0.4741  1.7100
17021SOL    HW256900   3.175   9.057   5.223 -0.3881 -0.1494 -0.7875
17022SOL     OW56901   5.385   3.323   8.580 -0.6192  0.2912 -0.4522
17022SOL    HW156902   5.416   3.285   8.498 -1.0427  1.0630 -0.9824
17022SOL    HW256903   5.380   3.249   8.641  1.5955  0.0160 -0.5182
17023SOL     OW56904  10.520  10.305   0.797  0.4035 -0.6532  0.4976
17023SOL    HW156905  10.523  10.250   0.719 -0.7892 -1.6241  1.0977
17023SOL    HW256906  10.474  10.384   0.768  0.9082 -0.5452 -0.0328
17024SOL     OW56907   5.668   4.767   7.482  0.0409 -0.5205 -0.4328
17024SOL    HW156908   5.663   4.711   7.560 -2.2928 -0.4764 -0.4793
17024SOL    HW256909   5.703   4.709   7.413  0.7559 -0.9565  0.2742
17025SOL     OW56910   5.817   2.191   2.774 -0.4778  0.5551 -0.0808
17025SOL    HW156911   5.874   2.122   2.742 -1.4245  0.8487 -2.6466
17025SOL    HW256912   5.789   2.162   2.861  1.3387 -0.8902  0.0608
17026SOL     OW56913   1.666   3.237   0.391 -0.1840 -0.1614  0.2073
17026SOL    HW156914   1.758   3.211   0.386  0.2875  1.5309 -0.5175
17026SOL    HW256915   1.667   3.324   0.429 -1.4803 -0.0317 -0.0126
17027SOL     OW56916   5.737   1.114   8.637  0.7076 -0.5768 -0.1021
17027SOL    HW156917   5.741   1.019   8.631  0.1007 -0.5979 -0.2879
17027SOL    HW256918   5.681   1.131   8.713 -0.1544 -0.3903 -0.7516
17028SOL     OW56919   4.643   6.005   4.213  0.0586  0.8283 -0.4997
17028SOL    HW156920   4.677   6.006   4.303  1.9069  2.9612 -1.1375
17028SOL    HW256921   4.548   6.017   4.224 -0.1345 -1.5196  1.1963
17029SOL     OW56922   5.193  10.110   9.499 -0.4751 -0.1961  0.2935
17029SOL    HW156923   5.284  10.110   9.530 -0.8679  0.0561  1.5287
17029SOL    HW256924   5.141  10.101   9.579 -1.5584  0.4688 -0.3078
17030SOL     OW56925   2.156   2.251   3.232  0.1747 -0.2895  0.6244
17030SOL    HW156926   2.095   2.279   3.163  0.4294  0.8131  0.8284
17030SOL    HW256927   2.159   2.156   3.224  0.9853 -0.1443 -1.5615
17031SOL     OW56928   0.372   6.263   6.506 -0.1553  0.5263 -0.3371
17031SOL    HW156929   0.399   6.294   6.419 -0.9984 -0.3300 -0.9310
17031SOL    HW256930   0.365   6.342   6.559  1.1442  0.9808 -0.8243
17032SOL     OW56931  10.915   6.873   0.079 -0.4771 -0.1573 -0.3156
17032SOL    HW156932  10.920   6.910  -0.009 -2.8445  0.5189 -0.2532
17032SOL    HW256933  10.834   6.909   0.115 -0.8874 -2.3665  1.2113
17033SOL     OW56934   1.358  10.355   3.142  0.0791 -0.6273  0.0656
17033SOL    HW156935   1.451  10.349   3.120  0.0936 -2.6093  0.5254
17033SOL    HW256936   1.331  10.265   3.158 -2.0200 -0.1297 -0.3995
17034SOL     OW56937   6.289   7.032   5.291 -0.1793 -0.3182 -0.9077
17034SOL    HW156938   6.250   7.041   5.204 -2.0289 -0.1201 -0.1005
17034SOL    HW256939   6.337   7.114   5.305 -1.2584  0.3586 -1.0932
17035SOL     OW56940   1.783   1.229   8.898 -0.2369  0.7728  0.2137
17035SOL    HW156941   1.701   1.186   8.874  0.3216 -1.2603  1.6518
17035SOL    HW256942   1.835   1.229   8.818 -0.8004  0.0066 -0.1685
17036SOL     OW56943   0.212   6.280   8.535 -0.2277  0.1655 -0.0792
17036SOL    HW156944   0.119   6.262   8.524 -0.8991  2.3383  1.4745
17036SOL    HW256945   0.239   6.319   8.453 -1.3165  1.7447  0.2767
17037SOL     OW56946   6.603   4.721   0.053 -0.2887 -0.1797  0.6783
17037SOL    HW156947   6.538   4.733  -0.016 -1.3921 -0.9891  1.5598
17037SOL    HW256948   6.604   4.627   0.069  0.5376 -0.0864  1.2228
17038SOL     OW56949   6.761   2.391   1.997 -0.2967  0.4338  0.3493
17038SOL    HW156950   6.749   2.321   2.062 -0.5910 -0.9709 -1.1602
17038SOL    HW256951   6.770   2.471   2.050  0.4195 -0.7613  2.1486
17039SOL     OW56952   8.435   4.225   8.188 -0.6147  0.0718  0.1282
17039SOL    HW156953   8.472   4.161   8.128 -0.3404 -1.2926  1.6945
17039SOL    HW256954   8.375   4.276   8.134 -1.3298 -1.9197 -1.0617
17040SOL     OW56955   4.916   0.832   4.678 -1.0418  0.3891 -0.0421
17040SOL    HW156956   4.951   0.919   4.661  0.0288  0.0681  0.4719
17040SOL    HW256957   4.906   0.793   4.591  1.0219  0.0572 -0.1700
17041SOL     OW56958   0.888   4.514   8.928  0.1072  0.6357  0.0771
17041SOL    HW156959   0.824   4.505   8.998 -2.3537  1.7171 -1.9043
17041SOL    HW256960   0.848   4.470   8.853  1.6351  1.4731 -1.2918
17042SOL     OW56961   9.194   9.063   7.242 -0.2639  0.0044 -0.0746
17042SOL    HW156962   9.135   9.123   7.289 -1.7075 -0.3204 -1.3714
17042SOL    HW256963   9.186   8.981   7.289  2.5106  0.9541  2.3429
17043SOL     OW56964   2.406   1.163   0.997  0.0450 -0.0151  0.0109
17043SOL    HW156965   2.452   1.128   1.074 -0.6823  0.8208  0.8553
17043SOL    HW256966   2.415   1.095   0.931  1.0289 -0.5945  0.7037
17044SOL     OW56967   3.719   7.092   1.078 -0.5978 -0.1016 -0.1608
17044SOL    HW156968   3.763   7.129   1.001 -0.4664 -0.4217 -0.2411
17044SOL    HW256969   3.698   7.002   1.052  1.3524 -0.9245  0.9225
17045SOL     OW56970   9.236   8.201   0.253  0.2835 -0.2035  0.2259
17045SOL    HW156971   9.142   8.183   0.245  0.3166 -0.8869  1.1649
17045SOL    HW256972   9.277   8.126   0.210  0.4026 -0.3058  0.5179
17046SOL     OW56973   2.867   6.644   9.773 -0.3926 -0.0951 -0.9215
17046SOL    HW156974   2.842   6.586   9.701 -0.0111 -2.6581  0.8609
17046SOL    HW256975   2.802   6.625   9.841  0.8469  0.1847  0.3736
17047SOL     OW56976  10.602   3.925   3.288 -0.0531  0.3863  0.3493
17047SOL    HW156977  10.589   4.009   3.333  1.3899  0.6356  0.3598
17047SOL    HW256978  10.629   3.951   3.199 -1.0415 -0.0912 -0.1041
17048SOL     OW56979   3.257   3.906   0.933  0.1959 -0.6464 -0.6601
17048SOL    HW156980   3.172   3.863   0.921 -0.5476  0.0592  1.5206
17048SOL    HW256981   3.237   3.999   0.931  1.2399 -0.4127 -1.8436
17049SOL     OW56982   5.944  10.844   5.567 -0.3729  0.3407 -0.2854
17049SOL    HW156983   5.855  10.876   5.579 -0.2345  0.7311 -0.2784
17049SOL    HW256984   6.000  10.917   5.595 -0.0506  0.6957 -1.7532
17050SOL     OW56985   3.530   7.452   4.597 -0.1719 -0.1396 -0.2590
17050SOL    HW156986   3.457   7.508   4.624 -0.3218 -0.2324 -0.4736
17050SOL    HW256987   3.593   7.459   4.669 -0.2925  0.1195 -0.1773
17051SOL     OW56988   0.183   4.640   7.754  0.1021 -0.3567 -0.9920
17051SOL    HW156989   0.266   4.665   7.713 -0.0500  1.6352 -0.1985
17051SOL    HW256990   0.120   4.703   7.719 -0.9606 -1.4351 -1.0715
17052SOL     OW56991  10.484  10.211   0.388 -0.0145 -0.0359 -0.1391
17052SOL    HW156992  10.392  10.201   0.362  0.0393 -1.1879  0.0310
17052SOL    HW256993  10.497  10.305   0.396 -1.3701  0.1231  0.4821
17053SOL     OW56994   7.136   2.835   1.520  0.6552 -0.2255  0.3232
17053SOL    HW156995   7.103   2.896   1.454 -1.1361  0.6414  1.9109
17053SOL    HW256996   7.170   2.890   1.589  1.1311 -1.0854  0.7930
17054SOL     OW56997   9.114   4.345   3.390  0.3963 -0.3957  0.6447
17054SOL    HW156998   9.202   4.333   3.425  1.2149 -1.5445 -1.5836
17054SOL    HW256999   9.112   4.436   3.360  1.3780 -0.7418 -0.5691
17055SOL     OW57000   2.058   2.568   1.043 -0.2830 -0.1185  0.1240
17055SOL    HW157001   2.034   2.642   1.099  0.3758 -0.0725  0.3428
17055SOL    HW257002   1.981   2.556   0.986 -1.0787 -0.3692  1.2269
17056SOL     OW57003   6.705   1.146   9.061  0.0871 -0.3303 -0.5103
17056SOL    HW157004   6.691   1.199   8.983  1.0127 -1.1266 -1.2560
17056SOL    HW257005   6.641   1.178   9.125 -0.5510  0.4637 -1.5252
17057SOL     OW57006   0.637   7.586   0.351  0.0015 -0.3430 -0.0519
17057SOL    HW157007   0.565   7.525   0.366 -0.4834  0.3842  0.5900
17057SOL    HW257008   0.706   7.558   0.412  0.9769 -2.1137 -1.8380
17058SOL     OW57009   2.239   9.482  10.613  0.4047  0.3245 -1.0685
17058SOL    HW157010   2.180   9.557  10.615 -1.4814 -1.0665  0.9936
17058SOL    HW257011   2.296   9.494  10.689 -2.1524 -1.7998  1.4398
17059SOL     OW57012   7.607   1.860   7.107 -0.4539  0.1022  0.6030
17059SOL    HW157013   7.548   1.853   7.032  0.9344 -0.4160 -0.4718
17059SOL    HW257014   7.549   1.883   7.180 -2.1535 -1.4540 -0.1712
17060SOL     OW57015   7.534  10.060   5.603 -0.1509 -0.3147  1.2951
17060SOL    HW157016   7.568  10.146   5.628  0.7563 -0.8664  2.0721
17060SOL    HW257017   7.610  10.015   5.566 -0.5387 -0.8975  1.2027
17061SOL     OW57018   9.493   7.532   8.537 -0.1552 -0.1749 -0.1312
17061SOL    HW157019   9.566   7.527   8.475 -0.5631 -0.1389 -0.6238
17061SOL    HW257020   9.415   7.534   8.481 -0.4672  1.5951  0.3285
17062SOL     OW57021   7.260   5.391  10.778  0.3834  0.3594  0.2520
17062SOL    HW157022   7.266   5.456  10.848  2.4587  0.2332  0.2452
17062SOL    HW257023   7.321   5.422  10.711  1.0164 -1.3042  0.0155
17063SOL     OW57024   1.555   0.629   4.035  0.9539  0.2115 -0.2557
17063SOL    HW157025   1.627   0.616   4.096  0.9328  0.6286 -0.1360
17063SOL    HW257026   1.576   0.574   3.960  0.5518 -0.9805  0.4783
17064SOL     OW57027   2.312   6.536   6.099  0.4958  0.3006 -0.4616
17064SOL    HW157028   2.225   6.575   6.097 -0.4148 -1.5809  0.1452
17064SOL    HW257029   2.366   6.599   6.147 -1.0135  0.6340  0.8696
17065SOL     OW57030   0.630   7.330   5.509  0.0360 -0.2239 -0.3860
17065SOL    HW157031   0.662   7.243   5.485 -1.4152 -1.0247  0.4552
17065SOL    HW257032   0.535   7.319   5.518 -0.1765  1.4500 -0.2578
17066SOL     OW57033   9.111   4.474   7.027 -0.3124 -0.9300 -0.3867
17066SOL    HW157034   9.089   4.437   6.941 -0.7357 -1.4484 -0.0614
17066SOL    HW257035   9.065   4.418   7.089 -0.6663 -0.0796  0.1435
17067SOL     OW57036   8.682   0.722   9.735  0.2254  0.0423  0.1078
17067SOL    HW157037   8.733   0.780   9.792 -0.3703 -1.3491  2.1349
17067SOL    HW257038   8.748   0.673   9.685  0.8356 -0.2813  1.2047
17068SOL     OW57039   2.959   5.906   6.407 -0.4079  0.0353  0.0504
17068SOL    HW157040   2.903   5.926   6.482 -1.3029  0.6349 -0.7606
17068SOL    HW257041   2.949   5.982   6.349  1.1981  0.1274 -0.1477
17069SOL     OW57042   6.381   3.315   6.207  0.1888 -0.1847 -0.2674
17069SOL    HW157043   6.351   3.227   6.231 -0.5255 -0.0119 -0.4972
17069SOL    HW257044   6.474   3.314   6.226 -0.0167 -0.6357  0.7958
17070SOL     OW57045   0.803   9.264   9.312  0.1485 -0.0937 -0.4049
17070SOL    HW157046   0.849   9.318   9.247 -0.3149  1.3104  0.3969
17070SOL    HW257047   0.773   9.189   9.262  1.6470 -0.1182 -1.3656
17071SOL     OW57048   9.172   8.875   1.736  0.5036  0.4138 -0.1795
17071SOL    HW157049   9.248   8.930   1.715  0.8107  0.3934  0.8066
17071SOL    HW257050   9.196   8.832   1.818 -0.5431  0.3391  0.1053
17072SOL     OW57051   1.723   1.797  10.280 -0.2871  0.1545  0.3143
17072SOL    HW157052   1.665   1.872  10.294  0.3907  0.6930  0.3169
17072SOL    HW257053   1.788   1.805  10.349 -0.2600 -0.4927  0.3633
17073SOL     OW57054   9.987   4.520   5.688 -0.1831  0.7298 -0.4970
17073SOL    HW157055   9.922   4.583   5.657 -2.8266 -0.7976  1.5131
17073SOL    HW257056   9.957   4.436   5.654  2.5315  0.2574 -2.0135
17074SOL     OW57057   6.651   8.733   9.690 -0.2659 -0.2257 -0.3465
17074SOL    HW157058   6.738   8.752   9.654 -0.6562  1.0609 -0.6750
17074SOL    HW257059   6.594   8.730   9.613 -0.7771  0.5805 -0.0089
17075SOL     OW57060   7.460   7.957   1.785  0.3546  0.0869 -0.3539
17075SOL    HW157061   7.466   7.932   1.877  1.4461 -1.1690 -0.7364
17075SOL    HW257062   7.473   8.052   1.785  3.8908 -0.2806  0.5192
17076SOL     OW57063   3.357   7.507   5.269 -0.8323 -0.1967 -0.6884
17076SOL    HW157064   3.275   7.462   5.287 -1.2453  1.0072  0.6285
17076SOL    HW257065   3.335   7.573   5.203 -1.0009  0.3440 -0.0938
17077SOL     OW57066   0.857   5.488   3.352  0.1301  0.2060  0.0138
17077SOL    HW157067   0.788   5.447   3.300  0.6325 -0.2454 -0.2947
17077SOL    HW257068   0.930   5.499   3.292 -0.6826  3.5977 -0.5945
17078SOL     OW57069   5.807   8.867   6.635 -0.1475 -0.0234 -0.2906
17078SOL    HW157070   5.833   8.793   6.690 -2.0900 -0.6994 -0.2221
17078SOL    HW257071   5.736   8.909   6.685  0.4532  1.4811 -0.6567
17079SOL     OW57072   7.017  10.158   8.500  0.1041 -0.2231 -0.3397
17079SOL    HW157073   6.951  10.185   8.563  1.4912 -0.3859  1.2546
17079SOL    HW257074   7.019  10.063   8.506  1.4421 -0.1592  0.6962
17080SOL     OW57075   6.204   5.103   2.709 -0.0713 -0.1095  0.8076
17080SOL    HW157076   6.117   5.131   2.682  0.4399  0.6119 -0.1854
17080SOL    HW257077   6.252   5.093   2.626  1.1078  0.6007  1.3805
17081SOL     OW57078   2.269   2.641   2.047 -0.1385  0.2230 -0.0036
17081SOL    HW157079   2.342   2.658   1.988  1.6051 -1.7795  1.3708
17081SOL    HW257080   2.272   2.713   2.110  1.5501 -0.4264  0.7522
17082SOL     OW57081   6.286  10.432   8.445  0.5742 -0.1711  0.0433
17082SOL    HW157082   6.365  10.392   8.410  0.4927 -0.5085  0.2420
17082SOL    HW257083   6.223  10.360   8.451  1.0442 -0.4674  2.3151
17083SOL     OW57084  10.395   5.588   5.672 -0.2085 -0.3074 -0.4724
17083SOL    HW157085  10.322   5.597   5.610  0.0526  2.7953 -0.4662
17083SOL    HW257086  10.434   5.675   5.676  3.2394 -1.7155 -0.0871
17084SOL     OW57087   5.412   0.237   8.249 -0.0468 -0.7086  0.1244
17084SOL    HW157088   5.486   0.293   8.226 -0.3965 -0.3077 -0.0306
17084SOL    HW257089   5.344   0.297   8.279 -1.3083 -0.8172 -2.3220
17085SOL     OW57090   6.843   8.337   8.427 -0.2242  0.7087  0.4950
17085SOL    HW157091   6.835   8.416   8.480  2.7570  0.8105  1.0030
17085SOL    HW257092   6.869   8.269   8.489  0.5721  0.1787 -0.3879
17086SOL     OW57093   0.987   3.330  10.139 -0.3823  0.0756 -0.3979
17086SOL    HW157094   0.940   3.256  10.100 -0.0081  0.6021 -1.9460
17086SOL    HW257095   1.078   3.302  10.143 -0.2753  0.3570 -0.7756
17087SOL     OW57096   4.542   7.773   5.627  0.2943  0.0143  0.0522
17087SOL    HW157097   4.524   7.679   5.633 -0.7453  0.1950  0.0012
17087SOL    HW257098   4.601   7.782   5.552  0.5752 -0.6099  0.1908
17088SOL     OW57099   5.954   4.849   0.081  0.4648 -0.5067 -0.6346
17088SOL    HW157100   6.008   4.862   0.003  0.6231  1.1271 -0.2833
17088SOL    HW257101   5.864   4.864   0.051  0.2039 -2.6210 -1.0809
17089SOL     OW57102   0.008   8.120   3.916 -0.3169 -0.5738  0.2319
17089SOL    HW157103  -0.000   8.116   3.821  1.1366  0.4913  0.0138
17089SOL    HW257104   0.008   8.213   3.936  1.8132 -0.6761  0.9799
17090SOL     OW57105   7.970   2.545   8.413  0.2925 -0.2146  0.2826
17090SOL    HW157106   7.876   2.533   8.425  0.2232  0.2670  0.2363
17090SOL    HW257107   7.995   2.477   8.349 -0.1841  0.2148 -0.3731
17091SOL     OW57108   8.658   1.248   6.137  0.3487  0.2089 -0.1593
17091SOL    HW157109   8.622   1.161   6.118  1.3301  0.0128 -1.2266
17091SOL    HW257110   8.747   1.230   6.168  0.8407  0.8565 -1.1547
17092SOL     OW57111   6.187   5.977   9.736 -0.0639  0.1200 -0.0976
17092SOL    HW157112   6.252   6.033   9.779  0.3028 -0.4449  0.0922
17092SOL    HW257113   6.169   6.022   9.653  2.1170 -0.7385 -1.1230
17093SOL     OW57114   8.886   0.589   0.585 -0.0747  0.1422  0.3419
17093SOL    HW157115   8.860   0.669   0.631 -0.1856 -0.6624  1.7624
17093SOL    HW257116   8.888   0.522   0.654 -0.3502 -1.1600 -0.8662
17094SOL     OW57117  10.849   6.143   6.124  0.0573 -0.2619  0.6313
17094SOL    HW157118  10.899   6.065   6.149  0.3377 -0.7676 -1.2949
17094SOL    HW257119  10.762   6.129   6.162  0.8407 -0.2133  2.5289
17095SOL     OW57120   6.284   6.092  10.033  0.5896 -0.6391 -0.1619
17095SOL    HW157121   6.289   6.091  10.129  1.7968  0.7089 -0.1861
17095SOL    HW257122   6.215   6.155  10.014  1.1067 -0.0839 -0.1959
17096SOL     OW57123  10.503   5.870  10.054  0.0369 -0.1171  0.0352
17096SOL    HW157124  10.478   5.932   9.985  0.8131 -0.6667 -0.7739
17096SOL    HW257125  10.564   5.919  10.109  1.0000 -0.2664 -0.8604
17097SOL     OW57126   6.429   6.833   6.721 -0.4036 -0.4114  0.1205
17097SOL    HW157127   6.361   6.825   6.655 -0.4534  0.4427  0.0564
17097SOL    HW257128   6.468   6.746   6.727 -2.3178 -1.2543  1.0451
17098SOL     OW57129   4.352   7.921   6.410 -0.2332  0.2520  0.3862
17098SOL    HW157130   4.377   7.942   6.500  0.1945  1.1602  0.0620
17098SOL    HW257131   4.259   7.942   6.406 -0.2531  0.2153  0.6139
17099SOL     OW57132   5.939   3.383   0.839 -0.8826 -0.0778 -0.6234
17099SOL    HW157133   5.969   3.324   0.908 -2.5372 -0.4711 -0.2050
17099SOL    HW257134   6.019   3.408   0.793  0.0900 -0.9620  0.5188
17100SOL     OW57135   8.474   2.708   1.463  0.5680 -0.3187 -0.2713
17100SOL    HW157136   8.563   2.673   1.462  0.4804 -0.5812  0.2774
17100SOL    HW257137   8.485   2.801   1.480  0.7509 -0.3069 -0.4546
17101SOL     OW57138   3.560   3.991   0.542 -0.0397  0.3398  0.0218
17101SOL    HW157139   3.484   4.023   0.590  0.6061  1.6213  0.2328
17101SOL    HW257140   3.633   4.004   0.602  0.4264 -0.4144 -0.3641
17102SOL     OW57141   3.734   5.108  10.610 -0.2106  0.3338 -0.3765
17102SOL    HW157142   3.814   5.143  10.650 -0.4865  0.8971 -0.3196
17102SOL    HW257143   3.752   5.108  10.516  1.3164 -3.0608 -0.2561
17103SOL     OW57144   8.661   2.855   0.451 -0.0669 -0.1658 -0.3453
17103SOL    HW157145   8.724   2.919   0.420  0.0936 -0.8148 -1.4434
17103SOL    HW257146   8.642   2.801   0.374  0.1261 -1.7012  0.6253
17104SOL     OW57147   1.968   4.337   9.201 -0.5920 -0.6187  0.1937
17104SOL    HW157148   2.006   4.395   9.267  0.4041  0.5061 -1.2898
17104SOL    HW257149   1.991   4.249   9.230 -0.3374 -0.1671  1.4225
17105SOL     OW57150  10.123   0.648   0.945  0.0188 -0.7306 -0.0038
17105SOL    HW157151  10.114   0.706   1.020  0.3176  2.6016 -2.3519
17105SOL    HW257152  10.047   0.667   0.889  2.1645  0.5350 -2.7359
17106SOL     OW57153   0.789   7.329   2.659 -0.6377 -0.1902  0.6437
17106SOL    HW157154   0.748   7.403   2.614  0.9372  0.0346 -0.5020
17106SOL    HW257155   0.846   7.368   2.725  0.6611 -0.3062 -0.3643
17107SOL     OW57156   9.706   2.332   1.215 -0.0363  0.1276  0.0569
17107SOL    HW157157   9.796   2.354   1.194 -0.2987 -0.3192 -1.7101
17107SOL    HW257158   9.677   2.403   1.273  0.7636  1.5314 -1.1760
17108SOL     OW57159   4.455   8.829   9.845  0.2599  0.4374 -0.0575
17108SOL    HW157160   4.400   8.905   9.862  0.6508  1.0864 -1.5759
17108SOL    HW257161   4.540   8.851   9.883  0.4992  0.9598 -0.8764
17109SOL     OW57162   0.732   9.082   1.460 -0.4921 -0.1711  0.3625
17109SOL    HW157163   0.650   9.087   1.412 -0.0142  0.2857 -0.4315
17109SOL    HW257164   0.735   8.992   1.493 -1.3926 -0.1321  0.5541
17110SOL     OW57165  10.884   2.016   6.974 -0.1987 -0.3030  0.2779
17110SOL    HW157166  10.974   1.982   6.972  0.4433  1.2284  1.3495
17110SOL    HW257167  10.882   2.082   6.905  0.1123  1.0027  1.4660
17111SOL     OW57168   4.280   0.851   8.484 -0.1041  0.3717 -0.3390
17111SOL    HW157169   4.255   0.790   8.553 -0.6095  2.0025  0.9763
17111SOL    HW257170   4.203   0.857   8.428  0.1743 -0.6610 -0.8661
17112SOL     OW57171   4.410   5.249   5.836 -0.5134 -0.3472 -0.0432
17112SOL    HW157172   4.343   5.231   5.901  0.3267  0.3705  1.0564
17112SOL    HW257173   4.459   5.166   5.828 -1.0741 -0.6560 -0.3274
17113SOL     OW57174   8.991   1.400   4.817 -0.0054  0.2361 -0.0823
17113SOL    HW157175   9.081   1.396   4.786 -0.2046 -1.3642 -0.5527
17113SOL    HW257176   8.938   1.395   4.737 -0.5205 -2.9750  0.3221
17114SOL     OW57177   8.972   9.948   6.621 -0.1183  0.3819 -0.4893
17114SOL    HW157178   9.017  10.016   6.572  1.2042  0.0420  0.2178
17114SOL    HW257179   8.993   9.966   6.713  0.3874 -1.0458 -0.3001
17115SOL     OW57180   4.756   5.610   7.963  0.1380 -0.2449 -0.3419
17115SOL    HW157181   4.684   5.618   7.900 -1.9231 -2.2578  1.5702
17115SOL    HW257182   4.783   5.518   7.955  0.2273 -0.3744  1.2387
17116SOL     OW57183   0.925   6.233   5.989 -0.5016  0.1827  0.0562
17116SOL    HW157184   0.857   6.198   6.046  0.7733  1.0908  2.2338
17116SOL    HW257185   0.903   6.326   5.981  0.8634  0.6630  1.4432
17117SOL     OW57186   2.943   2.907   2.312 -0.2133  0.2285  1.0205
17117SOL    HW157187   2.891   2.892   2.391  0.1893  0.4896  1.3418
17117SOL    HW257188   2.887   2.961   2.256  0.7191  3.0427  2.5633
17118SOL     OW57189   6.806   7.707   6.715  0.1593  0.2970  0.3043
17118SOL    HW157190   6.760   7.736   6.794 -0.6229 -0.9905  0.3457
17118SOL    HW257191   6.822   7.614   6.730  1.2819  0.3509 -0.4546
17119SOL     OW57192   5.533   0.380   2.900 -0.2073 -0.3537 -0.8713
17119SOL    HW157193   5.476   0.454   2.878 -0.5531 -0.4022 -0.1573
17119SOL    HW257194   5.613   0.396   2.850 -0.0580  0.8111 -0.2819
17120SOL     OW57195   4.181   3.340   2.543 -0.2231  0.1186  0.2898
17120SOL    HW157196   4.151   3.249   2.539  4.0023 -1.5618  1.6267
17120SOL    HW257197   4.173   3.364   2.635 -0.2171  0.7067  0.1380
17121SOL     OW57198  10.318   1.550   4.569 -0.2397 -0.5870 -0.0904
17121SOL    HW157199  10.258   1.573   4.641 -0.0945 -0.4264 -0.0192
17121SOL    HW257200  10.350   1.634   4.537 -0.5533 -0.6475 -0.5569
17122SOL     OW57201   2.240   7.843   6.665  0.1484  0.0777 -0.0536
17122SOL    HW157202   2.323   7.891   6.657  0.1463 -0.1320 -1.6488
17122SOL    HW257203   2.198   7.855   6.580 -1.3663 -0.0250  0.6521
17123SOL     OW57204   6.203   0.352   9.624  0.3548 -0.0120 -0.8177
17123SOL    HW157205   6.119   0.391   9.604 -0.6387 -0.1230  2.4764
17123SOL    HW257206   6.267   0.409   9.582 -1.2739  1.6992 -1.1144
17124SOL     OW57207   3.631   0.480   5.857  0.1273  0.2263  0.3822
17124SOL    HW157208   3.615   0.390   5.885  0.4524  0.5182  1.6000
17124SOL    HW257209   3.696   0.474   5.788  0.0392 -0.4817  0.3602
17125SOL     OW57210   4.483   5.219   7.333  0.5179 -0.3740  0.1738
17125SOL    HW157211   4.505   5.149   7.394  1.4327 -0.5669 -0.3513
17125SOL    HW257212   4.497   5.180   7.247 -1.2612 -0.2696 -0.1816
17126SOL     OW57213   3.488   8.505   2.625  0.4093 -0.1107 -0.3716
17126SOL    HW157214   3.547   8.568   2.585 -0.2734  0.1160 -1.0693
17126SOL    HW257215   3.470   8.442   2.555 -1.3617  0.6792 -0.6874
17127SOL     OW57216   3.754   3.615   6.022  0.0847  0.2946 -0.2459
17127SOL    HW157217   3.719   3.527   6.027  0.1210  0.2614 -0.5537
17127SOL    HW257218   3.815   3.613   5.948  0.0279  0.5963 -0.3044
17128SOL     OW57219  10.544   2.241   9.310  0.4657 -0.1769  0.1341
17128SOL    HW157220  10.626   2.263   9.267  0.6451 -0.4162  0.3552
17128SOL    HW257221  10.479   2.238   9.240  1.0003 -1.9143 -0.3237
17129SOL     OW57222   1.546   9.665   4.181  1.0028 -0.5013 -1.2095
17129SOL    HW157223   1.585   9.592   4.131 -0.9481 -3.5138  1.2709
17129SOL    HW257224   1.463   9.682   4.137 -0.0023 -2.0848 -0.0236
17130SOL     OW57225   0.925   4.511   8.291  0.5943 -0.2107 -0.0908
17130SOL    HW157226   1.004   4.553   8.255  1.2777 -0.9232  0.5457
17130SOL    HW257227   0.907   4.560   8.371 -0.9383  1.3868 -1.3472
17131SOL     OW57228   4.904   1.822   8.488  0.3436 -0.2028  0.0751
17131SOL    HW157229   4.960   1.746   8.505  1.1037  0.8793  2.9606
17131SOL    HW257230   4.817   1.794   8.515  0.5196 -0.2646  0.6038
17132SOL     OW57231   7.291   1.797   6.331 -0.3934  0.0184  0.2634
17132SOL    HW157232   7.210   1.794   6.382 -0.3843  1.0353  0.3533
17132SOL    HW257233   7.360   1.809   6.397 -0.1940 -0.5200  0.1584
17133SOL     OW57234   4.027   1.562   8.947  0.2771  0.3708  0.0771
17133SOL    HW157235   3.938   1.539   8.922 -0.3977  2.0062  0.8963
17133SOL    HW257236   4.075   1.562   8.864 -0.5303 -0.2046 -0.4118
17134SOL     OW57237   4.632   8.402   5.042  0.3723 -0.0424 -0.3332
17134SOL    HW157238   4.611   8.310   5.057 -2.6178  0.6056  0.1289
17134SOL    HW257239   4.623   8.414   4.947 -1.1971  0.1213 -0.1953
17135SOL     OW57240   7.438   6.573   4.824  0.3446 -0.4008 -0.3334
17135SOL    HW157241   7.510   6.613   4.874 -0.5129 -1.0989  1.5445
17135SOL    HW257242   7.372   6.642   4.818 -0.3515 -0.8720  1.2672
17136SOL     OW57243   5.591   7.174   0.171 -0.1798  0.1722  0.2081
17136SOL    HW157244   5.621   7.160   0.261 -0.9095 -0.1007  0.4138
17136SOL    HW257245   5.618   7.095   0.124  1.8232  1.0705 -0.2695
17137SOL     OW57246   7.594   8.591   3.257  0.6423  0.4715  0.0708
17137SOL    HW157247   7.550   8.665   3.299  0.7931  1.3125 -1.2111
17137SOL    HW257248   7.653   8.557   3.325 -0.8832  0.2213  1.3441
17138SOL     OW57249   4.257   1.495   9.094 -0.0229 -0.7036  0.2384
17138SOL    HW157250   4.278   1.403   9.080  1.3839 -0.3427 -0.1496
17138SOL    HW257251   4.178   1.510   9.042 -0.0666 -1.6048  0.0406
17139SOL     OW57252   6.961   6.672   1.283  0.3025 -0.0572 -0.3523
17139SOL    HW157253   6.878   6.627   1.267  0.5523 -0.0640 -1.7808
17139SOL    HW257254   7.025   6.622   1.232  0.8171  1.1048 -0.8870
17140SOL     OW57255   0.747   4.764   5.813 -0.0065 -0.2153  0.1131
17140SOL    HW157256   0.745   4.743   5.906 -1.3938 -1.9403 -0.2447
17140SOL    HW257257   0.735   4.680   5.769 -2.6073  0.8694 -1.5354
17141SOL     OW57258   3.606  10.458   7.508  0.2385  0.0944 -0.6169
17141SOL    HW157259   3.673  10.524   7.526 -1.2903  2.0935 -1.7962
17141SOL    HW257260   3.572  10.481   7.422 -1.2320 -1.5068 -0.5304
17142SOL     OW57261  10.504   3.833  10.244 -0.3171  0.2758  0.1563
17142SOL    HW157262  10.418   3.832  10.287 -0.7460  1.8205 -0.5864
17142SOL    HW257263  10.542   3.918  10.267  0.1437  0.4439 -1.1290
17143SOL     OW57264   0.101   0.711   2.374  0.0238 -0.7621  0.7503
17143SOL    HW157265   0.041   0.742   2.442 -0.8555 -0.4713 -0.1299
17143SOL    HW257266   0.048   0.709   2.295  0.8945 -1.5804  0.1669
17144SOL     OW57267   7.163   2.040   4.161 -0.3514  0.2736 -0.2882
17144SOL    HW157268   7.071   2.018   4.176 -0.0254 -1.0961 -0.1666
17144SOL    HW257269   7.170   2.132   4.185 -1.1416 -0.2640  2.3224
17145SOL     OW57270  10.858   2.154   3.250  0.0708 -0.5186 -0.2030
17145SOL    HW157271  10.848   2.112   3.335 -0.2477  0.2793  0.1699
17145SOL    HW257272  10.932   2.110   3.209 -0.6412 -1.8407 -0.0965
17146SOL     OW57273   8.716   4.718   4.310 -0.1808 -0.5028 -0.3667
17146SOL    HW157274   8.683   4.704   4.399 -0.9805 -1.3139 -0.7728
17146SOL    HW257275   8.733   4.812   4.305  0.7806 -0.5877  0.9363
17147SOL     OW57276   7.875   2.123   2.673 -0.0386 -0.3411  0.0138
17147SOL    HW157277   7.899   2.037   2.708 -1.0648 -0.1107  1.3597
17147SOL    HW257278   7.943   2.142   2.608  2.5137 -0.3711  2.4998
17148SOL     OW57279   4.141   7.328  10.908  0.4162  0.0118 -0.3305
17148SOL    HW157280   4.046   7.330  10.922  0.5735  1.6502  0.8159
17148SOL    HW257281   4.156   7.393  10.838  0.9960  2.8840  2.2565
17149SOL     OW57282   0.407   5.671   7.746 -0.1403 -0.8131  0.1572
17149SOL    HW157283   0.334   5.611   7.729 -0.4680 -0.1563 -0.9004
17149SOL    HW257284   0.479   5.615   7.775  0.3373 -2.1013 -3.0777
17150SOL     OW57285   8.523   6.181   8.860  0.4100 -0.6961  0.4884
17150SOL    HW157286   8.612   6.214   8.873  0.0469  0.0065  1.2354
17150SOL    HW257287   8.490   6.228   8.783  0.0844  0.3102  1.2318
17151SOL     OW57288   3.269   5.454  10.885  0.5823  0.7135  0.3795
17151SOL    HW157289   3.287   5.467  10.978  2.2421  0.7268  0.0819
17151SOL    HW257290   3.336   5.393  10.855 -1.9563 -2.0997 -0.1163
17152SOL     OW57291   3.208   4.886   1.825  0.1851 -0.0257 -0.0170
17152SOL    HW157292   3.159   4.956   1.782 -0.5648 -1.6502 -1.9250
17152SOL    HW257293   3.300   4.912   1.815 -0.0905  0.9756 -0.1080
17153SOL     OW57294   2.459  10.563   8.656  0.4071  0.1843  0.1109
17153SOL    HW157295   2.401  10.634   8.683  1.0832  1.0013 -0.5331
17153SOL    HW257296   2.498  10.533   8.738 -0.2356  0.2253  0.4467
17154SOL     OW57297   8.926   4.953   0.255  0.1446  0.1586  0.5215
17154SOL    HW157298   8.957   4.961   0.164 -0.6157 -0.5067  0.1936
17154SOL    HW257299   8.861   5.023   0.264 -1.0752 -0.8568 -0.0239
17155SOL     OW57300   3.437   7.457   1.807 -0.2813 -0.0696  0.2953
17155SOL    HW157301   3.361   7.422   1.760 -0.4701 -0.3402  0.7946
17155SOL    HW257302   3.511   7.404   1.776 -0.5680 -0.9387  1.0588
17156SOL     OW57303   4.427   1.465   4.214 -0.3356  0.4793 -0.7882
17156SOL    HW157304   4.362   1.454   4.283  1.9695 -2.5022  1.1773
17156SOL    HW257305   4.397   1.407   4.143 -0.4998  0.1163 -0.4287
17157SOL     OW57306   5.846  10.075   4.449 -0.1092  0.2337  0.3173
17157SOL    HW157307   5.830  10.120   4.366 -1.5989 -0.0528  0.4076
17157SOL    HW257308   5.935  10.042   4.442  0.6452  2.2455 -0.1780
17158SOL     OW57309   3.616   2.479   5.014  0.5923 -0.0208 -0.1920
17158SOL    HW157310   3.608   2.384   5.024  0.1791 -0.0032 -0.3247
17158SOL    HW257311   3.678   2.489   4.941 -0.8801 -0.2315 -1.5342
17159SOL     OW57312   4.684   5.856  10.454  0.0791  0.3801  0.9224
17159SOL    HW157313   4.712   5.768  10.429 -2.2751 -0.4362  0.8977
17159SOL    HW257314   4.656   5.896  10.372 -1.4914  0.0933  1.2960
17160SOL     OW57315   0.604   8.737   4.376  0.6452  0.4778 -0.5235
17160SOL    HW157316   0.536   8.786   4.421 -0.5850 -1.1158 -0.5742
17160SOL    HW257317   0.588   8.755   4.283 -1.4079 -1.8943 -0.7181
17161SOL     OW57318  10.599   7.717   7.033 -0.1671  0.2000  0.4464
17161SOL    HW157319  10.554   7.668   7.102 -1.4869 -0.1813 -0.6448
17161SOL    HW257320  10.671   7.660   7.007 -0.5038 -0.2845  0.5475
17162SOL     OW57321   6.495   3.763   3.359  0.4938 -0.0770 -0.6238
17162SOL    HW157322   6.519   3.673   3.337  2.5633  0.0428  0.8679
17162SOL    HW257323   6.465   3.758   3.450 -1.4520  0.4424 -1.1988
17163SOL     OW57324   1.037   1.588   9.871 -0.2954 -0.1383  0.1572
17163SOL    HW157325   1.015   1.565   9.961 -2.0000  1.3587  0.1892
17163SOL    HW257326   1.002   1.515   9.819  1.8953 -1.6880  0.7130
17164SOL     OW57327   5.281   9.532   6.951 -0.3607  0.3246  0.4348
17164SOL    HW157328   5.263   9.445   6.916 -0.5410  0.3264  0.5232
17164SOL    HW257329   5.221   9.590   6.904 -1.0507  0.2420  1.1929
17165SOL     OW57330   4.497   5.081   3.415 -0.0072  0.0059  0.1756
17165SOL    HW157331   4.592   5.088   3.413 -0.0975  1.4797 -0.2033
17165SOL    HW257332   4.466   5.170   3.395 -1.4525 -0.7536 -1.2340
17166SOL     OW57333   4.515   8.023   6.233  0.1682 -0.1779 -0.3747
17166SOL    HW157334   4.448   7.998   6.297  0.3053 -0.2382 -0.2564
17166SOL    HW257335   4.560   8.097   6.273 -0.9009  0.9355 -1.1524
17167SOL     OW57336   8.228   0.331   0.925 -0.3918  0.3658  0.4710
17167SOL    HW157337   8.286   0.344   0.849 -1.2784 -0.1210 -0.3096
17167SOL    HW257338   8.189   0.417   0.939 -0.3920  0.4083  0.2270
17168SOL     OW57339   9.187   2.151   6.306  0.8657 -0.7104  0.0822
17168SOL    HW157340   9.164   2.170   6.215  0.1891  0.8796  0.5344
17168SOL    HW257341   9.266   2.202   6.322 -0.2531  0.8373  0.9691
17169SOL     OW57342   2.364   0.035   4.211  0.0236  0.0502 -1.0133
17169SOL    HW157343   2.406  -0.024   4.149  0.3879  0.1430 -0.8552
17169SOL    HW257344   2.427   0.106   4.225  0.8450 -0.9877  1.0117
17170SOL     OW57345   7.856   4.680   5.080 -0.2789 -0.2841 -0.6217
17170SOL    HW157346   7.894   4.608   5.031 -0.9332 -0.5220 -0.7827
17170SOL    HW257347   7.860   4.755   5.021 -0.8808 -0.5227 -0.9778
17171SOL     OW57348   2.046   3.672  10.566 -0.6431  0.4241  0.0945
17171SOL    HW157349   1.954   3.654  10.547 -0.9656  0.7118  1.2708
17171SOL    HW257350   2.094   3.606  10.517 -1.5149 -0.1293 -0.0446
17172SOL     OW57351   7.990  10.273   9.406 -0.0223 -0.3095 -0.4716
17172SOL    HW157352   7.948  10.353   9.374  1.2857 -0.1454 -1.8933
17172SOL    HW257353   8.021  10.229   9.327  0.8931 -1.3039  0.4067
17173SOL     OW57354   8.795   4.126   5.446 -0.1119 -0.4643 -0.0619
17173SOL    HW157355   8.704   4.152   5.429 -0.0088  0.1170  0.2235
17173SOL    HW257356   8.800   4.117   5.542 -0.0196 -1.0880 -0.1240
17174SOL     OW57357   2.956   5.763   4.812 -0.3432 -0.0212 -0.3223
17174SOL    HW157358   2.948   5.681   4.861  1.4011  0.1710  0.3354
17174SOL    HW257359   3.020   5.744   4.743  1.6895  1.2737  1.0736
17175SOL     OW57360   9.827   1.811   2.195 -0.0288  0.1227 -0.1929
17175SOL    HW157361   9.908   1.836   2.150  1.5796 -1.7248  1.4700
17175SOL    HW257362   9.811   1.884   2.256  0.4627  0.4561 -0.4525
17176SOL     OW57363  10.677   5.849   6.228  0.1861  0.1545 -0.3006
17176SOL    HW157364  10.638   5.937   6.230  1.1817  0.5950  0.9037
17176SOL    HW257365  10.756   5.857   6.280  0.0919 -1.5770  0.1502
17177SOL     OW57366   8.608   7.329   6.727  0.3948  0.3864 -0.1404
17177SOL    HW157367   8.578   7.406   6.677  0.7429 -0.2282 -1.3194
17177SOL    HW257368   8.691   7.357   6.765 -0.2701  1.1439  0.8345
17178SOL     OW57369   6.785   5.986   0.149  0.6050  0.4646 -0.3562
17178SOL    HW157370   6.736   6.014   0.073 -2.3716 -0.2723  1.1386
17178SOL    HW257371   6.790   5.890   0.141 -3.0775 -0.1139  2.0009
17179SOL     OW57372   2.789   5.775   8.582 -0.1171  0.9145 -0.0887
17179SOL    HW157373   2.841   5.777   8.662 -2.1196  1.5009  1.2859
17179SOL    HW257374   2.728   5.702   8.595 -0.1613  0.7198 -1.2978
17180SOL     OW57375   1.651   1.530   7.498 -0.1802 -0.3610  0.0856
17180SOL    HW157376   1.640   1.443   7.461  0.5085 -0.0068 -1.0185
17180SOL    HW257377   1.721   1.569   7.446  0.0087  0.5990  1.0228
17181SOL     OW57378   3.768   6.296   0.498  0.3157 -0.1300  0.7270
17181SOL    HW157379   3.754   6.350   0.576 -2.0279 -1.1223  1.0545
17181SOL    HW257380   3.682   6.263   0.475  1.0416 -0.4130 -1.9451
17182SOL     OW57381   3.785   1.078   6.181 -0.6711 -0.2765 -0.0711
17182SOL    HW157382   3.734   1.006   6.218 -0.9866 -0.3028 -0.5485
17182SOL    HW257383   3.833   1.039   6.109 -0.5921 -0.0772 -0.1273
17183SOL     OW57384   9.297   5.103   1.049 -1.1943  0.8848  0.2793
17183SOL    HW157385   9.320   5.016   1.015 -2.0476 -0.0092  1.8653
17183SOL    HW257386   9.370   5.159   1.023 -1.1912 -0.0073 -1.8168
17184SOL     OW57387   4.778  10.720   5.992 -0.2795 -0.1725 -0.7564
17184SOL    HW157388   4.832  10.680   6.060 -0.6247 -0.9634 -0.9434
17184SOL    HW257389   4.796  10.814   6.000  1.2147 -0.4212 -0.8804
17185SOL     OW57390   2.997   6.764   4.259  0.1120 -0.0401  0.4051
17185SOL    HW157391   2.918   6.728   4.300 -0.1735 -1.2943 -1.1527
17185SOL    HW257392   3.069   6.732   4.314 -0.4194  1.1585  1.8704
17186SOL     OW57393   2.175   7.479   6.547  0.0951 -0.2605  0.4166
17186SOL    HW157394   2.112   7.520   6.606 -1.2420 -0.1588 -1.0142
17186SOL    HW257395   2.235   7.432   6.605 -0.9230  0.1489  1.8643
17187SOL     OW57396   3.449   3.510   0.082  0.1754  0.2082 -0.1241
17187SOL    HW157397   3.446   3.419   0.111  1.0330  0.6395  1.4282
17187SOL    HW257398   3.440   3.561   0.162  2.5203  1.4631 -0.5609
17188SOL     OW57399  10.092   6.536   1.937 -0.2655 -0.2482  0.6585
17188SOL    HW157400  10.043   6.456   1.957 -0.6342 -0.7450 -1.9643
17188SOL    HW257401  10.184   6.510   1.944 -0.3841 -0.8448  0.1277
17189SOL     OW57402   2.751   3.668   2.484 -0.5572  0.1693  0.0563
17189SOL    HW157403   2.720   3.755   2.509 -1.8018 -0.0599 -0.5893
17189SOL    HW257404   2.790   3.680   2.398 -1.1351  0.0231 -0.2321
17190SOL     OW57405   5.879   9.921   7.760  0.3783  0.0433 -0.7111
17190SOL    HW157406   5.873   9.870   7.679 -1.3721 -0.0567 -0.5480
17190SOL    HW257407   5.812   9.884   7.817  0.8645  0.8153  0.4038
17191SOL     OW57408   4.788   6.548   2.582  0.2374 -0.0586 -0.1775
17191SOL    HW157409   4.808   6.468   2.632 -0.4166 -0.5116 -0.6173
17191SOL    HW257410   4.725   6.519   2.516  0.1650  0.7844 -0.4851
17192SOL     OW57411   1.223   0.400   5.718 -0.5852 -0.7331 -0.7195
17192SOL    HW157412   1.270   0.479   5.692 -0.7818 -1.0376 -2.1034
17192SOL    HW257413   1.155   0.389   5.651 -2.1279 -0.7493  0.7890
17193SOL     OW57414   7.845   2.254  10.176 -0.3854  0.2405 -0.3927
17193SOL    HW157415   7.815   2.345  10.173  2.1246  1.1791  0.3549
17193SOL    HW257416   7.905   2.251  10.251  0.4124 -1.7507 -1.0466
17194SOL     OW57417   7.113   7.293   3.578 -0.1058  0.0269 -0.0724
17194SOL    HW157418   7.174   7.332   3.515  0.8052 -1.8323 -0.4326
17194SOL    HW257419   7.086   7.211   3.537 -0.9769 -0.3248  1.1589
17195SOL     OW57420  10.663   5.885   0.920 -0.0476  0.0732  0.7933
17195SOL    HW157421  10.615   5.803   0.928  0.5478 -0.3942 -0.2364
17195SOL    HW257422  10.755   5.860   0.932  0.1386  0.5795  0.4544
17196SOL     OW57423   0.789   3.015   3.327 -0.1800  0.7321  0.2300
17196SOL    HW157424   0.765   2.953   3.259  0.2207 -0.4982  1.1767
17196SOL    HW257425   0.848   2.967   3.385 -1.8223  1.1691  2.4064
17197SOL     OW57426  10.860   0.141  10.542 -0.3297  0.0766 -0.1801
17197SOL    HW157427  10.906   0.081  10.483  0.7433 -1.0245  1.6959
17197SOL    HW257428  10.900   0.226  10.524  1.5727 -0.6237  0.4411
17198SOL     OW57429   4.890   6.375   0.854  0.3229 -0.2511 -0.4638
17198SOL    HW157430   4.955   6.414   0.913  0.4768  0.0355 -0.8198
17198SOL    HW257431   4.893   6.429   0.776 -0.2646 -0.3093 -0.5306
17199SOL     OW57432   1.892   6.102   9.021 -0.4884 -0.1398 -0.2670
17199SOL    HW157433   1.975   6.071   9.057 -0.7149 -0.9572 -0.4137
17199SOL    HW257434   1.916   6.173   8.961  0.2453 -1.1897 -1.2696
17200SOL     OW57435   3.017   6.632   1.808 -0.2355 -0.0135 -0.6485
17200SOL    HW157436   3.024   6.605   1.717 -0.9314  2.0158 -1.3726
17200SOL    HW257437   3.107   6.639   1.839 -0.0046 -0.9164 -1.1165
17201SOL     OW57438   2.978   5.079   8.709 -0.9265  0.5082  0.3247
17201SOL    HW157439   2.937   5.024   8.643  0.9191 -1.9140  1.0407
17201SOL    HW257440   2.957   5.035   8.792  0.2935  1.0757  0.9515
17202SOL     OW57441   7.475   5.115   6.295 -0.0063  1.0557 -0.1246
17202SOL    HW157442   7.450   5.155   6.378  0.0560  1.0326 -0.0947
17202SOL    HW257443   7.392   5.104   6.248 -0.7611 -3.0485  1.7139
17203SOL     OW57444   5.271   0.607   9.088  0.4635 -0.4117 -0.3352
17203SOL    HW157445   5.323   0.610   9.008  1.2077  2.1560  0.1534
17203SOL    HW257446   5.302   0.681   9.140 -2.6638  0.3698  0.6368
17204SOL     OW57447   3.065   3.675   2.434  0.0541  0.4340  0.3936
17204SOL    HW157448   3.084   3.752   2.381 -0.4938  0.1541 -0.2211
17204SOL    HW257449   3.138   3.616   2.417 -0.8616 -0.2730 -1.2557
17205SOL     OW57450   0.098   3.540   1.696  0.3555  0.1600 -0.2966
17205SOL    HW157451   0.181   3.492   1.702  0.0442 -0.5661 -1.4174
17205SOL    HW257452   0.082   3.547   1.602 -0.9926  0.0383 -0.0927
17206SOL     OW57453   5.655  10.467   9.121  0.3221 -0.3051 -0.3105
17206SOL    HW157454   5.563  10.448   9.105  0.5285 -1.2853 -0.3991
17206SOL    HW257455   5.697  10.381   9.127  1.1720  0.1204  0.0713
17207SOL     OW57456   6.698   3.617   3.944 -0.0321 -0.2066  0.8572
17207SOL    HW157457   6.765   3.580   3.887  0.0410 -0.2775  0.9884
17207SOL    HW257458   6.617   3.573   3.917 -0.1565  0.3963  0.2188
17208SOL     OW57459   2.382   0.786   7.933 -0.0163 -0.0023 -0.1178
17208SOL    HW157460   2.462   0.837   7.947  1.0285 -1.1812 -1.4035
17208SOL    HW257461   2.414   0.696   7.919 -1.6158 -0.6075 -0.0644
17209SOL     OW57462  10.239   3.017  10.327  0.4756 -0.2482 -0.1136
17209SOL    HW157463  10.300   2.956  10.286  0.7718  0.9214 -1.4680
17209SOL    HW257464  10.155   2.998  10.284  0.6399  0.5060 -0.7854
17210SOL     OW57465   8.879   3.281   6.212 -0.2693 -0.6587 -0.5812
17210SOL    HW157466   8.870   3.301   6.119  1.0309 -0.2920 -0.6445
17210SOL    HW257467   8.892   3.186   6.216  3.6421 -0.3275 -1.1911
17211SOL     OW57468   1.618   1.671   9.837 -0.1246 -0.0313  0.5623
17211SOL    HW157469   1.680   1.601   9.861  0.2434 -0.7752 -2.1292
17211SOL    HW257470   1.670   1.731   9.783 -1.0030  1.1212  0.9551
17212SOL     OW57471  10.229   4.849   4.847 -0.0305 -0.6971  0.2712
17212SOL    HW157472  10.211   4.832   4.939 -1.2628  0.0573  0.1987
17212SOL    HW257473  10.150   4.818   4.802 -0.4080  0.9403 -0.2849
17213SOL     OW57474   7.477   1.357   8.848  0.6440 -1.0871  0.3328
17213SOL    HW157475   7.562   1.381   8.813  0.3201 -1.9133 -1.0941
17213SOL    HW257476   7.414   1.399   8.791  0.0469  0.2558  1.9002
17214SOL     OW57477   0.663   6.192   9.583 -0.1004 -0.4456 -0.1361
17214SOL    HW157478   0.631   6.130   9.517 -1.3116  1.2753 -1.2765
17214SOL    HW257479   0.727   6.245   9.537  2.8087 -2.2963  1.4954
17215SOL     OW57480   7.631   7.383   5.341  0.2955  0.1476 -0.3280
17215SOL    HW157481   7.559   7.445   5.326  1.0838  0.8648 -1.2671
17215SOL    HW257482   7.658   7.356   5.254 -0.1199 -1.6845  0.0653
17216SOL     OW57483   3.128   7.420   3.644 -0.7258 -0.0068 -0.0046
17216SOL    HW157484   3.126   7.426   3.549  1.6744  1.0193 -0.0696
17216SOL    HW257485   3.058   7.358   3.666  0.3428 -2.3501 -2.6082
17217SOL     OW57486   9.142   5.182   2.885  0.0921  0.6072  0.5618
17217SOL    HW157487   9.156   5.275   2.904  0.5404  0.8213 -0.7391
17217SOL    HW257488   9.179   5.169   2.798 -2.9585 -0.0535 -0.7694
17218SOL     OW57489  10.594   6.192   3.248 -0.2198 -0.3475 -0.2577
17218SOL    HW157490  10.600   6.112   3.195  2.5421 -0.5677  0.2136
17218SOL    HW257491  10.601   6.263   3.184 -3.6353 -0.3208 -0.7888
17219SOL     OW57492   8.302   7.248   1.623  0.3822 -0.5961  0.6445
17219SOL    HW157493   8.382   7.298   1.633  0.1857 -0.4829  1.7835
17219SOL    HW257494   8.234   7.314   1.609  0.3039 -0.6162  0.9294
17220SOL     OW57495   1.402   1.652   5.328  0.0843  0.2424  0.1628
17220SOL    HW157496   1.393   1.722   5.392 -0.8350  0.1724  0.1194
17220SOL    HW257497   1.461   1.589   5.369 -0.5952  0.1356  0.9944
17221SOL     OW57498   9.484   8.595   6.170 -0.6271 -0.2919  0.4349
17221SOL    HW157499   9.569   8.569   6.204  0.1242  2.3716  0.8111
17221SOL    HW257500   9.504   8.648   6.093 -2.1013 -1.9057 -1.1424
17222SOL     OW57501   0.948   2.263   4.490 -0.3158 -0.1154 -0.1789
17222SOL    HW157502   1.019   2.223   4.539 -2.3187 -1.8951  1.5064
17222SOL    HW257503   0.961   2.235   4.400  1.3567  0.0272 -0.0057
17223SOL     OW57504   1.710   2.847   0.829 -0.2918 -0.3494 -0.3564
17223SOL    HW157505   1.618   2.844   0.802 -0.6719  1.6168  0.4645
17223SOL    HW257506   1.706   2.851   0.925  0.5877  0.5180 -0.3372
17224SOL     OW57507  10.739   7.673   3.843  0.4667 -0.1155  0.1016
17224SOL    HW157508  10.677   7.713   3.905 -0.9856 -3.1310  0.7862
17224SOL    HW257509  10.693   7.674   3.759  0.4880 -0.1829  0.0890
17225SOL     OW57510   1.371   6.020   0.775 -0.4134  0.2526  0.0003
17225SOL    HW157511   1.353   6.058   0.861 -0.4982 -0.6344  0.3835
17225SOL    HW257512   1.291   6.034   0.726 -0.6305  0.1148  0.3089
17226SOL     OW57513   9.962  10.048   7.386 -0.6263 -0.4288  0.3676
17226SOL    HW157514  10.026  10.103   7.340  1.3694 -1.6347  1.5669
17226SOL    HW257515  10.009  10.016   7.463 -2.8886 -0.9481  1.6115
17227SOL     OW57516   1.563   3.312   7.944  0.4982 -0.4384  1.0603
17227SOL    HW157517   1.592   3.364   7.869 -0.9023  1.0019  1.4471
17227SOL    HW257518   1.642   3.270   7.977  1.4169  0.2083 -0.2433
17228SOL     OW57519   1.849  10.084   3.475  0.8937 -0.4735 -0.1770
17228SOL    HW157520   1.804  10.166   3.453 -0.0950 -0.7799  0.6434
17228SOL    HW257521   1.913  10.110   3.542  0.8579 -0.3091 -0.2045
17229SOL     OW57522  10.865   7.666   4.254  0.2290  0.4797 -0.0714
17229SOL    HW157523  10.901   7.577   4.249 -0.4057 -0.0161  2.7285
17229SOL    HW257524  10.921   7.711   4.317  0.0618  1.8691 -0.8628
17230SOL     OW57525   4.710   6.378   0.040  0.0163  0.3259  0.2434
17230SOL    HW157526   4.670   6.309  -0.013  1.7799 -1.0787  0.6093
17230SOL    HW257527   4.650   6.389   0.114 -0.0901 -1.2242  0.4327
17231SOL     OW57528   7.805   2.489   7.706 -0.6710 -0.0516 -0.2575
17231SOL    HW157529   7.821   2.517   7.796  1.1368 -1.7688  0.0307
17231SOL    HW257530   7.755   2.408   7.714  1.0158 -1.1971 -0.6384
17232SOL     OW57531   8.120   7.695   9.849 -0.6416  0.0737 -0.4390
17232SOL    HW157532   8.051   7.695   9.784 -0.7714  0.0959 -0.3023
17232SOL    HW257533   8.199   7.720   9.801 -0.9805  1.4773 -0.3196
17233SOL     OW57534   4.103   7.714   2.003 -0.0427 -0.0465  0.0879
17233SOL    HW157535   4.121   7.697   2.096  1.8705  0.2912 -0.1994
17233SOL    HW257536   4.168   7.779   1.977 -1.0748  0.4728 -1.3107
17234SOL     OW57537   7.963   0.108   8.777  0.6402  0.4751 -0.0821
17234SOL    HW157538   7.933   0.190   8.817 -0.8683 -0.5832  1.1031
17234SOL    HW257539   7.972   0.048   8.851  2.9463 -0.1289 -0.7669
17235SOL     OW57540   1.676  10.150   1.262  0.1435 -0.1114  0.4088
17235SOL    HW157541   1.762  10.170   1.224 -0.3968 -1.2234 -1.5437
17235SOL    HW257542   1.614  10.198   1.206 -0.5484  0.3577  1.5567
17236SOL     OW57543   4.428   0.793  10.066  0.5010  0.5597  0.9969
17236SOL    HW157544   4.473   0.838   9.995 -0.2567 -0.0750  0.0847
17236SOL    HW257545   4.441   0.700  10.047 -1.1766  0.3488  0.6786
17237SOL     OW57546   3.596   9.700   5.462  0.3844  0.1861 -0.1467
17237SOL    HW157547   3.556   9.778   5.498  1.0615  1.3367 -1.7563
17237SOL    HW257548   3.532   9.667   5.399 -0.5723 -1.5153  1.5976
17238SOL     OW57549   5.230   6.069   4.972 -0.3376  0.0876 -0.3815
17238SOL    HW157550   5.298   6.055   5.037 -0.9863  0.8681  0.4893
17238SOL    HW257551   5.220   6.164   4.967  0.5281  0.1290 -2.5272
17239SOL     OW57552   4.237   3.511   1.139 -0.1185 -0.7683  0.2871
17239SOL    HW157553   4.312   3.553   1.098 -1.0279  0.7337  0.0887
17239SOL    HW257554   4.273   3.432   1.180  1.4042 -0.5162 -0.4818
17240SOL     OW57555   6.246   1.606   3.916 -0.3029 -0.1870 -0.6634
17240SOL    HW157556   6.178   1.587   3.852 -0.2127 -1.0698 -0.4993
17240SOL    HW257557   6.306   1.665   3.870 -0.2193 -0.8434 -1.4071
17241SOL     OW57558   2.686   6.720   4.713 -0.7295  0.1196 -0.4015
17241SOL    HW157559   2.640   6.711   4.630 -1.2996 -0.0705 -0.0665
17241SOL    HW257560   2.772   6.680   4.697 -0.8416  0.0723 -0.8940
17242SOL     OW57561   8.638   4.944   2.715 -0.2195  0.3443  0.1183
17242SOL    HW157562   8.638   4.869   2.776  2.0792  0.4305  0.3072
17242SOL    HW257563   8.667   5.018   2.769 -0.3025  0.9023 -0.5953
17243SOL     OW57564  10.471   7.522   9.534 -0.2644  0.0386 -0.1306
17243SOL    HW157565  10.415   7.592   9.568  0.5607  0.5235  0.2643
17243SOL    HW257566  10.541   7.513   9.599  0.1848 -0.4686 -0.6691
17244SOL     OW57567   1.953   4.850  10.546 -0.1045  0.0342 -0.4148
17244SOL    HW157568   1.968   4.779  10.483  0.5960  2.1276 -2.7537
17244SOL    HW257569   1.994   4.818  10.626 -0.8946 -2.6989 -0.9728
17245SOL     OW57570   2.330   3.020   7.421 -0.3620 -0.5298  0.3852
17245SOL    HW157571   2.401   2.966   7.455  0.7685  1.1405  0.7927
17245SOL    HW257572   2.337   3.102   7.470 -2.0997 -0.0409 -0.1242
17246SOL     OW57573   2.179  10.919   1.026 -0.2861 -0.1905 -0.3830
17246SOL    HW157574   2.145  11.005   1.003 -0.1991 -0.3139 -0.9985
17246SOL    HW257575   2.260  10.911   0.976 -0.1113 -0.4867 -0.0585
17247SOL     OW57576   7.265   4.781   1.294 -0.8972  0.6849  0.4337
17247SOL    HW157577   7.273   4.694   1.256  1.3559  0.7976  0.4933
17247SOL    HW257578   7.206   4.828   1.235 -0.5571 -0.3083 -0.7249
17248SOL     OW57579   8.223   6.503   1.563  0.6785  0.1247  0.4215
17248SOL    HW157580   8.138   6.494   1.605  0.7651 -0.9043  0.4141
17248SOL    HW257581   8.261   6.582   1.602 -0.4642  0.8712  0.0701
17249SOL     OW57582   7.224   6.367   7.028  0.3008 -0.2620  0.0158
17249SOL    HW157583   7.136   6.330   7.022  0.5856 -1.1556  0.9739
17249SOL    HW257584   7.276   6.299   7.071  0.9711  1.0702  1.4073
17250SOL     OW57585   7.097   5.677   5.305  0.3052 -0.2801  0.0353
17250SOL    HW157586   7.006   5.670   5.275  0.8227  0.3726 -1.8041
17250SOL    HW257587   7.149   5.650   5.230  1.6557 -1.0424  1.1962
17251SOL     OW57588   9.362   4.989   5.931  0.0351  0.1400  0.0809
17251SOL    HW157589   9.409   4.907   5.948  0.2833  0.1037 -0.7446
17251SOL    HW257590   9.288   4.986   5.991  1.4798  0.5633  1.9678
17252SOL     OW57591   0.308   6.252   2.777 -0.8318 -0.7011 -0.4538
17252SOL    HW157592   0.267   6.174   2.815 -0.6988 -0.7288 -0.3682
17252SOL    HW257593   0.255   6.325   2.809 -0.0060 -0.6112  0.7778
17253SOL     OW57594   9.223   7.507   2.296  0.1454  0.3384 -0.0440
17253SOL    HW157595   9.192   7.457   2.371  0.9944  2.0510  1.5103
17253SOL    HW257596   9.318   7.502   2.300  0.2263  1.3485 -0.3379
17254SOL     OW57597   3.231   0.085   5.347  0.0295 -0.5615 -0.1548
17254SOL    HW157598   3.186   0.105   5.429  1.7645 -0.0732  0.7208
17254SOL    HW257599   3.238   0.169   5.302 -1.6152 -0.9456 -1.2273
17255SOL     OW57600   1.406   1.106   7.599  0.3306  0.4937 -0.4277
17255SOL    HW157601   1.393   1.164   7.523 -0.3980 -1.0308 -1.5335
17255SOL    HW257602   1.465   1.038   7.567 -1.5626 -1.2963 -0.3324
17256SOL     OW57603   5.341   6.065   8.069  0.7169  0.0124 -0.3567
17256SOL    HW157604   5.351   6.087   8.162 -3.7835 -1.0327  0.6159
17256SOL    HW257605   5.294   6.139   8.031  1.8450  0.0927 -1.6578
17257SOL     OW57606   5.053   6.528   9.010 -0.2273  0.2311  0.2761
17257SOL    HW157607   5.073   6.528   8.916  1.2140  1.5767  0.5395
17257SOL    HW257608   4.996   6.603   9.023 -0.5206 -0.0228  0.4632
17258SOL     OW57609   3.124   0.120   4.450  0.0611 -0.0740  0.4149
17258SOL    HW157610   3.203   0.093   4.497  2.1773  1.2214 -2.1377
17258SOL    HW257611   3.149   0.116   4.357 -2.9120  0.3852 -0.5046
17259SOL     OW57612   2.342   0.378   7.565  0.2789 -0.0277  0.0983
17259SOL    HW157613   2.322   0.284   7.566 -2.1741  0.4132  1.3244
17259SOL    HW257614   2.378   0.396   7.652 -3.3299  0.7888  1.5997
17260SOL     OW57615   7.669   4.896   7.962 -0.0223 -0.1453  0.6524
17260SOL    HW157616   7.669   4.899   7.867 -3.1368 -0.1403  0.5451
17260SOL    HW257617   7.652   4.805   7.984 -1.7706  0.2482  1.0813
17261SOL     OW57618   2.840   4.926   6.264 -0.3222  1.1628 -0.0993
17261SOL    HW157619   2.763   4.875   6.236 -0.6549  0.6653  1.6272
17261SOL    HW257620   2.815   4.962   6.349  0.7446  2.4225 -0.2943
17262SOL     OW57621   2.189  10.224   1.691 -0.0806  0.6277  0.1492
17262SOL    HW157622   2.121  10.157   1.678  1.1997 -0.3669 -1.8190
17262SOL    HW257623   2.260  10.178   1.736  0.4483  0.8765 -0.4143
17263SOL     OW57624   1.039   4.619  10.339  0.3531 -0.0824  0.1877
17263SOL    HW157625   1.068   4.648  10.425  0.0785  2.1557 -0.4023
17263SOL    HW257626   1.003   4.698  10.298 -0.6338 -1.3551 -1.5208
17264SOL     OW57627   6.769   8.021   6.247 -0.0948  0.1948  0.3671
17264SOL    HW157628   6.710   8.095   6.232 -0.0218  0.1319 -0.2457
17264SOL    HW257629   6.731   7.950   6.196 -0.1756 -0.2024  0.9711
17265SOL     OW57630   4.625   6.005   7.749  0.1946  0.8368 -0.4684
17265SOL    HW157631   4.580   6.075   7.797  1.6135  0.6874  1.1662
17265SOL    HW257632   4.657   6.047   7.669  0.5796  1.9480  0.2506
17266SOL     OW57633   6.144   2.372   8.429  0.3939  0.0816  0.5161
17266SOL    HW157634   6.148   2.376   8.333  1.9198  0.0586  0.5587
17266SOL    HW257635   6.176   2.458   8.458  0.7867 -0.2239  1.0041
17267SOL     OW57636   9.570   5.974   8.976 -0.0723 -0.0287 -0.4854
17267SOL    HW157637   9.586   5.999   8.885 -0.9369  0.4204 -0.5237
17267SOL    HW257638   9.519   5.893   8.969 -0.8104  0.4230 -0.4204
17268SOL     OW57639   2.553   1.269   0.213  0.0537 -0.1705 -0.4706
17268SOL    HW157640   2.598   1.320   0.280  0.0076 -0.5280 -0.1587
17268SOL    HW257641   2.624   1.224   0.165  0.0100 -1.4691  0.6228
17269SOL     OW57642   1.422   4.612   1.801 -0.0866  0.1471  0.2012
17269SOL    HW157643   1.342   4.559   1.802  0.7514 -1.1924 -0.1173
17269SOL    HW257644   1.440   4.628   1.894  0.8974 -2.2038  0.4975
17270SOL     OW57645   9.704   5.032   5.262  0.1423 -0.1898  0.6974
17270SOL    HW157646   9.792   5.066   5.271 -0.1371  1.0151 -0.7318
17270SOL    HW257647   9.704   4.988   5.177 -0.6897  0.0303  0.5738
17271SOL     OW57648   4.977   7.944   7.188  0.0156 -0.0274 -0.7010
17271SOL    HW157649   4.912   7.875   7.182 -0.5128  0.2248  1.4220
17271SOL    HW257650   5.056   7.900   7.221 -0.0507  0.2196 -0.2064
17272SOL     OW57651  10.550   2.558   3.444 -0.0445  0.2607  0.2511
17272SOL    HW157652  10.613   2.625   3.472  0.1221 -0.1251  0.7969
17272SOL    HW257653  10.603   2.481   3.424 -0.3711 -0.2067  1.1305
17273SOL     OW57654   1.474   3.798   5.168 -0.2160  0.0712  0.3460
17273SOL    HW157655   1.435   3.885   5.160 -0.8658 -0.2708 -0.3091
17273SOL    HW257656   1.399   3.738   5.165  0.2562 -0.5314  0.4366
17274SOL     OW57657   5.319   6.653   9.914 -0.0926  0.4161 -0.2717
17274SOL    HW157658   5.396   6.651   9.972 -0.2919  0.0948 -0.0170
17274SOL    HW257659   5.265   6.581   9.944 -0.9372  1.2044  0.1514
17275SOL     OW57660   2.577   8.796   2.766  0.1552 -0.3649 -0.2468
17275SOL    HW157661   2.607   8.856   2.833  0.9025 -0.0263 -0.8735
17275SOL    HW257662   2.648   8.733   2.756  0.6386  0.3731 -1.6604
17276SOL     OW57663   3.248   2.802  10.697 -0.0709 -0.0944  0.3359
17276SOL    HW157664   3.338   2.830  10.714  0.3047 -1.2405  0.3689
17276SOL    HW257665   3.241   2.802  10.602  0.8901 -2.5840  0.1847
17277SOL     OW57666   1.741   6.634   1.731 -0.0699  0.1931 -0.1870
17277SOL    HW157667   1.764   6.560   1.675  1.3690  0.8587 -0.5312
17277SOL    HW257668   1.662   6.606   1.777  0.8438 -1.8522  0.2484
17278SOL     OW57669   2.038   2.569   0.205  0.3588 -0.3501  0.1694
17278SOL    HW157670   2.016   2.662   0.220  1.5739 -0.1761  1.0354
17278SOL    HW257671   2.084   2.543   0.285  0.5353 -1.5499 -0.3106
17279SOL     OW57672   1.691   8.888   4.131  0.2694  0.2027  0.1452
17279SOL    HW157673   1.633   8.951   4.088 -0.1773 -1.2218 -1.4621
17279SOL    HW257674   1.743   8.851   4.059 -0.4877 -2.2848  0.7962
17280SOL     OW57675   3.838   0.608   2.045  0.6002 -0.2722 -0.0122
17280SOL    HW157676   3.801   0.611   2.133  1.8155  2.5514  0.5134
17280SOL    HW257677   3.771   0.648   1.989  1.0865  0.9783  0.2484
17281SOL     OW57678   7.447   6.982   6.652  0.4090  0.3624  0.0781
17281SOL    HW157679   7.485   7.029   6.578  0.1118  1.0268  0.3399
17281SOL    HW257680   7.500   6.902   6.660  0.9859  0.7038 -0.3021
17282SOL     OW57681   0.039   4.017   7.401 -0.2294 -0.3948  0.7574
17282SOL    HW157682   0.021   3.983   7.313  0.8618 -0.3635  0.5027
17282SOL    HW257683   0.030   3.941   7.458 -1.2466 -0.3516  0.6675
17283SOL     OW57684   3.318   9.528   7.734 -0.1657 -0.1608  0.1133
17283SOL    HW157685   3.302   9.609   7.685 -0.1846 -0.0932  0.2290
17283SOL    HW257686   3.247   9.470   7.709  0.7886 -0.7762 -1.3043
17284SOL     OW57687   0.684   0.073   6.071  0.2906  0.4241 -0.0014
17284SOL    HW157688   0.727   0.059   6.156  0.8459  0.5763 -0.2555
17284SOL    HW257689   0.696  -0.010   6.024 -3.9408 -1.5106  1.6928
17285SOL     OW57690   4.286  10.497   9.728  0.2789  0.2501 -0.0196
17285SOL    HW157691   4.351  10.495   9.657  0.2623 -1.5874 -0.0292
17285SOL    HW257692   4.242  10.581   9.718 -0.1509 -0.2107 -2.5807
17286SOL     OW57693   6.502   7.809   6.796 -0.2876 -0.5683 -0.5893
17286SOL    HW157694   6.474   7.719   6.810  0.3679 -0.6686  0.1709
17286SOL    HW257695   6.564   7.827   6.867  0.1095  0.2594 -1.1119
17287SOL     OW57696   1.004   5.961   7.066  0.8873  0.2371  0.6162
17287SOL    HW157697   0.918   5.956   7.024  0.8841 -0.9439  0.7038
17287SOL    HW257698   1.020   6.054   7.079  0.2262  0.5397 -0.6352
17288SOL     OW57699   7.544  10.364   6.326  0.5509  0.3765  0.6191
17288SOL    HW157700   7.495  10.292   6.366  0.2840  0.3084  0.1747
17288SOL    HW257701   7.498  10.443   6.356  1.5121  0.4504  2.0367
17289SOL     OW57702   5.216  10.206   1.639  0.5464 -0.3035  0.3546
17289SOL    HW157703   5.279  10.206   1.566  0.1317  0.6625 -0.0258
17289SOL    HW257704   5.234  10.288   1.685 -0.1057 -0.2650  0.5410
17290SOL     OW57705  10.136   2.454   6.180  0.4077 -0.0343 -0.2767
17290SOL    HW157706  10.133   2.520   6.111  2.2028 -0.4072 -0.7708
17290SOL    HW257707  10.200   2.489   6.243 -1.6475  0.6077  1.5804
17291SOL     OW57708   4.407   3.904  10.775 -0.2144  0.8683  0.6192
17291SOL    HW157709   4.334   3.847  10.751  0.1561  0.5073  0.3421
17291SOL    HW257710   4.399   3.913  10.870 -1.1456  1.5581  0.4959
17292SOL     OW57711   7.722   4.161   0.586  0.3968  0.4757 -0.2441
17292SOL    HW157712   7.781   4.179   0.659  0.3538 -1.5211  0.3560
17292SOL    HW257713   7.639   4.200   0.611  0.8241  1.2429 -0.0001
17293SOL     OW57714   6.669   1.041   4.541  0.1525 -0.7449  0.4988
17293SOL    HW157715   6.600   0.998   4.490  0.6739 -2.6557  1.2908
17293SOL    HW257716   6.633   1.048   4.629  0.1528  0.3112  0.4226
17294SOL     OW57717   1.115   1.565   3.605  0.0313  0.5733  0.4248
17294SOL    HW157718   1.022   1.569   3.583  0.1579 -0.8638 -0.4528
17294SOL    HW257719   1.160   1.555   3.521  0.8817  0.0167  0.9305
17295SOL     OW57720   8.854   2.995   6.207  0.6892 -0.1740  0.7456
17295SOL    HW157721   8.876   2.910   6.171  0.1304  0.3460 -0.8905
17295SOL    HW257722   8.759   2.992   6.219  0.0639  1.3580 -2.6851
17296SOL     OW57723   9.500   2.322   5.299 -0.2561  0.0560  0.4796
17296SOL    HW157724   9.544   2.296   5.218  1.2575  1.1882  0.8921
17296SOL    HW257725   9.551   2.282   5.369 -1.7000 -1.1167  0.9035
17297SOL     OW57726   3.944   3.470   3.084  0.5971 -1.0624  0.7036
17297SOL    HW157727   3.991   3.394   3.119 -1.1380 -2.0483  0.9958
17297SOL    HW257728   3.883   3.495   3.153  1.1981  0.6905  0.6441
17298SOL     OW57729  10.886   6.709   3.250 -0.3915  0.2327  0.4871
17298SOL    HW157730  10.833   6.698   3.171  0.2813  2.4514 -0.3283
17298SOL    HW257731  10.851   6.644   3.311 -1.4908 -0.9584 -1.3190
17299SOL     OW57732   0.018   3.304   0.681 -0.0242  0.3871 -0.0231
17299SOL    HW157733   0.101   3.343   0.708 -1.0419  3.4754 -0.9195
17299SOL    HW257734  -0.017   3.266   0.762  1.6676  0.1241  0.6291
17300SOL     OW57735   5.140   8.750   9.965  0.0168 -0.2519 -0.4242
17300SOL    HW157736   5.124   8.791  10.050  1.2198 -0.4813 -0.0686
17300SOL    HW257737   5.126   8.657   9.981 -2.1960 -0.0956 -1.1055
17301SOL     OW57738   4.868   0.432   0.513 -0.0223 -0.4799 -0.1268
17301SOL    HW157739   4.851   0.451   0.606  0.9818 -0.4570  0.0560
17301SOL    HW257740   4.835   0.509   0.467  3.6690  1.7621  0.5652
17302SOL     OW57741   6.524   2.598   7.567 -0.7406  0.0317  0.4515
17302SOL    HW157742   6.434   2.565   7.562 -0.7675 -0.0621  1.3724
17302SOL    HW257743   6.513   2.692   7.584 -0.6618  0.4297 -1.5121
17303SOL     OW57744   4.367   0.773   6.371 -0.2536  0.4531 -0.0005
17303SOL    HW157745   4.368   0.711   6.297 -2.8333  0.4559 -0.1185
17303SOL    HW257746   4.337   0.721   6.445 -0.1953  1.0469  0.4409
17304SOL     OW57747   8.673   8.565   3.938 -0.5103 -0.2898 -0.0107
17304SOL    HW157748   8.604   8.591   4.000 -0.7089 -0.3736 -0.1929
17304SOL    HW257749   8.669   8.631   3.869  1.8728  1.7013  1.6183
17305SOL     OW57750   6.142   0.529   3.353  0.4686  0.0871 -0.0195
17305SOL    HW157751   6.238   0.529   3.353  0.5486 -2.0322  1.3602
17305SOL    HW257752   6.118   0.569   3.437 -0.1087  4.3478 -1.9354
17306SOL     OW57753   5.450   9.690   4.105 -0.3305 -0.1369 -0.2683
17306SOL    HW157754   5.377   9.752   4.108  0.4469  0.7955 -0.0977
17306SOL    HW257755   5.519   9.732   4.157  0.2862 -1.0609 -0.3132
17307SOL     OW57756   4.786   6.977   8.508 -0.2448 -0.0675 -0.0485
17307SOL    HW157757   4.814   7.067   8.494  0.2309  0.0093  1.2625
17307SOL    HW257758   4.807   6.932   8.426  0.2724  0.8322 -0.4176
17308SOL     OW57759   4.500   7.989   5.076  0.8032 -0.3244  0.0368
17308SOL    HW157760   4.456   7.987   5.162 -1.5976 -1.2459 -1.1073
17308SOL    HW257761   4.583   8.033   5.093 -0.4562  1.4027  2.4590
17309SOL     OW57762   4.243  10.761   7.041  0.1506 -0.3204 -0.0190
17309SOL    HW157763   4.333  10.791   7.031 -0.3111  0.5297 -2.2165
17309SOL    HW257764   4.197  10.799   6.966 -1.6873 -2.0211  0.1673
17310SOL     OW57765   5.981   6.901   8.746 -0.1096 -0.6772  0.0766
17310SOL    HW157766   5.976   6.878   8.653 -2.0119  3.9954 -1.2654
17310SOL    HW257767   5.897   6.873   8.782 -0.0153 -1.0677 -0.0038
17311SOL     OW57768   8.577   4.845   5.846 -0.3679  0.4046  0.4055
17311SOL    HW157769   8.495   4.798   5.862 -0.0399  0.1036  1.2649
17311SOL    HW257770   8.549   4.935   5.826 -0.9888 -0.0796 -1.0694
17312SOL     OW57771   3.008   2.671   8.311 -0.3073 -0.7374 -0.2795
17312SOL    HW157772   2.959   2.603   8.357  0.6904 -2.6059 -1.8312
17312SOL    HW257773   3.100   2.650   8.327  0.0975  1.5903  0.9936
17313SOL     OW57774   0.975   3.893   8.271 -0.0013  0.7425  0.2735
17313SOL    HW157775   0.905   3.877   8.333  2.3302 -0.8032  2.7122
17313SOL    HW257776   0.980   3.989   8.265 -1.0973  0.8989  1.4985
17314SOL     OW57777   6.000   0.707   2.888 -0.0914 -0.0935  0.3446
17314SOL    HW157778   6.069   0.726   2.824 -1.4214  0.6562 -0.9489
17314SOL    HW257779   6.042   0.719   2.973  1.4026  0.1984 -0.3863
17315SOL     OW57780   3.167   8.301   0.794  0.0960  0.3497 -0.0719
17315SOL    HW157781   3.120   8.223   0.824 -0.3215  0.1082 -1.3324
17315SOL    HW257782   3.169   8.357   0.871  2.4450 -1.8036  1.6117
17316SOL     OW57783   2.171  10.066  10.564  0.3681 -0.1976  0.0997
17316SOL    HW157784   2.244  10.079  10.503  0.8084  1.5450  0.9074
17316SOL    HW257785   2.094  10.058  10.508  1.2612 -3.5771 -0.8577
17317SOL     OW57786   2.916   6.706   3.026 -0.0191 -0.6265  0.1824
17317SOL    HW157787   2.850   6.674   3.087 -1.1679 -0.0045 -0.6867
17317SOL    HW257788   2.926   6.799   3.047  0.5165 -0.6946  0.2484
17318SOL     OW57789   3.383   5.259   3.920 -0.0255 -0.2376 -0.0143
17318SOL    HW157790   3.295   5.279   3.952 -0.0744  0.4966 -0.5653
17318SOL    HW257791   3.380   5.167   3.897  0.0542 -0.8408  2.1911
17319SOL     OW57792   3.390   4.780   1.283  0.3310  0.6376 -0.1619
17319SOL    HW157793   3.483   4.758   1.274  0.5465  0.2388  2.3098
17319SOL    HW257794   3.348   4.734   1.211  1.8707 -0.4805 -0.4141
17320SOL     OW57795   3.031   9.531   7.142  0.9151 -0.2659 -0.2306
17320SOL    HW157796   3.077   9.448   7.129  1.0923  0.0820 -2.2391
17320SOL    HW257797   3.102   9.596   7.150  0.7834 -0.2977  1.5855
17321SOL     OW57798   3.092   9.974   2.789 -0.4022  0.5797 -0.5011
17321SOL    HW157799   3.070   9.945   2.700  3.2855 -0.1746 -1.3324
17321SOL    HW257800   3.144  10.054   2.776 -1.9918  1.9675  1.2034
17322SOL     OW57801  10.065   3.455   1.298 -0.0567 -0.0140 -0.1205
17322SOL    HW157802  10.046   3.543   1.265 -1.3145  0.2394  1.1481
17322SOL    HW257803  10.000   3.399   1.255 -0.0347 -0.1167 -0.0194
17323SOL     OW57804   4.565   3.295   8.213 -0.1450  0.3310  0.2066
17323SOL    HW157805   4.640   3.355   8.212 -0.9006  1.3758  1.4729
17323SOL    HW257806   4.566   3.258   8.301 -2.2619  1.9838  1.0374
17324SOL     OW57807   7.358   8.751   5.769 -0.1510 -0.1613  0.1494
17324SOL    HW157808   7.322   8.764   5.681  0.0827  2.9676  0.4094
17324SOL    HW257809   7.402   8.666   5.764  1.5487  0.7159 -3.3739
17325SOL     OW57810   8.931   7.836   0.599  0.2679  0.2274  0.1685
17325SOL    HW157811   8.881   7.913   0.571 -0.1533  1.2224  3.2564
17325SOL    HW257812   8.996   7.871   0.661  1.6467 -1.6319 -0.1460
17326SOL     OW57813   1.368   5.647   2.077  0.0123 -0.0960 -0.0014
17326SOL    HW157814   1.455   5.610   2.061 -1.5428 -4.0512 -0.4623
17326SOL    HW257815   1.349   5.625   2.168 -0.9038 -0.2796 -0.2259
17327SOL     OW57816   0.747   6.162   1.063  0.1365  0.3766 -1.0255
17327SOL    HW157817   0.695   6.170   1.143 -1.2998  0.6419 -1.9657
17327SOL    HW257818   0.735   6.245   1.017 -1.2248 -0.7288 -2.7758
17328SOL     OW57819   3.018   0.263  10.032 -0.2093  0.1549 -0.6108
17328SOL    HW157820   2.988   0.354  10.035 -0.3253  0.0944  1.0063
17328SOL    HW257821   3.105   0.264  10.072 -0.5171 -0.5336  0.1250
17329SOL     OW57822   8.618   2.514   7.971  0.1162 -0.2755 -0.6101
17329SOL    HW157823   8.551   2.451   7.944 -0.0101  0.1226 -1.2266
17329SOL    HW257824   8.571   2.596   7.982  0.8121  0.5155 -3.0567
17330SOL     OW57825   0.722  10.689  10.162  0.3751 -0.0296 -0.1202
17330SOL    HW157826   0.633  10.720  10.145 -0.0843 -0.3718  1.5204
17330SOL    HW257827   0.718  10.595  10.144  1.4994  0.5133 -4.0486
17331SOL     OW57828   0.959   4.838   0.727  0.3859  0.2693  0.1455
17331SOL    HW157829   1.002   4.899   0.667  1.7670 -0.3653  0.4491
17331SOL    HW257830   0.966   4.880   0.812  0.2455  0.2381  0.1727
17332SOL     OW57831   5.283  10.071   7.573  0.1965 -0.2197 -1.1405
17332SOL    HW157832   5.373  10.052   7.598  0.3472  1.4017 -0.3324
17332SOL    HW257833   5.290  10.128   7.496 -0.0549  1.1376 -0.2018
17333SOL     OW57834   4.254  10.915   1.058 -0.2743  0.1051 -0.4202
17333SOL    HW157835   4.234  11.007   1.077 -0.4415 -0.1101  0.4966
17333SOL    HW257836   4.169  10.877   1.035 -0.5387 -0.2532  1.0911
17334SOL     OW57837   6.593   8.717   5.077  0.1646  0.5484  0.3133
17334SOL    HW157838   6.521   8.689   5.020 -1.2021  0.4824  1.9834
17334SOL    HW257839   6.671   8.679   5.038 -0.5897  1.1433 -1.9248
17335SOL     OW57840   0.884  10.516   7.552  0.0643  0.1298  0.4785
17335SOL    HW157841   0.837  10.450   7.501 -0.5266  0.8294  0.0911
17335SOL    HW257842   0.871  10.491   7.643  0.0934 -0.4549  0.3211
17336SOL     OW57843   4.872   2.083   0.452 -0.0190  0.2635  0.2300
17336SOL    HW157844   4.942   2.117   0.397  1.0331  0.4087  1.6137
17336SOL    HW257845   4.858   1.993   0.421  0.6130  0.3084 -0.1973
17337SOL     OW57846   2.720  10.588   5.730 -0.5007 -0.0551  0.5363
17337SOL    HW157847   2.810  10.616   5.742 -0.4743 -0.1203  0.4921
17337SOL    HW257848   2.708  10.516   5.792 -0.0375 -1.1078 -0.5427
17338SOL     OW57849   3.147   8.850   1.774  0.0163  0.0417 -0.1292
17338SOL    HW157850   3.080   8.891   1.830 -0.8995 -0.2850 -0.9584
17338SOL    HW257851   3.194   8.924   1.736  0.4635  0.2732  0.8391
17339SOL     OW57852   5.024   2.225   7.583  0.2301 -0.1303  0.3493
17339SOL    HW157853   5.082   2.264   7.648  0.3607 -1.6098  1.1592
17339SOL    HW257854   4.944   2.204   7.631 -0.2545  0.1249 -0.3227
17340SOL     OW57855   2.577   9.387  10.270 -0.2937  0.0205 -0.0478
17340SOL    HW157856   2.509   9.446  10.302  0.3488  0.7566 -0.0004
17340SOL    HW257857   2.606   9.340  10.348 -0.4933 -0.0238 -0.0005
17341SOL     OW57858   9.840   3.942   3.678 -0.0596  0.4043  0.3148
17341SOL    HW157859   9.910   4.007   3.670 -0.9473  1.2364 -1.3297
17341SOL    HW257860   9.827   3.911   3.588 -2.0936  0.6166  0.4977
17342SOL     OW57861   0.284   7.821  10.490  0.3914  0.0279 -0.1516
17342SOL    HW157862   0.238   7.891  10.536 -0.9668 -1.0144  0.1369
17342SOL    HW257863   0.238   7.813  10.407  0.4179 -0.6235 -0.1105
17343SOL     OW57864   8.708   3.344   6.431  0.2335 -0.1837  0.7233
17343SOL    HW157865   8.765   3.307   6.363  0.8051  0.1179  1.0254
17343SOL    HW257866   8.754   3.422   6.461 -0.3858  0.1084  0.9247
17344SOL     OW57867   8.092   9.780   8.463  0.1077  0.3081 -0.1046
17344SOL    HW157868   8.074   9.866   8.427 -2.1841  0.1920  0.6026
17344SOL    HW257869   8.095   9.722   8.387  2.7662  1.0913 -0.6950
17345SOL     OW57870   8.030   6.613   9.756 -0.1162  0.1460  0.3286
17345SOL    HW157871   7.958   6.672   9.773 -1.6022 -0.7179 -2.3773
17345SOL    HW257872   7.990   6.526   9.752  1.2056 -0.4695 -0.3804
17346SOL     OW57873   9.984   0.332   5.809  0.1607 -0.2339 -0.5731
17346SOL    HW157874  10.010   0.257   5.756 -1.6506 -0.8407 -0.6672
17346SOL    HW257875   9.939   0.391   5.749  0.2105  0.2131 -0.1830
17347SOL     OW57876   1.599   0.016   1.704  0.0397 -0.3201  0.0102
17347SOL    HW157877   1.641   0.038   1.621  0.5827 -0.4344  0.2528
17347SOL    HW257878   1.573  -0.076   1.694  0.7326 -0.5430  0.2243
17348SOL     OW57879   3.571   1.322   9.133  0.4880  0.0587 -0.7739
17348SOL    HW157880   3.596   1.367   9.214 -2.1938 -0.4074  0.4347
17348SOL    HW257881   3.654   1.307   9.087  1.9129  2.0810  0.9332
17349SOL     OW57882   4.170   0.725   2.738  0.1223 -0.2965 -0.1218
17349SOL    HW157883   4.265   0.724   2.749 -0.0571 -2.4313  2.1038
17349SOL    HW257884   4.138   0.779   2.811 -0.4155 -0.3519 -0.3096
17350SOL     OW57885  10.679   2.059  10.495  0.2156 -0.4418 -0.1906
17350SOL    HW157886  10.760   2.110  10.488 -0.2316  0.1777 -1.1235
17350SOL    HW257887  10.694   1.983  10.438  0.2589 -0.4924 -0.1115
17351SOL     OW57888  10.859   2.571   0.097  0.0881  0.1939 -0.2621
17351SOL    HW157889  10.901   2.534   0.019 -0.4198  0.8057 -0.8417
17351SOL    HW257890  10.902   2.528   0.171 -0.3738 -1.4161 -0.8973
17352SOL     OW57891   8.390   0.415   6.720 -0.3118 -0.1581 -0.1846
17352SOL    HW157892   8.446   0.389   6.793 -0.2656  0.0589 -0.1404
17352SOL    HW257893   8.381   0.337   6.667  0.6285 -0.0047 -0.5818
17353SOL     OW57894   2.994   4.347   6.810 -0.1565  0.7070  0.0721
17353SOL    HW157895   2.959   4.273   6.860 -2.0774  0.5863 -1.3229
17353SOL    HW257896   3.066   4.309   6.759 -0.5537 -0.0132  0.0339
17354SOL     OW57897   4.047   8.412   6.456 -0.7137 -0.0316 -0.3759
17354SOL    HW157898   4.091   8.497   6.459 -2.2536  0.7951 -0.1150
17354SOL    HW257899   4.110   8.353   6.413  0.7177  1.0176  0.2123
17355SOL     OW57900   8.077   3.773   1.639 -0.3365  0.1819  0.2708
17355SOL    HW157901   8.056   3.697   1.585 -0.8526  0.9248 -0.5969
17355SOL    HW257902   8.061   3.849   1.582 -0.4099  0.9680  1.3052
17356SOL     OW57903   6.462   2.649   6.906 -0.0526  0.0657 -0.1804
17356SOL    HW157904   6.432   2.596   6.832  0.9362 -0.4336 -0.2435
17356SOL    HW257905   6.557   2.651   6.897 -0.0613  2.1089 -0.3376
17357SOL     OW57906   6.572   3.585   9.104  0.2378  0.6255 -0.1689
17357SOL    HW157907   6.484   3.623   9.107 -0.4237 -0.8900  1.7100
17357SOL    HW257908   6.616   3.621   9.181  1.1878  1.1255 -0.9206
17358SOL     OW57909   1.208   1.112   5.424 -0.0441  0.2061 -0.1879
17358SOL    HW157910   1.247   1.063   5.496 -1.7182  0.2602  0.8152
17358SOL    HW257911   1.251   1.078   5.345  3.2235  1.4807  0.8927
17359SOL     OW57912   0.856   0.867   3.983  0.8052 -0.7077  0.0608
17359SOL    HW157913   0.889   0.790   3.937  2.0348 -0.7126  0.8981
17359SOL    HW257914   0.925   0.933   3.972  1.0796 -0.6680  1.7662
17360SOL     OW57915   9.408   5.657   1.418 -0.1241 -0.3487  0.0216
17360SOL    HW157916   9.452   5.730   1.374  0.0598 -0.1463  0.5338
17360SOL    HW257917   9.325   5.648   1.372 -0.4393  0.6214  0.3807
17361SOL     OW57918   3.491   7.252   9.308 -0.0603  0.5274 -0.2974
17361SOL    HW157919   3.560   7.261   9.242  3.0429  2.3597  2.8347
17361SOL    HW257920   3.439   7.332   9.299 -1.1140 -0.2982 -1.9016
17362SOL     OW57921   6.835   5.631  10.275 -0.2077 -0.3630 -0.1961
17362SOL    HW157922   6.745   5.654  10.250  0.4227 -0.2652 -2.5941
17362SOL    HW257923   6.832   5.536  10.289 -0.5106 -0.5265 -1.2577
17363SOL     OW57924   5.973   3.895   1.020  0.2140  0.2918 -0.2841
17363SOL    HW157925   5.995   3.972   1.071  0.9044  0.2041 -0.4438
17363SOL    HW257926   5.950   3.929   0.933  0.2804  0.3386 -0.2836
17364SOL     OW57927  10.713   3.447  10.690 -0.1065  0.7142 -0.0791
17364SOL    HW157928  10.795   3.400  10.706 -0.6864 -0.1969  0.3389
17364SOL    HW257929  10.725   3.533  10.729  0.9027  0.8400 -0.6454
17365SOL     OW57930   6.324   5.797   6.352  0.0574 -0.2783 -0.0557
17365SOL    HW157931   6.230   5.784   6.367 -0.1954  0.8011 -0.6052
17365SOL    HW257932   6.333   5.802   6.257  0.6663 -0.3036 -0.0058
17366SOL     OW57933   1.787   6.556   1.152 -0.4417 -0.7360  0.4791
17366SOL    HW157934   1.870   6.509   1.159 -0.7290 -1.2639  0.3982
17366SOL    HW257935   1.721   6.492   1.176 -0.8876 -0.5390 -0.2048
17367SOL     OW57936  10.290   8.682   3.187  0.0553  0.1638 -0.1024
17367SOL    HW157937  10.279   8.730   3.269  0.1898  1.3249 -0.7433
17367SOL    HW257938  10.246   8.736   3.121 -1.6261 -1.6337 -0.5272
17368SOL     OW57939  10.710   2.481   6.643  0.2574  0.0557 -0.3001
17368SOL    HW157940  10.692   2.453   6.553  1.1735  0.0383 -0.4909
17368SOL    HW257941  10.700   2.576   6.642 -1.8946 -0.1152  0.1168
17369SOL     OW57942   1.820   2.232   5.578 -0.0850  0.2221 -0.1121
17369SOL    HW157943   1.887   2.294   5.605  3.2264 -2.7057 -0.9209
17369SOL    HW257944   1.745   2.252   5.634  2.7821  1.1656  3.7934
17370SOL     OW57945   8.378   1.154   6.996 -0.0876 -0.6936  0.5637
17370SOL    HW157946   8.329   1.090   6.945  0.5715 -0.7379 -0.0268
17370SOL    HW257947   8.325   1.168   7.074 -1.1306 -0.5961 -0.1453
17371SOL     OW57948   0.222   3.778   9.120 -0.3982  0.0529  0.0387
17371SOL    HW157949   0.312   3.796   9.146 -0.6639  1.0881  0.2753
17371SOL    HW257950   0.227   3.695   9.071  0.6559  0.0512  0.1367
17372SOL     OW57951   0.612   2.962  10.886 -0.5329 -0.6592 -0.0443
17372SOL    HW157952   0.590   2.869  10.889 -0.1949 -0.7121  2.5065
17372SOL    HW257953   0.528   3.007  10.890 -0.6825 -0.8125 -1.0695
17373SOL     OW57954   8.130   7.904   2.436  0.1506  0.1226 -0.2445
17373SOL    HW157955   8.154   7.977   2.379  2.9177 -0.8905 -0.5468
17373SOL    HW257956   8.162   7.826   2.390 -0.9136 -1.0981  0.9982
17374SOL     OW57957   2.406   7.691   8.658  0.2766 -0.2912  0.1433
17374SOL    HW157958   2.424   7.665   8.567 -0.3804  1.6956 -0.6131
17374SOL    HW257959   2.314   7.669   8.672  0.3419 -0.4751  0.2859
17375SOL     OW57960   7.453   4.885   7.708 -0.6322  0.0025  0.9458
17375SOL    HW157961   7.408   4.805   7.737 -1.0053  0.5327  1.8611
17375SOL    HW257962   7.543   4.856   7.690 -1.0633 -0.8668  0.0681
17376SOL     OW57963   9.976   7.343   9.311 -0.3280 -0.3731 -0.2374
17376SOL    HW157964   9.901   7.399   9.292 -0.4859 -0.4937  0.0324
17376SOL    HW257965   9.957   7.304   9.396  0.0769 -0.3448 -0.1297
17377SOL     OW57966   6.282   7.712   1.927  0.0624  0.0638  0.1016
17377SOL    HW157967   6.271   7.757   2.010  1.0092 -0.8294  0.7313
17377SOL    HW257968   6.199   7.668   1.912  0.5620 -1.5110  1.6639
17378SOL     OW57969   9.250   2.224  10.813  0.1510 -0.0686 -0.2764
17378SOL    HW157970   9.253   2.317  10.791 -0.5152 -0.3499 -1.6788
17378SOL    HW257971   9.328   2.209  10.865  0.5705  1.1596 -0.5191
17379SOL     OW57972  10.502   4.090   6.139 -0.5680  0.0118  0.3827
17379SOL    HW157973  10.465   4.157   6.196 -0.1448 -0.6554  1.4613
17379SOL    HW257974  10.596   4.095   6.152 -0.4166  0.2317 -0.6993
17380SOL     OW57975   6.746   6.269  10.098 -0.5884  0.1200  0.2150
17380SOL    HW157976   6.789   6.184  10.096 -2.4610 -0.8617 -0.5323
17380SOL    HW257977   6.701   6.275  10.014 -1.2218  1.4572  0.6270
17381SOL     OW57978   8.837   2.363   0.206  0.4942  0.5148  0.2447
17381SOL    HW157979   8.887   2.427   0.157  1.6845  0.7893  1.7541
17381SOL    HW257980   8.881   2.357   0.291 -1.3728 -0.0678  1.2313
17382SOL     OW57981   1.771   0.958   7.296 -0.5627  0.1442 -0.4740
17382SOL    HW157982   1.717   0.939   7.373 -1.1712 -0.0173 -0.9295
17382SOL    HW257983   1.859   0.930   7.321 -1.0490 -1.3645 -0.3927
17383SOL     OW57984   3.369   6.037   5.076  0.8999  0.0685 -0.0224
17383SOL    HW157985   3.381   5.942   5.074  0.9371  0.0718  0.0418
17383SOL    HW257986   3.356   6.062   4.985 -0.6281 -0.1929  0.0918
17384SOL     OW57987   6.610   5.802  10.359  0.0630 -0.3329  1.1020
17384SOL    HW157988   6.553   5.814  10.435 -0.2969 -0.6304  0.8867
17384SOL    HW257989   6.675   5.872  10.365  1.4504 -1.6795  2.9313
17385SOL     OW57990   9.307  10.436   8.804 -0.5403  0.6463 -0.0970
17385SOL    HW157991   9.398  10.426   8.833  0.0065  2.7657 -0.8985
17385SOL    HW257992   9.312  10.496   8.729 -2.1908 -2.3090 -2.8095
17386SOL     OW57993   6.983   5.250   7.275 -0.1716 -0.0583 -0.2339
17386SOL    HW157994   6.897   5.228   7.241 -0.0902 -1.9528  0.6321
17386SOL    HW257995   6.973   5.337   7.313 -2.1579 -0.8748  1.2769
17387SOL     OW57996   1.473   9.179   2.762 -0.3182 -0.2035  0.0272
17387SOL    HW157997   1.544   9.118   2.783  0.1422  1.0272  2.4077
17387SOL    HW257998   1.485   9.200   2.669 -0.8548 -4.0663 -1.0979
17388SOL     OW57999   6.654   8.065   4.587  0.4085  0.7082 -0.2853
17388SOL    HW158000   6.634   8.008   4.512 -0.6911  0.3783  0.2396
17388SOL    HW258001   6.706   8.136   4.549  0.7071  0.0332 -1.1842
17389SOL     OW58002   2.527   4.751   9.155 -0.4349  0.4504 -0.7030
17389SOL    HW158003   2.453   4.693   9.139  0.8237 -1.0674 -1.2603
17389SOL    HW258004   2.584   4.702   9.214 -0.1198  1.8185  0.1842
17390SOL     OW58005  10.798   3.626   4.283  0.1568  0.3376 -0.2086
17390SOL    HW158006  10.791   3.536   4.250 -0.2611  0.2787  0.0420
17390SOL    HW258007  10.722   3.637   4.340  0.2293  0.8386 -0.2063
17391SOL     OW58008  10.512   2.542   4.766  0.0903 -0.5327 -0.2071
17391SOL    HW158009  10.493   2.565   4.857 -0.4345 -0.6248 -0.2960
17391SOL    HW258010  10.608   2.532   4.764 -0.0059 -1.8948  0.6499
17392SOL     OW58011   0.522   7.738   6.539 -0.1243  0.1055 -0.4076
17392SOL    HW158012   0.504   7.646   6.559 -1.3624 -0.1057 -2.2488
17392SOL    HW258013   0.445   7.785   6.572  1.0468  0.7080  1.6545
17393SOL     OW58014   2.156   4.105   2.330 -0.2007 -0.5694 -0.0875
17393SOL    HW158015   2.115   4.110   2.416 -0.9626 -0.3474 -0.4577
17393SOL    HW258016   2.185   4.014   2.323 -1.2684 -0.9246 -0.0988
17394SOL     OW58017   8.525   5.470   1.337 -0.8596  0.1991 -0.1929
17394SOL    HW158018   8.471   5.400   1.374 -0.2700 -1.4451 -2.3047
17394SOL    HW258019   8.615   5.444   1.356 -0.6451  0.6585 -0.5638
17395SOL     OW58020   4.149  10.828   2.948  0.6528 -0.2431  0.4352
17395SOL    HW158021   4.071  10.773   2.951  1.8690 -2.0187  1.1299
17395SOL    HW258022   4.117  10.916   2.971 -1.7081 -0.0870 -2.7934
17396SOL     OW58023   2.669   2.787   7.632  0.4747  0.0103 -0.4614
17396SOL    HW158024   2.693   2.832   7.713 -1.6278 -1.1220  0.8821
17396SOL    HW258025   2.582   2.821   7.611 -2.4421 -4.7801  2.0212
17397SOL     OW58026   9.666   1.915   4.021 -0.7229  0.1592 -0.1612
17397SOL    HW158027   9.598   1.873   4.073 -0.7217 -1.8585 -1.6846
17397SOL    HW258028   9.630   2.000   3.997 -2.2808 -0.4570 -0.0781
17398SOL     OW58029   6.678   1.843   5.178 -0.2597  0.3541  0.6317
17398SOL    HW158030   6.743   1.772   5.175 -0.1287  0.5001 -1.4872
17398SOL    HW258031   6.730   1.923   5.178 -0.4295  0.4656  0.9630
17399SOL     OW58032   1.144   9.801   3.827  0.7515  0.2024  0.1627
17399SOL    HW158033   1.053   9.829   3.820 -0.0994 -2.1919  0.7398
17399SOL    HW258034   1.188   9.844   3.754 -1.4524 -0.7599 -1.8709
17400SOL     OW58035   4.024   8.162  10.037 -0.2249 -0.2932  0.2029
17400SOL    HW158036   4.001   8.084  10.087  1.7445 -0.3489  1.1054
17400SOL    HW258037   4.025   8.233  10.101  2.1320 -0.3308  0.2724
17401SOL     OW58038   5.817   4.381   5.518 -0.3226  0.1464  0.3200
17401SOL    HW158039   5.898   4.350   5.478 -0.6669  0.3868 -0.5897
17401SOL    HW258040   5.761   4.304   5.521 -0.2296  0.0844  0.5331
17402SOL     OW58041   5.835   0.550   3.786 -0.1858 -0.1747  0.2299
17402SOL    HW158042   5.895   0.489   3.827  1.0302  1.7084  1.4097
17402SOL    HW258043   5.755   0.545   3.838  0.4579  0.3373  1.2944
17403SOL     OW58044   5.398   6.141   7.757  0.1891  0.6991 -0.1122
17403SOL    HW158045   5.468   6.174   7.813  0.7337 -0.8044  0.1324
17403SOL    HW258046   5.351   6.220   7.729  1.3894  1.6684  0.4831
17404SOL     OW58047   7.667   2.848   2.149 -0.1362  0.3494  0.1011
17404SOL    HW158048   7.740   2.874   2.204 -1.2177  3.5978  0.1718
17404SOL    HW258049   7.593   2.840   2.209 -0.5751  0.3992 -0.4250
17405SOL     OW58050   8.983   4.687   5.603  0.3153 -0.1761  0.1264
17405SOL    HW158051   8.896   4.663   5.635 -0.4940 -1.1389 -2.5824
17405SOL    HW258052   9.025   4.604   5.582  1.1577  0.3663 -0.4191
17406SOL     OW58053   5.609   6.470   5.000 -0.3660  0.4798 -0.2985
17406SOL    HW158054   5.588   6.387   5.042  0.9519  0.3750  0.2230
17406SOL    HW258055   5.651   6.445   4.917 -0.6116  0.6340 -0.4685
17407SOL     OW58056   5.164   5.247   1.845 -0.0382 -0.0517 -0.2359
17407SOL    HW158057   5.253   5.211   1.846  0.0341  0.1313  0.1492
17407SOL    HW258058   5.175   5.337   1.813 -0.1861 -0.2785 -0.9485
17408SOL     OW58059   4.117   7.899   2.804  0.6433 -0.1568  0.0333
17408SOL    HW158060   4.072   7.906   2.719  0.2951  1.0091  0.2897
17408SOL    HW258061   4.049   7.868   2.864 -0.0979  2.3057  0.5755
17409SOL     OW58062   4.975   4.532   4.325  0.0634  0.3135 -0.1827
17409SOL    HW158063   4.970   4.438   4.307  0.1534  0.3193 -0.2442
17409SOL    HW258064   5.004   4.570   4.242  1.1056  0.2733  0.1532
17410SOL     OW58065   3.339   6.300   6.138 -0.0699  0.0239 -0.2645
17410SOL    HW158066   3.319   6.246   6.062 -0.9606  0.8538 -0.6370
17410SOL    HW258067   3.257   6.304   6.187  0.5927 -0.8469  0.9859
17411SOL     OW58068   2.262   3.754   6.166  0.3519  0.3225 -0.0631
17411SOL    HW158069   2.303   3.839   6.182  0.5611  0.3026 -0.4808
17411SOL    HW258070   2.239   3.722   6.253 -0.0648  0.9727  0.0735
17412SOL     OW58071   6.655   9.412   5.262 -0.2021 -0.2615 -0.3753
17412SOL    HW158072   6.593   9.340   5.264  1.6438 -1.9205  1.6659
17412SOL    HW258073   6.637   9.461   5.342  2.1308 -1.7998  1.2045
17413SOL     OW58074   7.082  10.126   6.467 -0.2411 -0.0032  0.1642
17413SOL    HW158075   7.148  10.164   6.525  0.6035 -0.3315 -0.5582
17413SOL    HW258076   7.124  10.048   6.431 -0.8103  0.0967 -0.7422
17414SOL     OW58077   2.593   4.618   2.735 -0.1111 -0.1057  0.1064
17414SOL    HW158078   2.611   4.708   2.762  0.5564 -0.1535 -0.1638
17414SOL    HW258079   2.647   4.605   2.657  0.3163 -0.9459  0.5264
17415SOL     OW58080   8.078   4.803   6.479  0.3042  0.2110 -0.3724
17415SOL    HW158081   8.023   4.865   6.528  2.7839  1.5431  0.9284
17415SOL    HW258082   8.059   4.718   6.519  0.4376  0.9010  1.2455
17416SOL     OW58083   8.765   0.750   8.035 -0.1463  0.0334  0.1967
17416SOL    HW158084   8.800   0.760   7.947 -0.0663 -1.4947  0.0333
17416SOL    HW258085   8.670   0.750   8.023 -0.1994 -3.5692 -0.4059
17417SOL     OW58086   3.168  10.471   7.910  0.0650  0.1285 -0.1811
17417SOL    HW158087   3.183  10.376   7.910  1.0934  0.2823  0.3565
17417SOL    HW258088   3.254  10.509   7.893 -0.4496  0.9656 -1.0207
17418SOL     OW58089   2.683   9.378   0.235  0.4792 -0.5487 -0.0222
17418SOL    HW158090   2.671   9.472   0.218 -0.4045 -0.6901 -0.2065
17418SOL    HW258091   2.724   9.375   0.322  2.9908  0.0885 -1.0926
17419SOL     OW58092   4.508  10.422   4.866 -0.5629  0.5877  0.0691
17419SOL    HW158093   4.468  10.454   4.947  1.2066 -1.0021  1.6787
17419SOL    HW258094   4.584  10.478   4.852 -0.2389  0.1792  0.1528
17420SOL     OW58095   4.885   1.471   2.736 -0.0158  0.0818  0.0451
17420SOL    HW158096   4.819   1.495   2.671 -1.8382  0.2164  1.8405
17420SOL    HW258097   4.892   1.376   2.729  0.8471  0.2030 -1.2246
17421SOL     OW58098   6.403   6.910   2.842 -0.0771 -0.1225  0.1268
17421SOL    HW158099   6.465   6.860   2.895 -0.1795  0.6055  0.9552
17421SOL    HW258100   6.317   6.883   2.873 -0.2044 -1.0283 -0.9272
17422SOL     OW58101   1.081   6.189   1.538  0.2997 -0.2113  0.5808
17422SOL    HW158102   1.167   6.200   1.578 -0.2717  0.5710  1.6444
17422SOL    HW258103   1.046   6.109   1.578  1.0065 -1.2595 -0.7935
17423SOL     OW58104   2.246   0.024   5.778  0.2199  0.6422 -0.4321
17423SOL    HW158105   2.241  -0.054   5.832  1.3665  1.4340  0.9109
17423SOL    HW258106   2.300  -0.001   5.703  2.0264  0.5548  0.8469
17424SOL     OW58107   1.301   0.614   4.659 -0.0722 -0.2666 -0.0726
17424SOL    HW158108   1.355   0.568   4.594  0.2587  0.2109 -0.1389
17424SOL    HW258109   1.213   0.615   4.621  0.1415  0.1097 -0.5689
17425SOL     OW58110   1.943   5.419   9.134 -0.0355 -0.2282  0.0390
17425SOL    HW158111   1.874   5.377   9.084  0.4377 -0.3582 -0.5129
17425SOL    HW258112   1.954   5.363   9.211 -0.3727 -0.3433  0.0054
17426SOL     OW58113   4.317   1.788   4.789 -0.3374  0.0748  0.3822
17426SOL    HW158114   4.287   1.722   4.726  0.4682 -0.6384  0.7281
17426SOL    HW258115   4.246   1.793   4.854  0.5486 -2.1467  1.6130
17427SOL     OW58116   3.312   1.465   4.774  0.3413 -0.3619 -0.6110
17427SOL    HW158117   3.254   1.459   4.698  1.7119  0.7340 -1.7791
17427SOL    HW258118   3.254   1.493   4.845 -0.7322 -0.1912 -1.5168
17428SOL     OW58119   9.481   2.810  10.317  0.0913  0.6200 -0.3446
17428SOL    HW158120   9.533   2.870  10.369  0.2317  1.9380 -1.9172
17428SOL    HW258121   9.402   2.794  10.369  0.5379  1.3042  0.5682
17429SOL     OW58122   2.414   5.431  10.375  0.0663  0.5334 -0.2105
17429SOL    HW158123   2.436   5.497  10.309 -0.4733  0.3062 -0.6257
17429SOL    HW258124   2.494   5.420  10.426  0.6188  0.4138 -1.0837
17430SOL     OW58125   3.867   2.749   7.538  0.3237 -0.2581 -0.1723
17430SOL    HW158126   3.954   2.741   7.579  1.0935 -0.0997 -1.7053
17430SOL    HW258127   3.849   2.661   7.505  1.1034  0.2508 -2.1057
17431SOL     OW58128   8.253   0.510   4.916 -0.9560 -0.0878  0.2822
17431SOL    HW158129   8.279   0.424   4.885 -0.6204 -0.0391  0.4270
17431SOL    HW258130   8.161   0.518   4.891 -0.7652 -0.1495 -0.4703
17432SOL     OW58131   6.359   2.278   6.925 -0.2221 -0.3478  0.5437
17432SOL    HW158132   6.330   2.187   6.931 -0.5433 -0.1715  2.2685
17432SOL    HW258133   6.320   2.320   7.002  0.8903  0.9768  0.4126
17433SOL     OW58134   0.315   9.296   5.426 -0.1612  0.0258 -0.0184
17433SOL    HW158135   0.384   9.362   5.434  0.3344 -0.7202  2.9532
17433SOL    HW258136   0.361   9.215   5.403 -0.1597 -0.2412  0.8941
17434SOL     OW58137   6.790   7.317   7.819 -0.1869 -0.0698  0.1322
17434SOL    HW158138   6.755   7.394   7.864 -1.7508 -0.6068 -0.0844
17434SOL    HW258139   6.785   7.339   7.726 -0.9926 -0.5573  0.0529
17435SOL     OW58140   9.504   6.202   3.976  0.2306  0.1399  0.2306
17435SOL    HW158141   9.466   6.115   3.966 -0.2820  0.4059 -0.2144
17435SOL    HW258142   9.569   6.207   3.906  0.1180  0.1865  0.1287
17436SOL     OW58143   8.469   3.914   9.598  0.1082  0.1487  0.2026
17436SOL    HW158144   8.412   3.928   9.523  1.5157 -1.0463 -1.1631
17436SOL    HW258145   8.515   3.997   9.610  1.9869 -0.4393 -2.1801
17437SOL     OW58146   4.099   1.749   7.013  0.0924  0.2498 -0.2275
17437SOL    HW158147   4.126   1.657   7.018 -1.1035 -0.1079 -0.1714
17437SOL    HW258148   4.023   1.755   7.070  1.3931  1.7721  1.4570
17438SOL     OW58149   9.360   9.114   7.029 -0.1125  0.0380 -0.1097
17438SOL    HW158150   9.339   9.194   6.980 -0.0484  1.1105  1.5187
17438SOL    HW258151   9.294   9.111   7.099 -0.2916 -1.5119 -0.3264
17439SOL     OW58152   5.500   5.347   9.671  0.1580 -0.3278  0.1304
17439SOL    HW158153   5.509   5.268   9.618 -1.4513  0.6929 -1.7697
17439SOL    HW258154   5.584   5.392   9.660 -0.1285 -0.1455 -1.6139
17440SOL     OW58155   3.001   8.902   2.011  0.0435  0.0236  0.1843
17440SOL    HW158156   3.041   8.987   2.030 -0.9197  0.3870  0.6320
17440SOL    HW258157   2.917   8.904   2.058  0.7299 -1.8269  1.6165
17441SOL     OW58158   5.222   8.043   5.474  0.0891  0.2166 -0.4995
17441SOL    HW158159   5.304   8.089   5.457 -0.2308  0.8670 -0.3139
17441SOL    HW258160   5.165   8.068   5.402 -0.2173  0.4443 -0.1841
17442SOL     OW58161   7.532   9.113   5.852 -0.0753 -0.1122  0.1880
17442SOL    HW158162   7.568   9.112   5.940  0.1143 -0.3376  0.1108
17442SOL    HW258163   7.544   9.023   5.820 -0.8941 -0.2453  0.2361
17443SOL     OW58164   2.581   1.536   9.772 -0.4065 -0.1609 -0.0837
17443SOL    HW158165   2.619   1.619   9.800  1.2746 -0.1899 -2.0649
17443SOL    HW258166   2.621   1.471   9.830 -0.3164  0.2109  0.2760
17444SOL     OW58167   3.087   4.731   4.014 -0.1299  0.5045 -0.0244
17444SOL    HW158168   3.045   4.671   4.075  1.2679  0.4103  0.8953
17444SOL    HW258169   3.121   4.674   3.945  1.0752  0.2185  0.7766
17445SOL     OW58170   9.095   4.447   1.617  0.4629 -0.0221 -0.2005
17445SOL    HW158171   9.020   4.457   1.676 -0.1412  0.8711 -1.0773
17445SOL    HW258172   9.143   4.373   1.651  1.1969  1.6004  2.5822
17446SOL     OW58173   1.256   4.376   4.388 -0.0943  0.5940  0.3765
17446SOL    HW158174   1.269   4.461   4.345  0.0906  0.5338  0.3123
17446SOL    HW258175   1.267   4.312   4.318  0.3792  0.4873  0.5449
17447SOL     OW58176   3.025  10.640   2.828  0.0508  0.0971 -0.6730
17447SOL    HW158177   3.003  10.556   2.789 -1.1202  0.6485 -1.2601
17447SOL    HW258178   3.029  10.700   2.753 -0.5743  0.8403 -0.1238
17448SOL     OW58179   3.502   3.547   1.321  0.5969 -0.2916 -0.7307
17448SOL    HW158180   3.432   3.593   1.275 -0.0977  0.9472  1.4148
17448SOL    HW258181   3.574   3.610   1.324  0.2106  0.1357  0.8198
17449SOL     OW58182   4.012   5.886  10.856 -0.1224 -0.3518 -0.1454
17449SOL    HW158183   4.027   5.846  10.941 -2.2851 -1.4376 -0.2303
17449SOL    HW258184   3.955   5.961  10.874  0.5720  0.2839 -0.4991
17450SOL     OW58185   2.998   0.766   5.419  0.3584  0.3324 -0.0116
17450SOL    HW158186   2.949   0.848   5.430 -0.0126  0.4850 -2.2916
17450SOL    HW258187   2.934   0.698   5.440  0.1180  0.5958  0.1241
17451SOL     OW58188   6.305   3.344   8.565  0.3644 -0.1801  0.1032
17451SOL    HW158189   6.299   3.427   8.519 -0.6934 -0.5330 -0.4386
17451SOL    HW258190   6.276   3.364   8.654  2.9177  0.6145  0.8507
17452SOL     OW58191   2.797   4.400   0.739  0.0571 -0.0026  0.2524
17452SOL    HW158192   2.721   4.347   0.765  0.0896 -0.1837 -0.0184
17452SOL    HW258193   2.761   4.467   0.682  0.1285 -0.2169 -0.0476
17453SOL     OW58194   5.605   3.187   4.721  0.0120 -0.6347  0.2001
17453SOL    HW158195   5.651   3.205   4.638 -0.4947  1.4674  0.3061
17453SOL    HW258196   5.673   3.188   4.787  0.2763 -1.2447 -0.0547
17454SOL     OW58197   6.533   5.484  10.484 -0.4164  0.2520  0.0122
17454SOL    HW158198   6.483   5.405  10.505 -0.7090  0.3277 -0.3889
17454SOL    HW258199   6.613   5.452  10.443  0.4751  0.0664  1.8079
17455SOL     OW58200   5.401   6.799  10.225 -0.2538 -0.0396 -0.2166
17455SOL    HW158201   5.328   6.762  10.274 -0.0263 -0.3556 -0.1167
17455SOL    HW258202   5.446   6.724  10.188  0.8168  0.0603  0.8298
17456SOL     OW58203  10.903   8.137   5.433  0.1822  0.1581  0.1194
17456SOL    HW158204  10.868   8.079   5.366 -0.1562  1.5421 -0.9546
17456SOL    HW258205  10.942   8.209   5.385  2.1205  0.0168  1.3698
17457SOL     OW58206   5.337   5.902   7.107  0.0869 -0.1946 -0.0437
17457SOL    HW158207   5.311   5.824   7.059  1.6656 -0.1694 -1.0315
17457SOL    HW258208   5.257   5.954   7.114 -0.9379 -1.7491  0.4198
17458SOL     OW58209   0.738   9.298  10.639  0.1574  0.3902 -0.4053
17458SOL    HW158210   0.694   9.287  10.724 -0.3019  2.0107 -0.3933
17458SOL    HW258211   0.670   9.278  10.575 -0.0338  0.9684 -0.3859
17459SOL     OW58212   9.797   3.774   9.010  0.2018 -0.5629  0.4263
17459SOL    HW158213   9.847   3.828   9.070  0.8522  0.4557 -0.9886
17459SOL    HW258214   9.863   3.720   8.965 -0.3930 -2.2639  1.5142
17460SOL     OW58215   0.293   0.667   4.654 -0.1402 -0.0848  0.0874
17460SOL    HW158216   0.314   0.758   4.637  3.2708 -0.5801  1.0230
17460SOL    HW258217   0.317   0.621   4.573  0.4507 -0.4213  0.4466
17461SOL     OW58218   6.341   8.943   5.031  0.1469  0.2440  0.1702
17461SOL    HW158219   6.248   8.957   5.015 -0.0842 -2.0349 -0.9967
17461SOL    HW258220   6.350   8.941   5.126 -1.2890 -0.9269  0.3082
17462SOL     OW58221   2.381   7.125   8.696  0.4799 -0.2482  0.6309
17462SOL    HW158222   2.310   7.156   8.639 -0.6152  0.6579  2.3927
17462SOL    HW258223   2.401   7.037   8.663  0.0044  0.2780 -1.2123
17463SOL     OW58224   2.626   7.873   5.684  0.0832  0.3704  0.4256
17463SOL    HW158225   2.644   7.864   5.778  3.1649 -1.6288 -0.2055
17463SOL    HW258226   2.531   7.867   5.678 -0.1490 -0.7653  3.3396
17464SOL     OW58227   6.250   4.356   7.793 -0.2179 -0.1629 -0.4710
17464SOL    HW158228   6.322   4.406   7.755  0.0803 -0.2275 -0.0047
17464SOL    HW258229   6.186   4.423   7.818  0.7424  0.1416  1.3556
17465SOL     OW58230   5.271   9.205   9.993  0.5271  0.8128 -0.5948
17465SOL    HW158231   5.181   9.233   9.981  0.4618  1.5805  1.3096
17465SOL    HW258232   5.295   9.164   9.910 -1.4309  0.9377 -1.2684
17466SOL     OW58233  10.605   4.747   7.028  0.0480 -0.1871 -0.3841
17466SOL    HW158234  10.556   4.666   7.042 -0.7533  0.2991 -0.3096
17466SOL    HW258235  10.697   4.719   7.026  0.0824 -0.6747  2.9917
17467SOL     OW58236  10.847   3.018   7.100 -0.1181 -0.2101  0.4470
17467SOL    HW158237  10.896   3.036   7.181  0.5729 -3.0802  0.7859
17467SOL    HW258238  10.891   2.942   7.062 -0.6150  0.8726 -2.5432
17468SOL     OW58239   8.187   3.363   9.335 -0.2790 -0.3573 -0.1075
17468SOL    HW158240   8.250   3.433   9.320  0.5537 -1.2644 -1.0165
17468SOL    HW258241   8.222   3.315   9.410 -0.6902  0.0157  0.3275
17469SOL     OW58242   3.016   9.687   2.176  0.1121 -0.3662 -0.0359
17469SOL    HW158243   2.985   9.711   2.263  1.4645 -1.4632  0.8006
17469SOL    HW258244   3.012   9.591   2.174  0.0921 -0.3619 -1.1905
17470SOL     OW58245   4.390  10.733   9.437  0.6658  0.2318  0.4571
17470SOL    HW158246   4.450  10.694   9.500 -0.0215 -0.9358  0.4100
17470SOL    HW258247   4.433  10.814   9.410  2.1903 -0.5382  0.4770
17471SOL     OW58248   8.227   2.821   5.569 -0.2996 -0.6308 -0.3238
17471SOL    HW158249   8.303   2.827   5.510  1.1559  0.2964  1.5198
17471SOL    HW258250   8.188   2.736   5.549  1.1470 -1.0843 -1.4323
17472SOL     OW58251   7.818   8.770   9.213 -0.1570 -0.3241  0.0640
17472SOL    HW158252   7.838   8.729   9.129  1.3659 -1.5145  0.9702
17472SOL    HW258253   7.790   8.859   9.190  2.3338  0.1332 -1.6127
17473SOL     OW58254   3.743   5.797   9.852  0.1378 -0.6318 -0.6358
17473SOL    HW158255   3.685   5.811   9.927  0.5814 -1.0201 -0.2171
17473SOL    HW258256   3.708   5.855   9.784  0.3755  0.5482  0.2194
17474SOL     OW58257   9.602   4.962   7.145 -0.0194 -0.8257  0.2739
17474SOL    HW158258   9.573   4.960   7.236  0.8922 -1.8543  0.5582
17474SOL    HW258259   9.688   5.004   7.149  0.5693 -1.9905  0.0583
17475SOL     OW58260   4.413   0.393   1.033  0.6762 -0.1351 -0.0900
17475SOL    HW158261   4.408   0.418   1.125 -0.7140  0.5789 -0.3375
17475SOL    HW258262   4.445   0.302   1.035 -1.3896 -0.9108  1.2461
17476SOL     OW58263   9.804   7.606   7.337 -0.0969  0.5161 -0.1299
17476SOL    HW158264   9.831   7.642   7.421  1.3827 -1.0766  0.1350
17476SOL    HW258265   9.709   7.606   7.340 -0.1443  2.6493  0.5570
17477SOL     OW58266   4.312   6.181   8.404 -0.1377  0.2527  0.4476
17477SOL    HW158267   4.246   6.237   8.445 -0.6050 -0.4730  0.7009
17477SOL    HW258268   4.261   6.115   8.357  0.3599  1.4518 -1.9100
17478SOL     OW58269   7.692   5.493   2.812  0.5222 -0.0131  0.2129
17478SOL    HW158270   7.787   5.495   2.801  0.5823  0.3558  0.7602
17478SOL    HW258271   7.677   5.415   2.867  0.4472 -0.4316 -0.3925
17479SOL     OW58272   4.224   4.191   1.088  0.2771 -0.2558 -0.6202
17479SOL    HW158273   4.300   4.245   1.110 -0.6028  1.7050 -2.1322
17479SOL    HW258274   4.234   4.172   0.995 -1.0534  0.0091 -0.8373
17480SOL     OW58275   5.481   4.940   7.835 -0.6496  0.5979 -1.1131
17480SOL    HW158276   5.509   4.883   7.908 -3.3865 -0.0324 -0.4674
17480SOL    HW258277   5.563   4.963   7.791  0.9258 -0.6131  0.9797
17481SOL     OW58278   8.895   4.393   2.282 -0.0510 -0.0057 -0.1524
17481SOL    HW158279   8.922   4.460   2.345  0.6662 -0.0505 -0.4019
17481SOL    HW258280   8.799   4.395   2.284 -0.1037 -1.5135  2.5055
17482SOL     OW58281   3.650   4.149   4.527  0.1237  1.0389 -0.1241
17482SOL    HW158282   3.561   4.143   4.491  0.1051  1.2624 -0.1148
17482SOL    HW258283   3.707   4.129   4.452  0.0482  0.1895  0.0362
17483SOL     OW58284   7.160   6.440  10.915 -0.0637 -0.5294  0.1692
17483SOL    HW158285   7.161   6.346  10.895  0.6397 -0.6621  0.7772
17483SOL    HW258286   7.181   6.483  10.832  3.1858 -1.0805  0.5852
17484SOL     OW58287   4.067   3.742   6.957 -0.6879  0.3322 -0.4630
17484SOL    HW158288   4.104   3.827   6.980 -0.8710  0.6436 -1.3060
17484SOL    HW258289   3.978   3.761   6.926 -1.6943 -0.4273  1.7308
17485SOL     OW58290   1.274   4.736   0.407 -0.3039  0.2321 -0.2377
17485SOL    HW158291   1.204   4.732   0.342 -1.1897  1.9953  0.5677
17485SOL    HW258292   1.281   4.646   0.440 -0.5473 -0.4742 -1.9889
17486SOL     OW58293   6.257   5.146   0.962  0.0746 -0.5828  0.1039
17486SOL    HW158294   6.245   5.130   1.055  0.3217 -0.1766  0.2119
17486SOL    HW258295   6.261   5.242   0.955  1.1821 -0.6292 -0.1631
17487SOL     OW58296   8.766   8.645   9.537 -0.7590 -0.5548 -0.1946
17487SOL    HW158297   8.847   8.697   9.531 -2.7652  2.7606 -1.1215
17487SOL    HW258298   8.796   8.555   9.539  2.9458  0.4802 -1.1221
17488SOL     OW58299   7.106   5.455   5.120 -0.5255  0.0111  1.0081
17488SOL    HW158300   7.030   5.506   5.147 -0.8569 -0.3020  0.6939
17488SOL    HW258301   7.081   5.364   5.140  0.2250  0.0064  1.9631
17489SOL     OW58302  10.700   8.998   2.780 -0.3468 -0.1994  0.0801
17489SOL    HW158303  10.629   9.026   2.722 -0.4275 -1.2013 -0.3308
17489SOL    HW258304  10.775   8.986   2.722 -0.1913 -0.3550  0.3128
17490SOL     OW58305   7.881   4.968   2.356 -0.0198 -0.3085  0.5226
17490SOL    HW158306   7.924   4.944   2.273  0.9635 -0.4368  1.0588
17490SOL    HW258307   7.885   5.063   2.358  0.0240 -0.3083  0.4503
17491SOL     OW58308   5.008   1.136   5.938 -0.5366  0.5305 -0.7124
17491SOL    HW158309   5.051   1.211   5.979  0.1457 -0.5879  0.6974
17491SOL    HW258310   5.080   1.082   5.906 -0.8783 -0.9254  0.8672
17492SOL     OW58311   7.409   2.069   7.723 -0.3032  0.1005  0.5245
17492SOL    HW158312   7.448   1.988   7.757  0.2928  0.2239  0.1402
17492SOL    HW258313   7.322   2.043   7.693 -0.0462 -0.4369  0.2326
17493SOL     OW58314   2.586   7.163   2.470  0.6818  0.4858  0.0825
17493SOL    HW158315   2.627   7.078   2.488  1.5526  0.7723 -0.4560
17493SOL    HW258316   2.492   7.144   2.468  0.8589 -0.4720 -0.0345
17494SOL     OW58317   3.169   1.993   2.180 -0.2544  0.1701  0.4119
17494SOL    HW158318   3.253   1.946   2.178 -0.7966 -0.8088 -1.2716
17494SOL    HW258319   3.194   2.085   2.186  0.8595 -0.2014  2.3422
17495SOL     OW58320   1.433  10.911   8.577 -0.1846  0.5310  0.1964
17495SOL    HW158321   1.384  10.834   8.548 -0.6864  0.1990  1.7969
17495SOL    HW258322   1.462  10.953   8.496  0.2149 -1.3918 -0.7386
17496SOL     OW58323   1.749   1.599   3.801 -0.2581 -0.0643  0.3949
17496SOL    HW158324   1.719   1.528   3.858  0.2894  0.5990  1.5485
17496SOL    HW258325   1.788   1.663   3.861 -0.3772  1.0272 -0.6507
17497SOL     OW58326   4.581   7.993   5.777  0.1630 -0.4798  0.1049
17497SOL    HW158327   4.579   7.911   5.728  1.0041 -0.4786  0.0418
17497SOL    HW258328   4.550   7.970   5.864  1.8600 -1.2240  0.5516
17498SOL     OW58329   7.564   4.316   3.680  0.7345  0.0402 -0.1735
17498SOL    HW158330   7.560   4.300   3.586  1.8553  0.8655 -0.3822
17498SOL    HW258331   7.571   4.411   3.689  0.6492 -0.0252  0.7382
17499SOL     OW58332  10.328   5.441   0.862  0.4995  0.3167  0.7570
17499SOL    HW158333  10.267   5.513   0.875 -0.1375  0.0364 -0.5410
17499SOL    HW258334  10.408   5.483   0.830  0.5322  0.5562  1.1490
17500SOL     OW58335  10.811   0.912   5.883 -0.6384 -0.0792 -0.3104
17500SOL    HW158336  10.725   0.875   5.901 -0.1480 -1.1942 -0.1790
17500SOL    HW258337  10.843   0.940   5.968 -0.9755  0.5925 -0.3982
17501SOL     OW58338   7.794   4.656   0.927 -0.5038 -0.2348  0.4016
17501SOL    HW158339   7.755   4.698   0.850 -0.1206 -0.8839 -0.1630
17501SOL    HW258340   7.797   4.563   0.904  0.2349 -0.3496  0.9270
17502SOL     OW58341   2.257   4.298  10.457 -0.0612  0.4819  0.2908
17502SOL    HW158342   2.168   4.321  10.482 -0.5270  0.2928 -1.1316
17502SOL    HW258343   2.312   4.354  10.512 -1.1165  3.1506 -1.1809
17503SOL     OW58344   9.798   7.861   5.649  0.1374  0.1490  0.1459
17503SOL    HW158345   9.756   7.905   5.722 -1.7195  1.7590 -1.7658
17503SOL    HW258346   9.883   7.905   5.639 -0.0127  0.5690  0.6933
17504SOL     OW58347   2.837   7.531   9.008 -0.0637 -0.7341 -0.7182
17504SOL    HW158348   2.806   7.577   8.930 -0.4933  0.3824  0.0623
17504SOL    HW258349   2.772   7.553   9.075  2.4990  2.0446  1.1195
17505SOL     OW58350   5.279  10.001   0.105  0.2581  0.5364 -0.1221
17505SOL    HW158351   5.260  10.044   0.021 -0.4649 -0.3883 -0.4505
17505SOL    HW258352   5.235   9.916   0.099 -3.6207  1.9996  2.8231
17506SOL     OW58353   6.101   1.375   4.057  0.1460  0.2256  0.1558
17506SOL    HW158354   6.148   1.432   3.995 -1.2475  1.3578  0.0749
17506SOL    HW258355   6.046   1.435   4.107 -3.3083 -1.2062 -1.6068
17507SOL     OW58356   9.526   2.513   9.498  0.5550  0.2487 -0.2951
17507SOL    HW158357   9.464   2.584   9.510 -0.0576 -0.0185 -1.7087
17507SOL    HW258358   9.590   2.548   9.436  0.6679 -0.1724 -0.4168
17508SOL     OW58359  10.388   6.084   5.929  0.1531 -0.4260 -0.2731
17508SOL    HW158360  10.441   6.162   5.944  0.2726 -0.7506  1.0517
17508SOL    HW258361  10.446   6.010   5.949 -0.7820 -0.7840  1.3180
17509SOL     OW58362   3.886   8.119   5.096 -0.7304  0.6146 -0.0812
17509SOL    HW158363   3.840   8.082   5.021 -0.4148  1.1719 -0.5607
17509SOL    HW258364   3.860   8.211   5.098 -1.0978  0.5022  0.7781
17510SOL     OW58365  10.228   1.855   4.854  0.0328 -0.2357 -0.2835
17510SOL    HW158366  10.177   1.781   4.820 -1.2454  0.3762  0.2664
17510SOL    HW258367  10.308   1.854   4.801 -0.5025 -1.2484 -1.1264
17511SOL     OW58368   8.644   7.583   3.055 -0.4384 -0.5000  0.3419
17511SOL    HW158369   8.615   7.672   3.074 -0.5010 -0.5370  0.4248
17511SOL    HW258370   8.694   7.590   2.974 -0.7573 -0.4468  0.1457
17512SOL     OW58371   8.498  10.183   0.167 -0.4444 -0.5305 -0.2999
17512SOL    HW158372   8.553  10.110   0.140  1.4336  0.9646 -0.7871
17512SOL    HW258373   8.513  10.190   0.261  0.1169 -0.2337 -0.4029
17513SOL     OW58374   4.381   5.960  10.186 -0.1322 -0.0666 -0.0597
17513SOL    HW158375   4.365   6.013  10.108  1.0198  0.2071 -0.1287
17513SOL    HW258376   4.474   5.940  10.183  0.1760  0.8858  1.8301
17514SOL     OW58377   9.271   8.117  10.137 -0.7337 -0.5797  0.1560
17514SOL    HW158378   9.303   8.053  10.074  1.4632 -0.0973  0.6924
17514SOL    HW258379   9.258   8.067  10.217 -1.9964 -0.8982 -0.2341
17515SOL     OW58380   1.754   8.600   3.416 -0.4002 -0.1606  0.2138
17515SOL    HW158381   1.748   8.540   3.341 -0.1034 -1.1736  0.9792
17515SOL    HW258382   1.848   8.618   3.425 -0.4315 -0.0795  0.3777
17516SOL     OW58383   9.646   1.696   7.252 -0.1375 -0.1059 -0.0508
17516SOL    HW158384   9.576   1.760   7.259  0.0600  0.0169  1.0841
17516SOL    HW258385   9.711   1.736   7.194 -1.1083 -0.3317 -1.3120
17517SOL     OW58386   7.633  10.322  10.057 -0.1969  0.4293 -0.0268
17517SOL    HW158387   7.681  10.260  10.111  0.6609  1.9246  1.0027
17517SOL    HW258388   7.674  10.315   9.970  1.2416  0.9379  0.5786
17518SOL     OW58389   3.549   9.284   4.143 -0.5728  0.6681  0.0767
17518SOL    HW158390   3.520   9.208   4.093 -0.8198 -1.5905  3.3645
17518SOL    HW258391   3.645   9.280   4.138 -0.5685 -0.2369  0.7060
17519SOL     OW58392   1.158   5.622   6.924  0.3303  0.2820  0.3411
17519SOL    HW158393   1.132   5.630   7.016 -1.5486 -1.1109 -0.0038
17519SOL    HW258394   1.206   5.539   6.920  0.7186  0.5171  0.1303
17520SOL     OW58395   8.515   6.696   9.159 -0.2953  0.1843 -0.1290
17520SOL    HW158396   8.544   6.768   9.103  0.8063 -2.0514 -2.6531
17520SOL    HW258397   8.427   6.675   9.129  0.3486 -1.1111 -1.2294
17521SOL     OW58398   8.054   8.247   2.436 -0.1617  0.0877  0.2440
17521SOL    HW158399   8.108   8.306   2.489  0.9398 -1.8304  1.3486
17521SOL    HW258400   7.986   8.304   2.398 -0.0927  1.7884  2.4974
17522SOL     OW58401   3.345   8.926   3.796 -0.2113 -0.6020  0.0809
17522SOL    HW158402   3.385   8.840   3.788 -0.6243 -0.6046 -3.3549
17522SOL    HW258403   3.404   8.985   3.749 -1.2034  0.5063  0.1756
17523SOL     OW58404   3.136   5.841   1.121  0.1077  0.3269  0.0237
17523SOL    HW158405   3.229   5.863   1.113 -0.3342  2.1388 -0.5093
17523SOL    HW258406   3.096   5.875   1.041 -1.7228  3.6672  2.1534
17524SOL     OW58407   7.946   1.356   6.056 -0.1468  0.2649  0.3873
17524SOL    HW158408   7.977   1.442   6.084 -0.4341  0.3417  0.4732
17524SOL    HW258409   7.980   1.296   6.123 -0.0342  0.3246  0.3842
17525SOL     OW58410   1.513   7.193   5.790 -0.3781 -0.1706 -0.3459
17525SOL    HW158411   1.487   7.202   5.882  0.6202 -0.8856  0.0174
17525SOL    HW258412   1.572   7.267   5.774  0.3923 -0.7184 -0.0624
17526SOL     OW58413   9.184   0.773   4.283  0.0839  0.2071  0.2939
17526SOL    HW158414   9.107   0.815   4.320 -0.2422 -2.0014  2.3746
17526SOL    HW258415   9.194   0.812   4.196 -0.9365  3.4684  1.5025
17527SOL     OW58416   8.496   3.291   1.517 -0.1425 -0.1490  0.2509
17527SOL    HW158417   8.449   3.374   1.519  1.0688  0.5675  0.2763
17527SOL    HW258418   8.572   3.305   1.574  1.3138 -0.4858 -1.4999
17528SOL     OW58419   0.204   9.661  10.048 -0.1619  0.3098 -0.1366
17528SOL    HW158420   0.178   9.593   9.986 -1.9559 -0.5784  1.4965
17528SOL    HW258421   0.292   9.636  10.076 -0.0437 -0.2456 -0.9649
17529SOL     OW58422   1.069   9.591   7.966  0.2762  0.3036  0.2922
17529SOL    HW158423   1.101   9.505   7.939 -0.5759 -0.0267  0.2955
17529SOL    HW258424   1.053   9.582   8.060  2.5064  1.2214  0.8252
17530SOL     OW58425   8.667   8.382   6.362 -0.3847 -0.5873 -0.7913
17530SOL    HW158426   8.748   8.380   6.311 -0.0396 -1.5378 -0.2370
17530SOL    HW258427   8.603   8.423   6.304  0.9637  2.1379 -0.5009
17531SOL     OW58428   1.890   9.039   4.322  0.0836 -0.8987 -0.8395
17531SOL    HW158429   1.812   9.007   4.276 -1.5606  2.4227 -0.6104
17531SOL    HW258430   1.882   9.134   4.322  0.9220 -0.4934  4.6234
17532SOL     OW58431   3.141   9.114   2.410 -0.5604 -0.2215  0.4540
17532SOL    HW158432   3.045   9.119   2.418 -0.5332 -0.4099  0.9267
17532SOL    HW258433   3.173   9.184   2.467 -0.4143 -0.1808  0.3225
17533SOL     OW58434   1.101   0.757   6.689 -0.0611 -0.1430 -0.2349
17533SOL    HW158435   1.070   0.834   6.735 -1.9838 -1.8506  1.5386
17533SOL    HW258436   1.085   0.775   6.597 -0.1662  1.6535  0.1028
17534SOL     OW58437   1.450   7.851   6.994  0.7941 -0.4358 -0.1695
17534SOL    HW158438   1.471   7.934   7.036  0.5055 -0.5392  0.1874
17534SOL    HW258439   1.378   7.815   7.046  2.2305 -1.8671  0.9248
17535SOL     OW58440   3.989   0.749   5.655 -0.1562 -0.2252 -0.3584
17535SOL    HW158441   4.046   0.823   5.676 -0.2723 -0.4391  0.7638
17535SOL    HW258442   4.011   0.726   5.565  0.1513  0.9310 -0.5960
17536SOL     OW58443  10.723   0.757   1.714  0.0706  0.1901 -0.2861
17536SOL    HW158444  10.669   0.679   1.720  0.0149  0.0968 -1.7410
17536SOL    HW258445  10.806   0.731   1.753 -0.7958  0.2457  1.6895
17537SOL     OW58446   5.750   6.581   1.341 -0.2741 -0.0015 -1.2066
17537SOL    HW158447   5.721   6.587   1.250 -0.0004  0.5012 -1.2640
17537SOL    HW258448   5.782   6.491   1.349 -1.5636 -0.4919 -1.2151
17538SOL     OW58449   2.766   2.157   8.447 -0.5170 -0.4086 -0.0549
17538SOL    HW158450   2.766   2.063   8.430  2.1007 -0.3989 -0.4165
17538SOL    HW258451   2.774   2.165   8.542  3.9890 -0.7130 -0.2394
17539SOL     OW58452  10.438   9.742   7.902 -0.2353  0.0593  0.1704
17539SOL    HW158453  10.426   9.835   7.918  0.0607  0.1910 -0.3380
17539SOL    HW258454  10.350   9.707   7.891 -0.3691  0.1997  0.7750
17540SOL     OW58455   2.892   2.558   7.459  0.0477  0.4993  0.1212
17540SOL    HW158456   2.887   2.652   7.441  1.4525  0.8349  1.3337
17540SOL    HW258457   2.846   2.548   7.543 -1.2728 -0.1375 -0.6405
17541SOL     OW58458   9.333   4.200   8.667  0.2917 -0.4329 -0.0383
17541SOL    HW158459   9.260   4.260   8.653  1.8365  1.5358 -0.2152
17541SOL    HW258460   9.302   4.115   8.636 -1.4772  0.6077 -1.2855
17542SOL     OW58461  10.751   4.925   7.408  0.3019 -0.4429  0.3257
17542SOL    HW158462  10.735   4.955   7.319  0.4766 -1.0301  0.0972
17542SOL    HW258463  10.799   4.998   7.449  3.1293 -1.4049 -1.0133
17543SOL     OW58464   2.266   9.522   1.775  0.0145  0.2261 -0.7358
17543SOL    HW158465   2.182   9.527   1.730 -0.5143  1.4501  0.3228
17543SOL    HW258466   2.254   9.456   1.843 -0.6999  1.6111  0.5436
17544SOL     OW58467   8.272   1.582   9.628 -0.1010 -0.4706 -0.2311
17544SOL    HW158468   8.227   1.543   9.704  0.8904  0.2044  0.7303
17544SOL    HW258469   8.203   1.592   9.562 -0.8240 -1.8263  0.2737
17545SOL     OW58470   1.234   4.518   3.101  0.0462 -0.7542 -0.0514
17545SOL    HW158471   1.196   4.515   3.188  2.5356 -2.0733  1.0748
17545SOL    HW258472   1.233   4.427   3.070  1.7075 -0.7775 -0.1669
17546SOL     OW58473   7.879   9.908   7.286 -0.0932 -0.2472  0.2700
17546SOL    HW158474   7.873   9.981   7.225 -0.1906  0.0475  0.6322
17546SOL    HW258475   7.794   9.863   7.278 -0.2729  0.0489  0.5152
17547SOL     OW58476   1.158   5.548   1.243 -0.5227 -0.1523 -0.2330
17547SOL    HW158477   1.132   5.638   1.229  0.4345  0.2438  0.4332
17547SOL    HW258478   1.099   5.515   1.310  0.6253  0.7366  1.2754
17548SOL     OW58479   3.080   6.961   1.416 -0.1988 -0.5274  0.4412
17548SOL    HW158480   3.032   6.890   1.374  0.9411 -1.4122  0.6126
17548SOL    HW258481   3.103   6.927   1.502  0.3435  0.0545  0.5320
17549SOL     OW58482   0.303   0.405   6.716  0.0930 -0.3645  0.2810
17549SOL    HW158483   0.289   0.349   6.639  1.9190  0.0099 -0.3838
17549SOL    HW258484   0.396   0.428   6.711  0.3899 -0.7575  2.9096
17550SOL     OW58485   0.812   6.915  10.732 -0.3380  0.0414  0.2599
17550SOL    HW158486   0.848   6.928  10.645 -0.8890  0.4639  0.0945
17550SOL    HW258487   0.867   6.847  10.771  2.4395  2.5381  1.0387
17551SOL     OW58488   8.366   7.172   0.707 -0.1350 -0.4259  0.6679
17551SOL    HW158489   8.438   7.195   0.766  1.8394  1.3644 -2.2424
17551SOL    HW258490   8.393   7.090   0.667 -0.9004 -1.0000  1.2870
17552SOL     OW58491   5.707   0.169   7.278 -0.2852 -0.5283  0.0183
17552SOL    HW158492   5.736   0.178   7.188  1.1453  1.4576  0.5910
17552SOL    HW258493   5.630   0.112   7.274 -0.0779 -0.7164 -2.3843
17553SOL     OW58494   2.503   9.877   9.719  0.6235 -0.0774 -1.0595
17553SOL    HW158495   2.519   9.971   9.731  3.9125 -0.8277  2.8888
17553SOL    HW258496   2.572   9.849   9.659  1.5760 -0.3245  0.1103
17554SOL     OW58497   7.594   4.030   3.272  0.4747 -0.1166 -0.6174
17554SOL    HW158498   7.501   4.053   3.282  0.2201 -1.4031  0.2050
17554SOL    HW258499   7.595   3.934   3.272  1.7459 -0.1187 -1.3158
17555SOL     OW58500   5.613   5.064   5.446 -0.2267 -0.0868  0.1309
17555SOL    HW158501   5.648   5.007   5.377 -0.8319 -0.6501  0.2726
17555SOL    HW258502   5.518   5.065   5.429 -0.2202  0.9139  0.1104
17556SOL     OW58503  10.493   0.463   4.724 -0.6574  0.0507  0.2357
17556SOL    HW158504  10.519   0.393   4.664 -2.9768  0.7803 -1.8368
17556SOL    HW258505  10.545   0.539   4.697 -1.5075  0.3063 -0.7797
17557SOL     OW58506   4.452   3.819   1.645  0.3708  0.6021  0.2515
17557SOL    HW158507   4.371   3.768   1.656 -0.8327  1.9050 -1.9100
17557SOL    HW258508   4.515   3.757   1.609 -0.3157  0.0567 -0.0243
17558SOL     OW58509   1.704   0.103   0.435  0.3116  0.2696 -0.1065
17558SOL    HW158510   1.685   0.016   0.399 -0.4878  0.7788 -0.9573
17558SOL    HW258511   1.789   0.125   0.399 -0.0614  0.3741 -0.9447
17559SOL     OW58512  10.221   5.651   3.818 -0.2464 -0.5621  0.0558
17559SOL    HW158513  10.262   5.572   3.853 -0.5140 -0.3322  0.9349
17559SOL    HW258514  10.256   5.721   3.873 -1.2584 -0.2802  0.3587
17560SOL     OW58515   6.932   8.826   5.532  0.2580 -0.0755 -0.0455
17560SOL    HW158516   6.977   8.892   5.584  1.1287  0.1015 -0.9832
17560SOL    HW258517   6.929   8.863   5.444  0.2319 -1.0399 -0.4677
17561SOL     OW58518   6.324   9.618   6.362  0.4878  0.4194  0.4319
17561SOL    HW158519   6.294   9.699   6.403  1.7015  1.4502 -0.6308
17561SOL    HW258520   6.419   9.623   6.365  0.6081 -1.3684  1.0441
17562SOL     OW58521   8.106   5.718   7.113  0.2859  0.2176  0.3299
17562SOL    HW158522   8.172   5.778   7.078 -1.8971  1.7217 -1.5524
17562SOL    HW258523   8.140   5.631   7.096  1.6811  0.9449 -0.8094
17563SOL     OW58524   4.155   8.695   4.388  0.3677  0.5056  0.5499
17563SOL    HW158525   4.208   8.769   4.417  1.4974  0.1920 -0.6179
17563SOL    HW258526   4.170   8.627   4.454  1.4988  0.3992  0.2003
17564SOL     OW58527   3.890   1.219   0.192 -0.1074  0.1441  0.5686
17564SOL    HW158528   3.892   1.234   0.286  0.6396  0.3236  0.5291
17564SOL    HW258529   3.951   1.283   0.156 -1.0395  0.6723 -0.1288
17565SOL     OW58530   4.927   1.939   7.420 -0.2283 -0.4899  0.0467
17565SOL    HW158531   4.977   1.871   7.374  1.2829  0.3730  0.3280
17565SOL    HW258532   4.872   1.978   7.353  1.1690  0.0525 -0.8400
17566SOL     OW58533   1.261   8.313   4.223  0.1114 -0.1109 -0.4983
17566SOL    HW158534   1.339   8.273   4.185  0.1854 -0.7774  0.3440
17566SOL    HW258535   1.226   8.369   4.153  1.9351  1.0460 -0.5404
17567SOL     OW58536   1.001   2.032   7.238 -0.3714 -0.6455  0.3913
17567SOL    HW158537   0.963   1.988   7.162 -0.5737 -1.1458  0.7812
17567SOL    HW258538   1.075   2.081   7.202  0.1852 -1.7204  0.0302
17568SOL     OW58539   2.702  10.665   1.894  0.7267  0.5599 -0.3235
17568SOL    HW158540   2.714  10.755   1.924  0.6087  0.7884 -0.9288
17568SOL    HW258541   2.789  10.637   1.865  0.5773  0.8426 -1.0753
17569SOL     OW58542  10.209   5.121   6.030  0.2385  0.0509 -0.6411
17569SOL    HW158543  10.122   5.083   6.045  0.0260  0.8699  0.2963
17569SOL    HW258544  10.229   5.099   5.939 -1.0210 -0.0236 -0.9178
17570SOL     OW58545   9.789   9.190   3.496 -0.3102 -0.0583  0.2914
17570SOL    HW158546   9.717   9.251   3.477 -0.5579 -0.0573  1.1933
17570SOL    HW258547   9.868   9.240   3.479 -0.5070 -0.0594 -0.7208
17571SOL     OW58548   0.536  10.542   1.063 -0.1390  0.6913 -0.0477
17571SOL    HW158549   0.467  10.554   0.998  0.2965  1.0583 -0.4479
17571SOL    HW258550   0.617  10.558   1.015  0.5890 -3.6066 -0.6430
17572SOL     OW58551   9.038   3.633   0.608  0.1882  0.1288 -0.4431
17572SOL    HW158552   9.024   3.548   0.565 -2.9438 -0.6087  1.6533
17572SOL    HW258553   9.034   3.696   0.536 -0.8711 -1.2945 -1.7283
17573SOL     OW58554   1.217   2.167   7.162  0.1119  0.2508 -0.0835
17573SOL    HW158555   1.244   2.247   7.207 -0.5386  1.2776 -1.4462
17573SOL    HW258556   1.240   2.182   7.070  2.5652 -2.2756 -0.0439
17574SOL     OW58557   8.496   0.604  10.343 -0.5294 -0.4102 -0.4988
17574SOL    HW158558   8.486   0.560  10.259  1.6060 -0.3098 -0.8629
17574SOL    HW258559   8.507   0.533  10.406 -1.0800 -0.4621 -0.4565
17575SOL     OW58560   5.905   0.351   1.455 -0.2736  0.0354  0.1762
17575SOL    HW158561   5.959   0.295   1.399  1.4077  2.0574 -0.3519
17575SOL    HW258562   5.869   0.292   1.521  0.2782 -1.8705 -1.1428
17576SOL     OW58563   8.862   4.635   6.179  0.1127  0.0928 -0.0967
17576SOL    HW158564   8.841   4.712   6.127  1.3291 -0.0223 -0.8115
17576SOL    HW258565   8.835   4.561   6.124  1.4899 -0.0322 -0.6495
17577SOL     OW58566   5.804   9.174   6.399  0.1729  0.2124  0.2303
17577SOL    HW158567   5.890   9.180   6.356  0.9389 -0.7956  1.5529
17577SOL    HW258568   5.806   9.242   6.466 -0.5739  1.0145 -0.5332
17578SOL     OW58569   2.181   2.414   2.629 -0.0813 -0.3528  0.0516
17578SOL    HW158570   2.124   2.488   2.608  0.0325  0.0091  0.9539
17578SOL    HW258571   2.235   2.445   2.702  1.7317 -0.4607 -1.1755
17579SOL     OW58572   8.129   4.876   0.292  0.3793  0.7747 -0.4870
17579SOL    HW158573   8.057   4.925   0.331 -0.1167  0.2316 -0.6861
17579SOL    HW258574   8.086   4.818   0.229  0.7331 -1.1503  0.9408
17580SOL     OW58575   1.019   4.608   1.146  0.8881  0.0123  0.2469
17580SOL    HW158576   0.997   4.546   1.076  1.5845 -1.2313  1.0930
17580SOL    HW258577   0.995   4.563   1.227  1.2719  0.9130  0.8804
17581SOL     OW58578   8.747   2.651   1.509  0.6487  0.1550  0.3876
17581SOL    HW158579   8.814   2.718   1.526  0.8103  1.3040 -3.8024
17581SOL    HW258580   8.796   2.569   1.506  1.5230  0.6861 -0.4760
17582SOL     OW58581   2.485   4.546   1.334  0.2266 -0.0581  0.0636
17582SOL    HW158582   2.542   4.622   1.324  0.4359 -0.4063 -1.8895
17582SOL    HW258583   2.412   4.562   1.274 -0.1408 -1.0082  0.2364
17583SOL     OW58584   9.049   2.345   6.542 -0.4572  0.8945  0.2671
17583SOL    HW158585   9.141   2.322   6.557 -0.0844  1.2981 -1.1855
17583SOL    HW258586   9.000   2.280   6.592  0.6033  1.3907  2.0520
17584SOL     OW58587   7.921   9.683   2.735  0.5094  0.1352  0.0533
17584SOL    HW158588   7.927   9.598   2.779  1.2364  0.8993  1.5142
17584SOL    HW258589   8.008   9.722   2.749  0.0953  1.2192 -0.3660
17585SOL     OW58590   1.482   7.390   0.382 -0.1462 -0.5315  0.2411
17585SOL    HW158591   1.435   7.352   0.457  0.0594  0.4973  0.9087
17585SOL    HW258592   1.545   7.322   0.357  0.1456 -0.6963  1.3470
17586SOL     OW58593   1.268   3.732   7.428  0.1733  0.2865  0.2161
17586SOL    HW158594   1.351   3.755   7.470  0.6423  0.4827 -0.7659
17586SOL    HW258595   1.246   3.810   7.377  0.6259 -0.5948 -1.4041
17587SOL     OW58596   0.553   9.588  10.547  0.0780 -0.4844  0.9750
17587SOL    HW158597   0.647   9.571  10.546  0.2606  0.4689  0.8245
17587SOL    HW258598   0.528   9.586  10.455 -0.0723 -0.8299  1.0218
17588SOL     OW58599   6.487  10.703   4.699  0.3823  0.0739 -0.1286
17588SOL    HW158600   6.493  10.608   4.710 -1.8635 -0.2247 -0.9605
17588SOL    HW258601   6.406  10.727   4.742  0.2771  1.4200 -1.0194
17589SOL     OW58602   9.823   2.442   0.292  0.3138  0.2509  0.4507
17589SOL    HW158603   9.830   2.469   0.384 -0.4020 -0.4508  0.7208
17589SOL    HW258604   9.736   2.470   0.265  0.5378  0.4961 -0.0404
17590SOL     OW58605  10.530   3.410   5.097  0.1687 -0.2205  0.0148
17590SOL    HW158606  10.487   3.348   5.156 -0.0839 -0.7788 -0.7444
17590SOL    HW258607  10.608   3.438   5.145  0.6459 -1.6348  0.1133
17591SOL     OW58608   6.602   7.336   5.197 -1.2386  0.2923  0.2488
17591SOL    HW158609   6.675   7.376   5.244  1.2963 -2.0990 -1.3343
17591SOL    HW258610   6.554   7.287   5.263  0.5695 -0.7141  0.8987
17592SOL     OW58611   8.639   3.686   9.590  0.3556 -0.0341 -0.5324
17592SOL    HW158612   8.546   3.692   9.568  0.7172  2.3115 -1.7986
17592SOL    HW258613   8.660   3.773   9.624  2.1002 -0.5055 -0.3611
17593SOL     OW58614   5.770   2.109  10.589  0.3163 -0.3134 -0.2444
17593SOL    HW158615   5.747   2.180  10.649  1.0798 -1.4876  1.4983
17593SOL    HW258616   5.831   2.054  10.638 -1.4827 -3.1008 -0.9236
17594SOL     OW58617   9.105   8.818   8.046  0.2273  0.0838 -0.1593
17594SOL    HW158618   9.044   8.852   8.110 -0.3781 -1.9528  0.4283
17594SOL    HW258619   9.052   8.805   7.967  0.4406  0.4816 -0.3675
17595SOL     OW58620   7.154   0.003   8.017 -0.7027 -0.5921  0.0199
17595SOL    HW158621   7.185  -0.084   8.042  1.0192 -0.0848 -0.2265
17595SOL    HW258622   7.205   0.025   7.940 -2.6508 -0.2109 -1.2220
17596SOL     OW58623   0.290  10.172   5.864 -0.7541  0.0812 -0.2898
17596SOL    HW158624   0.288  10.213   5.950  2.8656 -1.3538  0.6487
17596SOL    HW258625   0.347  10.228   5.812  1.4777 -1.7756 -0.0089
17597SOL     OW58626  10.434   3.506  10.428  0.2855 -0.0284  0.2958
17597SOL    HW158627  10.528   3.513  10.411  0.2828 -0.8157 -0.0450
17597SOL    HW258628  10.398   3.591  10.401  0.9184  0.3532  0.6276
17598SOL     OW58629   6.431   6.290   1.038 -0.0693  0.5290 -0.0636
17598SOL    HW158630   6.520   6.276   1.072 -0.1925 -1.0263 -0.3180
17598SOL    HW258631   6.377   6.301   1.117 -0.4318 -3.5356  0.4643
17599SOL     OW58632   3.400   1.210   2.264 -0.6636  0.1908 -0.4522
17599SOL    HW158633   3.335   1.157   2.218  0.5317 -1.1026 -0.7349
17599SOL    HW258634   3.433   1.152   2.333  2.2642 -0.3367 -2.1327
17600SOL     OW58635   5.699   7.291   8.324  0.6097 -0.4245  0.1285
17600SOL    HW158636   5.645   7.317   8.398  1.3478 -1.2601  1.0017
17600SOL    HW258637   5.649   7.222   8.280  1.5068 -2.2315  1.7830
17601SOL     OW58638   8.900   3.209   2.772  0.0350 -0.1074  0.1516
17601SOL    HW158639   8.934   3.256   2.696 -0.6659 -0.6196 -0.5003
17601SOL    HW258640   8.948   3.245   2.846 -0.3092  1.4795 -0.3481
17602SOL     OW58641   7.969   0.785   8.383 -0.4735  0.0689 -0.6178
17602SOL    HW158642   7.906   0.831   8.439 -1.3560 -0.6691 -0.9680
17602SOL    HW258643   8.020   0.732   8.444  0.2000  1.0909 -0.2682
17603SOL     OW58644   7.819   2.155   6.373 -0.5694  0.5428 -0.5359
17603SOL    HW158645   7.731   2.155   6.411 -1.1835  0.8309 -1.9152
17603SOL    HW258646   7.838   2.063   6.355 -0.0507  0.3361  0.8890
17604SOL     OW58647   4.034   4.619   0.307  0.1179  0.0843  0.4060
17604SOL    HW158648   3.947   4.580   0.302  0.7861 -1.2895 -1.3269
17604SOL    HW258649   4.063   4.627   0.216  0.8762  2.7547  0.7924
17605SOL     OW58650  10.425  10.152   5.117 -0.2982 -0.2429  0.0115
17605SOL    HW158651  10.369  10.146   5.194  0.1673 -0.2495  0.3500
17605SOL    HW258652  10.452  10.244   5.114  0.5480 -0.4777  0.4664
17606SOL     OW58653   5.937   2.177   9.245 -0.5896 -0.4177  0.0416
17606SOL    HW158654   6.013   2.231   9.268 -1.0695 -0.4073  1.7922
17606SOL    HW258655   5.891   2.227   9.177  0.0977  0.3627  0.1361
17607SOL     OW58656  10.611  10.210   8.730  0.3115 -0.5828  0.8209
17607SOL    HW158657  10.584  10.202   8.822 -1.7433  0.0447  0.3205
17607SOL    HW258658  10.576  10.131   8.688 -1.5804  0.6480 -0.0102
17608SOL     OW58659   4.082   2.815   3.186 -0.5956  0.5177 -0.0044
17608SOL    HW158660   4.068   2.909   3.171  0.1467  0.6659  0.1732
17608SOL    HW258661   4.070   2.775   3.101  0.1138  0.9138 -0.3022
17609SOL     OW58662   5.609   2.140   8.004 -0.5129  0.0140  0.1244
17609SOL    HW158663   5.532   2.149   7.947  0.8123  0.7668 -1.6405
17609SOL    HW258664   5.637   2.049   7.991 -1.3474 -0.3966  1.1225
17610SOL     OW58665   4.227   2.425   4.899 -0.5477  0.0967 -0.0472
17610SOL    HW158666   4.277   2.399   4.977  0.0104  0.6579 -0.2130
17610SOL    HW258667   4.225   2.520   4.902  0.2363  0.1720 -1.1752
17611SOL     OW58668   2.098   6.020   2.597 -0.0069  0.2713 -0.4161
17611SOL    HW158669   2.157   6.050   2.528  1.8047  0.7900  1.2802
17611SOL    HW258670   2.103   6.088   2.664 -0.7696 -0.7889  0.7632
17612SOL     OW58671  10.543   2.592   2.994 -0.8470  0.3115  0.1899
17612SOL    HW158672  10.540   2.687   3.000 -0.4944  0.4184 -1.1144
17612SOL    HW258673  10.487   2.571   2.919 -1.3152 -0.5543  0.7603
17613SOL     OW58674   0.018   3.873   1.215 -0.3706  0.3051 -0.3352
17613SOL    HW158675   0.082   3.943   1.227 -1.2980  1.3131 -1.0216
17613SOL    HW258676   0.064   3.808   1.162  0.4311  0.4930  0.1061
17614SOL     OW58677   4.414   0.563   6.212 -0.1759  0.3193 -0.0768
17614SOL    HW158678   4.427   0.571   6.118  0.9056  2.3235  0.1916
17614SOL    HW258679   4.465   0.485   6.237 -1.3626 -0.8763 -1.2653
17615SOL     OW58680   0.205   4.365   6.234  0.2628  0.1238 -0.1597
17615SOL    HW158681   0.284   4.416   6.217  0.9569 -0.2431  1.7589
17615SOL    HW258682   0.222   4.321   6.317 -1.8999 -0.1343  0.1965
17616SOL     OW58683   0.077   5.403   4.216  0.2848 -0.5452  0.3406
17616SOL    HW158684   0.053   5.485   4.172  0.4531 -0.3852  0.5386
17616SOL    HW258685  -0.005   5.356   4.225  0.6032 -1.9687 -2.8336
17617SOL     OW58686  10.391   5.073   8.262  0.5683  0.2515  0.5222
17617SOL    HW158687  10.422   5.037   8.345  0.8920 -0.2254  0.1989
17617SOL    HW258688  10.355   5.158   8.285  2.4562  0.9950  0.8650
17618SOL     OW58689   1.744   2.097   2.114 -0.2070  0.8104  0.3013
17618SOL    HW158690   1.813   2.143   2.066  0.1377  0.0397  0.0450
17618SOL    HW258691   1.683   2.069   2.046 -0.0243  0.2378  0.3648
17619SOL     OW58692   3.654   4.985   3.817  0.1690 -0.0347 -0.4734
17619SOL    HW158693   3.732   4.995   3.763  0.0889 -0.2247 -0.6257
17619SOL    HW258694   3.688   4.966   3.905  0.2972  0.1769 -0.4770
17620SOL     OW58695   4.428   3.439   5.845  0.1728  0.2226  0.2513
17620SOL    HW158696   4.493   3.502   5.815 -0.0647 -0.3214 -1.4998
17620SOL    HW258697   4.463   3.354   5.818  0.2335 -0.3868  2.0923
17621SOL     OW58698   0.182   5.619   1.811  0.4870 -0.0366  0.5453
17621SOL    HW158699   0.212   5.694   1.863 -1.4961  0.7589  0.6432
17621SOL    HW258700   0.208   5.640   1.721  2.0192 -0.3883  0.8824
17622SOL     OW58701   7.436   4.335   5.890  0.5249  0.6428 -0.1742
17622SOL    HW158702   7.343   4.353   5.877  0.2657 -0.8426 -0.5694
17622SOL    HW258703   7.481   4.396   5.832 -0.3561 -0.9965 -2.7400
17623SOL     OW58704   9.637   4.768   9.940 -0.0373  0.1664  0.0307
17623SOL    HW158705   9.718   4.719   9.955 -0.1160  0.0539  0.0981
17623SOL    HW258706   9.622   4.762   9.846 -0.2489 -0.2671  0.0906
17624SOL     OW58707   6.716   0.772   3.439  0.2037 -0.5887  0.0904
17624SOL    HW158708   6.662   0.696   3.417 -0.3299 -0.1582 -0.1184
17624SOL    HW258709   6.756   0.798   3.356 -0.3864 -0.0549 -0.0338
17625SOL     OW58710   9.294   5.171   8.805  0.3899 -0.2384  0.3113
17625SOL    HW158711   9.280   5.260   8.836  2.6274 -0.2126  1.4820
17625SOL    HW258712   9.375   5.177   8.753  0.9789 -1.6736  1.0012
17626SOL     OW58713   5.121   1.945   3.109 -0.0087 -0.1360  0.0151
17626SOL    HW158714   5.189   1.930   3.174  1.9029  1.2410 -1.5468
17626SOL    HW258715   5.079   1.859   3.099  1.9433 -1.2285  0.5790
17627SOL     OW58716   9.945   7.942   7.582 -0.5563 -0.3164  0.1766
17627SOL    HW158717   9.992   7.946   7.665 -0.2640 -0.3166  0.0157
17627SOL    HW258718   9.970   7.858   7.544 -0.2797 -0.0958 -0.1427
17628SOL     OW58719   3.256   4.957   8.531 -0.2072 -0.5422 -0.0935
17628SOL    HW158720   3.261   5.048   8.503  1.0223 -1.1070 -1.9307
17628SOL    HW258721   3.166   4.930   8.510  0.4613 -0.7456 -3.2013
17629SOL     OW58722   1.081   1.986   0.056  0.4290 -0.2850  0.6148
17629SOL    HW158723   1.176   1.990   0.066  0.3183  0.7230  1.4016
17629SOL    HW258724   1.054   2.076   0.041 -0.1867 -0.8253 -1.9794
17630SOL     OW58725   7.933   7.753   6.044 -0.8981  0.3663 -0.1335
17630SOL    HW158726   7.971   7.671   6.074 -0.0654  0.1591 -1.6385
17630SOL    HW258727   7.952   7.816   6.114 -1.6044 -0.7139  1.0629
17631SOL     OW58728  10.621   2.964  10.860 -0.7364  0.7123  0.0392
17631SOL    HW158729  10.572   3.045  10.878 -2.2546 -0.4646  1.4628
17631SOL    HW258730  10.563   2.894  10.890  1.0009 -0.8665 -0.1465
17632SOL     OW58731   6.613   6.086   6.268 -0.1695 -0.2765  0.1838
17632SOL    HW158732   6.650   6.034   6.197 -0.8877 -0.7596  0.1502
17632SOL    HW258733   6.599   6.173   6.229 -0.5874 -0.5466 -0.2825
17633SOL     OW58734   0.436   2.711   5.880  0.0921 -0.2220 -1.0166
17633SOL    HW158735   0.364   2.699   5.817  0.8844 -1.1274 -1.7723
17633SOL    HW258736   0.504   2.650   5.851  1.5298  1.2486 -0.8386
17634SOL     OW58737   5.312   6.270   0.107 -0.1124  0.1314  0.9841
17634SOL    HW158738   5.309   6.342   0.045 -0.8344 -0.5728  0.1761
17634SOL    HW258739   5.230   6.276   0.155  0.0204  0.1073  1.2144
17635SOL     OW58740   5.606   2.677   5.176  0.7272 -0.3815  0.0210
17635SOL    HW158741   5.544   2.719   5.235  1.6485 -0.9498  1.4402
17635SOL    HW258742   5.652   2.750   5.133  1.9455  0.1311  2.0587
17636SOL     OW58743   8.054   2.863   4.708  0.1207  0.2756  0.1932
17636SOL    HW158744   7.992   2.812   4.760 -0.1558  1.4096  1.0097
17636SOL    HW258745   8.020   2.952   4.711  2.3002  1.1414  1.5082
17637SOL     OW58746   2.416   2.731   4.116  0.1020 -1.0536  0.1725
17637SOL    HW158747   2.339   2.770   4.158  0.4176 -1.1017  0.7938
17637SOL    HW258748   2.391   2.726   4.023 -1.2375 -2.4487  0.5614
17638SOL     OW58749   7.059   8.735   0.794 -0.3873  0.4869 -0.6983
17638SOL    HW158750   7.013   8.705   0.716  0.9528  1.6825 -2.0344
17638SOL    HW258751   7.148   8.753   0.763  0.7398 -0.8491  1.5660
17639SOL     OW58752   0.978   4.716   3.772  0.0469 -0.3582  0.1642
17639SOL    HW158753   0.959   4.700   3.865  0.2731  0.7815  0.4245
17639SOL    HW258754   0.922   4.791   3.749  0.6290 -0.0853 -0.3804
17640SOL     OW58755   1.264   5.707   0.901  0.0492 -0.1862 -0.2091
17640SOL    HW158756   1.306   5.622   0.885  2.1963  0.9849 -1.2623
17640SOL    HW258757   1.261   5.748   0.815 -2.7187  0.1183 -0.0472
17641SOL     OW58758   2.837   6.616   2.195 -0.1390  0.2622  0.1672
17641SOL    HW158759   2.806   6.528   2.214 -2.1319  0.7744 -0.4470
17641SOL    HW258760   2.849   6.617   2.100  1.5755  0.1743  0.3534
17642SOL     OW58761   3.399   4.168   2.750 -0.6185  0.3817 -0.4224
17642SOL    HW158762   3.481   4.122   2.766 -0.1334  1.3806  0.0982
17642SOL    HW258763   3.336   4.125   2.809 -0.5896 -0.6717 -1.1422
17643SOL     OW58764   3.055   1.962   0.054  0.4080  0.1205  0.5483
17643SOL    HW158765   2.965   1.930   0.058  0.1852  0.8278  2.5398
17643SOL    HW258766   3.095   1.913  -0.017 -2.0592  1.1989 -1.7409
17644SOL     OW58767   9.566   8.636   5.667  0.3362  0.2680 -0.1281
17644SOL    HW158768   9.508   8.682   5.606 -1.2623 -1.4660 -0.0113
17644SOL    HW258769   9.628   8.589   5.610 -1.1924 -1.4025 -0.5106
17645SOL     OW58770   5.560   9.992   0.118  0.4619 -0.0168 -0.0055
17645SOL    HW158771   5.466  10.002   0.137  1.0267  0.7584  2.8765
17645SOL    HW258772   5.591  10.081   0.102  1.1262  0.0790  1.6289
17646SOL     OW58773   1.228   2.738   2.491  0.1416  0.1074 -0.1367
17646SOL    HW158774   1.137   2.734   2.521 -0.2877  2.1728 -0.9582
17646SOL    HW258775   1.227   2.695   2.405  0.3395 -1.3890  0.5776
17647SOL     OW58776   3.451   4.411   4.812  0.3114  0.4215 -0.2817
17647SOL    HW158777   3.534   4.385   4.772  0.5580 -0.1626  0.5897
17647SOL    HW258778   3.457   4.506   4.820  0.4118  0.5091 -1.2715
17648SOL     OW58779   1.407  10.748   3.594 -1.0042 -0.2958 -0.1734
17648SOL    HW158780   1.436  10.830   3.634 -1.6338 -0.7577  1.2820
17648SOL    HW258781   1.322  10.769   3.556 -0.7959 -0.0803 -0.5319
17649SOL     OW58782   9.403   6.248   5.805  0.1762  0.3334 -0.1118
17649SOL    HW158783   9.408   6.232   5.711  1.4252  0.5864 -0.0994
17649SOL    HW258784   9.320   6.208   5.831  0.2939 -0.6416 -1.1415
17650SOL     OW58785  10.513   2.290   9.716 -0.3384  0.2511 -0.3789
17650SOL    HW158786  10.607   2.300   9.702 -0.5189  0.9651 -1.1944
17650SOL    HW258787  10.498   2.322   9.805  0.2066 -0.0611 -0.1656
17651SOL     OW58788   6.893   6.239   1.529 -0.2320 -0.5206  0.0658
17651SOL    HW158789   6.820   6.181   1.551 -1.1665  0.8836  0.8144
17651SOL    HW258790   6.859   6.327   1.543  1.0770  0.2470 -1.2393
17652SOL     OW58791   3.088   3.682   0.942 -0.3111  0.2065  0.1648
17652SOL    HW158792   3.022   3.714   1.003 -1.9463  0.6259 -1.6919
17652SOL    HW258793   3.137   3.616   0.991 -2.6413 -0.7182  1.4049
17653SOL     OW58794  10.820   4.983   8.972 -0.4547  0.0562 -0.4802
17653SOL    HW158795  10.909   5.010   8.991 -0.3245 -1.4615  1.3762
17653SOL    HW258796  10.826   4.935   8.890  0.7550 -1.4137  0.4306
17654SOL     OW58797   9.261   3.485   3.509  0.4833 -0.3774  0.1481
17654SOL    HW158798   9.286   3.535   3.431  0.3236 -1.1796 -0.4289
17654SOL    HW258799   9.199   3.541   3.555  1.0651  0.3796  0.0463
17655SOL     OW58800   1.632   2.962   7.170  0.4238  0.1935  0.1260
17655SOL    HW158801   1.635   2.881   7.119  0.2487  0.1053  0.2563
17655SOL    HW258802   1.638   2.933   7.261  3.0331  0.4538  0.1198
17656SOL     OW58803   0.599   5.285   9.824  0.2930  0.2448  0.4431
17656SOL    HW158804   0.542   5.209   9.834  0.1074  0.4484  1.0025
17656SOL    HW258805   0.563   5.333   9.749 -1.3293  1.2573  1.7980
17657SOL     OW58806   8.151   4.540   3.024  0.4460 -0.6457 -0.4537
17657SOL    HW158807   8.146   4.540   2.928 -1.6324 -2.3947 -0.4245
17657SOL    HW258808   8.242   4.559   3.043  1.3779 -2.2197 -2.8575
17658SOL     OW58809   7.574   3.689   8.212  0.1886 -0.5027  0.2376
17658SOL    HW158810   7.662   3.715   8.186  0.7109 -1.9768  0.4377
17658SOL    HW258811   7.525   3.771   8.216  1.8706  0.5162  1.4203
17659SOL     OW58812   0.002   1.574  10.194  0.1951 -0.6517  0.9851
17659SOL    HW158813   0.089   1.549  10.162 -0.5181 -1.2199 -0.6206
17659SOL    HW258814  -0.006   1.531  10.279  0.3907 -3.0353 -0.1144
17660SOL     OW58815   3.740   5.961   1.359 -0.0869 -0.3119  0.0154
17660SOL    HW158816   3.740   5.953   1.454 -0.9068  0.0313  0.0505
17660SOL    HW258817   3.831   5.946   1.334 -0.0945 -1.6748  0.7339
17661SOL     OW58818   9.731   1.751   1.188 -0.3667 -0.5872 -0.6609
17661SOL    HW158819   9.672   1.752   1.263 -0.1414 -0.9197 -0.4759
17661SOL    HW258820   9.728   1.661   1.156  1.6900 -1.2127  0.6877
17662SOL     OW58821   1.042   7.552   2.616  0.2609  0.3619 -0.6308
17662SOL    HW158822   1.077   7.468   2.588  0.4219  0.5646 -1.0444
17662SOL    HW258823   1.092   7.575   2.694 -0.0433 -0.1039 -0.2952
17663SOL     OW58824   8.666   6.196   6.955 -0.4694 -0.1817 -0.1775
17663SOL    HW158825   8.579   6.164   6.980 -1.6770  2.7788 -0.1998
17663SOL    HW258826   8.702   6.233   7.035  0.3362 -0.4018 -0.4242
17664SOL     OW58827   1.904   1.217   6.050 -0.9725 -0.0075  0.2829
17664SOL    HW158828   1.970   1.277   6.017 -0.2562 -0.9612 -0.0726
17664SOL    HW258829   1.821   1.260   6.032 -0.4466  1.3381  1.0060
17665SOL     OW58830   9.905   3.218   8.950 -0.4229  0.7377  0.0477
17665SOL    HW158831   9.965   3.155   8.910 -0.9558  0.7363 -0.7689
17665SOL    HW258832   9.945   3.238   9.034 -1.7342 -2.9823  1.7639
17666SOL     OW58833   5.188   4.304   8.179  0.6094 -0.3518 -0.1774
17666SOL    HW158834   5.126   4.232   8.193  1.5622 -0.7574  2.6523
17666SOL    HW258835   5.172   4.364   8.252  1.1903  1.3634 -1.3781
17667SOL     OW58836   6.696   8.678   4.594  0.0270 -0.1152 -0.1815
17667SOL    HW158837   6.693   8.733   4.516 -0.3501  0.1760  0.0314
17667SOL    HW258838   6.636   8.605   4.575 -1.5184  0.9122  0.5295
17668SOL     OW58839   2.269   5.867   1.691 -0.1440  0.8829  0.0549
17668SOL    HW158840   2.256   5.954   1.729 -2.1859  0.7249 -0.1986
17668SOL    HW258841   2.227   5.807   1.753  1.8989 -0.0799  0.6308
17669SOL     OW58842   7.916   7.951   7.928 -0.2006 -0.2115  0.2069
17669SOL    HW158843   7.916   7.955   7.833 -1.1738  0.2948  0.2105
17669SOL    HW258844   7.946   8.038   7.956  0.9287 -0.6424  0.3719
17670SOL     OW58845   1.939   5.889   6.585  0.0052  0.1170  0.2333
17670SOL    HW158846   1.947   5.953   6.655 -0.2073 -0.6557  0.9822
17670SOL    HW258847   1.877   5.929   6.523 -1.4379 -0.0422  1.5060
17671SOL     OW58848   8.698   3.081   1.773 -0.0352 -0.0354 -0.0865
17671SOL    HW158849   8.729   3.135   1.846  0.5847 -0.6932  0.1386
17671SOL    HW258850   8.696   3.141   1.699 -0.4894  0.5946  0.4201
17672SOL     OW58851   4.398   7.710   3.939 -0.1559  0.1105  0.1015
17672SOL    HW158852   4.313   7.704   3.896  0.4446 -0.7411 -1.0221
17672SOL    HW258853   4.379   7.746   4.025 -1.4962  1.1676 -0.5914
17673SOL     OW58854   4.281   0.157   9.694  0.3436  0.4106 -0.3797
17673SOL    HW158855   4.304   0.243   9.729  3.1951 -0.2454 -0.3731
17673SOL    HW258856   4.358   0.131   9.643  0.4601 -2.9703  1.2424
17674SOL     OW58857   6.196   6.577  10.760 -0.1424 -0.4529  0.2053
17674SOL    HW158858   6.116   6.535  10.731  0.1350 -0.1671 -1.0062
17674SOL    HW258859   6.167   6.658  10.802 -0.4463  0.1254 -1.0847
17675SOL     OW58860   4.209   4.022   1.734  0.4323  0.4816 -0.1646
17675SOL    HW158861   4.133   3.993   1.684  2.2008  2.2251 -4.3075
17675SOL    HW258862   4.271   3.950   1.728  0.2591  0.2507  0.6235
17676SOL     OW58863   7.851   9.627   4.792 -0.0951 -0.0780  0.2042
17676SOL    HW158864   7.782   9.565   4.817 -0.1309 -0.5298 -0.9576
17676SOL    HW258865   7.920   9.572   4.755 -0.1264  0.5751 -0.8573
17677SOL     OW58866   8.347   5.240   9.897  0.0156  0.4836 -0.3646
17677SOL    HW158867   8.351   5.320   9.844 -1.1148  0.8847  0.1388
17677SOL    HW258868   8.257   5.209   9.887 -0.0566  0.2504  0.8587
17678SOL     OW58869   8.426  10.129   3.152 -0.3532  0.3051  0.2573
17678SOL    HW158870   8.520  10.116   3.165 -0.5675 -0.9135  0.7881
17678SOL    HW258871   8.420  10.198   3.086  0.8851  1.7183  1.5428
17679SOL     OW58872   5.885   1.005   7.471  0.1768 -0.0914 -0.1713
17679SOL    HW158873   5.812   1.006   7.409  0.2772 -1.9807 -0.3858
17679SOL    HW258874   5.929   0.922   7.454  2.0814  0.7684  0.3116
17680SOL     OW58875   7.389   5.395   8.811 -0.5112 -0.1447  0.3538
17680SOL    HW158876   7.367   5.329   8.745 -2.0260  0.1396  0.5461
17680SOL    HW258877   7.305   5.420   8.849 -0.0655  2.4038 -0.1855
17681SOL     OW58878   3.217   6.580   9.202 -0.5682  0.5234  0.0922
17681SOL    HW158879   3.227   6.537   9.117 -0.6113  1.8951 -0.6408
17681SOL    HW258880   3.224   6.510   9.266 -4.3800 -1.2324 -1.1324
17682SOL     OW58881   0.444   0.283   1.950 -0.0458  0.2383  0.4783
17682SOL    HW158882   0.442   0.302   2.044  0.7562 -0.5479  0.6644
17682SOL    HW258883   0.522   0.327   1.918 -0.6152  0.9659  0.0632
17683SOL     OW58884   0.007   2.473   8.337  0.3317  0.3857  0.4000
17683SOL    HW158885   0.098   2.447   8.350 -0.2636 -0.4737  3.6646
17683SOL    HW258886  -0.038   2.393   8.312 -0.0233  0.0826  1.9273
17684SOL     OW58887   7.743   2.505  10.177  0.9728  0.1555  0.2517
17684SOL    HW158888   7.827   2.549  10.182  1.8955 -1.6337  3.0800
17684SOL    HW258889   7.690   2.547  10.245  0.6132 -0.6441  0.4801
17685SOL     OW58890   1.881   9.494   8.771 -0.2186  0.3397  0.1067
17685SOL    HW158891   1.895   9.472   8.863  0.0926  1.0437  0.2358
17685SOL    HW258892   1.789   9.519   8.767  0.2075  2.1372  0.6338
17686SOL     OW58893  10.390   0.975   0.793  0.7978 -0.7160 -0.8809
17686SOL    HW158894  10.309   1.024   0.775  1.2889  0.9681  1.1329
17686SOL    HW258895  10.363   0.883   0.792 -1.4491 -0.1617  0.9190
17687SOL     OW58896   0.667  10.667   1.693  0.2108 -0.4638  0.3051
17687SOL    HW158897   0.671  10.669   1.598  1.2611 -1.6867  0.3053
17687SOL    HW258898   0.634  10.754   1.717  0.3578  0.0174 -1.1381
17688SOL     OW58899  10.471   1.309   3.033 -0.0135 -0.2437  0.1704
17688SOL    HW158900  10.445   1.299   2.941  0.7141  1.1167 -0.2075
17688SOL    HW258901  10.502   1.222   3.058  1.1789 -0.3101 -1.3451
17689SOL     OW58902  10.832   9.100  10.874  0.1169 -0.1904  0.8617
17689SOL    HW158903  10.750   9.131  10.911  0.1359 -1.3946  1.9961
17689SOL    HW258904  10.898   9.162  10.905 -0.3537  0.8870 -0.2066
17690SOL     OW58905   2.488  10.455   2.474  0.1727 -0.5470 -0.3365
17690SOL    HW158906   2.567  10.414   2.440 -0.0077 -0.8723 -0.3630
17690SOL    HW258907   2.421  10.387   2.468 -0.7599  0.4687 -2.7233
17691SOL     OW58908   0.063   9.499   2.915  0.1278  0.7237  0.1685
17691SOL    HW158909   0.106   9.454   2.842  1.6934  0.8022  0.9902
17691SOL    HW258910   0.093   9.590   2.907  1.6003  0.4362  1.7494
17692SOL     OW58911   5.034   1.363   8.245 -0.0534 -0.4526  0.5838
17692SOL    HW158912   5.084   1.282   8.254 -1.6448 -1.7563 -1.4149
17692SOL    HW258913   4.950   1.345   8.288 -1.6144 -1.1187 -2.4531
17693SOL     OW58914   0.781   2.925   9.239 -0.0716  0.4259 -0.7562
17693SOL    HW158915   0.765   2.985   9.167 -1.7943 -0.0757 -0.8484
17693SOL    HW258916   0.700   2.928   9.291  0.0170 -1.3400 -0.4431
17694SOL     OW58917   2.010   4.068   5.289 -0.3320 -0.5622 -0.1737
17694SOL    HW158918   2.024   4.157   5.259 -0.8946 -0.3603  0.1428
17694SOL    HW258919   2.090   4.046   5.337 -0.2562 -0.1754 -0.1191
17695SOL     OW58920   3.676   8.089   0.493  0.2156 -0.1009  0.1549
17695SOL    HW158921   3.727   8.083   0.412 -3.5970  0.6317 -2.5939
17695SOL    HW258922   3.680   8.001   0.530  3.0644 -0.1485 -0.0612
17696SOL     OW58923   6.186   3.440   1.257 -0.0445 -0.6093 -0.3626
17696SOL    HW158924   6.258   3.467   1.199  0.3136 -0.2582  0.2325
17696SOL    HW258925   6.122   3.400   1.198  1.7167 -3.2487 -0.6482
17697SOL     OW58926   1.777   3.307   2.397 -0.0443  0.1672 -0.1726
17697SOL    HW158927   1.775   3.233   2.457  0.3720 -0.8362 -1.3558
17697SOL    HW258928   1.694   3.303   2.350  1.0851 -1.2737 -2.1894
17698SOL     OW58929   9.475   9.938   3.806  0.4525  0.3664  0.1219
17698SOL    HW158930   9.535   9.954   3.733  0.6032 -1.3651 -0.1580
17698SOL    HW258931   9.495   9.850   3.835  0.1498  0.8987  2.0682
17699SOL     OW58932   1.151   2.182   8.239 -0.6658  0.0025  0.1077
17699SOL    HW158933   1.134   2.129   8.161 -0.5366 -0.4531  0.3866
17699SOL    HW258934   1.081   2.247   8.240 -0.5733  0.1216 -0.4809
17700SOL     OW58935   4.985   6.351   5.792 -0.2242 -0.0229 -1.0969
17700SOL    HW158936   5.050   6.296   5.747  0.7991 -1.0587  1.4772
17700SOL    HW258937   4.917   6.289   5.820 -0.5056  0.5022 -0.6143
17701SOL     OW58938   2.115   1.695   7.210  0.1645  0.2902  0.1037
17701SOL    HW158939   2.056   1.677   7.137  3.2054 -0.4167 -2.4236
17701SOL    HW258940   2.148   1.783   7.193  0.4058  0.3966  1.0449
17702SOL     OW58941   8.582   4.489  10.239 -0.5036 -0.5713 -0.2086
17702SOL    HW158942   8.636   4.568  10.230  0.0239 -0.8970  0.0560
17702SOL    HW258943   8.530   4.504  10.318  0.0899 -0.7768  0.2229
17703SOL     OW58944   0.777   7.212   6.488 -0.0527  0.0318  0.3530
17703SOL    HW158945   0.697   7.190   6.441  0.4781 -1.3485  0.0492
17703SOL    HW258946   0.834   7.252   6.422  0.3728 -1.1318 -0.0099
17704SOL     OW58947   3.354   0.454   3.312  0.0241  0.1184 -0.3633
17704SOL    HW158948   3.384   0.393   3.380  1.0084  1.7436  0.7175
17704SOL    HW258949   3.419   0.524   3.312 -0.6890  0.8407 -2.0743
17705SOL     OW58950   0.680   5.948   4.621 -0.1596 -0.2819 -0.6280
17705SOL    HW158951   0.734   6.004   4.566 -1.7930  0.3465 -1.6763
17705SOL    HW258952   0.600   5.935   4.570 -0.4893 -2.2228  0.3133
17706SOL     OW58953   0.485   0.847   3.111 -0.4015 -0.2334  0.2462
17706SOL    HW158954   0.399   0.873   3.077 -0.5120 -1.5115 -0.5087
17706SOL    HW258955   0.493   0.755   3.086  1.7795  0.2192 -0.9399
17707SOL     OW58956   0.722   1.408   2.888  0.2921  0.1679 -0.4790
17707SOL    HW158957   0.652   1.436   2.948 -0.6588  0.2330 -1.5753
17707SOL    HW258958   0.727   1.313   2.900  0.8736  0.3039  0.4764
17708SOL     OW58959   3.219   2.783   3.909 -0.1041 -0.1855  0.3330
17708SOL    HW158960   3.142   2.836   3.886 -0.6095 -0.6244  0.9705
17708SOL    HW258961   3.283   2.802   3.840 -0.3994  0.9834  0.3575
17709SOL     OW58962   1.943   8.195   3.682  0.1287  0.3078  0.4091
17709SOL    HW158963   1.878   8.161   3.743  0.1204 -1.2436 -0.4156
17709SOL    HW258964   1.892   8.226   3.607  0.3134 -3.0625 -1.2941
17710SOL     OW58965   2.094  10.116   3.666  0.2907 -0.7689  0.6424
17710SOL    HW158966   2.107  10.045   3.729 -2.3734 -2.3448 -0.4334
17710SOL    HW258967   2.146  10.089   3.589  1.5650 -0.0650  1.2231
17711SOL     OW58968   8.851   1.504   2.842 -0.1987  0.5305 -0.0599
17711SOL    HW158969   8.922   1.510   2.779 -0.9153  0.3202 -0.9125
17711SOL    HW258970   8.785   1.450   2.798 -1.0080  0.9688  0.5843
17712SOL     OW58971   7.425   5.779   9.630 -0.2320  0.0483  0.5645
17712SOL    HW158972   7.487   5.711   9.654  1.5723  0.2964 -2.8696
17712SOL    HW258973   7.339   5.739   9.644  0.7140 -1.7899  1.4714
17713SOL     OW58974   3.852   0.220   6.419 -0.1955 -0.1814 -0.1500
17713SOL    HW158975   3.866   0.310   6.387  0.1334  0.0974  0.7399
17713SOL    HW258976   3.920   0.208   6.485 -0.5217 -0.9362  0.0520
17714SOL     OW58977   5.089   5.865   9.450 -0.4224 -0.0228  0.4904
17714SOL    HW158978   5.068   5.939   9.508 -0.3028 -1.0329  1.8590
17714SOL    HW258979   5.166   5.824   9.490  0.6116  0.1325 -1.2312
17715SOL     OW58980   4.606   1.554   8.761  0.3640  0.6425  0.1738
17715SOL    HW158981   4.596   1.583   8.852 -0.7421 -3.2635  1.5094
17715SOL    HW258982   4.523   1.577   8.720  0.9444  2.6144 -0.0060
17716SOL     OW58983   2.690   0.955   2.031  0.4034  0.0506  0.3838
17716SOL    HW158984   2.604   0.916   2.047  0.9798 -1.5688 -0.3386
17716SOL    HW258985   2.673   1.027   1.971 -0.3712 -0.7626 -0.3980
17717SOL     OW58986   5.414   3.282   5.588  0.5581 -0.1287 -0.2339
17717SOL    HW158987   5.467   3.205   5.609  2.2248  1.3804  1.5510
17717SOL    HW258988   5.376   3.309   5.671 -0.0643  0.9236 -0.8327
17718SOL     OW58989   6.956   7.843   3.787 -0.2741  0.0390  0.2586
17718SOL    HW158990   6.970   7.761   3.835 -0.0520  0.1566  0.3975
17718SOL    HW258991   6.908   7.898   3.849 -0.6067 -0.0609  0.0897
17719SOL     OW58992   1.938   5.115   4.635  0.2976  0.6287  0.4235
17719SOL    HW158993   1.998   5.189   4.648  0.5373  1.0358 -2.4366
17719SOL    HW258994   1.851   5.155   4.637  0.1435  0.3272  2.6322
17720SOL     OW58995   0.109   1.724   2.110 -0.1812  0.0231 -0.1767
17720SOL    HW158996   0.203   1.720   2.125 -0.3117 -0.6575  0.5207
17720SOL    HW258997   0.092   1.655   2.045 -0.4201 -1.0213  0.9648
17721SOL     OW58998   4.581   2.987   5.871 -0.2324 -0.0419  0.1903
17721SOL    HW158999   4.655   2.983   5.932 -0.3524  2.8573  0.6483
17721SOL    HW259000   4.504   2.973   5.925 -0.2594  1.3537  0.5514
17722SOL     OW59001   5.111   2.027   4.387  0.2636 -0.5383 -0.3214
17722SOL    HW159002   5.052   2.053   4.457  0.5568 -1.5122  0.3100
17722SOL    HW259003   5.054   1.985   4.322 -0.4833  2.9019 -2.1331
17723SOL     OW59004   7.456   0.035   8.352 -0.2425 -0.3706  0.7831
17723SOL    HW159005   7.427  -0.026   8.420  0.9482 -1.3075  0.4793
17723SOL    HW259006   7.447  -0.014   8.270  0.0018  0.1300  0.4523
17724SOL     OW59007   9.579   7.048   4.865 -0.2143 -0.3891  0.2630
17724SOL    HW159008   9.519   7.121   4.880 -0.4379 -0.0256 -2.0490
17724SOL    HW259009   9.536   6.996   4.796  0.8658 -1.6212  0.4846
17725SOL     OW59010   2.796   6.056   5.388 -0.1545 -0.1914  0.2000
17725SOL    HW159011   2.859   6.115   5.429 -1.0993  1.0178 -0.0095
17725SOL    HW259012   2.713   6.076   5.432 -0.8524 -0.0632 -1.1202
17726SOL     OW59013   8.610   7.516   4.367 -0.2941  0.4485 -0.4421
17726SOL    HW159014   8.645   7.516   4.278 -1.6122  0.0201 -0.9698
17726SOL    HW259015   8.531   7.462   4.363  0.8424 -1.5404  1.4790
17727SOL     OW59016   2.904   3.869   0.587 -0.0470 -0.1041 -0.3605
17727SOL    HW159017   2.999   3.866   0.577  0.0226  0.0900  0.1937
17727SOL    HW259018   2.870   3.846   0.501  0.4752 -2.2199 -0.0604
17728SOL     OW59019   4.023  10.479   8.028  0.1836 -0.3729 -0.3217
17728SOL    HW159020   4.035  10.386   8.045  0.0917 -0.6713 -1.8288
17728SOL    HW259021   4.045  10.491   7.936  2.4434  1.5072  0.3559
17729SOL     OW59022   4.292   9.542  10.472  0.8000  0.2407 -0.0550
17729SOL    HW159023   4.237   9.600  10.419  0.6223 -1.0448 -1.3473
17729SOL    HW259024   4.244   9.531  10.554  0.3204  1.0491 -0.2191
17730SOL     OW59025   3.606   3.994   7.391  0.3459  0.5089 -0.3023
17730SOL    HW159026   3.643   3.951   7.468 -1.0025 -0.1360  0.0078
17730SOL    HW259027   3.672   4.059   7.366  1.2077  0.1052  0.8379
17731SOL     OW59028   6.579  10.062   6.623 -0.1131  0.1666 -0.2237
17731SOL    HW159029   6.662  10.016   6.613 -0.2555 -0.4748  1.2572
17731SOL    HW259030   6.602  10.154   6.617  0.5541 -0.0269 -0.7836
17732SOL     OW59031   1.252   5.118   0.314 -0.4794  0.2637 -0.0529
17732SOL    HW159032   1.172   5.101   0.265 -0.5329 -1.7385  0.6411
17732SOL    HW259033   1.322   5.113   0.249 -0.8703  1.8204 -0.6247
17733SOL     OW59034   6.493   4.689  10.045  0.7852  0.4111 -0.3398
17733SOL    HW159035   6.531   4.753   9.985  0.6608  0.1691 -0.6773
17733SOL    HW259036   6.493   4.607   9.996  2.0230 -0.1244  0.4838
17734SOL     OW59037   3.257   7.455   6.407 -0.2445 -0.1686 -0.1602
17734SOL    HW159038   3.313   7.501   6.344  0.3419 -0.5044  0.1174
17734SOL    HW259039   3.235   7.522   6.472  0.0690 -0.1096 -0.1144
17735SOL     OW59040   9.120   8.451   9.387 -0.2317 -0.4934 -0.3892
17735SOL    HW159041   9.066   8.511   9.336 -0.4091  0.3200  0.7072
17735SOL    HW259042   9.108   8.479   9.478  1.7352 -0.5256 -0.0661
17736SOL     OW59043   0.304   5.795   1.968 -0.5256 -0.3595  0.7564
17736SOL    HW159044   0.278   5.864   2.029  1.1348  1.8764 -0.8728
17736SOL    HW259045   0.398   5.784   1.983 -0.6434 -1.8037  0.5145
17737SOL     OW59046   9.342   0.862   9.500  0.7428  0.1687 -0.0900
17737SOL    HW159047   9.349   0.794   9.433  2.6774 -0.6537  0.8619
17737SOL    HW259048   9.394   0.935   9.466 -2.0758  1.6769 -1.5406
17738SOL     OW59049   9.330   9.165   4.280 -0.2781 -0.3540  0.1976
17738SOL    HW159050   9.336   9.135   4.371 -1.8916  1.0794  0.8208
17738SOL    HW259051   9.237   9.160   4.259 -0.0742  0.4400 -0.9863
17739SOL     OW59052   1.047  10.704   5.000  0.0827 -0.5108  0.1755
17739SOL    HW159053   1.114  10.697   4.932 -1.4212 -2.4413 -1.2556
17739SOL    HW259054   1.096  10.714   5.081  2.3841 -4.6307 -0.4085
17740SOL     OW59055   7.767   6.093   9.310 -0.1152  0.2892  0.2792
17740SOL    HW159056   7.769   6.123   9.219  0.2302  1.1294  0.5555
17740SOL    HW259057   7.786   6.000   9.305 -1.3842  0.0522 -0.6231
17741SOL     OW59058   3.788  10.192  10.705  0.6286  0.1234 -0.5304
17741SOL    HW159059   3.778  10.237  10.788  3.9099 -0.2767  0.2255
17741SOL    HW259060   3.847  10.248  10.654 -0.6694 -0.0319 -2.3355
17742SOL     OW59061   0.645   7.802   8.991  0.3603 -0.7569  0.6682
17742SOL    HW159062   0.718   7.846   9.035  0.6677 -1.8512  1.2901
17742SOL    HW259063   0.679   7.715   8.970  0.1607 -0.3503 -1.5979
17743SOL     OW59064   0.309   3.963   9.978 -0.1543  0.4971 -0.4701
17743SOL    HW159065   0.342   4.031   9.919  1.8821  1.6527  1.8262
17743SOL    HW259066   0.388   3.928  10.021 -1.1447 -3.1450 -1.2684
17744SOL     OW59067   6.550   1.057   7.237  0.4771 -0.0160  0.1107
17744SOL    HW159068   6.547   1.133   7.180  0.3131  0.7049  1.0604
17744SOL    HW259069   6.464   1.054   7.279 -0.1054 -1.6614 -1.0824
17745SOL     OW59070   3.683   6.070   4.509  0.3338  0.7680  0.4267
17745SOL    HW159071   3.724   6.140   4.458 -1.0215  0.7278 -0.7519
17745SOL    HW259072   3.591   6.093   4.513  0.2625  0.3376  2.2059
17746SOL     OW59073   5.159   9.807   9.343 -0.5175 -0.1609 -0.5568
17746SOL    HW159074   5.203   9.857   9.412  1.7161 -0.9163 -1.3278
17746SOL    HW259075   5.111   9.739   9.389 -0.9265  0.7086  0.3360
17747SOL     OW59076   9.532   7.234   3.324  0.1274 -0.4679 -0.4641
17747SOL    HW159077   9.599   7.229   3.256 -1.0498  1.9430 -1.9718
17747SOL    HW259078   9.549   7.318   3.368 -1.6497  0.0191 -0.6387
17748SOL     OW59079   7.284   4.214   0.134  0.1152  0.5194  0.4885
17748SOL    HW159080   7.329   4.151   0.190 -0.7820 -0.3347  0.2713
17748SOL    HW259081   7.349   4.283   0.119  0.8283  0.0781  1.4308
17749SOL     OW59082   6.058   4.062   7.650  0.4122  0.6880 -0.4534
17749SOL    HW159083   6.149   4.041   7.631  0.2818  0.0210 -0.3657
17749SOL    HW259084   6.014   3.977   7.655  0.0367  0.9395  0.8157
17750SOL     OW59085  10.759   0.627   4.391 -0.4155 -0.1299  0.2053
17750SOL    HW159086  10.716   0.622   4.305  0.3242  0.6929 -0.2174
17750SOL    HW259087  10.708   0.567   4.446 -0.4313 -1.2799 -0.9998
17751SOL     OW59088   2.127   5.103   9.217  0.0962 -0.0935  0.3940
17751SOL    HW159089   2.172   5.102   9.132 -0.1554 -1.5298  0.2476
17751SOL    HW259090   2.186   5.056   9.276  0.1705  0.7053  0.9705
17752SOL     OW59091   2.973   4.675  10.531  0.1338 -0.2716 -0.5082
17752SOL    HW159092   3.043   4.615  10.556  1.2842  0.4459 -1.8596
17752SOL    HW259093   2.938   4.706  10.615  1.7956 -0.2440  0.2207
17753SOL     OW59094   5.456   3.316  10.584 -0.3564  0.4264 -0.4512
17753SOL    HW159095   5.533   3.321  10.528  0.8003  0.6529  1.1121
17753SOL    HW259096   5.454   3.401  10.629  0.6633 -0.8808  2.2444
17754SOL     OW59097  10.824   9.625   2.004 -0.3545  0.5442 -0.1504
17754SOL    HW159098  10.751   9.565   1.989  0.2813 -0.2745 -0.0343
17754SOL    HW259099  10.791   9.710   1.976 -1.6264  0.3360  0.6270
17755SOL     OW59100   0.067   3.701   8.398 -0.1141 -0.4720  0.3850
17755SOL    HW159101   0.016   3.768   8.353  1.4880  0.6865  0.2092
17755SOL    HW259102   0.133   3.674   8.334  0.5134 -0.7475  1.1326
17756SOL     OW59103   1.614   2.513   0.587 -0.3483  0.6036 -0.4173
17756SOL    HW159104   1.555   2.451   0.544  0.5612  1.0031 -2.2964
17756SOL    HW259105   1.580   2.519   0.677 -1.3742 -1.4198 -0.6135
17757SOL     OW59106  10.329   8.217   4.740 -0.7731  0.0053  0.5208
17757SOL    HW159107  10.294   8.203   4.828 -1.0770  0.0719  0.4101
17757SOL    HW259108  10.298   8.141   4.690 -0.8697  0.1288  0.3912
17758SOL     OW59109   4.819   6.034   4.440 -0.1258 -0.2625 -0.1269
17758SOL    HW159110   4.869   5.963   4.400  3.0810  2.4148 -1.2931
17758SOL    HW259111   4.850   6.038   4.531  0.8980  0.5602 -0.4911
17759SOL     OW59112   8.163   1.771   9.029  0.0265  0.0178  0.3260
17759SOL    HW159113   8.172   1.864   9.051  1.2996 -0.0606  0.2473
17759SOL    HW259114   8.177   1.767   8.935  0.8021 -0.3243  0.4405
17760SOL     OW59115   5.836   1.527   2.555  0.2013  0.1440 -0.1677
17760SOL    HW159116   5.825   1.557   2.646 -1.0729  1.9103 -0.8481
17760SOL    HW259117   5.907   1.463   2.560 -0.4951 -0.5637  2.2321
17761SOL     OW59118   4.399   2.972   2.554 -0.7881  0.0077  0.6411
17761SOL    HW159119   4.429   2.904   2.614 -1.9609  0.1424  1.4222
17761SOL    HW259120   4.407   3.054   2.604 -0.8451  0.2442  0.2665
17762SOL     OW59121   8.387   1.976   5.789  0.1237  0.7159  0.2101
17762SOL    HW159122   8.321   2.044   5.802 -0.1619  0.5080 -0.1370
17762SOL    HW259123   8.371   1.943   5.700  0.1377  0.0671  0.4424
17763SOL     OW59124   9.766   1.768  10.255 -0.0786  0.3396  0.6282
17763SOL    HW159125   9.828   1.826  10.212 -0.0617  0.2178  0.4859
17763SOL    HW259126   9.681   1.809  10.243 -0.9032 -2.0662 -3.9902
17764SOL     OW59127   6.815   4.326   4.741 -0.6704 -0.7939  0.7527
17764SOL    HW159128   6.861   4.393   4.792  1.4507  0.2654 -2.2592
17764SOL    HW259129   6.749   4.376   4.692 -0.0320 -1.0686 -0.4309
17765SOL     OW59130   6.945   2.238   8.179  0.0468  0.2152  0.1632
17765SOL    HW159131   7.024   2.186   8.169 -1.2811 -1.6057 -1.5837
17765SOL    HW259132   6.883   2.180   8.224 -0.6985  1.1572  0.3842
17766SOL     OW59133   6.748   6.009   5.267 -0.3421 -0.6133 -0.2064
17766SOL    HW159134   6.811   5.964   5.324  2.6066  0.7364 -2.1523
17766SOL    HW259135   6.728   6.090   5.315  0.1217 -0.6347  0.0344
17767SOL     OW59136  10.788   0.430   8.590 -0.7058 -0.1588  0.0933
17767SOL    HW159137  10.707   0.432   8.539  0.2536 -0.9543 -1.5345
17767SOL    HW259138  10.825   0.343   8.575  1.5090  0.8738 -0.9693
17768SOL     OW59139   4.847   7.251   4.968  0.7813 -0.0992 -0.1210
17768SOL    HW159140   4.826   7.338   4.933  0.3636 -0.3462 -0.4932
17768SOL    HW259141   4.780   7.235   5.035 -0.3001 -0.8978 -1.3275
17769SOL     OW59142   7.593   4.445   6.591 -0.7397 -0.3741 -0.0177
17769SOL    HW159143   7.590   4.520   6.531 -0.4958 -0.1539  0.2416
17769SOL    HW259144   7.517   4.392   6.567 -0.5058 -0.4155 -0.6846
17770SOL     OW59145   0.328   7.466   3.241  0.1029  0.4553  0.1202
17770SOL    HW159146   0.403   7.439   3.188 -0.9472  0.6755 -1.5441
17770SOL    HW259147   0.278   7.525   3.184 -1.8240 -0.3972  0.8421
17771SOL     OW59148   3.766   3.659   6.515 -0.3243  0.1843  0.1381
17771SOL    HW159149   3.856   3.675   6.544 -1.3691  2.3954  2.5538
17771SOL    HW259150   3.733   3.745   6.489 -1.9932 -0.4326  0.0915
17772SOL     OW59151   4.692   6.688   6.028 -0.0286  0.1881  0.2128
17772SOL    HW159152   4.681   6.765   6.085 -3.1571 -0.7969  1.1550
17772SOL    HW259153   4.763   6.638   6.068  0.4490  1.4058  0.9553
17773SOL     OW59154   0.131   8.938   8.182 -0.1456  0.2046 -0.0607
17773SOL    HW159155   0.166   9.011   8.232  1.4760 -0.3746 -0.2802
17773SOL    HW259156   0.082   8.886   8.245 -2.7660  2.2729 -0.2119
17774SOL     OW59157   4.998   9.852   8.183  0.1164 -0.1719 -0.2520
17774SOL    HW159158   4.963   9.773   8.223  1.0771 -1.0618 -1.1107
17774SOL    HW259159   4.957   9.855   8.096 -0.4147  0.6487  0.0089
17775SOL     OW59160   3.797   2.167  10.853 -0.4233 -0.5152  0.4062
17775SOL    HW159161   3.771   2.202  10.938 -1.1391  1.2439 -0.4799
17775SOL    HW259162   3.864   2.228  10.821  1.0282 -2.0538  0.3692
17776SOL     OW59163   1.635   8.467   0.048  0.1740  0.1896  0.1045
17776SOL    HW159164   1.726   8.473   0.019  0.9669  0.3656  2.4328
17776SOL    HW259165   1.606   8.381   0.018  1.4683 -0.3197  0.2459
17777SOL     OW59166   1.276   5.779   3.976  0.1258  0.2593 -0.5673
17777SOL    HW159167   1.363   5.814   3.958  0.5220  1.4164  2.8700
17777SOL    HW259168   1.293   5.703   4.032 -1.0473  0.9439  0.7636
17778SOL     OW59169   8.621   3.262  10.708  0.1332  0.0186  0.4116
17778SOL    HW159170   8.613   3.173  10.742  3.3212 -0.7625 -0.5801
17778SOL    HW259171   8.570   3.262  10.627 -0.1477 -0.7877  0.5812
17779SOL     OW59172   1.440   5.710   3.470 -0.0038 -0.0768  0.4007
17779SOL    HW159173   1.463   5.774   3.538  2.0149  2.2778 -2.2667
17779SOL    HW259174   1.523   5.668   3.448 -1.0707 -2.7287  1.0957
17780SOL     OW59175   4.771   3.677   3.216 -0.3790 -0.2743 -0.0359
17780SOL    HW159176   4.798   3.697   3.126 -3.6047 -0.9868 -1.3097
17780SOL    HW259177   4.747   3.585   3.213 -0.0156 -0.4458  1.7346
17781SOL     OW59178   1.363   8.277  10.705 -0.0028  0.8739  0.1206
17781SOL    HW159179   1.326   8.329  10.634  0.6928 -1.1776 -1.8893
17781SOL    HW259180   1.288   8.243  10.752 -0.5790  0.6037 -0.9535
17782SOL     OW59181   7.164   1.733   8.782 -0.1291 -0.2184  0.1912
17782SOL    HW159182   7.119   1.807   8.740 -0.5073 -0.9281 -0.7084
17782SOL    HW259183   7.093   1.675   8.809  0.1981 -1.1207 -0.8025
17783SOL     OW59184   8.092   5.388   9.338  0.2749 -0.0099 -0.2193
17783SOL    HW159185   8.027   5.322   9.362 -1.3447  1.4572 -0.4611
17783SOL    HW259186   8.149   5.342   9.276 -1.6774 -0.7931 -1.5220
17784SOL     OW59187  10.166   9.167   6.131  0.4449 -0.3143 -0.4112
17784SOL    HW159188  10.178   9.166   6.036  1.3006 -0.0583 -0.3127
17784SOL    HW259189  10.249   9.202   6.165 -0.8015  2.2328  0.2797
17785SOL     OW59190   4.475   1.161   0.107 -0.4659  0.0504  0.6208
17785SOL    HW159191   4.452   1.230   0.045  0.0616 -0.1398  0.2013
17785SOL    HW259192   4.555   1.193   0.149 -0.2824 -0.2508  0.5062
17786SOL     OW59193  10.408   7.205   5.074 -0.3552 -0.6842 -0.0045
17786SOL    HW159194  10.377   7.227   4.987 -1.2820 -0.1167  0.4496
17786SOL    HW259195  10.329   7.206   5.129 -0.1240 -3.0019  0.4830
17787SOL     OW59196   2.999   6.355   9.586  0.1094  0.0084  0.7345
17787SOL    HW159197   2.964   6.266   9.574 -0.9377  0.5416 -0.4424
17787SOL    HW259198   2.930   6.412   9.552  0.8798  1.2673  1.2300
17788SOL     OW59199   7.969   5.607   9.665  0.0214 -0.0500  0.1628
17788SOL    HW159200   7.989   5.633   9.755  1.5526 -0.2056 -0.0957
17788SOL    HW259201   7.938   5.517   9.672 -1.1567  0.3810  0.6506
17789SOL     OW59202   2.275   2.131  10.131 -0.1792  0.4268 -0.0678
17789SOL    HW159203   2.277   2.058  10.193 -3.1006  1.5333  1.5484
17789SOL    HW259204   2.289   2.091  10.046  1.6552 -1.4940  1.0360
17790SOL     OW59205   1.910   6.409   0.320  0.6323  0.4487 -0.6630
17790SOL    HW159206   1.865   6.472   0.263 -3.1482 -2.7129 -1.5995
17790SOL    HW259207   1.854   6.401   0.397  0.1848 -2.5686 -1.1701
17791SOL     OW59208   7.664   7.368   6.805 -0.2369  0.0530 -0.4176
17791SOL    HW159209   7.682   7.353   6.898 -0.3446 -1.1092 -0.5728
17791SOL    HW259210   7.692   7.288   6.762 -0.4172  0.4889 -1.3613
17792SOL     OW59211   8.102   7.292   8.257  0.5100 -0.6514 -0.2615
17792SOL    HW159212   8.186   7.253   8.232 -0.2171 -1.9657 -0.7499
17792SOL    HW259213   8.071   7.237   8.329 -0.5084 -0.9535 -0.9109
17793SOL     OW59214   0.305   7.267  10.203 -0.6612  0.0054 -0.1135
17793SOL    HW159215   0.301   7.197  10.138 -2.1276  2.4811 -2.9643
17793SOL    HW259216   0.221   7.262  10.249 -1.4049  0.6975 -1.3384
17794SOL     OW59217   5.849   6.239   4.492 -0.3166 -0.2491 -0.3865
17794SOL    HW159218   5.849   6.256   4.398  0.0463  0.3763 -0.2828
17794SOL    HW259219   5.935   6.270   4.522 -0.9757  0.9210  0.3737
17795SOL     OW59220   0.183   7.584   8.741 -0.0828 -0.3561 -0.0011
17795SOL    HW159221   0.118   7.621   8.681 -0.9098  0.5875  1.4223
17795SOL    HW259222   0.219   7.659   8.787 -0.6005 -1.1610  1.7895
17796SOL     OW59223   5.248   8.944   7.818  0.2893 -0.0735 -0.7687
17796SOL    HW159224   5.192   9.014   7.851  0.4041  0.9408 -2.5582
17796SOL    HW259225   5.329   8.989   7.791  0.1915 -0.8057 -2.3721
17797SOL     OW59226   7.676   0.139   3.935  0.1278 -0.6918 -0.1906
17797SOL    HW159227   7.691   0.123   4.028 -0.6232 -0.0596  0.0507
17797SOL    HW259228   7.587   0.107   3.919  0.4003 -1.1604 -0.7813
17798SOL     OW59229   0.235  10.753   3.606 -0.3563 -0.0251 -0.2411
17798SOL    HW159230   0.249  10.659   3.593 -0.3785  0.1084 -1.3668
17798SOL    HW259231   0.147  10.760   3.643 -0.6109 -0.4211 -0.7613
17799SOL     OW59232   4.615   6.959   9.554 -0.0939 -0.2836  0.0929
17799SOL    HW159233   4.707   6.946   9.580 -0.1405 -0.1156  0.3520
17799SOL    HW259234   4.590   7.040   9.599 -0.4302 -0.4371  0.1795
17800SOL     OW59235   7.574   9.317   8.056 -0.5045 -0.2818  0.2434
17800SOL    HW159236   7.546   9.407   8.071 -1.0838 -0.6272  1.3888
17800SOL    HW259237   7.647   9.324   7.995 -0.6813  0.9427  0.1507
17801SOL     OW59238   5.847   4.420   1.895 -0.4817 -0.4703 -0.3248
17801SOL    HW159239   5.870   4.459   1.810 -2.6923  0.0711 -0.7451
17801SOL    HW259240   5.781   4.479   1.931  0.4695 -0.6568  1.8464
17802SOL     OW59241   1.672  10.720   0.501  0.3192 -0.3560  0.1275
17802SOL    HW159242   1.659  10.625   0.490 -0.5068 -0.2947  0.4926
17802SOL    HW259243   1.684  10.753   0.412  0.4693 -0.7899 -0.0152
17803SOL     OW59244   1.656   6.343   7.692  0.0501 -0.2223  0.1917
17803SOL    HW159245   1.660   6.433   7.659  1.8057 -0.2229  0.2716
17803SOL    HW259246   1.586   6.344   7.757  0.9041  1.4421  1.1469
17804SOL     OW59247   3.070   8.631   5.421  0.0449 -0.2225 -0.1054
17804SOL    HW159248   3.022   8.641   5.503  0.0952 -0.6241 -0.0280
17804SOL    HW259249   3.085   8.721   5.391  2.2018  0.0231  1.5735
17805SOL     OW59250  10.290   8.463   4.238  0.0363 -0.4336 -0.2147
17805SOL    HW159251  10.366   8.471   4.296 -0.2055  1.1020 -0.0612
17805SOL    HW259252  10.215   8.457   4.298  0.0956 -3.7159 -0.3212
17806SOL     OW59253   7.661   7.486  10.832  0.1348 -0.2401 -1.1194
17806SOL    HW159254   7.594   7.419  10.816  0.0575 -0.1061 -1.3667
17806SOL    HW259255   7.628   7.563  10.786  0.1297  0.0248 -0.6748
17807SOL     OW59256   8.391   3.914   2.061  0.6893  0.1402 -0.0424
17807SOL    HW159257   8.361   3.968   2.134  0.5909 -0.1623  0.1455
17807SOL    HW259258   8.389   3.972   1.985  1.9056  0.7783  0.4009
17808SOL     OW59259   0.565   5.375   7.026  0.1890  0.0195  0.3805
17808SOL    HW159260   0.563   5.315   6.951  0.3418 -1.6930  1.6819
17808SOL    HW259261   0.478   5.416   7.027  0.1613  0.0026 -0.6610
17809SOL     OW59262   7.839   6.439   6.870  0.3529 -0.0602  0.0304
17809SOL    HW159263   7.898   6.408   6.939  0.5051 -0.0529 -0.0943
17809SOL    HW259264   7.754   6.446   6.913  0.7030  1.1965  0.5642
17810SOL     OW59265   7.655   5.036   5.016  0.6272 -0.3216  0.5150
17810SOL    HW159266   7.707   5.112   4.990  1.1679 -0.4919  1.0589
17810SOL    HW259267   7.706   4.961   4.986  0.8603 -0.4991  1.3164
17811SOL     OW59268   0.152   4.388   0.689  0.2725  0.1329 -0.3548
17811SOL    HW159269   0.217   4.347   0.746  0.6743 -0.0285 -0.9068
17811SOL    HW259270   0.087   4.319   0.673 -0.3333  0.4559  0.6231
17812SOL     OW59271   6.624   6.600   2.052 -0.1100 -0.1074 -0.6798
17812SOL    HW159272   6.710   6.573   2.020 -0.1629 -1.6857  0.3715
17812SOL    HW259273   6.637   6.690   2.083  1.3712 -0.5699  0.1398
17813SOL     OW59274   2.993   6.063   6.129  0.5804  0.1411 -0.3530
17813SOL    HW159275   3.021   6.009   6.055 -1.0080 -3.4527  1.4352
17813SOL    HW259276   2.908   6.028   6.153  1.0275  1.1521  3.2030
17814SOL     OW59277   7.686   5.753   2.716 -0.1986  0.0077  0.5304
17814SOL    HW159278   7.693   5.663   2.749  1.5738  0.9203  2.8929
17814SOL    HW259279   7.650   5.803   2.789  1.3039  1.6707  0.1946
17815SOL     OW59280  10.716   5.165  10.689 -0.2758  0.0081  0.3053
17815SOL    HW159281  10.782   5.134  10.751 -0.1557 -0.2789  0.0342
17815SOL    HW259282  10.698   5.255  10.716 -1.4638 -0.6300  1.8073
17816SOL     OW59283   0.033   1.550  10.765  0.2787  0.6219 -0.1910
17816SOL    HW159284   0.058   1.466  10.728  1.7387  0.8723  0.1489
17816SOL    HW259285   0.050   1.613  10.695  2.2330  0.9894  0.5419
17817SOL     OW59286   7.290   2.728   7.820  0.3074 -0.8253  0.0630
17817SOL    HW159287   7.250   2.805   7.779  1.2755 -1.4237 -2.2104
17817SOL    HW259288   7.225   2.696   7.882  0.8762  3.2896  3.2075
17818SOL     OW59289   9.774   1.965   1.773  0.0039 -0.2487  0.1587
17818SOL    HW159290   9.827   2.032   1.817  0.6629  0.1185 -1.1682
17818SOL    HW259291   9.691   2.009   1.754 -1.0279 -0.9518  2.6322
17819SOL     OW59292   7.093   4.156   1.475 -1.6569 -0.3013  0.2142
17819SOL    HW159293   7.160   4.170   1.543 -0.4606 -0.5208 -0.8887
17819SOL    HW259294   7.022   4.216   1.499 -0.9707  0.1098  1.2896
17820SOL     OW59295   5.851   4.225   6.646  0.2755  0.3957 -0.7852
17820SOL    HW159296   5.831   4.230   6.553 -0.1306 -1.4633 -0.8428
17820SOL    HW259297   5.936   4.269   6.655 -0.0948  1.3689 -1.8573
17821SOL     OW59298   8.121   8.385   0.623 -0.1248  0.4016  0.5789
17821SOL    HW159299   8.214   8.402   0.638 -0.2552  0.4860  1.3301
17821SOL    HW259300   8.076   8.461   0.661 -0.4479  1.1543 -1.1653
17822SOL     OW59301   8.573   1.076   9.097 -0.2907  0.1323  0.1852
17822SOL    HW159302   8.552   1.117   9.180 -4.2704  1.4518 -1.2339
17822SOL    HW259303   8.499   1.016   9.080 -1.2360  2.0389 -3.5461
17823SOL     OW59304   1.396  10.128   3.331  0.0067  0.1792  0.5362
17823SOL    HW159305   1.462  10.163   3.391  0.6332  1.9050 -1.0976
17823SOL    HW259306   1.320  10.112   3.387  0.3125  2.4317  1.6989
17824SOL     OW59307   6.316   2.910   1.433 -0.2830  0.6562 -0.0379
17824SOL    HW159308   6.345   2.838   1.490  0.5354  0.6332 -0.4749
17824SOL    HW259309   6.221   2.899   1.428 -0.1291 -0.7336 -0.5205
17825SOL     OW59310   2.885   9.231   6.960  0.3571 -0.5670 -0.3382
17825SOL    HW159311   2.805   9.182   6.979  0.6831 -0.4420  1.6716
17825SOL    HW259312   2.856   9.320   6.942 -0.0963 -1.0332 -2.0639
17826SOL     OW59313   6.602   7.948   5.384  0.1309 -0.1972  0.0115
17826SOL    HW159314   6.658   7.872   5.398  0.4931  0.1651  0.6055
17826SOL    HW259315   6.661   8.017   5.354  0.0550  0.2454  0.8360
17827SOL     OW59316   9.055   2.501   1.235  0.0860  0.4108 -0.4385
17827SOL    HW159317   8.974   2.526   1.192  0.1122  2.6270  0.6462
17827SOL    HW259318   9.043   2.528   1.326  1.0946 -1.5555  0.3372
17828SOL     OW59319   3.511   8.227   6.593 -0.4035  0.1058 -0.7025
17828SOL    HW159320   3.549   8.149   6.554 -0.8595  0.4251 -1.8146
17828SOL    HW259321   3.553   8.234   6.679  1.3610 -0.0498 -1.5226
17829SOL     OW59322   2.898   1.602   5.815 -0.2608  0.0202 -0.0687
17829SOL    HW159323   2.971   1.542   5.830  0.2812  0.5675 -0.5208
17829SOL    HW259324   2.863   1.577   5.730 -1.1268 -0.7740  0.4979
17830SOL     OW59325   6.122   4.522   6.181 -0.7110  0.6116 -0.3230
17830SOL    HW159326   6.158   4.583   6.117  0.3294  1.7888  1.3242
17830SOL    HW259327   6.048   4.481   6.135  1.2030 -0.1383 -2.9878
17831SOL     OW59328   9.657  10.670   4.018  0.1052 -0.0391  0.0233
17831SOL    HW159329   9.581  10.716   3.982  0.5331 -0.9607 -2.2042
17831SOL    HW259330   9.619  10.605   4.078 -0.9003 -0.4901 -1.0569
17832SOL     OW59331  10.443   1.830   3.081 -0.7006  0.4897 -0.2527
17832SOL    HW159332  10.463   1.768   3.011 -1.1032 -1.9251  1.6482
17832SOL    HW259333  10.358   1.866   3.057 -0.9290 -0.4381 -0.8804
17833SOL     OW59334  10.511   7.717   2.095  0.1526 -0.5455 -0.5823
17833SOL    HW159335  10.501   7.686   2.005  0.4843  0.5267 -1.0013
17833SOL    HW259336  10.585   7.777   2.092  1.0616 -1.5622  0.6989
17834SOL     OW59337   2.577   1.218   7.117 -0.2041  0.2297 -0.2008
17834SOL    HW159338   2.547   1.307   7.104 -0.2195  0.0712 -1.3738
17834SOL    HW259339   2.652   1.209   7.059  1.5230  0.2860  1.8750
17835SOL     OW59340   1.371   5.613   9.219  0.2640  0.3187  0.0117
17835SOL    HW159341   1.294   5.669   9.210  1.2651  1.6738 -0.3984
17835SOL    HW259342   1.342   5.527   9.186 -1.1157  0.7391  0.0660
17836SOL     OW59343   2.900   5.377   6.132  0.1752  0.3959 -0.4159
17836SOL    HW159344   2.958   5.416   6.198 -0.6182 -0.3422  0.7586
17836SOL    HW259345   2.934   5.289   6.119 -0.0290  0.3390 -0.5570
17837SOL     OW59346   4.665   4.461   2.684 -0.5650  0.2881  0.2110
17837SOL    HW159347   4.697   4.551   2.686 -0.4209  0.2332  0.5448
17837SOL    HW259348   4.708   4.420   2.609  1.4787 -0.2627  1.5780
17838SOL     OW59349   1.474   9.276   2.002  0.1438  0.3927 -0.0040
17838SOL    HW159350   1.480   9.370   2.015  0.5156  0.1833  1.5579
17838SOL    HW259351   1.448   9.242   2.088 -0.8519 -0.8489 -0.7659
17839SOL     OW59352   7.921   1.497  10.465  0.1131  0.3500  0.0049
17839SOL    HW159353   7.997   1.442  10.448  0.0960  0.2609  0.2031
17839SOL    HW259354   7.900   1.538  10.381  0.1875  0.1290 -0.1214
17840SOL     OW59355   5.293   9.253   4.202 -0.2637 -0.0078 -0.1391
17840SOL    HW159356   5.201   9.278   4.209 -0.2156  0.1566 -0.0918
17840SOL    HW259357   5.302   9.220   4.112 -0.2857  0.3146 -0.2603
17841SOL     OW59358   9.543   8.179   2.061  0.3698 -0.0102  0.6923
17841SOL    HW159359   9.503   8.193   1.974 -0.7018 -0.9051  1.0189
17841SOL    HW259360   9.469   8.180   2.121  1.1370  0.8667  1.6501
17842SOL     OW59361   4.910   6.247   9.997 -0.1015  0.1695 -0.1797
17842SOL    HW159362   4.882   6.234   9.907  0.8669  0.9971 -0.6210
17842SOL    HW259363   4.831   6.276  10.043 -0.5577 -0.0681 -0.8031
17843SOL     OW59364   5.004   8.044   6.606 -0.1404 -0.1159  0.0395
17843SOL    HW159365   5.002   7.961   6.654 -0.8718 -0.8965 -1.2747
17843SOL    HW259366   5.010   8.111   6.674  2.7053 -1.2827  1.0762
17844SOL     OW59367   9.536   2.182   6.377  0.3192 -0.1881  0.3492
17844SOL    HW159368   9.586   2.224   6.307 -0.6296 -0.1483 -0.3268
17844SOL    HW259369   9.574   2.095   6.385  1.3107  0.2602  0.7264
17845SOL     OW59370   3.540   3.846  10.705  0.0730 -0.4011  0.1967
17845SOL    HW159371   3.627   3.842  10.746  0.0811  2.3419  0.6856
17845SOL    HW259372   3.558   3.863  10.613  0.0636 -0.9090  0.1033
17846SOL     OW59373   9.486   7.810   4.202 -0.1852 -0.6367 -0.1059
17846SOL    HW159374   9.498   7.812   4.108  0.2005 -4.1302 -0.2644
17846SOL    HW259375   9.396   7.842   4.216  0.3338  1.5597 -1.3934
17847SOL     OW59376   0.501   8.555   5.652  0.1775  0.0108  0.1045
17847SOL    HW159377   0.431   8.569   5.716  0.6233  0.7215  0.4449
17847SOL    HW259378   0.455   8.533   5.571 -0.5262  1.7750 -0.0237
17848SOL     OW59379   3.193   6.278   4.906  0.1985 -0.2135  0.4463
17848SOL    HW159380   3.149   6.298   4.988 -1.0401 -1.6214  0.1618
17848SOL    HW259381   3.259   6.347   4.897  0.7794 -0.3758  2.8978
17849SOL     OW59382   6.881   6.967   0.742  0.1474 -0.0704  0.1752
17849SOL    HW159383   6.960   7.021   0.728 -0.4285  1.0389  1.0922
17849SOL    HW259384   6.903   6.912   0.817  0.5102 -0.7069 -0.3826
17850SOL     OW59385   9.515   4.645   8.854  0.3382  0.0994  0.3799
17850SOL    HW159386   9.536   4.629   8.946  2.6719 -0.6220 -0.2145
17850SOL    HW259387   9.536   4.737   8.840  0.3807  0.1064  0.4843
17851SOL     OW59388   1.432   7.114   5.528 -0.9090 -0.3356 -0.0277
17851SOL    HW159389   1.507   7.054   5.521 -1.1381 -0.7167  0.6780
17851SOL    HW259390   1.452   7.168   5.604 -0.7153  0.4890 -0.6519
17852SOL     OW59391   1.766   3.448   0.202  0.1856 -0.2472  0.0805
17852SOL    HW159392   1.730   3.378   0.256 -1.1137 -0.5471 -1.1221
17852SOL    HW259393   1.748   3.421   0.112  1.2058  0.8205 -0.4846
17853SOL     OW59394   1.517   9.796   0.699  0.4369 -0.5511  0.5597
17853SOL    HW159395   1.562   9.718   0.665 -1.1732 -1.5916  0.7351
17853SOL    HW259396   1.505   9.851   0.621 -0.6914 -1.6519 -0.0856
17854SOL     OW59397   9.596  10.347  10.305 -0.7674  0.4758  0.1224
17854SOL    HW159398   9.563  10.294  10.232 -0.9026  0.1716  0.4029
17854SOL    HW259399   9.643  10.286  10.361  0.2828  0.9085 -0.2638
17855SOL     OW59400  10.199   2.818   9.740  0.6239 -0.4867  0.3134
17855SOL    HW159401  10.122   2.836   9.794  1.1548 -1.0033  1.2630
17855SOL    HW259402  10.207   2.723   9.740  0.3457 -0.5303 -1.1084
17856SOL     OW59403   8.333   6.724   1.641  0.4677  0.3969 -0.5345
17856SOL    HW159404   8.313   6.793   1.578 -1.3925 -0.5661 -1.0684
17856SOL    HW259405   8.424   6.701   1.623  0.1258  0.4654 -2.6021
17857SOL     OW59406   1.974   8.690   1.184 -0.3472  0.0988 -0.4033
17857SOL    HW159407   1.954   8.756   1.250 -2.1084  0.4509 -1.2141
17857SOL    HW259408   1.894   8.685   1.131  0.2244 -1.7461 -1.1628
17858SOL     OW59409   8.863   5.951   3.313 -0.0228  0.2895 -0.9462
17858SOL    HW159410   8.955   5.927   3.309  0.0726  0.7016 -1.3758
17858SOL    HW259411   8.861   6.028   3.371 -0.2433 -0.3498 -0.0772
17859SOL     OW59412   9.777   5.929   1.425 -0.4064  0.3099 -0.2468
17859SOL    HW159413   9.833   5.890   1.492 -0.7502 -2.2408 -1.3032
17859SOL    HW259414   9.839   5.960   1.358 -0.1473 -0.1589 -0.2347
17860SOL     OW59415  10.149   7.682   7.763 -0.2315  0.4482 -0.6925
17860SOL    HW159416  10.226   7.705   7.814 -0.2249  0.2846 -0.6255
17860SOL    HW259417  10.128   7.593   7.792  0.0531  0.1751 -1.3133
17861SOL     OW59418   1.881   8.693   5.311  0.4006  0.0274  0.0359
17861SOL    HW159419   1.836   8.630   5.367  0.3370  0.3691  0.3723
17861SOL    HW259420   1.906   8.643   5.234  0.4370 -0.4359  0.3431
17862SOL     OW59421   3.153   6.872   1.672 -0.4706 -0.2583 -0.1990
17862SOL    HW159422   3.064   6.864   1.706 -0.6086 -1.1246 -0.7230
17862SOL    HW259423   3.184   6.956   1.705 -1.7583  0.4290 -0.6461
17863SOL     OW59424   2.676   9.032   5.934  0.0332 -0.0414 -0.4136
17863SOL    HW159425   2.602   9.049   5.875 -1.4933  1.8121  1.8788
17863SOL    HW259426   2.738   9.102   5.915 -1.5510  2.0908  1.7034
17864SOL     OW59427   7.578   3.474   9.887 -0.2055 -0.6170 -0.1407
17864SOL    HW159428   7.524   3.397   9.869  0.1777 -0.9066 -0.0700
17864SOL    HW259429   7.538   3.544   9.835 -2.3359 -0.1008  2.0513
17865SOL     OW59430   9.550   4.234   7.252 -0.1997 -0.1586 -0.2995
17865SOL    HW159431   9.541   4.313   7.199  0.1218  0.2797  0.2761
17865SOL    HW259432   9.601   4.174   7.198 -0.4025  0.0472 -0.7221
17866SOL     OW59433   4.642   8.523   7.674 -0.3472 -0.0053  0.1895
17866SOL    HW159434   4.562   8.546   7.722 -0.3196  0.2574  0.1103
17866SOL    HW259435   4.711   8.522   7.741 -0.7635 -2.4071  0.6961
17867SOL     OW59436   5.494   0.754   1.859  0.0128  0.1773 -0.1714
17867SOL    HW159437   5.442   0.795   1.928  0.7394  1.8910 -0.5875
17867SOL    HW259438   5.583   0.788   1.872  0.5185 -0.7789 -0.9396
17868SOL     OW59439   4.789   0.057   7.610  0.9490 -0.4120 -0.6699
17868SOL    HW159440   4.700   0.054   7.645  0.2676 -0.4969 -2.3189
17868SOL    HW259441   4.817  -0.034   7.608 -0.0681 -0.7245 -2.8404
17869SOL     OW59442   9.095   5.603   0.639 -0.0906 -0.1696  0.7174
17869SOL    HW159443   9.123   5.651   0.717 -0.6777  2.4279 -0.5726
17869SOL    HW259444   9.175   5.595   0.585  0.1047 -1.1236  1.1187
17870SOL     OW59445   7.591   8.222   5.240 -0.1179  0.0670 -0.6324
17870SOL    HW159446   7.526   8.289   5.223  0.4974  0.1444 -3.0415
17870SOL    HW259447   7.575   8.195   5.330 -3.7659 -0.2301 -1.2121
17871SOL     OW59448   8.370   2.613   9.562  0.5108  0.7950 -0.2235
17871SOL    HW159449   8.459   2.586   9.583 -0.4537 -1.1842  1.7209
17871SOL    HW259450   8.356   2.694   9.611  0.2509 -0.6124  2.1427
17872SOL     OW59451   4.597   1.397   4.489  0.3419 -0.0127 -0.1615
17872SOL    HW159452   4.691   1.404   4.469  0.0532  1.2463 -1.2666
17872SOL    HW259453   4.556   1.378   4.405 -0.4394 -0.1095  0.2327
17873SOL     OW59454   1.794  10.133   7.681 -0.0294 -0.3470  0.0314
17873SOL    HW159455   1.875  10.177   7.706 -1.5671  1.8405  1.5652
17873SOL    HW259456   1.791  10.141   7.585  1.8686 -1.1263 -0.1317
17874SOL     OW59457   4.988   4.771   8.629  0.0962 -0.2341 -0.4305
17874SOL    HW159458   5.061   4.709   8.624  0.5698  0.0638  1.6308
17874SOL    HW259459   4.980   4.807   8.540  2.3280 -0.4402 -0.7687
17875SOL     OW59460   8.535   7.551  10.710  0.5506  0.2790 -0.6601
17875SOL    HW159461   8.502   7.521  10.795  1.0973  0.4182 -0.3948
17875SOL    HW259462   8.456   7.572  10.660  0.2361  0.6511 -0.0222
17876SOL     OW59463   5.293  10.472   3.161 -0.0455 -0.1030  0.3855
17876SOL    HW159464   5.266  10.380   3.167 -0.7406  0.1696  2.0435
17876SOL    HW259465   5.367  10.479   3.222 -0.4637  0.5935  0.8162
17877SOL     OW59466   9.404   0.155   3.519  0.5086 -0.5670 -0.5849
17877SOL    HW159467   9.426   0.091   3.451  0.6024 -0.4837 -0.6330
17877SOL    HW259468   9.432   0.113   3.600 -2.1020 -1.8603 -0.2654
17878SOL     OW59469   6.901   7.334   0.300 -0.5315 -0.0858 -0.7733
17878SOL    HW159470   6.897   7.401   0.368 -0.6970  0.7303 -1.5619
17878SOL    HW259471   6.810   7.320   0.274 -0.4925 -0.5773 -0.6610
17879SOL     OW59472   7.189   2.189   2.942  0.8331  0.4957 -0.0069
17879SOL    HW159473   7.117   2.246   2.914  0.0150 -0.4144  0.1842
17879SOL    HW259474   7.257   2.202   2.876  0.2539  0.9342 -0.5280
17880SOL     OW59475   3.654   7.508   4.865  0.0946  0.0950  0.0110
17880SOL    HW159476   3.619   7.427   4.902 -1.6881  1.5155  1.6654
17880SOL    HW259477   3.715   7.541   4.932  0.8414  0.1101 -0.6673
17881SOL     OW59478  10.832   6.667   5.698  0.6650  0.3092  0.1021
17881SOL    HW159479  10.927   6.653   5.705  0.5060 -0.0734  2.2382
17881SOL    HW259480  10.818   6.753   5.737  0.1900  0.6508 -0.8109
17882SOL     OW59481   6.602   8.152   6.496 -0.4378 -0.3330  0.6843
17882SOL    HW159482   6.589   8.176   6.405  1.0773  1.2371  0.8219
17882SOL    HW259483   6.638   8.063   6.493  0.3532 -0.0018 -0.3226
17883SOL     OW59484   9.865   3.873   2.011  0.0231 -0.0148 -0.1018
17883SOL    HW159485   9.871   3.803   2.076  0.7192 -1.2093 -1.4027
17883SOL    HW259486   9.801   3.842   1.947  1.1610 -0.0287 -1.3023
17884SOL     OW59487   6.898   8.906   8.197 -0.1692  0.2693  0.4673
17884SOL    HW159488   6.891   8.812   8.178 -1.8869  0.4773 -0.0502
17884SOL    HW259489   6.937   8.909   8.285  0.2329 -0.9083  0.3514
17885SOL     OW59490   3.459   6.643   9.330 -0.9668 -0.2672  0.1501
17885SOL    HW159491   3.414   6.656   9.414 -2.1266  1.1757 -0.6545
17885SOL    HW259492   3.392   6.604   9.273 -0.5597 -0.0801 -0.4659
17886SOL     OW59493   4.856   7.976   0.711 -0.0495  0.2839 -0.1680
17886SOL    HW159494   4.918   8.040   0.675 -0.0504  0.4002  0.0363
17886SOL    HW259495   4.903   7.893   0.708  0.0290  0.3300 -0.2390
17887SOL     OW59496   3.852   0.280   7.373 -0.0067  0.7616  0.0209
17887SOL    HW159497   3.791   0.316   7.309  0.2961  1.3314  0.0477
17887SOL    HW259498   3.884   0.356   7.421 -2.1324  0.1816  2.5891
17888SOL     OW59499   3.345   8.617   5.525  0.4230  0.1443 -0.6368
17888SOL    HW159500   3.315   8.661   5.604  0.6682 -0.4381 -0.2127
17888SOL    HW259501   3.273   8.559   5.501  0.9993 -0.9106  0.1175
17889SOL     OW59502   7.448   6.104   1.486  0.3261  0.0645 -0.0336
17889SOL    HW159503   7.543   6.091   1.497  0.6882  2.1245 -0.3123
17889SOL    HW259504   7.424   6.162   1.558 -0.3631  1.0308 -1.0238
17890SOL     OW59505   8.590   9.319   5.107 -0.4437  0.4291 -0.5544
17890SOL    HW159506   8.625   9.329   5.195  0.7029 -0.0476 -0.9378
17890SOL    HW259507   8.541   9.400   5.091  1.8757  1.9122 -0.6073
17891SOL     OW59508   2.136   1.251   1.436 -1.2146 -0.2377 -0.4381
17891SOL    HW159509   2.142   1.336   1.393  3.7274  0.1079  0.3579
17891SOL    HW259510   2.116   1.190   1.365  0.0185  1.0888 -2.0143
17892SOL     OW59511   5.882   9.760   9.348 -0.1088  0.0168 -0.0458
17892SOL    HW159512   5.923   9.681   9.314 -1.5328 -0.5699 -0.4834
17892SOL    HW259513   5.940   9.831   9.320  0.4889 -0.7512 -0.8098
17893SOL     OW59514   0.126   5.828   3.869 -0.4710 -0.2635 -0.1854
17893SOL    HW159515   0.142   5.860   3.958 -1.4284 -0.6592  0.1375
17893SOL    HW259516   0.034   5.802   3.869 -0.8098  0.8249 -1.6353
17894SOL     OW59517   6.479   5.641  10.166  0.0398  0.0515  0.1474
17894SOL    HW159518   6.474   5.551  10.199  1.2529 -0.9660 -2.2287
17894SOL    HW259519   6.526   5.688  10.234  0.0891 -1.2976  1.0899
17895SOL     OW59520   7.040   9.933   4.256  0.7578  0.3890 -0.1387
17895SOL    HW159521   7.113   9.880   4.289 -0.1835  0.0026  1.4611
17895SOL    HW259522   7.081  10.003   4.206  2.0967 -1.1040 -1.1981
17896SOL     OW59523   3.113   7.543   1.354  0.2584  0.1487 -0.3444
17896SOL    HW159524   3.080   7.605   1.420 -0.9620  1.1278 -1.7787
17896SOL    HW259525   3.203   7.571   1.338  0.2808  0.4536  0.2645
17897SOL     OW59526   1.602   0.919   7.521 -0.6458  0.3624 -0.2609
17897SOL    HW159527   1.550   0.845   7.488 -2.2736  1.3674 -0.0699
17897SOL    HW259528   1.657   0.880   7.589 -1.4447 -0.6935 -0.1836
17898SOL     OW59529   8.856   2.259   9.690 -0.1476 -0.2453 -0.0113
17898SOL    HW159530   8.853   2.263   9.594  0.2588  1.6141  0.0011
17898SOL    HW259531   8.819   2.174   9.712  0.1947 -0.9220 -1.8398
17899SOL     OW59532   3.216   6.757  10.525 -0.6488 -0.1258 -0.2284
17899SOL    HW159533   3.283   6.700  10.487  0.0665  1.2816 -1.1480
17899SOL    HW259534   3.141   6.750  10.465  0.7493  2.7053 -2.5626
17900SOL     OW59535   5.080   8.931   6.838  0.5064  0.2089  0.4418
17900SOL    HW159536   5.168   8.947   6.803 -0.0726 -0.7453 -1.6816
17900SOL    HW259537   5.026   8.917   6.760 -1.4475  0.3155  1.7032
17901SOL     OW59538   5.073   6.481   4.371 -0.3907 -0.3278  0.5692
17901SOL    HW159539   5.136   6.547   4.341  0.4881 -1.4641 -0.1808
17901SOL    HW259540   4.988   6.516   4.345  0.1475 -0.0461 -0.9439
17902SOL     OW59541   1.185  10.238   5.737  0.1793  0.1961 -0.2593
17902SOL    HW159542   1.216  10.297   5.668 -0.9000 -0.0478 -0.9922
17902SOL    HW259543   1.116  10.288   5.781  0.4680  0.1313  0.2755
17903SOL     OW59544   0.934   2.973   1.568  0.0787 -0.1060 -0.3753
17903SOL    HW159545   0.881   2.952   1.491 -0.4331  0.8657 -0.3150
17903SOL    HW259546   0.906   2.910   1.634 -0.0923 -0.4078 -0.7328
17904SOL     OW59547   6.172  10.553   5.283 -0.2461 -0.2151  0.6504
17904SOL    HW159548   6.111  10.483   5.306 -1.4442 -0.0222 -1.7190
17904SOL    HW259549   6.131  10.633   5.316 -1.9379  0.0559 -1.8409
17905SOL     OW59550   9.787   0.387   4.195  0.4612  0.5247 -0.0024
17905SOL    HW159551   9.778   0.416   4.286 -0.7807  1.7084 -0.4745
17905SOL    HW259552   9.703   0.348   4.174 -0.0850  2.2697 -1.2967
17906SOL     OW59553   2.583   1.353   8.997 -0.9544  0.0764  0.0361
17906SOL    HW159554   2.614   1.443   9.009 -0.1508  0.0216 -1.4425
17906SOL    HW259555   2.660   1.304   8.969 -1.4459 -1.0313  0.5243
17907SOL     OW59556   1.552   1.973  10.668 -0.2913 -0.2631  0.6300
17907SOL    HW159557   1.532   2.066  10.674 -0.6681 -0.1726 -1.3342
17907SOL    HW259558   1.469   1.929  10.689 -0.1164 -0.1785  1.5419
17908SOL     OW59559   0.539   4.026   1.565 -0.0821  0.1422  0.0564
17908SOL    HW159560   0.476   3.954   1.570  0.5651 -0.3687  1.1725
17908SOL    HW259561   0.487   4.104   1.584 -0.4837 -0.2107  0.4486
17909SOL     OW59562  10.908   5.348   5.425  0.4716 -0.2598 -0.2552
17909SOL    HW159563  10.974   5.281   5.405  0.1009 -0.0898 -2.2640
17909SOL    HW259564  10.903   5.349   5.521  2.5718 -1.0490 -0.0847
17910SOL     OW59565   8.191   7.008   7.419  0.3118  0.4825  0.4207
17910SOL    HW159566   8.244   6.943   7.466  1.2081  0.3848 -0.6792
17910SOL    HW259567   8.113   6.960   7.393  1.0135 -0.2262 -0.4738
17911SOL     OW59568   8.328   0.607   3.726  0.5267 -0.6729  0.4500
17911SOL    HW159569   8.349   0.557   3.804  0.7160 -1.0058  0.1896
17911SOL    HW259570   8.287   0.544   3.667 -1.1383 -0.0633  0.9048
17912SOL     OW59571   8.789   0.140   0.519 -0.6779  0.5548 -0.2797
17912SOL    HW159572   8.776   0.223   0.565 -1.0703  0.5846 -0.4410
17912SOL    HW259573   8.806   0.077   0.589  2.5334  1.2566 -0.2759
17913SOL     OW59574   9.689   8.950   5.548  0.0056 -0.4491 -0.0655
17913SOL    HW159575   9.745   8.872   5.547  0.0641 -0.4171  0.6482
17913SOL    HW259576   9.697   8.986   5.460  1.1704 -0.3999  0.0535
17914SOL     OW59577   7.819   3.849   2.076 -0.0294 -0.0040  0.1147
17914SOL    HW159578   7.733   3.807   2.079 -0.7021  1.3598  0.8625
17914SOL    HW259579   7.878   3.785   2.115 -1.3106  0.3262  2.8146
17915SOL     OW59580  10.882   7.753   3.373  0.0310 -0.0011 -0.1106
17915SOL    HW159581  10.870   7.835   3.324 -1.9229 -0.2609 -0.1534
17915SOL    HW259582  10.815   7.756   3.441  1.8724 -0.2375  1.8102
17916SOL     OW59583   9.864  10.777   6.268 -0.1721  0.1773 -0.5718
17916SOL    HW159584   9.930  10.845   6.281  0.3794 -0.6806  1.6233
17916SOL    HW259585   9.819  10.771   6.352 -0.0483 -2.2919 -0.6083
17917SOL     OW59586   9.854   7.708   4.801  0.0632  0.5781 -0.3907
17917SOL    HW159587   9.894   7.758   4.730 -0.9696  0.1545 -1.2875
17917SOL    HW259588   9.876   7.617   4.782 -0.4388  0.4384 -0.3318
17918SOL     OW59589   8.736   0.966   5.168 -0.2544 -0.0733  0.8356
17918SOL    HW159590   8.770   0.999   5.251 -1.3271  0.3350  1.1317
17918SOL    HW259591   8.725   0.872   5.182  0.3055 -0.1387  0.8784
17919SOL     OW59592   8.263   1.886  10.504 -0.2392  0.3691  0.4627
17919SOL    HW159593   8.174   1.917  10.519 -0.1804  1.1040 -0.6000
17919SOL    HW259594   8.302   1.878  10.592 -1.4114 -0.1902  0.9490
17920SOL     OW59595   4.672   8.980   1.776 -0.1249  0.2817 -0.7076
17920SOL    HW159596   4.668   8.884   1.770  0.8107  0.3237 -2.7770
17920SOL    HW259597   4.584   9.006   1.800  0.0235 -1.1621  1.8666
17921SOL     OW59598   6.818   4.575   1.802  0.3985 -0.0620 -0.4843
17921SOL    HW159599   6.870   4.610   1.731  0.7279  1.3324  0.4131
17921SOL    HW259600   6.845   4.624   1.879 -1.6155  0.1320  0.1766
17922SOL     OW59601   8.295   5.271   1.884  0.1538  0.0126  0.5080
17922SOL    HW159602   8.202   5.283   1.863  0.7876  1.7456 -1.7795
17922SOL    HW259603   8.315   5.341   1.945  0.1704  0.2852  0.1926
17923SOL     OW59604   4.156  10.011   2.373 -0.0925 -0.0007  0.0340
17923SOL    HW159605   4.214  10.060   2.314 -1.7377  0.5050 -1.2471
17923SOL    HW259606   4.131  10.075   2.440 -0.9103  0.4733 -0.6939
17924SOL     OW59607   4.982   9.385   7.863  0.0369 -0.1323  0.7604
17924SOL    HW159608   4.936   9.426   7.936 -1.3555 -0.9651  0.3800
17924SOL    HW259609   5.040   9.454   7.830 -0.3464  0.6952  1.7547
17925SOL     OW59610   0.374   7.521   1.591  0.2488 -0.4813  0.1569
17925SOL    HW159611   0.373   7.426   1.575  0.1610 -0.0816 -2.5938
17925SOL    HW259612   0.445   7.554   1.536  2.0791  0.8174  3.0851
17926SOL     OW59613   3.794   4.375   0.988  1.0818 -0.3102 -0.2208
17926SOL    HW159614   3.776   4.455   1.037 -0.6237 -0.5847 -0.3184
17926SOL    HW259615   3.873   4.340   1.028  2.1632  1.6537 -0.4997
17927SOL     OW59616   5.301   3.083   5.295  0.1677 -0.0694  0.2389
17927SOL    HW159617   5.252   3.006   5.323 -0.2951 -0.2951 -1.1213
17927SOL    HW259618   5.292   3.144   5.368  0.2849 -1.1731  1.2069
17928SOL     OW59619   2.876   4.206   3.455  0.2627  0.1686 -0.2220
17928SOL    HW159620   2.830   4.241   3.532  2.2304 -1.8048  1.9970
17928SOL    HW259621   2.806   4.167   3.403 -1.0815  1.0597  0.8056
17929SOL     OW59622   4.565   4.020   6.662 -0.1561  0.3558 -0.0431
17929SOL    HW159623   4.661   4.023   6.667 -0.0475  1.6354 -1.8626
17929SOL    HW259624   4.539   3.961   6.732  1.9089  0.7641  1.1528
17930SOL     OW59625   7.280   7.874   3.065  0.2830 -0.1922 -0.1860
17930SOL    HW159626   7.219   7.803   3.050 -0.3474  0.6654 -1.8781
17930SOL    HW259627   7.236   7.952   3.030  1.6375  0.7388  0.1017
17931SOL     OW59628   1.462   3.891   7.211  0.6650 -0.1824  0.3268
17931SOL    HW159629   1.438   3.932   7.128  1.1140 -1.0246 -0.2301
17931SOL    HW259630   1.390   3.914   7.270  0.9308  1.4671  0.0713
17932SOL     OW59631   4.579   5.281   3.120 -0.3685  0.2735 -0.2693
17932SOL    HW159632   4.660   5.239   3.150 -1.0606 -2.1104 -1.4866
17932SOL    HW259633   4.536   5.311   3.200  1.8374  1.9293  0.3768
17933SOL     OW59634   8.461   8.589   8.827 -0.0668  0.0608  0.1396
17933SOL    HW159635   8.463   8.653   8.755 -2.4307 -0.0840 -0.1461
17933SOL    HW259636   8.515   8.516   8.796 -0.1717  0.4648 -1.0372
17934SOL     OW59637   9.080   4.640   4.245  0.5067  0.3990 -0.9506
17934SOL    HW159638   9.143   4.573   4.221 -0.0002 -0.1706 -0.7183
17934SOL    HW259639   9.012   4.636   4.178  0.1480  0.2361 -0.5845
17935SOL     OW59640   1.957   4.160   2.551 -0.0590  0.1276  0.3829
17935SOL    HW159641   1.927   4.145   2.461  0.1233 -1.4489  0.5538
17935SOL    HW259642   1.947   4.075   2.594 -0.9514  1.0367  2.1133
17936SOL     OW59643   6.182   9.816   8.007 -0.3591 -0.2401 -0.8916
17936SOL    HW159644   6.184   9.720   8.010  0.2941 -0.2398 -1.1266
17936SOL    HW259645   6.146   9.842   8.092 -1.3431 -0.7071 -1.1505
17937SOL     OW59646   1.239   5.093   2.260 -0.2131 -0.0066 -0.2412
17937SOL    HW159647   1.291   5.173   2.250 -2.5170  1.7855  1.1037
17937SOL    HW259648   1.262   5.061   2.348 -0.1401 -0.1838 -0.3247
17938SOL     OW59649   1.054   5.622   0.406 -0.5804 -0.3722  0.2530
17938SOL    HW159650   1.130   5.607   0.349  0.5916  2.1387  1.0421
17938SOL    HW259651   0.981   5.635   0.345  0.3079  0.5442 -0.6567
17939SOL     OW59652   2.648   3.340   0.039  0.1470 -1.0325 -0.0828
17939SOL    HW159653   2.726   3.392   0.061 -0.2147 -0.4597 -0.1356
17939SOL    HW259654   2.578   3.404   0.030 -0.0934 -1.4215 -1.1685
17940SOL     OW59655   3.229   9.143   1.691  0.2299 -0.2060  0.0547
17940SOL    HW159656   3.139   9.171   1.679  0.0469  0.6922  2.7708
17940SOL    HW259657   3.277   9.182   1.618 -1.2601  1.0176 -0.3019
17941SOL     OW59658   0.338   5.076   4.468  0.4476 -0.4571 -0.0525
17941SOL    HW159659   0.330   5.158   4.420  0.3902 -1.7359 -2.3547
17941SOL    HW259660   0.339   5.008   4.400  1.5350 -2.3076  1.7047
17942SOL     OW59661   2.974   7.714   7.128 -0.4174  0.1223 -0.0612
17942SOL    HW159662   3.039   7.659   7.083  1.1146  0.9450  1.0523
17942SOL    HW259663   3.025   7.786   7.165 -1.7589  0.0414  2.0972
17943SOL     OW59664   3.411   4.332   3.490  0.0987  0.7585 -0.0344
17943SOL    HW159665   3.400   4.412   3.438 -0.3695  1.7298  1.5129
17943SOL    HW259666   3.328   4.321   3.535  0.2767 -0.4258  0.0289
17944SOL     OW59667   9.463   0.651   4.680  0.0897  0.0682 -0.3867
17944SOL    HW159668   9.460   0.631   4.586 -0.0247  0.9661 -0.5850
17944SOL    HW259669   9.546   0.695   4.693 -0.5068  1.2234 -0.3460
17945SOL     OW59670   0.418   8.773   8.052  0.0644  0.6293  0.5981
17945SOL    HW159671   0.474   8.793   7.977  0.7211  2.1524  1.4586
17945SOL    HW259672   0.340   8.827   8.039 -2.3139 -2.8779 -1.6279
17946SOL     OW59673   3.931   5.269   3.462 -0.0136  0.1226 -0.0250
17946SOL    HW159674   3.974   5.185   3.482 -1.2360 -0.5666 -0.2108
17946SOL    HW259675   3.906   5.304   3.548 -0.3587 -0.1745 -0.0022
17947SOL     OW59676   4.914   3.043   5.405 -0.7514 -0.3747 -0.6301
17947SOL    HW159677   4.938   3.131   5.434 -0.4585 -0.6724  0.0456
17947SOL    HW259678   4.991   2.989   5.424 -0.4394 -0.5368 -2.2141
17948SOL     OW59679   7.065   3.260   7.716 -0.4458  0.0183 -0.2802
17948SOL    HW159680   7.065   3.166   7.696 -0.0284 -0.2651  0.9722
17948SOL    HW259681   7.148   3.275   7.760 -0.4642  1.0104 -0.5625
17949SOL     OW59682   6.169   9.621   7.563 -0.3132  0.3652 -0.3768
17949SOL    HW159683   6.090   9.668   7.537 -0.4427 -0.2599 -1.1376
17949SOL    HW259684   6.240   9.682   7.548 -0.5090  0.4284 -1.0627
17950SOL     OW59685   4.063   6.699   5.501  0.0999 -0.5463 -0.1740
17950SOL    HW159686   4.138   6.644   5.478 -0.3027 -1.1318 -0.1103
17950SOL    HW259687   3.994   6.637   5.523 -0.2395 -0.0075  0.3073
17951SOL     OW59688   9.935   0.900   7.520 -0.3031 -0.0584 -0.4374
17951SOL    HW159689  10.021   0.890   7.480  0.6744  1.0761  1.2752
17951SOL    HW259690   9.885   0.826   7.486  0.4763  0.6752 -3.5246
17952SOL     OW59691   0.366   1.956   3.988 -0.0575 -0.1235  0.1861
17952SOL    HW159692   0.363   2.002   4.072  0.5973 -1.2317  0.8400
17952SOL    HW259693   0.422   1.880   4.004 -0.4240 -0.6934 -1.0920
17953SOL     OW59694   3.648   5.725   1.203 -0.4706  0.3821  0.2524
17953SOL    HW159695   3.657   5.807   1.252 -1.7234  1.0668 -0.5966
17953SOL    HW259696   3.723   5.672   1.231  0.3466  1.7910  0.8577
17954SOL     OW59697   3.458   4.648   7.142  0.2968 -0.0223  0.0490
17954SOL    HW159698   3.518   4.717   7.168  0.3855 -0.1751  0.2591
17954SOL    HW259699   3.480   4.574   7.199 -0.2238 -0.0151  0.2641
17955SOL     OW59700   6.912   5.223   3.747  0.2130 -0.0241  0.1816
17955SOL    HW159701   6.892   5.191   3.659  0.9550  0.3221 -0.1254
17955SOL    HW259702   6.973   5.296   3.733  2.0294 -1.3055  1.0527
17956SOL     OW59703   5.340   3.422   6.778  0.0138 -0.5151 -0.3692
17956SOL    HW159704   5.426   3.381   6.782 -0.2845 -1.1766 -0.6336
17956SOL    HW259705   5.358   3.516   6.782  0.7244 -0.6588 -0.0922
17957SOL     OW59706   2.162   2.288   7.533 -0.4982  0.0377  0.1973
17957SOL    HW159707   2.090   2.346   7.559 -0.7496 -0.7860  1.4544
17957SOL    HW259708   2.238   2.346   7.527 -0.9861  0.6942  0.2109
17958SOL     OW59709   6.874   7.252   9.704  0.1798  0.2722  0.0243
17958SOL    HW159710   6.813   7.213   9.767  0.2408 -0.0459 -0.1109
17958SOL    HW259711   6.960   7.244   9.746  0.2839 -0.3767 -0.3001
17959SOL     OW59712   5.519   1.729   5.537  0.6105 -0.4326 -0.5075
17959SOL    HW159713   5.536   1.652   5.482  1.0428 -0.0933 -0.8512
17959SOL    HW259714   5.590   1.729   5.601  0.5312 -0.3945 -0.4192
17960SOL     OW59715   5.493   8.130   6.934 -0.3021 -0.2782  0.2623
17960SOL    HW159716   5.480   8.194   6.864  0.8522 -0.5310 -0.2068
17960SOL    HW259717   5.570   8.161   6.981  0.8273 -1.7520 -0.5119
17961SOL     OW59718   3.865   0.566   7.018  0.0726  0.4122 -0.1004
17961SOL    HW159719   3.866   0.522   6.933 -0.8309  1.4791 -0.6778
17961SOL    HW259720   3.956   0.561   7.048  0.1641 -1.1088 -0.5135
17962SOL     OW59721   0.215   8.176   5.047  0.5045 -0.1155  0.4202
17962SOL    HW159722   0.215   8.083   5.071 -0.5070  0.3940  2.6381
17962SOL    HW259723   0.298   8.209   5.082  0.6321 -0.0681  0.0763
17963SOL     OW59724  10.393   1.612   1.884  0.4272 -0.0556  0.2831
17963SOL    HW159725  10.462   1.612   1.950  0.4333 -3.6009  0.4976
17963SOL    HW259726  10.426   1.553   1.816 -1.0367  0.7822 -1.2360
17964SOL     OW59727   9.404   7.067   3.534  0.0198  0.1340 -0.0191
17964SOL    HW159728   9.445   7.132   3.477  1.1213  0.0868  0.6854
17964SOL    HW259729   9.311   7.091   3.534  0.2234  0.9874 -0.6991
17965SOL     OW59730   1.440   4.477   5.352  0.1872 -0.0570  0.2627
17965SOL    HW159731   1.482   4.485   5.266  0.4179  1.3470  0.4823
17965SOL    HW259732   1.455   4.562   5.394 -0.2234 -0.6012  1.5582
17966SOL     OW59733   2.742   3.311   0.334  0.3238  0.2215 -0.0290
17966SOL    HW159734   2.694   3.384   0.296  0.9852  1.4575  1.4014
17966SOL    HW259735   2.678   3.266   0.389  0.5054  1.2540  1.0677
17967SOL     OW59736   5.855   4.851   3.470 -0.0851  0.4292 -0.1463
17967SOL    HW159737   5.839   4.790   3.542 -2.1609  1.3567  0.2502
17967SOL    HW259738   5.929   4.904   3.499 -1.4334  1.3656  1.7583
17968SOL     OW59739   7.257   5.335   9.886  0.1956 -0.1789  0.2727
17968SOL    HW159740   7.205   5.305   9.812  2.0376 -1.1259 -0.6858
17968SOL    HW259741   7.197   5.391   9.936 -1.2809 -0.0269 -1.5667
17969SOL     OW59742   0.694   1.644   4.871  0.2858 -0.3362  0.0800
17969SOL    HW159743   0.718   1.736   4.863 -0.0000 -0.3127 -0.5182
17969SOL    HW259744   0.600   1.642   4.856 -0.0345 -0.4995  1.8988
17970SOL     OW59745   4.480   5.072   2.898  0.6172  0.4466  0.7319
17970SOL    HW159746   4.456   5.085   2.989  0.4068 -0.8377  0.8725
17970SOL    HW259747   4.564   5.118   2.889  0.7756  0.3541  1.6421
17971SOL     OW59748   9.015   9.375   5.412 -0.6964 -0.9079 -0.3215
17971SOL    HW159749   8.977   9.396   5.498 -0.0842 -0.1687 -0.2203
17971SOL    HW259750   9.073   9.449   5.393 -0.5807 -1.2197 -1.2316
17972SOL     OW59751   8.658   9.180   8.531 -0.2142  0.4314 -0.0644
17972SOL    HW159752   8.717   9.246   8.493  0.3074 -0.6401 -1.1707
17972SOL    HW259753   8.595   9.232   8.580 -0.4137  1.8607 -1.6969
17973SOL     OW59754   6.705   1.316   4.856  0.7175  0.1908  0.1674
17973SOL    HW159755   6.636   1.291   4.917  0.4104 -0.8179 -0.5754
17973SOL    HW259756   6.659   1.339   4.775  1.2326 -0.4064 -0.3036
17974SOL     OW59757   2.652   0.994   3.332  0.0280  0.3740  0.4629
17974SOL    HW159758   2.709   1.038   3.395  1.3151  0.5951 -0.7876
17974SOL    HW259759   2.711   0.972   3.259 -1.2236 -0.6587 -0.2709
17975SOL     OW59760   7.444   3.759   9.119 -0.3587 -0.1151 -0.0479
17975SOL    HW159761   7.463   3.696   9.188  2.0712  1.7076  1.1006
17975SOL    HW259762   7.502   3.733   9.047  0.1292  0.3607  0.1656
17976SOL     OW59763   9.066   3.722   3.162 -0.0279  0.1308 -0.3579
17976SOL    HW159764   9.127   3.655   3.191 -0.3324  0.2451  0.5994
17976SOL    HW259765   9.013   3.679   3.096 -2.9662 -2.0149  2.9921
17977SOL     OW59766   6.300   8.314   5.834  0.2014  0.0072 -0.4176
17977SOL    HW159767   6.376   8.372   5.837  0.1881  0.0321 -0.5422
17977SOL    HW259768   6.228   8.367   5.870 -0.2246  0.7197 -2.1816
17978SOL     OW59769   4.052  10.756   8.559  0.4275 -0.4704 -0.1969
17978SOL    HW159770   3.959  10.752   8.538  0.2102  1.8882  0.0833
17978SOL    HW259771   4.057  10.721   8.648 -0.4544  0.7839  0.3774
17979SOL     OW59772   1.436   6.595   1.270  0.0082 -0.4197  0.0612
17979SOL    HW159773   1.418   6.671   1.214 -1.3150 -1.1943 -0.6092
17979SOL    HW259774   1.470   6.634   1.351  0.2487  0.8288 -0.6045
17980SOL     OW59775   6.186   1.676   5.757 -0.6619  0.7199 -0.4886
17980SOL    HW159776   6.262   1.664   5.814  1.5631  1.1066 -3.1471
17980SOL    HW259777   6.170   1.589   5.720  0.1116  1.0807 -1.7481
17981SOL     OW59778   7.725   9.781   9.563  0.2390 -0.2326 -0.3943
17981SOL    HW159779   7.810   9.749   9.595  0.1735 -1.6711 -1.5826
17981SOL    HW259780   7.745   9.869   9.529  1.1921 -0.4356 -0.3942
17982SOL     OW59781  10.540   6.246   2.303  0.2084  0.1894  0.1296
17982SOL    HW159782  10.562   6.275   2.214  2.7783 -0.7914  0.3559
17982SOL    HW259783  10.621   6.208   2.336 -0.9871 -0.4457  2.5332
17983SOL     OW59784   5.608   3.383   0.016 -0.3564 -0.3407 -0.1855
17983SOL    HW159785   5.608   3.300  -0.032  1.4012 -1.5331  1.6931
17983SOL    HW259786   5.683   3.376   0.075 -2.0334  1.2186  2.3386
17984SOL     OW59787   9.573   0.831  10.427 -0.3601 -0.4347  0.2566
17984SOL    HW159788   9.615   0.903  10.380  1.2244 -1.4056  0.0936
17984SOL    HW259789   9.579   0.855  10.519 -0.0323 -0.2624  0.1899
17985SOL     OW59790   5.365   5.829   7.412 -0.5713  0.3237  0.5386
17985SOL    HW159791   5.345   5.856   7.322 -2.1017  0.5582  0.9204
17985SOL    HW259792   5.439   5.883   7.438  0.2349 -0.1212 -0.7525
17986SOL     OW59793   1.042   7.178   7.958  0.0042  0.2626 -0.2262
17986SOL    HW159794   1.100   7.192   8.032  0.2836 -0.5378 -0.2813
17986SOL    HW259795   1.044   7.083   7.944 -1.9989  0.0713  0.3453
17987SOL     OW59796  10.137   6.613   8.453  0.2769  0.3642 -0.4582
17987SOL    HW159797  10.100   6.672   8.387 -1.5132 -1.2915 -1.0248
17987SOL    HW259798  10.188   6.551   8.402  0.1764  0.0091 -0.1265
17988SOL     OW59799   4.513   3.203   5.732 -0.0161  0.8610 -0.3634
17988SOL    HW159800   4.593   3.218   5.681  0.7644 -0.3790  0.4348
17988SOL    HW259801   4.531   3.122   5.781 -3.0731 -1.4874 -2.7360
17989SOL     OW59802   8.046   0.526  10.279  0.0251 -0.0352  0.2481
17989SOL    HW159803   8.093   0.609  10.293  0.1619 -0.3569  1.9681
17989SOL    HW259804   8.115   0.461  10.268 -0.0797  0.0180 -0.7947
17990SOL     OW59805   2.165   0.314  10.926  0.3068  0.0204 -0.1076
17990SOL    HW159806   2.228   0.293  10.994  0.2229  0.1945  0.0232
17990SOL    HW259807   2.179   0.247  10.859  0.1032 -0.3995  0.2651
17991SOL     OW59808   9.858   8.020   1.176  0.1809  0.1502 -0.0494
17991SOL    HW159809   9.774   7.990   1.140  0.2132  0.0402 -0.0332
17991SOL    HW259810   9.887   7.948   1.232  0.5745 -0.0663 -0.5238
17992SOL     OW59811   8.910   6.991   7.424 -0.1335  0.5896 -0.3764
17992SOL    HW159812   8.901   6.897   7.408  0.2401  0.5618 -0.4362
17992SOL    HW259813   9.004   7.007   7.421 -0.2272  1.0666 -0.9275
17993SOL     OW59814   2.819   9.407   1.824  0.2651  0.2711  0.4018
17993SOL    HW159815   2.834   9.403   1.918  0.4963  1.0252  0.4040
17993SOL    HW259816   2.874   9.479   1.794  1.6645 -1.1645 -0.6139
17994SOL     OW59817   5.131   3.342   2.598  0.2334  0.1798  0.5973
17994SOL    HW159818   5.199   3.386   2.548  0.1419  0.7450  0.9660
17994SOL    HW259819   5.178   3.277   2.651  0.3721 -0.1337  0.0924
17995SOL     OW59820   0.393   9.023   8.880 -0.3051  0.0393  0.0303
17995SOL    HW159821   0.401   9.021   8.976  1.1643 -0.8663 -0.0876
17995SOL    HW259822   0.366   9.113   8.861  0.4016  0.5360  1.2262
17996SOL     OW59823   9.969   3.126   7.381  0.0100  0.0853  0.0128
17996SOL    HW159824  10.002   3.165   7.462 -0.3332 -0.2396  0.3151
17996SOL    HW259825   9.939   3.039   7.407 -0.7834  0.2551 -0.3107
17997SOL     OW59826   4.853   7.324   5.885  0.3034  0.3219  0.2977
17997SOL    HW159827   4.927   7.373   5.920  2.0209 -0.1205 -2.4188
17997SOL    HW259828   4.881   7.233   5.888  0.5123  0.2484 -1.9268
17998SOL     OW59829   3.463   6.344   9.749  0.1904 -0.1225  0.5601
17998SOL    HW159830   3.470   6.328   9.655 -2.6225 -1.0319  0.4420
17998SOL    HW259831   3.385   6.398   9.759 -0.0729 -0.7708  2.4316
17999SOL     OW59832   2.300   9.774   5.475 -0.5456 -0.1840  0.0847
17999SOL    HW159833   2.390   9.743   5.483 -0.1133  0.9919 -0.0134
17999SOL    HW259834   2.271   9.744   5.389 -0.1674 -0.3842  0.0284
18000SOL     OW59835   9.702   2.672   8.173  0.0494  0.0499 -1.2652
18000SOL    HW159836   9.787   2.688   8.132 -0.3579  0.3714 -1.9987
18000SOL    HW259837   9.692   2.744   8.235  0.8193 -0.6259 -0.3149
18001SOL     OW59838   3.765   0.480   0.969  0.7679  0.2089 -0.2727
18001SOL    HW159839   3.841   0.436   0.931  0.2115 -0.3254 -0.7827
18001SOL    HW259840   3.690   0.428   0.940  0.1940  0.8232  0.0874
18002SOL     OW59841   4.719   9.440   4.251  0.6293 -0.4381 -0.1235
18002SOL    HW159842   4.623   9.442   4.242  0.5961  0.7497  0.3513
18002SOL    HW259843   4.749   9.521   4.210  1.3394 -0.2637  0.7085
18003SOL     OW59844  10.529   4.601   8.294  0.2060 -0.2205  0.0183
18003SOL    HW159845  10.439   4.609   8.263  0.1872 -0.2139  0.0742
18003SOL    HW259846  10.581   4.587   8.215  0.6849  3.5940 -0.5259
18004SOL     OW59847   1.643   3.746   7.976 -0.1841  0.0818 -0.0429
18004SOL    HW159848   1.672   3.757   7.886 -0.0253 -0.6229 -0.0895
18004SOL    HW259849   1.716   3.700   8.019 -0.9804 -1.2108 -0.0211
18005SOL     OW59850   2.295   7.765   0.182  0.5794 -0.2601  0.4161
18005SOL    HW159851   2.310   7.723   0.098 -1.4273 -2.5456  1.1157
18005SOL    HW259852   2.303   7.695   0.247 -0.5405  0.8772  1.8823
18006SOL     OW59853  10.008   4.196   0.288  0.8071 -0.2358 -0.8295
18006SOL    HW159854  10.002   4.153   0.374  1.4523 -1.0233 -1.1593
18006SOL    HW259855  10.094   4.238   0.289  0.3468  0.7175 -0.6688
18007SOL     OW59856   8.839   6.376   1.596 -0.2513  0.1937 -0.2259
18007SOL    HW159857   8.749   6.350   1.574 -0.1765 -0.2141 -0.0537
18007SOL    HW259858   8.881   6.295   1.624  0.8563 -0.1177 -2.5611
18008SOL     OW59859  10.489  10.783   0.842 -0.1176 -0.2510  0.2664
18008SOL    HW159860  10.470  10.829   0.923  0.0427  0.9783 -0.3670
18008SOL    HW259861  10.473  10.848   0.773 -1.8510 -1.7179 -0.8054
18009SOL     OW59862   4.894  10.208   7.615  0.3496 -0.2134  0.5037
18009SOL    HW159863   4.922  10.120   7.640  1.4292  0.3329  1.3047
18009SOL    HW259864   4.802  10.212   7.642 -0.1879 -1.5922 -0.9659
18010SOL     OW59865   3.400   8.824  10.724  0.1037  0.2369  0.4005
18010SOL    HW159866   3.343   8.766  10.775 -0.9817  1.0415  0.1416
18010SOL    HW259867   3.381   8.801  10.633 -0.0872  0.7635  0.3058
18011SOL     OW59868   1.675   9.758   0.415 -0.3693 -0.1544  0.5409
18011SOL    HW159869   1.597   9.728   0.369  1.1752 -1.5027 -1.3721
18011SOL    HW259870   1.673   9.853   0.408 -0.2436 -0.2791 -2.4094
18012SOL     OW59871  10.619   1.517   0.618  0.2555  0.6693  0.6295
18012SOL    HW159872  10.567   1.539   0.695 -1.6954  1.6132 -0.8320
18012SOL    HW259873  10.558   1.468   0.562  2.1029 -1.4336  0.3324
18013SOL     OW59874   5.536   7.092   9.937 -0.1976  0.0523  0.0400
18013SOL    HW159875   5.474   7.102   9.864  0.6035  1.4588 -0.4625
18013SOL    HW259876   5.480   7.080  10.014 -1.0757  0.1885 -0.5652
18014SOL     OW59877   8.629   9.869   5.375 -0.0455  0.4182  0.0630
18014SOL    HW159878   8.555   9.921   5.404 -0.9560  0.2587 -1.8155
18014SOL    HW259879   8.590   9.790   5.336  1.1971 -0.5443  0.6935
18015SOL     OW59880   2.488   9.130   2.386 -0.1863 -0.4632  0.0932
18015SOL    HW159881   2.571   9.101   2.349 -1.2992 -2.5262 -0.9446
18015SOL    HW259882   2.479   9.080   2.468 -0.4087 -0.2525  0.2007
18016SOL     OW59883  10.695   1.861   3.480 -0.6021  0.0557 -0.1470
18016SOL    HW159884  10.784   1.827   3.480 -1.0819 -1.4254  1.8467
18016SOL    HW259885  10.649   1.810   3.414  0.2428  1.6423 -2.0421
18017SOL     OW59886   0.324   0.652   0.052 -0.4393  0.5578  0.8136
18017SOL    HW159887   0.300   0.699  -0.027  0.0965  0.0238  0.3198
18017SOL    HW259888   0.306   0.713   0.123 -2.6815  0.4125  0.4496
18018SOL     OW59889   7.948   6.236   5.977  0.1346 -0.0453 -0.3609
18018SOL    HW159890   8.040   6.262   5.978  0.1782 -0.2040  0.2844
18018SOL    HW259891   7.949   6.142   5.991 -0.1658  0.1278  0.9876
18019SOL     OW59892   4.638  10.122   5.511 -0.4932  0.0563  0.5660
18019SOL    HW159893   4.650  10.198   5.568 -2.4580  0.1634  0.8930
18019SOL    HW259894   4.628  10.049   5.571 -2.7024  0.1871  0.4500
18020SOL     OW59895   0.296   5.055   3.978  0.2860 -0.3080  0.2998
18020SOL    HW159896   0.278   5.110   3.902  2.5724 -0.0366 -0.1329
18020SOL    HW259897   0.281   4.966   3.947  1.1570 -0.1964 -0.4970
18021SOL     OW59898   4.981   9.551   4.779  0.2996 -0.1700 -0.0125
18021SOL    HW159899   4.938   9.630   4.747  0.0292 -0.6915 -0.9707
18021SOL    HW259900   5.001   9.570   4.871 -0.6454  0.6406  0.0438
18022SOL     OW59901   6.937   9.878   6.230  0.3902  0.2882  0.1602
18022SOL    HW159902   6.991   9.841   6.161 -0.6099 -0.3405 -0.3062
18022SOL    HW259903   6.897   9.956   6.190 -1.1931 -0.7723 -0.4469
18023SOL     OW59904   9.331   4.792   9.573  0.0768  0.1553 -0.1354
18023SOL    HW159905   9.295   4.771   9.659 -1.0411  0.4517 -0.5088
18023SOL    HW259906   9.303   4.881   9.556  0.7810  0.3040 -0.5728
18024SOL     OW59907   0.649   3.851   7.369 -0.3147 -0.0800 -0.0717
18024SOL    HW159908   0.729   3.886   7.330 -0.6639 -0.9691 -1.6854
18024SOL    HW259909   0.661   3.756   7.369 -0.5653 -0.1412  1.5434
18025SOL     OW59910  10.899   0.858   2.591  0.6715 -0.3883  0.3194
18025SOL    HW159911  10.944   0.925   2.539 -0.4729 -0.1475 -0.3949
18025SOL    HW259912  10.836   0.907   2.644  0.2828 -0.8513  0.2884
18026SOL     OW59913   9.175  10.595   7.624 -0.3363 -0.3658  0.4243
18026SOL    HW159914   9.136  10.616   7.539  0.3125 -1.0118 -0.0550
18026SOL    HW259915   9.269  10.611   7.611 -0.2183 -0.5866  0.9796
18027SOL     OW59916   0.005   3.790   0.262 -0.1695 -0.0582  0.3391
18027SOL    HW159917  -0.066   3.832   0.310 -0.2886  0.9341 -0.6641
18027SOL    HW259918   0.085   3.820   0.305 -0.2522  1.2481 -0.3641
18028SOL     OW59919   2.613   2.632   7.381  0.2090  0.1156 -0.0663
18028SOL    HW159920   2.562   2.706   7.348 -0.3649  0.1458  0.8595
18028SOL    HW259921   2.650   2.662   7.463 -0.4744 -0.7925  0.5954
18029SOL     OW59922   2.703   1.737   0.859  0.6007  0.3560  0.6673
18029SOL    HW159923   2.728   1.649   0.829  1.5293  0.4970  0.9896
18029SOL    HW259924   2.746   1.796   0.798 -0.7629  0.5925 -0.0977
18030SOL     OW59925   1.200   4.876   8.224  0.0866  0.0586  0.4276
18030SOL    HW159926   1.242   4.930   8.157  1.6056 -1.3597  0.1488
18030SOL    HW259927   1.260   4.879   8.299 -1.3074  1.1631  1.5535
18031SOL     OW59928   4.118   0.498   7.124  0.4907 -0.6941  0.2613
18031SOL    HW159929   4.087   0.411   7.151  0.0636 -0.8034 -0.5498
18031SOL    HW259930   4.173   0.527   7.197  1.4007 -2.0341  0.1399
18032SOL     OW59931   0.360   5.711   0.539  0.2135 -0.2595  0.4017
18032SOL    HW159932   0.365   5.622   0.573 -2.1320 -0.2988  0.8120
18032SOL    HW259933   0.423   5.761   0.591  2.4543 -1.8381 -0.6291
18033SOL     OW59934   9.760   4.375   1.647  0.2915 -0.7398  0.0547
18033SOL    HW159935   9.739   4.333   1.563  2.2589 -2.0063  0.1441
18033SOL    HW259936   9.779   4.466   1.623  2.6031 -1.4729 -1.2350
18034SOL     OW59937   2.333   0.767   5.921 -0.1024  0.3827  0.2512
18034SOL    HW159938   2.405   0.776   5.983  1.0836  0.6551 -1.0953
18034SOL    HW259939   2.365   0.703   5.857 -2.4216 -2.1029  1.4058
18035SOL     OW59940   5.450   0.964   2.640  0.1910  0.1143  0.2997
18035SOL    HW159941   5.358   0.949   2.661  0.6027  0.3704  2.4932
18035SOL    HW259942   5.449   1.008   2.555 -1.6438 -0.7877 -0.1747
18036SOL     OW59943   0.728   7.138   3.602  0.0714 -0.2231 -0.7930
18036SOL    HW159944   0.694   7.051   3.579  1.6959 -1.3407  0.7374
18036SOL    HW259945   0.823   7.128   3.599  0.2951  1.4645 -0.3496
18037SOL     OW59946   6.807   7.278  10.197 -0.4030 -0.2946  0.3680
18037SOL    HW159947   6.810   7.196  10.247 -0.5841  0.7799  2.2339
18037SOL    HW259948   6.763   7.255  10.115  1.2338 -2.4610 -0.0106
18038SOL     OW59949   6.376   9.991   6.753  0.5701  0.2625  0.0808
18038SOL    HW159950   6.457  10.023   6.714  2.0515 -0.3995  2.3515
18038SOL    HW259951   6.388   9.896   6.757 -0.8019  0.0516 -0.4923
18039SOL     OW59952   1.346   3.940   8.578 -0.1171  0.5703 -0.0656
18039SOL    HW159953   1.267   3.886   8.574  1.2668 -1.4901 -1.3341
18039SOL    HW259954   1.380   3.926   8.666 -1.6350  2.3442  0.8993
18040SOL     OW59955   5.133   0.578  10.355  0.1038 -0.2189  0.3169
18040SOL    HW159956   5.183   0.591  10.436  0.2698  1.1256  0.0181
18040SOL    HW259957   5.189   0.521  10.302  0.3254 -0.5125  0.8528
18041SOL     OW59958   3.439   4.944   5.282  0.1635  0.4962  0.1141
18041SOL    HW159959   3.384   4.921   5.207  0.5989 -1.4399  0.3215
18041SOL    HW259960   3.525   4.908   5.261  0.5143  0.6789  1.1642
18042SOL     OW59961  10.869  10.015   4.505 -0.3596 -0.4979  0.2871
18042SOL    HW159962  10.881  10.110   4.504  2.5925 -0.7727  0.3155
18042SOL    HW259963  10.826   9.996   4.421 -0.0627  0.7711 -0.1850
18043SOL     OW59964   5.348   9.499   1.975  0.0020  0.2342 -0.5082
18043SOL    HW159965   5.321   9.589   1.959 -0.0302  0.3078 -0.0551
18043SOL    HW259966   5.300   9.473   2.054  0.5808  0.0682 -0.2056
18044SOL     OW59967   6.083   5.094   6.581 -0.3278  0.9206  0.4145
18044SOL    HW159968   6.043   5.014   6.615  1.7828 -0.4838 -0.2763
18044SOL    HW259969   6.103   5.075   6.490  0.2569  2.2408  0.2395
18045SOL     OW59970   1.021   1.995   0.455  0.4467  0.0012  0.0831
18045SOL    HW159971   1.053   2.008   0.545 -1.1307  0.5823  0.5836
18045SOL    HW259972   1.050   2.073   0.408 -0.5978  0.7678  0.6597
18046SOL     OW59973   1.315   9.012   0.202 -0.0139 -0.7383  0.0579
18046SOL    HW159974   1.249   8.992   0.136  0.0711 -1.4231  0.1667
18046SOL    HW259975   1.343   8.926   0.234  3.1500 -0.7480 -2.1699
18047SOL     OW59976   3.013   6.786   9.494  0.2975 -0.3091  0.0695
18047SOL    HW159977   3.057   6.812   9.575 -1.5155  1.6077  0.5024
18047SOL    HW259978   3.072   6.817   9.425  1.2204 -0.7823  0.6149
18048SOL     OW59979   7.128   6.493   6.261  0.7853 -0.2427 -0.0410
18048SOL    HW159980   7.075   6.463   6.186  1.7314 -1.8352 -0.1105
18048SOL    HW259981   7.190   6.556   6.223 -0.2527  0.7445 -0.1588
18049SOL     OW59982   8.391   4.096   2.298  0.1352  0.1861  0.2939
18049SOL    HW159983   8.431   4.111   2.384 -0.9764  1.8767  0.5796
18049SOL    HW259984   8.437   4.156   2.239 -0.3901  0.4342  0.1300
18050SOL     OW59985   0.170   4.554  10.124  0.2320 -0.6030  0.0450
18050SOL    HW159986   0.189   4.488  10.190 -0.8455 -1.5421 -0.5445
18050SOL    HW259987   0.166   4.505  10.041 -0.0317  0.2871 -0.4851
18051SOL     OW59988   3.487   8.718  10.184 -0.6499  0.1028 -0.0854
18051SOL    HW159989   3.569   8.768  10.180 -0.4076 -0.0746  1.6793
18051SOL    HW259990   3.464   8.703  10.092  1.1172  0.4448 -0.6374
18052SOL     OW59991   0.668   8.288   9.629 -0.3754  0.1727  0.2151
18052SOL    HW159992   0.715   8.212   9.595  0.2281  0.3791  0.5883
18052SOL    HW259993   0.724   8.324   9.697 -0.7063  0.8923  0.1225
18053SOL     OW59994   6.409   9.415   5.501 -0.3808  0.0580  0.5797
18053SOL    HW159995   6.357   9.428   5.421 -1.7465  1.1185  1.5808
18053SOL    HW259996   6.494   9.453   5.481 -1.1465  1.5890  0.0455
18054SOL     OW59997  10.350   2.148   8.624 -0.0424 -0.2893 -0.1881
18054SOL    HW159998  10.401   2.090   8.680 -0.0744 -1.5711 -1.4387
18054SOL    HW259999  10.259   2.128   8.646 -0.0443 -0.2737 -0.1832
18055SOL     OW60000   0.524   0.734   4.165 -0.1151  0.0184 -0.0616
18055SOL    HW160001   0.497   0.796   4.098  2.2072  0.0359 -1.0742
18055SOL    HW260002   0.559   0.788   4.236  2.9111 -0.0096 -1.3901
18056SOL     OW60003   8.849   3.042   0.369  0.1365 -0.0181  0.0671
18056SOL    HW160004   8.847   3.027   0.274 -0.8300 -0.6093  0.1635
18056SOL    HW260005   8.890   3.128   0.379 -0.5863  0.4687 -0.9525
18057SOL     OW60006   2.611   4.275   2.629  0.1912 -0.5701  0.5808
18057SOL    HW160007   2.626   4.239   2.716  2.3023  0.2842  0.6207
18057SOL    HW260008   2.517   4.264   2.615 -0.5511  0.8105  3.6431
18058SOL     OW60009  10.650   2.525   2.634  0.3373  0.6141  0.2456
18058SOL    HW160010  10.576   2.584   2.618 -0.4976 -0.6661 -0.8318
18058SOL    HW260011  10.675   2.493   2.547  2.4111  1.2697  0.5436
18059SOL     OW60012   9.416   0.705  10.250  0.0254 -0.5964  0.2712
18059SOL    HW160013   9.464   0.726  10.331  0.9839  0.6211 -0.5857
18059SOL    HW260014   9.336   0.757  10.255 -0.3298 -1.1770  0.8158
18060SOL     OW60015   3.980   0.716   1.343  0.1080 -0.4658  0.6822
18060SOL    HW160016   4.023   0.762   1.415  3.3258 -1.1519 -0.6291
18060SOL    HW260017   4.009   0.625   1.352  0.4512 -0.5968 -1.3559
18061SOL     OW60018   8.729   4.470   5.251  0.1825  0.0256 -0.5753
18061SOL    HW160019   8.690   4.390   5.286  2.0184 -1.3841 -1.5711
18061SOL    HW260020   8.707   4.470   5.158  2.3353 -0.7722 -1.1511
18062SOL     OW60021   9.298   4.816   0.510  0.1164  0.1437  0.3168
18062SOL    HW160022   9.223   4.875   0.507 -0.4702 -0.6250 -0.7155
18062SOL    HW260023   9.373   4.874   0.525 -0.5430  1.0619  0.1615
18063SOL     OW60024   0.443   0.178   1.329  0.3081 -0.3287  0.4522
18063SOL    HW160025   0.438   0.154   1.422 -1.6607 -1.1252  0.1764
18063SOL    HW260026   0.503   0.252   1.327  2.4988 -1.9218  2.0154
18064SOL     OW60027   9.421   7.413  10.030 -0.0776  0.7016  0.0338
18064SOL    HW160028   9.511   7.435  10.005 -0.3811  2.5866  0.3743
18064SOL    HW260029   9.402   7.330   9.986  2.1243 -0.2159  0.7069
18065SOL     OW60030   3.777   5.672   8.941  0.3083 -0.0096  0.2059
18065SOL    HW160031   3.846   5.607   8.928  0.8770  0.4803  0.6934
18065SOL    HW260032   3.817   5.754   8.912  0.9791  0.7984  3.1007
18066SOL     OW60033   4.143   5.981   8.341  0.5249  0.5552  1.0478
18066SOL    HW160034   4.123   5.927   8.265  1.1098  1.8977 -0.0889
18066SOL    HW260035   4.065   6.036   8.352  1.3512  2.0060 -0.0631
18067SOL     OW60036   7.846   2.339   7.369 -0.3935  0.6788  0.3813
18067SOL    HW160037   7.901   2.359   7.445  0.5271 -1.0826  0.2296
18067SOL    HW260038   7.777   2.404   7.372 -0.4825  0.5644  2.8378
18068SOL     OW60039   7.772   2.979   9.529  0.2846 -0.3906  0.2442
18068SOL    HW160040   7.781   2.943   9.441 -2.0373  2.2841 -1.2722
18068SOL    HW260041   7.833   3.053   9.531 -1.6321  1.3045 -0.2761
18069SOL     OW60042   4.396   6.367   2.599  0.3986 -0.2269  0.4383
18069SOL    HW160043   4.401   6.311   2.677 -1.0780  0.9414  1.4298
18069SOL    HW260044   4.369   6.452   2.633 -2.9215 -0.3269 -1.5837
18070SOL     OW60045   1.919   3.567   5.256  0.4317  0.0730  0.0442
18070SOL    HW160046   1.855   3.637   5.268 -3.1123 -2.6806 -1.0848
18070SOL    HW260047   1.937   3.566   5.162  1.2124  0.0322  0.1863
18071SOL     OW60048   4.593   7.601  10.432 -0.2577 -0.5753  0.2989
18071SOL    HW160049   4.633   7.606  10.518 -0.9957  3.1816  0.6146
18071SOL    HW260050   4.516   7.545  10.444  0.0780 -0.7253  1.8701
18072SOL     OW60051   7.121   3.350   8.355  0.3274  0.7668 -0.0953
18072SOL    HW160052   7.130   3.425   8.296 -2.9125  2.0022  0.7490
18072SOL    HW260053   7.034   3.360   8.394  0.1416 -2.9050  0.8720
18073SOL     OW60054   1.751   0.083   3.305  0.2524 -0.1853 -0.3026
18073SOL    HW160055   1.816   0.114   3.241 -1.3554 -0.1200 -1.9740
18073SOL    HW260056   1.692   0.157   3.316 -1.1300 -1.1494 -0.9891
18074SOL     OW60057   5.984   4.654  10.411  0.4416 -0.6039  0.5261
18074SOL    HW160058   5.923   4.728  10.417  0.1860 -0.5906 -1.4564
18074SOL    HW260059   6.070   4.695  10.402  0.5999 -0.6057  1.8776
18075SOL     OW60060   0.011  10.595   6.206 -0.2795 -0.5150  0.0343
18075SOL    HW160061  -0.062  10.589   6.144 -0.3043  0.3553 -0.0317
18075SOL    HW260062   0.077  10.646   6.161  0.0663 -0.6369  0.3940
18076SOL     OW60063   0.609   2.933   5.948 -0.2474 -0.4099  0.2956
18076SOL    HW160064   0.530   2.881   5.937 -1.6854  0.3764  4.7213
18076SOL    HW260065   0.581   3.023   5.931  0.1910 -0.2887  0.1925
18077SOL     OW60066   2.153   0.632   9.236  0.1347  0.7751  0.0357
18077SOL    HW160067   2.119   0.625   9.147 -0.2431 -1.2374  0.2875
18077SOL    HW260068   2.085   0.592   9.290  0.1087  2.4647  1.3181
18078SOL     OW60069   6.063   5.654   8.882  0.0427  0.0223 -0.1245
18078SOL    HW160070   6.134   5.700   8.926  1.0927 -1.2679 -0.3874
18078SOL    HW260071   6.107   5.603   8.813 -1.2280 -0.2270 -0.7827
18079SOL     OW60072   0.158   1.549   0.468  0.0077  0.1049  0.6363
18079SOL    HW160073   0.142   1.478   0.530  2.1596 -0.1599  0.9573
18079SOL    HW260074   0.070   1.583   0.448 -1.2353 -3.2157 -0.3048
18080SOL     OW60075  10.069   1.928   2.541  0.3205  0.2078 -0.0666
18080SOL    HW160076  10.154   1.971   2.550  0.0509  0.4946  1.3501
18080SOL    HW260077  10.027   1.973   2.467  1.8912 -0.8522 -1.7091
18081SOL     OW60078   6.849   7.119   8.465 -0.0035 -0.2468  0.5380
18081SOL    HW160079   6.905   7.145   8.392 -1.9318  0.8204 -0.6587
18081SOL    HW260080   6.826   7.028   8.446 -0.3731 -0.0215 -0.1433
18082SOL     OW60081   1.805   4.095   4.733 -0.0340 -0.0136  0.1430
18082SOL    HW160082   1.782   4.088   4.826 -1.3808 -0.0108 -0.1651
18082SOL    HW260083   1.823   4.005   4.706 -2.2713 -0.4323 -0.1885
18083SOL     OW60084   9.532   5.563   2.222  0.2895  0.6631 -0.6729
18083SOL    HW160085   9.593   5.510   2.172 -2.4197 -0.9455 -2.5048
18083SOL    HW260086   9.449   5.517   2.217 -1.0179  2.3731  2.2690
18084SOL     OW60087   5.889   2.104   5.522 -0.4722  0.5593  0.3899
18084SOL    HW160088   5.937   2.178   5.484 -0.2539  0.7757  1.0662
18084SOL    HW260089   5.804   2.140   5.545 -0.3371  0.6285  0.7944
18085SOL     OW60090   3.031   3.884   4.992  0.1100 -0.0397  0.3942
18085SOL    HW160091   2.953   3.937   5.006 -0.6308 -1.0082  0.0135
18085SOL    HW260092   3.022   3.851   4.903  0.1757 -1.4189  0.8842
18086SOL     OW60093   3.645   2.821   4.171  0.0470  0.1563  0.4892
18086SOL    HW160094   3.648   2.867   4.255 -0.3778  0.4910  0.3279
18086SOL    HW260095   3.659   2.890   4.106  1.9543 -0.3297  0.3298
18087SOL     OW60096  10.822   5.548   8.324 -0.3848 -0.1283 -0.4197
18087SOL    HW160097  10.825   5.602   8.246 -0.7295  1.1243  0.4019
18087SOL    HW260098  10.913   5.541   8.353 -0.5476  2.1712  0.8604
18088SOL     OW60099   0.420   6.163   8.098 -0.1235  0.1278 -0.0038
18088SOL    HW160100   0.436   6.070   8.111 -0.8348 -0.3130 -1.9550
18088SOL    HW260101   0.506   6.200   8.079  0.0093 -0.3589 -0.3734
18089SOL     OW60102   9.617   2.886   9.892 -0.0821 -0.1446  0.0893
18089SOL    HW160103   9.589   2.794   9.889  0.8493 -0.4751  0.7977
18089SOL    HW260104   9.709   2.882   9.921  0.5158  0.9238 -1.5395
18090SOL     OW60105   7.392   3.675   9.832 -0.0984 -0.0149 -0.4381
18090SOL    HW160106   7.389   3.719   9.747 -1.2368  1.8825  0.5034
18090SOL    HW260107   7.305   3.636   9.842 -0.1657  0.2654  0.0887
18091SOL     OW60108   4.786   1.368   5.160 -0.0992 -0.1404 -0.6028
18091SOL    HW160109   4.834   1.450   5.170  0.5080 -0.4657 -0.7629
18091SOL    HW260110   4.746   1.373   5.073  1.2907 -0.6843 -1.3033
18092SOL     OW60111  10.590   4.356   8.798 -0.0913 -0.0035  0.1024
18092SOL    HW160112  10.520   4.378   8.859 -0.9848 -0.5532 -0.6858
18092SOL    HW260113  10.544   4.328   8.718  1.0095 -1.1761 -0.1581
18093SOL     OW60114  10.169   5.646  10.281 -0.2741 -0.0024 -0.0286
18093SOL    HW160115  10.135   5.615  10.197 -0.4900  1.1235 -0.3658
18093SOL    HW260116  10.127   5.588  10.346 -1.6354  0.3499 -0.5569
18094SOL     OW60117   8.046   3.445   2.815  0.4179  0.0822 -0.2321
18094SOL    HW160118   8.087   3.359   2.815 -0.6524 -0.4484  0.5981
18094SOL    HW260119   8.088   3.492   2.743  0.4876 -1.3926 -1.1897
18095SOL     OW60120   1.770   5.380   0.778  0.2512  0.3821 -0.2030
18095SOL    HW160121   1.682   5.393   0.741  0.7828  3.1460 -0.7826
18095SOL    HW260122   1.814   5.322   0.716 -0.8968 -0.3443 -0.3591
18096SOL     OW60123   5.241   2.872   2.054  0.3665  0.1386 -0.2052
18096SOL    HW160124   5.251   2.947   2.112 -1.6094  1.1982 -1.1095
18096SOL    HW260125   5.214   2.800   2.111  0.0429  0.7386  0.4127
18097SOL     OW60126   1.383   5.177   0.580  0.3016  0.2776 -0.3507
18097SOL    HW160127   1.366   5.167   0.487  0.5057  2.7182 -0.7134
18097SOL    HW260128   1.380   5.088   0.615 -0.4798 -0.6202 -2.5458
18098SOL     OW60129   8.489   1.057   5.211  0.4667  0.5527  0.1770
18098SOL    HW160130   8.455   1.084   5.126 -1.4158  1.9870  1.3206
18098SOL    HW260131   8.578   1.025   5.192 -0.1162  0.2672 -2.3735
18099SOL     OW60132   2.910   0.070   2.594 -0.2109  0.2292 -0.9470
18099SOL    HW160133   2.952   0.083   2.509 -0.5334  0.4398 -1.0745
18099SOL    HW260134   2.864  -0.013   2.586  1.1178 -0.5865 -0.4259
18100SOL     OW60135   0.673   8.180   1.626  0.3566 -0.1608  0.1962
18100SOL    HW160136   0.732   8.115   1.587  0.9957  1.2468 -1.3037
18100SOL    HW260137   0.585   8.147   1.607  0.6471 -1.2029  0.5800
18101SOL     OW60138   7.171   0.376   5.545  0.1680 -0.5411 -0.1891
18101SOL    HW160139   7.113   0.423   5.485  0.2236 -0.5344 -0.2375
18101SOL    HW260140   7.146   0.407   5.632  0.8075  0.2314 -0.2781
18102SOL     OW60141   1.290   4.222   4.761 -0.0930  0.6648  0.1470
18102SOL    HW160142   1.311   4.300   4.709  0.5538  0.2379 -0.2548
18102SOL    HW260143   1.375   4.182   4.779 -0.4355 -0.1025  0.1050
18103SOL     OW60144   1.185   2.861   6.054  0.1505 -0.2392  0.3222
18103SOL    HW160145   1.127   2.785   6.053  0.2874 -0.3660 -1.7277
18103SOL    HW260146   1.128   2.936   6.037  0.3244 -0.1599  0.0734
18104SOL     OW60147   0.151   1.612   3.162 -0.4877 -0.0180 -0.5607
18104SOL    HW160148   0.166   1.554   3.236 -0.0861  0.0746 -0.5654
18104SOL    HW260149   0.141   1.553   3.087  0.5661 -0.0684 -0.6753
18105SOL     OW60150   2.885   0.828   2.177 -0.1384  0.5543  0.8445
18105SOL    HW160151   2.836   0.770   2.235 -0.8555  0.3231  0.0327
18105SOL    HW260152   2.818   0.868   2.121  0.5042  0.9985  0.3757
18106SOL     OW60153   4.322   3.676   5.985 -0.3369 -0.2202 -0.0490
18106SOL    HW160154   4.391   3.729   5.946 -0.7558  0.4127  0.0418
18106SOL    HW260155   4.356   3.587   5.985  0.2324 -0.0067 -0.5545
18107SOL     OW60156   1.631   2.208   7.507 -0.3864 -0.0604  0.1975
18107SOL    HW160157   1.607   2.262   7.583  0.6359 -0.2092  0.6344
18107SOL    HW260158   1.602   2.259   7.431 -1.1817  0.2088  0.6719
18108SOL     OW60159   8.610   0.497   0.037 -0.2650 -0.4599 -0.3021
18108SOL    HW160160   8.641   0.559  -0.029  1.6452 -0.7271  0.2970
18108SOL    HW260161   8.582   0.551   0.111 -1.3686 -0.2156 -0.8731
18109SOL     OW60162   5.752   3.478   0.994 -0.0066 -0.4669  0.3694
18109SOL    HW160163   5.826   3.468   0.935  0.9022 -1.5544  1.6208
18109SOL    HW260164   5.725   3.569   0.984  0.6326 -0.4148 -1.0888
18110SOL     OW60165   8.337   7.899   8.108 -0.0058  0.1582  0.8705
18110SOL    HW160166   8.303   7.866   8.025 -1.2092  1.9745  0.6023
18110SOL    HW260167   8.394   7.971   8.084 -1.7604  1.8826  1.6397
18111SOL     OW60168   4.587   4.147   5.159 -0.3586  0.9625 -0.1884
18111SOL    HW160169   4.633   4.107   5.086  0.7474  0.6615  0.6408
18111SOL    HW260170   4.558   4.232   5.126  0.1445  0.8391 -0.9673
18112SOL     OW60171   3.765   2.194   0.766 -0.5047 -0.1501  0.4539
18112SOL    HW160172   3.784   2.131   0.835  1.2694  0.0932  0.2551
18112SOL    HW260173   3.777   2.144   0.685  0.0562  0.1975  0.3116
18113SOL     OW60174   4.021   2.216   4.409 -1.2464 -0.0966  0.2029
18113SOL    HW160175   4.025   2.139   4.466 -1.6504  0.2776  0.7555
18113SOL    HW260176   4.109   2.254   4.416 -1.0968 -0.4100  0.0607
18114SOL     OW60177   1.155   4.790   2.921 -0.0742  0.4025  0.4054
18114SOL    HW160178   1.164   4.703   2.882 -0.6454 -0.0195  1.1888
18114SOL    HW260179   1.238   4.804   2.967  1.4193  1.7244 -2.4734
18115SOL     OW60180   2.447   9.446   5.080  0.1084  0.4110  0.2443
18115SOL    HW160181   2.415   9.409   5.162  0.5830 -0.5446  0.0137
18115SOL    HW260182   2.505   9.379   5.044  0.0226  0.8684 -0.8015
18116SOL     OW60183   3.112  10.001   8.274  0.1539 -0.1148  0.3794
18116SOL    HW160184   3.131   9.986   8.366  1.5989 -1.4473 -0.0954
18116SOL    HW260185   3.141   9.921   8.230 -0.4169  0.5311 -1.2455
18117SOL     OW60186   5.646   6.202   3.350 -0.5905  0.3899  0.0217
18117SOL    HW160187   5.729   6.173   3.389  0.0697  0.3240 -1.3758
18117SOL    HW260188   5.635   6.292   3.382 -0.2454  0.2269  0.6227
18118SOL     OW60189   3.628   2.305   1.666 -0.1880  0.4455  0.1558
18118SOL    HW160190   3.703   2.351   1.705  0.8500 -1.0643  0.0180
18118SOL    HW260191   3.667   2.233   1.617 -1.6946  0.1840 -0.7137
18119SOL     OW60192   2.228   8.728   6.312  0.5173  0.4256  0.2030
18119SOL    HW160193   2.240   8.673   6.390 -0.7085 -1.8624 -1.1145
18119SOL    HW260194   2.171   8.798   6.342 -1.1700 -1.2278  1.1076
18120SOL     OW60195   5.844   4.366   3.210 -0.3127 -0.2171 -0.7767
18120SOL    HW160196   5.898   4.362   3.288 -1.0651 -2.2916 -0.2931
18120SOL    HW260197   5.902   4.340   3.138  0.0503  0.4471 -0.7309
18121SOL     OW60198   6.119   1.386   9.618  0.4409  0.2898  0.1822
18121SOL    HW160199   6.170   1.453   9.663  2.5179 -1.0159 -0.1029
18121SOL    HW260200   6.165   1.373   9.535  0.9107 -2.4070  0.7897
18122SOL     OW60201   8.118   4.166  10.694  0.2123 -0.5142 -0.3001
18122SOL    HW160202   8.131   4.117  10.613 -0.8434 -2.1641  0.4624
18122SOL    HW260203   8.190   4.138  10.750  0.6038  0.1726 -0.4502
18123SOL     OW60204   5.303   8.938   2.810  0.2759 -0.4744  0.2800
18123SOL    HW160205   5.398   8.946   2.797  0.4748 -1.3023  1.0808
18123SOL    HW260206   5.274   9.026   2.833  0.9164 -0.2916  0.4044
18124SOL     OW60207   7.789   6.024   0.745  0.1617 -0.0116 -0.2772
18124SOL    HW160208   7.809   6.017   0.652  1.0692  0.9858 -0.1738
18124SOL    HW260209   7.841   5.956   0.787 -0.4734 -0.6532 -0.5225
18125SOL     OW60210   9.034   2.952   7.327 -0.5462 -0.3651  0.2615
18125SOL    HW160211   8.964   3.011   7.298 -1.6832 -1.0233  1.5578
18125SOL    HW260212   9.011   2.929   7.416  0.6276 -1.6786  0.2612
18126SOL     OW60213   0.699   1.320   0.364 -0.1922 -0.2444  0.0491
18126SOL    HW160214   0.698   1.416   0.364  1.6029 -0.1630  1.9215
18126SOL    HW260215   0.609   1.295   0.386 -0.2915  1.0536  1.2457
18127SOL     OW60216   2.353   2.316   1.852  0.0616 -0.2973 -0.5162
18127SOL    HW160217   2.260   2.331   1.835 -0.0323 -1.5788 -1.2611
18127SOL    HW260218   2.369   2.358   1.936 -0.6707  1.8322 -1.3667
18128SOL     OW60219   3.256   1.157   4.957 -0.4888  0.1876  0.6791
18128SOL    HW160220   3.179   1.193   4.914  0.3096  2.9724  1.3748
18128SOL    HW260221   3.330   1.184   4.902  0.4406  2.8296  2.9360
18129SOL     OW60222   4.268   4.449  10.229 -0.6576 -0.1725 -0.0548
18129SOL    HW160223   4.228   4.459  10.142  0.6024  1.3166 -0.5255
18129SOL    HW260224   4.291   4.539  10.254 -1.1752 -0.5625  1.9341
18130SOL     OW60225   9.817  10.772   3.043  0.2219  0.0537 -0.1471
18130SOL    HW160226   9.870  10.796   2.967  1.2644  0.1058  0.5708
18130SOL    HW260227   9.795  10.856   3.084  0.5096 -0.0224  0.1649
18131SOL     OW60228   5.685   8.689   0.324  0.3891 -0.4746  0.6601
18131SOL    HW160229   5.675   8.785   0.323 -0.4909 -0.5387  1.5076
18131SOL    HW260230   5.703   8.669   0.416  0.5677 -1.1238  0.4839
18132SOL     OW60231   3.266   6.134   5.924 -0.2410 -0.2813  0.8245
18132SOL    HW160232   3.211   6.174   5.856  1.8862 -1.3923 -1.6943
18132SOL    HW260233   3.229   6.047   5.936  0.0209 -0.4708  0.2771
18133SOL     OW60234   0.037   1.700  10.547 -0.2462  0.3387  0.1001
18133SOL    HW160235   0.045   1.794  10.530 -1.4701 -0.0236 -3.0232
18133SOL    HW260236   0.082   1.658  10.474  0.5175 -1.5768  1.5610
18134SOL     OW60237   1.329   8.712  10.241  0.0652 -0.5826 -0.5388
18134SOL    HW160238   1.378   8.644  10.194 -0.7461 -1.2849 -0.3983
18134SOL    HW260239   1.374   8.793  10.219  2.0898 -1.3076  0.6077
18135SOL     OW60240   9.988   3.051  10.559  0.3362  0.4003 -0.0166
18135SOL    HW160241   9.903   3.029  10.597  0.0333  0.5766 -0.5862
18135SOL    HW260242  10.014   3.132  10.603  0.0890  0.4903 -0.0380
18136SOL     OW60243   8.927   2.849   7.560 -1.1789 -0.2226 -0.3872
18136SOL    HW160244   8.878   2.931   7.570 -1.3375 -0.3838  0.1641
18136SOL    HW260245   8.958   2.828   7.648 -0.1493 -0.1507 -0.7199
18137SOL     OW60246   5.443   3.337   5.287 -0.6454 -0.2858 -0.5717
18137SOL    HW160247   5.356   3.363   5.317 -0.2364  0.8758 -0.3256
18137SOL    HW260248   5.480   3.289   5.361 -1.0197 -0.6544 -0.6220
18138SOL     OW60249   2.196   0.235   4.058 -0.6478  0.2365  0.0354
18138SOL    HW160250   2.174   0.284   4.137 -0.2488 -1.7476  1.4495
18138SOL    HW260251   2.288   0.210   4.069 -1.3722 -2.6063  0.4739
18139SOL     OW60252   9.033   5.639   3.875  0.2385 -0.4286 -0.7795
18139SOL    HW160253   9.112   5.634   3.930 -0.0531 -0.3688 -0.3467
18139SOL    HW260254   8.986   5.558   3.894 -0.6281  0.2862  0.2528
18140SOL     OW60255   0.928   7.483   6.963  0.0198  0.2354 -0.4950
18140SOL    HW160256   0.914   7.449   6.874 -1.6280 -0.0840 -0.1484
18140SOL    HW260257   0.843   7.473   7.006  0.2864  2.0244  0.5716
18141SOL     OW60258   4.584   2.108   8.694  0.4151 -0.7350 -0.3340
18141SOL    HW160259   4.510   2.094   8.752 -0.0856 -6.0059 -1.6976
18141SOL    HW260260   4.638   2.029   8.705  3.5478  0.8964 -2.5205
18142SOL     OW60261   5.311   6.293   3.105 -0.1928 -0.1395 -0.0428
18142SOL    HW160262   5.356   6.365   3.061  0.0145 -0.2180  0.0406
18142SOL    HW260263   5.381   6.236   3.136 -0.3433 -0.1777  0.2319
18143SOL     OW60264   2.802  10.539   3.177 -0.0954 -0.5681 -0.2937
18143SOL    HW160265   2.740  10.513   3.109 -1.1450 -0.3225  0.5369
18143SOL    HW260266   2.754  10.604   3.229  0.6979 -0.7059  0.6371
18144SOL     OW60267   0.109   1.243   8.786  0.3103 -0.0959  0.5177
18144SOL    HW160268   0.106   1.147   8.783  2.4284 -0.2214  0.6093
18144SOL    HW260269   0.059   1.271   8.709  1.4184 -1.3649 -0.7318
18145SOL     OW60270   6.826   4.534   7.559 -0.1032 -0.1914  0.0124
18145SOL    HW160271   6.811   4.628   7.569 -1.0410 -0.4406  1.1206
18145SOL    HW260272   6.858   4.524   7.469 -0.2319  1.1507 -0.1985
18146SOL     OW60273   1.296   3.353   7.999  0.2033  0.1682  0.5471
18146SOL    HW160274   1.259   3.366   7.911  0.2345  1.6740  0.7256
18146SOL    HW260275   1.386   3.326   7.983  0.2130  0.4500  0.0964
18147SOL     OW60276   5.572   5.077   3.081  0.6549 -0.3335  0.4307
18147SOL    HW160277   5.523   5.015   3.026  1.4997 -1.3594  0.7881
18147SOL    HW260278   5.526   5.160   3.071 -0.0035 -0.8162 -0.7553
18148SOL     OW60279   0.749   1.837   8.020  0.1475  0.1389  0.6011
18148SOL    HW160280   0.821   1.888   7.983 -0.2048 -0.1688 -0.5416
18148SOL    HW260281   0.672   1.866   7.971 -0.2598 -0.5909  0.7984
18149SOL     OW60282   6.030   9.415   2.976 -0.4774 -0.0482 -0.2642
18149SOL    HW160283   6.086   9.413   2.898 -1.6532 -0.0926 -1.1438
18149SOL    HW260284   5.942   9.432   2.941 -1.0970 -0.5252  1.0180
18150SOL     OW60285   1.454   3.959   9.637  0.6543  0.0039 -0.2124
18150SOL    HW160286   1.519   3.898   9.601  0.9901 -0.0551  0.4832
18150SOL    HW260287   1.460   4.036   9.580  3.1662  1.0633  1.2849
18151SOL     OW60288  10.749   9.381   1.428 -0.0184 -0.5473 -0.7324
18151SOL    HW160289  10.762   9.331   1.347 -0.1160 -1.1780 -0.3620
18151SOL    HW260290  10.662   9.356   1.458  0.3981 -1.0744  0.0871
18152SOL     OW60291   7.401   2.811  10.826  0.3708  0.2597  0.2265
18152SOL    HW160292   7.308   2.806  10.805  0.4763  1.1326 -0.4620
18152SOL    HW260293   7.445   2.823  10.742  1.0296  0.8393  0.6461
18153SOL     OW60294   4.893   6.196   2.346  0.1666 -1.0570 -0.2089
18153SOL    HW160295   4.807   6.204   2.305  0.6322  2.2997 -0.7709
18153SOL    HW260296   4.939   6.132   2.292 -0.8207 -0.2555 -2.0959
18154SOL     OW60297   2.820  10.556   4.479 -0.0146 -0.7714 -0.6993
18154SOL    HW160298   2.776  10.512   4.406  2.7689  1.3147 -3.9432
18154SOL    HW260299   2.781  10.643   4.483  1.0882 -0.2347 -1.0175
18155SOL     OW60300   5.908   3.244   1.487  0.8957  0.3744 -0.6437
18155SOL    HW160301   5.867   3.321   1.448 -1.3292 -0.6707 -0.5258
18155SOL    HW260302   5.992   3.236   1.442  0.3506  1.7555 -1.9969
18156SOL     OW60303   3.366   7.340   7.546 -0.0335  0.4209 -0.3467
18156SOL    HW160304   3.321   7.334   7.630  0.9177  1.1655  0.2515
18156SOL    HW260305   3.309   7.295   7.484 -1.6790  1.5145  0.3226
18157SOL     OW60306   7.421   8.466   5.259 -0.5682  0.5636  0.1990
18157SOL    HW160307   7.362   8.456   5.185 -0.7053  0.7445  0.2840
18157SOL    HW260308   7.400   8.552   5.296 -0.6786  0.3702  0.6010
18158SOL     OW60309  10.834   2.981   7.717  0.0816  0.3210 -0.1893
18158SOL    HW160310  10.843   3.076   7.722  0.7859  0.2224  1.0390
18158SOL    HW260311  10.828   2.953   7.809  0.7287 -0.8823 -0.4918
18159SOL     OW60312   8.612   1.599   0.377  0.9288  0.7792  0.3380
18159SOL    HW160313   8.613   1.642   0.462 -4.3835 -1.4428  1.9366
18159SOL    HW260314   8.616   1.505   0.397  0.3698  0.1940 -1.9422
18160SOL     OW60315   3.300   7.108   4.716  0.2232  0.4906 -0.1556
18160SOL    HW160316   3.388   7.094   4.750  0.0147 -0.4076  0.0356
18160SOL    HW260317   3.303   7.078   4.625  0.1577  0.5979 -0.1932
18161SOL     OW60318   6.725   7.357   2.529 -0.0983 -0.3329  0.3666
18161SOL    HW160319   6.642   7.312   2.513 -1.7264  2.9450 -1.6507
18161SOL    HW260320   6.725   7.375   2.623  0.1019 -3.2774  1.0402
18162SOL     OW60321   5.354   3.805   0.454  0.0734  0.2836 -0.2649
18162SOL    HW160322   5.381   3.744   0.523  1.3662 -1.1466 -1.9347
18162SOL    HW260323   5.305   3.751   0.392  0.5663  1.0900 -1.3862
18163SOL     OW60324   3.366   5.549   3.319 -0.0061  0.3596  0.0042
18163SOL    HW160325   3.391   5.634   3.283  0.5884  0.6269  1.0068
18163SOL    HW260326   3.431   5.488   3.283  1.3158  0.8214  1.4988
18164SOL     OW60327   0.935   5.979  10.869  0.2353  0.6643 -0.2485
18164SOL    HW160328   0.905   6.009  10.783  0.3735 -0.5469 -0.7351
18164SOL    HW260329   0.864   6.004  10.929 -2.2687 -2.7999 -1.4801
18165SOL     OW60330   6.411   3.624   9.372  0.6748  0.1114  0.3458
18165SOL    HW160331   6.361   3.560   9.423  0.2876 -0.6418 -0.9361
18165SOL    HW260332   6.357   3.703   9.373  0.8339  0.2162  1.3693
18166SOL     OW60333   2.027   3.897   2.889 -0.4404 -0.2032  0.4103
18166SOL    HW160334   2.025   3.809   2.925 -1.1559 -0.0905  0.6683
18166SOL    HW260335   1.986   3.889   2.803 -0.7362 -0.0798  0.5382
18167SOL     OW60336   0.194   6.151   7.957  0.0916 -0.2202  0.1068
18167SOL    HW160337   0.267   6.138   8.018 -0.2860  0.9056  0.8216
18167SOL    HW260338   0.230   6.207   7.889 -0.4792  1.5960  1.2416
18168SOL     OW60339  10.206   1.126   2.992  0.0890  0.4073 -0.5033
18168SOL    HW160340  10.238   1.084   2.912  0.8574 -0.1888  0.1023
18168SOL    HW260341  10.251   1.080   3.063 -1.2436  0.3377  0.3261
18169SOL     OW60342   2.629   6.399   6.594  0.0913  0.6947  0.8000
18169SOL    HW160343   2.701   6.441   6.548  0.9278  0.1204  1.5632
18169SOL    HW260344   2.552   6.416   6.539  0.8829  0.9010 -0.2621
18170SOL     OW60345   2.447   5.797   1.978  0.5900 -0.2752  0.2685
18170SOL    HW160346   2.479   5.805   1.888  1.1383  0.8678  0.5485
18170SOL    HW260347   2.400   5.879   1.994 -1.1568 -1.2767  0.3945
18171SOL     OW60348   9.601   3.828   7.685 -0.2868  0.4291 -0.5710
18171SOL    HW160349   9.557   3.913   7.681 -0.5586  0.5366  2.2529
18171SOL    HW260350   9.535   3.769   7.721  0.7670 -0.2697  0.2781
18172SOL     OW60351   5.245   9.783   2.007 -0.6746 -0.1404  0.1129
18172SOL    HW160352   5.164   9.805   2.053 -0.2881  0.1613  0.6759
18172SOL    HW260353   5.303   9.858   2.025 -0.5615  0.0488 -0.9948
18173SOL     OW60354   9.397   1.089   4.712  0.3190  0.2505 -0.0593
18173SOL    HW160355   9.482   1.108   4.672 -0.1396  0.3854 -0.9934
18173SOL    HW260356   9.369   1.007   4.669 -0.8834  1.2072 -1.1886
18174SOL     OW60357   3.937   3.379  10.410 -0.8282 -0.1522 -0.7320
18174SOL    HW160358   3.882   3.375  10.332 -0.2660 -0.8470 -1.1076
18174SOL    HW260359   3.958   3.287  10.428  0.9583  0.1424 -1.1499
18175SOL     OW60360  10.730   4.047   3.020 -0.2144 -0.2698  0.3035
18175SOL    HW160361  10.824   4.065   3.012 -0.1388 -0.9537 -0.6235
18175SOL    HW260362  10.691   4.092   2.945 -0.1812 -2.6231 -1.2554
18176SOL     OW60363   8.052   9.697   3.066 -0.2395  0.2202 -0.1580
18176SOL    HW160364   8.095   9.726   2.986 -1.1215  0.6232 -0.5034
18176SOL    HW260365   8.107   9.730   3.137  1.7125 -1.9371 -0.5575
18177SOL     OW60366   4.644   4.246   9.512  0.8922 -0.3309 -0.3799
18177SOL    HW160367   4.605   4.171   9.555  1.3967 -1.1021 -1.2115
18177SOL    HW260368   4.572   4.308   9.499  0.5719 -0.4473  0.7533
18178SOL     OW60369   0.003   5.100   5.913 -0.2647  0.8234  0.3225
18178SOL    HW160370  -0.018   5.039   5.983 -1.3640  1.6387  0.7266
18178SOL    HW260371  -0.079   5.146   5.895  0.1196  1.0032 -1.1375
18179SOL     OW60372   1.210  10.080   0.552 -0.2651 -0.1610 -0.2679
18179SOL    HW160373   1.164  10.116   0.628  0.7276 -2.0066  1.3105
18179SOL    HW260374   1.172   9.992   0.542  0.2849 -0.2917 -1.3360
18180SOL     OW60375   8.909   3.233   2.184  0.5787  0.4764 -0.1346
18180SOL    HW160376   8.942   3.162   2.239  0.8400  1.0541  0.4666
18180SOL    HW260377   8.961   3.227   2.104  0.1166 -0.4450 -0.3850
18181SOL     OW60378   4.664   8.612   7.215 -1.1306 -0.4890 -1.1863
18181SOL    HW160379   4.706   8.567   7.142  0.5167  0.9792 -1.1895
18181SOL    HW260380   4.674   8.552   7.289 -1.0661 -1.1365 -1.7101
18182SOL     OW60381   2.950   7.643  10.492  0.2682 -0.1859  0.1738
18182SOL    HW160382   2.959   7.654  10.587 -0.3346  2.0406  0.0457
18182SOL    HW260383   2.856   7.632  10.479  0.1347  1.2416 -0.2497
18183SOL     OW60384   4.881   6.540   5.431 -0.1716 -0.0243  0.8744
18183SOL    HW160385   4.826   6.531   5.509  0.2458 -2.7033  0.9632
18183SOL    HW260386   4.905   6.632   5.429 -2.6142  0.7362  2.2224
18184SOL     OW60387   5.529   8.227   8.141  0.0259 -0.4719  0.0722
18184SOL    HW160388   5.517   8.156   8.078  1.8931  0.1248 -1.0285
18184SOL    HW260389   5.623   8.226   8.160 -0.0423  1.2196  0.6297
18185SOL     OW60390   8.009   5.289   5.753  0.3436  0.0875 -0.1261
18185SOL    HW160391   8.057   5.216   5.712 -2.2632 -0.6001 -2.2270
18185SOL    HW260392   7.980   5.343   5.679 -2.5077  0.1500  0.9335
18186SOL     OW60393   5.295   8.840   9.758 -0.5654  0.3895 -0.1152
18186SOL    HW160394   5.216   8.826   9.811 -0.6188  0.1870 -0.2453
18186SOL    HW260395   5.367   8.825   9.819 -0.6012 -1.4104 -0.4363
18187SOL     OW60396   7.816   6.147   0.263 -0.8593 -0.4081  0.3936
18187SOL    HW160397   7.788   6.121   0.176 -0.1210  0.4372 -0.1121
18187SOL    HW260398   7.759   6.220   0.286  0.5520  1.0124 -0.4459
18188SOL     OW60399   3.058   4.148   9.801  0.3833  0.0923  0.0147
18188SOL    HW160400   3.114   4.181   9.732 -1.5938  1.3490 -1.0696
18188SOL    HW260401   3.118   4.114   9.867  2.3614 -1.7650 -2.5361
18189SOL     OW60402   7.144  10.261   7.528 -0.1051  0.8945 -0.2429
18189SOL    HW160403   7.176  10.304   7.607 -2.1572 -0.0402  1.2086
18189SOL    HW260404   7.201  10.186   7.515  1.3964  2.0864 -0.8034
18190SOL     OW60405   8.534   5.651   5.070 -0.1181 -0.3018  0.7494
18190SOL    HW160406   8.538   5.666   4.975  0.7366  0.4699  0.8941
18190SOL    HW260407   8.625   5.653   5.098 -0.3214 -1.1487  1.5135
18191SOL     OW60408   2.266  10.848   8.400  0.0353 -0.0871 -0.5739
18191SOL    HW160409   2.337  10.841   8.465 -2.7436 -0.3940  2.6861
18191SOL    HW260410   2.252  10.759   8.370  1.1651  0.0205 -1.5197
18192SOL     OW60411   0.156   9.776   4.523  0.5136 -0.1516  0.5060
18192SOL    HW160412   0.217   9.703   4.510 -0.3328 -0.7292 -0.3975
18192SOL    HW260413   0.080   9.753   4.469 -1.0823 -0.1094  2.6081
18193SOL     OW60414   1.756  10.901   3.720 -0.1683 -0.2953  0.4483
18193SOL    HW160415   1.682  10.936   3.770  0.8980  1.6749  0.7725
18193SOL    HW260416   1.819  10.873   3.786  1.1785  2.1644  0.3219
18194SOL     OW60417   6.483   5.233   2.715  0.3269 -0.2267  0.5290
18194SOL    HW160418   6.508   5.240   2.807 -0.7134 -1.1214  0.9008
18194SOL    HW260419   6.534   5.158   2.683  1.0843  0.4083  0.2253
18195SOL     OW60420   0.039   3.045   6.451 -0.1701 -0.0673 -0.0852
18195SOL    HW160421   0.080   3.117   6.498  0.1659  0.0549 -0.5605
18195SOL    HW260422  -0.048   3.038   6.489  0.2414 -0.2595  0.8639
18196SOL     OW60423   4.611   5.824   6.712 -0.1931 -0.1816  0.3341
18196SOL    HW160424   4.706   5.809   6.716  0.0643  0.4449 -2.0437
18196SOL    HW260425   4.584   5.828   6.803  2.0198 -0.6706  1.0816
18197SOL     OW60426   7.715   8.686   7.942  0.1162 -0.6182 -0.2845
18197SOL    HW160427   7.677   8.634   8.013 -1.0707  1.8926  1.0663
18197SOL    HW260428   7.798   8.717   7.976 -0.8210  1.2667  0.4474
18198SOL     OW60429   9.961   4.001   0.556  0.4117 -0.3028  0.4660
18198SOL    HW160430   9.987   4.093   0.561 -1.0561  0.1687 -0.0165
18198SOL    HW260431  10.017   3.957   0.620  1.1463  0.9201  0.7028
18199SOL     OW60432   4.661   8.251   0.509 -0.1364 -0.1290  0.0724
18199SOL    HW160433   4.597   8.280   0.574  0.7285  1.0976  0.4146
18199SOL    HW260434   4.691   8.332   0.468 -0.5910 -0.8750 -1.8177
18200SOL     OW60435   7.223   7.379   7.954  0.2628  0.0003 -0.2472
18200SOL    HW160436   7.299   7.333   7.991  0.4631  0.4906 -0.0337
18200SOL    HW260437   7.212   7.341   7.867  1.8122  1.0788 -0.9670
18201SOL     OW60438   9.259   1.827   8.429  0.0657 -0.2379 -0.4406
18201SOL    HW160439   9.350   1.848   8.406  1.5220  0.2126  4.5876
18201SOL    HW260440   9.261   1.734   8.452  0.2024  0.4138  2.6309
18202SOL     OW60441   5.766  10.443   2.541  0.2197 -0.0014  0.2276
18202SOL    HW160442   5.780  10.375   2.607 -0.9195 -0.0264  0.4546
18202SOL    HW260443   5.799  10.523   2.583 -1.1001  0.1082  1.1117
18203SOL     OW60444   3.257   2.668   4.711 -0.5602  0.4136  1.0227
18203SOL    HW160445   3.303   2.613   4.775  0.5486  0.9521  0.7122
18203SOL    HW260446   3.168   2.633   4.709 -0.0585 -0.9331  1.3315
18204SOL     OW60447   7.574   6.032   7.899 -0.0631 -0.1450 -0.4723
18204SOL    HW160448   7.584   6.108   7.958  1.0612  0.1851 -1.0435
18204SOL    HW260449   7.629   5.965   7.939  0.9662  0.1874 -1.2890
18205SOL     OW60450   0.329   0.604   2.870  0.6461 -0.2308  0.5608
18205SOL    HW160451   0.333   0.568   2.782 -1.1421 -0.7696  0.6651
18205SOL    HW260452   0.341   0.698   2.858  2.4482 -0.4967 -0.0145
18206SOL     OW60453  10.743   9.423   9.716 -0.2777 -0.3884  0.2880
18206SOL    HW160454  10.754   9.518   9.711 -0.6650 -0.3645 -0.2321
18206SOL    HW260455  10.686   9.402   9.642  0.5868 -1.1493 -0.1783
18207SOL     OW60456   5.792   8.031   3.854 -0.3018 -0.3059 -0.4823
18207SOL    HW160457   5.773   7.983   3.774  1.1201 -0.9590 -0.4684
18207SOL    HW260458   5.759   8.119   3.838 -0.0922 -0.4421 -1.7685
18208SOL     OW60459  10.278   3.975   6.027 -0.0215  0.1292 -0.5519
18208SOL    HW160460  10.366   4.002   6.055 -0.2166  0.4099 -0.2027
18208SOL    HW260461  10.226   3.976   6.108 -0.3073 -0.1910 -0.7310
18209SOL     OW60462   2.127   0.130   9.318  0.7988 -0.3821 -0.4985
18209SOL    HW160463   2.064   0.065   9.288 -1.8947  1.3835  0.8160
18209SOL    HW260464   2.145   0.106   9.409  1.7668 -0.6520 -0.7512
18210SOL     OW60465   8.584   6.744   0.090 -0.5095  1.4575 -0.3187
18210SOL    HW160466   8.528   6.814   0.058 -1.0743  1.2182  0.1288
18210SOL    HW260467   8.644   6.726   0.018 -2.6139 -0.0278 -1.8129
18211SOL     OW60468   0.349   1.750   8.157 -0.7680 -0.1606 -0.4918
18211SOL    HW160469   0.390   1.781   8.238 -0.7190 -1.1148 -0.1338
18211SOL    HW260470   0.298   1.674   8.185 -0.8433 -0.4260 -1.3417
18212SOL     OW60471   4.610   1.883   2.994 -0.0088 -0.0627  0.0974
18212SOL    HW160472   4.516   1.895   3.002  0.0631 -0.7485  3.7484
18212SOL    HW260473   4.635   1.935   2.917 -3.0578  1.8508  0.2388
18213SOL     OW60474   9.275   3.872   2.762 -0.0552  0.2950  0.3014
18213SOL    HW160475   9.307   3.960   2.739 -1.2559  0.7680  0.4084
18213SOL    HW260476   9.274   3.825   2.679 -0.8065  0.8433 -0.0092
18214SOL     OW60477   4.876   8.187   7.198  0.4860 -0.6511 -0.3644
18214SOL    HW160478   4.911   8.098   7.197  0.6186 -0.6562  1.5355
18214SOL    HW260479   4.803   8.184   7.259  0.7778  0.6266  0.0920
18215SOL     OW60480   7.005   6.333   7.616 -0.4705  0.6087  0.1132
18215SOL    HW160481   6.952   6.274   7.670  0.4896 -0.8752 -0.5046
18215SOL    HW260482   7.076   6.360   7.674 -0.8991  1.1513  0.3913
18216SOL     OW60483   8.767   2.701   5.190 -0.3714  0.7616 -0.4451
18216SOL    HW160484   8.737   2.735   5.274  1.3288  0.7623  0.1933
18216SOL    HW260485   8.838   2.759   5.165  0.5308 -0.4831 -0.8541
18217SOL     OW60486  10.755   0.037   5.641 -0.0297  0.2332  0.0791
18217SOL    HW160487  10.798  -0.033   5.690 -1.3505  0.0301  0.9829
18217SOL    HW260488  10.750   0.004   5.551 -2.1876 -1.6427  0.7965
18218SOL     OW60489   4.515   6.080   4.977 -0.3094  0.2849 -0.0158
18218SOL    HW160490   4.525   6.151   5.040 -2.3711 -0.3456  1.1218
18218SOL    HW260491   4.564   6.109   4.900 -0.5327  2.6378  0.6515
18219SOL     OW60492   6.594   3.825   8.880 -0.9581 -0.3363  0.5435
18219SOL    HW160493   6.689   3.821   8.891 -0.4854  3.0938 -0.9289
18219SOL    HW260494   6.575   3.756   8.816  0.5846 -0.9247  0.6652
18220SOL     OW60495   0.343   9.400   6.682  0.1905  0.0766 -0.1994
18220SOL    HW160496   0.432   9.382   6.652  0.3050  0.6290 -0.1849
18220SOL    HW260497   0.290   9.401   6.602  0.4600  1.3347 -0.3714
18221SOL     OW60498   6.295   4.721   3.405 -0.5636 -0.4887 -0.3569
18221SOL    HW160499   6.253   4.798   3.367  1.0748  0.3225 -0.6052
18221SOL    HW260500   6.255   4.712   3.491 -1.4969  0.0137 -0.7247
18222SOL     OW60501   9.552   9.038   7.542  0.7494 -0.0209  0.1397
18222SOL    HW160502   9.642   9.007   7.550  0.6569 -0.4208 -0.3075
18222SOL    HW260503   9.560   9.124   7.501  0.9500  0.1062  0.4488
18223SOL     OW60504   1.447   0.729   6.873  0.4326 -0.4188  0.5986
18223SOL    HW160505   1.533   0.763   6.894  0.4651  0.3591 -0.7503
18223SOL    HW260506   1.460   0.674   6.795 -0.0056 -1.7427  1.4126
18224SOL     OW60507   5.014  10.592   3.710 -0.3915 -0.2327 -0.4431
18224SOL    HW160508   5.000  10.624   3.621 -0.5848  1.2789  0.1114
18224SOL    HW260509   5.017  10.671   3.764  1.7894 -0.9613  0.6361
18225SOL     OW60510   6.670   5.479   7.653  0.4540 -0.4753 -0.5464
18225SOL    HW160511   6.589   5.452   7.697  0.1768 -0.1047 -0.8196
18225SOL    HW260512   6.738   5.465   7.719  0.1428 -0.6039 -0.2423
18226SOL     OW60513   6.139   7.512   4.716  0.4123 -0.4694 -0.1424
18226SOL    HW160514   6.173   7.593   4.755  1.0152 -0.0957 -1.3950
18226SOL    HW260515   6.083   7.541   4.644 -1.1815 -1.1338  0.7572
18227SOL     OW60516   0.097   9.171  10.625 -0.1588 -0.2944  0.2351
18227SOL    HW160517   0.142   9.234  10.682 -0.7802 -0.1025  0.5249
18227SOL    HW260518   0.072   9.099  10.683 -0.0595 -0.4890  0.0379
18228SOL     OW60519   1.899   6.384   5.590 -0.2833 -0.7818 -0.2104
18228SOL    HW160520   1.923   6.337   5.509 -1.3935  0.3362 -1.2289
18228SOL    HW260521   1.903   6.317   5.658  2.4083 -1.4031 -0.8420
18229SOL     OW60522   3.890   9.581   6.289  0.1680  0.2691 -0.8676
18229SOL    HW160523   3.811   9.535   6.316 -0.7440  0.7015 -2.6826
18229SOL    HW260524   3.954   9.560   6.357 -0.6289 -2.4794 -0.8455
18230SOL     OW60525   3.716   4.040   0.768 -0.7478 -0.1852  0.6175
18230SOL    HW160526   3.660   3.981   0.818 -0.6505  0.2829  1.3056
18230SOL    HW260527   3.800   3.994   0.762 -1.6393 -1.6796 -1.9479
18231SOL     OW60528   5.083   7.506   3.411  0.4921 -0.1637  0.0056
18231SOL    HW160529   5.178   7.497   3.421  0.2462 -0.9695  2.1031
18231SOL    HW260530   5.048   7.418   3.429 -0.6311 -0.1059 -1.6317
18232SOL     OW60531  10.869   8.959  10.181 -0.2336 -0.5475 -0.1001
18232SOL    HW160532  10.786   9.007  10.187 -0.7199 -1.2749 -0.8336
18232SOL    HW260533  10.929   9.020  10.139 -1.2866 -1.0882 -2.5425
18233SOL     OW60534   2.871   8.738  10.156 -0.5951  0.1784  0.1974
18233SOL    HW160535   2.931   8.769  10.088 -0.2057 -0.3463  0.2952
18233SOL    HW260536   2.852   8.815  10.208  0.4427  0.2470  0.5015
18234SOL     OW60537   0.120   4.161   3.550 -0.1332 -0.3778  0.1556
18234SOL    HW160538   0.131   4.142   3.644  0.0058  0.6508  0.3692
18234SOL    HW260539   0.204   4.198   3.524  0.5393 -2.5363 -0.8956
18235SOL     OW60540   2.286   5.145   6.074  0.5424  0.7115  0.0181
18235SOL    HW160541   2.270   5.084   6.146  2.4040 -0.5781 -0.5709
18235SOL    HW260542   2.307   5.228   6.117 -0.1929  0.4671  0.8877
18236SOL     OW60543   9.483   9.254  10.317 -0.8702  0.2198 -0.0091
18236SOL    HW160544   9.389   9.240  10.326 -0.7283 -1.2737 -0.5447
18236SOL    HW260545   9.501   9.239  10.225  0.1179 -1.1389  0.3754
18237SOL     OW60546   2.199   6.618   5.793 -0.2246 -0.1419 -0.1332
18237SOL    HW160547   2.290   6.644   5.805 -0.7679  1.7540  0.1842
18237SOL    HW260548   2.201   6.552   5.724  1.3335  0.2025 -0.4401
18238SOL     OW60549   4.022   9.249  10.216 -0.2474 -0.0520 -0.1614
18238SOL    HW160550   4.003   9.165  10.257  0.6817  0.7419  2.0386
18238SOL    HW260551   3.951   9.306  10.246  0.1744  0.4234 -0.0663
18239SOL     OW60552   0.056   3.060   6.792 -0.3579  0.1587  0.1254
18239SOL    HW160553   0.029   2.969   6.780  0.3430  0.0076 -0.3021
18239SOL    HW260554   0.124   3.056   6.859  1.4078  0.0545 -1.5814
18240SOL     OW60555   2.135   9.780   5.005 -0.6034 -0.3729  0.5858
18240SOL    HW160556   2.205   9.754   5.066 -1.4602 -1.1962  1.2409
18240SOL    HW260557   2.055   9.772   5.056 -1.1166  1.4371  0.1104
18241SOL     OW60558   0.056   2.116   8.442 -0.5718 -0.1644  0.3859
18241SOL    HW160559   0.090   2.104   8.353 -1.3377  0.2073  0.0275
18241SOL    HW260560  -0.020   2.059   8.446 -1.3431  0.8322  0.3283
18242SOL     OW60561   7.874   3.916   5.535 -0.3967  0.0403  0.5669
18242SOL    HW160562   7.807   3.855   5.505  0.1750 -0.3111 -0.0363
18242SOL    HW260563   7.912   3.874   5.612 -0.2165 -0.2167  0.3375
18243SOL     OW60564   8.967   0.305   6.287 -0.1140 -0.3748 -0.2352
18243SOL    HW160565   8.967   0.291   6.192 -0.4087  1.1466 -0.4734
18243SOL    HW260566   8.875   0.295   6.312 -0.1999  0.2795 -0.2806
18244SOL     OW60567   8.649   7.854   8.576 -0.3097 -0.3817  0.0480
18244SOL    HW160568   8.575   7.902   8.612 -0.2296  0.0032 -0.2938
18244SOL    HW260569   8.664   7.893   8.490  0.1742 -0.5773  0.0384
18245SOL     OW60570   7.106   3.969   5.884 -0.2963  0.1507  0.4987
18245SOL    HW160571   7.130   3.893   5.937  0.8484  0.9762  1.2051
18245SOL    HW260572   7.171   3.972   5.814 -1.6481 -0.7825 -0.8607
18246SOL     OW60573   8.021   2.861   8.788 -0.1114  0.1088 -0.5505
18246SOL    HW160574   8.037   2.869   8.694 -0.1626 -0.7758 -0.6436
18246SOL    HW260575   7.932   2.894   8.800 -0.1657  0.0694 -0.8435
18247SOL     OW60576   3.846   4.878   3.563  0.4448 -0.4460 -0.3401
18247SOL    HW160577   3.878   4.814   3.627 -0.2723 -0.0133  0.4843
18247SOL    HW260578   3.901   4.955   3.576 -1.0107  0.4079  1.2898
18248SOL     OW60579   9.477   0.264  10.380  0.2505 -0.0587  0.0474
18248SOL    HW160580   9.419   0.307  10.318 -1.8531  0.6245  2.3308
18248SOL    HW260581   9.472   0.317  10.460  0.7079 -2.3098  1.6865
18249SOL     OW60582  10.923   0.430   2.950  0.1192 -0.6317  0.1283
18249SOL    HW160583  10.878   0.462   3.028  0.5059 -0.2376  0.1952
18249SOL    HW260584  10.885   0.344   2.934 -0.2483 -0.5451  0.5162
18250SOL     OW60585   5.172  10.390   6.086  0.3694 -0.4252  0.1635
18250SOL    HW160586   5.170  10.430   5.999 -4.4504  0.2926  0.3305
18250SOL    HW260587   5.219  10.454   6.140  0.3309  0.8741 -1.2650
18251SOL     OW60588   4.445   4.193   7.562  0.3484 -0.4506  0.1928
18251SOL    HW160589   4.405   4.251   7.496 -0.4374 -0.2870  0.7972
18251SOL    HW260590   4.490   4.253   7.621 -1.0871 -0.3522  1.2463
18252SOL     OW60591   9.209   2.485   9.653 -0.6206  0.4419  0.4466
18252SOL    HW160592   9.162   2.494   9.570  0.5692  1.7601 -0.1200
18252SOL    HW260593   9.238   2.574   9.673  1.6016 -0.3203  0.7947
18253SOL     OW60594   0.677   7.949  10.410 -0.3798  0.0734 -0.2410
18253SOL    HW160595   0.630   7.907  10.482 -0.1516  1.3953  0.7173
18253SOL    HW260596   0.756   7.985  10.450  0.2756 -0.0667 -1.3647
18254SOL     OW60597   7.642   0.658   8.387 -0.1020  0.4209  0.0962
18254SOL    HW160598   7.577   0.693   8.326  0.6168  0.4494 -0.6681
18254SOL    HW260599   7.699   0.732   8.406  0.8089 -0.0584 -0.7076
18255SOL     OW60600   1.696   6.384   4.385  0.0701 -0.0850  0.1948
18255SOL    HW160601   1.756   6.399   4.312  0.4062  0.4208  0.5697
18255SOL    HW260602   1.750   6.396   4.464 -0.4447  0.0395  0.5306
18256SOL     OW60603   9.943   2.373   3.180  0.0180  0.3122 -0.4594
18256SOL    HW160604   9.875   2.322   3.136 -1.1284  1.6614 -0.3379
18256SOL    HW260605  10.021   2.359   3.127 -0.2164 -1.6145 -0.3708
18257SOL     OW60606  10.258   0.692   7.461 -0.0039 -0.3395  0.3898
18257SOL    HW160607  10.271   0.672   7.554 -1.1364 -1.5774  0.3159
18257SOL    HW260608  10.250   0.788   7.458  0.8231 -0.2190  1.4455
18258SOL     OW60609   8.153   4.991   3.381  0.4280  0.2330 -0.0509
18258SOL    HW160610   8.164   5.025   3.292  0.6144  1.1566  0.3182
18258SOL    HW260611   8.167   4.896   3.372  3.8982  0.6473 -0.4845
18259SOL     OW60612  10.143  10.315   3.288 -0.1382  0.7211 -0.0042
18259SOL    HW160613  10.180  10.385   3.342 -0.5290 -0.9765  2.7105
18259SOL    HW260614  10.220  10.271   3.251  0.2791  0.7266  0.8272
18260SOL     OW60615   2.287   4.270   5.795 -0.2951  0.6825 -0.3018
18260SOL    HW160616   2.213   4.329   5.785 -0.7231  0.0353 -1.1917
18260SOL    HW260617   2.280   4.210   5.720  0.8555  0.3114 -0.1425
18261SOL     OW60618   0.836   2.580   9.927  0.4663  0.0488  0.1852
18261SOL    HW160619   0.819   2.610   9.838  2.1622 -1.5651 -0.7620
18261SOL    HW260620   0.751   2.554   9.961 -0.2646  1.0799 -0.7950
18262SOL     OW60621  10.468   9.457  10.303 -0.2352  0.2193 -0.6214
18262SOL    HW160622  10.467   9.437  10.210 -0.1274  0.2581 -0.6304
18262SOL    HW260623  10.418   9.386  10.343  1.4965 -0.9787 -0.4653
18263SOL     OW60624   0.693   7.883   6.719  0.2973 -0.1670 -0.3547
18263SOL    HW160625   0.634   7.897   6.793  0.5394 -0.3459 -0.1257
18263SOL    HW260626   0.643   7.827   6.659  0.3047 -0.4893 -0.0671
18264SOL     OW60627   1.408   4.320   6.966  0.2908  0.5047  0.4955
18264SOL    HW160628   1.398   4.353   6.877 -1.0397 -1.1797 -0.0298
18264SOL    HW260629   1.374   4.391   7.022  0.5027  1.2953 -0.3486
18265SOL     OW60630   3.035   2.320   5.531 -0.4353 -0.2168 -0.1709
18265SOL    HW160631   3.091   2.260   5.581  0.9991  1.0467 -0.1979
18265SOL    HW260632   3.055   2.406   5.566 -0.4723  0.5427 -1.9305
18266SOL     OW60633   0.844   3.930   0.599  0.3543  0.5544  0.6420
18266SOL    HW160634   0.835   3.972   0.513  1.0980 -0.6969 -0.0796
18266SOL    HW260635   0.755   3.903   0.622  0.2668  0.0888 -0.1842
18267SOL     OW60636   1.737   4.136   5.001 -0.3258 -0.2273  0.1890
18267SOL    HW160637   1.788   4.065   5.040  2.0772  1.9767  1.3454
18267SOL    HW260638   1.692   4.177   5.075 -2.0373 -0.7222 -0.5233
18268SOL     OW60639   0.910  10.581   9.764 -0.5881  0.2952  0.1322
18268SOL    HW160640   0.937  10.494   9.734  0.0705  0.5480 -0.0288
18268SOL    HW260641   0.928  10.580   9.858 -0.8833  0.1484  0.1885
18269SOL     OW60642   3.678   3.100  10.197  0.3274  0.0705  0.1424
18269SOL    HW160643   3.710   3.190  10.186 -1.0265  0.5343 -0.2527
18269SOL    HW260644   3.756   3.048  10.214  1.3789  1.0218 -1.5096
18270SOL     OW60645   0.697   7.595   3.687  0.4647 -0.5571 -1.0232
18270SOL    HW160646   0.645   7.654   3.742 -1.6502 -0.6715 -2.7683
18270SOL    HW260647   0.692   7.510   3.731  0.9109 -0.1466 -0.1395
18271SOL     OW60648   0.345   5.878   6.546 -0.4999 -0.2236  0.5799
18271SOL    HW160649   0.332   5.822   6.469 -0.7998  0.6142  0.0053
18271SOL    HW260650   0.400   5.826   6.605  1.7210  0.0019 -1.1673
18272SOL     OW60651   7.625   1.605   8.688  0.1601 -0.1367 -0.3018
18272SOL    HW160652   7.586   1.559   8.613 -1.3391  0.1958  0.2298
18272SOL    HW260653   7.557   1.666   8.717  1.4552  1.1971  0.0913
18273SOL     OW60654   5.731  10.069   6.601 -0.0128  0.2524 -0.1679
18273SOL    HW160655   5.810  10.016   6.615 -0.4456 -0.5127 -0.5540
18273SOL    HW260656   5.672  10.043   6.672 -0.8173 -0.9497 -1.2369
18274SOL     OW60657   6.132   3.749   4.058 -0.4074 -0.3832 -0.4610
18274SOL    HW160658   6.215   3.791   4.036 -0.1213 -1.3067 -1.2157
18274SOL    HW260659   6.091   3.809   4.120  1.1362 -0.2289  0.4739
18275SOL     OW60660   4.983   7.601   6.130 -0.0477  0.0189  0.6515
18275SOL    HW160661   4.914   7.565   6.186 -0.1446 -0.1384  0.4297
18275SOL    HW260662   4.986   7.694   6.153 -1.1005  0.2585 -0.1314
18276SOL     OW60663   6.761   9.791   1.528 -0.7143 -0.1510  0.1554
18276SOL    HW160664   6.845   9.833   1.510 -1.1205  0.7695  0.3596
18276SOL    HW260665   6.708   9.808   1.450 -0.4500 -1.4490 -0.3294
18277SOL     OW60666   7.316   8.782   7.606  0.0212  0.4588  0.7437
18277SOL    HW160667   7.252   8.715   7.583  0.3380 -0.0783  1.3903
18277SOL    HW260668   7.346   8.757   7.694  2.9557 -0.7668 -0.4805
18278SOL     OW60669   5.928   0.889   0.361 -0.1388  0.1241  0.9268
18278SOL    HW160670   5.860   0.875   0.296  1.6376 -0.6229 -0.8902
18278SOL    HW260671   6.004   0.841   0.327  1.8003  2.2118  2.0148
18279SOL     OW60672   0.696   3.224   4.603 -0.1737 -0.0639 -0.4135
18279SOL    HW160673   0.700   3.295   4.539 -1.4931 -0.8441 -1.4287
18279SOL    HW260674   0.622   3.171   4.574  1.8003 -2.8550 -0.7418
18280SOL     OW60675   9.079   9.431   4.203  0.4883 -0.1633  0.7615
18280SOL    HW160676   9.128   9.433   4.121  0.3279 -0.0550  0.6680
18280SOL    HW260677   9.146   9.429   4.271  0.6934  2.6293  0.7340
18281SOL     OW60678   2.384   1.822   2.175  0.1631  0.1085  0.0113
18281SOL    HW160679   2.424   1.905   2.201 -1.7748  1.5619 -1.3068
18281SOL    HW260680   2.366   1.777   2.258  0.1608  1.5629  0.8327
18282SOL     OW60681   4.500   5.126   0.588  0.2098 -0.1234  0.4243
18282SOL    HW160682   4.535   5.038   0.607 -2.0067 -1.0025  0.7017
18282SOL    HW260683   4.431   5.139   0.654 -0.5423  1.1920 -0.5799
18283SOL     OW60684   4.502   2.324   6.177 -0.1870  0.8557 -0.0554
18283SOL    HW160685   4.471   2.354   6.091 -1.5426 -1.4552 -0.4505
18283SOL    HW260686   4.425   2.329   6.233  0.2557  0.7105  0.5790
18284SOL     OW60687   5.250   3.938   7.391  0.1542 -0.0661 -0.3710
18284SOL    HW160688   5.190   3.886   7.444  0.2200 -0.2006 -0.4259
18284SOL    HW260689   5.202   3.954   7.310  0.4003 -0.6633 -0.6460
18285SOL     OW60690   9.705   0.041  10.867  0.0954  0.2192  0.0309
18285SOL    HW160691   9.751   0.121  10.839  2.6423 -0.6801  1.3387
18285SOL    HW260692   9.706   0.046  10.963 -0.1415 -1.1406  0.1147
18286SOL     OW60693  10.840   5.571   1.022 -0.0176 -0.0967  0.2822
18286SOL    HW160694  10.897   5.603   0.953  0.4048 -0.6240  0.3811
18286SOL    HW260695  10.888   5.498   1.061 -0.7845 -0.5875  0.3220
18287SOL     OW60696   6.595   8.660  10.140 -0.1925 -0.6199  0.0288
18287SOL    HW160697   6.602   8.585  10.198  0.2440  0.4266  1.3758
18287SOL    HW260698   6.609   8.623  10.052 -0.1687 -2.1233  0.6318
18288SOL     OW60699   2.211   3.051  10.369  0.7257 -0.0455 -0.6336
18288SOL    HW160700   2.139   3.095  10.413  0.7838  0.6207 -1.1889
18288SOL    HW260701   2.280   3.118  10.364  1.1860 -0.5136 -0.5680
18289SOL     OW60702  10.469  10.867   7.101  0.3832 -0.1044  0.3855
18289SOL    HW160703  10.481  10.909   7.016  2.3852 -1.9859 -0.3511
18289SOL    HW260704  10.433  10.781   7.081 -0.0282 -0.2271  1.5383
18290SOL     OW60705   3.921   6.126   2.467  0.2472 -0.1970  0.2977
18290SOL    HW160706   3.864   6.173   2.405 -1.8647 -1.3817  1.2180
18290SOL    HW260707   4.007   6.166   2.456 -0.2789  0.3462 -2.6281
18291SOL     OW60708   7.292   1.984   9.344 -0.3358 -0.1416  0.5693
18291SOL    HW160709   7.264   1.959   9.256 -1.5544  0.7570  0.6784
18291SOL    HW260710   7.324   1.903   9.383  0.7495 -0.4484 -0.8767
18292SOL     OW60711   7.852   0.242   9.023  0.2533 -0.0415 -0.3839
18292SOL    HW160712   7.856   0.286   9.108  0.5314  0.9510 -0.8908
18292SOL    HW260713   7.759   0.237   9.002  0.1867 -0.2592 -0.0367
18293SOL     OW60714  10.199   8.647   9.117  0.1620 -0.0978  0.1414
18293SOL    HW160715  10.195   8.552   9.114  2.0954 -0.1902 -1.5721
18293SOL    HW260716  10.286   8.667   9.150 -0.0273  1.0728  0.0001
18294SOL     OW60717  10.756   8.651   7.088 -0.3038 -0.4311 -0.0681
18294SOL    HW160718  10.755   8.599   7.169 -0.6373  1.1857  1.0174
18294SOL    HW260719  10.848   8.674   7.074 -0.4206  0.7348  0.8724
18295SOL     OW60720   5.361   7.827   3.648  0.3627 -0.0189 -0.1596
18295SOL    HW160721   5.338   7.745   3.690 -0.2122  0.1351 -0.1635
18295SOL    HW260722   5.347   7.811   3.555 -1.4203  0.5836 -0.0389
18296SOL     OW60723   4.980   3.748   6.237 -0.4278  0.3320 -1.0139
18296SOL    HW160724   4.897   3.764   6.192 -1.1174 -0.9770 -0.2630
18296SOL    HW260725   4.980   3.654   6.256  1.2171  0.3099 -0.9708
18297SOL     OW60726   5.394   0.690   6.890  0.2940  0.2304  0.4029
18297SOL    HW160727   5.484   0.718   6.906  0.5617 -0.9620  1.1013
18297SOL    HW260728   5.402   0.600   6.859 -0.7423 -1.4400  4.3036
18298SOL     OW60729   6.826   0.057   8.664  0.4308 -0.7384  0.1979
18298SOL    HW160730   6.903   0.105   8.633  0.5110 -0.9948 -0.0061
18298SOL    HW260731   6.795   0.009   8.587 -1.8404  1.8005 -0.6285
18299SOL     OW60732   6.758   2.731   3.751 -0.2749 -0.6887  0.6618
18299SOL    HW160733   6.741   2.811   3.702 -1.0577  0.4502  2.6635
18299SOL    HW260734   6.795   2.670   3.687  0.4922  1.3119 -0.8824
18300SOL     OW60735   6.711   2.282   9.491 -0.4293 -0.0794  0.4583
18300SOL    HW160736   6.768   2.341   9.540  1.0855 -0.0822 -1.1808
18300SOL    HW260737   6.661   2.339   9.433 -2.6357 -0.0158  2.2675
18301SOL     OW60738   2.224   9.495   1.313 -0.6390  0.1605  0.0602
18301SOL    HW160739   2.211   9.509   1.219  0.4992 -0.2733 -0.1876
18301SOL    HW260740   2.278   9.569   1.341  2.6411 -1.7446 -0.5807
18302SOL     OW60741   9.583   2.782  10.677  0.0978  0.0164 -0.9372
18302SOL    HW160742   9.653   2.726  10.642 -0.6585 -2.7183  1.5459
18302SOL    HW260743   9.570   2.751  10.766 -2.7338  2.0016 -0.5419
18303SOL     OW60744   1.329   5.652   5.645  0.2330  0.0563  0.1109
18303SOL    HW160745   1.420   5.670   5.667  0.5410 -0.9202 -0.2971
18303SOL    HW260746   1.279   5.716   5.695  1.1761  1.0479 -0.1748
18304SOL     OW60747   0.226   4.890  10.689 -0.0909 -0.6528  0.1899
18304SOL    HW160748   0.311   4.855  10.712 -0.0061 -0.1615  0.6576
18304SOL    HW260749   0.206   4.852  10.604  1.2026  0.2719 -0.5672
18305SOL     OW60750   7.565   3.767   4.218 -0.2182  0.1106 -0.3776
18305SOL    HW160751   7.539   3.856   4.194 -1.1136  0.2613  1.0606
18305SOL    HW260752   7.519   3.711   4.155 -0.2914  0.6147 -0.7826
18306SOL     OW60753   2.974   3.251   6.036 -0.0974 -0.0106  0.4388
18306SOL    HW160754   3.004   3.262   5.946  1.1346  0.3121  0.8699
18306SOL    HW260755   3.052   3.222   6.084 -0.4398  0.9443  1.6251
18307SOL     OW60756   3.630   7.770  10.678  0.0302 -0.4919 -0.0302
18307SOL    HW160757   3.565   7.740  10.615  0.2157  2.1088 -1.6043
18307SOL    HW260758   3.612   7.719  10.757 -1.5042 -2.4507 -1.5447
18308SOL     OW60759  10.796   1.870   4.825  0.6055  0.3130  0.8823
18308SOL    HW160760  10.785   1.775   4.819 -1.3993  0.5720 -0.9138
18308SOL    HW260761  10.880   1.888   4.784 -0.5581 -0.4954 -2.1268
18309SOL     OW60762   3.069   8.812   9.275 -0.3409  0.4555 -1.2021
18309SOL    HW160763   3.076   8.907   9.287 -0.1116  0.3647 -0.6007
18309SOL    HW260764   2.989   8.801   9.223 -1.7418  0.8314  0.7728
18310SOL     OW60765   4.023   3.781   8.911 -0.0879  0.5087  0.6453
18310SOL    HW160766   4.023   3.698   8.862  2.9596 -0.5682  2.1841
18310SOL    HW260767   4.084   3.837   8.863 -1.0458  1.3790  0.4139
18311SOL     OW60768   6.133   0.317   7.553  0.3916  0.1884  0.0310
18311SOL    HW160769   6.136   0.413   7.556 -1.0120  0.2491  0.0960
18311SOL    HW260770   6.224   0.291   7.537  0.6426  1.5725 -1.0198
18312SOL     OW60771  10.039   4.792   3.270  0.3032  0.5079 -0.1486
18312SOL    HW160772  10.009   4.706   3.242  1.4433 -0.1857  0.6971
18312SOL    HW260773   9.967   4.851   3.246 -0.2028 -0.5533 -1.3629
18313SOL     OW60774   3.714   3.723   1.322 -0.1416 -0.2602  0.1052
18313SOL    HW160775   3.657   3.791   1.285  0.0295 -0.6207 -0.8525
18313SOL    HW260776   3.790   3.722   1.264  0.6754 -0.0464  1.1531
18314SOL     OW60777   8.086   9.155   4.253 -0.4524 -0.0073  0.2989
18314SOL    HW160778   8.174   9.188   4.231 -0.0671  0.8353  2.7411
18314SOL    HW260779   8.095   9.060   4.250 -0.1419  0.0390 -1.7699
18315SOL     OW60780  10.769  10.308   6.798 -0.0143  0.3814  1.1997
18315SOL    HW160781  10.773  10.356   6.715 -4.1651 -0.3562  0.3237
18315SOL    HW260782  10.857  10.273   6.811  1.1108  1.5859 -2.2171
18316SOL     OW60783   0.302   9.406   8.374 -0.6038  0.3448  0.0265
18316SOL    HW160784   0.280   9.456   8.295  0.8918  0.5846 -0.2564
18316SOL    HW260785   0.218   9.396   8.419 -1.1030  2.4490 -0.2879
18317SOL     OW60786   5.434   5.760   4.343  0.5574 -0.3715 -0.1939
18317SOL    HW160787   5.392   5.758   4.429 -0.7526  1.6739 -0.7206
18317SOL    HW260788   5.416   5.673   4.306 -3.2697  0.2924 -0.3051
18318SOL     OW60789  10.086   1.181   0.064 -0.5537  0.4303  0.1214
18318SOL    HW160790  10.105   1.275   0.059  0.0359  0.2766 -0.6630
18318SOL    HW260791  10.148   1.147   0.129 -0.8849  0.6050  0.5342
18319SOL     OW60792   2.332   1.730  10.323  0.0542 -0.2647 -0.0898
18319SOL    HW160793   2.353   1.669  10.394 -0.4398  0.0968  0.3730
18319SOL    HW260794   2.380   1.810  10.345 -0.4712  0.0045  0.0855
18320SOL     OW60795   8.507   2.970   7.906 -0.5253  0.4592 -0.2396
18320SOL    HW160796   8.530   3.062   7.894  0.6460  0.0256 -1.5977
18320SOL    HW260797   8.529   2.951   7.997  1.8428  0.8422 -0.6803
18321SOL     OW60798   1.185   1.878   2.694  0.4985  0.3770  1.0371
18321SOL    HW160799   1.205   1.847   2.782 -2.6116  0.1576  1.7867
18321SOL    HW260800   1.148   1.966   2.707 -1.5523 -0.2986  0.2177
18322SOL     OW60801   1.567   2.355  10.833  0.1310 -0.1027 -0.0227
18322SOL    HW160802   1.551   2.449  10.825  0.1596 -0.0279  0.6780
18322SOL    HW260803   1.644   2.349  10.891 -1.9430 -0.5982  2.9158
18323SOL     OW60804   0.386   1.134   2.686 -0.0880  0.4926  0.0971
18323SOL    HW160805   0.468   1.089   2.664 -0.4228  0.4134 -1.0895
18323SOL    HW260806   0.410   1.226   2.688 -0.3205  0.6831 -2.3319
18324SOL     OW60807   5.033   0.108   3.444  0.5499 -0.6047 -0.0520
18324SOL    HW160808   5.043   0.120   3.538 -1.1975  0.8414  0.0205
18324SOL    HW260809   5.122   0.101   3.411  1.2386 -0.0985  1.5871
18325SOL     OW60810   7.349   3.880   8.195 -0.2208  0.3928  0.2834
18325SOL    HW160811   7.281   3.829   8.151 -0.2303  0.4848  0.1911
18325SOL    HW260812   7.334   3.970   8.166  1.0162  0.1869 -1.1389
18326SOL     OW60813   2.968   8.490  10.186  0.2873 -0.1677 -0.5994
18326SOL    HW160814   2.946   8.583  10.174  3.3817  0.8538  0.6155
18326SOL    HW260815   3.046   8.478  10.133  0.3474 -1.9214 -0.1529
18327SOL     OW60816   5.175   4.747   3.854  0.5710 -0.4635 -0.3632
18327SOL    HW160817   5.182   4.789   3.768 -1.9694 -2.6355 -1.7635
18327SOL    HW260818   5.213   4.660   3.842 -2.6418 -1.9865 -0.3289
18328SOL     OW60819   2.338   2.670   2.955  0.3600 -0.0087 -0.5273
18328SOL    HW160820   2.248   2.654   2.984 -0.0444  0.7695 -1.2941
18328SOL    HW260821   2.381   2.711   3.030 -0.5599  1.6455 -0.8695
18329SOL     OW60822   8.650   8.605   7.120 -0.5218  0.2876  0.9966
18329SOL    HW160823   8.640   8.590   7.214  1.5958  0.9455  1.3717
18329SOL    HW260824   8.705   8.684   7.113 -0.7714  0.3596 -0.8015
18330SOL     OW60825   8.068   7.319   5.942 -0.0756 -0.2088 -0.6086
18330SOL    HW160826   7.992   7.334   5.887 -0.0972  0.1902 -0.4722
18330SOL    HW260827   8.094   7.229   5.923 -2.4793 -1.5260  1.6326
18331SOL     OW60828   7.546   6.436   3.678 -0.4276  0.6669 -0.4030
18331SOL    HW160829   7.530   6.530   3.669 -1.2403  0.5284 -0.4856
18331SOL    HW260830   7.459   6.397   3.685 -0.0717  0.0209  0.7644
18332SOL     OW60831   1.677  10.350   2.788 -0.4907  0.7282  0.1965
18332SOL    HW160832   1.683  10.433   2.837  0.3862  0.6194  0.2795
18332SOL    HW260833   1.656  10.285   2.855  0.4922  0.6157  0.4140
18333SOL     OW60834   7.889  10.093   7.942  0.2326 -0.2625 -0.5302
18333SOL    HW160835   7.818  10.091   7.877  0.3969  0.2158 -0.7273
18333SOL    HW260836   7.933  10.177   7.928  0.2401 -0.1270  0.2352
18334SOL     OW60837   0.246   4.885   6.228 -0.1993 -0.1280 -0.0733
18334SOL    HW160838   0.232   4.807   6.283  1.6279  1.4902  3.0127
18334SOL    HW260839   0.162   4.901   6.186 -1.3918 -2.2555  1.3177
18335SOL     OW60840   7.417   0.634   4.977  0.0682 -0.3354 -0.4104
18335SOL    HW160841   7.334   0.668   4.947  0.2694  0.2187 -0.3466
18335SOL    HW260842   7.467   0.616   4.897  0.6936  1.3600 -0.4360
18336SOL     OW60843   4.903   6.407   6.665 -0.0488  0.5041 -0.1828
18336SOL    HW160844   4.859   6.322   6.668  1.6645 -0.4507  2.8682
18336SOL    HW260845   4.991   6.387   6.632  0.7358  0.8183  1.5962
18337SOL     OW60846   2.360  10.778   1.442 -0.0636  0.4444 -0.4982
18337SOL    HW160847   2.368  10.862   1.489  0.1028  0.9898 -1.4828
18337SOL    HW260848   2.450  10.748   1.432 -0.0061  0.9087 -1.4760
18338SOL     OW60849   6.457   3.037   4.770  0.5688  0.1175 -0.1324
18338SOL    HW160850   6.539   3.017   4.724  1.3149 -1.5461  1.7685
18338SOL    HW260851   6.482   3.048   4.861 -1.2236  0.5296  0.3569
18339SOL     OW60852   9.003   8.747   5.162  0.4814  0.2273  0.3682
18339SOL    HW160853   9.084   8.733   5.113  0.1260  0.0050 -0.1665
18339SOL    HW260854   8.972   8.833   5.133 -0.1221 -0.2281 -0.3824
18340SOL     OW60855   3.125   7.684   9.800 -0.2501 -0.1575 -0.1938
18340SOL    HW160856   3.035   7.666   9.826 -0.1824 -0.4766 -0.1793
18340SOL    HW260857   3.125   7.777   9.776 -0.3430  0.1207  0.8327
18341SOL     OW60858   1.119  10.076   8.997  0.0294  0.3564  0.0060
18341SOL    HW160859   1.148  10.042   8.912  0.5618  1.4684 -0.2760
18341SOL    HW260860   1.197  10.071   9.052 -0.0545  0.5374  0.1416
18342SOL     OW60861   8.446   0.100  10.900  0.3254 -0.0668 -0.0121
18342SOL    HW160862   8.369   0.152  10.923  0.4861  0.7844 -1.2858
18342SOL    HW260863   8.511   0.123  10.966  0.3435  1.2703 -0.4635
18343SOL     OW60864   6.554   5.080   6.424 -0.4734  0.2586  0.1299
18343SOL    HW160865   6.572   5.156   6.369 -3.0310 -0.2724 -1.6491
18343SOL    HW260866   6.493   5.111   6.490 -1.4705 -0.1464 -0.5587
18344SOL     OW60867   4.272   6.945   4.171  0.4341  0.7750  0.4423
18344SOL    HW160868   4.204   6.991   4.122 -1.4094 -0.7873  1.3933
18344SOL    HW260869   4.278   6.994   4.254 -1.1310 -0.2843  1.2294
18345SOL     OW60870   0.766   6.652   3.881  0.3440 -0.2262  0.0236
18345SOL    HW160871   0.701   6.584   3.863 -0.6601  0.8600 -0.5951
18345SOL    HW260872   0.763   6.709   3.805 -0.2270  1.5850  1.3454
18346SOL     OW60873   4.190   8.658   6.423 -0.1291 -0.0868 -0.1681
18346SOL    HW160874   4.174   8.741   6.378 -0.0403  0.2039  0.3333
18346SOL    HW260875   4.207   8.682   6.514  0.5715 -0.5974 -0.1511
18347SOL     OW60876   1.553  10.627   6.668  0.1123 -0.1419 -0.0135
18347SOL    HW160877   1.598  10.689   6.611 -0.4309 -0.3555 -0.6845
18347SOL    HW260878   1.558  10.544   6.621 -0.6015 -0.2586  0.1166
18348SOL     OW60879   8.455   5.915   0.064 -0.0669  0.3378 -0.2892
18348SOL    HW160880   8.456   5.998   0.111 -0.7765  0.2519 -0.1136
18348SOL    HW260881   8.441   5.939  -0.027 -1.5217  0.3633 -0.0873
18349SOL     OW60882   1.140   9.848   4.789  0.5744 -0.2158 -0.4758
18349SOL    HW160883   1.084   9.780   4.828 -0.2114  1.0209  0.6543
18349SOL    HW260884   1.205   9.799   4.739  1.0089 -1.8995  1.5830
18350SOL     OW60885   6.040   6.394  10.137 -0.1461  0.0089  0.3171
18350SOL    HW160886   6.109   6.334  10.165  1.8747  0.3206 -3.3605
18350SOL    HW260887   6.064   6.478  10.176  1.0199 -0.1020 -0.1301
18351SOL     OW60888   6.388   4.728   1.098  0.3991 -0.4256  0.3460
18351SOL    HW160889   6.412   4.640   1.128 -0.3771 -0.4475  0.9445
18351SOL    HW260890   6.471   4.776   1.097  0.6952 -0.9025  0.9323
18352SOL     OW60891   6.068   6.706   2.604 -0.4192  0.3083  0.1415
18352SOL    HW160892   6.028   6.629   2.564  0.9430 -0.1209 -0.4802
18352SOL    HW260893   6.157   6.707   2.568  1.0048 -0.2486  3.2988
18353SOL     OW60894   6.258   4.767   7.711  0.0767  0.3788 -0.1084
18353SOL    HW160895   6.182   4.822   7.728 -0.0203  0.6463 -1.3428
18353SOL    HW260896   6.333   4.824   7.729  0.0773 -0.3761  2.7863
18354SOL     OW60897   3.837   1.957   9.148  0.0218 -0.3195 -0.0618
18354SOL    HW160898   3.887   1.877   9.130  0.9535 -0.2889  2.1072
18354SOL    HW260899   3.876   2.023   9.091  1.3616 -0.7042  0.3717
18355SOL     OW60900   2.735   4.352   1.139  0.0334  0.9285  0.5579
18355SOL    HW160901   2.758   4.297   1.064  1.5422 -0.3148  1.8550
18355SOL    HW260902   2.769   4.439   1.116 -0.7522  0.9162 -0.7479
18356SOL     OW60903   5.460   2.224   5.937 -0.1602 -0.4766 -0.2577
18356SOL    HW160904   5.452   2.140   5.891  0.1021 -0.9978  0.6163
18356SOL    HW260905   5.377   2.235   5.982  0.5712 -1.3993  1.4364
18357SOL     OW60906   3.718   1.066   5.369 -0.3571 -0.3236  0.0160
18357SOL    HW160907   3.683   1.017   5.294  1.0192 -1.2051 -0.0899
18357SOL    HW260908   3.744   0.998   5.432  0.3650  0.3317  0.4427
18358SOL     OW60909   6.269   2.601   8.693  0.1060  0.1412  0.0748
18358SOL    HW160910   6.185   2.645   8.679  0.2292  0.3638  0.0481
18358SOL    HW260911   6.315   2.609   8.610  0.4101  0.5649  0.2839
18359SOL     OW60912   4.756   4.047   7.366  0.2023  0.7666  0.1569
18359SOL    HW160913   4.676   3.997   7.348  0.7828  0.2566 -1.1399
18359SOL    HW260914   4.775   4.029   7.458 -0.0885 -0.7272 -0.0505
18360SOL     OW60915   3.612   6.870   7.013  0.3268  0.0736  0.6273
18360SOL    HW160916   3.621   6.776   7.004 -4.4553 -0.7007  1.3487
18360SOL    HW260917   3.623   6.887   7.106  1.7466  0.3575  0.4197
18361SOL     OW60918   2.347   8.509   0.143 -0.4702  0.0097 -0.3041
18361SOL    HW160919   2.412   8.438   0.132  0.1466  0.6527 -0.8877
18361SOL    HW260920   2.331   8.540   0.054  0.1016  1.3334  0.0344
18362SOL     OW60921   3.082   4.139   4.608 -0.1350 -0.4834  0.3266
18362SOL    HW160922   3.153   4.184   4.654 -0.2307 -1.7734  1.7941
18362SOL    HW260923   3.117   4.052   4.588 -0.4900 -0.3350 -1.0866
18363SOL     OW60924   5.811   2.600   5.897 -0.2699  0.2502 -0.0724
18363SOL    HW160925   5.860   2.664   5.949 -0.2629  1.8397 -1.9179
18363SOL    HW260926   5.875   2.532   5.875  1.0998  2.0886 -2.1165
18364SOL     OW60927   0.282   3.770   4.160 -0.4707  0.3729 -0.0703
18364SOL    HW160928   0.205   3.785   4.215 -0.4121  0.7307 -0.0817
18364SOL    HW260929   0.348   3.733   4.219 -1.4960 -2.5412 -0.5726
18365SOL     OW60930   5.974   5.791   3.650 -0.0399 -0.0782  0.2594
18365SOL    HW160931   6.049   5.849   3.664  0.6226 -0.4808 -1.3695
18365SOL    HW260932   6.013   5.704   3.642 -0.2881 -0.0104 -3.1363
18366SOL     OW60933   7.677   2.079   8.333 -0.3545 -0.1951  0.3167
18366SOL    HW160934   7.680   1.991   8.369 -1.6134 -0.3799 -0.0023
18366SOL    HW260935   7.625   2.129   8.396 -0.1528  0.1729  0.1945
18367SOL     OW60936   3.008   5.163  10.855 -0.1277  0.4277  0.5597
18367SOL    HW160937   3.078   5.097  10.852 -0.7834 -0.3094  1.0390
18367SOL    HW260938   3.052   5.245  10.875  0.7317  0.1752 -0.2345
18368SOL     OW60939   7.086   3.221   3.198  0.0412 -0.2439 -0.4107
18368SOL    HW160940   7.078   3.156   3.129 -0.2742  0.3720 -0.9646
18368SOL    HW260941   7.124   3.298   3.155 -1.9861  0.8455 -0.3843
18369SOL     OW60942   9.140   6.821   5.372 -0.4928 -0.0351  0.1956
18369SOL    HW160943   9.140   6.726   5.382  2.0507 -0.1579 -0.3145
18369SOL    HW260944   9.080   6.837   5.299  1.0872 -1.5516 -1.5556
18370SOL     OW60945   4.359   3.249   5.494  0.1673 -0.5294  0.0152
18370SOL    HW160946   4.390   3.239   5.584 -0.3128 -0.7781  0.1591
18370SOL    HW260947   4.278   3.300   5.503  1.2808  1.4335 -0.4798
18371SOL     OW60948   1.096   4.795   1.456 -0.4744 -0.2718  0.4641
18371SOL    HW160949   1.064   4.761   1.540  0.4946 -0.1040  0.9107
18371SOL    HW260950   1.017   4.810   1.405 -1.0222 -1.6874  0.8376
18372SOL     OW60951   8.688   8.684   9.038  0.8695  0.4045 -0.2692
18372SOL    HW160952   8.655   8.595   9.035  1.1459  0.2558  0.6403
18372SOL    HW260953   8.659   8.724   8.956  0.6421 -0.4802 -0.6282
18373SOL     OW60954  10.605   4.421   4.780 -0.0908 -0.0458  0.0352
18373SOL    HW160955  10.646   4.461   4.857 -1.9263  0.8623  0.6137
18373SOL    HW260956  10.519   4.393   4.811 -1.0952  0.8428 -1.7897
18374SOL     OW60957   6.834   1.560   5.882  0.5258  0.6440 -0.3107
18374SOL    HW160958   6.799   1.637   5.839  1.0195  0.0447 -1.8730
18374SOL    HW260959   6.924   1.584   5.906  0.8745  0.3737 -1.3268
18375SOL     OW60960   3.800   3.425   0.170  0.1446 -0.6145 -0.0783
18375SOL    HW160961   3.793   3.413   0.265  0.0693 -0.0403 -0.0102
18375SOL    HW260962   3.752   3.506   0.152  0.0880 -0.7660 -0.6191
18376SOL     OW60963   3.593  10.234   6.987 -0.5237 -0.0058 -0.2803
18376SOL    HW160964   3.601  10.325   7.016  0.9506  0.8232 -2.9322
18376SOL    HW260965   3.501  10.212   7.000 -0.5854  1.2577  1.9073
18377SOL     OW60966   4.938   0.625   6.782  0.2817 -0.0986 -0.1660
18377SOL    HW160967   4.973   0.596   6.697  1.0240  1.3571 -0.4090
18377SOL    HW260968   4.990   0.703   6.803 -1.9637  1.4229  0.1077
18378SOL     OW60969   0.928   6.917  10.466 -0.2825  0.4098 -0.0387
18378SOL    HW160970   0.846   6.872  10.444  0.4009  0.1779 -2.4509
18378SOL    HW260971   0.996   6.850  10.457  0.4767  1.2832 -1.1393
18379SOL     OW60972   8.772   0.224   5.165 -0.1152  0.4502 -0.2662
18379SOL    HW160973   8.867   0.225   5.160 -0.1365  2.3641 -1.3822
18379SOL    HW260974   8.746   0.313   5.141 -2.1027  0.6034  2.1105
18380SOL     OW60975   4.342   3.091   9.906  0.0800  0.1388  0.1353
18380SOL    HW160976   4.416   3.138   9.946  1.4478 -1.5684 -0.2667
18380SOL    HW260977   4.345   3.117   9.814  1.0205 -0.8989 -0.1489
18381SOL     OW60978  10.231   4.991   1.299  0.0518 -0.3644  0.2411
18381SOL    HW160979  10.311   5.041   1.284 -0.5552  0.2293 -1.1415
18381SOL    HW260980  10.161   5.057   1.302 -0.5103 -0.9577  0.3889
18382SOL     OW60981   3.567   9.331   0.883 -0.1031  0.0253  0.2673
18382SOL    HW160982   3.491   9.289   0.923 -0.9356 -0.4562 -1.6964
18382SOL    HW260983   3.639   9.271   0.898 -0.3120  0.0135  1.2922
18383SOL     OW60984   6.893   3.805   8.937  0.1720  0.4503 -0.9821
18383SOL    HW160985   6.942   3.880   8.970 -1.3504  1.0828 -0.0523
18383SOL    HW260986   6.885   3.746   9.012  0.5851 -0.2249 -1.4629
18384SOL     OW60987   4.452   5.611   2.410 -0.3619  0.7042 -0.1684
18384SOL    HW160988   4.425   5.538   2.353  0.3039 -0.6056  1.1234
18384SOL    HW260989   4.546   5.621   2.395 -0.4447  1.2968 -0.3205
18385SOL     OW60990   7.337   7.681   9.533 -0.0899 -0.1885  0.0935
18385SOL    HW160991   7.300   7.761   9.495 -2.4947 -0.9778  0.6463
18385SOL    HW260992   7.308   7.683   9.624  2.7116 -0.0474  1.0728
18386SOL     OW60993   4.209  10.553   8.468  0.0993 -0.1680 -0.3917
18386SOL    HW160994   4.199  10.465   8.505  2.3210  0.3837  1.8625
18386SOL    HW260995   4.137  10.603   8.505  0.9938 -0.1912  1.5302
18387SOL     OW60996  10.227   5.846   4.661 -0.1416 -0.0777  0.3284
18387SOL    HW160997  10.143   5.801   4.670  1.5303 -3.3501  1.2033
18387SOL    HW260998  10.243   5.884   4.747 -0.3931 -0.0541  0.3669
18388SOL     OW60999   6.474   8.229   9.573 -0.3217 -0.0579 -0.2015
18388SOL    HW161000   6.429   8.150   9.603 -0.0052 -0.2721 -0.2850
18388SOL    HW261001   6.523   8.259   9.650  1.0349 -0.9920 -0.6751
18389SOL     OW61002   6.053   4.121   2.330  0.7588  0.3374 -0.4064
18389SOL    HW161003   6.125   4.179   2.306  0.7554  0.7019  0.4284
18389SOL    HW261004   5.979   4.180   2.347  0.0300 -0.0742 -1.9871
18390SOL     OW61005   2.937   1.907   7.900  0.3222 -0.5151  0.0463
18390SOL    HW161006   3.021   1.888   7.942  0.4765 -0.8593 -0.4052
18390SOL    HW261007   2.948   1.875   7.810 -0.6753 -1.6095  0.2905
18391SOL     OW61008   3.444   7.062   8.504  0.5775 -0.4016 -0.1426
18391SOL    HW161009   3.414   6.978   8.468  0.8376 -0.5643  0.0193
18391SOL    HW261010   3.380   7.083   8.572  0.3233 -0.3021 -0.4092
18392SOL     OW61011   3.354   9.802   8.192 -0.1171 -0.1182  0.3262
18392SOL    HW161012   3.288   9.811   8.124  1.6115 -1.6868 -1.6758
18392SOL    HW261013   3.327   9.725   8.242  0.2961 -0.9558 -0.6926
18393SOL     OW61014   2.326   9.611   8.564  0.4221 -0.5702 -0.2053
18393SOL    HW161015   2.240   9.569   8.572 -0.7904  1.5574 -1.0811
18393SOL    HW261016   2.342   9.614   8.470  1.3061 -0.6180 -0.0613
18394SOL     OW61017  10.614   6.739  10.516  0.8782  0.3437 -0.3217
18394SOL    HW161018  10.607   6.781  10.430 -1.8111  0.6959 -0.0096
18394SOL    HW261019  10.593   6.809  10.579  1.8445 -0.1519  0.5847
18395SOL     OW61020   2.354   9.707   5.176  0.1910  0.1703  0.2460
18395SOL    HW161021   2.434   9.721   5.227  0.0021  1.4908  0.2124
18395SOL    HW261022   2.381   9.650   5.104  1.9027  3.0308 -1.5664
18396SOL     OW61023   1.437   7.648   7.298  0.3152  0.5789 -0.1069
18396SOL    HW161024   1.369   7.672   7.360 -0.2439 -1.8786  0.3422
18396SOL    HW261025   1.394   7.651   7.212  0.0788  0.5221  0.0100
18397SOL     OW61026   8.657   1.029   3.901  0.1897  0.5263 -0.4063
18397SOL    HW161027   8.679   0.937   3.916  0.3459  0.1964 -2.4035
18397SOL    HW261028   8.580   1.026   3.844 -0.6390  1.6623  0.6109
18398SOL     OW61029   8.028   6.920   0.137 -0.6116 -0.7326  0.1399
18398SOL    HW161030   8.022   6.994   0.196  1.2845 -2.0652  2.1629
18398SOL    HW261031   7.959   6.860   0.165 -2.1281  0.1660 -1.4778
18399SOL     OW61032   1.855  10.259   4.268  0.2373  0.4342 -0.0055
18399SOL    HW161033   1.947  10.235   4.258  0.4955  0.9220  1.0792
18399SOL    HW261034   1.838  10.320   4.196  0.4974 -0.3614 -0.7547
18400SOL     OW61035   0.906   7.195   6.720 -0.5063  0.1816  0.3281
18400SOL    HW161036   0.874   7.277   6.756  0.4677  0.7766 -0.1341
18400SOL    HW261037   0.852   7.181   6.641 -1.0321  0.0911  0.6995
18401SOL     OW61038   5.897   3.926   8.850 -0.3845 -0.0963  0.8521
18401SOL    HW161039   5.830   3.992   8.834  0.2161  0.1847 -0.5487
18401SOL    HW261040   5.906   3.925   8.946 -0.7525  1.4791  0.9328
18402SOL     OW61041   9.861   2.767   4.031 -0.6557 -0.3256  0.4168
18402SOL    HW161042   9.837   2.859   4.031 -0.9000 -0.3376  2.5123
18402SOL    HW261043   9.904   2.753   4.116 -1.0891 -2.2249  0.3848
18403SOL     OW61044   3.351   5.175   5.403 -0.4197 -0.1344 -0.3351
18403SOL    HW161045   3.384   5.097   5.359 -0.8015 -0.9961  0.8468
18403SOL    HW261046   3.423   5.202   5.461 -1.0276 -0.8867  0.8203
18404SOL     OW61047   0.476   3.230   2.565 -0.1664  0.5907  0.7716
18404SOL    HW161048   0.527   3.303   2.528  0.1008  0.4698  0.8997
18404SOL    HW261049   0.492   3.236   2.659  0.8044 -0.3475  0.6790
18405SOL     OW61050   7.086   9.949   9.580 -0.3455  0.0538 -0.6513
18405SOL    HW161051   7.121   9.873   9.626  0.9480 -0.5348 -2.4999
18405SOL    HW261052   7.107  10.023   9.637 -0.9535 -0.8577  0.8180
18406SOL     OW61053   3.715   5.547   2.665  0.3721  0.0357 -0.5562
18406SOL    HW161054   3.806   5.551   2.694  0.6019  0.9050 -1.3388
18406SOL    HW261055   3.702   5.457   2.637  0.9609 -0.1169 -0.3500
18407SOL     OW61056   1.599   1.579   8.072 -0.0327 -0.0867 -0.0579
18407SOL    HW161057   1.676   1.625   8.038  0.5013 -0.4298  0.6637
18407SOL    HW261058   1.634   1.520   8.139 -0.9827  0.0915  0.6071
18408SOL     OW61059   6.302   8.810   8.730 -0.4221  0.1614  0.2683
18408SOL    HW161060   6.301   8.738   8.792 -1.4276  1.0050  1.2921
18408SOL    HW261061   6.214   8.810   8.692 -1.0815  1.9176  1.6413
18409SOL     OW61062   4.637   6.267   3.164  0.2254  0.1472 -0.4587
18409SOL    HW161063   4.638   6.355   3.127 -0.6994 -0.1343 -1.1847
18409SOL    HW261064   4.684   6.276   3.247  2.6540  0.7243 -1.7877
18410SOL     OW61065   7.084   7.251   9.469  0.2365 -0.0609 -0.1755
18410SOL    HW161066   7.129   7.290   9.544 -1.8538  0.3507  0.9424
18410SOL    HW261067   7.060   7.163   9.499 -2.1197  0.7045  0.3499
18411SOL     OW61068   3.053   1.474   4.872 -0.2295  0.4997 -0.1595
18411SOL    HW161069   2.998   1.549   4.892 -0.7363  0.4545 -1.2919
18411SOL    HW261070   2.999   1.419   4.814  0.7401  0.1069 -0.7199
18412SOL     OW61071   9.387   0.442   8.921  0.2961  0.5433  0.0034
18412SOL    HW161072   9.296   0.425   8.897  1.0157  0.0213 -2.5616
18412SOL    HW261073   9.413   0.366   8.973  0.1279 -0.7974 -1.8039
18413SOL     OW61074   6.913   4.649   2.927  0.4542  0.0178  0.3358
18413SOL    HW161075   6.955   4.672   3.010  0.8910  0.2049  0.0654
18413SOL    HW261076   6.914   4.731   2.877 -0.4064  0.0749  0.3989
18414SOL     OW61077  10.887   7.672   8.566  0.0402  0.4855  0.2389
18414SOL    HW161078  10.855   7.760   8.586 -1.4427 -0.4005  2.1979
18414SOL    HW261079  10.817   7.614   8.597  0.4130 -1.3710 -2.1255
18415SOL     OW61080   9.329   1.869   0.470 -0.4617  0.4727 -0.0603
18415SOL    HW161081   9.419   1.848   0.496 -0.1372 -0.5808 -1.8276
18415SOL    HW261082   9.283   1.785   0.473 -2.1352  1.3786  3.2544
18416SOL     OW61083  10.752   6.040   4.830 -0.6814 -0.1372  0.2421
18416SOL    HW161084  10.804   5.979   4.883 -1.0942 -0.5923  0.1367
18416SOL    HW261085  10.684   6.071   4.890  1.4642  2.8744  1.3402
18417SOL     OW61086  10.166  10.181   5.610  0.3726 -0.2121 -0.0283
18417SOL    HW161087  10.188  10.122   5.682 -0.4018 -0.3811  0.0730
18417SOL    HW261088  10.156  10.123   5.534 -1.3448 -0.3493  0.2684
18418SOL     OW61089   9.082   0.355   0.170 -0.0204 -0.0600  0.2204
18418SOL    HW161090   8.995   0.338   0.132 -0.3496 -0.5240  1.1581
18418SOL    HW261091   9.069   0.432   0.226 -0.1186 -0.8426  1.2975
18419SOL     OW61092   1.688  10.907   4.324  0.4204  0.1105 -0.0492
18419SOL    HW161093   1.670  10.921   4.417 -3.1034 -1.0213 -0.4035
18419SOL    HW261094   1.625  10.963   4.279  1.0541 -0.4629 -1.7246
18420SOL     OW61095  10.357   6.481   1.951 -0.4590  0.4411  0.1241
18420SOL    HW161096  10.444   6.490   1.989 -1.2728  1.0539  1.9395
18420SOL    HW261097  10.341   6.386   1.952  0.1720  0.3231 -0.2363
18421SOL     OW61098   1.173   7.495   1.794 -0.2055  0.5264  0.5610
18421SOL    HW161099   1.261   7.472   1.765 -0.1733  1.9522 -0.5755
18421SOL    HW261100   1.184   7.525   1.884  0.4446  0.5580  0.4712
18422SOL     OW61101   7.452   4.475   9.024 -0.3718 -0.1654  0.3364
18422SOL    HW161102   7.398   4.396   9.022 -1.0047  0.2375  0.8696
18422SOL    HW261103   7.391   4.544   9.052  0.2670  0.4278  0.2729
18423SOL     OW61104   2.293   8.159   3.346  0.0291 -0.1378  0.1948
18423SOL    HW161105   2.265   8.144   3.437  0.5644 -0.9924  0.2373
18423SOL    HW261106   2.214   8.143   3.294 -0.0281 -0.6902  0.4420
18424SOL     OW61107   2.686   0.704   9.723  0.3811  0.6806 -0.1899
18424SOL    HW161108   2.599   0.702   9.763  0.8775 -1.3319  0.9208
18424SOL    HW261109   2.731   0.776   9.768 -0.5523  1.4454 -0.4559
18425SOL     OW61110   8.430   8.932  10.427  0.4017 -0.5208 -0.1656
18425SOL    HW161111   8.429   8.853  10.481 -0.4061 -0.1519  0.3790
18425SOL    HW261112   8.521   8.942  10.400  0.5837 -1.4012  0.1135
18426SOL     OW61113   6.336   1.634   0.790 -0.5471 -0.0071 -0.1686
18426SOL    HW161114   6.376   1.720   0.804 -1.3023  0.7369 -2.2016
18426SOL    HW261115   6.408   1.572   0.803  0.4651  1.0596 -0.5004
18427SOL     OW61116  10.585   0.559   6.836  0.2816 -0.2952 -0.0691
18427SOL    HW161117  10.654   0.560   6.769 -0.2965 -1.1552 -0.6999
18427SOL    HW261118  10.632   0.575   6.919  1.3369 -1.4371 -0.4129
18428SOL     OW61119   8.379   3.506   5.253  0.3097  0.5524  0.1260
18428SOL    HW161120   8.463   3.512   5.207  0.3495 -0.0427  0.1049
18428SOL    HW261121   8.376   3.585   5.307  0.3703  1.1397 -0.7126
18429SOL     OW61122  10.264  10.056   5.339  0.3175  0.1691  0.0458
18429SOL    HW161123  10.347  10.064   5.385  0.6279  0.3450 -0.5323
18429SOL    HW261124  10.252   9.961   5.328  1.6133  0.1750 -1.9105
18430SOL     OW61125   1.129   9.730  10.139 -0.1657 -0.1607 -0.7142
18430SOL    HW161126   1.117   9.725  10.044  0.1621  0.6695 -0.8103
18430SOL    HW261127   1.201   9.791  10.151  0.0248 -0.5228  0.0643
18431SOL     OW61128   3.956   0.161   2.896  0.2106  0.4234  0.5930
18431SOL    HW161129   3.877   0.180   2.947  2.1039  2.0299  3.2042
18431SOL    HW261130   3.947   0.215   2.817 -1.3131  0.5447  0.8204
18432SOL     OW61131   6.714   2.364   5.659 -0.7913  0.2580 -0.1757
18432SOL    HW161132   6.775   2.436   5.677 -0.2103 -0.4536  0.8384
18432SOL    HW261133   6.663   2.356   5.739 -2.2557  0.8360 -1.0144
18433SOL     OW61134   9.971  10.213   1.149 -0.3515  0.1845 -0.4275
18433SOL    HW161135   9.884  10.251   1.133 -0.6987 -0.9295 -1.2545
18433SOL    HW261136  10.031  10.276   1.110 -0.9394 -0.1839 -2.0199
18434SOL     OW61137   9.843  10.669   8.352 -0.8547  0.2364 -0.3458
18434SOL    HW161138   9.793  10.747   8.376  0.7131  1.1490  0.1406
18434SOL    HW261139   9.795  10.631   8.279 -2.0400  1.2588 -0.1313
18435SOL     OW61140   8.016   2.574  10.289  0.4802 -0.3669  0.4960
18435SOL    HW161141   8.032   2.637  10.359  0.6108  1.6371 -1.2083
18435SOL    HW261142   8.102   2.562  10.248  0.5123 -1.9295  0.9773
18436SOL     OW61143   2.798   6.960   5.159 -0.0632 -0.2075  0.0448
18436SOL    HW161144   2.764   7.008   5.083 -0.8646 -0.6395  0.1186
18436SOL    HW261145   2.764   6.871   5.148 -1.4792  0.0852  1.6824
18437SOL     OW61146   9.654   3.565   9.414  0.3246  0.3227 -0.1159
18437SOL    HW161147   9.630   3.522   9.496  1.7247  0.1684  0.2426
18437SOL    HW261148   9.663   3.658   9.438  0.4414  0.3231 -0.1620
18438SOL     OW61149   4.752   5.076   3.431  0.4493 -0.0878 -0.0299
18438SOL    HW161150   4.782   4.986   3.419  1.0155  0.2865 -1.7841
18438SOL    HW261151   4.832   5.128   3.430  0.0094  0.6238 -1.3868
18439SOL     OW61152  10.205   1.104   5.073  0.5584  0.4167  0.4273
18439SOL    HW161153  10.294   1.112   5.108  0.5425  0.8298  0.3703
18439SOL    HW261154  10.202   1.163   4.998  0.1883  0.5252  0.5237
18440SOL     OW61155   9.186  10.245  10.786 -0.1865 -0.1723 -0.2452
18440SOL    HW161156   9.225  10.261  10.701 -0.8904 -0.1065 -0.5638
18440SOL    HW261157   9.163  10.332  10.819  0.2303 -0.1834  0.0876
18441SOL     OW61158   5.193   0.105   1.316  0.3761  0.6518 -0.0145
18441SOL    HW161159   5.097   0.097   1.313  0.2792  1.8380 -1.3914
18441SOL    HW261160   5.209   0.199   1.318  1.5303  0.4628  0.8160
18442SOL     OW61161   9.367   6.285   4.530 -0.1552 -0.0755  0.2454
18442SOL    HW161162   9.353   6.228   4.454 -0.7597 -0.7908  0.8738
18442SOL    HW261163   9.282   6.327   4.544  0.4212  1.3946 -0.5219
18443SOL     OW61164   9.067   3.941   8.458 -0.4747  0.2133  0.3181
18443SOL    HW161165   9.061   3.930   8.553 -1.1525 -0.0289  0.2552
18443SOL    HW261166   9.160   3.953   8.441 -0.1674 -1.1664  0.8680
18444SOL     OW61167   0.766   9.296   3.433 -0.4791 -0.8938 -0.5250
18444SOL    HW161168   0.836   9.302   3.499 -1.1253 -2.5091  0.3541
18444SOL    HW261169   0.810   9.314   3.350  0.3874  1.0360  0.3030
18445SOL     OW61170   8.171  10.077   1.525 -0.0039 -0.1317  0.8004
18445SOL    HW161171   8.122  10.062   1.445 -0.3005  0.1050  0.9326
18445SOL    HW261172   8.176   9.992   1.568  0.7074 -0.3834  0.2237
18446SOL     OW61173   7.996   0.673   3.183 -0.5396  0.5401 -0.2469
18446SOL    HW161174   7.981   0.616   3.108 -0.2452  0.5120 -0.2836
18446SOL    HW261175   8.021   0.757   3.145 -2.4848  1.1677 -0.2465
18447SOL     OW61176   3.232   5.212   8.486 -0.0814 -0.0822  0.5776
18447SOL    HW161177   3.172   5.246   8.553 -0.2178 -1.1420  1.0142
18447SOL    HW261178   3.314   5.259   8.501 -0.5492  0.7637  0.5252
18448SOL     OW61179   4.741   4.726   2.690  0.2351  0.9803  0.7968
18448SOL    HW161180   4.751   4.772   2.773  2.6716  1.3458  0.3735
18448SOL    HW261181   4.830   4.719   2.656 -0.7219  1.1584 -1.9604
18449SOL     OW61182   1.779   3.871   0.176 -0.2838  0.4215 -0.7505
18449SOL    HW161183   1.850   3.807   0.182  0.3332  1.1204 -0.4267
18449SOL    HW261184   1.779   3.914   0.262 -3.0815 -1.5976  0.4321
18450SOL     OW61185   5.349   2.634   3.144  0.1254 -0.2391  0.3385
18450SOL    HW161186   5.365   2.564   3.081  2.5050  1.2223 -0.8274
18450SOL    HW261187   5.314   2.706   3.091 -2.1342 -0.4034  1.4886
18451SOL     OW61188   6.834  10.061   5.430  0.1916  0.0461 -0.4918
18451SOL    HW161189   6.904  10.085   5.369  0.1825 -0.3298 -0.6497
18451SOL    HW261190   6.754  10.091   5.387 -0.1716 -2.9136 -2.1570
18452SOL     OW61191   6.099   7.903   4.500 -0.0178  0.6851  0.6155
18452SOL    HW161192   6.038   7.975   4.487  1.4955  1.8895 -0.0567
18452SOL    HW261193   6.163   7.912   4.430  0.3072 -1.2360  0.5955
18453SOL     OW61194   9.623   5.918   1.929 -0.0989  0.3929  0.0844
18453SOL    HW161195   9.618   5.880   2.017  3.0892 -0.1377  0.1771
18453SOL    HW261196   9.593   5.849   1.871 -1.2212  0.3665  0.6735
18454SOL     OW61197   1.984   8.729   5.671  0.3545 -0.0954  0.3500
18454SOL    HW161198   2.004   8.636   5.662  0.3246  0.0435 -1.6656
18454SOL    HW261199   1.889   8.732   5.684  0.2896 -0.3348 -0.0598
18455SOL     OW61200   8.050   0.908   3.475 -0.5078  0.0044 -0.0131
18455SOL    HW161201   8.073   0.873   3.561 -0.0058  0.1595 -0.0827
18455SOL    HW261202   7.954   0.906   3.474 -0.5631  1.0342  0.9785
18456SOL     OW61203   1.798   3.769   6.703  0.4952  0.1492  0.4739
18456SOL    HW161204   1.801   3.833   6.632  0.1473  0.2128  0.5130
18456SOL    HW261205   1.802   3.822   6.783 -1.5953  0.2942  0.5546
18457SOL     OW61206   3.138   1.878  10.257  0.2541 -0.1072 -0.6578
18457SOL    HW161207   3.151   1.958  10.206  0.3233  0.8451  0.7998
18457SOL    HW261208   3.159   1.807  10.196  2.1222  1.0308 -1.4117
18458SOL     OW61209   8.117   6.317   7.536 -0.0775 -0.0025  0.1772
18458SOL    HW161210   8.206   6.281   7.541  0.4238  1.3274  1.5764
18458SOL    HW261211   8.130   6.411   7.520 -1.2060  0.3616  1.2621
18459SOL     OW61212   2.848   0.789   7.967 -0.1760  0.5498 -0.4039
18459SOL    HW161213   2.884   0.701   7.975 -2.6833 -0.6415 -1.2178
18459SOL    HW261214   2.821   0.812   8.057 -0.5735 -0.0297 -0.3674
18460SOL     OW61215  10.766   1.352   2.868  0.2985  0.1267  0.0326
18460SOL    HW161216  10.682   1.395   2.883 -0.1063 -0.7487  0.3369
18460SOL    HW261217  10.786   1.309   2.950 -0.7579 -2.7152 -1.0773
18461SOL     OW61218   4.388   4.352   9.673 -0.1135  0.2829  0.2071
18461SOL    HW161219   4.442   4.375   9.748  1.1440  0.3362 -0.6796
18461SOL    HW261220   4.360   4.437   9.637 -1.6570  0.2496  1.2316
18462SOL     OW61221   0.758   0.127   2.386 -0.3487  0.4786 -0.2142
18462SOL    HW161222   0.783   0.075   2.462 -0.8162  2.6260  1.4907
18462SOL    HW261223   0.695   0.071   2.340 -0.0749 -0.8700  0.9547
18463SOL     OW61224   1.954   4.181   6.782  0.5111  0.1396  0.3250
18463SOL    HW161225   2.047   4.187   6.804 -0.0647  0.7018  3.0991
18463SOL    HW261226   1.932   4.268   6.748  0.8809  0.1810  0.1864
18464SOL     OW61227   8.489   7.500   4.928  0.0077  0.1590 -0.8106
18464SOL    HW161228   8.406   7.536   4.960 -0.0197 -0.4165 -0.2000
18464SOL    HW261229   8.553   7.569   4.943  0.3036 -0.5796  1.9713
18465SOL     OW61230  10.253   2.093   3.103  0.4919 -0.0729 -0.8127
18465SOL    HW161231  10.256   2.177   3.148  0.8114  0.0648 -1.0902
18465SOL    HW261232  10.241   2.029   3.173  1.6064  0.0846 -0.4521
18466SOL     OW61233   0.104   7.437  10.580  0.1065  0.0834 -0.0438
18466SOL    HW161234   0.155   7.486  10.645 -1.4067  0.6154  0.7859
18466SOL    HW261235   0.129   7.346  10.596  1.1298  0.3563  0.0314
18467SOL     OW61236   9.043  10.461   4.824  0.0382 -0.0429 -0.1191
18467SOL    HW161237   9.108  10.392   4.838  0.5532  0.3550 -0.4536
18467SOL    HW261238   9.090  10.526   4.771 -1.0716 -0.4186 -1.6333
18468SOL     OW61239   6.634  10.573   5.003 -0.0413  0.8274 -0.2297
18468SOL    HW161240   6.632  10.621   5.086 -0.1669  0.9147 -0.2832
18468SOL    HW261241   6.542  10.560   4.980 -0.0979 -1.7570  1.0978
18469SOL     OW61242   9.876   8.316   4.792 -0.2123 -0.1440  0.1514
18469SOL    HW161243   9.875   8.341   4.884 -0.4399 -0.7022  0.3042
18469SOL    HW261244   9.788   8.284   4.775 -0.9784  2.3344 -0.9446
18470SOL     OW61245   9.701   7.807   1.426  0.7513 -0.1165  0.5336
18470SOL    HW161246   9.742   7.867   1.489  1.5600  0.4764 -0.5293
18470SOL    HW261247   9.613   7.843   1.413  0.8205  0.1524  0.7927
18471SOL     OW61248   2.542   0.315   7.804 -0.0695  0.1243 -0.6686
18471SOL    HW161249   2.572   0.284   7.718 -2.7840 -0.1222 -1.6134
18471SOL    HW261250   2.543   0.237   7.859  2.6167  0.4654 -0.0969
18472SOL     OW61251   9.046   1.282   3.270  0.1475  0.0413  0.8539
18472SOL    HW161252   8.975   1.343   3.291 -0.4545  0.3073 -1.5656
18472SOL    HW261253   9.102   1.282   3.347 -1.8904  0.6751  2.4220
18473SOL     OW61254   7.660   0.240  10.313  0.8498 -0.3242 -0.5107
18473SOL    HW161255   7.744   0.207  10.282  0.1603 -1.7216 -0.9508
18473SOL    HW261256   7.625   0.171  10.368  0.0159  0.2706 -0.2682
18474SOL     OW61257   5.265   7.602  10.040  0.6107 -0.2742 -0.0130
18474SOL    HW161258   5.331   7.535  10.058  0.6338 -0.8435 -1.9603
18474SOL    HW261259   5.310   7.685  10.053  1.3506 -0.6587 -0.1013
18475SOL     OW61260   1.428   8.874   9.835 -0.3361 -0.0105  0.5217
18475SOL    HW161261   1.398   8.940   9.772 -1.7726  0.4614  1.6357
18475SOL    HW261262   1.384   8.794   9.807  2.0538 -0.7673 -1.3248
18476SOL     OW61263   0.610   2.307   8.018  0.1232  0.2206 -0.2030
18476SOL    HW161264   0.703   2.287   8.016  0.9238  3.5236 -0.9276
18476SOL    HW261265   0.583   2.309   7.927 -0.5481 -0.1158 -0.0250
18477SOL     OW61266   1.332   1.441   2.373 -0.5543 -0.6416  0.6639
18477SOL    HW161267   1.362   1.518   2.421 -1.7287 -0.9574  1.9502
18477SOL    HW261268   1.320   1.373   2.440  2.0936 -2.5396 -0.6128
18478SOL     OW61269   8.881   4.576   7.262 -0.2421 -0.7046 -0.1587
18478SOL    HW161270   8.905   4.489   7.230 -0.3569 -0.3566 -1.2391
18478SOL    HW261271   8.799   4.563   7.309  0.4115 -1.3822  0.8233
18479SOL     OW61272   5.939   6.477   2.499  0.0946 -0.3464 -0.4819
18479SOL    HW161273   5.850   6.445   2.512  0.2544 -0.8563 -0.6183
18479SOL    HW261274   5.995   6.404   2.526  0.4917  0.3221  0.5763
18480SOL     OW61275   4.533   2.117   1.495 -0.2983  0.0421  0.3912
18480SOL    HW161276   4.609   2.060   1.482  0.7132  0.8748  2.2396
18480SOL    HW261277   4.544   2.151   1.584 -2.3400  0.9524  0.3457
18481SOL     OW61278   6.693   1.276   4.154 -0.2494  0.5838  0.2048
18481SOL    HW161279   6.718   1.263   4.246  1.3023 -0.2044 -0.3040
18481SOL    HW261280   6.713   1.193   4.111 -1.4297  0.7732 -0.7759
18482SOL     OW61281   8.482   1.387   6.810 -0.1830  0.0442  0.5778
18482SOL    HW161282   8.427   1.321   6.768  0.8779 -1.1125  0.9461
18482SOL    HW261283   8.572   1.361   6.789  0.2641  2.6843 -1.2095
18483SOL     OW61284   1.697  10.418   0.431  0.0214  0.7099 -0.3229
18483SOL    HW161285   1.690  10.359   0.506  0.0374  0.8041 -0.2481
18483SOL    HW261286   1.606  10.433   0.404 -0.0233  1.2369  0.1112
18484SOL     OW61287   8.264   6.409   6.009  0.1154 -0.0266 -0.4670
18484SOL    HW161288   8.275   6.467   6.084  0.1929 -0.2417 -0.3101
18484SOL    HW261289   8.267   6.321   6.046 -0.0816 -0.1306 -0.6900
18485SOL     OW61290   4.277   8.809   9.406  0.1221 -0.2378  0.0735
18485SOL    HW161291   4.305   8.827   9.316 -2.0211  1.1036 -0.3966
18485SOL    HW261292   4.191   8.769   9.397 -1.1271  1.8924  1.4947
18486SOL     OW61293   5.355  10.387   9.221 -0.0161 -0.0997 -0.4970
18486SOL    HW161294   5.353  10.423   9.132  1.3401 -0.9060 -0.8907
18486SOL    HW261295   5.350  10.293   9.209 -2.6567 -0.1546  0.4772
18487SOL     OW61296   4.182   6.642   1.072 -0.8539  0.5555 -0.5744
18487SOL    HW161297   4.097   6.654   1.115 -2.0521 -0.8700 -2.3577
18487SOL    HW261298   4.185   6.549   1.050  0.3745  0.9171 -2.0999
18488SOL     OW61299   6.485   9.434   6.997  0.4711 -0.1411 -0.3379
18488SOL    HW161300   6.499   9.490   7.074  2.5194 -0.0379 -0.7352
18488SOL    HW261301   6.425   9.484   6.942 -1.1804 -0.2856  1.2059
18489SOL     OW61302   3.964   8.077  10.769  0.3800  0.0042 -0.4351
18489SOL    HW161303   3.948   8.146  10.832  2.1404  1.5294 -1.5452
18489SOL    HW261304   3.891   8.015  10.781  0.5754  0.2429  2.9480
18490SOL     OW61305   7.282   4.492   1.226 -0.1866 -0.4629  0.1254
18490SOL    HW161306   7.216   4.424   1.215  1.0981 -1.8795  0.7810
18490SOL    HW261307   7.344   4.477   1.155 -0.5315  0.8407 -0.4767
18491SOL     OW61308   2.871   9.111  10.083  0.5569 -0.2243 -0.4562
18491SOL    HW161309   2.839   9.068  10.162  1.7514 -1.2800 -0.5084
18491SOL    HW261310   2.952   9.155  10.111  0.0270  0.9268 -0.6978
18492SOL     OW61311   3.958   2.574   1.981  0.4434 -0.5532  0.2773
18492SOL    HW161312   4.005   2.514   2.040  0.6343 -0.3314  0.3509
18492SOL    HW261313   3.943   2.652   2.034 -2.3223 -1.5574  1.1305
18493SOL     OW61314  10.011   9.192   9.202 -0.1236  0.4224  0.1945
18493SOL    HW161315  10.029   9.100   9.188 -1.7571 -0.0858  1.0971
18493SOL    HW261316  10.081   9.222   9.260 -1.2274 -1.0993  2.4707
18494SOL     OW61317   5.093   2.338   8.747  0.6387  0.3467  0.5469
18494SOL    HW161318   5.109   2.372   8.836 -0.0141  0.2436  0.7115
18494SOL    HW261319   5.001   2.359   8.731  0.3571 -0.9165  0.4580
18495SOL     OW61320   3.595   7.154   1.622 -0.4409 -0.2605 -0.0145
18495SOL    HW161321   3.582   7.194   1.536 -1.4352 -2.1143 -0.7927
18495SOL    HW261322   3.648   7.217   1.671 -0.3241  1.0816 -1.7893
18496SOL     OW61323   0.231   5.496   9.473 -0.6659 -0.5530 -0.3001
18496SOL    HW161324   0.165   5.547   9.425  1.0106  0.5015 -1.5658
18496SOL    HW261325   0.240   5.541   9.557  1.4606  1.9494 -1.7344
18497SOL     OW61326   8.665   5.703   0.539  0.3787 -0.0545  0.1084
18497SOL    HW161327   8.736   5.691   0.602 -0.8047 -1.4549  1.2585
18497SOL    HW261328   8.708   5.738   0.461  2.0101  0.9805  1.4005
18498SOL     OW61329   1.326   6.304   9.055  0.3309  0.0381  0.0090
18498SOL    HW161330   1.337   6.305   8.960  0.4415  1.0369  0.0242
18498SOL    HW261331   1.267   6.377   9.074  0.5059  0.0043  0.7288
18499SOL     OW61332   9.155   1.661   2.416  0.7114  0.3562 -0.2191
18499SOL    HW161333   9.086   1.648   2.481  3.3515 -1.7282  2.4434
18499SOL    HW261334   9.119   1.626   2.335 -1.2928 -0.8105  1.0914
18500SOL     OW61335   4.860   0.436   1.193  0.4411 -0.1594 -0.3093
18500SOL    HW161336   4.829   0.460   1.281 -0.1868 -0.8842 -0.3208
18500SOL    HW261337   4.952   0.413   1.206  0.7760  1.1864 -0.1157
18501SOL     OW61338   0.189   5.124   7.416  0.1197 -1.2359  0.0861
18501SOL    HW161339   0.123   5.120   7.484 -1.9751 -1.3967 -1.8317
18501SOL    HW261340   0.235   5.040   7.421 -0.4838 -1.5261  0.8145
18502SOL     OW61341   7.133   5.264   9.639  0.2260  0.0127 -0.6784
18502SOL    HW161342   7.103   5.263   9.548 -0.2820  0.7784 -0.5285
18502SOL    HW261343   7.109   5.178   9.673  0.5285 -0.3244 -1.3018
18503SOL     OW61344   5.121   1.336   6.230  0.1238 -0.3112 -0.5122
18503SOL    HW161345   5.210   1.372   6.229 -0.5297  1.4435  0.5431
18503SOL    HW261346   5.083   1.364   6.146  0.3780 -0.5773 -0.7185
18504SOL     OW61347   9.896  10.260   6.764 -0.0486  0.1629 -0.1718
18504SOL    HW161348   9.984  10.227   6.781 -0.4211  0.2786  2.5991
18504SOL    HW261349   9.865  10.211   6.688  2.2441 -0.1289 -0.9715
18505SOL     OW61350   6.633   1.529  10.607 -0.4583 -0.6262 -0.7659
18505SOL    HW161351   6.617   1.441  10.639 -2.0460 -0.4957 -1.0895
18505SOL    HW261352   6.555   1.578  10.631 -0.3457  0.2542 -2.0586
18506SOL     OW61353   0.513   9.294   7.586 -0.1688  0.1297 -0.5517
18506SOL    HW161354   0.603   9.299   7.554  0.0828  0.3731  0.1874
18506SOL    HW261355   0.512   9.347   7.665 -0.4199 -1.6391  0.6927
18507SOL     OW61356   5.087  10.343   9.797 -0.3582  0.6668  0.2745
18507SOL    HW161357   5.155  10.276   9.796 -0.4217  0.5133  2.5095
18507SOL    HW261358   5.007  10.297   9.771  0.1303  0.5940 -1.1990
18508SOL     OW61359   4.872   1.423   9.635  0.4915 -0.1431 -0.4367
18508SOL    HW161360   4.944   1.436   9.573  0.8530  1.6220  0.2852
18508SOL    HW261361   4.863   1.507   9.679 -2.1588 -0.2461 -0.6228
18509SOL     OW61362   4.417   3.639  10.489 -0.1526  0.2496 -0.0962
18509SOL    HW161363   4.333   3.612  10.451 -0.6585 -1.3343  1.9727
18509SOL    HW261364   4.437   3.571  10.553  2.0675  1.3004  0.4193
18510SOL     OW61365   1.890   7.964   8.483 -0.4597 -0.0321  0.2094
18510SOL    HW161366   1.832   8.016   8.428  0.8320  2.1559  0.7831
18510SOL    HW261367   1.884   8.004   8.569  0.7355 -0.7118  0.6454
18511SOL     OW61368   7.639  10.008   2.333 -0.3259  0.4050  0.1282
18511SOL    HW161369   7.577  10.068   2.291  1.6639  2.7777  0.3798
18511SOL    HW261370   7.701   9.985   2.264 -0.6281 -0.8093  0.2368
18512SOL     OW61371   8.489   7.222   5.901  0.2333  0.0180 -0.1263
18512SOL    HW161372   8.443   7.160   5.845 -0.1605 -1.3982  1.6729
18512SOL    HW261373   8.444   7.305   5.887 -0.6081 -0.5689 -1.0100
18513SOL     OW61374   8.332  10.121   9.121 -0.3030  0.4018 -0.1607
18513SOL    HW161375   8.239  10.136   9.137 -0.5665 -0.7516 -0.5024
18513SOL    HW261376   8.343  10.026   9.129  0.4946  0.3138 -1.8439
18514SOL     OW61377   4.389   2.874   1.307  0.0262 -0.3480  0.3656
18514SOL    HW161378   4.369   2.920   1.225  1.2155 -0.0678  0.2163
18514SOL    HW261379   4.317   2.898   1.366 -1.5546 -1.5696 -0.9646
18515SOL     OW61380   1.575   1.586   7.148 -0.2221  0.2043  0.5942
18515SOL    HW161381   1.618   1.653   7.202  2.0710  0.9423 -1.8873
18515SOL    HW261382   1.606   1.503   7.183  1.9391  0.6926  0.0151
18516SOL     OW61383  10.702   5.137   4.750 -0.3767  0.1761  0.1425
18516SOL    HW161384  10.731   5.134   4.658 -0.9258  1.8971 -0.1164
18516SOL    HW261385  10.627   5.078   4.753 -0.5508  0.3492 -0.5993
18517SOL     OW61386   6.197  10.220   6.718  0.5377  0.5865  0.0408
18517SOL    HW161387   6.179  10.232   6.625 -3.8210  1.1390  0.7367
18517SOL    HW261388   6.252  10.142   6.723  1.3744  0.8809 -2.9798
18518SOL     OW61389   2.933   8.652   3.187  0.5570 -0.3329  0.1740
18518SOL    HW161390   2.919   8.583   3.252  3.1601 -1.0778  0.0135
18518SOL    HW261391   2.878   8.627   3.113 -1.8079  0.0762  1.6848
18519SOL     OW61392   9.788   8.052   7.096  0.2766  0.4538  0.4613
18519SOL    HW161393   9.849   7.989   7.135 -0.8481 -0.5611  0.6280
18519SOL    HW261394   9.783   8.123   7.160 -0.1817 -0.3575  1.3427
18520SOL     OW61395   5.376  10.408   8.305 -0.7781 -0.8185  0.6966
18520SOL    HW161396   5.301  10.465   8.323 -1.2005 -0.9784 -0.5169
18520SOL    HW261397   5.374  10.394   8.211  0.1954 -1.6490  0.7829
18521SOL     OW61398   2.688   0.303   1.316  0.1107 -0.1484  0.3083
18521SOL    HW161399   2.716   0.222   1.358  0.2918 -0.2738 -0.0492
18521SOL    HW261400   2.752   0.368   1.346 -0.0373 -0.1362  0.5985
18522SOL     OW61401   5.034   7.334   2.429 -0.3197  0.9070  0.3314
18522SOL    HW161402   5.103   7.333   2.495  1.9208  2.9575 -1.7836
18522SOL    HW261403   5.080   7.332   2.345 -3.0472 -1.6459 -1.2957
18523SOL     OW61404   6.044   2.823  10.636 -0.5495 -0.0955 -0.6120
18523SOL    HW161405   6.042   2.727  10.627 -1.4986 -0.0195 -1.5079
18523SOL    HW261406   6.107   2.840  10.706 -0.9196 -1.4172  0.0709
18524SOL     OW61407   3.877   7.562   2.640  0.0785  0.4105 -0.3474
18524SOL    HW161408   3.817   7.583   2.568  0.4026  0.5898 -0.5674
18524SOL    HW261409   3.887   7.467   2.637 -0.5492  0.3298 -0.0252
18525SOL     OW61410   7.155   8.861  10.042  0.0565  0.8158 -0.1071
18525SOL    HW161411   7.113   8.947  10.032 -0.7223  0.2725 -1.9090
18525SOL    HW261412   7.191   8.842   9.956 -1.5814 -1.5530 -0.3557
18526SOL     OW61413   6.551   0.816   1.509 -0.6396  0.2325  0.0270
18526SOL    HW161414   6.545   0.725   1.537  0.9981 -0.4813 -1.6424
18526SOL    HW261415   6.466   0.835   1.469 -0.8617 -0.7084  0.0294
18527SOL     OW61416  10.101   6.677   7.124  0.0392  0.9774  0.3319
18527SOL    HW161417  10.126   6.624   7.048 -1.1022  0.6714  0.1556
18527SOL    HW261418  10.109   6.768   7.094 -0.7384  0.8529 -0.2718
18528SOL     OW61419   6.435   1.886  10.754  0.3220  0.5382  0.5690
18528SOL    HW161420   6.457   1.826  10.825  0.7237  0.6270  0.5241
18528SOL    HW261421   6.351   1.855  10.720  0.6562 -0.1537  0.3721
18529SOL     OW61422   2.786   3.747   0.333 -0.0956  0.0907 -0.0447
18529SOL    HW161423   2.827   3.662   0.344  2.5773  1.5342  2.0975
18529SOL    HW261424   2.693   3.731   0.352  0.0129 -2.5385 -1.2007
18530SOL     OW61425   5.304   3.514   7.995 -0.0184 -0.2190  0.1077
18530SOL    HW161426   5.321   3.607   8.007 -2.6167  0.1387  1.9297
18530SOL    HW261427   5.347   3.492   7.912  1.5947  2.2992  0.1646
18531SOL     OW61428   1.815   4.130   1.191  0.0015  0.4972 -0.0767
18531SOL    HW161429   1.897   4.118   1.143  0.3687  1.5906  0.2615
18531SOL    HW261430   1.825   4.076   1.269  0.0419 -0.0397 -0.4414
18532SOL     OW61431   3.987   2.279   6.495  0.0808  0.4444  0.0350
18532SOL    HW161432   4.075   2.246   6.480  0.2957  1.0646 -0.1129
18532SOL    HW261433   3.991   2.320   6.582 -0.6386 -1.3951  1.0021
18533SOL     OW61434   1.135   6.212  10.364 -0.2808  0.0501 -0.5400
18533SOL    HW161435   1.213   6.263  10.384  0.7891 -2.2911  1.9008
18533SOL    HW261436   1.069   6.243  10.426 -0.4290  0.1536 -0.7470
18534SOL     OW61437   8.456   6.565   1.318 -0.3739  0.3812  0.4197
18534SOL    HW161438   8.376   6.531   1.358 -0.1386 -0.3986  0.2533
18534SOL    HW261439   8.509   6.487   1.302 -0.8951  0.5132 -2.3951
18535SOL     OW61440   0.568   9.178   7.931  0.3993  0.2461 -0.4277
18535SOL    HW161441   0.604   9.186   8.019 -0.0645 -1.1342 -0.0759
18535SOL    HW261442   0.482   9.138   7.944  0.1887  0.3155 -1.4886
18536SOL     OW61443   8.815   9.918   4.410 -0.0537 -0.0069  0.2591
18536SOL    HW161444   8.889   9.888   4.463 -0.8667  1.1642  2.1363
18536SOL    HW261445   8.751   9.846   4.415 -0.4914  0.4560  1.6600
18537SOL     OW61446   5.765   4.166   0.242 -0.2675  0.0898  0.2974
18537SOL    HW161447   5.715   4.084   0.237 -0.2274  0.1255 -1.3997
18537SOL    HW261448   5.699   4.234   0.227 -0.4048  0.4524  2.2729
18538SOL     OW61449   5.922   4.648   1.181  0.1084 -0.7529 -0.5213
18538SOL    HW161450   5.853   4.672   1.119  1.2888  0.7946 -1.2976
18538SOL    HW261451   5.987   4.718   1.173 -0.5936  0.7441  4.0043
18539SOL     OW61452   5.061   2.136  10.277  0.1357  0.5839  0.2841
18539SOL    HW161453   5.016   2.079  10.339 -0.1477  1.7182  1.1803
18539SOL    HW261454   5.154   2.120  10.292  0.0570  0.2477  0.4135
18540SOL     OW61455   6.971   0.827   5.939 -0.4161  0.2196  0.2815
18540SOL    HW161456   7.012   0.891   5.998  0.3050  0.6605 -0.6715
18540SOL    HW261457   6.972   0.745   5.989  2.0851  0.1000  0.1460
18541SOL     OW61458   1.107   8.953   8.110  0.1961  0.3715  0.2306
18541SOL    HW161459   1.167   8.913   8.047 -0.5379 -0.5592  0.0931
18541SOL    HW261460   1.143   8.931   8.195  0.0536 -0.2105  0.1487
18542SOL     OW61461   6.586   2.558   0.907 -0.1849 -0.2829 -0.3304
18542SOL    HW161462   6.652   2.615   0.947 -0.6972 -0.1519  0.3523
18542SOL    HW261463   6.633   2.476   0.890  0.4592  0.2124 -0.9774
18543SOL     OW61464   6.974   5.681   4.332  0.4273  0.1696 -0.4016
18543SOL    HW161465   6.983   5.611   4.266 -0.8298 -0.3356 -0.0541
18543SOL    HW261466   6.883   5.676   4.360 -0.1935  3.0569 -1.5742
18544SOL     OW61467   1.038   8.866   9.745  0.0472 -0.1778 -0.0898
18544SOL    HW161468   1.120   8.908   9.719 -0.2995 -0.3453 -1.5026
18544SOL    HW261469   1.023   8.898   9.834  1.1705  0.5720 -0.1422
18545SOL     OW61470   2.505   9.858   4.778  0.1986 -0.1068 -0.1607
18545SOL    HW161471   2.424   9.827   4.737  0.2143 -1.2871  0.6692
18545SOL    HW261472   2.545   9.780   4.815  1.2801  0.6026  0.2171
18546SOL     OW61473   8.298  10.924   0.434 -0.2595 -0.5216  0.0133
18546SOL    HW161474   8.308  10.924   0.529 -0.1187  0.2296  0.0011
18546SOL    HW261475   8.225  10.864   0.418 -0.9884  0.1566  0.6793
18547SOL     OW61476   5.661   5.058   9.774  0.1477 -0.1061 -0.4145
18547SOL    HW161477   5.609   5.003   9.716 -0.5008  1.3737 -1.2961
18547SOL    HW261478   5.598   5.096   9.836  0.4827  0.0893 -0.1882
18548SOL     OW61479   5.799   2.382   7.779 -0.0377  0.1095  0.2149
18548SOL    HW161480   5.839   2.466   7.802  0.0470  0.3452 -0.7302
18548SOL    HW261481   5.717   2.381   7.828 -1.0202  1.6786 -1.2382
18549SOL     OW61482   8.290   4.876   4.010 -0.4072 -0.2026 -0.3088
18549SOL    HW161483   8.208   4.863   3.963  0.9723  0.6356 -3.1687
18549SOL    HW261484   8.336   4.793   4.002 -0.5832 -0.3960  0.5503
18550SOL     OW61485   1.771   4.688   6.681 -0.0279  0.3700 -0.1527
18550SOL    HW161486   1.685   4.695   6.639  0.7238  1.1636 -1.6392
18550SOL    HW261487   1.792   4.777   6.708  0.9142  0.4285 -1.0369
18551SOL     OW61488   4.664   8.165  10.420  0.5139  0.0136  0.2355
18551SOL    HW161489   4.581   8.123  10.394 -0.4540  2.2175 -0.4710
18551SOL    HW261490   4.691   8.117  10.498 -0.9117 -1.3999 -0.0706
18552SOL     OW61491   1.255   2.265   7.595  0.0364  0.0735  0.0800
18552SOL    HW161492   1.259   2.299   7.505  1.5183 -0.1319  0.0432
18552SOL    HW261493   1.289   2.336   7.649  1.1719 -0.5532  0.2283
18553SOL     OW61494   0.561   7.744   5.384 -0.4645  0.0612 -0.4298
18553SOL    HW161495   0.593   7.786   5.463  0.6166  1.1020 -1.3761
18553SOL    HW261496   0.485   7.693   5.412  0.3578 -0.2163  1.3909
18554SOL     OW61497   7.270   0.431   2.400 -0.4696 -0.3039  0.3792
18554SOL    HW161498   7.293   0.520   2.371  0.0950  0.4192  2.7827
18554SOL    HW261499   7.349   0.379   2.383 -0.3249 -0.0204  0.1777
18555SOL     OW61500   4.904   1.089  10.834  0.5178 -0.0356 -0.3676
18555SOL    HW161501   4.862   1.055  10.756 -0.0838 -0.6581  0.2112
18555SOL    HW261502   4.867   1.037  10.906  2.3970 -0.7433  0.1565
18556SOL     OW61503   0.669   8.173   6.715  0.0307 -0.0360  0.0162
18556SOL    HW161504   0.694   8.082   6.700  0.2086 -0.1129  0.7236
18556SOL    HW261505   0.640   8.175   6.806  0.2803  0.6689  0.0876
18557SOL     OW61506   7.079   4.560   2.607 -0.2713  0.1959  0.0181
18557SOL    HW161507   7.153   4.500   2.593 -0.4179  0.4022 -1.8334
18557SOL    HW261508   7.119   4.646   2.618 -0.1826  0.1095  0.4005
18558SOL     OW61509   3.252   4.783   5.984  0.0308  0.1215  0.6060
18558SOL    HW161510   3.187   4.780   6.054  0.5742  0.2037  1.1222
18558SOL    HW261511   3.336   4.781   6.029  0.4121 -1.1956 -0.0953
18559SOL     OW61512   9.787   5.281   0.316  0.1280 -0.4405  0.1395
18559SOL    HW161513   9.880   5.303   0.304  0.0333  0.0492  0.2552
18559SOL    HW261514   9.765   5.226   0.241  0.5553 -0.6958  0.1983
18560SOL     OW61515  10.868   5.076   6.996  0.2438  0.3941  0.0681
18560SOL    HW161516  10.958   5.102   6.978  0.4748 -0.0439  0.5986
18560SOL    HW261517  10.869   4.981   6.993  0.4811  0.1968  3.1476
18561SOL     OW61518   3.993   2.890   8.257 -0.0802 -0.1341  0.0354
18561SOL    HW161519   3.913   2.842   8.280  1.5776 -2.1898  2.1107
18561SOL    HW261520   3.994   2.891   8.162 -3.4052  1.5903 -0.1248
18562SOL     OW61521   0.510   5.782   7.203  0.2410 -0.0909 -0.1742
18562SOL    HW161522   0.455   5.841   7.152 -0.6346  0.2495  1.1188
18562SOL    HW261523   0.450   5.715   7.235  0.5836  0.2146  1.1678
18563SOL     OW61524   0.268   3.165   9.460  0.0449 -0.1832 -0.3860
18563SOL    HW161525   0.224   3.097   9.511 -1.9553  0.1977 -1.5052
18563SOL    HW261526   0.360   3.155   9.482 -0.5625 -1.0030  2.1277
18564SOL     OW61527   4.374   5.037   7.661 -0.2029  0.6115  0.1589
18564SOL    HW161528   4.329   5.015   7.580 -1.0384 -0.4910  0.8842
18564SOL    HW261529   4.461   4.997   7.653 -0.9043 -1.0838  0.5079
18565SOL     OW61530   1.061   9.143   6.495 -0.4455 -0.3320  0.3792
18565SOL    HW161531   0.976   9.186   6.499  0.3857  1.5619 -1.2300
18565SOL    HW261532   1.122   9.211   6.467  1.2669 -2.1131 -0.4652
18566SOL     OW61533   5.643   6.402   6.900 -0.1620  0.2273 -0.0493
18566SOL    HW161534   5.574   6.409   6.835  0.5371  0.8530 -0.7395
18566SOL    HW261535   5.724   6.411   6.850  0.4225 -0.4599  0.7512
18567SOL     OW61536   1.606   8.636   9.694 -0.1639 -0.1315 -0.2055
18567SOL    HW161537   1.510   8.632   9.693 -0.3447  2.2708 -2.5150
18567SOL    HW261538   1.634   8.557   9.647 -0.9896 -0.7341  0.2812
18568SOL     OW61539   6.671   8.218   5.199  0.3822 -0.9357  0.5234
18568SOL    HW161540   6.606   8.234   5.267  0.2657  1.9169 -0.1036
18568SOL    HW261541   6.627   8.241   5.117  1.2656 -1.9118 -0.2562
18569SOL     OW61542   5.619   2.670   2.263  0.2580 -0.0947 -0.2271
18569SOL    HW161543   5.663   2.746   2.301  1.5645 -0.5849 -0.7302
18569SOL    HW261544   5.632   2.600   2.327  0.4806 -0.3263 -0.5255
18570SOL     OW61545   5.289   6.169   4.469  0.5122  0.4588  0.1485
18570SOL    HW161546   5.232   6.141   4.397  0.7175 -1.2283  0.6176
18570SOL    HW261547   5.241   6.242   4.509  0.0925  1.0194 -1.2781
18571SOL     OW61548   0.234  10.670   4.719 -0.2454  0.4729 -0.6887
18571SOL    HW161549   0.326  10.692   4.704 -0.0811  1.8768  1.7789
18571SOL    HW261550   0.222  10.586   4.676  1.7992  0.8873 -2.2481
18572SOL     OW61551   0.150   1.445   4.129  0.1371  0.7050  0.4421
18572SOL    HW161552   0.089   1.471   4.061  0.3996 -0.5920 -0.3165
18572SOL    HW261553   0.236   1.445   4.087  0.3273  0.0793  0.8077
18573SOL     OW61554   6.004   4.417   3.486  0.0674  0.5016 -0.1551
18573SOL    HW161555   5.909   4.405   3.492 -0.0061  1.2071  0.2283
18573SOL    HW261556   6.028   4.457   3.569  0.4939  1.6167 -0.7949
18574SOL     OW61557   6.211   0.783   5.333 -0.6250  0.1147 -0.2056
18574SOL    HW161558   6.227   0.874   5.309  1.5160 -0.5834 -1.7662
18574SOL    HW261559   6.281   0.761   5.394 -1.8917 -0.1638  1.2045
18575SOL     OW61560   7.821   4.778   1.177 -0.3233  0.4318 -0.1112
18575SOL    HW161561   7.792   4.742   1.093  0.8923  0.2082 -0.4609
18575SOL    HW261562   7.770   4.732   1.242 -0.4834 -0.2133 -0.6820
18576SOL     OW61563   7.158   1.575   9.944  0.7383 -0.0125  0.0467
18576SOL    HW161564   7.092   1.619   9.997  0.8693 -1.5339  1.5727
18576SOL    HW261565   7.167   1.630   9.866 -1.9083  0.5206  0.0198
18577SOL     OW61566   4.114   6.937   9.690 -0.1932 -0.0126 -0.0152
18577SOL    HW161567   4.108   7.000   9.618 -0.2867 -0.7450 -0.6688
18577SOL    HW261568   4.203   6.901   9.682 -0.2082 -0.1037  0.2347
18578SOL     OW61569   1.120   8.562   6.120 -0.5264  0.0844 -0.3232
18578SOL    HW161570   1.139   8.518   6.203 -1.0871  0.5950  0.0843
18578SOL    HW261571   1.167   8.645   6.125 -1.2541  0.4997 -0.1304
18579SOL     OW61572   2.279   4.936   4.407 -0.0268  0.0241 -0.0986
18579SOL    HW161573   2.315   4.851   4.381  0.0903 -0.2056  0.7980
18579SOL    HW261574   2.282   4.936   4.503  1.0013  1.4919 -0.1004
18580SOL     OW61575   9.436   1.803   5.828 -0.1979 -0.0403 -0.2185
18580SOL    HW161576   9.457   1.836   5.916  0.6027  0.6220 -0.6407
18580SOL    HW261577   9.480   1.718   5.824  0.4827  0.3050 -0.2657
18581SOL     OW61578   1.302   2.795   8.296 -0.4353  0.7316  0.0345
18581SOL    HW161579   1.248   2.744   8.358 -0.2257  0.0376 -0.3444
18581SOL    HW261580   1.239   2.830   8.233 -0.7562  2.1290  1.0826
18582SOL     OW61581   8.540   4.001   7.146  0.5787 -0.1497  0.5531
18582SOL    HW161582   8.500   3.986   7.232 -2.6741 -0.0136 -0.7708
18582SOL    HW261583   8.539   4.096   7.135 -0.5496 -0.2304 -0.2224
18583SOL     OW61584   9.555   7.998   4.762  0.1020 -0.2764  0.2246
18583SOL    HW161585   9.463   7.974   4.757 -0.1341  0.6976 -0.3695
18583SOL    HW261586   9.575   7.997   4.856  0.2532 -3.1577  0.2268
18584SOL     OW61587   4.183   2.706   1.087 -1.0029  0.0115 -0.6410
18584SOL    HW161588   4.246   2.775   1.106 -0.5153 -0.6949  0.4162
18584SOL    HW261589   4.235   2.638   1.042 -1.4538  0.2657 -1.5850
18585SOL     OW61590   8.674   3.485   7.284  0.3409  0.3450  0.6172
18585SOL    HW161591   8.680   3.498   7.189 -1.2290  3.3066  0.7961
18585SOL    HW261592   8.765   3.490   7.315  0.7013  1.4751 -0.5460
18586SOL     OW61593   1.071   1.230   7.968  0.6211 -0.1648 -0.4201
18586SOL    HW161594   1.147   1.204   7.915 -0.3305  0.5194 -2.2068
18586SOL    HW261595   1.093   1.318   7.998 -0.4089  1.0794 -3.0189
18587SOL     OW61596   1.060   8.917   1.639 -0.8387  0.3936 -0.3712
18587SOL    HW161597   1.059   9.001   1.593 -0.4191  0.5839 -0.0392
18587SOL    HW261598   1.039   8.852   1.571  0.0324  0.6446 -0.8911
18588SOL     OW61599   6.512   7.739   9.773  0.0700  0.3636 -0.4096
18588SOL    HW161600   6.590   7.683   9.780  0.3742  0.8229 -0.0111
18588SOL    HW261601   6.438   7.679   9.778  0.3969 -0.0770 -0.7472
18589SOL     OW61602   2.856   9.867   6.855  0.3141 -0.1841 -0.2644
18589SOL    HW161603   2.904   9.805   6.799 -0.8460  0.2698 -1.8411
18589SOL    HW261604   2.874   9.837   6.944 -1.6002 -4.0257 -0.9140
18590SOL     OW61605   2.618   4.911   2.770  0.1631  0.3216 -0.0781
18590SOL    HW161606   2.636   5.005   2.778 -2.5882  0.8741  0.7817
18590SOL    HW261607   2.526   4.906   2.744  0.3213 -2.1603 -0.4227
18591SOL     OW61608   6.278   1.318   5.404 -0.3171 -0.2802 -0.2475
18591SOL    HW161609   6.283   1.363   5.488  0.0032 -1.0845  0.1859
18591SOL    HW261610   6.322   1.376   5.342 -0.4829  0.2804  0.1583
18592SOL     OW61611   6.539   1.727   2.205  0.2009  0.5647 -0.2397
18592SOL    HW161612   6.628   1.754   2.226  0.2298  0.8447 -0.7034
18592SOL    HW261613   6.536   1.633   2.225  0.2037  0.8257  1.0484
18593SOL     OW61614   3.181   2.670   6.421  0.1780 -0.0850 -0.6697
18593SOL    HW161615   3.156   2.756   6.388  0.5095  0.4082  0.3276
18593SOL    HW261616   3.272   2.659   6.391 -0.1254 -0.4457 -1.4804
18594SOL     OW61617   0.724   5.642   1.510  0.0388 -0.1172 -0.2898
18594SOL    HW161618   0.667   5.656   1.585 -0.1485  2.5553 -0.8275
18594SOL    HW261619   0.805   5.607   1.548 -1.0821 -1.7046  0.7433
18595SOL     OW61620   2.354   3.922   3.324 -0.2605  0.6298  0.2682
18595SOL    HW161621   2.395   4.007   3.310  1.3024 -0.4832 -2.8560
18595SOL    HW261622   2.290   3.914   3.253 -1.0754 -0.4074  1.0888
18596SOL     OW61623   2.750   2.579   8.885 -0.0663 -0.7166  0.3767
18596SOL    HW161624   2.701   2.652   8.923  1.3190  0.7005 -0.4682
18596SOL    HW261625   2.756   2.515   8.956  0.7869  1.0365  1.9779
18597SOL     OW61626   1.160   7.136   3.265  0.0935 -0.0002  0.5238
18597SOL    HW161627   1.162   7.074   3.337  0.2799 -1.0302 -0.3386
18597SOL    HW261628   1.235   7.112   3.210 -0.6727  0.0280 -0.5810
18598SOL     OW61629   1.977   8.741   8.030  0.3063 -0.6334 -0.0482
18598SOL    HW161630   1.939   8.703   7.950 -1.3336  0.1067  0.3506
18598SOL    HW261631   1.953   8.680   8.099 -1.1326  0.3452  0.3687
18599SOL     OW61632   1.231   7.155   9.270  0.5221  0.3331 -0.0786
18599SOL    HW161633   1.252   7.091   9.338  2.1751  0.6426 -0.2422
18599SOL    HW261634   1.317   7.182   9.236 -0.2272  0.8476 -1.6617
18600SOL     OW61635   4.007   6.472   4.128  0.5612 -0.2931 -0.3141
18600SOL    HW161636   4.074   6.410   4.101  1.6808  0.3856  0.8278
18600SOL    HW261637   4.055   6.547   4.162 -0.7633 -0.1054  1.2770
18601SOL     OW61638   6.497   7.344   5.840  0.1652  0.2628  0.0092
18601SOL    HW161639   6.574   7.350   5.783 -0.8863  0.9305 -1.3840
18601SOL    HW261640   6.447   7.270   5.805  0.6662 -0.8914  1.5937
18602SOL     OW61641   4.663   5.952   9.023 -0.7447 -0.5769  0.3834
18602SOL    HW161642   4.593   6.000   9.067 -0.9373 -1.0952  0.6609
18602SOL    HW261643   4.632   5.941   8.933 -0.7199 -0.2256  0.3312
18603SOL     OW61644   4.967   8.586   6.277 -0.2213 -0.0814 -0.4363
18603SOL    HW161645   5.027   8.634   6.334  0.4868  0.5588 -1.6729
18603SOL    HW261646   4.953   8.502   6.322 -1.1428  1.0691  1.5580
18604SOL     OW61647   0.642   0.914   3.679  0.1624  0.4839 -0.0824
18604SOL    HW161648   0.685   0.857   3.742 -0.5021 -0.3327 -0.3425
18604SOL    HW261649   0.701   0.917   3.605 -1.0560 -2.3391 -1.3234
18605SOL     OW61650   7.399   5.142   2.969 -0.0300  0.0481  0.0569
18605SOL    HW161651   7.421   5.213   3.030  2.6674 -1.1639  0.6394
18605SOL    HW261652   7.466   5.148   2.901 -0.8506 -0.8549 -0.8591
18606SOL     OW61653   9.327   4.440   8.903 -0.1961  0.1723 -0.2583
18606SOL    HW161654   9.293   4.410   8.819 -0.0211  1.8546 -0.9664
18606SOL    HW261655   9.388   4.510   8.881 -2.4177  2.8323  1.3277
18607SOL     OW61656   2.053   9.531   8.571 -0.1257  0.2567 -0.4930
18607SOL    HW161657   2.003   9.506   8.649 -1.6311  0.1259 -1.4778
18607SOL    HW261658   2.012   9.613   8.542  0.9392  0.7314 -0.7106
18608SOL     OW61659   5.826   6.795   7.044 -0.3404  0.8199  0.3958
18608SOL    HW161660   5.754   6.733   7.050 -0.1132  0.6683  1.8337
18608SOL    HW261661   5.827   6.840   7.129  1.0893  0.9977  0.3141
18609SOL     OW61662   4.251   1.799   8.308  0.5507 -0.4364  0.0483
18609SOL    HW161663   4.193   1.836   8.242  0.2210  1.2043  1.1985
18609SOL    HW261664   4.335   1.789   8.262  0.0468 -0.3864 -0.9166
18610SOL     OW61665   8.763   0.540   6.150 -0.3984  0.1780  0.3668
18610SOL    HW161666   8.699   0.492   6.202  1.0130 -2.1371  0.0740
18610SOL    HW261667   8.797   0.607   6.210 -1.5227  0.0410  1.1823
18611SOL     OW61668   8.540   3.762  10.347 -0.8044 -0.7274 -0.0775
18611SOL    HW161669   8.552   3.803  10.261  1.4302  0.7179  0.8332
18611SOL    HW261670   8.549   3.669  10.330  2.0577 -0.3723 -1.1767
18612SOL     OW61671   9.235   2.067   2.111  0.0040 -0.0727  0.0553
18612SOL    HW161672   9.175   2.011   2.161 -0.9724  0.0701 -0.9138
18612SOL    HW261673   9.268   2.010   2.041  1.0513 -0.1597  0.6061
18613SOL     OW61674   4.725   2.460   7.084 -0.2356 -0.0080 -0.1957
18613SOL    HW161675   4.700   2.488   7.172 -2.2663 -2.6425  0.1920
18613SOL    HW261676   4.651   2.486   7.029 -0.2529 -0.8211 -0.5770
18614SOL     OW61677   5.124   4.637   4.110  0.3972  0.4857  0.4720
18614SOL    HW161678   5.190   4.642   4.041 -0.8830 -0.7772 -0.9059
18614SOL    HW261679   5.110   4.729   4.135  0.4338  1.0624 -1.4166
18615SOL     OW61680   8.758   4.170   6.966 -0.3047 -0.7147  0.4820
18615SOL    HW161681   8.765   4.074   6.965 -0.1156 -0.7045 -1.3188
18615SOL    HW261682   8.751   4.195   6.874  0.8730  1.0899  0.8208
18616SOL     OW61683   5.954   4.582  10.100 -0.7355 -0.1453 -0.4989
18616SOL    HW161684   5.975   4.493  10.129 -0.5424  0.7269  2.3986
18616SOL    HW261685   6.033   4.633  10.122 -0.8015  0.7589 -2.2016
18617SOL     OW61686   1.116   9.339  10.043 -0.0957  0.7065  0.1287
18617SOL    HW161687   1.192   9.397  10.044 -0.0536  0.6699 -0.4784
18617SOL    HW261688   1.138   9.271  10.107  1.7182 -0.9349 -2.0532
18618SOL     OW61689   8.681   3.379   4.630 -0.1283  0.0719 -0.2407
18618SOL    HW161690   8.687   3.371   4.534  0.1802 -0.5843 -0.1757
18618SOL    HW261691   8.743   3.313   4.663  2.7670  2.8739  0.3898
18619SOL     OW61692   7.048   6.925   2.700  0.1118  0.0722  0.0503
18619SOL    HW161693   6.956   6.900   2.692  0.2176  0.0278 -1.3293
18619SOL    HW261694   7.052   7.013   2.663  0.9697 -0.7897 -2.0855
18620SOL     OW61695   3.699   5.921   6.704  0.8185  0.0571 -0.5324
18620SOL    HW161696   3.700   5.917   6.608 -0.9202  0.1295 -0.5902
18620SOL    HW261697   3.702   6.014   6.724  0.7153  0.0591 -0.5288
18621SOL     OW61698   9.453   3.121   8.101 -0.2872 -0.2331 -0.4943
18621SOL    HW161699   9.412   3.205   8.122  2.2714  0.9743  0.1957
18621SOL    HW261700   9.435   3.066   8.177 -0.4164  0.3450 -0.1011
18622SOL     OW61701   5.286  10.356   0.076 -0.1120 -0.6466 -0.0631
18622SOL    HW161702   5.242  10.300   0.140 -0.4835  0.4176  0.6200
18622SOL    HW261703   5.372  10.315   0.065 -0.6554 -1.8008 -0.1763
18623SOL     OW61704   5.829   9.086   8.828  0.1370  0.4285  0.3738
18623SOL    HW161705   5.923   9.102   8.817 -0.0992  3.2577  1.4897
18623SOL    HW261706   5.795   9.080   8.739  1.5117 -2.0605 -0.0551
18624SOL     OW61707   8.113   7.281   7.287  0.1060  0.8156  0.1731
18624SOL    HW161708   8.159   7.226   7.350  0.8184  0.8996 -0.2666
18624SOL    HW261709   8.160   7.269   7.204  0.1404  1.8914  0.0150
18625SOL     OW61710   5.635   4.370   2.991  0.7533  0.5889 -0.2267
18625SOL    HW161711   5.624   4.405   2.903 -0.5310  0.8976  0.0369
18625SOL    HW261712   5.718   4.406   3.022  1.3884  0.1921 -1.4278
18626SOL     OW61713  10.806   0.687   9.614  0.4713 -0.3895  0.5122
18626SOL    HW161714  10.817   0.777   9.646  0.3501 -0.5623  1.0544
18626SOL    HW261715  10.727   0.691   9.560  0.2881 -0.2328  0.7867
18627SOL     OW61716   2.787   5.204   6.941 -0.0375 -0.1760  0.0114
18627SOL    HW161717   2.786   5.212   7.036 -0.4483  1.9934 -0.1305
18627SOL    HW261718   2.804   5.111   6.925 -2.8336 -1.1939  2.2110
18628SOL     OW61719   6.262   3.349   4.392 -0.1743 -0.0346 -0.3294
18628SOL    HW161720   6.180   3.399   4.389 -0.4691 -0.4554  0.3741
18628SOL    HW261721   6.234   3.258   4.405  0.4020 -0.2032 -0.2307
18629SOL     OW61722   6.153   7.454   1.236 -0.1496 -0.3246 -0.1274
18629SOL    HW161723   6.183   7.470   1.326  2.7967  0.6816 -1.1789
18629SOL    HW261724   6.099   7.376   1.243  1.1130 -1.0916  2.3538
18630SOL     OW61725   0.536   8.111   3.148 -0.0997  0.4952 -0.2659
18630SOL    HW161726   0.454   8.063   3.158  1.3501 -2.0955  0.0098
18630SOL    HW261727   0.589   8.086   3.224  1.3113  1.2870 -0.9383
18631SOL     OW61728   2.607   5.642   3.133  0.6539  0.6782 -0.9053
18631SOL    HW161729   2.599   5.700   3.057 -0.8695 -1.3672 -2.4015
18631SOL    HW261730   2.676   5.580   3.109  0.4146  0.2297 -0.4439
18632SOL     OW61731   8.281   7.154   8.548 -0.0446 -0.0295 -0.1694
18632SOL    HW161732   8.255   7.240   8.515  1.5270 -0.2558 -2.1622
18632SOL    HW261733   8.369   7.168   8.585  0.0304 -0.6911 -0.0868
18633SOL     OW61734   0.235   4.613   4.798 -0.1089  0.1692  0.5826
18633SOL    HW161735   0.227   4.605   4.893 -0.2409 -0.6156  0.5139
18633SOL    HW261736   0.214   4.704   4.780  2.4745  1.0518  1.5798
18634SOL     OW61737   9.154   9.645   6.152 -0.1403  0.6269 -0.3901
18634SOL    HW161738   9.202   9.714   6.107  0.7210  1.8372  2.2007
18634SOL    HW261739   9.071   9.684   6.177  0.2756  0.7135  0.9305
18635SOL     OW61740   2.775   0.658   2.350  0.6169 -0.2053 -0.6435
18635SOL    HW161741   2.707   0.721   2.370  1.7090  1.5699 -2.1462
18635SOL    HW261742   2.818   0.641   2.434  0.4908  1.3298 -0.2401
18636SOL     OW61743   8.293   6.338   6.273 -0.0794  0.0180  0.1420
18636SOL    HW161744   8.235   6.355   6.347 -1.1333 -0.6358 -0.4925
18636SOL    HW261745   8.316   6.245   6.282  0.4405  0.1425  0.0988
18637SOL     OW61746   2.992   6.208   2.164 -0.0600 -0.8307  0.2353
18637SOL    HW161747   3.030   6.207   2.253  0.9717  0.6314 -0.1350
18637SOL    HW261748   3.027   6.130   2.122  1.9725  0.0340  0.1903
18638SOL     OW61749   4.571   3.912   4.670  0.3300  0.1833 -0.7482
18638SOL    HW161750   4.642   3.974   4.652  0.0128  0.6030 -0.5634
18638SOL    HW261751   4.497   3.967   4.696  0.5098 -0.3112  0.9927
18639SOL     OW61752   0.391   7.033   3.616  0.0011  0.1644 -0.0591
18639SOL    HW161753   0.422   6.974   3.685  0.1057  0.2300 -0.0488
18639SOL    HW261754   0.443   7.009   3.539 -2.5337 -2.3401 -1.1451
18640SOL     OW61755   4.603  10.537   8.513  0.4950 -0.2970 -0.9736
18640SOL    HW161756   4.650  10.568   8.590 -1.3940 -1.2740  0.6943
18640SOL    HW261757   4.658  10.468   8.477  1.1216 -0.2827 -0.0734
18641SOL     OW61758   2.529  10.306   1.010  0.0879  0.3752  0.3676
18641SOL    HW161759   2.508  10.234   1.071  0.1054  1.0950  1.2382
18641SOL    HW261760   2.572  10.372   1.065  0.3289  0.9343 -0.4817
18642SOL     OW61761   6.282   9.391   9.137  1.0611 -0.1324  0.3676
18642SOL    HW161762   6.318   9.449   9.204  2.0955  1.4250 -1.4174
18642SOL    HW261763   6.346   9.320   9.129  0.9448 -0.3136  0.9799
18643SOL     OW61764   2.514   2.032   9.188 -0.1420  0.1151 -0.4941
18643SOL    HW161765   2.466   1.950   9.176 -0.5391  0.3911 -0.8088
18643SOL    HW261766   2.600   2.015   9.148  0.2805 -0.6018  0.6697
18644SOL     OW61767   7.692   5.396   4.044 -0.2147 -0.1823  0.4748
18644SOL    HW161768   7.678   5.476   4.095  2.1823  0.0543  0.8707
18644SOL    HW261769   7.760   5.419   3.981 -0.2535 -1.6096 -0.1164
18645SOL     OW61770   6.848   5.414   0.148 -0.1825 -0.4270  0.7198
18645SOL    HW161771   6.776   5.356   0.124  0.7692 -1.9034  1.2740
18645SOL    HW261772   6.845   5.419   0.243 -0.5612  0.8836  0.6573
18646SOL     OW61773   9.504   5.045   3.076 -0.2599 -0.5231 -0.6881
18646SOL    HW161774   9.573   5.073   3.016  0.4807 -1.9371 -0.5453
18646SOL    HW261775   9.452   5.124   3.092  0.2246  0.1525 -2.2492
18647SOL     OW61776   1.264   3.243   6.741 -0.0694  0.1945 -0.0960
18647SOL    HW161777   1.329   3.252   6.671 -1.4693  1.0407 -1.3200
18647SOL    HW261778   1.274   3.322   6.793  0.3148  0.0112  0.1187
18648SOL     OW61779   1.701   1.064   8.509 -0.0245 -0.8726  0.4505
18648SOL    HW161780   1.741   0.997   8.454 -1.7791 -2.0773  0.5621
18648SOL    HW261781   1.637   1.107   8.452  1.1972  0.8980  0.3221
18649SOL     OW61782   0.127   9.334   5.013 -0.4139 -0.3134  0.4776
18649SOL    HW161783   0.122   9.256   5.068  1.0332 -1.1622 -0.5367
18649SOL    HW261784   0.178   9.396   5.065  0.1058 -0.7596  0.5139
18650SOL     OW61785   4.152  10.650  10.819  1.1101  0.3475 -0.5769
18650SOL    HW161786   4.179  10.723  10.874 -1.0086  1.0604 -0.3781
18650SOL    HW261787   4.131  10.690  10.735 -0.4613  0.0735 -0.3429
18651SOL     OW61788   1.140  10.584   4.697  0.5188  0.5518  0.4867
18651SOL    HW161789   1.198  10.520   4.657 -1.8766 -0.2853 -1.9749
18651SOL    HW261790   1.077  10.532   4.747  0.2489  1.2051  0.8459
18652SOL     OW61791   7.013   0.579  10.238  0.3029  0.2063  0.0094
18652SOL    HW161792   7.012   0.566  10.333 -0.6266  4.3888  0.7861
18652SOL    HW261793   7.106   0.583  10.215  0.5335 -0.7991  0.7005
18653SOL     OW61794   8.356   6.875   6.322 -0.0311  0.1070 -0.5976
18653SOL    HW161795   8.375   6.804   6.385  0.0192  1.0079  0.4320
18653SOL    HW261796   8.308   6.939   6.373 -1.1475  0.2831 -1.8352
18654SOL     OW61797   5.987   4.320   2.987  0.7587  0.2997 -0.5353
18654SOL    HW161798   5.943   4.262   2.924  2.5790 -1.8267  0.0229
18654SOL    HW261799   6.007   4.399   2.936 -0.4801 -0.1301 -1.7559
18655SOL     OW61800   9.307   6.006   5.210 -0.0934  0.1066 -0.4587
18655SOL    HW161801   9.224   5.996   5.163  0.7569  0.6780 -2.1724
18655SOL    HW261802   9.311   6.099   5.233  0.3059  0.1907 -0.8541
18656SOL     OW61803   5.291  10.143   4.527 -0.3379  0.0500 -0.2554
18656SOL    HW161804   5.348  10.214   4.555  0.3696 -0.2113 -0.9650
18656SOL    HW261805   5.223  10.138   4.594  0.5058  0.3407  0.6489
18657SOL     OW61806   5.370   7.587   4.151 -0.2512 -0.0569  0.5365
18657SOL    HW161807   5.451   7.549   4.116 -0.6608  0.2406 -0.7912
18657SOL    HW261808   5.300   7.542   4.104 -0.8233  0.4918  0.8475
18658SOL     OW61809   1.457  10.558   9.275  0.5261  0.1247 -0.0462
18658SOL    HW161810   1.394  10.503   9.229  0.4599  0.3631 -0.2437
18658SOL    HW261811   1.482  10.507   9.352  1.3059 -0.6543 -0.7908
18659SOL     OW61812   6.068   2.486   2.477 -0.5856 -0.1922  0.0011
18659SOL    HW161813   5.979   2.468   2.509 -0.3380  0.6415  1.2433
18659SOL    HW261814   6.055   2.539   2.398 -1.1962 -0.9751 -0.4368
18660SOL     OW61815   2.148   1.181  10.582 -0.1852  0.2566 -0.6625
18660SOL    HW161816   2.058   1.162  10.609  0.5994 -0.8657  1.3350
18660SOL    HW261817   2.164   1.120  10.510 -0.9905  0.4478 -1.0183
18661SOL     OW61818   5.941   1.200   8.009 -0.3802  0.3520 -0.5621
18661SOL    HW161819   5.957   1.164   8.096  0.9370  0.9061 -0.5639
18661SOL    HW261820   5.846   1.194   7.999 -0.3719 -1.6949  0.0372
18662SOL     OW61821   7.736  10.369   4.340  0.7990 -0.1017  0.2380
18662SOL    HW161822   7.677  10.390   4.268 -1.8861 -0.2929  2.2072
18662SOL    HW261823   7.770  10.453   4.370 -2.6954  0.7866  2.2966
18663SOL     OW61824   6.916  10.818   9.462 -0.8870  0.3767 -0.1459
18663SOL    HW161825   6.921  10.805   9.557 -0.1324  0.3710 -0.1767
18663SOL    HW261826   7.003  10.850   9.438 -1.1227  0.5309 -0.8154
18664SOL     OW61827  10.277   4.608   1.119  0.7545 -0.1542  0.2999
18664SOL    HW161828  10.368   4.578   1.119  0.4113 -1.2677 -0.5266
18664SOL    HW261829  10.243   4.582   1.033 -0.3902  0.0912  0.6582
18665SOL     OW61830  10.815   4.238   8.770 -0.0602  0.1888 -0.0083
18665SOL    HW161831  10.853   4.306   8.714  0.1339  1.3927  1.5006
18665SOL    HW261832  10.731   4.275   8.798 -0.2558 -0.4924  0.3029
18666SOL     OW61833   5.742   5.237   9.136  0.3879  0.0058  0.3372
18666SOL    HW161834   5.742   5.317   9.188 -0.4121 -1.1346  2.2236
18666SOL    HW261835   5.819   5.189   9.167 -0.0485 -0.6564  0.4049
18667SOL     OW61836   6.297   0.377   5.497 -0.0491 -0.3915 -0.0833
18667SOL    HW161837   6.351   0.338   5.428  1.4111  2.8719 -0.9658
18667SOL    HW261838   6.220   0.411   5.452  0.8776  1.6964 -0.2078
18668SOL     OW61839   7.275   6.155   7.226  0.1212 -0.1128  0.0776
18668SOL    HW161840   7.224   6.191   7.299 -1.1034  0.6998 -1.1465
18668SOL    HW261841   7.296   6.065   7.254 -0.2131  0.2198  1.4734
18669SOL     OW61842   4.139  10.124   4.817 -0.0179  0.4515  0.2209
18669SOL    HW161843   4.188  10.072   4.753 -2.6067 -1.1788 -0.6024
18669SOL    HW261844   4.069  10.165   4.767 -1.3004  0.2577  1.7427
18670SOL     OW61845   2.491  10.832   0.327  0.0914  0.3707  0.1946
18670SOL    HW161846   2.535  10.776   0.390 -0.1067  0.3369  0.3052
18670SOL    HW261847   2.526  10.805   0.242  1.0361  1.0416  0.3509
18671SOL     OW61848   9.093   6.525   7.566 -0.3514 -0.2861 -0.9608
18671SOL    HW161849   9.158   6.460   7.540  0.0954  0.6961 -2.4327
18671SOL    HW261850   9.140   6.583   7.627 -0.5382 -0.8810 -0.2293
18672SOL     OW61851   9.805   4.830   4.765  0.0471 -0.4324 -0.0256
18672SOL    HW161852   9.718   4.845   4.728  0.4527 -0.8967 -1.2073
18672SOL    HW261853   9.842   4.760   4.711  0.9911 -0.5365  0.7358
18673SOL     OW61854  10.095   8.645   5.029  0.0963 -0.1329  0.0030
18673SOL    HW161855  10.184   8.657   5.062 -0.0539 -0.5334  0.5719
18673SOL    HW261856  10.095   8.689   4.944  0.9848 -0.5474 -0.2335
18674SOL     OW61857   9.124   9.025   4.062  0.1052 -0.3538  0.0368
18674SOL    HW161858   9.082   8.939   4.068  0.0899 -0.3167  0.4492
18674SOL    HW261859   9.111   9.065   4.148 -0.4990  0.3517 -0.3708
18675SOL     OW61860   1.724   0.496   7.607  0.3991  0.1204 -0.5917
18675SOL    HW161861   1.788   0.562   7.580  0.5727  0.5735  0.8487
18675SOL    HW261862   1.658   0.546   7.656  1.1902 -0.8991  1.6352
18676SOL     OW61863   3.723   8.401   2.837 -0.1193 -0.1986  0.3556
18676SOL    HW161864   3.749   8.315   2.870  0.8245  0.3999  1.2300
18676SOL    HW261865   3.805   8.448   2.822 -0.6214  0.7682  0.5142
18677SOL     OW61866   9.947   8.325  10.834  0.1491 -0.3983 -0.3333
18677SOL    HW161867  10.037   8.310  10.864  0.1807  0.2157 -0.1027
18677SOL    HW261868   9.893   8.276  10.896  0.2839 -0.1117  0.0158
18678SOL     OW61869   1.905   2.738  10.801  0.2977 -0.0036 -0.3547
18678SOL    HW161870   1.895   2.695  10.886 -1.0265  0.6128 -0.1633
18678SOL    HW261871   1.992   2.713  10.771  2.5866  2.9542  3.0037
18679SOL     OW61872   5.010   3.491   3.979 -0.6221 -0.5604  0.2481
18679SOL    HW161873   5.054   3.419   4.024 -2.6608 -0.8328  1.9677
18679SOL    HW261874   4.981   3.453   3.896 -1.2728 -1.6317  0.9410
18680SOL     OW61875   6.328   2.637   7.828 -0.6813 -0.0778 -0.3048
18680SOL    HW161876   6.292   2.549   7.818 -0.0073 -0.4860  0.7277
18680SOL    HW261877   6.288   2.687   7.758 -1.5500 -1.0583 -0.5298
18681SOL     OW61878   8.781   0.805   3.535 -0.3757  0.2455  0.1790
18681SOL    HW161879   8.690   0.791   3.559 -0.0099 -0.2559  1.3757
18681SOL    HW261880   8.830   0.747   3.593  0.7232  0.7119 -0.2483
18682SOL     OW61881   2.202   9.221   5.171  0.0358  0.8485  0.3833
18682SOL    HW161882   2.282   9.250   5.216 -0.7126  0.8498  1.7637
18682SOL    HW261883   2.140   9.204   5.241 -1.0668  0.4655 -0.6527
18683SOL     OW61884  10.320  10.193   7.526  0.1773 -0.3016  0.3672
18683SOL    HW161885  10.236  10.182   7.571  0.3213 -0.2188  0.6603
18683SOL    HW261886  10.351  10.104   7.510 -1.4632 -0.4785 -2.6412
18684SOL     OW61887   4.659   4.758   1.654 -0.0010 -0.1666 -0.1302
18684SOL    HW161888   4.666   4.838   1.602 -1.9992 -0.8250 -1.5579
18684SOL    HW261889   4.734   4.705   1.628  1.2871  1.1609  0.7570
18685SOL     OW61890   1.788   5.350   5.510 -0.3137 -0.2127 -0.5731
18685SOL    HW161891   1.778   5.260   5.541  0.6202 -0.8269 -1.9058
18685SOL    HW261892   1.701   5.388   5.517 -0.2970 -0.4779  2.0743
18686SOL     OW61893   3.284   3.535   9.328  0.1015  0.1005 -0.0379
18686SOL    HW161894   3.330   3.609   9.368  0.3836 -0.5788  0.9295
18686SOL    HW261895   3.336   3.514   9.250  1.2663 -0.4180  0.8364
18687SOL     OW61896   1.387   0.772   6.114 -0.0456 -0.1806  0.3388
18687SOL    HW161897   1.337   0.720   6.177  0.3627  0.4589  1.1985
18687SOL    HW261898   1.472   0.729   6.109 -0.3999 -0.8273 -0.5653
18688SOL     OW61899   1.611   8.702   4.311  0.2187  0.1620 -0.4124
18688SOL    HW161900   1.664   8.774   4.278  0.0616 -0.3398 -1.8247
18688SOL    HW261901   1.543   8.689   4.245  0.8718 -1.9535 -0.7504
18689SOL     OW61902   0.638   2.835   3.138  0.0980 -0.1949  0.0705
18689SOL    HW161903   0.690   2.876   3.069 -0.9065  0.4239 -0.3439
18689SOL    HW261904   0.566   2.792   3.092  0.3886 -1.2880  0.6071
18690SOL     OW61905   4.189   9.588   9.921  0.0777  0.0655 -0.1562
18690SOL    HW161906   4.137   9.656   9.878  0.9985  0.8577 -0.0453
18690SOL    HW261907   4.208   9.624  10.008  1.4352  0.1318 -0.4568
18691SOL     OW61908   1.014   8.353   8.638  0.2819  0.0639 -0.2316
18691SOL    HW161909   0.938   8.296   8.645  0.6384 -0.3704  0.1640
18691SOL    HW261910   1.041   8.367   8.729  0.0385  1.0832 -0.3000
18692SOL     OW61911   3.355   1.991   4.848  0.2219  0.1981  0.4143
18692SOL    HW161912   3.291   2.021   4.783  1.7842  1.8793 -0.4522
18692SOL    HW261913   3.340   1.897   4.856 -2.2144  0.4962  0.1419
18693SOL     OW61914   7.681   2.855   8.016 -0.1758  0.2972 -0.1057
18693SOL    HW161915   7.677   2.929   7.955 -1.1748  0.3857  0.0514
18693SOL    HW261916   7.622   2.790   7.978 -1.3835  0.6330  1.1172
18694SOL     OW61917   4.534   0.661   3.330  0.5999  0.3663  0.2923
18694SOL    HW161918   4.586   0.583   3.308 -2.5697 -1.3123 -2.1820
18694SOL    HW261919   4.514   0.651   3.423 -1.0685 -2.8376 -0.2751
18695SOL     OW61920   2.258   7.207   5.298 -0.1256  0.1482  0.2352
18695SOL    HW161921   2.304   7.140   5.247 -1.1405  0.1652 -0.7410
18695SOL    HW261922   2.190   7.159   5.346  0.8380  0.1281  1.6338
18696SOL     OW61923   2.643   1.056   8.526 -0.5890  0.0025  0.1941
18696SOL    HW161924   2.641   0.968   8.563  1.3619 -0.8592 -1.5364
18696SOL    HW261925   2.736   1.080   8.527 -1.0404  1.9140  0.2843
18697SOL     OW61926   2.651   0.243   5.833 -0.2557 -0.2989 -0.1686
18697SOL    HW161927   2.634   0.286   5.917 -1.4798 -0.5981 -0.2352
18697SOL    HW261928   2.564   0.214   5.804  0.0464  0.3519 -1.8265
18698SOL     OW61929  10.157   2.358   3.015 -0.5578  0.0781 -0.2774
18698SOL    HW161930  10.131   2.300   2.943 -0.7213 -0.7346  0.4209
18698SOL    HW261931  10.226   2.412   2.978 -0.8235 -0.1433 -1.1262
18699SOL     OW61932   1.817   0.879   0.539 -0.0853 -0.3066  0.9161
18699SOL    HW161933   1.869   0.941   0.589  0.0245  1.2799 -1.0709
18699SOL    HW261934   1.745   0.931   0.503  0.1158 -1.2669 -0.9730
18700SOL     OW61935   4.260   2.059   8.424  0.1631 -0.1771 -0.6803
18700SOL    HW161936   4.352   2.084   8.419  0.3339 -0.8080 -0.6964
18700SOL    HW261937   4.257   1.971   8.388 -0.1179 -1.0051  1.2632
18701SOL     OW61938   6.281   5.370   6.371  0.2683  0.5346  0.0029
18701SOL    HW161939   6.351   5.380   6.306  0.0165 -2.4376 -0.8651
18701SOL    HW261940   6.300   5.437   6.437  3.7033  0.1468 -0.4116
18702SOL     OW61941   9.023   3.292   6.609 -0.3926  0.5339 -0.7025
18702SOL    HW161942   9.066   3.221   6.564  1.8060  0.8535  0.7599
18702SOL    HW261943   9.035   3.273   6.702  0.8960  3.0945 -0.2534
18703SOL     OW61944   2.947   6.288   8.912 -0.0314 -0.1394 -0.4165
18703SOL    HW161945   2.909   6.201   8.901 -0.1996 -0.0839 -0.2751
18703SOL    HW261946   2.879   6.339   8.954  0.3473 -0.1520  0.2195
18704SOL     OW61947   0.051   9.389   7.560  0.8016 -0.0079  0.1133
18704SOL    HW161948   0.115   9.458   7.576  2.3410 -1.6315  1.2940
18704SOL    HW261949   0.098   9.308   7.577 -1.6578 -1.2828  1.4036
18705SOL     OW61950   0.118   3.499   6.936  0.1467  0.3325 -0.3990
18705SOL    HW161951   0.028   3.484   6.905  0.5214 -0.8829 -0.9493
18705SOL    HW261952   0.137   3.590   6.912 -0.8303  0.5122 -0.5323
18706SOL     OW61953   3.149   9.204  10.178 -0.0938  0.7102 -0.0334
18706SOL    HW161954   3.096   9.154  10.240 -0.4141 -0.1008 -0.9192
18706SOL    HW261955   3.223   9.237  10.230  0.3197 -1.0008  0.5466
18707SOL     OW61956   0.205   3.847   8.808  0.3291 -0.0885 -0.4757
18707SOL    HW161957   0.271   3.855   8.740 -0.0691 -0.5491 -0.9215
18707SOL    HW261958   0.255   3.834   8.889  0.7778 -2.0000 -1.0122
18708SOL     OW61959   5.914   2.190   1.658  0.0771 -0.0650  0.1095
18708SOL    HW161960   6.004   2.157   1.665  0.5037  0.5505 -1.8234
18708SOL    HW261961   5.922   2.273   1.611 -1.4799  0.1444  0.1609
18709SOL     OW61962   3.552   6.096   5.673  0.2993 -0.5393  0.5972
18709SOL    HW161963   3.638   6.082   5.633  0.8209 -0.5181  1.6533
18709SOL    HW261964   3.491   6.045   5.619  1.0923 -1.1501  0.2613
18710SOL     OW61965   3.643   7.904   3.467 -0.1722  0.5440 -0.0901
18710SOL    HW161966   3.575   7.880   3.530  0.3155  1.8568  0.9892
18710SOL    HW261967   3.718   7.928   3.522  0.4723  1.1154 -1.2055
18711SOL     OW61968   4.229   3.740   0.158  0.3511  0.3504 -0.7750
18711SOL    HW161969   4.212   3.752   0.065  2.2244 -2.5022 -1.6210
18711SOL    HW261970   4.229   3.645   0.171 -0.2842  0.6563  2.2562
18712SOL     OW61971   4.387   4.295   6.382  0.1342  0.5495 -0.5298
18712SOL    HW161972   4.442   4.326   6.309  1.5718  0.7833  0.6124
18712SOL    HW261973   4.417   4.345   6.457  0.6089 -1.6517  0.8221
18713SOL     OW61974   1.850   3.135   1.828 -0.4515  0.5093 -0.0167
18713SOL    HW161975   1.840   3.064   1.891 -2.8312  1.5472  0.9130
18713SOL    HW261976   1.917   3.191   1.866 -0.2668 -0.0329  0.4664
18714SOL     OW61977   0.413   2.635   0.352 -0.2994  0.5884 -0.1616
18714SOL    HW161978   0.469   2.693   0.402  1.0317 -1.2996  0.6465
18714SOL    HW261979   0.324   2.664   0.373  0.2108  0.3390  2.7628
18715SOL     OW61980   4.452   5.735   7.266 -0.2327  0.3027  0.6811
18715SOL    HW161981   4.422   5.647   7.245 -1.4167  1.0291 -0.8627
18715SOL    HW261982   4.524   5.752   7.205  0.8499 -0.0309  1.8260
18716SOL     OW61983   4.892   9.930   3.621 -0.0615 -0.1053  0.2337
18716SOL    HW161984   4.805   9.945   3.657 -0.2714 -0.8586  0.0680
18716SOL    HW261985   4.931   9.865   3.679 -0.6157 -1.7628 -1.1510
18717SOL     OW61986   9.601   3.213   2.738 -1.1226  0.1307  0.2360
18717SOL    HW161987   9.647   3.192   2.820  0.9508  1.2624 -0.5437
18717SOL    HW261988   9.544   3.286   2.762 -0.9833  0.0599  0.8118
18718SOL     OW61989  10.712   9.080   5.185 -0.2322 -0.0221  0.5838
18718SOL    HW161990  10.705   9.038   5.271  0.1815 -2.5732 -0.5456
18718SOL    HW261991  10.625   9.116   5.169 -1.2863 -2.3093  0.7707
18719SOL     OW61992   2.477   4.918   7.572 -0.3522 -0.4827  0.2025
18719SOL    HW161993   2.519   4.949   7.652 -0.0183  0.7494 -0.4244
18719SOL    HW261994   2.387   4.952   7.578 -0.6269 -1.2603  0.5279
18720SOL     OW61995   9.685   7.879   1.996 -0.5630  0.2538 -0.6965
18720SOL    HW161996   9.652   7.967   2.010 -1.2512 -0.0427 -0.4236
18720SOL    HW261997   9.664   7.859   1.905 -0.9264  0.1588 -0.5941
18721SOL     OW61998   8.161   1.981   4.037 -0.3575 -0.3758 -0.3802
18721SOL    HW161999   8.148   1.928   3.958 -0.7430 -0.8617 -0.0006
18721SOL    HW262000   8.085   1.962   4.091  0.8339 -1.5813  0.9659
18722SOL     OW62001   3.330   9.960   0.085 -0.6611 -0.7579 -0.0322
18722SOL    HW162002   3.415  10.001   0.068 -0.7356 -0.8137 -0.5660
18722SOL    HW262003   3.299   9.934  -0.002 -1.2793 -0.6287  0.1504
18723SOL     OW62004   9.646   1.065  10.647 -0.1936  0.0888  0.2623
18723SOL    HW162005   9.663   1.090  10.738  0.3640  0.0002  0.1848
18723SOL    HW262006   9.662   1.145  10.597 -0.1201  0.0348  0.1995
18724SOL     OW62007   9.796   5.708   7.721  0.1719 -0.4410 -0.5335
18724SOL    HW162008   9.764   5.756   7.644  1.8480  0.0852 -0.9635
18724SOL    HW262009   9.818   5.621   7.687 -4.0658 -2.1321  0.4978
18725SOL     OW62010   4.062   9.071   0.508  0.3844 -0.2708 -0.5317
18725SOL    HW162011   4.029   8.981   0.508  0.1942 -0.2210 -1.6096
18725SOL    HW262012   4.132   9.070   0.443  0.2853  0.3932 -0.6535
18726SOL     OW62013   9.911   4.248   4.020 -0.1156  1.0817 -0.1589
18726SOL    HW162014   9.890   4.159   3.993  0.7616  1.1065 -0.9729
18726SOL    HW262015  10.006   4.249   4.028 -0.2015  1.6026  1.1419
18727SOL     OW62016   2.174   6.284   7.473  0.4497  0.4843 -0.0598
18727SOL    HW162017   2.225   6.340   7.531  1.6461 -0.3953 -0.2313
18727SOL    HW262018   2.086   6.285   7.510  0.1860  3.1978 -0.5990
18728SOL     OW62019   1.272   6.092   2.142  0.2018 -0.2883 -0.5890
18728SOL    HW162020   1.286   6.098   2.237  0.9690 -0.9435 -0.6527
18728SOL    HW262021   1.274   6.182   2.112  0.2731 -0.0970 -0.0263
18729SOL     OW62022   6.864   0.078   3.728  0.4439  0.3260 -0.0584
18729SOL    HW162023   6.889  -0.014   3.738  2.3510  0.9169  1.0316
18729SOL    HW262024   6.885   0.117   3.813  1.0606  2.0775 -0.9772
18730SOL     OW62025   0.515   8.843   3.010  0.8236  0.1258 -0.3176
18730SOL    HW162026   0.561   8.773   3.056  0.3041 -0.6136 -0.9195
18730SOL    HW262027   0.550   8.924   3.049  0.4971 -0.4750  1.2621
18731SOL     OW62028   4.088   3.064   3.494 -0.0089 -0.2151 -0.7876
18731SOL    HW162029   4.139   3.135   3.456  0.6124  1.3813  2.6643
18731SOL    HW262030   4.068   3.093   3.583 -2.4448 -3.0721 -0.2249
18732SOL     OW62031   0.799   5.038   0.022 -0.1687 -0.0473  0.0371
18732SOL    HW162032   0.818   4.946   0.005  1.4708  0.3719 -0.5162
18732SOL    HW262033   0.707   5.048  -0.004 -0.1141 -1.3268 -0.7392
18733SOL     OW62034   9.623   2.314   7.850 -0.4928  0.1116  0.2553
18733SOL    HW162035   9.535   2.327   7.887 -1.1898 -2.5879 -0.2482
18733SOL    HW262036   9.682   2.330   7.923 -1.5717 -0.5152  1.3081
18734SOL     OW62037   5.044   3.294  10.251 -0.6063  0.2667 -0.1450
18734SOL    HW162038   5.055   3.310  10.157 -2.2971 -1.1878 -0.6157
18734SOL    HW262039   4.964   3.341  10.275 -0.4058  0.2988  0.4978
18735SOL     OW62040   4.388   1.344   3.976  0.5362  0.0711 -0.0716
18735SOL    HW162041   4.477   1.340   4.011  0.5781  2.3693  0.2695
18735SOL    HW262042   4.399   1.341   3.881  1.2134  2.2589 -0.1182
18736SOL     OW62043   3.599   0.639   9.860 -0.7010 -0.7655  0.6422
18736SOL    HW162044   3.634   0.677   9.941 -1.4816 -1.0962  1.1432
18736SOL    HW262045   3.655   0.563   9.843  0.3586  0.1050  0.0769
18737SOL     OW62046   8.699   8.392   0.225 -0.4829 -0.0816  0.3077
18737SOL    HW162047   8.705   8.460   0.292 -1.4656  0.0776  0.2498
18737SOL    HW262048   8.662   8.437   0.149  0.3655 -0.3211 -0.2630
18738SOL     OW62049   2.610   9.016   7.139 -0.3505  0.0110 -0.1375
18738SOL    HW162050   2.594   9.020   7.233 -0.3162  0.4771 -0.1525
18738SOL    HW262051   2.615   8.922   7.120 -1.0779 -0.1062  0.2042
18739SOL     OW62052   6.114   0.915   4.707 -0.5160  0.2729 -0.4629
18739SOL    HW162053   6.102   0.976   4.780  1.4618 -0.7481  0.7796
18739SOL    HW262054   6.158   0.839   4.745 -1.6616 -1.3907 -2.2396
18740SOL     OW62055   2.817   2.381   1.317  0.0885  0.1071  0.4982
18740SOL    HW162056   2.772   2.303   1.284  0.1431  0.6714 -0.9868
18740SOL    HW262057   2.762   2.454   1.289  1.6840  0.7961 -1.0403
18741SOL     OW62058   5.020   4.657   2.654 -0.2976 -0.5252 -0.1932
18741SOL    HW162059   5.055   4.648   2.566 -0.6774 -0.8906 -0.3086
18741SOL    HW262060   5.069   4.594   2.706  1.6342  1.3083  0.4000
18742SOL     OW62061   1.828   4.981   8.396  0.1476  0.5003  0.4203
18742SOL    HW162062   1.776   4.911   8.357  1.0623  0.7169 -1.2930
18742SOL    HW262063   1.776   5.060   8.381  0.3169  0.5304 -0.0187
18743SOL     OW62064   1.590   7.213   4.762 -0.3822  0.6063  0.0840
18743SOL    HW162065   1.665   7.240   4.816  0.4525 -1.1761 -0.1013
18743SOL    HW262066   1.623   7.220   4.672 -1.3990  2.4788 -0.2022
18744SOL     OW62067   5.682   9.287   5.786  0.1689 -0.0547  0.1654
18744SOL    HW162068   5.766   9.291   5.831  0.8889 -1.5144 -0.9506
18744SOL    HW262069   5.649   9.199   5.804 -1.2498  0.5852  0.7820
18745SOL     OW62070   5.577   1.362   0.939 -0.3299 -0.1451  0.2069
18745SOL    HW162071   5.641   1.426   0.972 -0.0249 -0.0048 -0.6365
18745SOL    HW262072   5.492   1.403   0.956 -0.2021 -0.2071  1.0759
18746SOL     OW62073   9.769   0.628   6.839  0.2134 -0.2767 -0.3500
18746SOL    HW162074   9.724   0.661   6.917  1.7642 -0.5401  0.6931
18746SOL    HW262075   9.854   0.671   6.840  0.5157 -0.8104 -1.5254
18747SOL     OW62076   8.847   7.717   6.012  0.1775 -0.7957 -0.1800
18747SOL    HW162077   8.817   7.626   6.004  0.1638 -0.8650  0.5672
18747SOL    HW262078   8.819   7.744   6.099 -0.7629  0.2963 -0.8020
18748SOL     OW62079   3.321   1.118   5.536  0.4213 -0.1070 -0.5487
18748SOL    HW162080   3.415   1.112   5.558  0.6191 -0.2992 -1.4168
18748SOL    HW262081   3.310   1.058   5.462  0.1153  1.7264 -2.0474
18749SOL     OW62082   2.464   5.503   2.930 -0.0466 -0.1173 -0.3724
18749SOL    HW162083   2.535   5.562   2.903  0.9873 -2.0569 -2.1286
18749SOL    HW262084   2.508   5.427   2.967 -1.3718  0.3397  2.3535
18750SOL     OW62085   0.257  10.892   6.360  0.2849  0.2087 -0.2657
18750SOL    HW162086   0.342  10.891   6.316  0.2810  0.2589 -0.2747
18750SOL    HW262087   0.196  10.923   6.294  0.0130 -1.1618 -0.6922
18751SOL     OW62088   5.128   3.371   6.978  0.0385 -0.4654 -0.0688
18751SOL    HW162089   5.152   3.365   6.885 -1.2979 -0.0413 -0.4554
18751SOL    HW262090   5.202   3.417   7.018  0.3217 -0.0324 -1.0500
18752SOL     OW62091  10.009   5.918   6.463 -0.1666  0.0804 -0.3647
18752SOL    HW162092  10.079   5.855   6.442  1.3489  1.8775 -0.9770
18752SOL    HW262093   9.996   5.908   6.558  0.0484 -1.1201 -0.4471
18753SOL     OW62094   3.491   1.918   2.834  0.8762 -0.1967 -0.1513
18753SOL    HW162095   3.583   1.896   2.820  1.0064 -0.3250  0.8291
18753SOL    HW262096   3.485   2.011   2.810  1.2432 -0.2052 -0.2859
18754SOL     OW62097   5.708   5.780   4.283 -0.4998  0.2940  0.1113
18754SOL    HW162098   5.626   5.733   4.300  0.1009 -0.6777  0.3472
18754SOL    HW262099   5.730   5.821   4.366  0.5395 -1.5005  0.7854
18755SOL     OW62100   2.803  10.381   1.364  0.0633 -0.4079  1.1464
18755SOL    HW162101   2.749  10.444   1.317 -0.1754 -0.9242  0.7129
18755SOL    HW262102   2.888  10.424   1.373  0.8896 -1.1525 -1.8843
18756SOL     OW62103   8.223   4.987   4.908  0.2766  0.7031 -0.2780
18756SOL    HW162104   8.175   5.039   4.844  0.6888 -0.7300 -1.8168
18756SOL    HW262105   8.296   4.950   4.859 -1.4662 -3.5244 -0.0895
18757SOL     OW62106   1.471   1.020   6.644 -0.1247  0.2548 -1.0043
18757SOL    HW162107   1.455   0.942   6.590 -3.7355  1.0567 -1.3258
18757SOL    HW262108   1.472   1.093   6.581 -1.6270  0.9113 -0.3097
18758SOL     OW62109   7.437   3.403   8.295 -0.1779 -0.9131 -0.2772
18758SOL    HW162110   7.442   3.493   8.262  0.4162 -0.8895 -0.1481
18758SOL    HW262111   7.386   3.356   8.229 -0.9159 -0.3790 -0.1029
18759SOL     OW62112  10.924   0.270   7.560  0.0060  0.5455  0.3555
18759SOL    HW162113  10.924   0.234   7.649 -0.8847 -0.2037  0.0663
18759SOL    HW262114  11.003   0.234   7.520 -0.6550 -0.8056  0.2035
18760SOL     OW62115   3.298  10.190   0.307 -0.6497 -0.5761  0.2445
18760SOL    HW162116   3.314  10.172   0.215  0.5048 -1.2791  0.5716
18760SOL    HW262117   3.246  10.271   0.307 -0.5859 -0.5192 -1.0021
18761SOL     OW62118   1.081   2.682   2.077  0.2103 -0.2503  0.0233
18761SOL    HW162119   1.171   2.695   2.107  0.1350  2.4482 -0.6710
18761SOL    HW262120   1.036   2.763   2.100 -1.7970 -1.1201 -0.5983
18762SOL     OW62121   0.459  10.469  10.032  0.2529 -0.1278 -0.0881
18762SOL    HW162122   0.371  10.452  10.067  0.0876 -1.5124 -1.1144
18762SOL    HW262123   0.472  10.563  10.046 -0.4943 -0.2919  2.0570
18763SOL     OW62124   3.243   9.432   8.603  0.7198 -0.0273 -0.1282
18763SOL    HW162125   3.192   9.408   8.526  2.3434 -1.3690 -0.8476
18763SOL    HW262126   3.182   9.424   8.676 -0.9690  1.6865 -1.2664
18764SOL     OW62127   1.097   5.999   5.078 -0.0004  0.4387  0.3765
18764SOL    HW162128   1.109   5.981   5.171  0.0718  0.2333  0.3272
18764SOL    HW262129   1.096   5.913   5.036  1.1329  0.5742  0.0453
18765SOL     OW62130   8.743   3.056   5.274  0.1301 -0.3670  0.2016
18765SOL    HW162131   8.799   3.014   5.209  1.4319  0.5773  0.6941
18765SOL    HW262132   8.787   3.138   5.295 -0.9160 -0.0742  1.3596
18766SOL     OW62133   9.542   2.232   7.059 -0.4740 -0.5808 -0.6269
18766SOL    HW162134   9.483   2.230   7.135  0.5874 -1.2810  0.2038
18766SOL    HW262135   9.504   2.168   6.998 -1.3114 -0.0449 -0.6743
18767SOL     OW62136   6.920   2.877   4.232 -0.1690  0.4269 -0.3450
18767SOL    HW162137   6.863   2.887   4.156  0.2461  0.9299 -0.5912
18767SOL    HW262138   6.980   2.951   4.228 -0.4721  0.7566  0.7617
18768SOL     OW62139  10.267   3.915  10.018 -0.4818 -0.0411  0.1885
18768SOL    HW162140  10.325   3.988   9.998 -1.6839  0.2457 -2.7196
18768SOL    HW262141  10.325   3.840  10.028  0.5288  0.6818 -0.1023
18769SOL     OW62142   6.123   5.541   2.557  0.0057 -0.4142 -0.4229
18769SOL    HW162143   6.032   5.544   2.586 -0.0514 -0.1505 -0.6194
18769SOL    HW262144   6.172   5.514   2.634 -0.1985 -0.1848 -0.2091
18770SOL     OW62145   2.890   1.534  10.599  0.7353  0.1313  0.0133
18770SOL    HW162146   2.833   1.561  10.527  0.5035  2.3854  0.9646
18770SOL    HW262147   2.833   1.534  10.676  1.5610  0.3454  0.6356
18771SOL     OW62148   8.481   4.138   0.715 -0.4320 -0.1578  0.2776
18771SOL    HW162149   8.438   4.180   0.790 -1.9887  0.3781 -0.8625
18771SOL    HW262150   8.482   4.045   0.738  0.1997  0.1180  1.4636
18772SOL     OW62151   8.771   2.944   0.723 -0.3894  0.0286  0.3957
18772SOL    HW162152   8.846   2.888   0.701 -0.8818 -0.2390 -0.6809
18772SOL    HW262153   8.709   2.929   0.652 -0.0562  2.8783 -0.5961
18773SOL     OW62154   2.009   5.729  10.921  0.1011 -0.4493 -0.0928
18773SOL    HW162155   2.059   5.742  10.841 -0.4743 -1.9353 -0.7361
18773SOL    HW262156   1.920   5.708  10.891 -0.3154 -0.2517  0.9531
18774SOL     OW62157   4.263   0.823   2.483 -0.0923  0.5414  0.4458
18774SOL    HW162158   4.215   0.790   2.559 -1.0335  1.2654  0.1846
18774SOL    HW262159   4.195   0.849   2.421  0.6598  0.0561 -0.6119
18775SOL     OW62160   5.314   0.771   9.316  0.1233  0.0984  0.5034
18775SOL    HW162161   5.246   0.831   9.347 -0.6595  0.0551 -1.0111
18775SOL    HW262162   5.333   0.714   9.390 -1.8274 -0.1627  0.8495
18776SOL     OW62163   5.481   5.219  10.177  0.0390 -0.3497 -0.2304
18776SOL    HW162164   5.452   5.309  10.194  2.8595  0.3113  1.8594
18776SOL    HW262165   5.436   5.166  10.242 -0.6615 -0.2589 -0.6348
18777SOL     OW62166   0.602   1.840   5.956  0.3931  0.0664  0.3913
18777SOL    HW162167   0.580   1.835   5.863  0.8680 -1.7506  0.3501
18777SOL    HW262168   0.686   1.886   5.958  0.6829 -0.4254 -0.1402
18778SOL     OW62169   3.455   3.901   5.728  0.2895  0.1183  0.5389
18778SOL    HW162170   3.461   3.806   5.717 -1.2878  0.0591 -0.1163
18778SOL    HW262171   3.365   3.916   5.758  0.9702  1.2959  2.1279
18779SOL     OW62172   7.715   1.633   7.233  0.2986 -0.1873  0.1216
18779SOL    HW162173   7.644   1.695   7.250 -1.0371 -1.3938 -0.7755
18779SOL    HW262174   7.763   1.671   7.159 -1.0271 -0.5845 -0.9870
18780SOL     OW62175   3.448   7.469   2.164 -0.1285 -0.5685  0.0465
18780SOL    HW162176   3.389   7.512   2.226 -0.4341  1.8791 -1.8039
18780SOL    HW262177   3.536   7.481   2.202 -0.3905  0.0796  0.4601
18781SOL     OW62178   8.601   3.548  10.822  0.4732 -0.7084 -1.0176
18781SOL    HW162179   8.640   3.465  10.796  2.9157 -0.3968  1.2890
18781SOL    HW262180   8.659   3.615  10.786 -0.1538 -0.0684 -0.8729
18782SOL     OW62181   4.493   7.498   7.650 -0.4586 -0.0154 -0.4580
18782SOL    HW162182   4.532   7.517   7.736  0.2260  0.2196 -0.8106
18782SOL    HW262183   4.448   7.579   7.626  1.4148  0.8283 -1.4007
18783SOL     OW62184   9.653   3.335   8.916 -0.3157  0.0620  0.2310
18783SOL    HW162185   9.641   3.367   9.005 -0.0812  2.2404 -0.4616
18783SOL    HW262186   9.732   3.280   8.921 -0.0844  0.4621  1.3026
18784SOL     OW62187   3.080   2.312   8.711  0.5381 -0.5254 -0.1025
18784SOL    HW162188   3.105   2.307   8.803 -0.4263 -1.3047  0.1359
18784SOL    HW262189   3.130   2.242   8.668  1.3593  0.1528 -0.2764
18785SOL     OW62190  10.494   1.012   4.884  0.5411 -0.5220 -0.9482
18785SOL    HW162191  10.488   1.081   4.950  0.7546 -1.9273  0.6055
18785SOL    HW262192  10.566   1.039   4.826  0.4087  0.6891 -0.5710
18786SOL     OW62193   8.093   6.317   6.467 -0.0032  0.2102 -0.6476
18786SOL    HW162194   8.041   6.267   6.404 -1.9339  2.8439 -1.3090
18786SOL    HW262195   8.029   6.353   6.529  1.3026  1.5268  0.0125
18787SOL     OW62196   2.396   0.557   2.253 -0.3354 -0.0901  0.1272
18787SOL    HW162197   2.484   0.571   2.287 -0.6114 -2.0497  1.8367
18787SOL    HW262198   2.408   0.518   2.167  0.4676 -0.2585  0.3147
18788SOL     OW62199   9.156   1.951   5.116 -0.3659 -0.1025  0.0025
18788SOL    HW162200   9.127   1.870   5.075  0.9927 -1.9822  2.5041
18788SOL    HW262201   9.085   2.013   5.099 -1.6282 -1.8914 -1.6755
18789SOL     OW62202   8.751   4.040   4.303  0.0005  0.3688 -0.6981
18789SOL    HW162203   8.773   4.127   4.271  0.6920  0.4212 -0.0921
18789SOL    HW262204   8.735   3.989   4.223  0.8153  0.7218 -1.0950
18790SOL     OW62205   1.255   6.606   7.525  0.0224 -0.2526  0.3796
18790SOL    HW162206   1.291   6.681   7.573  0.2684 -0.0316 -0.1483
18790SOL    HW262207   1.307   6.532   7.554 -0.5174 -0.3159  1.2560
18791SOL     OW62208   5.173   6.340   8.326  0.0526  0.2052  0.3271
18791SOL    HW162209   5.201   6.409   8.386 -0.4714  1.7956 -1.1803
18791SOL    HW262210   5.255   6.305   8.291  0.3084  0.6397  0.4731
18792SOL     OW62211   6.203   3.709   5.353 -0.5080  0.4078 -0.1359
18792SOL    HW162212   6.117   3.734   5.387 -1.2752 -0.5414 -1.3273
18792SOL    HW262213   6.213   3.762   5.274 -0.0403  0.4197 -0.0715
18793SOL     OW62214   4.320   1.730   9.919 -0.3852 -0.2230  0.1585
18793SOL    HW162215   4.358   1.733  10.007  1.0245 -2.5885 -0.2796
18793SOL    HW262216   4.379   1.673   9.869 -0.7829  1.5597 -2.5349
18794SOL     OW62217   1.471   5.734  10.376  0.0283  0.1654  0.2470
18794SOL    HW162218   1.557   5.725  10.417 -0.0061 -0.4044  0.2011
18794SOL    HW262219   1.409   5.739  10.449  0.0658  0.1709  0.2774
18795SOL     OW62220   2.233   6.643   0.258 -0.3308 -0.0711  0.8709
18795SOL    HW162221   2.160   6.645   0.320  0.0815  0.3690  1.3587
18795SOL    HW262222   2.293   6.578   0.293 -0.7547 -0.8769  0.1428
18796SOL     OW62223   2.745   7.501   5.195  0.5046 -0.3340 -0.5010
18796SOL    HW162224   2.706   7.414   5.184  1.0862 -0.5698 -0.7650
18796SOL    HW262225   2.807   7.491   5.267  0.4304 -0.0912 -0.4030
18797SOL     OW62226   5.203   3.226   1.797 -0.0265  0.0967 -0.7411
18797SOL    HW162227   5.163   3.152   1.844  0.5424  0.1515 -0.1718
18797SOL    HW262228   5.238   3.187   1.717 -0.4202 -0.1062 -0.8212
18798SOL     OW62229   2.729   9.924   1.992  0.1338 -0.0317 -0.1202
18798SOL    HW162230   2.750  10.009   2.032 -0.1039  0.7048 -1.4905
18798SOL    HW262231   2.689   9.873   2.063  0.7350  0.8144  0.8560
18799SOL     OW62232   8.000   5.689   5.128 -0.2743  0.0120  0.0546
18799SOL    HW162233   7.962   5.733   5.052 -1.0969 -1.8165 -0.6414
18799SOL    HW262234   8.094   5.686   5.110 -0.5548 -1.2753 -1.4213
18800SOL     OW62235   3.946   8.230   7.490  0.3746 -0.0658  0.1262
18800SOL    HW162236   3.936   8.316   7.450  1.2845 -0.2445 -0.5001
18800SOL    HW262237   4.016   8.188   7.441 -0.8138 -1.6119 -0.3342
18801SOL     OW62238   7.125   1.810   8.019  0.1089 -0.3577 -0.2698
18801SOL    HW162239   7.215   1.788   8.043 -0.3618 -1.0697  0.8947
18801SOL    HW262240   7.089   1.853   8.097 -1.1331 -1.7798 -0.0152
18802SOL     OW62241   9.907   6.309   5.934 -0.0799  0.0985  0.1460
18802SOL    HW162242   9.889   6.300   5.840  0.4126 -1.0017  0.1451
18802SOL    HW262243   9.833   6.360   5.967 -0.2108  0.5924 -0.8503
18803SOL     OW62244   5.487   4.340   9.551  0.3842 -0.3412  0.6475
18803SOL    HW162245   5.554   4.398   9.588  0.6271 -0.4463  0.3788
18803SOL    HW262246   5.434   4.313   9.626  1.7375 -1.7021  1.1735
18804SOL     OW62247   4.067   2.512   9.004 -0.0985  0.9801 -0.2198
18804SOL    HW162248   4.047   2.578   8.937 -1.6549 -0.0195 -0.7807
18804SOL    HW262249   4.124   2.449   8.960  0.2089  1.1734 -0.1056
18805SOL     OW62250   6.720   1.549   7.801 -1.1874 -0.3187 -0.2364
18805SOL    HW162251   6.708   1.642   7.782 -1.5239 -0.4826 -0.8460
18805SOL    HW262252   6.631   1.514   7.806 -1.0543 -0.6788 -0.3644
18806SOL     OW62253   9.002   0.901   1.490 -0.3740  0.6630 -0.0584
18806SOL    HW162254   9.010   0.820   1.540 -0.5051  1.1877  0.8410
18806SOL    HW262255   9.070   0.958   1.527  0.1104  0.7741 -1.0770
18807SOL     OW62256   3.435   0.320   5.431 -0.0820 -0.5006  0.1586
18807SOL    HW162257   3.470   0.245   5.478 -0.6044 -0.2403  0.9898
18807SOL    HW262258   3.372   0.359   5.492 -0.5251  0.0444 -0.6315
18808SOL     OW62259   0.690   6.219   8.025 -0.2407  0.0837 -0.1419
18808SOL    HW162260   0.724   6.209   8.114  1.4482  0.6404 -0.6787
18808SOL    HW262261   0.756   6.178   7.969 -0.8520  0.5031 -1.1994
18809SOL     OW62262   0.186   8.169  10.833 -0.1316  0.0089 -0.0336
18809SOL    HW162263   0.181   8.260  10.862 -0.2262 -0.0763  0.2222
18809SOL    HW262264   0.214   8.121  10.911 -0.2988 -0.2107 -0.1095
18810SOL     OW62265   9.893   2.483  10.852 -0.1666  0.1298  0.6362
18810SOL    HW162266   9.920   2.402  10.896 -0.7811 -0.3210  0.1982
18810SOL    HW262267   9.975   2.528  10.832  0.2198 -0.8155  0.0701
18811SOL     OW62268   2.099   1.855   9.178 -0.5042 -0.0183  0.0569
18811SOL    HW162269   2.030   1.831   9.116 -1.5469  1.2938  0.6605
18811SOL    HW262270   2.140   1.932   9.139  1.0362 -1.1073 -0.5707
18812SOL     OW62271   9.114   5.256   6.278  0.2921  0.5923  0.4687
18812SOL    HW162272   9.150   5.296   6.357 -1.0603 -0.7011  1.7973
18812SOL    HW262273   9.081   5.171   6.307 -0.4776  0.1922 -1.4467
18813SOL     OW62274   7.046   5.708   3.936 -0.2774 -0.2831 -0.2125
18813SOL    HW162275   6.988   5.632   3.946 -1.0103  0.3845  0.7512
18813SOL    HW262276   7.026   5.764   4.011  1.3175  0.1740 -0.0790
18814SOL     OW62277   9.507   3.127  10.745 -0.1531 -0.3156 -0.2360
18814SOL    HW162278   9.533   3.123  10.837  0.6666  0.1567 -0.4419
18814SOL    HW262279   9.434   3.189  10.744  0.0169 -0.1077  0.0536
18815SOL     OW62280   8.565   0.984   6.087  0.4882 -0.6775  0.3311
18815SOL    HW162281   8.653   0.946   6.085  0.9551  0.4021 -0.7906
18815SOL    HW262282   8.506   0.910   6.073  1.2949 -1.2057 -0.3119
18816SOL     OW62283   0.118   1.297  10.711  0.0503 -0.1175  0.1622
18816SOL    HW162284   0.176   1.235  10.755  0.6827 -0.1148 -0.6505
18816SOL    HW262285   0.042   1.244  10.684 -0.3853 -0.1054  1.2871
18817SOL     OW62286   9.288   3.757   9.075 -0.1149 -0.1414 -0.1766
18817SOL    HW162287   9.304   3.840   9.031 -1.6324 -1.0498 -2.6463
18817SOL    HW262288   9.368   3.706   9.061 -0.4500 -0.2964 -1.7286
18818SOL     OW62289   3.452   5.331   6.618  0.3204  0.4163 -0.4312
18818SOL    HW162290   3.505   5.359   6.693 -1.2906  3.3920 -0.2548
18818SOL    HW262291   3.363   5.359   6.640 -0.6977 -1.0508 -2.3473
18819SOL     OW62292   2.516   3.449   2.874 -0.2682 -0.7707  0.0878
18819SOL    HW162293   2.500   3.374   2.818 -1.2620  0.8080 -1.8660
18819SOL    HW262294   2.611   3.462   2.871 -0.3219 -0.6247 -1.3812
18820SOL     OW62295   4.465   4.361   0.195 -0.2266  0.7151 -0.4634
18820SOL    HW162296   4.381   4.320   0.175  0.5495 -1.9756  1.2517
18820SOL    HW262297   4.525   4.328   0.128  0.4329 -1.2303  1.0037
18821SOL     OW62298   8.724   8.750   6.060 -0.1723  0.3589  0.6436
18821SOL    HW162299   8.679   8.767   5.977  0.2557 -1.3971  0.0059
18821SOL    HW262300   8.809   8.794   6.050 -0.3613  0.6791  0.4062
18822SOL     OW62301  10.859   2.781   5.403 -0.8166 -0.5414  0.6301
18822SOL    HW162302  10.895   2.723   5.470  0.5258  1.0306  1.3429
18822SOL    HW262303  10.842   2.864   5.449 -1.2311  0.1237 -0.6700
18823SOL     OW62304   6.013   6.476   0.933  0.6272 -0.0267 -0.4088
18823SOL    HW162305   6.033   6.510   1.020 -0.5787  0.3445 -0.2572
18823SOL    HW262306   6.091   6.426   0.908  1.5723  1.0682  0.2634
18824SOL     OW62307   8.125   2.280   5.704 -0.0700  0.3998 -0.3890
18824SOL    HW162308   8.173   2.272   5.621 -1.1387  2.2171 -1.2396
18824SOL    HW262309   8.073   2.359   5.694 -1.2064 -0.0415  1.5505
18825SOL     OW62310   8.883   6.127   2.085 -0.4230 -0.6922  0.1841
18825SOL    HW162311   8.894   6.220   2.065 -0.6072 -0.8636 -0.7470
18825SOL    HW262312   8.958   6.084   2.046  0.0045 -0.8738  1.1766
18826SOL     OW62313  10.327   6.856   8.020  0.4268 -0.0971 -0.1205
18826SOL    HW162314  10.239   6.824   7.997  0.1895 -0.5906  1.3975
18826SOL    HW262315  10.376   6.849   7.938 -0.7977 -0.2953 -0.8790
18827SOL     OW62316   3.875  10.074  10.097 -0.4578 -0.3059 -1.0974
18827SOL    HW162317   3.858   9.980  10.090  2.1097 -0.9452 -0.0815
18827SOL    HW262318   3.947  10.080  10.160  0.0405  2.2903 -1.8074
18828SOL     OW62319   8.636   5.915   3.607  0.2116  0.2452  0.1692
18828SOL    HW162320   8.678   5.976   3.547  0.7126 -0.1688  0.0887
18828SOL    HW262321   8.709   5.869   3.649 -0.1194  0.7112  1.2943
18829SOL     OW62322   2.406  10.515   2.103 -0.0243  0.2975 -0.1786
18829SOL    HW162323   2.342  10.551   2.164 -1.0937  0.0499 -1.1151
18829SOL    HW262324   2.389  10.561   2.021  0.8540  0.0621 -0.5007
18830SOL     OW62325   0.793   9.724   0.949  0.1283 -0.1534 -0.0179
18830SOL    HW162326   0.836   9.721   0.863 -0.3067  0.0644 -0.2452
18830SOL    HW262327   0.837   9.796   0.995 -0.3624  0.4426 -0.4567
18831SOL     OW62328   0.757   1.495   5.100  0.5594 -0.2013 -0.4031
18831SOL    HW162329   0.774   1.414   5.052 -2.3058 -0.9781 -0.2990
18831SOL    HW262330   0.749   1.562   5.032  0.6698 -0.4482 -0.6616
18832SOL     OW62331   8.773   6.532   6.858 -0.6765  0.2306 -0.3834
18832SOL    HW162332   8.835   6.459   6.863 -0.0781  0.7810  0.7877
18832SOL    HW262333   8.715   6.510   6.785 -0.3061 -1.2531 -0.2647
18833SOL     OW62334   0.410   1.465   9.673 -0.0510  0.7253  0.1942
18833SOL    HW162335   0.338   1.467   9.611  1.0084 -0.1897 -1.1076
18833SOL    HW262336   0.464   1.541   9.649  1.6931 -1.0254 -1.7231
18834SOL     OW62337   0.822   4.300   2.472 -0.3275 -0.4437 -0.3428
18834SOL    HW162338   0.770   4.336   2.544  0.3138 -0.6516  0.2302
18834SOL    HW262339   0.840   4.210   2.498  0.7518 -0.2248 -0.2802
18835SOL     OW62340   1.050   5.840   6.074 -0.2616 -0.1392 -0.4853
18835SOL    HW162341   1.018   5.756   6.040 -1.4393 -0.0943  0.4448
18835SOL    HW262342   0.986   5.904   6.043 -0.6800  0.0684  0.7780
18836SOL     OW62343   9.275  10.614   9.258  0.1642 -0.6532  0.2600
18836SOL    HW162344   9.291  10.536   9.205  0.5807 -1.5120  1.5878
18836SOL    HW262345   9.195  10.595   9.307 -1.5477  1.0762 -1.7069
18837SOL     OW62346   9.550   9.829   9.492  0.0141 -0.3107  0.3354
18837SOL    HW162347   9.485   9.758   9.491 -0.4373  0.0898  0.6306
18837SOL    HW262348   9.583   9.833   9.402 -0.7640 -0.1633  0.0490
18838SOL     OW62349   3.280   0.806   9.048  0.0219 -0.1566  0.2784
18838SOL    HW162350   3.343   0.878   9.063  0.7763 -0.2839 -1.9607
18838SOL    HW262351   3.249   0.783   9.136  2.8954  0.1129  1.4702
18839SOL     OW62352   4.735   5.116   1.987  0.7435 -0.5405 -0.9930
18839SOL    HW162353   4.681   5.192   1.966 -0.0230 -0.0064  2.3123
18839SOL    HW262354   4.684   5.041   1.955 -1.4875  0.0324  0.9707
18840SOL     OW62355   0.484   6.528   4.602 -0.2691  0.1764 -0.1452
18840SOL    HW162356   0.536   6.583   4.660  0.2238 -0.0324 -0.3807
18840SOL    HW262357   0.543   6.507   4.529 -1.2351  1.3929 -1.3212
18841SOL     OW62358   2.681  10.904   5.223  0.0896 -0.1131  0.3783
18841SOL    HW162359   2.705  10.964   5.293 -0.9366  1.5988 -0.6457
18841SOL    HW262360   2.590  10.928   5.201  0.5784 -0.1367 -1.9397
18842SOL     OW62361   4.149   1.498  10.149  0.0175 -0.0615  0.0721
18842SOL    HW162362   4.189   1.415  10.123  0.0313  0.2121 -0.8389
18842SOL    HW262363   4.058   1.490  10.120  0.0581  0.2950 -0.1612
18843SOL     OW62364   4.291  10.784   4.051  0.9187 -0.1404 -0.5324
18843SOL    HW162365   4.218  10.825   4.097  1.2621  0.3990 -0.4712
18843SOL    HW262366   4.253  10.756   3.967  0.7192  0.4241 -0.6342
18844SOL     OW62367  10.319   2.893   8.525 -0.0164 -0.1860  0.4779
18844SOL    HW162368  10.384   2.870   8.459  0.0155 -0.5132  0.6251
18844SOL    HW262369  10.310   2.815   8.579  0.5183  0.3329  1.3357
18845SOL     OW62370   9.777   1.525   8.679  0.1272  0.0313  1.0483
18845SOL    HW162371   9.694   1.517   8.726 -1.4795  0.5355 -1.5141
18845SOL    HW262372   9.760   1.588   8.610  2.6247  0.0062  0.2964
18846SOL     OW62373   2.893   0.386   2.062 -0.0556 -0.2951  0.7860
18846SOL    HW162374   2.943   0.340   1.995 -1.7643 -2.0666  0.6608
18846SOL    HW262375   2.959   0.431   2.115  1.3808  0.7834 -1.7416
18847SOL     OW62376   0.045   2.661   6.497 -0.3143 -0.1167  0.8175
18847SOL    HW162377  -0.021   2.630   6.436 -0.6474  0.1643  1.0297
18847SOL    HW262378   0.123   2.676   6.443 -0.5211 -0.1358  0.5128
18848SOL     OW62379   4.399   6.948   5.544 -0.1283 -0.7454 -0.4074
18848SOL    HW162380   4.400   6.861   5.584  0.4778 -0.7360 -0.3868
18848SOL    HW262381   4.311   6.981   5.560 -0.6925 -1.7444 -1.2561
18849SOL     OW62382  10.416   0.175   8.838  0.6772 -0.0387  0.0743
18849SOL    HW162383  10.383   0.098   8.884 -0.1474 -0.5084 -1.2284
18849SOL    HW262384  10.505   0.152   8.812  0.2921 -0.7314 -0.6660
18850SOL     OW62385  10.048   4.759   8.940 -0.1602  0.0511 -0.2184
18850SOL    HW162386   9.955   4.774   8.955 -0.5871 -0.9823 -1.6517
18850SOL    HW262387  10.091   4.801   9.014 -1.8272 -0.3743  1.0555
18851SOL     OW62388   4.356   9.985   5.230 -0.5153 -0.1111 -0.4075
18851SOL    HW162389   4.367   9.921   5.159 -0.1822  1.4943 -1.8854
18851SOL    HW262390   4.281   9.953   5.280 -0.6548 -1.3909 -1.3739
18852SOL     OW62391   1.261   7.875   5.624  0.1331 -0.3482  0.5927
18852SOL    HW162392   1.245   7.826   5.704 -2.1825 -0.0153  0.3957
18852SOL    HW262393   1.265   7.808   5.555  0.7103 -0.5225  0.7904
18853SOL     OW62394   0.142  10.804   5.102  0.1205  0.1059 -0.2097
18853SOL    HW162395   0.199  10.742   5.056 -0.6071 -1.5024  0.9676
18853SOL    HW262396   0.193  10.832   5.178 -0.0126 -0.0095 -0.0774
18854SOL     OW62397   0.753  10.922   6.824  0.3305 -0.4531 -0.6057
18854SOL    HW162398   0.717  11.010   6.833  1.8148  0.2151 -0.9084
18854SOL    HW262399   0.757  10.889   6.914 -3.0991 -1.4892 -0.6825
18855SOL     OW62400   1.213  10.214   4.283 -0.0848  0.8982 -0.0139
18855SOL    HW162401   1.127  10.180   4.309 -0.7542 -0.0475 -3.1220
18855SOL    HW262402   1.220  10.298   4.329 -0.9911 -0.5915  3.2002
18856SOL     OW62403   2.874   1.260   0.472 -0.7150  0.1073  0.0195
18856SOL    HW162404   2.928   1.338   0.466 -1.1985  0.5077  0.6937
18856SOL    HW262405   2.903   1.204   0.400 -0.8767  1.2233 -0.9353
18857SOL     OW62406   0.171   8.149   3.139  0.2701  0.6236 -0.1577
18857SOL    HW162407   0.113   8.223   3.158  0.1872  0.6239 -0.4067
18857SOL    HW262408   0.189   8.157   3.045  0.0807  0.1910 -0.2286
18858SOL     OW62409   0.032   5.618   6.856 -0.1360 -0.0927 -0.4280
18858SOL    HW162410   0.114   5.663   6.880  0.6805 -0.5371 -2.2118
18858SOL    HW262411   0.060   5.531   6.828 -1.4123 -0.7950  0.3976
18859SOL     OW62412   2.857   6.942   0.660  0.2214 -0.7634 -0.2658
18859SOL    HW162413   2.843   6.849   0.680 -0.7065 -0.3925  1.0102
18859SOL    HW262414   2.951   6.949   0.644  0.1865 -2.0565 -1.1863
18860SOL     OW62415   6.901   0.043  10.567  0.3200 -0.3140  0.2870
18860SOL    HW162416   6.922   0.010  10.480 -0.1210 -1.3571  0.5669
18860SOL    HW262417   6.984   0.037  10.615  0.3950 -0.4026  0.1490
18861SOL     OW62418   9.395   3.850   0.259  0.2216  0.7372  0.2788
18861SOL    HW162419   9.438   3.888   0.183 -0.4007  0.0978 -0.4074
18861SOL    HW262420   9.314   3.811   0.224 -0.2092  0.6807  1.3083
18862SOL     OW62421   0.844   1.418  10.770  0.7141 -0.1470  0.0579
18862SOL    HW162422   0.912   1.467  10.817  0.6271  1.0918 -1.0424
18862SOL    HW262423   0.876   1.415  10.680 -0.7391  0.5781 -0.5125
18863SOL     OW62424  10.904   6.112   4.339  0.0772 -0.1685  0.2493
18863SOL    HW162425  10.893   6.092   4.431 -0.3978 -0.4770  0.1272
18863SOL    HW262426  10.996   6.092   4.321  0.5714  1.3133  0.9915
18864SOL     OW62427   7.051   5.036   5.280 -0.1873  0.6047  0.2614
18864SOL    HW162428   7.022   5.104   5.219 -2.2338 -1.3020 -1.0012
18864SOL    HW262429   6.975   5.018   5.335  1.1706  1.2289  2.5107
18865SOL     OW62430   0.277   3.595   8.910  0.4663  0.6014  0.4029
18865SOL    HW162431   0.345   3.645   8.864  1.1503 -1.2832 -0.7813
18865SOL    HW262432   0.209   3.581   8.845  1.1888 -1.6251  0.0404
18866SOL     OW62433  10.199   7.422   1.598 -0.4557  0.7228 -0.1980
18866SOL    HW162434  10.201   7.446   1.505  0.7467  0.2220 -0.3096
18866SOL    HW262435  10.201   7.326   1.598 -0.4339  0.7222  0.3582
18867SOL     OW62436   3.155   3.937   7.145  0.6964 -0.0847  0.0040
18867SOL    HW162437   3.200   3.923   7.228 -1.2957 -0.5201  1.0896
18867SOL    HW262438   3.224   3.942   7.080  2.2351 -1.7031  1.4126
18868SOL     OW62439   9.121   6.370   3.129  0.1984 -0.2180 -0.3470
18868SOL    HW162440   9.072   6.301   3.084 -1.1738 -0.6631  1.6962
18868SOL    HW262441   9.212   6.353   3.107 -0.3882 -0.1557 -3.2251
18869SOL     OW62442   9.167   8.477   5.434  0.1785  0.4325  0.5487
18869SOL    HW162443   9.203   8.548   5.488 -0.8145  0.7587  0.7970
18869SOL    HW262444   9.217   8.481   5.353 -0.1543  1.7057  0.3851
18870SOL     OW62445   2.919   2.114   4.693  0.0890  0.2418  0.1731
18870SOL    HW162446   2.949   2.039   4.745  0.5420  0.2277 -0.1019
18870SOL    HW262447   2.895   2.180   4.758  1.4576  0.5358  0.4121
18871SOL     OW62448   4.751   8.169   0.016  0.0981  0.1617  0.3837
18871SOL    HW162449   4.697   8.176   0.094 -0.8591 -0.0312 -0.2519
18871SOL    HW262450   4.832   8.127   0.047 -0.0855  0.4890  1.3439
18872SOL     OW62451   7.923   3.030   5.104  0.3804 -0.1831 -0.8018
18872SOL    HW162452   7.847   3.028   5.046 -0.2412 -2.5282 -0.0141
18872SOL    HW262453   7.998   3.017   5.046 -0.0698 -0.5860 -1.3079
18873SOL     OW62454   9.071   7.703   4.780 -0.2348 -0.3757 -0.0100
18873SOL    HW162455   9.032   7.674   4.698  1.2010 -3.8687  0.3850
18873SOL    HW262456   8.997   7.708   4.841 -1.1636  1.3462 -1.1792
18874SOL     OW62457   7.284   1.792   8.413  0.9553  0.0177  0.3096
18874SOL    HW162458   7.243   1.709   8.434  0.7971 -0.1978 -0.7991
18874SOL    HW262459   7.213   1.857   8.420  0.2909 -0.3877 -1.8630
18875SOL     OW62460   2.171   1.432   9.381  0.1090 -0.4693  0.2069
18875SOL    HW162461   2.099   1.456   9.322  0.6142  1.9946  0.4966
18875SOL    HW262462   2.186   1.339   9.363 -1.4579 -0.4335 -1.6775
18876SOL     OW62463   6.159   6.708   8.285  0.2824 -0.0460  0.7607
18876SOL    HW162464   6.112   6.663   8.355 -0.5842 -0.7435 -0.2295
18876SOL    HW262465   6.187   6.791   8.324  1.1226 -1.0406  2.3525
18877SOL     OW62466   9.341   8.068   1.884 -0.0114  0.5417  0.2113
18877SOL    HW162467   9.268   8.032   1.934 -0.7312  1.1855 -0.3544
18877SOL    HW262468   9.324   8.162   1.880  0.2730  0.5689 -0.8422
18878SOL     OW62469   3.551   8.614   5.072 -0.0928  0.2114  0.0287
18878SOL    HW162470   3.622   8.669   5.104 -0.0837 -0.3875  1.0673
18878SOL    HW262471   3.471   8.651   5.110 -0.7696  2.5455 -3.2464
18879SOL     OW62472   2.530  10.840   1.135 -0.1983  0.1388  0.2200
18879SOL    HW162473   2.617  10.835   1.175 -0.4450  0.7763  0.8506
18879SOL    HW262474   2.484  10.906   1.186 -1.2600 -0.6279  0.2832
18880SOL     OW62475   4.661   1.312   9.456  0.7693  0.4278 -0.0402
18880SOL    HW162476   4.623   1.246   9.513 -0.6736  0.9893 -0.3075
18880SOL    HW262477   4.730   1.353   9.510  0.9765 -0.5684  0.4767
18881SOL     OW62478   9.564   9.156   0.586  0.2544  0.1577  0.1980
18881SOL    HW162479   9.470   9.141   0.590  0.3148 -0.5696 -0.6377
18881SOL    HW262480   9.603   9.078   0.626  0.5447 -1.1923 -2.5244
18882SOL     OW62481   8.671   5.623   7.316  0.0228 -0.3871 -0.3716
18882SOL    HW162482   8.733   5.596   7.249 -1.0889 -0.3595 -1.4512
18882SOL    HW262483   8.684   5.561   7.388  2.0984  0.3485 -0.0627
18883SOL     OW62484   4.856   4.636   9.454 -0.2612  0.2477 -0.5322
18883SOL    HW162485   4.767   4.629   9.420 -0.7043  1.1672  0.3957
18883SOL    HW262486   4.847   4.688   9.534  1.2890  1.5223 -1.1491
18884SOL     OW62487   3.277   4.797   0.719  0.3465  0.3459 -0.2540
18884SOL    HW162488   3.288   4.821   0.627 -2.0565  1.2017 -0.4017
18884SOL    HW262489   3.327   4.716   0.729  2.8956  1.6492 -1.5690
18885SOL     OW62490   0.494   2.949   3.993  0.2599 -0.1412 -0.6807
18885SOL    HW162491   0.576   2.998   3.995 -0.7944  1.6690  0.8344
18885SOL    HW262492   0.435   3.002   3.939 -0.2844 -0.8256 -0.7835
18886SOL     OW62493   0.715  10.762   8.282  0.1785  0.2107  0.3058
18886SOL    HW162494   0.715  10.682   8.335 -0.1533 -0.0009 -0.0091
18886SOL    HW262495   0.723  10.731   8.191  2.4449  0.6311  0.3072
18887SOL     OW62496  10.882   0.292   9.562 -0.4056  0.2574 -0.1374
18887SOL    HW162497  10.929   0.231   9.504 -1.3995 -1.6714  0.9777
18887SOL    HW262498  10.790   0.267   9.552 -0.5872 -0.3550  2.4273
18888SOL     OW62499   0.394   7.002   7.443  0.5582 -0.0435 -0.1224
18888SOL    HW162500   0.336   7.012   7.519 -0.2887 -0.7061 -0.6624
18888SOL    HW262501   0.403   7.090   7.407  0.2153  0.1288  0.2115
18889SOL     OW62502   9.161   8.478   8.681 -0.0485 -0.4689  0.4552
18889SOL    HW162503   9.229   8.433   8.732  0.3910 -0.4051 -0.0593
18889SOL    HW262504   9.189   8.570   8.680  0.5127 -0.6262 -0.7457
18890SOL     OW62505   4.216   9.008   5.891  0.0729  0.4257  0.1732
18890SOL    HW162506   4.194   8.942   5.957  0.7417  0.1691  0.1485
18890SOL    HW262507   4.256   8.958   5.820 -0.1818  0.7628 -0.2135
18891SOL     OW62508   0.463   8.631   4.959  0.1504 -0.2164  0.3687
18891SOL    HW162509   0.445   8.724   4.950  1.2735  0.1687  1.6845
18891SOL    HW262510   0.559   8.625   4.959  0.1022 -1.4956 -0.6931
18892SOL     OW62511   6.961   9.430  10.066  0.6035 -0.3520 -0.0324
18892SOL    HW162512   6.911   9.395  10.140  1.1063 -1.9539 -0.3998
18892SOL    HW262513   6.903   9.496  10.028 -0.2561 -0.5085  0.9398
18893SOL     OW62514   7.572   4.641   6.348  0.3682 -0.0133  0.3811
18893SOL    HW162515   7.549   4.587   6.272  3.1834 -0.4339 -0.2925
18893SOL    HW262516   7.510   4.713   6.345 -0.3982 -0.6709 -1.5933
18894SOL     OW62517   7.047   4.917   3.282  0.0750 -0.2541 -0.1671
18894SOL    HW162518   7.030   4.832   3.240 -1.4952  0.0138 -0.1412
18894SOL    HW262519   7.073   4.895   3.372 -0.1203 -0.7217 -0.2228
18895SOL     OW62520   4.776   2.451  10.466  0.3368  0.2061 -0.0914
18895SOL    HW162521   4.844   2.433  10.531 -0.6275 -2.4531  0.3101
18895SOL    HW262522   4.818   2.438  10.382  0.7477  0.2673  0.1052
18896SOL     OW62523   5.137   3.466   1.646 -0.1586 -1.0540  0.2951
18896SOL    HW162524   5.108   3.442   1.558 -0.7848  0.7630 -0.0520
18896SOL    HW262525   5.169   3.385   1.685 -2.1879 -2.4055 -0.7065
18897SOL     OW62526   9.591   3.197   8.521 -0.7022 -0.2285  0.4405
18897SOL    HW162527   9.638   3.118   8.494 -1.3985  0.0011 -1.5573
18897SOL    HW262528   9.660   3.258   8.549  0.3630  0.3287 -3.0022
18898SOL     OW62529   6.001   3.230   3.227 -0.2309  0.4448  0.4727
18898SOL    HW162530   6.013   3.321   3.200  1.0797 -0.2301 -1.4265
18898SOL    HW262531   5.977   3.184   3.146  3.0923 -1.5684  0.4463
18899SOL     OW62532   4.511   1.758   8.191 -0.3522 -0.4173  0.4812
18899SOL    HW162533   4.603   1.735   8.195  0.2080  1.4273 -0.3071
18899SOL    HW262534   4.510   1.846   8.151 -2.5247 -0.9976 -0.9664
18900SOL     OW62535   9.653   7.372   6.527 -0.3215 -0.4150 -0.0824
18900SOL    HW162536   9.571   7.322   6.535 -0.3497 -0.7589 -1.9451
18900SOL    HW262537   9.719   7.316   6.567 -0.7725 -0.7843  0.1603
18901SOL     OW62538   1.853   8.297   5.281  0.5128  0.0630 -0.5114
18901SOL    HW162539   1.880   8.291   5.372  3.0112 -0.4562 -1.2164
18901SOL    HW262540   1.890   8.380   5.251 -1.0501  0.6743 -0.8764
18902SOL     OW62541   0.166  10.230  10.764  0.2629 -0.2735  0.0024
18902SOL    HW162542   0.139  10.139  10.773 -0.9465  0.1865  1.5687
18902SOL    HW262543   0.260  10.230  10.785  0.4547 -1.2536 -0.8192
18903SOL     OW62544   9.665   4.966  10.137  0.1917  0.7987 -0.5039
18903SOL    HW162545   9.646   4.905  10.065 -1.0857  0.9500 -0.3132
18903SOL    HW262546   9.588   4.962  10.193  1.7443 -0.4491  1.7147
18904SOL     OW62547   3.030   8.068   5.344  0.3074 -0.1273 -0.0196
18904SOL    HW162548   3.119   8.075   5.309  0.6577 -4.0272 -0.4213
18904SOL    HW262549   3.040   8.023   5.428 -1.2183  0.0066  0.2692
18905SOL     OW62550   6.202   6.987   8.469  0.1036 -0.3044  0.0057
18905SOL    HW162551   6.108   7.003   8.460 -0.0943  0.1409  2.3177
18905SOL    HW262552   6.241   7.074   8.472  0.4769 -0.4703  0.0397
18906SOL     OW62553   6.335   5.516  10.802 -0.1847 -0.3071 -0.3040
18906SOL    HW162554   6.305   5.473  10.882  1.4336 -0.4185  0.2744
18906SOL    HW262555   6.297   5.464  10.731 -1.7806 -0.1077  0.3593
18907SOL     OW62556   9.983   9.383   5.460  0.1747  0.1505 -0.4799
18907SOL    HW162557   9.907   9.392   5.404  0.7395 -0.7520 -1.4274
18907SOL    HW262558   9.959   9.427   5.542 -0.4432  2.0374 -1.6343
18908SOL     OW62559   9.677   0.289   8.050 -0.2226  0.6813  0.1037
18908SOL    HW162560   9.647   0.215   7.997 -0.0034  0.1472  0.7069
18908SOL    HW262561   9.611   0.357   8.036  0.2331  0.8537 -1.4677
18909SOL     OW62562  10.549   2.845   4.605 -0.3320  0.2948  0.5927
18909SOL    HW162563  10.469   2.831   4.656 -0.4006 -1.6066  0.0350
18909SOL    HW262564  10.592   2.919   4.649 -2.1281  1.0525  1.1958
18910SOL     OW62565   8.876   1.855   0.649  0.2654  0.3391  0.1382
18910SOL    HW162566   8.930   1.873   0.726 -2.1227  0.7697  1.8479
18910SOL    HW262567   8.872   1.938   0.602  1.6242  0.1110 -0.4161
18911SOL     OW62568   4.545   5.410  10.365 -0.6901 -0.5863 -0.4217
18911SOL    HW162569   4.606   5.483  10.354  0.1592 -1.1344  0.4814
18911SOL    HW262570   4.595   5.333  10.340 -1.7696 -0.8412 -1.9547
18912SOL     OW62571   9.622   3.335   7.572 -0.3691 -0.2007 -0.1887
18912SOL    HW162572   9.559   3.331   7.643  0.1900  1.1294  0.4140
18912SOL    HW262573   9.702   3.369   7.612  0.0881  0.1735 -1.3598
18913SOL     OW62574   3.690   4.190  10.730 -0.6036 -0.1373 -0.3918
18913SOL    HW162575   3.774   4.144  10.721 -1.8352 -2.9947  1.3332
18913SOL    HW262576   3.711   4.268  10.781  1.1195 -0.4179 -0.5990
18914SOL     OW62577   2.019   7.117   5.389 -0.4355  0.5388 -0.1642
18914SOL    HW162578   2.018   7.140   5.482 -0.6029  0.1704 -0.0729
18914SOL    HW262579   1.946   7.167   5.352 -0.8001  0.1563  0.0320
18915SOL     OW62580   9.986   0.354   8.003  0.3932 -0.2742  0.1283
18915SOL    HW162581   9.905   0.399   8.026 -0.2345 -1.4167  0.2330
18915SOL    HW262582  10.050   0.388   8.065  0.7400  2.7054 -1.6728
18916SOL     OW62583   8.831   5.685   6.765  0.3303  0.0606  0.3343
18916SOL    HW162584   8.882   5.696   6.845  0.6655 -0.7563  0.2418
18916SOL    HW262585   8.879   5.620   6.714 -0.8543 -0.8110  0.2907
18917SOL     OW62586   4.480   7.884   3.580 -0.0488 -0.0842  0.0315
18917SOL    HW162587   4.395   7.916   3.609 -0.4171  0.0775 -1.1378
18917SOL    HW262588   4.532   7.875   3.660 -0.6870  1.2078  0.6199
18918SOL     OW62589   4.679   3.601   1.016  0.4576  0.7121  0.1975
18918SOL    HW162590   4.705   3.582   0.926  2.2788  0.6854  0.7010
18918SOL    HW262591   4.596   3.649   1.007  1.2105  1.7899 -1.5562
18919SOL     OW62592   1.775   9.459   1.300  0.1834  0.6040  0.0169
18919SOL    HW162593   1.750   9.551   1.289  1.1417  0.8678 -0.0525
18919SOL    HW262594   1.711   9.424   1.363  0.5505  1.6528  1.0025
18920SOL     OW62595   4.552   3.112   3.841  0.1637  0.5559 -0.2700
18920SOL    HW162596   4.460   3.093   3.824  0.4761 -0.4014 -0.9527
18920SOL    HW262597   4.564   3.089   3.933  0.1094 -0.9276 -0.6182
18921SOL     OW62598  10.694   5.872   1.424  0.2956 -0.6375 -0.2272
18921SOL    HW162599  10.703   5.785   1.465 -0.6653 -1.0475 -0.8654
18921SOL    HW262600  10.748   5.866   1.345  2.5000  0.2941  1.1143
18922SOL     OW62601  10.662   2.823   8.981  0.1879 -0.2285 -0.3915
18922SOL    HW162602  10.613   2.805   9.061  0.8089  0.6012  0.2000
18922SOL    HW262603  10.711   2.903   9.000  0.7928 -0.3314 -1.4026
18923SOL     OW62604   1.574   5.823   6.960  0.1937 -0.1489 -0.1572
18923SOL    HW162605   1.482   5.831   6.934 -0.2664 -1.0223  1.1498
18923SOL    HW262606   1.617   5.787   6.882 -0.7708 -0.7771 -0.4155
18924SOL     OW62607   5.139   4.169   5.212  0.4196 -0.3486 -0.9183
18924SOL    HW162608   5.221   4.216   5.193 -0.4179  0.4100 -3.0293
18924SOL    HW262609   5.159   4.078   5.192  0.9859 -0.3027 -0.5846
18925SOL     OW62610   7.739   3.531   2.654  0.4807  0.4979  0.1736
18925SOL    HW162611   7.765   3.444   2.622 -2.1188 -0.0879 -0.5951
18925SOL    HW262612   7.796   3.548   2.729  0.6496 -2.1385  0.7158
18926SOL     OW62613   7.647   6.689   7.539 -0.2505  0.1594  0.2904
18926SOL    HW162614   7.692   6.772   7.524  0.6934 -0.4521 -0.3578
18926SOL    HW262615   7.630   6.688   7.633 -0.0971  0.9860  0.3374
18927SOL     OW62616   0.682   8.692   3.139 -0.0687 -0.0836 -0.2234
18927SOL    HW162617   0.661   8.623   3.202  0.8303 -0.0110  0.1769
18927SOL    HW262618   0.706   8.645   3.059  1.3527 -0.3007  0.2952
18928SOL     OW62619   2.871  10.283   9.736  0.1182 -0.6481 -0.3570
18928SOL    HW162620   2.938  10.243   9.792 -1.3489 -2.3406  0.2849
18928SOL    HW262621   2.894  10.256   9.648  0.7155 -0.5494 -0.2359
18929SOL     OW62622  10.072   2.413   7.436 -0.1645 -0.0299  0.0511
18929SOL    HW162623  10.137   2.483   7.442 -0.0992 -0.1547  1.0609
18929SOL    HW262624  10.071   2.374   7.523  0.2193 -1.6783 -0.6409
18930SOL     OW62625   8.821   2.013   4.068  0.1164  0.4296  0.1331
18930SOL    HW162626   8.783   2.017   4.156 -0.8654  0.3729 -0.2770
18930SOL    HW262627   8.778   1.938   4.027  0.6883  0.3605 -0.3412
18931SOL     OW62628   5.762   6.528   3.692 -0.7452  0.5509 -0.1128
18931SOL    HW162629   5.772   6.467   3.619 -0.2327 -0.1611  0.5365
18931SOL    HW262630   5.728   6.608   3.652 -3.3365 -0.7441 -0.7464
18932SOL     OW62631   4.833   5.023   7.995 -0.6251  0.2850  0.3259
18932SOL    HW162632   4.797   4.936   8.012 -1.7906  0.9249  1.2382
18932SOL    HW262633   4.928   5.012   8.007 -0.5924 -1.1589 -0.9811
18933SOL     OW62634   4.767   4.953   0.399 -0.2325  0.3159 -0.3728
18933SOL    HW162635   4.689   4.946   0.454 -0.4250  2.6177 -0.2455
18933SOL    HW262636   4.828   5.006   0.450  1.6917 -1.8675 -0.2467
18934SOL     OW62637   4.921   3.002   6.465 -0.7512 -0.3271 -0.5016
18934SOL    HW162638   4.842   3.056   6.471 -1.9477 -1.9441 -0.9601
18934SOL    HW262639   4.944   2.983   6.556 -1.0796 -0.0921 -0.3691
18935SOL     OW62640  10.609   8.358   9.273  0.4787 -0.3279  0.4507
18935SOL    HW162641  10.574   8.270   9.285 -0.6165  0.0853  0.3922
18935SOL    HW262642  10.703   8.348   9.286  0.3073 -1.4070  0.9970
18936SOL     OW62643   5.708   4.437   3.461 -0.0363  0.0197  0.0652
18936SOL    HW162644   5.675   4.423   3.373 -0.4844  0.0257  0.2302
18936SOL    HW262645   5.686   4.357   3.509  0.8292 -0.2714 -0.0099
18937SOL     OW62646   0.827   0.199   8.140 -0.1277 -0.3244 -0.0621
18937SOL    HW162647   0.888   0.272   8.156 -0.4747 -0.1613  0.5525
18937SOL    HW262648   0.822   0.154   8.224 -0.3842 -0.7021 -0.2798
18938SOL     OW62649   8.203   6.609   3.292 -0.1524 -0.6690 -0.2810
18938SOL    HW162650   8.279   6.553   3.309  1.1763  1.8762  3.2374
18938SOL    HW262651   8.222   6.648   3.207  0.1927 -3.3389 -1.5585
18939SOL     OW62652   5.041  10.138   6.873  0.0940 -0.0502  0.4226
18939SOL    HW162653   5.025  10.217   6.926 -1.1539  0.1983 -0.2775
18939SOL    HW262654   4.954  10.114   6.840  0.7749 -0.4074 -1.2008
18940SOL     OW62655   0.991   9.105   8.570 -0.8494 -0.8290 -0.2074
18940SOL    HW162656   0.910   9.063   8.541  0.6294 -3.0533 -1.4237
18940SOL    HW262657   1.010   9.066   8.655 -2.3710  1.7049  1.4108
18941SOL     OW62658   3.010   4.168   2.389 -0.5720 -0.3841 -0.0023
18941SOL    HW162659   2.985   4.234   2.453 -0.0615 -0.1420 -0.0435
18941SOL    HW262660   2.989   4.207   2.304 -0.7190 -0.4720 -0.0062
18942SOL     OW62661   3.284   6.779   4.705 -0.0030  0.3813 -0.5750
18942SOL    HW162662   3.194   6.800   4.733 -0.1028  0.5402 -1.0137
18942SOL    HW262663   3.337   6.849   4.742  0.4221 -1.2722  2.3272
18943SOL     OW62664   8.960   9.292   9.155 -0.2479 -0.6002  0.1458
18943SOL    HW162665   8.925   9.381   9.152  0.3841 -0.2924  1.3915
18943SOL    HW262666   8.883   9.237   9.168 -0.5174 -0.1230  0.6135
18944SOL     OW62667   5.519   6.249   4.356 -0.5189 -0.0268  0.8939
18944SOL    HW162668   5.449   6.226   4.417 -1.2979  0.1906  0.0989
18944SOL    HW262669   5.475   6.293   4.284  0.3949 -0.2591  0.1723
18945SOL     OW62670   8.967   4.817   7.212  0.1677 -0.1921  0.7595
18945SOL    HW162671   8.927   4.734   7.239  0.5846 -0.5746  0.2337
18945SOL    HW262672   9.057   4.794   7.190 -0.0759  0.1336 -0.6885
18946SOL     OW62673   2.286   0.311  10.003  0.1605  0.1600 -0.7364
18946SOL    HW162674   2.300   0.361   9.923 -1.2756  0.8611 -0.5922
18946SOL    HW262675   2.197   0.334  10.030  0.5649 -0.1505  0.9962
18947SOL     OW62676   3.028   2.471   1.848 -1.0066 -0.5172  0.1447
18947SOL    HW162677   3.029   2.393   1.793  0.4006 -1.6010  1.5892
18947SOL    HW262678   3.119   2.480   1.877 -1.3838  0.9844  0.9423
18948SOL     OW62679  10.503   2.906   3.383  0.0292 -0.1364 -0.4715
18948SOL    HW162680  10.458   2.879   3.463  0.1836  2.1462  0.4622
18948SOL    HW262681  10.588   2.863   3.387  0.2347  0.3625  0.8707
18949SOL     OW62682   8.640   8.416   5.417  0.4718  0.4252  0.4486
18949SOL    HW162683   8.599   8.447   5.336  0.4651 -0.1350  0.2309
18949SOL    HW262684   8.703   8.350   5.388  1.0838  0.8393  0.8347
18950SOL     OW62685   9.118   9.186   7.897 -0.2566 -0.1031  0.6899
18950SOL    HW162686   9.062   9.226   7.965 -0.1269 -0.6639  1.1359
18950SOL    HW262687   9.075   9.103   7.878 -0.7546  0.4080 -0.5334
18951SOL     OW62688   8.661  10.525   5.654 -0.4251 -0.1723 -0.2110
18951SOL    HW162689   8.713  10.564   5.584 -0.3944  1.6333  0.7689
18951SOL    HW262690   8.582  10.493   5.610  0.3139 -0.5739 -1.3002
18952SOL     OW62691   4.808  10.460   9.773  0.1547 -0.3313  0.3142
18952SOL    HW162692   4.798  10.402   9.697 -0.1794 -0.9181  0.7973
18952SOL    HW262693   4.833  10.401   9.845  1.3372  0.3360  0.4674
18953SOL     OW62694  10.504   4.746  10.417 -0.2861  0.3176 -0.1959
18953SOL    HW162695  10.469   4.734  10.329 -1.5716 -3.8064  0.6695
18953SOL    HW262696  10.597   4.763  10.404 -0.3606 -0.7015 -2.3473
18954SOL     OW62697   0.878   3.664   7.371 -0.8489  0.3391 -0.0794
18954SOL    HW162698   0.910   3.688   7.284  2.3086 -0.9222  0.6108
18954SOL    HW262699   0.898   3.571   7.380 -0.0824  0.6522  2.3602
18955SOL     OW62700   2.587   6.398   3.120  0.3687  0.2011  0.3770
18955SOL    HW162701   2.533   6.358   3.189 -0.7160  0.5455 -0.2452
18955SOL    HW262702   2.652   6.331   3.100 -0.1363 -0.4425  0.8074
18956SOL     OW62703   7.283  10.498  10.331  0.1790  0.5638 -0.2984
18956SOL    HW162704   7.375  10.520  10.319 -0.2949  2.7879 -0.3473
18956SOL    HW262705   7.248  10.493  10.242  0.1000  0.4733 -0.2628
18957SOL     OW62706   8.250  10.692   5.217 -0.3294  0.0830 -0.3679
18957SOL    HW162707   8.307  10.637   5.270 -1.4273 -1.1420 -0.3936
18957SOL    HW262708   8.236  10.642   5.137  1.3186  1.9079 -1.8927
18958SOL     OW62709   2.901   9.332   2.076  0.6084  0.0597  0.2770
18958SOL    HW162710   2.988   9.338   2.038  0.7114  0.4313  0.5731
18958SOL    HW262711   2.908   9.376   2.161 -0.0652  0.8330 -0.0546
18959SOL     OW62712   8.739   3.382   4.363 -0.3761 -0.0318 -0.1381
18959SOL    HW162713   8.767   3.296   4.329 -0.6850 -0.1431 -0.1118
18959SOL    HW262714   8.799   3.444   4.322 -0.8042 -0.1576 -0.9700
18960SOL     OW62715   6.153   9.639   6.967  0.0789  0.1250  0.3456
18960SOL    HW162716   6.169   9.594   6.884  1.1037  1.0347  0.0292
18960SOL    HW262717   6.118   9.725   6.941  2.2850  1.2015  0.7381
18961SOL     OW62718   2.099   0.986   3.059 -0.7795  0.4410 -0.2203
18961SOL    HW162719   2.041   0.987   2.983 -0.7990  0.8060 -0.2014
18961SOL    HW262720   2.118   1.078   3.076 -1.0327  0.3786  0.4102
18962SOL     OW62721   1.770   2.878   1.979  0.5717 -0.4534  0.0873
18962SOL    HW162722   1.787   2.862   2.071  1.0096  0.5606  0.1988
18962SOL    HW262723   1.690   2.931   1.978  0.4521 -0.6362 -0.1274
18963SOL     OW62724   6.092   0.847   9.916 -0.3206  0.0420  0.1460
18963SOL    HW162725   6.037   0.898   9.855  0.5481 -0.3987 -1.0557
18963SOL    HW262726   6.157   0.804   9.859  0.2177 -0.7921  1.3496
18964SOL     OW62727   3.853   3.136   8.662  0.3676  0.7752 -0.2863
18964SOL    HW162728   3.889   3.166   8.745  0.2736  0.6297 -0.1927
18964SOL    HW262729   3.906   3.059   8.639  0.2893  0.7184 -0.2796
18965SOL     OW62730   0.631   4.914   6.128 -0.5136 -0.7513  0.0438
18965SOL    HW162731   0.641   4.993   6.074 -0.9199 -0.1106  0.8888
18965SOL    HW262732   0.718   4.875   6.129  0.0038  0.3876  0.6702
18966SOL     OW62733   1.347  10.847   9.600 -0.2171  0.0891 -0.6014
18966SOL    HW162734   1.297  10.869   9.678 -1.1760  0.7763 -1.3833
18966SOL    HW262735   1.404  10.923   9.585 -0.5702  0.2861 -0.9766
18967SOL     OW62736   0.259   3.311   4.688  0.6202  0.3738 -0.4017
18967SOL    HW162737   0.309   3.230   4.697  3.9888  2.4086  0.7715
18967SOL    HW262738   0.257   3.348   4.776 -0.2963  1.8859 -1.0250
18968SOL     OW62739   3.718   0.839   2.706  0.0371  0.6913 -0.7376
18968SOL    HW162740   3.793   0.817   2.761 -0.8899  0.0830  0.3333
18968SOL    HW262741   3.735   0.928   2.676  0.0059  1.5474  1.5973
18969SOL     OW62742   9.956   3.690   0.327  0.2200 -0.5393  0.2040
18969SOL    HW162743   9.991   3.631   0.261  1.2755 -0.9549  1.1016
18969SOL    HW262744  10.017   3.764   0.329  0.5586 -0.8283  1.1289
18970SOL     OW62745   4.371   2.639   2.507  0.8557  0.3771 -0.1219
18970SOL    HW162746   4.337   2.628   2.596  1.0455  1.1552  0.0543
18970SOL    HW262747   4.374   2.551   2.471 -0.0329  0.1441  0.3484
18971SOL     OW62748  10.310   2.246   4.966  0.3953 -0.3172  0.2882
18971SOL    HW162749  10.231   2.209   4.926  2.0412 -2.4669 -1.2036
18971SOL    HW262750  10.284   2.266   5.056 -2.6454  1.9470 -0.9221
18972SOL     OW62751   7.297   9.193   0.711 -0.3873  0.2052  0.2230
18972SOL    HW162752   7.368   9.141   0.749  0.2904  1.8779  1.3586
18972SOL    HW262753   7.291   9.270   0.767 -2.4607  0.5777 -0.4370
18973SOL     OW62754   3.872   0.223   0.157 -0.4054 -0.4880  0.7958
18973SOL    HW162755   3.901   0.308   0.191  0.9134 -0.8314  0.5764
18973SOL    HW262756   3.939   0.199   0.093 -0.2658 -2.1074  1.4984
18974SOL     OW62757   1.562   6.531  10.767  0.4633 -0.2098 -0.3055
18974SOL    HW162758   1.603   6.465  10.710  1.2679  1.4854 -1.7863
18974SOL    HW262759   1.487   6.562  10.717 -0.2113 -0.3284  0.6049
18975SOL     OW62760   6.192   3.577   2.634  0.5265 -0.7074  0.1853
18975SOL    HW162761   6.171   3.598   2.725 -0.1121  0.2346 -0.1689
18975SOL    HW262762   6.182   3.481   2.629 -0.1304 -0.6893  0.9315
18976SOL     OW62763   2.773   0.533  10.904 -0.4705 -0.2730  0.2392
18976SOL    HW162764   2.766   0.521  10.998  2.1145  1.5080  0.7498
18976SOL    HW262765   2.805   0.448  10.872  0.0813 -0.4373  1.1834
18977SOL     OW62766   4.178   4.591   2.884 -0.4694  0.2937  0.1357
18977SOL    HW162767   4.260   4.558   2.847 -0.1969  1.9668 -0.8932
18977SOL    HW262768   4.197   4.682   2.905 -0.9034 -0.3076  3.7338
18978SOL     OW62769   4.281   7.140   5.266  0.1259 -0.3974  0.1784
18978SOL    HW162770   4.210   7.165   5.207  0.8840  0.4292 -0.4188
18978SOL    HW262771   4.270   7.046   5.280 -0.1442 -0.5912 -1.1871
18979SOL     OW62772   8.131   9.695   6.227  0.4413 -0.6284  0.5707
18979SOL    HW162773   8.193   9.707   6.155 -1.0262  1.3501 -0.4429
18979SOL    HW262774   8.109   9.602   6.225  0.8298 -0.7175 -1.1937
18980SOL     OW62775   1.480   7.821   5.963 -1.0831 -0.1685  0.2329
18980SOL    HW162776   1.548   7.824   6.031  1.0110 -0.0932 -1.7306
18980SOL    HW262777   1.460   7.913   5.946 -0.1417 -0.0919 -0.5689
18981SOL     OW62778   3.364   2.919   0.652  0.2454  0.1642  0.1777
18981SOL    HW162779   3.384   2.838   0.699  0.7514  0.1319 -0.0902
18981SOL    HW262780   3.335   2.890   0.566 -2.6365  0.1137  1.0638
18982SOL     OW62781   0.037   2.490   7.639  0.0026  0.2119 -0.9287
18982SOL    HW162782   0.047   2.437   7.718  1.8904 -1.6383 -2.2761
18982SOL    HW262783   0.053   2.580   7.667  2.4420 -0.5902  0.5292
18983SOL     OW62784   0.946   4.679   0.365  0.4660  0.2951 -0.4158
18983SOL    HW162785   1.009   4.716   0.427  0.3858 -1.6973  0.9562
18983SOL    HW262786   0.995   4.667   0.284  1.7776 -0.8830  0.5240
18984SOL     OW62787   0.852   5.642   4.735 -0.2702 -0.2391  0.1311
18984SOL    HW162788   0.812   5.599   4.660  0.3694 -1.6392  0.5646
18984SOL    HW262789   0.795   5.717   4.753  0.1207  0.7661 -2.3833
18985SOL     OW62790   7.374   5.799   7.790 -0.7425 -0.1624  0.5828
18985SOL    HW162791   7.418   5.863   7.845  0.3731 -1.6380  1.4525
18985SOL    HW262792   7.409   5.714   7.817  0.5666 -0.9581 -2.9283
18986SOL     OW62793   5.798   3.365   0.585  0.6903 -0.2221  0.1608
18986SOL    HW162794   5.761   3.438   0.634 -0.4340 -0.2115 -0.6608
18986SOL    HW262795   5.817   3.298   0.651 -0.6680 -0.1672  0.6282
18987SOL     OW62796   5.042   5.422   2.227  0.5600 -0.3156 -0.6852
18987SOL    HW162797   5.083   5.494   2.275  2.3920 -0.6993 -1.5953
18987SOL    HW262798   5.040   5.349   2.289 -2.0135  0.6278  0.5084
18988SOL     OW62799   3.641   3.037   1.352  0.2529  0.0939 -0.2472
18988SOL    HW162800   3.600   3.122   1.366 -0.2684 -0.2527  0.4435
18988SOL    HW262801   3.727   3.044   1.393 -1.1996 -0.8665  3.3861
18989SOL     OW62802   4.856   9.742   4.258  0.1150 -0.6721  0.6868
18989SOL    HW162803   4.921   9.781   4.199 -0.0358 -0.4757  0.6515
18989SOL    HW262804   4.776   9.792   4.242  0.2043 -0.2980  1.4228
18990SOL     OW62805   7.604   4.688  10.655 -0.3364 -0.1751  0.4003
18990SOL    HW162806   7.617   4.702  10.561  0.7137  0.3178  0.6012
18990SOL    HW262807   7.604   4.593  10.666 -0.5770 -0.2367 -0.1070
18991SOL     OW62808   7.125   2.941   3.269 -0.0818  0.2594 -0.2112
18991SOL    HW162809   7.132   2.933   3.174  1.6027 -2.2907  0.0309
18991SOL    HW262810   7.191   3.006   3.293  1.7166 -1.3537 -0.5837
18992SOL     OW62811   8.652   5.324   4.730 -0.3118  0.1140  0.3169
18992SOL    HW162812   8.739   5.335   4.769  0.5817 -1.6997 -1.0304
18992SOL    HW262813   8.595   5.377   4.785  1.5128  0.7516  1.7105
18993SOL     OW62814   8.562   5.632   6.334 -0.1286 -0.1470 -0.0952
18993SOL    HW162815   8.571   5.577   6.412  0.2671  1.0127  0.7056
18993SOL    HW262816   8.473   5.668   6.341  0.3088  0.8547  0.4441
18994SOL     OW62817   7.262   2.532   5.685  0.1180 -0.0094 -0.1215
18994SOL    HW162818   7.180   2.484   5.699  1.0094 -2.4467 -2.3925
18994SOL    HW262819   7.277   2.578   5.768 -2.1182 -1.7094  1.3568
18995SOL     OW62820   6.018   5.377   1.412  0.0608 -0.0926 -0.6565
18995SOL    HW162821   5.987   5.467   1.426  0.7849  0.0357  0.3260
18995SOL    HW262822   5.940   5.323   1.418  0.0630 -0.0032  3.8151
18996SOL     OW62823   5.617   0.120   3.831  0.0809  0.0133 -0.0122
18996SOL    HW162824   5.588   0.187   3.769  0.5109 -0.0679 -0.3055
18996SOL    HW262825   5.650   0.049   3.776 -1.2342 -0.8590  0.2741
18997SOL     OW62826   5.080   5.243   4.714 -0.1674  0.1666 -0.0224
18997SOL    HW162827   5.061   5.207   4.627  1.2491  0.3659 -0.4362
18997SOL    HW262828   4.998   5.283   4.742 -0.8824 -0.6379 -0.8985
18998SOL     OW62829   0.647   8.582   0.951 -0.4128  0.1748 -0.6810
18998SOL    HW162830   0.719   8.524   0.975  1.8948  2.5373 -1.4660
18998SOL    HW262831   0.624   8.556   0.862  0.4155  0.2583 -0.9292
18999SOL     OW62832   7.354   5.662   5.988 -0.1988  0.0067  0.0847
18999SOL    HW162833   7.414   5.646   6.061  0.3245 -0.8189 -0.5103
18999SOL    HW262834   7.270   5.680   6.030  0.3674  0.8291  0.9239
19000SOL     OW62835   2.730   1.254   5.070 -0.7538 -0.2833 -0.3871
19000SOL    HW162836   2.743   1.335   5.020  2.2942 -0.1432  0.4282
19000SOL    HW262837   2.714   1.285   5.160  1.7542 -0.4701  0.2021
19001SOL     OW62838   6.364   3.025   7.776 -0.1240 -0.1018 -0.3908
19001SOL    HW162839   6.271   3.043   7.790 -0.6361 -2.8761  0.2950
19001SOL    HW262840   6.408   3.065   7.852 -0.9049  0.1834 -0.0792
19002SOL     OW62841  10.170   3.852   3.041 -0.4013  0.3571 -0.8194
19002SOL    HW162842  10.103   3.904   3.086 -0.1673  0.8025 -0.9899
19002SOL    HW262843  10.207   3.911   2.975  1.6414  0.8095  0.6405
19003SOL     OW62844   8.011   1.046   1.313  0.1898  0.1733 -0.3054
19003SOL    HW162845   7.993   1.125   1.262 -1.0950 -0.9599 -1.6707
19003SOL    HW262846   8.104   1.028   1.298  0.0273  0.3312 -1.5931
19004SOL     OW62847   3.379   2.435   2.898  0.0024  0.1359  0.1438
19004SOL    HW162848   3.298   2.456   2.945 -0.5665 -0.6892 -0.4445
19004SOL    HW262849   3.359   2.455   2.806 -0.0970 -1.6126 -0.2380
19005SOL     OW62850   6.598   7.781   9.013 -0.6234 -0.4109  0.0738
19005SOL    HW162851   6.654   7.726   9.068 -0.3933  0.2387  0.4998
19005SOL    HW262852   6.514   7.784   9.059 -0.4555  0.0669  0.3591
19006SOL     OW62853   1.181   9.519   9.352 -0.4947 -0.1853 -0.3246
19006SOL    HW162854   1.188   9.575   9.275  1.5019 -0.8767 -0.7069
19006SOL    HW262855   1.270   9.486   9.366 -1.1489 -1.4211  1.2666
19007SOL     OW62856   0.268  10.883   9.261 -0.2553  0.2088 -0.3742
19007SOL    HW162857   0.272  10.813   9.326 -1.8525  0.0955 -0.3353
19007SOL    HW262858   0.342  10.939   9.280 -1.1175  0.6341  2.0960
19008SOL     OW62859   1.322   7.836   4.681  0.4053  0.1904  0.2819
19008SOL    HW162860   1.308   7.826   4.586 -0.3607 -1.3105  0.5251
19008SOL    HW262861   1.402   7.787   4.698 -0.1541 -0.6290  0.5943
19009SOL     OW62862   1.441   9.828   9.472  0.2274  0.0714  0.5755
19009SOL    HW162863   1.375   9.877   9.521  0.6895  2.0793 -0.6992
19009SOL    HW262864   1.520   9.834   9.526  0.2563  0.6801  0.4748
19010SOL     OW62865   5.934   2.234   1.286 -0.1559  0.3334 -0.1177
19010SOL    HW162866   6.017   2.239   1.239 -0.7837  0.2490 -1.2659
19010SOL    HW262867   5.935   2.309   1.345  0.8405  0.1835  0.0707
19011SOL     OW62868   2.242   9.972   8.410  0.6556 -0.6251  0.5049
19011SOL    HW162869   2.165   9.991   8.464  0.0836 -1.5781  0.0486
19011SOL    HW262870   2.316   9.979   8.470  0.1618 -0.3166  1.0948
19012SOL     OW62871   7.501   6.269   8.356  0.1570  0.2325  0.2646
19012SOL    HW162872   7.530   6.337   8.416  0.1278 -0.7353  1.4303
19012SOL    HW262873   7.490   6.191   8.411  1.5436 -1.1067 -1.2198
19013SOL     OW62874   5.455   6.465   9.435 -0.6246 -0.3507 -0.3278
19013SOL    HW162875   5.496   6.467   9.521  0.3074 -1.4644 -0.7110
19013SOL    HW262876   5.524   6.493   9.375  0.0473 -3.4244 -1.1263
19014SOL     OW62877  10.599   5.657   9.486  0.4387  0.5653  0.1936
19014SOL    HW162878  10.543   5.711   9.542  1.7818  2.7363 -0.4405
19014SOL    HW262879  10.687   5.669   9.522  1.1385  0.9490 -1.5578
19015SOL     OW62880   2.904   8.601   6.565 -0.6348  0.3430  0.2044
19015SOL    HW162881   2.848   8.661   6.615  1.3126 -0.6075  3.8882
19015SOL    HW262882   2.875   8.513   6.592 -0.8360 -0.3348 -2.0342
19016SOL     OW62883   8.354   7.741   9.722 -0.3279  0.3737  0.4770
19016SOL    HW162884   8.401   7.824   9.719 -0.1197  0.2861  1.2008
19016SOL    HW262885   8.422   7.674   9.722 -0.4916  0.2006  0.0834
19017SOL     OW62886   9.953   4.698   1.864 -0.1036  0.0894 -0.1340
19017SOL    HW162887   9.862   4.698   1.834 -0.1070  0.9434 -0.1476
19017SOL    HW262888   9.983   4.788   1.849  0.7198 -0.1718 -0.0615
19018SOL     OW62889  10.579   2.264   1.136 -0.3215  0.2938 -0.3170
19018SOL    HW162890  10.642   2.198   1.165 -1.1557 -0.4471 -0.1392
19018SOL    HW262891  10.496   2.217   1.133 -0.6880  0.9842 -1.5663
19019SOL     OW62892   4.278   5.979   3.633 -0.5413  0.0188 -0.0550
19019SOL    HW162893   4.258   5.919   3.705  1.6282 -0.4995  0.2016
19019SOL    HW262894   4.284   6.065   3.675 -1.2311  0.0381  0.0151
19020SOL     OW62895  10.034   7.939   5.513 -0.1484  0.5146  0.5139
19020SOL    HW162896  10.021   8.023   5.469 -0.3131  0.3385  0.2259
19020SOL    HW262897  10.129   7.929   5.516 -0.1237 -0.6098 -1.9986
19021SOL     OW62898   0.988   9.213   4.131  0.1136 -0.0897 -0.4376
19021SOL    HW162899   1.069   9.202   4.082 -0.4693 -0.6956 -1.3171
19021SOL    HW262900   0.974   9.307   4.134  1.5591  0.1168  0.9652
19022SOL     OW62901   0.813   9.418   9.774  0.2451 -0.3022  0.7102
19022SOL    HW162902   0.810   9.458   9.860 -0.1167  1.6029 -0.1453
19022SOL    HW262903   0.887   9.461   9.730  1.4423 -2.3714  0.5634
19023SOL     OW62904   1.576   3.155   3.370  0.4282  0.5859  0.1711
19023SOL    HW162905   1.602   3.193   3.454  1.1468  0.6921 -0.0866
19023SOL    HW262906   1.610   3.065   3.372  0.5480  0.6240 -0.0447
19024SOL     OW62907   8.277   0.278   0.080  0.0506 -0.3544 -0.0073
19024SOL    HW162908   8.231   0.311   0.158 -1.5364 -1.6500 -0.3224
19024SOL    HW262909   8.275   0.351   0.018  2.0655  0.9865  1.3912
19025SOL     OW62910   2.854   6.773   6.712 -0.0011  0.4828 -0.1271
19025SOL    HW162911   2.794   6.756   6.784  0.2024  1.4681  0.2966
19025SOL    HW262912   2.914   6.840   6.746 -0.3046  1.4460 -1.4180
19026SOL     OW62913   2.932  10.431   2.693  0.3913 -0.0548 -0.5659
19026SOL    HW162914   2.871  10.463   2.626  0.6870  0.2632 -0.6839
19026SOL    HW262915   2.994  10.377   2.645  0.5614  0.1152 -0.5363
19027SOL     OW62916   2.932   2.010  10.564 -0.1529  0.6949  0.5015
19027SOL    HW162917   2.977   1.929  10.589  0.4898  0.1958 -2.0369
19027SOL    HW262918   3.001   2.075  10.553 -0.3379  0.7598 -0.3797
19028SOL     OW62919   5.986   4.276   0.318 -0.5279 -0.2477  0.3559
19028SOL    HW162920   5.945   4.357   0.349  0.3113  0.2797  0.1241
19028SOL    HW262921   5.915   4.228   0.274 -0.9166  0.5979  0.0453
19029SOL     OW62922   3.778  10.814   6.689  0.2679  0.5525  0.1324
19029SOL    HW162923   3.847  10.800   6.624  1.3807  0.3714  1.3353
19029SOL    HW262924   3.721  10.738   6.680  0.9068  0.0846 -0.0216
19030SOL     OW62925   1.147   5.703   7.803  0.3062  0.1823 -0.4856
19030SOL    HW162926   1.119   5.713   7.894 -2.3105  0.3641 -1.2274
19030SOL    HW262927   1.174   5.790   7.776  0.0990  0.3507 -0.1582
19031SOL     OW62928   9.343   4.628   2.229 -0.3090 -0.1379  0.5806
19031SOL    HW162929   9.343   4.638   2.324 -1.5735 -0.4493  0.6214
19031SOL    HW262930   9.268   4.678   2.199  0.5427  0.6327 -0.3505
19032SOL     OW62931   2.925   9.639   1.726 -0.3148 -0.6415  0.0215
19032SOL    HW162932   2.845   9.642   1.672 -1.9065 -0.8575  2.2520
19032SOL    HW262933   2.930   9.726   1.765  0.6645 -0.5872 -0.2035
19033SOL     OW62934   5.647   4.263   4.765  0.4294 -0.2459 -0.0067
19033SOL    HW162935   5.601   4.180   4.778  1.9169 -1.0945  0.0791
19033SOL    HW262936   5.722   4.241   4.710  1.8937  0.6356  1.5156
19034SOL     OW62937   2.468   2.965   6.334  0.0811  0.0370  0.2195
19034SOL    HW162938   2.536   3.022   6.298  1.0722 -0.7676  0.7867
19034SOL    HW262939   2.446   3.004   6.418 -1.0894  1.0046 -0.4940
19035SOL     OW62940   0.584   7.841   8.221  0.2862 -0.0215  0.2484
19035SOL    HW162941   0.625   7.774   8.275  2.6119  0.8613 -0.3116
19035SOL    HW262942   0.594   7.922   8.272  0.1716  0.3753 -0.3446
19036SOL     OW62943   4.184   2.551  10.701 -0.4222 -1.1145  0.0801
19036SOL    HW162944   4.156   2.465  10.732 -0.6336 -0.7000  1.0891
19036SOL    HW262945   4.114   2.610  10.729  0.0784 -0.4988  0.0585
19037SOL     OW62946   2.154   6.869   5.440  0.8961 -0.4364 -0.0977
19037SOL    HW162947   2.102   6.946   5.415  1.6438 -0.2583 -1.1538
19037SOL    HW262948   2.091   6.811   5.485 -0.2584 -0.2990 -1.4722
19038SOL     OW62949   4.175   6.844   1.691  0.9882 -0.7203  0.3071
19038SOL    HW162950   4.239   6.881   1.630  0.8310  0.3412  0.7619
19038SOL    HW262951   4.108   6.806   1.635  0.9688  0.0237 -0.1889
19039SOL     OW62952   5.578   4.059  10.589  0.3580 -0.0416 -0.4176
19039SOL    HW162953   5.558   4.052  10.682  1.7163 -1.0758 -0.1835
19039SOL    HW262954   5.493   4.056  10.545 -0.2257 -0.5116  0.7320
19040SOL     OW62955   3.598   5.829   3.912 -0.0720  0.3424  0.4051
19040SOL    HW162956   3.527   5.782   3.957 -0.5035 -1.1073 -1.6017
19040SOL    HW262957   3.552   5.888   3.851  0.4658  0.8869  0.5217
19041SOL     OW62958   2.749   0.072   5.564 -0.5570  0.0758  0.0158
19041SOL    HW162959   2.732   0.071   5.659  0.0911  1.2607  0.1673
19041SOL    HW262960   2.817   0.006   5.551  0.7715  1.2756  0.6931
19042SOL     OW62961   4.218   3.954   7.071  0.1985  0.5447  0.1761
19042SOL    HW162962   4.194   4.041   7.041  1.4573  0.9175  0.1999
19042SOL    HW262963   4.154   3.934   7.140 -0.6124  1.0849 -0.4052
19043SOL     OW62964   0.508  10.062   9.595  0.7910 -0.3787 -0.1338
19043SOL    HW162965   0.455   9.992   9.555 -0.9324  0.9335 -0.2810
19043SOL    HW262966   0.576  10.080   9.531 -0.5487  0.0910 -1.4957
19044SOL     OW62967   9.217   4.138   5.612  0.1644  0.1432  0.3201
19044SOL    HW162968   9.300   4.128   5.658  0.6745  0.4614 -0.5204
19044SOL    HW262969   9.201   4.052   5.572  0.3105  0.2093  0.1188
19045SOL     OW62970   5.152   7.700  10.340  0.0883  0.6314  0.3363
19045SOL    HW162971   5.163   7.634  10.408 -1.2606 -0.5071 -0.5109
19045SOL    HW262972   5.097   7.767  10.380 -1.9532 -0.7360 -0.0164
19046SOL     OW62973   8.496   4.911   0.137 -0.4498  0.0947 -0.1965
19046SOL    HW162974   8.494   4.851   0.212  1.6980  0.2370  0.0341
19046SOL    HW262975   8.453   4.990   0.169  2.1303  0.8792  1.6339
19047SOL     OW62976   9.478  10.457   6.833 -0.1463  0.5214  0.0070
19047SOL    HW162977   9.458  10.366   6.808 -0.4811  0.6614 -0.2535
19047SOL    HW262978   9.449  10.508   6.757  0.5543  0.7993 -0.0801
19048SOL     OW62979   8.374   3.956   1.650  0.0271  0.0900  0.2405
19048SOL    HW162980   8.340   3.992   1.732  0.1620  0.5948  0.0827
19048SOL    HW262981   8.357   4.025   1.586  2.2089  0.7914  0.3344
19049SOL     OW62982   7.481  10.639   7.574 -0.0069  0.0177 -0.0259
19049SOL    HW162983   7.457  10.547   7.579 -0.5703  0.2065  1.0190
19049SOL    HW262984   7.399  10.686   7.591  0.0134  0.7398 -1.6728
19050SOL     OW62985   6.240   9.860   6.493  0.0955 -0.0897  0.0067
19050SOL    HW162986   6.269   9.800   6.562  1.4389 -0.7416 -1.0597
19050SOL    HW262987   6.312   9.921   6.482 -0.9453  1.2756  0.5418
19051SOL     OW62988   8.057   6.524   5.716  0.1992 -0.3565  0.2258
19051SOL    HW162989   7.986   6.558   5.770 -1.8023 -1.2417 -1.7071
19051SOL    HW262990   8.074   6.436   5.750 -1.8991 -1.3952 -1.2268
19052SOL     OW62991   8.076   1.047   8.034  0.0987  0.2997  0.6230
19052SOL    HW162992   8.079   0.988   8.110 -1.3121  0.5923  0.9287
19052SOL    HW262993   8.166   1.079   8.026 -0.2388  2.6355  4.0759
19053SOL     OW62994   1.993   7.868   0.079  0.2817 -0.0809 -0.0616
19053SOL    HW162995   1.990   7.911  -0.007 -0.7605  0.3475  0.1692
19053SOL    HW262996   2.072   7.903   0.120  0.4377  0.2099 -0.5919
19054SOL     OW62997   1.763   6.409   1.556  0.3035 -0.1040  0.0343
19054SOL    HW162998   1.770   6.325   1.602  0.3762 -1.2633 -1.9855
19054SOL    HW262999   1.681   6.403   1.507 -0.7028  1.8421  1.3659
19055SOL     OW63000   1.423   0.861   9.484  0.7768  0.6975 -0.2916
19055SOL    HW163001   1.485   0.922   9.443  0.0798  0.8965 -1.0834
19055SOL    HW263002   1.352   0.854   9.421  0.0549  0.3653  0.5404
19056SOL     OW63003   0.918   0.772   5.235 -0.0937 -0.2614 -0.2368
19056SOL    HW163004   0.858   0.762   5.161  0.4058  0.4350 -0.7483
19056SOL    HW263005   0.993   0.819   5.198 -0.4428  1.3582  1.0406
19057SOL     OW63006   6.211   0.829   2.769 -0.1350  0.2063  0.1370
19057SOL    HW163007   6.190   0.851   2.678 -0.8004 -1.9610 -0.2854
19057SOL    HW263008   6.295   0.784   2.765 -1.7454 -3.1128 -0.0015
19058SOL     OW63009   3.700   6.840   8.781 -0.8537 -0.1331  0.0459
19058SOL    HW163010   3.764   6.797   8.837 -1.6127 -0.2355  0.8471
19058SOL    HW263011   3.752   6.898   8.725  0.1998 -1.9534 -0.9703
19059SOL     OW63012   4.486   4.472   9.969  0.4019  0.1948  0.2016
19059SOL    HW163013   4.461   4.389  10.010 -0.4524  0.0316 -0.5948
19059SOL    HW263014   4.414   4.532   9.991  0.3465  0.3347 -0.3420
19060SOL     OW63015   5.525   5.556   6.398  0.0163  0.3254 -0.3384
19060SOL    HW163016   5.436   5.586   6.418 -0.4310  0.5447 -2.4557
19060SOL    HW263017   5.582   5.618   6.443 -0.8731  0.4970  0.6089
19061SOL     OW63018   1.977   7.530  10.783  0.0926  0.5547 -0.0520
19061SOL    HW163019   1.998   7.490  10.867 -1.7586  1.1310  0.7375
19061SOL    HW263020   1.986   7.459  10.719 -2.7976 -1.1450  1.2624
19062SOL     OW63021   1.345   6.137   0.239  0.3004  0.1449  0.0659
19062SOL    HW163022   1.312   6.055   0.202  1.5232 -1.1794  1.7501
19062SOL    HW263023   1.431   6.149   0.199  0.5372  0.0760  0.5468
19063SOL     OW63024   4.273   0.460  10.477 -0.4014  0.7083  0.0927
19063SOL    HW163025   4.253   0.454  10.570 -0.6381 -0.0817 -0.0034
19063SOL    HW263026   4.217   0.531  10.445 -1.9129 -0.4186  0.1444
19064SOL     OW63027   5.620  10.079   8.173  0.2471  0.0047  0.2507
19064SOL    HW163028   5.575  10.117   8.248 -0.1598  0.3997 -0.1965
19064SOL    HW263029   5.692  10.028   8.212 -0.5003 -0.5340  0.9571
19065SOL     OW63030   0.548   6.726   0.419  0.3023 -0.4162 -0.4750
19065SOL    HW163031   0.642   6.713   0.433  0.7522  0.9452 -1.9350
19065SOL    HW263032   0.539   6.733   0.324 -1.0109  1.2874 -0.2783
19066SOL     OW63033   6.841   9.133   4.932  0.3651  0.3211 -0.2555
19066SOL    HW163034   6.799   9.059   4.976 -1.9624 -0.2611 -3.1027
19066SOL    HW263035   6.935   9.114   4.938 -0.0476 -1.6253  1.1097
19067SOL     OW63036   7.538   3.048   9.317  0.0811 -0.3525  0.8064
19067SOL    HW163037   7.541   3.116   9.250  1.3563 -0.6790  0.5104
19067SOL    HW263038   7.532   2.966   9.269  1.6448 -0.6330  1.0290
19068SOL     OW63039   5.991   3.464   4.430  0.0648  0.4339 -0.3397
19068SOL    HW163040   5.939   3.466   4.510 -1.4847  1.0171 -1.3019
19068SOL    HW263041   5.934   3.422   4.365  0.8140  1.0492 -1.4398
19069SOL     OW63042   2.681   9.428   8.337  0.0872 -0.1123 -0.2254
19069SOL    HW163043   2.700   9.403   8.428 -1.0680 -0.1201  0.0343
19069SOL    HW263044   2.685   9.524   8.337 -1.7978  0.0182  0.3301
19070SOL     OW63045   9.129   2.177   5.378  0.1333 -0.2111  0.6705
19070SOL    HW163046   9.042   2.139   5.364  0.5979 -1.2072  0.3321
19070SOL    HW263047   9.171   2.118   5.441 -0.0187  1.2130  2.1599
19071SOL     OW63048   1.444   7.826  10.750 -0.1145  0.3288 -0.4220
19071SOL    HW163049   1.456   7.747  10.697 -1.0326  1.1513 -1.9443
19071SOL    HW263050   1.514   7.885  10.721  0.0152  0.4107  0.0502
19072SOL     OW63051   5.731   5.204   8.053 -0.3265  0.2034  0.2489
19072SOL    HW163052   5.747   5.252   8.134 -1.5387 -0.1171  0.7083
19072SOL    HW263053   5.659   5.251   8.011 -1.3975 -1.0313  0.6107
19073SOL     OW63054   6.089   5.615   3.164  0.3624  0.3937  1.2108
19073SOL    HW163055   5.995   5.633   3.163  0.1566 -0.3946 -1.2554
19073SOL    HW263056   6.120   5.647   3.079  1.4795 -3.1842  0.0809
19074SOL     OW63057   5.093   7.489   7.222  0.3816 -0.2382  0.7220
19074SOL    HW163058   5.019   7.536   7.260 -0.3369 -1.6123  1.1140
19074SOL    HW263059   5.168   7.514   7.276 -0.2143 -0.4468  1.6789
19075SOL     OW63060   5.245   3.451   9.564 -0.3957  0.1127  0.3554
19075SOL    HW163061   5.236   3.545   9.577 -2.5600 -0.0681  0.5212
19075SOL    HW263062   5.158   3.422   9.536  0.5925 -1.6155 -1.2021
19076SOL     OW63063   1.182   7.395   8.855  0.2087 -0.2454 -0.5945
19076SOL    HW163064   1.127   7.317   8.859  0.3763 -0.3022  1.2486
19076SOL    HW263065   1.219   7.394   8.766  0.3459 -2.3536 -0.5529
19077SOL     OW63066   1.956   2.249   3.030 -0.4823  0.5554  0.2379
19077SOL    HW163067   1.963   2.324   2.971  0.3603  2.5321  2.6958
19077SOL    HW263068   1.889   2.273   3.093 -2.1481 -1.9701 -0.4238
19078SOL     OW63069   4.031   3.725   6.685  0.3619 -0.0949 -0.0385
19078SOL    HW163070   4.062   3.752   6.771  0.9414 -1.0961  0.0748
19078SOL    HW263071   4.008   3.808   6.641 -1.7086  0.3559  1.7019
19079SOL     OW63072   7.827   1.619  10.205  0.0646  0.5226  0.3794
19079SOL    HW163073   7.763   1.564  10.160  1.0148 -2.5873  2.4875
19079SOL    HW263074   7.775   1.678  10.259 -1.0045  0.5546 -0.6509
19080SOL     OW63075  10.682   0.177   8.226 -0.6149  0.0959 -0.3559
19080SOL    HW163076  10.613   0.186   8.160 -0.8066  3.3846  0.1369
19080SOL    HW263077  10.741   0.251   8.209  1.0220 -0.7748  1.2536
19081SOL     OW63078  10.226   6.975   8.258 -0.0947 -0.3484 -0.1491
19081SOL    HW163079  10.314   6.939   8.257 -0.3530 -0.9950 -0.9875
19081SOL    HW263080  10.187   6.946   8.175 -0.8502  0.5376 -0.1278
19082SOL     OW63081   3.569   0.683   9.525  0.3088  0.4693 -0.5404
19082SOL    HW163082   3.638   0.727   9.574 -0.6849  1.8547 -0.3493
19082SOL    HW263083   3.488   0.725   9.554 -0.4791 -0.0793 -1.8753
19083SOL     OW63084   6.512   4.887   7.795  0.0799 -0.3526 -0.3614
19083SOL    HW163085   6.515   4.909   7.889  0.5531 -1.8466 -0.0024
19083SOL    HW263086   6.595   4.920   7.761  0.1966 -0.3780 -0.1112
19084SOL     OW63087   0.839   5.321   0.020  0.9921  0.3574 -0.2703
19084SOL    HW163088   0.930   5.325  -0.009  1.1458 -0.3139  0.0893
19084SOL    HW263089   0.821   5.227   0.027  0.4232  0.4936  0.1335
19085SOL     OW63090   2.129   5.003   6.816  0.1172  0.4235  0.1826
19085SOL    HW163091   2.114   4.936   6.882 -0.2681  0.6467  0.3285
19085SOL    HW263092   2.181   5.070   6.861  0.8290  0.0505 -0.0732
19086SOL     OW63093   4.941   5.024   1.842 -0.3727  0.3885 -0.2064
19086SOL    HW163094   5.010   5.087   1.823  0.0915  0.0331  0.2708
19086SOL    HW263095   4.881   5.071   1.899 -0.7406  0.8258 -0.9370
19087SOL     OW63096   0.481   4.099   6.392  0.2947  0.6589  0.0668
19087SOL    HW163097   0.547   4.061   6.450 -0.4053 -1.7886 -0.5996
19087SOL    HW263098   0.459   4.183   6.432  2.1427  0.5146  1.5354
19088SOL     OW63099   1.313   7.988   3.996 -0.1083  0.1279 -0.1067
19088SOL    HW163100   1.356   7.951   3.919 -2.6915  1.1206 -2.1681
19088SOL    HW263101   1.374   8.055   4.028  1.3945 -0.8900 -0.7006
19089SOL     OW63102   4.098   5.895   1.593  0.3167  0.3006  0.3054
19089SOL    HW163103   4.186   5.925   1.572 -0.2334  1.3267 -0.6510
19089SOL    HW263104   4.056   5.970   1.635 -0.4088  0.1633 -0.1506
19090SOL     OW63105   3.917   4.473   9.202  0.1743  0.2656  0.0008
19090SOL    HW163106   3.930   4.443   9.112  0.6280  1.2758 -0.2802
19090SOL    HW263107   3.840   4.530   9.198  0.8665  1.2223  0.0253
19091SOL     OW63108   0.818   5.487   5.065 -0.3929 -0.4607  0.1191
19091SOL    HW163109   0.825   5.404   5.111 -0.5564 -2.5016 -3.1851
19091SOL    HW263110   0.891   5.486   5.003 -0.8110  1.5499 -0.4903
19092SOL     OW63111   5.568   5.840   2.014 -0.1745  0.4433  0.0311
19092SOL    HW163112   5.635   5.787   1.971 -0.3052  0.3136 -0.0134
19092SOL    HW263113   5.489   5.824   1.963 -0.1853  0.7830 -0.0581
19093SOL     OW63114   0.582   7.458   4.911  0.4470 -0.2576  0.1835
19093SOL    HW163115   0.650   7.525   4.916  1.2012 -1.0694  1.2127
19093SOL    HW263116   0.623   7.379   4.947 -1.1276 -0.6972  1.1130
19094SOL     OW63117   8.444   1.650   8.045  0.1761  0.5845  0.1704
19094SOL    HW163118   8.463   1.724   7.987  0.5641  1.3746  1.2565
19094SOL    HW263119   8.529   1.627   8.083  0.1448 -0.7801 -0.5406
19095SOL     OW63120   5.567  10.290   5.452  0.0790 -0.4834  0.4361
19095SOL    HW163121   5.653  10.311   5.488  2.1291 -1.9031 -3.1055
19095SOL    HW263122   5.577  10.203   5.414 -1.8801  0.6036 -2.9729
19096SOL     OW63123   2.551   2.284   2.694  0.1679 -0.1311  0.0701
19096SOL    HW163124   2.509   2.366   2.720 -1.1456 -1.2860  1.7669
19096SOL    HW263125   2.480   2.231   2.659  0.5612 -1.3709  1.0922
19097SOL     OW63126   3.249  10.842   5.601 -0.1199 -0.1936 -0.0564
19097SOL    HW163127   3.262  10.757   5.559 -0.7979 -0.7641  0.8536
19097SOL    HW263128   3.329  10.855   5.652 -0.5960 -0.9764  0.9352
19098SOL     OW63129   1.506   5.676   0.133 -0.6318  0.2578  0.1683
19098SOL    HW163130   1.444   5.690   0.061 -0.7496 -1.0380 -0.0034
19098SOL    HW263131   1.485   5.745   0.197 -0.9774  0.9966 -0.7180
19099SOL     OW63132   1.243   1.494   3.372 -0.0224 -0.5221  0.3297
19099SOL    HW163133   1.320   1.442   3.392 -0.3383 -0.5483  1.5427
19099SOL    HW263134   1.273   1.557   3.306  0.5494 -1.7197 -0.5849
19100SOL     OW63135   3.490   8.712   9.442 -0.0641 -0.5211  0.3724
19100SOL    HW163136   3.496   8.781   9.509  1.6111  1.1572 -1.3777
19100SOL    HW263137   3.428   8.748   9.378 -0.1346 -1.2234  0.0440
19101SOL     OW63138   3.948  10.015   3.771  0.0294  0.1580  0.5981
19101SOL    HW163139   4.024  10.030   3.716  0.3878  0.2102  1.1047
19101SOL    HW263140   3.874  10.020   3.710  0.5217 -1.5034 -0.1905
19102SOL     OW63141   9.601   6.747   7.519  0.7226 -0.6648  0.4094
19102SOL    HW163142   9.696   6.733   7.517  0.7992 -0.1607  0.4012
19102SOL    HW263143   9.564   6.662   7.498  1.1535 -1.1504  1.5199
19103SOL     OW63144  10.879   6.227   8.591 -0.1889 -0.5393  0.9943
19103SOL    HW163145  10.785   6.216   8.577 -0.0078 -1.3915  0.4016
19103SOL    HW263146  10.902   6.157   8.653 -0.0390  0.0247  1.5943
19104SOL     OW63147   0.497   2.984   1.083  0.7790  0.0250  0.5781
19104SOL    HW163148   0.430   3.014   1.022 -0.5837 -1.3718  1.2989
19104SOL    HW263149   0.558   3.057   1.090 -0.1853  1.0150 -0.7909
19105SOL     OW63150   1.585   4.711   5.161 -0.3315  0.3526  0.3040
19105SOL    HW163151   1.622   4.797   5.180  1.1375  0.0379 -0.9647
19105SOL    HW263152   1.502   4.730   5.116  0.4417  1.1414 -0.8388
19106SOL     OW63153   8.499   5.324  10.103  0.4088  0.0503 -0.5059
19106SOL    HW163154   8.592   5.344  10.092 -0.0415  1.5439 -1.9165
19106SOL    HW263155   8.471   5.292  10.017 -0.2124 -1.2737  0.1523
19107SOL     OW63156   1.820   8.504   9.308 -0.0775  0.1648 -0.6090
19107SOL    HW163157   1.901   8.485   9.261 -1.6874  0.9891 -4.0352
19107SOL    HW263158   1.756   8.443   9.272 -1.3673  0.5983  0.8326
19108SOL     OW63159   7.425   1.009   3.706 -0.4146  0.6551  0.5171
19108SOL    HW163160   7.444   1.048   3.792  0.4325 -0.5228  0.8809
19108SOL    HW263161   7.511   0.990   3.669 -0.7682  1.3823 -0.7196
19109SOL     OW63162   9.448   1.642   0.732 -0.1750 -0.3146 -0.3771
19109SOL    HW163163   9.472   1.608   0.646 -1.8467  0.0565 -1.0272
19109SOL    HW263164   9.352   1.643   0.732 -0.2072  0.4002  1.2128
19110SOL     OW63165   4.499   0.134   7.722  0.2153  0.0519  0.2349
19110SOL    HW163166   4.515   0.114   7.814 -1.4429 -1.1069  0.3129
19110SOL    HW263167   4.506   0.230   7.716  0.7887  0.0974  1.4486
19111SOL     OW63168   2.324   2.638   9.299 -0.0071 -0.1087  0.0774
19111SOL    HW163169   2.253   2.647   9.362 -1.0974 -0.7358 -1.0088
19111SOL    HW263170   2.292   2.683   9.220  0.5855 -0.8104 -0.5878
19112SOL     OW63171   3.074   5.098   3.731 -0.0768 -0.3217  0.0581
19112SOL    HW163172   3.080   5.072   3.823 -0.8880 -1.0261 -0.0756
19112SOL    HW263173   3.163   5.085   3.697  0.1458 -0.3909  0.6579
19113SOL     OW63174   9.257   2.931   6.318  0.8443 -0.4343 -0.7123
19113SOL    HW163175   9.200   2.949   6.244 -1.2438 -2.0484  0.3721
19113SOL    HW263176   9.265   3.015   6.364 -0.1472 -0.0429 -1.2415
19114SOL     OW63177   4.345   2.270   5.676 -0.3635  0.1091 -0.0984
19114SOL    HW163178   4.389   2.208   5.618 -2.0681  0.2744 -1.6632
19114SOL    HW263179   4.290   2.215   5.733  1.4338 -0.0655  1.5627
19115SOL     OW63180   3.493  10.381   5.587  0.1325  0.5027  0.2291
19115SOL    HW163181   3.458  10.333   5.661 -1.6234  2.7037  0.9164
19115SOL    HW263182   3.565  10.433   5.623  0.9310 -0.2882 -0.1722
19116SOL     OW63183   9.732   4.091   6.404  0.3684  0.2742  0.7591
19116SOL    HW163184   9.809   4.105   6.459  1.7701 -0.9551 -0.7667
19116SOL    HW263185   9.704   4.179   6.378 -1.4251  1.0618  4.6604
19117SOL     OW63186   5.345  10.416   8.023 -0.3747 -0.4456  0.2552
19117SOL    HW163187   5.357  10.374   7.938 -0.1797  0.6756 -0.2844
19117SOL    HW263188   5.357  10.509   8.006  1.2492 -0.3229  1.8050
19118SOL     OW63189   8.929   2.084   5.987 -0.3920 -0.0063 -0.1098
19118SOL    HW163190   8.983   2.145   5.937 -0.9596  0.0090 -0.7096
19118SOL    HW263191   8.970   1.999   5.973  0.6920  0.2767  1.1249
19119SOL     OW63192   9.800   8.001   2.559 -0.7404 -0.2294  0.6719
19119SOL    HW163193   9.720   7.988   2.507  0.9003 -0.1645 -2.0842
19119SOL    HW263194   9.856   7.927   2.535  0.4311  0.2843  1.7483
19120SOL     OW63195   1.918   1.464   2.694  0.4351  0.0392  0.4756
19120SOL    HW163196   1.898   1.557   2.684 -0.2977 -0.0638  0.9416
19120SOL    HW263197   1.986   1.462   2.762  0.3121  0.2252  0.6066
19121SOL     OW63198   9.129   1.953  10.105  0.0487  0.0810  0.0483
19121SOL    HW163199   9.064   2.013  10.142  0.0855  0.0404  0.1796
19121SOL    HW263200   9.134   1.977  10.012 -0.2344  0.0106  0.0134
19122SOL     OW63201   3.845   2.170   6.099  0.4673  0.2112  0.0491
19122SOL    HW163202   3.832   2.250   6.151  0.7876 -0.2132  0.8005
19122SOL    HW263203   3.900   2.198   6.026 -2.7862  1.5962 -2.0733
19123SOL     OW63204   5.308   2.551   3.641 -0.0079  0.7276  0.5213
19123SOL    HW163205   5.284   2.626   3.696 -0.0995  0.3560  0.9921
19123SOL    HW263206   5.396   2.527   3.670  0.6309  1.5594 -0.6328
19124SOL     OW63207   9.643   2.195   5.493  0.2300  0.0295  0.4490
19124SOL    HW163208   9.733   2.186   5.526 -0.6182  0.3915  3.0580
19124SOL    HW263209   9.593   2.130   5.542 -1.0089 -0.0456 -0.8518
19125SOL     OW63210   3.209   9.421   1.010  0.1386 -0.0315  0.0980
19125SOL    HW163211   3.273   9.418   1.081 -0.8137 -0.3165  0.9677
19125SOL    HW263212   3.130   9.383   1.047 -0.6063  0.4997 -0.8917
19126SOL     OW63213   7.367  10.412   5.730 -0.0760  0.3522  0.0433
19126SOL    HW163214   7.302  10.478   5.707 -1.3254 -0.2734  1.6163
19126SOL    HW263215   7.422  10.454   5.796  0.1055  0.3306 -0.0923
19127SOL     OW63216   1.387   0.378  10.070 -0.0939 -0.4867  0.1531
19127SOL    HW163217   1.447   0.362   9.996  0.2514 -0.2153  0.3691
19127SOL    HW263218   1.330   0.448  10.039  0.7344  0.3721  0.5150
19128SOL     OW63219  10.540   9.865   9.202  0.0172  0.1946 -0.0670
19128SOL    HW163220  10.590   9.937   9.240  0.4427 -0.7414  1.1928
19128SOL    HW263221  10.597   9.829   9.134  0.0842  0.5868 -0.2232
19129SOL     OW63222   6.323   0.525   8.107  0.3297 -0.0519  0.2075
19129SOL    HW163223   6.366   0.492   8.028  0.4043 -0.1381  0.2851
19129SOL    HW263224   6.247   0.468   8.118  0.2029  0.0901  0.0795
19130SOL     OW63225   9.415   4.361  10.520  0.5488  0.2260  0.2028
19130SOL    HW163226   9.334   4.409  10.503  0.3402 -0.1624  0.1016
19130SOL    HW263227   9.393   4.299  10.588  0.8478  0.3394  0.4067
19131SOL     OW63228   7.922   0.590   3.440  0.1278  0.0407 -0.2267
19131SOL    HW163229   8.011   0.569   3.467  0.1186 -0.2585 -0.4281
19131SOL    HW263230   7.929   0.610   3.347  0.1905  1.2544  0.0197
19132SOL     OW63231   1.761   4.167   9.718 -0.4002 -0.0562  0.0839
19132SOL    HW163232   1.806   4.135   9.797  0.7762  1.9861  0.3279
19132SOL    HW263233   1.822   4.232   9.681 -1.7517  0.3854 -1.4604
19133SOL     OW63234   5.885   2.893   6.480 -0.3719  0.0612 -0.0748
19133SOL    HW163235   5.967   2.845   6.472 -0.5076 -0.4256  1.1926
19133SOL    HW263236   5.873   2.934   6.394  1.6903  0.9844  0.0188
19134SOL     OW63237   9.919   2.131   7.315 -0.1770  0.6665  0.6867
19134SOL    HW163238   9.981   2.089   7.255 -1.2797 -0.8496  0.5643
19134SOL    HW263239   9.948   2.222   7.319  0.7995  0.4684 -1.0014
19135SOL     OW63240   7.785   2.471   1.903 -0.1733 -0.4304  0.4348
19135SOL    HW163241   7.718   2.537   1.882 -0.4251 -0.7419  0.2391
19135SOL    HW263242   7.751   2.427   1.981  0.6252  0.5347  1.3513
19136SOL     OW63243   2.463  10.104   9.341 -0.9112  0.1811  0.1899
19136SOL    HW163244   2.390  10.056   9.381 -0.8360 -0.2882 -0.2406
19136SOL    HW263245   2.537  10.045   9.347 -1.0101 -0.0903 -1.0845
19137SOL     OW63246   2.104   2.388   6.434 -0.3296  0.9918  0.0621
19137SOL    HW163247   2.052   2.459   6.471  0.2263  0.4229  2.0173
19137SOL    HW263248   2.159   2.430   6.368 -2.0755  1.8581 -0.9062
19138SOL     OW63249   0.770   1.598   0.254 -0.1722  0.0482  0.2826
19138SOL    HW163250   0.852   1.644   0.241 -0.6285  1.3390  1.6454
19138SOL    HW263251   0.713   1.629   0.183 -0.5011  1.7227  1.2316
19139SOL     OW63252   1.884   6.916   3.569  0.2805 -0.1497  0.1907
19139SOL    HW163253   1.956   6.902   3.507  0.4295  0.4480  0.2272
19139SOL    HW263254   1.808   6.878   3.525  0.2671  0.7850 -0.6273
19140SOL     OW63255   4.496   5.249   4.825  0.1668 -0.1599  0.2230
19140SOL    HW163256   4.498   5.194   4.903  0.9400 -1.3257 -0.5709
19140SOL    HW263257   4.404   5.268   4.811 -0.1197 -1.2354  0.5655
19141SOL     OW63258   1.377   3.967   8.153  0.4523  0.5401 -0.4181
19141SOL    HW163259   1.345   4.013   8.231  0.1695 -2.2859  1.2821
19141SOL    HW263260   1.323   4.000   8.082 -1.0440  1.4282  1.0425
19142SOL     OW63261   5.758   5.092  10.092  0.0873  0.2848 -1.0044
19142SOL    HW163262   5.802   5.177  10.083 -0.3642  0.4018 -2.4043
19142SOL    HW263263   5.669   5.114  10.120  0.3529  0.1785 -0.0662
19143SOL     OW63264   4.813   3.368   7.214  0.3165 -0.1946 -0.0926
19143SOL    HW163265   4.833   3.352   7.306 -1.1023 -1.1048  0.0801
19143SOL    HW263266   4.845   3.457   7.198  0.8660 -0.1389  1.1866
19144SOL     OW63267   7.330   6.041  10.698 -0.2380  0.5401  0.3556
19144SOL    HW163268   7.274   6.114  10.725 -0.5121  0.5263 -0.1587
19144SOL    HW263269   7.273   5.987  10.643  0.7417  1.4461 -1.6693
19145SOL     OW63270  10.583   8.118  10.806 -0.0374 -0.3469 -0.5996
19145SOL    HW163271  10.557   8.153  10.891  0.4886 -1.1789 -0.0803
19145SOL    HW263272  10.667   8.160  10.787 -0.5956  0.5490 -1.1654
19146SOL     OW63273   6.643   2.000   2.045  0.3794 -0.3449 -0.1969
19146SOL    HW163274   6.699   1.922   2.039  0.8863 -0.2630  2.2833
19146SOL    HW263275   6.580   1.990   1.974  0.2241 -3.1845  0.2205
19147SOL     OW63276   1.908   5.395   3.606 -0.4915 -0.4103 -0.2112
19147SOL    HW163277   1.814   5.379   3.619 -0.8286  1.8148  0.4852
19147SOL    HW263278   1.948   5.309   3.616 -2.2470 -1.1052  1.5651
19148SOL     OW63279   1.525   7.950   9.823  0.5733 -0.1977  0.1329
19148SOL    HW163280   1.527   7.855   9.823  0.1285 -0.2071 -0.2412
19148SOL    HW263281   1.556   7.976   9.736 -1.4241 -0.0624 -0.5920
19149SOL     OW63282   1.668   1.428   3.985 -0.8362  0.7652 -0.1088
19149SOL    HW163283   1.576   1.401   3.974 -0.4649 -1.0488  0.7670
19149SOL    HW263284   1.673   1.459   4.075 -0.4160 -0.0158  0.1470
19150SOL     OW63285  10.555   8.306   7.134  0.0316  0.3381  0.2632
19150SOL    HW163286  10.575   8.212   7.135  0.2257  0.3624  2.6929
19150SOL    HW263287  10.476   8.314   7.188  0.4482  1.6537  0.7025
19151SOL     OW63288   5.950   6.274   6.293 -0.1819  0.1505 -0.2159
19151SOL    HW163289   6.015   6.316   6.237  0.2196 -1.4349 -0.9826
19151SOL    HW263290   5.869   6.277   6.243  0.0312 -0.6928 -0.6197
19152SOL     OW63291   2.263  10.284   2.911 -0.4666  0.7808  0.2684
19152SOL    HW163292   2.187  10.241   2.871  0.9995 -0.9723 -0.8258
19152SOL    HW263293   2.279  10.361   2.856 -1.3167  1.0509  0.3939
19153SOL     OW63294   2.605   7.075   5.724 -0.4015  0.1757  0.6306
19153SOL    HW163295   2.647   7.146   5.676  1.2551 -1.5145 -0.5554
19153SOL    HW263296   2.526   7.055   5.674  0.9430 -1.0945 -1.1201
19154SOL     OW63297   1.850   5.540   7.716 -0.8471 -0.5126  0.7030
19154SOL    HW163298   1.827   5.526   7.624 -1.8843 -1.3851  1.0797
19154SOL    HW263299   1.766   5.546   7.761 -0.3437 -0.5302  1.6663
19155SOL     OW63300   1.964   8.955   8.257  0.4966  0.2238 -0.2212
19155SOL    HW163301   2.035   8.962   8.322  0.8232  1.7753 -0.7148
19155SOL    HW263302   1.982   9.024   8.194 -0.2237 -0.7927 -1.6067
19156SOL     OW63303   3.164   6.627   4.496 -0.5077  0.2722 -0.1569
19156SOL    HW163304   3.222   6.596   4.426  0.0291 -4.3014  1.9960
19156SOL    HW263305   3.223   6.658   4.564 -0.7335 -0.4687  0.3897
19157SOL     OW63306   2.604   2.178   2.433 -0.0743 -0.2220 -0.2557
19157SOL    HW163307   2.614   2.179   2.528  0.7159  1.8639 -0.3040
19157SOL    HW263308   2.648   2.258   2.404 -1.8081  0.0909 -2.2177
19158SOL     OW63309   0.551   5.475  10.391  0.1160 -0.4132 -0.0191
19158SOL    HW163310   0.640   5.498  10.417 -0.1109  0.1911  0.2347
19158SOL    HW263311   0.496   5.512  10.460 -0.4918  1.2486 -1.3197
19159SOL     OW63312   6.607   6.628   6.741  0.5367  0.4823  0.4135
19159SOL    HW163313   6.622   6.542   6.700 -0.4634  1.3233 -1.8869
19159SOL    HW263314   6.620   6.612   6.835  2.5470 -1.6800 -0.1148
19160SOL     OW63315  10.088  10.223   4.415  0.0953  0.6548  0.1480
19160SOL    HW163316  10.047  10.306   4.438  0.0816  0.5132  0.6272
19160SOL    HW263317  10.129  10.192   4.495 -1.1306 -0.5126  0.3621
19161SOL     OW63318   9.286   1.854   6.190 -0.0235 -0.2324  0.3254
19161SOL    HW163319   9.282   1.947   6.214  0.8647 -0.6527  2.3340
19161SOL    HW263320   9.196   1.831   6.169 -0.4415  0.8419  0.8440
19162SOL     OW63321   9.989   5.369   0.709 -0.0853 -0.5813  0.5082
19162SOL    HW163322  10.022   5.410   0.629 -0.7277 -0.2829  0.3925
19162SOL    HW263323   9.894   5.373   0.701 -0.2104  0.8858  1.9835
19163SOL     OW63324   5.660   7.093   6.613 -0.0902 -0.4773 -0.0779
19163SOL    HW163325   5.627   7.174   6.653 -0.8379  0.7530 -2.9281
19163SOL    HW263326   5.739   7.119   6.567  0.4780 -1.7197  0.1457
19164SOL     OW63327   9.327   9.546   8.010 -0.1906 -0.0989  0.4045
19164SOL    HW163328   9.291   9.525   7.924 -0.4900  1.2798  0.1678
19164SOL    HW263329   9.266   9.610   8.047  0.8285  0.6021  0.9367
19165SOL     OW63330   7.100   2.034   9.646 -0.5171  0.1618  1.3408
19165SOL    HW163331   7.040   2.079   9.705 -0.4889 -1.3977  2.6216
19165SOL    HW263332   7.070   2.059   9.558 -1.9197  0.8059  1.9712
19166SOL     OW63333   5.849  10.547   7.446  0.2129 -0.0577 -0.2263
19166SOL    HW163334   5.785  10.608   7.410  0.3818 -0.2907 -0.9537
19166SOL    HW263335   5.878  10.587   7.528 -1.2349 -0.1997  0.3770
19167SOL     OW63336  10.043   2.238   4.376 -0.4262 -0.1836  0.3437
19167SOL    HW163337  10.094   2.245   4.457  0.2459 -1.0032  0.0164
19167SOL    HW263338   9.971   2.300   4.387  0.1599  0.3712  1.1880
19168SOL     OW63339   3.868   2.360   1.823  0.2334  0.0013  0.7587
19168SOL    HW163340   3.915   2.398   1.749 -1.2237  0.9403  0.2866
19168SOL    HW263341   3.858   2.433   1.885 -0.8418 -0.1017  0.7185
19169SOL     OW63342   1.770   2.500   7.509 -0.3026  0.5693 -0.3667
19169SOL    HW163343   1.851   2.510   7.560 -0.6195 -0.4741  0.3632
19169SOL    HW263344   1.790   2.432   7.445 -0.5836  0.3735 -0.2453
19170SOL     OW63345   6.352   1.449   5.187  0.4425 -0.1849  0.1468
19170SOL    HW163346   6.385   1.430   5.099 -0.5541  0.5753 -0.4217
19170SOL    HW263347   6.263   1.481   5.172  0.8533  1.6434  1.2640
19171SOL     OW63348  10.273   6.898   6.717  0.4838 -0.3318  0.5023
19171SOL    HW163349  10.273   6.803   6.702 -0.8048 -0.5221  1.5382
19171SOL    HW263350  10.213   6.932   6.651  0.9850 -0.2132  0.0974
19172SOL     OW63351   8.289   7.468   9.313 -0.2239 -0.7661  0.3481
19172SOL    HW163352   8.364   7.442   9.366 -0.3888 -0.1806  0.8741
19172SOL    HW263353   8.243   7.385   9.296 -1.4728 -0.7730  3.1233
19173SOL     OW63354   2.324   9.628   6.524  0.1087 -0.6156 -0.0990
19173SOL    HW163355   2.260   9.622   6.595 -0.7420  0.5046 -0.7417
19173SOL    HW263356   2.312   9.546   6.475 -0.2614 -0.7806  0.2577
19174SOL     OW63357  10.307   5.534   4.501  0.0328  0.6092  0.0171
19174SOL    HW163358  10.228   5.513   4.551  1.4439 -1.5648  1.4772
19174SOL    HW263359  10.278   5.534   4.410 -1.5296 -0.7568  0.4665
19175SOL     OW63360   8.842   1.231   4.177 -0.3716  0.5297 -0.4640
19175SOL    HW163361   8.913   1.295   4.176  0.3177 -0.1837 -2.3608
19175SOL    HW263362   8.861   1.174   4.251  0.0841  1.3528  0.0623
19176SOL     OW63363   9.347   5.560   0.556  0.2411 -0.3335 -0.2327
19176SOL    HW163364   9.435   5.556   0.593 -0.0736  0.8262  0.6933
19176SOL    HW263365   9.344   5.488   0.493  2.2049  0.2548 -1.0667
19177SOL     OW63366   3.063   3.061   7.791  0.2337  0.3692 -0.2277
19177SOL    HW163367   3.078   3.089   7.701  1.6347 -3.4771 -1.4265
19177SOL    HW263368   3.151   3.048   7.827 -0.2681 -1.2308  0.5180
19178SOL     OW63369   9.265   3.796   4.174  0.1242 -0.6042  0.2434
19178SOL    HW163370   9.282   3.835   4.260  0.6821  0.0802 -0.1650
19178SOL    HW263371   9.287   3.704   4.185 -1.0905 -0.8108  1.1899
19179SOL     OW63372   5.052  10.372   6.670 -0.3330 -0.8123  0.3406
19179SOL    HW163373   5.050  10.359   6.764  0.9368  1.1140  0.6879
19179SOL    HW263374   5.009  10.456   6.655 -4.4736 -2.9352 -1.3491
19180SOL     OW63375   4.953   8.583   3.284  0.2295  0.0392  0.4023
19180SOL    HW163376   4.922   8.495   3.264  1.0238 -0.2147  0.2599
19180SOL    HW263377   5.022   8.570   3.349  2.1719  0.3159 -1.5227
19181SOL     OW63378   6.251   9.953   5.418 -0.2346 -0.3094  0.7075
19181SOL    HW163379   6.234  10.031   5.365 -1.1941 -0.5242  0.6672
19181SOL    HW263380   6.226   9.977   5.507  2.0337  0.2689  1.2333
19182SOL     OW63381   1.778  10.807   9.826  0.5257  0.2906  0.9798
19182SOL    HW163382   1.737  10.887   9.860 -0.1916  0.2626  0.2393
19182SOL    HW263383   1.736  10.794   9.740 -0.4418 -1.6768  1.6950
19183SOL     OW63384   4.794   3.624   8.976 -0.6716 -0.0993  0.0377
19183SOL    HW163385   4.765   3.540   9.011 -1.5381  0.3248  0.3856
19183SOL    HW263386   4.726   3.686   9.004 -0.3722  0.6008 -0.7463
19184SOL     OW63387   8.926   5.112   3.829  0.0932 -0.5649 -0.5444
19184SOL    HW163388   9.019   5.097   3.846 -0.4292 -1.1641  2.4854
19184SOL    HW263389   8.898   5.036   3.777  1.0592 -0.9995 -0.4505
19185SOL     OW63390   1.534   7.245   0.839 -0.0698  0.1363  0.2551
19185SOL    HW163391   1.485   7.196   0.906 -2.1857  1.9991  0.1570
19185SOL    HW263392   1.524   7.337   0.864  1.7291  0.7128 -0.9434
19186SOL     OW63393   9.051   5.589   7.958 -0.3347  0.2779 -0.1951
19186SOL    HW163394   9.132   5.613   8.003 -0.2170 -0.3996 -0.0427
19186SOL    HW263395   9.040   5.496   7.976 -1.3511  0.4453  0.1014
19187SOL     OW63396   3.874   5.054   4.713  0.3655  1.0004  0.1950
19187SOL    HW163397   3.801   5.012   4.759  1.3359  0.5795  1.4109
19187SOL    HW263398   3.845   5.145   4.702  0.2366  1.2170  2.0143
19188SOL     OW63399   6.764   5.066  10.614  0.1403 -0.0882 -0.1465
19188SOL    HW163400   6.832   5.043  10.552  0.7529 -1.2668  0.9190
19188SOL    HW263401   6.788   5.152  10.646 -0.2470  0.5831 -1.6001
19189SOL     OW63402   3.722   6.457   6.146 -0.1598  0.0401  0.4988
19189SOL    HW163403   3.784   6.504   6.201  0.2021 -2.0689  2.0261
19189SOL    HW263404   3.764   6.373   6.128 -1.2902 -0.2580 -1.0609
19190SOL     OW63405   2.146   6.926   0.288  0.0795 -0.3448 -0.1819
19190SOL    HW163406   2.180   6.839   0.268  1.2607  0.0993 -0.2350
19190SOL    HW263407   2.052   6.914   0.298 -0.0949 -1.2262 -2.4059
19191SOL     OW63408   1.641   4.931  10.865 -0.0657  0.5804  0.0090
19191SOL    HW163409   1.609   5.010  10.907  0.2288  0.7988 -0.1739
19191SOL    HW263410   1.672   4.960  10.779  0.4073  0.3371  0.0929
19192SOL     OW63411   8.665   1.363   1.116  0.4606  0.3323  0.1844
19192SOL    HW163412   8.755   1.334   1.100  0.1930 -0.1212 -0.5450
19192SOL    HW263413   8.674   1.441   1.170  1.2656 -0.0832  0.6701
19193SOL     OW63414   0.897   4.247   9.368 -0.8747  0.0797 -0.1639
19193SOL    HW163415   0.946   4.218   9.291 -1.1415 -0.0993 -0.2665
19193SOL    HW263416   0.952   4.315   9.407 -0.6765  0.0774 -0.4371
19194SOL     OW63417   7.506   6.035   0.902  0.3008 -0.5645  0.2896
19194SOL    HW163418   7.599   6.018   0.886  0.3517 -0.5133  0.5317
19194SOL    HW263419   7.462   5.958   0.865  0.4277 -0.5310  0.0610
19195SOL     OW63420   3.949   0.255   1.570 -0.0690  0.2094  0.1108
19195SOL    HW163421   3.983   0.182   1.622 -0.5631 -0.2238 -0.1752
19195SOL    HW263422   3.872   0.285   1.618 -0.6426 -0.3212 -0.4840
19196SOL     OW63423   9.526   5.863   8.168 -0.2644  0.3752 -0.3996
19196SOL    HW163424   9.504   5.953   8.192 -1.9433  0.2410 -1.3232
19196SOL    HW263425   9.615   5.870   8.131  0.1082  1.4353  0.6168
19197SOL     OW63426   2.573   0.863   5.326  0.2130 -0.0021  0.1790
19197SOL    HW163427   2.501   0.836   5.268  0.7052  0.7392 -0.8105
19197SOL    HW263428   2.639   0.899   5.266  0.2894  1.8112  1.2782
19198SOL     OW63429   7.888   1.966   6.707  0.2536  0.5925  0.2750
19198SOL    HW163430   7.877   1.872   6.723 -0.4777  0.5777 -0.2645
19198SOL    HW263431   7.971   1.973   6.660  0.4403  0.2449  0.5500
19199SOL     OW63432   1.234   5.340   8.715 -0.3234  0.1761  0.1638
19199SOL    HW163433   1.144   5.308   8.711 -0.7768  1.3753  0.3711
19199SOL    HW263434   1.234   5.402   8.788  0.6865  0.1531  0.1948
19200SOL     OW63435   2.084   2.022   2.941  0.0210  0.0329  0.0986
19200SOL    HW163436   2.000   1.985   2.965  0.4907 -0.6353  0.7510
19200SOL    HW263437   2.077   2.115   2.964 -1.2996  0.4992 -1.9147
19201SOL     OW63438  10.435   0.225   6.652  0.2573 -0.5545 -0.0448
19201SOL    HW163439  10.382   0.295   6.614  0.1252 -0.9050 -0.5162
19201SOL    HW263440  10.524   0.241   6.619 -0.4045 -2.7774 -3.3913
19202SOL     OW63441   2.761   6.498   8.351  0.4908  0.1906  0.1242
19202SOL    HW163442   2.768   6.516   8.258 -0.9641 -1.7918 -0.4485
19202SOL    HW263443   2.676   6.455   8.361  0.0098  1.5101  2.5933
19203SOL     OW63444   0.965   3.278   7.904 -0.2529  0.2514  0.3844
19203SOL    HW163445   0.900   3.331   7.857  1.5862  0.9056 -1.5127
19203SOL    HW263446   1.045   3.286   7.854  1.7320  0.5220  3.3293
19204SOL     OW63447   1.384   3.806   6.449  0.3121 -0.0799 -0.3929
19204SOL    HW163448   1.475   3.814   6.478  0.9727 -0.0352 -2.3191
19204SOL    HW263449   1.353   3.896   6.440 -0.4349 -0.0961  1.6467
19205SOL     OW63450   8.432   9.021   5.819  0.7362 -0.2230  0.5244
19205SOL    HW163451   8.381   9.048   5.743  0.8838 -1.1440  0.0946
19205SOL    HW263452   8.519   9.060   5.805  0.4497  0.5486  0.7932
19206SOL     OW63453   0.045   3.934   6.644 -0.5822  0.0224  0.2050
19206SOL    HW163454  -0.024   3.991   6.678 -0.9497  0.0589 -0.5679
19206SOL    HW263455   0.030   3.934   6.549 -0.3831 -1.0992  0.1647
19207SOL     OW63456   0.096   6.010   7.302 -0.0720 -0.1513 -0.3019
19207SOL    HW163457   0.113   6.074   7.371 -0.8672  0.8325 -0.9961
19207SOL    HW263458   0.131   6.049   7.222 -2.6697  0.5792 -1.1980
19208SOL     OW63459   5.903   6.384   0.244 -0.1809 -1.0135  0.1867
19208SOL    HW163460   5.960   6.455   0.216  0.8008 -1.4770  0.9085
19208SOL    HW263461   5.953   6.304   0.225  0.0866 -1.3859  2.1823
19209SOL     OW63462   2.476   3.593   9.221 -0.8557 -0.2202 -0.5074
19209SOL    HW163463   2.479   3.497   9.222  0.5382 -0.2268  1.7195
19209SOL    HW263464   2.500   3.618   9.310 -0.3528  2.2297 -1.2704
19210SOL     OW63465   8.033   1.804   8.330 -0.4739  0.5954 -0.2368
19210SOL    HW163466   8.065   1.852   8.254  1.8529 -1.0187 -0.3475
19210SOL    HW263467   8.107   1.751   8.359 -1.7624 -0.0106  2.2349
19211SOL     OW63468   8.196   2.089   7.362 -0.1217  0.2260  0.0107
19211SOL    HW163469   8.200   2.029   7.436 -0.0957  1.1247  0.7532
19211SOL    HW263470   8.103   2.110   7.354 -0.2035 -0.3370 -0.6076
19212SOL     OW63471   0.700   5.938   5.879 -0.2749 -0.6202  0.3803
19212SOL    HW163472   0.672   6.026   5.903 -2.1453 -0.5110 -1.8367
19212SOL    HW263473   0.789   5.949   5.848 -1.2558  1.0214 -2.1642
19213SOL     OW63474  10.442   2.467   7.140 -0.2605  0.3048  0.0623
19213SOL    HW163475  10.475   2.391   7.187 -2.8182 -0.5421  0.6544
19213SOL    HW263476  10.518   2.524   7.129  1.3962 -1.6113  1.0018
19214SOL     OW63477   1.396  10.456   0.638  0.5981 -0.1054 -0.4130
19214SOL    HW163478   1.435  10.534   0.678  0.7226 -0.5652  0.3929
19214SOL    HW263479   1.392  10.476   0.545  1.5545  0.4777 -0.3471
19215SOL     OW63480   3.860   1.627   4.175  0.0193  0.6678  0.4164
19215SOL    HW163481   3.840   1.541   4.212  0.4608  0.6265  0.5629
19215SOL    HW263482   3.951   1.621   4.147 -0.2839  0.7391 -0.5952
19216SOL     OW63483   5.707  10.710   3.317  0.1850  0.1759 -0.1426
19216SOL    HW163484   5.750  10.793   3.297  2.3323 -1.1075 -1.1970
19216SOL    HW263485   5.772  10.662   3.368 -0.6057 -1.2890 -0.4868
19217SOL     OW63486  10.760   2.421   0.790 -0.5514  0.2323  0.4175
19217SOL    HW163487  10.731   2.399   0.878  1.1811 -1.2911  0.6576
19217SOL    HW263488  10.764   2.338   0.743  2.8912  0.3269  0.3055
19218SOL     OW63489   3.134   6.843   7.877 -0.0451 -0.6183  0.1928
19218SOL    HW163490   3.160   6.935   7.865  0.5641 -0.4889  2.1698
19218SOL    HW263491   3.152   6.802   7.793 -2.1773  1.4486 -1.4443
19219SOL     OW63492   0.213   7.662   5.942 -0.4916  0.5115  0.7718
19219SOL    HW163493   0.183   7.740   5.988  0.1087  1.2995 -0.1356
19219SOL    HW263494   0.308   7.675   5.931 -0.4488 -0.1531  0.2643
19220SOL     OW63495   5.576   2.359   6.212  0.2840  0.1595 -0.0365
19220SOL    HW163496   5.565   2.374   6.118  0.9133  1.1134  0.0361
19220SOL    HW263497   5.535   2.435   6.254  0.5447  0.0404  0.4430
19221SOL     OW63498   7.009   4.843   0.051 -1.1082 -1.0306  0.4211
19221SOL    HW163499   7.022   4.920   0.106 -2.2967 -1.3454  1.1869
19221SOL    HW263500   7.095   4.801   0.046 -0.4850  0.2560  0.1092
19222SOL     OW63501   0.890   5.674   5.429  0.2141  0.0907  0.1873
19222SOL    HW163502   0.851   5.740   5.485 -0.1790 -0.4972  0.6066
19222SOL    HW263503   0.838   5.595   5.443  0.6215 -0.2906 -0.3749
19223SOL     OW63504   5.785   6.271  10.377 -0.6336  0.9707  0.1226
19223SOL    HW163505   5.749   6.212  10.443 -4.1985  1.7839 -0.8779
19223SOL    HW263506   5.870   6.297  10.411  0.2024 -3.0001  1.6197
19224SOL     OW63507   1.119   6.606   4.028 -0.6848  0.3299  0.5104
19224SOL    HW163508   1.127   6.580   3.937  2.0446  1.3863  0.3388
19224SOL    HW263509   1.043   6.558   4.061 -1.2068 -0.7479 -2.0610
19225SOL     OW63510   6.385   3.591   4.458  0.1851  0.0446 -0.4423
19225SOL    HW163511   6.360   3.499   4.463 -0.3039  0.2341  0.9354
19225SOL    HW263512   6.445   3.604   4.531  1.9909  0.3272 -1.9266
19226SOL     OW63513   3.065  10.656  10.599 -0.0684 -0.0973 -0.1874
19226SOL    HW163514   3.000  10.588  10.580  0.3406 -0.9811  1.3331
19226SOL    HW263515   3.100  10.631  10.685  1.1159  1.2666 -0.2426
19227SOL     OW63516   1.727   4.950   5.158 -0.0627  0.1402 -0.5373
19227SOL    HW163517   1.780   4.955   5.238  0.1284  1.0589 -0.7180
19227SOL    HW263518   1.753   5.026   5.106 -1.3825  0.4801 -0.7387
19228SOL     OW63519   3.504   2.376   3.721  0.1003  0.1123 -0.1754
19228SOL    HW163520   3.444   2.305   3.742  1.4368 -0.9766  0.0818
19228SOL    HW263521   3.486   2.396   3.629 -2.3938  1.5796  0.5283
19229SOL     OW63522   3.425   6.983   1.356  0.2757  0.0937 -0.0753
19229SOL    HW163523   3.408   7.055   1.295 -0.4240 -0.4941 -0.5929
19229SOL    HW263524   3.350   6.983   1.415  0.5291  0.1149  0.2483
19230SOL     OW63525   1.945   7.980  10.694 -0.1235  0.2241  0.2482
19230SOL    HW163526   1.983   8.048  10.639  0.2832 -0.7160 -0.6845
19230SOL    HW263527   1.858   8.012  10.717  0.5032  1.5708  0.8297
19231SOL     OW63528   1.856   6.499   4.865 -0.0039 -0.3533  0.0686
19231SOL    HW163529   1.892   6.523   4.950  0.8654 -1.4786  0.0494
19231SOL    HW263530   1.840   6.404   4.872  2.2685 -0.9559 -1.7230
19232SOL     OW63531   2.563   8.292   0.593 -0.1836 -0.6509 -0.3370
19232SOL    HW163532   2.628   8.223   0.582 -0.0073 -0.4873 -0.3339
19232SOL    HW263533   2.601   8.368   0.550 -0.9491 -0.8958 -1.4779
19233SOL     OW63534   7.376   0.452   3.533  0.3727 -0.1565 -0.0468
19233SOL    HW163535   7.415   0.375   3.492 -0.2958 -0.5495  0.0368
19233SOL    HW263536   7.315   0.486   3.468 -1.0097 -1.0322  0.7584
19234SOL     OW63537   4.742   6.529   3.178  0.2168  0.2156 -0.7458
19234SOL    HW163538   4.813   6.496   3.233  0.3827 -0.2786 -1.2387
19234SOL    HW263539   4.783   6.540   3.092 -0.5905 -1.2476 -1.3452
19235SOL     OW63540   7.090   4.690   4.556  0.1487  0.6338  0.0659
19235SOL    HW163541   7.134   4.605   4.548 -0.1804  0.4114  0.6050
19235SOL    HW263542   6.997   4.670   4.550  0.0571  0.9221  0.5289
19236SOL     OW63543   2.477   7.928   6.568 -0.0545  0.1559 -0.3570
19236SOL    HW163544   2.527   8.008   6.552  0.5504 -0.5703 -2.3413
19236SOL    HW263545   2.531   7.879   6.630 -1.0035  1.7277  1.8647
19237SOL     OW63546   6.136   8.775   6.106 -0.6696  0.0604 -0.6659
19237SOL    HW163547   6.085   8.697   6.083 -4.1900  1.6535  1.0410
19237SOL    HW263548   6.107   8.797   6.195  3.7998  0.6637  0.8779
19238SOL     OW63549   2.187   8.958   8.908  0.0597  0.1771 -0.8752
19238SOL    HW163550   2.093   8.976   8.907 -0.1362 -0.7019  0.1933
19238SOL    HW263551   2.193   8.865   8.887  0.7451  0.3648 -1.5571
19239SOL     OW63552   1.913   4.955   6.480  0.5247 -0.4696  0.1414
19239SOL    HW163553   1.928   5.024   6.414 -0.3650 -0.1748  0.2396
19239SOL    HW263554   1.825   4.923   6.462 -0.0047  0.0837  1.6073
19240SOL     OW63555   8.671  10.236   5.517  0.6292  0.1809 -0.2636
19240SOL    HW163556   8.580  10.237   5.545  0.4749 -1.3961 -0.6055
19240SOL    HW263557   8.708  10.158   5.559  1.6722  0.5129 -0.5420
19241SOL     OW63558   2.383   0.347   2.692 -0.2001 -0.1895 -0.2394
19241SOL    HW163559   2.381   0.398   2.611  1.8353 -0.3319 -0.4406
19241SOL    HW263560   2.329   0.271   2.674  1.6907 -1.1707 -2.2120
19242SOL     OW63561   0.061   4.936   2.083 -0.3543 -0.2189  0.3354
19242SOL    HW163562   0.135   4.958   2.026 -1.0859 -1.3908 -1.1396
19242SOL    HW263563   0.028   4.853   2.049 -2.4802  0.3630  0.7957
19243SOL     OW63564   1.472  10.215   5.719 -0.1906 -0.0758  0.2439
19243SOL    HW163565   1.450  10.274   5.647 -2.5710 -0.4495  0.6097
19243SOL    HW263566   1.484  10.273   5.795  2.3984  0.3260 -0.3572
19244SOL     OW63567   2.686   6.582   0.449  0.4849 -0.0010  1.0481
19244SOL    HW163568   2.678   6.597   0.355  1.1888 -0.2907  0.9398
19244SOL    HW263569   2.753   6.644   0.478 -1.4573  1.8844  1.8199
19245SOL     OW63570   4.374   6.171   9.950 -0.1548  0.1036 -0.0258
19245SOL    HW163571   4.342   6.247  10.000 -1.0979  0.1877 -0.7453
19245SOL    HW263572   4.374   6.201   9.859  1.0581 -0.2265 -0.1545
19246SOL     OW63573   0.242   4.465   5.629  0.0295 -0.6068  0.1945
19246SOL    HW163574   0.241   4.466   5.533 -1.7780 -0.1077  0.1798
19246SOL    HW263575   0.176   4.399   5.653  0.9844 -1.2623  1.1184
19247SOL     OW63576   1.218   0.885   9.304  0.2691 -0.3493  0.5037
19247SOL    HW163577   1.169   0.958   9.342  0.6273  0.1347  0.0543
19247SOL    HW263578   1.151   0.825   9.271 -0.0292  0.6444 -0.7411
19248SOL     OW63579   4.331   2.778   7.671 -1.0011 -0.5298  0.3102
19248SOL    HW163580   4.349   2.690   7.638 -0.1722  0.0589 -0.8758
19248SOL    HW263581   4.392   2.835   7.623 -1.8164  0.7488  0.7385
19249SOL     OW63582  10.658   5.213   6.835 -0.0736  0.0761  0.8374
19249SOL    HW163583  10.726   5.147   6.848 -0.4982 -0.5391  0.0656
19249SOL    HW263584  10.682   5.285   6.894  1.3682 -0.0185  0.4145
19250SOL     OW63585   5.601   3.578  10.571 -0.5416 -0.1613  0.4455
19250SOL    HW163586   5.571   3.557  10.482  1.2283 -2.0645  0.2267
19250SOL    HW263587   5.541   3.646  10.601 -1.9697 -0.3642 -1.7313
19251SOL     OW63588   0.110   6.427   3.659  0.5242 -0.3121 -0.2554
19251SOL    HW163589   0.113   6.439   3.754  0.6193  1.1859 -0.4291
19251SOL    HW263590   0.017   6.431   3.638  0.5072 -0.5921 -0.2433
19252SOL     OW63591   3.264   2.979  10.000  0.6459  0.1956 -0.5966
19252SOL    HW163592   3.321   3.002   9.927  0.0467 -0.4571 -1.2994
19252SOL    HW263593   3.189   3.038   9.991  0.9451  0.6711 -0.0117
19253SOL     OW63594   5.382   7.904   8.190 -0.1381  0.5156  0.4859
19253SOL    HW163595   5.421   7.961   8.256 -1.3070  1.7287  0.1797
19253SOL    HW263596   5.288   7.920   8.197 -0.3400  0.1338 -0.9576
19254SOL     OW63597   0.312  10.666   6.562 -0.6355  0.0832 -0.1506
19254SOL    HW163598   0.388  10.615   6.534  0.1221  1.3204 -0.4595
19254SOL    HW263599   0.344  10.757   6.562 -2.4182  0.7492 -1.2903
19255SOL     OW63600   5.965   0.147   7.064  0.8433  0.5516  0.3833
19255SOL    HW163601   5.983   0.077   7.127 -2.0317  1.2563  2.1420
19255SOL    HW263602   5.924   0.102   6.990  0.0247  0.1988  1.0321
19256SOL     OW63603   1.437   4.195   8.615  0.3047  0.1136 -0.2828
19256SOL    HW163604   1.435   4.208   8.710 -1.2634  1.9846 -0.4987
19256SOL    HW263605   1.378   4.121   8.600 -0.2862  0.4893  0.1359
19257SOL     OW63606   7.604   3.111   2.024  0.3001 -0.1730 -0.1049
19257SOL    HW163607   7.544   3.124   2.098  2.0921  0.4579  1.3297
19257SOL    HW263608   7.653   3.032   2.046  0.2570 -0.4701 -1.0581
19258SOL     OW63609   5.961   4.507   8.246  0.0915 -0.4226 -0.2950
19258SOL    HW163610   5.938   4.595   8.216  0.7441 -0.3501 -0.6092
19258SOL    HW263611   5.912   4.496   8.327 -0.9444 -0.2374 -0.8799
19259SOL     OW63612   7.820   6.676   4.762  0.2820 -0.6140  0.0785
19259SOL    HW163613   7.825   6.616   4.836 -0.3739  0.6091  1.1348
19259SOL    HW263614   7.728   6.700   4.756  0.5084  0.1638 -0.4515
19260SOL     OW63615   5.891   5.869   2.604  0.8580 -0.2210 -0.2248
19260SOL    HW163616   5.873   5.783   2.642  0.0745  0.6548  1.5511
19260SOL    HW263617   5.807   5.897   2.567  0.1631  1.0773  2.1103
19261SOL     OW63618   3.020   1.465   0.420 -0.1727  0.1759  0.3273
19261SOL    HW163619   3.041   1.552   0.454 -0.3323 -0.0462  1.0221
19261SOL    HW263620   3.073   1.456   0.342 -1.1061  1.4102 -0.4895
19262SOL     OW63621  10.484   6.424   9.393  0.0416 -1.1327 -0.4170
19262SOL    HW163622  10.409   6.483   9.405  1.0664  0.1644 -0.1807
19262SOL    HW263623  10.513   6.441   9.303  0.6665 -0.8785 -0.1701
19263SOL     OW63624   3.954  10.675   9.955  1.0213 -0.7851  0.0579
19263SOL    HW163625   3.987  10.764   9.942  0.7960 -0.8319 -0.9045
19263SOL    HW263626   3.991  10.625   9.882 -1.3687 -0.7819 -1.2338
19264SOL     OW63627   1.801   2.749   1.745 -0.6416 -0.0131 -0.7363
19264SOL    HW163628   1.877   2.691   1.754 -0.5190  0.2903  0.4267
19264SOL    HW263629   1.796   2.795   1.829 -0.9536  1.4055 -1.5058
19265SOL     OW63630   4.378   9.357   4.895 -0.1441  0.4735  0.2015
19265SOL    HW163631   4.349   9.278   4.941 -0.4198  0.0014 -0.7679
19265SOL    HW263632   4.387   9.330   4.804  2.2310  0.9208  0.2582
19266SOL     OW63633   2.880   7.822   2.853  0.2893  0.1857  0.3146
19266SOL    HW163634   2.817   7.881   2.812  1.0599  0.8769  0.0887
19266SOL    HW263635   2.896   7.860   2.939 -0.9260 -0.9737  1.0847
19267SOL     OW63636   0.518   4.488   6.677 -0.1346  0.0128 -0.3145
19267SOL    HW163637   0.466   4.568   6.688 -2.3375 -1.3277 -0.3899
19267SOL    HW263638   0.597   4.517   6.631 -0.6713  2.1980  0.0329
19268SOL     OW63639   3.084   4.841   6.189 -0.0730 -0.1865  0.3086
19268SOL    HW163640   3.061   4.926   6.152 -1.5066 -0.6772 -0.0057
19268SOL    HW263641   3.024   4.829   6.262 -1.2391 -1.7383 -0.8276
19269SOL     OW63642   0.929   6.440   8.768  0.4371  0.4275 -0.1190
19269SOL    HW163643   0.995   6.499   8.804 -0.2472  0.5812  0.9448
19269SOL    HW263644   0.915   6.375   8.838  0.1895 -0.1827 -0.7262
19270SOL     OW63645   1.390   6.638   9.223  0.3993  0.3845 -0.8362
19270SOL    HW163646   1.343   6.709   9.178  2.1679  1.7885 -0.5559
19270SOL    HW263647   1.430   6.588   9.152 -1.3423 -0.7829 -1.0761
19271SOL     OW63648   7.824   5.113   8.485  0.1774 -0.3904 -0.5386
19271SOL    HW163649   7.891   5.059   8.442 -0.1586 -1.2475 -0.0102
19271SOL    HW263650   7.747   5.104   8.429  0.5965  0.9744 -1.4061
19272SOL     OW63651   9.794   9.630   9.655  0.6704 -0.2467  0.3551
19272SOL    HW163652   9.766   9.651   9.566  1.0722  2.3122  0.7359
19272SOL    HW263653   9.783   9.535   9.663 -0.6342 -0.3572 -1.9564
19273SOL     OW63654   7.660   7.928   9.866 -0.1570 -0.2575 -0.5255
19273SOL    HW163655   7.751   7.912   9.889 -0.2870 -1.1940 -0.6188
19273SOL    HW263656   7.663   8.004   9.808  0.5018  0.0455 -0.1083
19274SOL     OW63657   2.556   9.970   4.522  0.1804 -0.1609  0.0613
19274SOL    HW163658   2.476  10.022   4.530  0.3416 -0.0907  1.8235
19274SOL    HW263659   2.551   9.907   4.594  0.5709 -1.8128 -1.2848
19275SOL     OW63660  10.838   2.321   7.168 -0.4614  0.4585  0.0452
19275SOL    HW163661  10.858   2.247   7.225 -0.9463  1.1668  1.1637
19275SOL    HW263662  10.779   2.285   7.102  0.4433 -0.4713 -0.2697
19276SOL     OW63663   4.298   5.248   7.804 -0.1011 -0.4200 -0.0825
19276SOL    HW163664   4.321   5.162   7.769 -0.5891 -0.3782 -0.5135
19276SOL    HW263665   4.259   5.230   7.890 -3.4809 -0.9762 -1.5733
19277SOL     OW63666   1.586  10.640   0.093 -0.7281  0.5482  0.6160
19277SOL    HW163667   1.644  10.617   0.021 -0.4709  0.4274  0.8583
19277SOL    HW263668   1.511  10.581   0.084  0.3424 -1.0674  1.7712
19278SOL     OW63669   6.121   0.175   1.386  0.5698 -0.8054  0.0009
19278SOL    HW163670   6.199   0.206   1.433  0.8605 -0.7767 -0.4907
19278SOL    HW263671   6.154   0.147   1.300  0.0755 -1.0311 -0.1226
19279SOL     OW63672   8.371   8.487   6.575  0.4151 -0.0832 -0.2489
19279SOL    HW163673   8.430   8.557   6.546  0.1693  0.8085  1.3016
19279SOL    HW263674   8.300   8.488   6.510  0.5282  0.9595 -0.3807
19280SOL     OW63675   5.661   5.912   1.542  0.0888  0.2689 -0.1073
19280SOL    HW163676   5.614   5.833   1.516  1.2535 -0.4585 -0.0559
19280SOL    HW263677   5.598   5.960   1.596 -1.8763  1.0939 -2.8742
19281SOL     OW63678   9.121   3.469  10.783 -0.7470 -0.5504 -0.0555
19281SOL    HW163679   9.050   3.427  10.734 -0.6873  1.9627 -2.5762
19281SOL    HW263680   9.082   3.550  10.817  0.4813  0.1131 -0.1776
19282SOL     OW63681   6.136   7.232   5.867  0.0440  0.2236 -0.0129
19282SOL    HW163682   6.120   7.318   5.829 -0.9236 -0.1564 -0.5177
19282SOL    HW263683   6.222   7.207   5.834  2.0423  2.4535  2.9760
19283SOL     OW63684   3.149   9.185   6.967  0.3283  0.0131 -0.0759
19283SOL    HW163685   3.063   9.221   6.989  0.1746  0.2857 -1.1072
19283SOL    HW263686   3.141   9.156   6.876  1.0079 -0.9539  0.1553
19284SOL     OW63687  10.435   5.315   8.967 -0.0430  0.6089  0.5117
19284SOL    HW163688  10.389   5.359   9.038  0.0535 -1.1601  1.7401
19284SOL    HW263689  10.474   5.237   9.007  0.3496 -0.2532 -1.3865
19285SOL     OW63690   4.604   4.337   1.644  0.5107  0.0113  0.5718
19285SOL    HW163691   4.579   4.266   1.584 -1.5044  1.8587 -0.9186
19285SOL    HW263692   4.578   4.306   1.730 -0.0458 -1.1891  0.0012
19286SOL     OW63693   3.328   5.761   8.185 -0.0338  0.0740  0.3074
19286SOL    HW163694   3.395   5.795   8.125 -0.0868 -0.6682 -0.1843
19286SOL    HW263695   3.378   5.719   8.255  0.0426 -0.8936 -0.2961
19287SOL     OW63696   3.015   3.135   1.654  0.3700 -0.0838  0.3116
19287SOL    HW163697   2.992   3.042   1.664  1.0539 -0.3727 -0.6494
19287SOL    HW263698   2.994   3.155   1.563  3.5521 -0.2914 -0.5745
19288SOL     OW63699   7.849   4.885  10.510 -0.2725  0.2963 -0.3333
19288SOL    HW163700   7.814   4.884  10.421 -2.8545 -1.5392  0.5939
19288SOL    HW263701   7.836   4.975  10.540 -1.7721  0.3170 -0.9655
19289SOL     OW63702   6.504  10.158   9.345 -0.4139  0.4407  0.5729
19289SOL    HW163703   6.558  10.146   9.423  0.8434  0.0024 -0.3443
19289SOL    HW263704   6.474  10.070   9.323 -0.6054  0.5380  0.4435
19290SOL     OW63705   6.648   2.660   1.391 -0.4591 -0.0332 -0.1560
19290SOL    HW163706   6.661   2.738   1.337 -1.3906 -0.5470 -1.1643
19290SOL    HW263707   6.727   2.608   1.376 -0.0716  0.4661  0.1053
19291SOL     OW63708   4.725   0.067  10.880  0.0497  0.0511 -0.3382
19291SOL    HW163709   4.790  -0.003  10.879 -0.8879 -0.8556 -1.1571
19291SOL    HW263710   4.722   0.097  10.970 -0.2616 -1.7131  0.2754
19292SOL     OW63711   1.767   1.897   9.707 -0.3799 -0.1347  0.0523
19292SOL    HW163712   1.824   1.821   9.696 -0.6159 -0.3653  0.3880
19292SOL    HW263713   1.775   1.945   9.625  1.2371  0.4955  0.5428
19293SOL     OW63714   1.142   3.566   7.624  0.0452 -0.1028  0.1013
19293SOL    HW163715   1.185   3.607   7.699 -1.6560 -0.2548  1.2144
19293SOL    HW263716   1.182   3.607   7.547  1.1711  0.7369  1.1108
19294SOL     OW63717   9.246   8.323   4.755 -0.2410  0.1170 -0.1263
19294SOL    HW163718   9.265   8.264   4.682 -1.0489 -0.2520 -0.0519
19294SOL    HW263719   9.151   8.336   4.751 -0.3395 -0.1417  1.0310
19295SOL     OW63720   1.329   9.848  10.619 -0.2595 -0.3523  0.0411
19295SOL    HW163721   1.326   9.850  10.715 -0.9103 -0.0458  0.0213
19295SOL    HW263722   1.238   9.832  10.593 -0.1105 -0.2743 -0.5311
19296SOL     OW63723   3.234   7.269   8.699 -0.3738  0.3967  0.5522
19296SOL    HW163724   3.193   7.356   8.701  0.7484  1.0316 -1.4030
19296SOL    HW263725   3.277   7.261   8.784 -0.2674  1.8997  0.6647
19297SOL     OW63726   0.472   7.467   5.927  0.1157 -0.3674  0.5533
19297SOL    HW163727   0.512   7.510   5.852 -0.9327  0.2357  0.3251
19297SOL    HW263728   0.489   7.526   6.001  3.2705 -2.0714  1.3772
19298SOL     OW63729   9.701  10.725   4.774  0.3301 -0.1460 -0.1594
19298SOL    HW163730   9.672  10.647   4.821 -1.7735 -0.3014 -1.5500
19298SOL    HW263731   9.674  10.798   4.830  0.2417 -0.3786  0.1053
19299SOL     OW63732   4.311   5.545  10.059  0.8976  0.0195 -0.0996
19299SOL    HW163733   4.259   5.544   9.979  0.9584 -1.6176 -0.1495
19299SOL    HW263734   4.269   5.611  10.114  0.7000  0.9747 -1.3626
19300SOL     OW63735   3.131   1.514   7.531  0.5410 -0.0725  0.3775
19300SOL    HW163736   3.036   1.510   7.527  0.3851 -0.1796  2.7929
19300SOL    HW263737   3.155   1.587   7.474 -0.9662 -0.0645 -0.2739
19301SOL     OW63738   3.547  10.731   4.397 -0.1522  0.1541  0.0135
19301SOL    HW163739   3.592  10.651   4.425  2.0918  0.3086 -2.7081
19301SOL    HW263740   3.616  10.798   4.396 -1.5646  1.6661  0.3814
19302SOL     OW63741   6.061   5.643   0.269  0.2897  0.4196  0.2417
19302SOL    HW163742   6.024   5.556   0.286 -0.6700  0.2206 -2.4736
19302SOL    HW263743   5.986   5.702   0.271  0.8048  1.0758  1.0978
19303SOL     OW63744   2.794   2.589   0.001 -0.4863  0.2000 -0.2321
19303SOL    HW163745   2.867   2.592  -0.061 -0.5278  2.1023 -0.2507
19303SOL    HW263746   2.720   2.558  -0.051 -0.7002  2.4568 -1.4090
19304SOL     OW63747   2.666   9.023   8.474 -0.9707 -0.0228  0.0008
19304SOL    HW163748   2.739   9.018   8.412 -0.7627 -0.3014  0.2624
19304SOL    HW263749   2.601   8.961   8.439  0.2906 -2.3803  1.5244
19305SOL     OW63750   1.717  10.288   7.142 -0.2345  0.1855 -0.1619
19305SOL    HW163751   1.737  10.358   7.204 -1.0793 -0.1631  0.5177
19305SOL    HW263752   1.774  10.216   7.168 -2.2637 -0.8196  1.7980
19306SOL     OW63753   0.919   4.430  10.699  0.2614  0.4769  0.5871
19306SOL    HW163754   1.007   4.426  10.662  0.5590 -0.6514  1.3667
19306SOL    HW263755   0.865   4.378  10.639 -0.3416  2.8722 -1.0411
19307SOL     OW63756   5.249   5.874   2.139 -0.0420 -0.4298 -0.2425
19307SOL    HW163757   5.325   5.831   2.099  0.2000  0.5845 -0.9168
19307SOL    HW263758   5.285   5.953   2.180 -0.6837 -0.1014 -0.3067
19308SOL     OW63759   3.954   7.110   1.730 -0.3431  0.9227  0.1574
19308SOL    HW163760   3.971   7.049   1.659 -1.0007  0.9793 -0.0528
19308SOL    HW263761   3.985   7.195   1.697 -0.6007  0.9398 -0.0468
19309SOL     OW63762   2.052   6.834   4.265 -0.2124  0.6547  0.3131
19309SOL    HW163763   2.008   6.748   4.267  0.8374  0.0650 -0.8153
19309SOL    HW263764   2.057   6.855   4.171  0.0981  1.6690  0.5549
19310SOL     OW63765   4.398   9.698   3.448 -0.0157  0.5006  0.1321
19310SOL    HW163766   4.401   9.606   3.475 -0.5098  0.3479 -0.3193
19310SOL    HW263767   4.482   9.714   3.406  0.6189  0.6372  1.4087
19311SOL     OW63768   4.607   0.600  10.570 -0.7495  0.0298  0.2151
19311SOL    HW163769   4.589   0.510  10.543 -0.6536  0.0982 -0.0750
19311SOL    HW263770   4.671   0.632  10.507  1.6428 -0.6899  2.1091
19312SOL     OW63771   5.285   2.007   3.330  0.0018  0.0621  0.4975
19312SOL    HW163772   5.337   2.036   3.404 -1.1961  0.5314  1.1876
19312SOL    HW263773   5.202   2.055   3.339  0.0977  0.7330 -1.5664
19313SOL     OW63774   1.643   5.350   3.644  0.1090  0.0139  0.0504
19313SOL    HW163775   1.650   5.314   3.732  1.1208  0.7420  0.2913
19313SOL    HW263776   1.549   5.350   3.626  0.0355 -3.1233 -0.1705
19314SOL     OW63777   2.787  10.844   7.317 -0.3230  0.1063 -0.0708
19314SOL    HW163778   2.796  10.800   7.233  1.6983  0.2467  0.0111
19314SOL    HW263779   2.782  10.937   7.295 -0.2512  0.1139 -0.0542
19315SOL     OW63780   4.252   7.314   2.002  0.1087 -0.1353 -0.5855
19315SOL    HW163781   4.171   7.311   1.952 -1.7521  1.3909  2.0672
19315SOL    HW263782   4.286   7.402   1.988 -1.7100  1.2254  2.3533
19316SOL     OW63783   2.767   0.194  10.381 -0.3501  0.1143 -0.4623
19316SOL    HW163784   2.813   0.137  10.320  0.0156  2.1105 -2.1531
19316SOL    HW263785   2.697   0.234  10.329 -1.0121  0.7140  0.8425
19317SOL     OW63786   0.693   6.309   2.708  0.1638 -0.3073 -0.1399
19317SOL    HW163787   0.657   6.386   2.750 -0.5509 -1.0610  0.6462
19317SOL    HW263788   0.617   6.261   2.674  0.5454 -0.9490 -0.1180
19318SOL     OW63789   2.281   5.146   2.759 -0.6983  0.2064  0.6840
19318SOL    HW163790   2.231   5.197   2.694 -1.1029  0.1884  0.9741
19318SOL    HW263791   2.283   5.057   2.723 -1.0967  0.1525  0.7883
19319SOL     OW63792   2.797   8.338   6.527 -0.3601  0.1700 -0.1280
19319SOL    HW163793   2.876   8.291   6.499 -0.0563  0.5138  0.1463
19319SOL    HW263794   2.726   8.274   6.517  0.1098 -0.4794  0.6333
19320SOL     OW63795   8.133   2.983   1.077 -0.4704 -0.0521  0.1868
19320SOL    HW163796   8.099   3.070   1.099  1.0064  0.2919  1.2297
19320SOL    HW263797   8.210   2.972   1.133 -0.9334 -2.2711  0.4951
19321SOL     OW63798   7.849   0.161   4.460 -0.1635  0.2830 -0.2593
19321SOL    HW163799   7.936   0.175   4.421 -0.2504  0.2352 -0.4703
19321SOL    HW263800   7.857   0.196   4.549  0.6540 -1.4747  0.4008
19322SOL     OW63801   7.396   9.475   3.489  0.1949 -0.4084 -0.0523
19322SOL    HW163802   7.336   9.546   3.469  1.3204  0.7189  0.4679
19322SOL    HW263803   7.365   9.441   3.573 -0.9414 -1.2323 -0.7676
19323SOL     OW63804   5.578   7.503   3.392  0.2830  0.4713  0.6269
19323SOL    HW163805   5.620   7.522   3.308 -2.1874  1.3418 -0.5095
19323SOL    HW263806   5.625   7.428   3.427 -0.9720 -2.4871 -3.4075
19324SOL     OW63807   0.767   4.599   0.144 -0.1756  0.2301  0.1905
19324SOL    HW163808   0.778   4.653   0.066  0.0916 -0.3587 -0.1923
19324SOL    HW263809   0.754   4.510   0.110 -3.6762  0.4294  0.6739
19325SOL     OW63810   7.014   6.988   7.214  0.0914 -0.0286 -0.2128
19325SOL    HW163811   6.944   7.006   7.276 -0.5344 -0.9409 -0.6243
19325SOL    HW263812   7.066   6.919   7.256 -1.1238 -1.6249 -1.2467
19326SOL     OW63813   0.166   7.815   0.620  0.4714 -0.0459  0.3092
19326SOL    HW163814   0.250   7.852   0.594 -0.0912  1.2793  0.2730
19326SOL    HW263815   0.185   7.765   0.699  1.6482 -1.5456 -0.8593
19327SOL     OW63816   7.870  10.454   6.508 -0.0474  0.0209  0.1421
19327SOL    HW163817   7.932  10.387   6.537  0.6284  0.3817 -0.4507
19327SOL    HW263818   7.880  10.524   6.573  0.0541  0.0125  0.1367
19328SOL     OW63819   6.704   5.208   0.067 -0.0054  0.1346  0.7139
19328SOL    HW163820   6.613   5.181   0.073 -0.2071 -0.0533 -1.9912
19328SOL    HW263821   6.754   5.128   0.082 -0.3293 -0.1043  0.5218
19329SOL     OW63822   9.886   7.917  10.634 -0.7165 -0.2291 -0.1290
19329SOL    HW163823   9.844   7.998  10.663  0.1878  0.2036  0.0017
19329SOL    HW263824   9.912   7.874  10.716 -0.4940 -0.2683 -0.2210
19330SOL     OW63825   2.523   3.402   3.261 -0.2711 -0.0956  0.1786
19330SOL    HW163826   2.607   3.424   3.301 -1.1532  0.5307  1.7766
19330SOL    HW263827   2.472   3.483   3.264 -0.9858 -0.4956 -0.6349
19331SOL     OW63828   8.845   4.834  10.624  0.7176  0.1781 -0.2459
19331SOL    HW163829   8.847   4.834  10.720  0.7502 -0.0200 -0.2460
19331SOL    HW263830   8.816   4.746  10.601  0.7059  0.2272 -0.4180
19332SOL     OW63831   0.212  10.769   6.099 -0.3545  0.4049 -0.3623
19332SOL    HW163832   0.256  10.685   6.109 -0.5239  0.2995 -0.5017
19332SOL    HW263833   0.283  10.833   6.097 -0.2322  0.2812 -0.0970
19333SOL     OW63834   4.907   7.792   7.981  0.5468 -0.6680  0.1521
19333SOL    HW163835   4.900   7.736   7.904  0.5238  0.2648 -0.5401
19333SOL    HW263836   4.860   7.872   7.957  1.6362  0.1445  0.6503
19334SOL     OW63837  10.340  10.300   8.984  0.0156 -0.6853 -0.0012
19334SOL    HW163838  10.263  10.315   8.929 -0.4396  2.0804  1.2393
19334SOL    HW263839  10.345  10.205   8.992 -2.4145 -1.0064 -1.2941
19335SOL     OW63840   6.561   7.104   2.223  0.5537 -0.0931 -0.0176
19335SOL    HW163841   6.595   7.037   2.282  0.1550  1.3865  2.0028
19335SOL    HW263842   6.637   7.134   2.174  1.3273  0.0833  1.2580
19336SOL     OW63843   5.834   3.404  10.000  0.1930  0.2492  0.2350
19336SOL    HW163844   5.776   3.345   9.952  0.0175  0.1833  0.5197
19336SOL    HW263845   5.806   3.491   9.973  1.0424  0.1952 -0.8612
19337SOL     OW63846   1.776   0.224   4.902 -0.6210  0.4296  0.1826
19337SOL    HW163847   1.688   0.210   4.937 -0.2270 -0.8328  0.7130
19337SOL    HW263848   1.793   0.317   4.918 -1.4929  0.4790  0.9351
19338SOL     OW63849   5.034   8.317   2.491  0.3347 -0.2324  0.1923
19338SOL    HW163850   4.984   8.398   2.481  0.0052 -0.2423  1.6156
19338SOL    HW263851   5.119   8.345   2.525  0.6693 -0.3816 -0.5054
19339SOL     OW63852   9.792   4.123   8.641  0.1457 -0.0738 -0.2812
19339SOL    HW163853   9.779   4.074   8.560 -2.7856 -0.3053  0.2354
19339SOL    HW263854   9.720   4.187   8.643 -0.3046 -0.5316  2.4367
19340SOL     OW63855   5.846   9.367   7.142 -0.5556 -0.5778  0.1535
19340SOL    HW163856   5.852   9.378   7.047 -1.5312 -0.1757  0.1297
19340SOL    HW263857   5.924   9.412   7.175 -0.5227 -0.1937 -0.4235
19341SOL     OW63858   4.636   1.497  10.151 -0.1341  0.0149 -0.4985
19341SOL    HW163859   4.566   1.433  10.164 -0.5863  0.3327 -1.3146
19341SOL    HW263860   4.681   1.501  10.235  0.2279 -1.7591 -0.5803
19342SOL     OW63861  10.873   3.943   7.133  0.2729  0.0179  0.1504
19342SOL    HW163862  10.805   3.883   7.164 -0.2362  0.4649 -0.0816
19342SOL    HW263863  10.919   3.894   7.066 -0.3426 -0.0165 -0.2607
19343SOL     OW63864   9.142   5.676   6.708 -0.4706 -0.0625 -0.1237
19343SOL    HW163865   9.227   5.637   6.686 -0.6290 -1.7300  1.8176
19343SOL    HW263866   9.080   5.603   6.700 -1.1034  0.1960  1.7921
19344SOL     OW63867   1.507   9.677   7.381  0.1349 -0.0108  0.2930
19344SOL    HW163868   1.594   9.650   7.355 -1.4430 -1.6812 -4.1786
19344SOL    HW263869   1.485   9.748   7.321 -1.2537  1.1255  2.0421
19345SOL     OW63870   4.119   6.421   0.507 -0.0470  0.3438  0.2641
19345SOL    HW163871   4.053   6.489   0.495  0.2064  0.7657  1.1448
19345SOL    HW263872   4.106   6.361   0.434 -0.7632  0.9431 -0.1093
19346SOL     OW63873   0.812   1.447   3.806  0.3509 -0.3858  0.2013
19346SOL    HW163874   0.867   1.420   3.733  0.2086 -0.0221 -0.0418
19346SOL    HW263875   0.817   1.374   3.868  0.2576 -0.8172 -0.2860
19347SOL     OW63876   8.796   1.027   1.356 -0.0488 -0.2707 -0.0318
19347SOL    HW163877   8.855   1.070   1.294 -0.5294  1.1140  0.4347
19347SOL    HW263878   8.854   0.978   1.414  0.5137 -0.2723 -0.5876
19348SOL     OW63879   1.360   8.492   0.542 -0.0688  0.0890  0.2514
19348SOL    HW163880   1.370   8.587   0.538  1.6267 -0.0999 -2.0528
19348SOL    HW263881   1.447   8.458   0.563 -0.9015 -0.9827  2.3101
19349SOL     OW63882   2.310   0.887   4.740  0.2559 -0.1098  0.0276
19349SOL    HW163883   2.391   0.895   4.791 -0.0717 -0.1577  0.5581
19349SOL    HW263884   2.316   0.958   4.675  1.3044 -0.8855 -0.7645
19350SOL     OW63885   1.281   2.657   5.671 -0.0767  0.1616 -0.0675
19350SOL    HW163886   1.374   2.648   5.648  0.4430 -0.0866  1.8712
19350SOL    HW263887   1.235   2.657   5.588  1.4328 -2.6006 -1.0478
19351SOL     OW63888  10.042   7.961   2.921  0.2367 -0.2193 -0.0044
19351SOL    HW163889  10.094   7.881   2.920 -0.9446 -1.0113 -0.3990
19351SOL    HW263890  10.034   7.986   2.829 -0.8239 -0.6264 -0.0380
19352SOL     OW63891   3.556   0.526  10.601 -0.0265 -0.4992 -0.1167
19352SOL    HW163892   3.578   0.580  10.525 -0.8818 -1.1293 -0.8434
19352SOL    HW263893   3.527   0.443  10.563  2.4265 -1.9774  0.9856
19353SOL     OW63894   3.784   5.233   9.956  0.1734 -0.1278 -0.0052
19353SOL    HW163895   3.820   5.287  10.027  0.9086  0.5815 -0.8901
19353SOL    HW263896   3.858   5.217   9.898 -0.1715 -1.5934 -0.0970
19354SOL     OW63897   8.891   3.274   4.824  0.5415 -0.4116  0.1860
19354SOL    HW163898   8.940   3.252   4.745 -0.2979  1.0424 -0.7994
19354SOL    HW263899   8.957   3.275   4.893  2.1758  2.2872 -1.2267
19355SOL     OW63900   3.051   2.957   9.395 -0.0410 -0.1184 -0.0171
19355SOL    HW163901   3.041   2.973   9.301 -0.7112  0.6579  0.1752
19355SOL    HW263902   2.961   2.957   9.429  0.2307  0.3096  0.7247
19356SOL     OW63903   1.005   0.732   5.520 -0.3527 -0.3408  0.5051
19356SOL    HW163904   0.919   0.751   5.556 -0.0551  0.3986  0.8287
19356SOL    HW263905   0.998   0.755   5.428 -0.3597  0.1667  0.6326
19357SOL     OW63906   4.510   1.996   9.798 -0.1734 -0.3789  0.2716
19357SOL    HW163907   4.505   2.081   9.753 -0.1632 -0.5938 -0.1345
19357SOL    HW263908   4.435   1.997   9.857  0.5088  0.4223  1.1630
19358SOL     OW63909   8.132   4.492   5.201  0.4683  0.0282  0.1524
19358SOL    HW163910   8.092   4.548   5.268 -1.5300 -1.2957  0.1731
19358SOL    HW263911   8.076   4.504   5.124 -2.2611 -4.3293  1.1222
19359SOL     OW63912   5.101   0.169   9.226 -0.0690 -0.2853 -0.2240
19359SOL    HW163913   5.080   0.083   9.263  0.5930 -0.5545 -0.4566
19359SOL    HW263914   5.061   0.232   9.287 -1.6460 -0.7579 -0.7184
19360SOL     OW63915   0.829   1.990   1.853  0.2889 -0.5302 -0.1061
19360SOL    HW163916   0.841   1.896   1.836  2.7626 -0.0650 -1.2886
19360SOL    HW263917   0.863   2.033   1.775 -1.5699  1.3865  0.0546
19361SOL     OW63918   7.925   1.398   5.570  0.2234  0.0401 -0.5256
19361SOL    HW163919   7.988   1.470   5.567  0.0052  0.3441  1.0639
19361SOL    HW263920   7.968   1.331   5.624 -0.5211 -0.0193  0.0188
19362SOL     OW63921   9.541   4.809   2.493 -0.2402  0.1443 -0.2828
19362SOL    HW163922   9.474   4.878   2.486 -1.1155 -0.7111 -0.5884
19362SOL    HW263923   9.591   4.817   2.412 -0.1633  0.5918 -0.1958
19363SOL     OW63924   0.450   6.059   0.540  0.1219 -0.2752 -0.0141
19363SOL    HW163925   0.442   6.074   0.634  1.0745 -2.1111  0.4234
19363SOL    HW263926   0.368   6.015   0.516 -1.0444  2.0198 -0.5370
19364SOL     OW63927   7.983   3.359   1.338 -0.2693 -0.2669  0.4814
19364SOL    HW163928   7.958   3.335   1.249  1.8070  2.0496 -0.8419
19364SOL    HW263929   8.039   3.287   1.368  1.0555  0.0601 -1.0857
19365SOL     OW63930   6.461   6.057   9.606 -0.1373 -0.2683 -0.0753
19365SOL    HW163931   6.541   6.072   9.655  1.0439 -0.1843 -1.9371
19365SOL    HW263932   6.476   5.974   9.560 -0.2011  0.8009 -2.1305
19366SOL     OW63933   9.647   2.618   4.000  0.1157 -1.0469  0.1378
19366SOL    HW163934   9.730   2.660   4.023 -1.3406  1.4929  1.1319
19366SOL    HW263935   9.631   2.557   4.071 -0.4555  0.9587  1.8422
19367SOL     OW63936   7.230   6.277   3.306 -0.1617 -0.1305 -0.2403
19367SOL    HW163937   7.283   6.261   3.227 -1.0353  0.8312 -1.0401
19367SOL    HW263938   7.158   6.214   3.300  0.1804 -0.5740  0.1971
19368SOL     OW63939   5.062   0.899   4.300 -0.4231 -0.5192 -0.1066
19368SOL    HW163940   5.144   0.935   4.334 -1.1444  0.9238  0.1722
19368SOL    HW263941   5.086   0.858   4.217  1.1869 -3.1686  1.5064
19369SOL     OW63942   7.630   6.074   7.363  0.2025 -0.3439 -0.0494
19369SOL    HW163943   7.632   6.084   7.458  1.1970  0.9921 -0.1838
19369SOL    HW263944   7.583   5.992   7.349 -0.7139 -0.1405  1.5556
19370SOL     OW63945   6.221   4.635   6.707  0.1143 -0.8265  0.3912
19370SOL    HW163946   6.229   4.636   6.612 -2.0390 -1.2796  0.1534
19370SOL    HW263947   6.306   4.666   6.739  0.9385 -0.8397 -1.6525
19371SOL     OW63948   9.381   8.618   1.174 -0.3326  0.7476  0.1034
19371SOL    HW163949   9.387   8.638   1.081  2.2084  0.0219  0.0377
19371SOL    HW263950   9.376   8.523   1.178  0.0345  0.7470  0.7078
19372SOL     OW63951  10.875   2.434   2.404  0.5401 -0.0212  0.3741
19372SOL    HW163952  10.931   2.455   2.478  0.2814  0.9046  0.3286
19372SOL    HW263953  10.890   2.505   2.341  0.7569 -0.7925 -0.4625
19373SOL     OW63954   4.987   4.193   3.258 -0.2447 -0.1287  0.5304
19373SOL    HW163955   4.922   4.199   3.329  0.6865 -0.3520  1.4142
19373SOL    HW263956   5.045   4.121   3.284 -0.3688 -0.7659 -0.8749
19374SOL     OW63957   1.375   3.961   7.816  0.1735 -0.0829  0.0654
19374SOL    HW163958   1.457   3.996   7.850 -0.2716  0.8967  0.1772
19374SOL    HW263959   1.307   4.009   7.865 -0.4595 -0.0483 -0.8260
19375SOL     OW63960  10.362   5.412   3.835  0.0512 -0.2482 -0.2865
19375SOL    HW163961  10.448   5.432   3.874  0.5533 -0.1078 -1.4245
19375SOL    HW263962  10.381   5.345   3.769 -1.0506 -1.7783  0.8787
19376SOL     OW63963   7.276   2.106   7.094  0.0892  0.2081  0.6187
19376SOL    HW163964   7.189   2.119   7.134 -0.8694  1.1322 -1.6327
19376SOL    HW263965   7.262   2.037   7.030  1.7102 -1.5643  2.0609
19377SOL     OW63966   7.365  10.741   0.524  0.3146  0.0946  0.3483
19377SOL    HW163967   7.409  10.739   0.609 -1.1691 -1.5235  1.1545
19377SOL    HW263968   7.299  10.810   0.532  0.4391  0.2109  0.3674
19378SOL     OW63969   2.432   0.425   9.148 -0.1449 -0.1320  0.3365
19378SOL    HW163970   2.346   0.460   9.122  0.3928  0.4602 -0.6863
19378SOL    HW263971   2.495   0.487   9.113  0.7437 -1.0240  0.3194
19379SOL     OW63972   6.088   7.489   7.923  0.3899 -0.2357  0.2856
19379SOL    HW163973   6.015   7.431   7.947  0.1512 -0.4440 -0.8691
19379SOL    HW263974   6.058   7.533   7.844  1.0504  0.5852  0.4857
19380SOL     OW63975   0.104   6.013   6.272  0.0735 -0.2581  0.1527
19380SOL    HW163976   0.078   5.926   6.303  0.0073 -0.4787 -0.5082
19380SOL    HW263977   0.136   6.057   6.350 -1.0730 -0.4310  0.7538
19381SOL     OW63978   6.165   8.974   8.302 -0.2097 -0.0215  0.1218
19381SOL    HW163979   6.199   8.898   8.253  2.2666  2.4530 -2.3859
19381SOL    HW263980   6.095   9.008   8.246  0.2010  0.7808  0.0868
19382SOL     OW63981   1.479   2.548   2.947 -0.4137  1.0978  0.1251
19382SOL    HW163982   1.485   2.643   2.941 -2.2662  1.2687  0.3584
19382SOL    HW263983   1.429   2.522   2.870  0.6235  0.2201 -0.2788
19383SOL     OW63984   9.803   7.213   6.729 -0.0515 -0.4542  0.1071
19383SOL    HW163985   9.876   7.272   6.746 -0.9879  0.7221  0.2238
19383SOL    HW263986   9.782   7.177   6.815  0.8057 -1.3338 -0.0340
19384SOL     OW63987   5.218   4.004   4.092 -0.0244 -0.2920 -0.4378
19384SOL    HW163988   5.236   3.921   4.046  1.5412  1.4346 -3.2199
19384SOL    HW263989   5.179   4.060   4.026  1.2916  2.0175  0.6304
19385SOL     OW63990   6.343   8.817   7.474  0.1116 -0.0190  0.6107
19385SOL    HW163991   6.295   8.762   7.412  1.2239 -1.1327  0.7052
19385SOL    HW263992   6.342   8.768   7.555  1.1347  0.0891  0.6977
19386SOL     OW63993   7.731   9.045   4.414  0.3000  0.0287  0.1355
19386SOL    HW163994   7.693   8.994   4.485 -0.4194 -0.6461 -0.7206
19386SOL    HW263995   7.658   9.095   4.377  0.7584  0.7397  0.1637
19387SOL     OW63996   6.893   0.532   3.462 -0.1786  0.2086 -0.2215
19387SOL    HW163997   6.833   0.510   3.392  0.8224 -0.2621 -0.9554
19387SOL    HW263998   6.875   0.624   3.482 -1.2600  0.0182 -0.2888
19388SOL     OW63999  10.682   3.626   7.815  0.7302 -0.2935  0.1809
19388SOL    HW164000  10.671   3.557   7.750  0.2616 -0.9800  0.9714
19388SOL    HW264001  10.593   3.645   7.845  0.7483  1.2738 -0.6270
19389SOL     OW64002  10.479   3.374   5.785 -0.1074 -0.1495  0.3062
19389SOL    HW164003  10.483   3.466   5.813 -1.6867  0.3361 -0.9221
19389SOL    HW264004  10.458   3.326   5.865  0.7426  0.5303  0.9686
19390SOL     OW64005   8.921   3.164   1.109  0.2052  0.1277 -0.1824
19390SOL    HW164006   8.916   3.250   1.067 -1.5439  0.1304 -0.0490
19390SOL    HW264007   8.978   3.177   1.184  1.0477  0.8266 -0.9232
19391SOL     OW64008   1.281   9.932  10.315  0.1978 -0.3037  0.0399
19391SOL    HW164009   1.339   9.973  10.379  0.3349 -1.1161  0.4514
19391SOL    HW264010   1.205   9.904  10.367  0.0791 -0.5030 -0.2422
19392SOL     OW64011   0.906   5.073   1.102  0.0717 -0.8542 -0.7541
19392SOL    HW164012   0.933   5.165   1.102  1.9834 -1.2832  1.9504
19392SOL    HW264013   0.969   5.029   1.046  1.4511 -0.9557  0.7903
19393SOL     OW64014   7.224   7.684   6.048 -0.0479 -0.0093 -0.0292
19393SOL    HW164015   7.235   7.662   5.955  1.2155  0.6297 -0.0541
19393SOL    HW264016   7.262   7.772   6.056  2.2017 -1.0267  1.5551
19394SOL     OW64017   0.096   4.280   6.480 -0.1246  0.2687 -0.3195
19394SOL    HW164018   0.153   4.222   6.531 -2.0070  0.6314  2.4400
19394SOL    HW264019   0.117   4.368   6.512 -0.8705  0.5732 -0.6559
19395SOL     OW64020   9.774   2.838   0.440  0.8716 -0.6144 -0.0666
19395SOL    HW164021   9.771   2.884   0.524 -0.5078  0.3982 -0.6363
19395SOL    HW264022   9.828   2.894   0.385 -0.9617  0.4840 -0.8172
19396SOL     OW64023  10.221   8.280  10.923 -0.3181  0.3033  0.3803
19396SOL    HW164024  10.239   8.201  10.975  0.7016  1.4479  1.8326
19396SOL    HW264025  10.297   8.337  10.939 -0.7152  1.3226 -1.1750
19397SOL     OW64026   8.782   8.350   4.059  0.5754 -0.1202 -0.4605
19397SOL    HW164027   8.744   8.432   4.028  0.7643  0.0664 -0.2043
19397SOL    HW264028   8.738   8.283   4.007 -0.7744  0.0100  0.4527
19398SOL     OW64029   3.875   7.823   4.193 -0.5947  0.4780 -0.0796
19398SOL    HW164030   3.782   7.810   4.214 -1.4073  2.0360 -2.3256
19398SOL    HW264031   3.896   7.909   4.229 -0.7635  1.2021 -1.6166
19399SOL     OW64032  10.695   3.829   9.861  0.5520 -0.0339 -0.1631
19399SOL    HW164033  10.664   3.886   9.790  0.1095 -0.6202 -0.4537
19399SOL    HW264034  10.777   3.792   9.828  0.1088 -0.6689 -0.5745
19400SOL     OW64035   5.755   5.567   3.376 -0.1195  0.1333  0.5055
19400SOL    HW164036   5.665   5.581   3.346 -0.7107 -2.1235  1.0653
19400SOL    HW264037   5.757   5.605   3.464 -0.6244 -0.0762  0.6105
19401SOL     OW64038   4.936   1.868   2.835 -0.8589 -0.1418 -0.3208
19401SOL    HW164039   4.865   1.932   2.842 -2.1081 -1.4453 -0.4248
19401SOL    HW264040   4.927   1.814   2.913  1.2645  0.8223  0.6460
19402SOL     OW64041   7.289  10.377   9.480  0.0921  0.4148 -0.5523
19402SOL    HW164042   7.214  10.404   9.428  0.5689  1.3171 -0.7819
19402SOL    HW264043   7.329  10.306   9.430  0.3875  1.0940 -1.3015
19403SOL     OW64044   5.225   7.851   1.493 -0.0189  0.2290  0.4143
19403SOL    HW164045   5.304   7.904   1.497  1.3312 -1.6295 -0.0983
19403SOL    HW264046   5.170   7.894   1.427  1.6324  0.2424 -1.0245
19404SOL     OW64047   7.782   6.814   1.854  0.3468 -0.2159  0.1671
19404SOL    HW164048   7.776   6.880   1.785 -1.1365 -0.8938 -0.3918
19404SOL    HW264049   7.709   6.754   1.837  0.3129 -0.7543  1.9714
19405SOL     OW64050  10.875   7.351   5.557 -0.1302  0.2291 -0.2034
19405SOL    HW164051  10.808   7.418   5.538  0.1577  0.2611 -1.1907
19405SOL    HW264052  10.930   7.391   5.624  0.1197  1.0580 -0.8778
19406SOL     OW64053   9.091   6.289   0.992 -0.0119 -0.4520 -0.1725
19406SOL    HW164054   9.176   6.332   0.988  1.8296 -3.8276 -2.1220
19406SOL    HW264055   9.110   6.202   1.029 -2.6339 -1.2825 -0.5523
19407SOL     OW64056   2.007   2.934   1.684  0.1361 -0.3751 -0.0085
19407SOL    HW164057   2.043   2.919   1.771 -1.6994 -0.7365  0.7418
19407SOL    HW264058   1.950   3.011   1.696  0.5121  0.0878 -1.0997
19408SOL     OW64059   1.286   4.439   3.862  0.3231  0.3585  0.3767
19408SOL    HW164060   1.295   4.529   3.892 -0.8869  0.5441  0.2361
19408SOL    HW264061   1.196   4.416   3.882  0.4005 -0.5717 -0.2738
19409SOL     OW64062   3.388   4.700   4.063 -0.6086  0.0400  0.1052
19409SOL    HW164063   3.443   4.689   4.141  0.6906  3.7199 -0.0742
19409SOL    HW264064   3.299   4.690   4.095 -0.0413 -2.7367  1.0976
19410SOL     OW64065   4.844   5.977   5.216 -0.0296  0.6021  0.4426
19410SOL    HW164066   4.821   6.062   5.253 -1.8792 -0.6376  2.3109
19410SOL    HW264067   4.799   5.913   5.271 -0.1972 -1.5332 -1.9736
19411SOL     OW64068   8.158   5.380   5.067 -0.2182  0.0551  0.2496
19411SOL    HW164069   8.250   5.366   5.092 -0.2295  0.7245  0.6972
19411SOL    HW264070   8.163   5.433   4.988 -0.2164 -0.3210 -0.0053
19412SOL     OW64071   1.394  10.351   2.731  0.2840  0.6585 -0.3814
19412SOL    HW164072   1.401  10.271   2.783  0.0051  1.4077  0.8795
19412SOL    HW264073   1.484  10.376   2.712  0.5008  1.2823  1.2651
19413SOL     OW64074   2.755   0.404   6.616 -0.0479 -0.2067  0.4175
19413SOL    HW164075   2.674   0.452   6.632  0.3465  0.2119  1.1959
19413SOL    HW264076   2.762   0.343   6.689  0.3251 -0.2625  0.3385
19414SOL     OW64077   3.459   9.946   5.561  0.0783  0.0623 -0.1569
19414SOL    HW164078   3.374   9.938   5.518  0.1678  1.5308 -0.6618
19414SOL    HW264079   3.507  10.009   5.507  1.2469 -0.2376  0.5015
19415SOL     OW64080   1.237   1.134   8.190 -0.3209  0.4559  0.1711
19415SOL    HW164081   1.268   1.044   8.200 -1.6787  0.0175  0.6849
19415SOL    HW264082   1.264   1.160   8.102  0.6500 -0.2153  0.2597
19416SOL     OW64083  10.693   8.094   4.065 -0.1991 -0.2852 -0.1404
19416SOL    HW164084  10.787   8.090   4.044 -0.0109  0.3379  0.5266
19416SOL    HW264085  10.682   8.035   4.140  0.2054  1.6815  1.5575
19417SOL     OW64086   6.152   5.717   9.647  0.0832  0.1160  0.5518
19417SOL    HW164087   6.184   5.745   9.561 -0.3106 -1.0840 -0.0062
19417SOL    HW264088   6.132   5.799   9.693  0.7629  0.7876 -0.3104
19418SOL     OW64089   9.569  10.440   8.386  0.0055  0.0627 -0.2819
19418SOL    HW164090   9.603  10.486   8.309  1.8549 -0.0268  0.4149
19418SOL    HW264091   9.627  10.365   8.396  1.5664  1.4973  2.6983
19419SOL     OW64092   3.019   2.032   6.029 -0.2699 -0.1726  0.2491
19419SOL    HW164093   2.979   1.950   6.060 -0.3012 -0.2226  0.0746
19419SOL    HW264094   3.107   2.030   6.065 -0.8350  0.5742  1.7983
19420SOL     OW64095   3.363   7.941   0.728  0.4984  0.3156 -0.1337
19420SOL    HW164096   3.322   7.855   0.723 -0.3597  0.7305 -0.4566
19420SOL    HW264097   3.445   7.926   0.776  0.3252 -0.6575 -0.1204
19421SOL     OW64098   4.531   5.280   1.919  0.1477  0.0010  0.0752
19421SOL    HW164099   4.552   5.355   1.975  0.1062  0.0177  0.0683
19421SOL    HW264100   4.507   5.319   1.835  1.1769 -0.0690 -0.2638
19422SOL     OW64101   4.678   3.773   2.008  0.1233 -0.3681 -0.0021
19422SOL    HW164102   4.685   3.699   1.949 -0.0894 -0.2042 -0.2363
19422SOL    HW264103   4.758   3.770   2.061 -0.6495 -1.8015  1.1942
19423SOL     OW64104  10.578   4.074   0.336 -0.0862  0.2829 -0.6968
19423SOL    HW164105  10.557   4.164   0.309 -2.5014  0.6309  1.8777
19423SOL    HW264106  10.510   4.020   0.296 -0.6786  0.1210  0.4882
19424SOL     OW64107   7.786   2.490   9.913 -0.3964 -0.1745  0.7230
19424SOL    HW164108   7.831   2.573   9.902  1.6645 -1.3277  0.0572
19424SOL    HW264109   7.760   2.489  10.005  1.2837  0.3902  1.2345
19425SOL     OW64110   6.655   2.697   8.822 -0.1107 -0.0419  0.0505
19425SOL    HW164111   6.662   2.792   8.808  0.4099  0.0292  0.7245
19425SOL    HW264112   6.714   2.680   8.895  0.1061 -0.9529 -0.3306
19426SOL     OW64113   0.312   4.031   7.602 -0.2377 -0.1890  0.2016
19426SOL    HW164114   0.232   4.044   7.550  0.1364  1.2903 -0.0476
19426SOL    HW264115   0.295   3.952   7.653 -1.3543 -0.6220 -0.7906
19427SOL     OW64116   4.088   6.111  10.317  0.1020  0.3068  0.3581
19427SOL    HW164117   4.101   6.118  10.222  0.3682 -1.0861  0.2835
19427SOL    HW264118   3.998   6.080  10.326  0.4260 -0.6140  0.5131
19428SOL     OW64119   6.735   3.005   5.551  0.7050  0.1902  0.0076
19428SOL    HW164120   6.795   2.930   5.555  1.3874  0.5631 -2.1401
19428SOL    HW264121   6.683   2.991   5.472  0.0201  1.3961  0.2188
19429SOL     OW64122   0.628   3.888   9.582  0.1443  0.3935 -0.3246
19429SOL    HW164123   0.604   3.851   9.667  2.7262 -0.2027  0.2351
19429SOL    HW264124   0.684   3.963   9.603  0.7600  0.2832 -1.4720
19430SOL     OW64125   3.015   1.645   7.081  0.2578  0.0920 -0.2644
19430SOL    HW164126   3.023   1.554   7.052 -0.2348  0.2225 -0.8338
19430SOL    HW264127   3.003   1.695   7.000  0.3154  0.6394  0.0603
19431SOL     OW64128   4.797   9.331   4.490  0.7668 -0.0148  0.3737
19431SOL    HW164129   4.738   9.258   4.507 -0.2376  1.3778  3.5525
19431SOL    HW264130   4.780   9.355   4.399 -1.2039 -1.6989  0.2332
19432SOL     OW64131   2.399   6.238   8.697 -0.7301  0.2460  0.1230
19432SOL    HW164132   2.327   6.275   8.645 -1.9168  0.1186  1.6091
19432SOL    HW264133   2.400   6.145   8.675 -0.4064  0.4131 -0.5854
19433SOL     OW64134   9.367   8.928   9.577  0.1804  0.4667  0.2136
19433SOL    HW164135   9.414   8.929   9.661 -0.6822  0.9453  0.6965
19433SOL    HW264136   9.319   8.845   9.577 -1.3520  1.3194  1.0698
19434SOL     OW64137   4.881   5.287   1.147  0.1169  0.3776 -0.9660
19434SOL    HW164138   4.794   5.305   1.181 -0.0364  0.8677 -1.5955
19434SOL    HW264139   4.892   5.350   1.076  0.5350 -0.4314 -1.6305
19435SOL     OW64140   7.766   8.518   8.930 -0.2990  0.2673  0.1657
19435SOL    HW164141   7.847   8.506   8.979 -0.3765 -0.2831  0.1668
19435SOL    HW264142   7.795   8.539   8.841 -0.1611  1.6113  0.5178
19436SOL     OW64143   2.782   8.129   2.034  0.4654  0.3528 -0.3402
19436SOL    HW164144   2.738   8.174   2.106 -0.5777 -0.1769 -0.6143
19436SOL    HW264145   2.809   8.200   1.975 -1.4321  0.6479 -0.9251
19437SOL     OW64146   1.987  10.321   3.898  0.3352  0.3706  0.4608
19437SOL    HW164147   2.017  10.400   3.853 -0.8310 -0.0445 -1.1319
19437SOL    HW264148   2.068  10.277   3.924  1.0479  1.0638 -0.4975
19438SOL     OW64149   8.659   5.660   9.413 -0.5559  0.2006 -0.3765
19438SOL    HW164150   8.574   5.704   9.418  0.1291  1.6437 -0.8352
19438SOL    HW264151   8.638   5.567   9.408 -2.0473  0.3733  1.5711
19439SOL     OW64152   2.941   3.207   0.145 -0.5189  0.0250 -0.0473
19439SOL    HW164153   3.010   3.270   0.123 -0.6089 -0.2362 -1.1393
19439SOL    HW264154   2.890   3.251   0.214  0.7083  0.2232  0.7655
19440SOL     OW64155   4.665   1.685   8.525  0.8173 -0.3914 -0.2139
19440SOL    HW164156   4.671   1.629   8.602  0.4948 -2.4928 -1.6282
19440SOL    HW264157   4.572   1.703   8.516  0.7645 -0.8202 -0.5521
19441SOL     OW64158   5.384   3.696   4.819 -0.1819 -0.2370 -0.2552
19441SOL    HW164159   5.419   3.702   4.731 -0.5253  0.4993 -0.3417
19441SOL    HW264160   5.406   3.607   4.847  0.7424 -0.1649 -0.7316
19442SOL     OW64161   0.031   5.965   0.173 -0.3117 -0.2403  0.0779
19442SOL    HW164162  -0.064   5.962   0.159 -0.4120 -2.6499  0.9456
19442SOL    HW264163   0.068   5.957   0.085 -0.9077 -0.4738 -0.1576
19443SOL     OW64164  10.695   3.337   2.632 -0.2595  0.0056 -0.2067
19443SOL    HW164165  10.716   3.282   2.708  1.0872  1.9690  0.9430
19443SOL    HW264166  10.752   3.304   2.563  0.7903  0.1347  0.5651
19444SOL     OW64167   4.469   5.296   0.356 -0.0431 -0.0455  0.0712
19444SOL    HW164168   4.475   5.240   0.433 -0.1152  1.1126  0.9500
19444SOL    HW264169   4.431   5.378   0.389 -0.6363  0.2646 -1.3098
19445SOL     OW64170   5.103   9.779   0.130  0.0746 -0.5437 -0.5673
19445SOL    HW164171   5.029   9.781   0.070  0.7229 -1.4382 -1.4417
19445SOL    HW264172   5.081   9.710   0.194  0.0613 -0.6669 -0.7048
19446SOL     OW64173   4.748   5.543   0.031  0.1651 -0.7270  0.0524
19446SOL    HW164174   4.783   5.456   0.012 -0.9351 -1.5569  1.6201
19446SOL    HW264175   4.654   5.530   0.042 -0.0544  0.7001  0.0994
19447SOL     OW64176   3.277   5.374   8.875 -0.5566 -0.1248  0.0682
19447SOL    HW164177   3.296   5.291   8.832  0.9322 -0.1140  0.6576
19447SOL    HW264178   3.282   5.355   8.968  1.7564  0.9824  0.2439
19448SOL     OW64179   3.610   8.021   8.934 -0.1628 -0.5778  0.5454
19448SOL    HW164180   3.667   8.007   9.009 -0.9147 -0.7435  1.0958
19448SOL    HW264181   3.576   7.933   8.913  0.4119 -0.6100 -0.2928
19449SOL     OW64182   7.659   2.973   1.683  0.2036 -0.2060 -0.1821
19449SOL    HW164183   7.727   2.908   1.705  0.8534  0.4207 -0.2861
19449SOL    HW264184   7.707   3.043   1.640 -0.2504  1.0231  1.2348
19450SOL     OW64185   0.581   4.323   1.317 -0.1902  0.3422 -0.2739
19450SOL    HW164186   0.499   4.277   1.333 -0.0904 -0.3863 -1.6705
19450SOL    HW264187   0.557   4.414   1.306 -1.0948 -0.0884 -2.3783
19451SOL     OW64188   2.265   3.207   7.198  0.0676 -0.3690  0.8889
19451SOL    HW164189   2.179   3.188   7.236  0.5493 -2.5938  0.9987
19451SOL    HW264190   2.309   3.122   7.195  0.6777 -0.0878 -3.1982
19452SOL     OW64191   9.990   5.411   1.090  0.8587 -0.1497  0.4113
19452SOL    HW164192  10.043   5.465   1.148  1.6251  0.3146 -0.6737
19452SOL    HW264193   9.997   5.454   1.004 -1.2162 -0.1152  0.1979
19453SOL     OW64194   8.450   3.451   9.011 -0.1696  0.2704 -0.2381
19453SOL    HW164195   8.500   3.467   8.931  1.9707 -1.7804  0.5588
19453SOL    HW264196   8.394   3.376   8.990  1.2323 -1.0268  0.4086
19454SOL     OW64197   1.284   5.922   3.048 -0.5930 -0.1016  0.6964
19454SOL    HW164198   1.211   5.883   2.999  0.7104 -0.8020 -0.7868
19454SOL    HW264199   1.332   5.847   3.084  1.3248  0.0837 -1.2708
19455SOL     OW64200  10.679   8.535   4.878 -0.4752 -0.5257  0.0561
19455SOL    HW164201  10.683   8.591   4.800 -0.7858  0.6636  0.8722
19455SOL    HW264202  10.630   8.458   4.848 -0.4878 -0.1509 -0.9559
19456SOL     OW64203   2.064   6.288   1.888  0.4207 -0.0664  0.1460
19456SOL    HW164204   1.970   6.269   1.881  0.5056 -0.5074  0.1831
19456SOL    HW264205   2.086   6.266   1.979  0.6980 -0.6092 -0.0469
19457SOL     OW64206   7.594   9.175   2.666  0.5517  0.4835  0.5808
19457SOL    HW164207   7.635   9.241   2.722 -0.1546 -0.5714  2.4458
19457SOL    HW264208   7.628   9.091   2.699 -2.4119 -0.4026  1.7744
19458SOL     OW64209   5.231   4.851   0.058 -0.7234  0.3571 -0.1747
19458SOL    HW164210   5.220   4.902   0.139 -0.7420 -0.6019  0.4382
19458SOL    HW264211   5.143   4.823   0.035 -0.3793 -2.7237  1.7192
19459SOL     OW64212   0.031   8.973   9.427 -0.0822  0.2296 -0.3620
19459SOL    HW164213   0.109   8.974   9.483  0.2683  1.6302 -0.8280
19459SOL    HW264214   0.064   8.997   9.340 -1.0481  1.0082 -0.5290
19460SOL     OW64215   2.243   2.919   1.256  0.0197 -0.6915 -0.8483
19460SOL    HW164216   2.294   2.922   1.175  0.0164 -0.2258 -0.8374
19460SOL    HW264217   2.183   2.994   1.249 -2.0673 -2.3613 -1.7787
19461SOL     OW64218   5.361   5.114   4.321 -0.2079  0.2397 -0.3276
19461SOL    HW164219   5.357   5.133   4.415 -0.1281 -0.3347 -0.2013
19461SOL    HW264220   5.440   5.060   4.312 -1.1812 -1.2038 -0.4472
19462SOL     OW64221  10.768   1.852   0.733  0.1885 -0.3342 -0.4366
19462SOL    HW164222  10.721   1.862   0.816  0.7700 -1.5231  0.0623
19462SOL    HW264223  10.754   1.760   0.709  0.1329 -0.0365 -1.5969
19463SOL     OW64224   2.606   1.251   2.376 -0.4413  0.1579  0.1669
19463SOL    HW164225   2.583   1.344   2.374 -1.8237 -0.1664 -1.9051
19463SOL    HW264226   2.684   1.244   2.321 -1.9236 -0.2136 -2.0067
19464SOL     OW64227   9.094   3.436   9.703 -0.3928 -0.1628  0.4707
19464SOL    HW164228   9.030   3.495   9.744  1.1287  0.7362  1.6213
19464SOL    HW264229   9.099   3.361   9.763 -0.9152 -0.6062 -0.0231
19465SOL     OW64230   0.172  10.051   5.004  0.0389 -0.7947  0.4572
19465SOL    HW164231   0.253  10.097   5.026 -0.3869  1.1042 -1.6508
19465SOL    HW264232   0.185  10.021   4.914 -1.7737  0.0461 -0.1291
19466SOL     OW64233   7.490   1.899   6.461  0.4628  0.7385 -0.0291
19466SOL    HW164234   7.575   1.868   6.431 -0.2362  0.2883 -1.6670
19466SOL    HW264235   7.504   1.991   6.484  0.9885  1.2927 -2.2945
19467SOL     OW64236   7.850   6.703   1.390 -0.1625 -0.2662  0.2797
19467SOL    HW164237   7.895   6.720   1.472  1.5209 -4.4748  0.4876
19467SOL    HW264238   7.908   6.739   1.323  0.0868  0.2897  0.7815
19468SOL     OW64239   2.670   9.100   9.912  0.1393  0.1910 -0.2513
19468SOL    HW164240   2.747   9.100   9.969 -0.8283 -2.2315  1.1793
19468SOL    HW264241   2.598   9.130   9.968 -0.4692 -0.2557 -0.7772
19469SOL     OW64242   2.364   5.808  10.323  0.4759  0.1653 -0.1559
19469SOL    HW164243   2.295   5.836  10.262 -0.1126  0.1116  0.4716
19469SOL    HW264244   2.381   5.717  10.299 -0.6568 -0.2569  0.5591
19470SOL     OW64245   7.840   1.372  10.700 -0.3735  0.3977  0.1039
19470SOL    HW164246   7.909   1.394  10.762 -0.3014  0.4367  0.0098
19470SOL    HW264247   7.872   1.403  10.615  0.4117 -1.3912 -0.3097
19471SOL     OW64248   9.532   9.459   7.477  0.0816 -0.6885  0.4106
19471SOL    HW164249   9.500   9.549   7.467  2.5500  0.1507 -1.1248
19471SOL    HW264250   9.453   9.406   7.487 -1.5727  1.4542 -0.3815
19472SOL     OW64251   2.835   8.555   2.256 -0.3150 -0.1438  0.3585
19472SOL    HW164252   2.853   8.560   2.350  0.1864 -0.3397  0.2754
19472SOL    HW264253   2.900   8.493   2.223  0.1530  0.6639 -0.2790
19473SOL     OW64254   1.164   1.341   6.161 -0.1192  0.1844  0.2035
19473SOL    HW164255   1.077   1.324   6.199 -0.2957  2.3821  0.9300
19473SOL    HW264256   1.148   1.410   6.096  0.8660 -0.4957 -0.7770
19474SOL     OW64257   0.527   2.397   5.832  0.3551 -0.2782  0.5529
19474SOL    HW164258   0.605   2.397   5.888  0.7772 -1.7079  0.0119
19474SOL    HW264259   0.514   2.305   5.809 -1.7082 -0.1364  0.9162
19475SOL     OW64260  10.014  10.776   4.897  0.3277 -0.0813  0.8150
19475SOL    HW164261   9.956  10.844   4.862  0.3166 -0.4210  0.1485
19475SOL    HW264262   9.970  10.694   4.875  0.8871 -0.3338  0.6045
19476SOL     OW64263   6.124  10.715  10.244 -0.4285 -0.4343  0.3289
19476SOL    HW164264   6.149  10.634  10.199  0.9870  0.7249 -1.1425
19476SOL    HW264265   6.142  10.784  10.179 -1.3253  1.0720  1.6224
19477SOL     OW64266   5.651   8.159   5.675 -0.0916  0.2183  0.2563
19477SOL    HW164267   5.704   8.213   5.616  1.1736 -0.3933  0.8013
19477SOL    HW264268   5.590   8.220   5.716 -0.4865  0.7805 -1.1159
19478SOL     OW64269   4.107   7.447  10.294 -0.2772 -0.2733 -0.7294
19478SOL    HW164270   4.020   7.473  10.264  0.0543  0.4302 -1.0931
19478SOL    HW264271   4.159   7.439  10.214  0.1976  0.0570 -0.4591
19479SOL     OW64272   1.293   8.647   4.667 -0.5443 -0.1808  0.0411
19479SOL    HW164273   1.239   8.663   4.744 -3.2227  2.6316 -2.1654
19479SOL    HW264274   1.234   8.603   4.605 -0.3070  2.3508 -2.1960
19480SOL     OW64275   1.913  10.840   4.536  0.2606  0.0165 -0.2345
19480SOL    HW164276   1.984  10.777   4.547  0.7695  0.9409  2.5224
19480SOL    HW264277   1.840  10.803   4.584 -0.9824 -0.5543 -2.4134
19481SOL     OW64278   5.765   3.311   8.121  0.5580  0.5649 -0.0608
19481SOL    HW164279   5.834   3.250   8.148  0.7851  1.0391  0.4535
19481SOL    HW264280   5.812   3.389   8.093  0.3602 -0.1183 -2.4632
19482SOL     OW64281   5.364   9.422  10.111  0.3172 -0.4830  0.0958
19482SOL    HW164282   5.332   9.352  10.055 -0.8395 -0.0539  0.1994
19482SOL    HW264283   5.346   9.503  10.062 -1.1067 -0.0684  1.2288
19483SOL     OW64284   1.945   3.161   8.798 -0.0853  0.1623 -0.2950
19483SOL    HW164285   1.959   3.242   8.748  0.6006 -0.0524 -0.4603
19483SOL    HW264286   1.860   3.129   8.768 -1.5787  2.0930  1.5518
19484SOL     OW64287   3.798   0.008   0.279 -0.0882  0.1515  0.5163
19484SOL    HW164288   3.855  -0.057   0.239  2.0192  2.1681 -0.0223
19484SOL    HW264289   3.820   0.090   0.234 -1.0751  1.6340  2.5392
19485SOL     OW64290   0.284   8.575  10.676 -0.5649  0.1051  0.1851
19485SOL    HW164291   0.242   8.611  10.754  0.9246 -0.1066  1.1229
19485SOL    HW264292   0.211   8.541  10.623 -1.6443  0.7404  1.2108
19486SOL     OW64293  10.163   7.574   2.068  0.1767 -0.0006 -0.3310
19486SOL    HW164294  10.123   7.555   1.983 -0.9101  0.8786 -0.0394
19486SOL    HW264295  10.248   7.530   2.064  0.1983  0.0988 -1.9053
19487SOL     OW64296   0.771   4.869   7.286 -0.1243 -0.8093 -0.2440
19487SOL    HW164297   0.718   4.792   7.309 -0.7090 -0.2285  0.4087
19487SOL    HW264298   0.719   4.916   7.221 -0.4795 -0.1845  0.4713
19488SOL     OW64299   7.735   2.411   8.103 -0.0465 -0.2023  0.2088
19488SOL    HW164300   7.765   2.470   8.033  1.3262 -0.6448  0.3927
19488SOL    HW264301   7.704   2.333   8.057  0.2403 -0.2315  0.0631
19489SOL     OW64302   6.473   1.826   3.526  0.3551  0.5499 -0.0891
19489SOL    HW164303   6.532   1.751   3.517  0.0541  0.4037 -0.9690
19489SOL    HW264304   6.434   1.836   3.439 -1.7683 -0.0567  0.7329
19490SOL     OW64305   5.239   1.604   1.074 -0.2918 -0.2073  0.5934
19490SOL    HW164306   5.165   1.651   1.113  1.5070  2.3429  1.2052
19490SOL    HW264307   5.248   1.642   0.986  0.0169 -0.8175  0.3561
19491SOL     OW64308   5.894   1.117   4.482  0.7763 -0.0659 -0.3420
19491SOL    HW164309   5.889   1.059   4.406 -1.0251  0.0651 -0.3470
19491SOL    HW264310   5.820   1.176   4.473  1.0074  0.4803  1.0905
19492SOL     OW64311   6.492   1.697   9.672 -0.0503  0.1687 -0.3829
19492SOL    HW164312   6.549   1.623   9.652 -2.6741 -2.1699  0.1649
19492SOL    HW264313   6.501   1.710   9.767 -0.8314 -0.5930 -0.1977
19493SOL     OW64314   1.863   2.317   5.077  0.2520  0.1402 -0.3086
19493SOL    HW164315   1.933   2.283   5.021 -0.3174  0.6203 -1.3338
19493SOL    HW264316   1.786   2.318   5.021 -0.5349 -0.1466  0.7400
19494SOL     OW64317   9.805  10.020   2.991  0.2586 -0.0123 -0.6158
19494SOL    HW164318   9.777  10.040   2.902 -0.9925 -1.4859 -0.5992
19494SOL    HW264319   9.788   9.926   3.001 -0.0007  0.2064  1.3030
19495SOL     OW64320   7.027   6.692   5.214  0.4383  0.3109  0.5495
19495SOL    HW164321   7.009   6.634   5.288  1.0488  1.1260  1.3482
19495SOL    HW264322   6.989   6.646   5.139  0.3372 -0.8166  1.2598
19496SOL     OW64323   0.472  10.396   2.451 -0.2725 -0.3219 -0.1625
19496SOL    HW164324   0.502  10.348   2.528 -0.7456 -1.0611 -0.4379
19496SOL    HW264325   0.405  10.341   2.411 -1.1770  0.7764 -0.2187
19497SOL     OW64326   8.133   9.322   5.331 -0.3531  0.3323 -0.1178
19497SOL    HW164327   8.181   9.283   5.258  0.4812  3.0894 -1.1576
19497SOL    HW264328   8.042   9.294   5.317  0.5344 -3.8319  1.1181
19498SOL     OW64329   3.262   8.511   2.036 -0.3597  0.3099 -0.3567
19498SOL    HW164330   3.349   8.472   2.036 -0.5154 -0.0413 -0.2333
19498SOL    HW264331   3.211   8.455   1.977 -1.6043 -1.9763  2.6063
19499SOL     OW64332   5.094   2.406   9.576 -0.2842 -0.2632 -0.7518
19499SOL    HW164333   5.048   2.392   9.659  0.7689 -0.1560 -0.1249
19499SOL    HW264334   5.151   2.481   9.593  1.3506 -1.4139 -0.9459
19500SOL     OW64335   6.875   4.437   0.725 -0.2031 -0.1982  0.4556
19500SOL    HW164336   6.799   4.487   0.755 -0.4745 -1.2089  1.4987
19500SOL    HW264337   6.866   4.437   0.629 -0.7893  0.8150  0.4972
19501SOL     OW64338   6.783   2.102   2.616  0.1429  0.4258  0.0780
19501SOL    HW164339   6.877   2.114   2.615  0.3402  0.8349 -4.8421
19501SOL    HW264340   6.770   2.009   2.636  1.6372  0.2095  0.1083
19502SOL     OW64341   9.783   4.212   0.116  0.3438  0.0933 -0.6063
19502SOL    HW164342   9.861   4.195   0.168  0.0343 -1.2975 -0.5484
19502SOL    HW264343   9.812   4.199   0.025 -0.2411 -2.6446 -0.5080
19503SOL     OW64344  10.423   8.757   5.498 -0.0252 -0.2115  0.0143
19503SOL    HW164345  10.432   8.670   5.460  0.7609 -0.5368  0.9059
19503SOL    HW264346  10.509   8.776   5.536 -0.8631 -0.0936  1.9867
19504SOL     OW64347   6.910   5.142   4.030 -0.1640 -0.4719 -0.0999
19504SOL    HW164348   6.955   5.143   3.945 -0.2328  2.0720 -0.1584
19504SOL    HW264349   6.821   5.171   4.010  0.2953  1.9109  1.0231
19505SOL     OW64350   4.009   3.428   6.136  0.2321  0.5889  0.5864
19505SOL    HW164351   4.096   3.404   6.102 -0.1418 -0.5125  0.3621
19505SOL    HW264352   3.975   3.491   6.073  0.8893  1.0779  0.7081
19506SOL     OW64353   4.919  10.260   2.414 -0.7034 -0.2112 -0.1075
19506SOL    HW164354   4.911  10.186   2.355 -0.2086  0.3037 -0.8297
19506SOL    HW264355   4.974  10.228   2.486  1.1843  0.0033 -1.3810
19507SOL     OW64356   5.289   3.587   4.300 -0.2747  0.3128 -0.7727
19507SOL    HW164357   5.328   3.561   4.384 -2.1469  1.0158  0.3814
19507SOL    HW264358   5.330   3.671   4.280 -1.5328  1.3450  0.7380
19508SOL     OW64359   7.340   3.009   7.914 -0.1495 -0.0059 -0.8142
19508SOL    HW164360   7.322   2.986   8.006  0.6534  1.0202 -0.3839
19508SOL    HW264361   7.253   3.012   7.873 -0.5492 -0.1022 -0.0031
19509SOL     OW64362   9.110   4.157   4.438  0.2687 -0.2280  0.5639
19509SOL    HW164363   9.133   4.177   4.529  1.8490  0.3514  0.0920
19509SOL    HW264364   9.031   4.104   4.443  0.6610 -0.7110  2.3035
19510SOL     OW64365   9.842   7.677  10.205 -0.5598 -0.4310  0.4713
19510SOL    HW164366   9.758   7.723  10.208 -0.9517 -1.1690  1.1358
19510SOL    HW264367   9.884   7.700  10.288 -1.8142 -3.1549  2.0045
19511SOL     OW64368   9.934   5.473   4.116 -0.0017 -0.8208  0.3740
19511SOL    HW164369   9.987   5.442   4.043 -0.6173 -3.7904  1.0532
19511SOL    HW264370   9.982   5.446   4.194 -0.1082  0.9514  1.1192
19512SOL     OW64371   1.567   2.331   7.763  0.0299 -0.3029 -0.2662
19512SOL    HW164372   1.617   2.398   7.810  1.7331  0.0391 -2.3969
19512SOL    HW264373   1.478   2.365   7.760  0.3056  0.6036  0.8802
19513SOL     OW64374   2.039   7.345   3.905  0.0013 -0.5910  0.3716
19513SOL    HW164375   2.022   7.270   3.849 -0.4968 -1.1702  1.2775
19513SOL    HW264376   2.130   7.335   3.933 -0.1557 -1.0109  0.7265
19514SOL     OW64377   7.890   9.230   6.645 -0.2497 -0.3608  0.3033
19514SOL    HW164378   7.957   9.170   6.612 -0.1882 -0.1752  0.0915
19514SOL    HW264379   7.908   9.313   6.601 -0.4847 -0.2514  0.4120
19515SOL     OW64380   6.043   9.168  10.874  0.4297  0.2599 -0.0490
19515SOL    HW164381   6.078   9.084  10.904  0.3430 -0.3194 -1.4687
19515SOL    HW264382   6.119   9.215  10.840  0.4229  0.6054  0.4194
19516SOL     OW64383   7.055   4.925   4.232 -0.3052 -0.4906 -0.1783
19516SOL    HW164384   7.034   4.839   4.193 -0.2534 -1.4989  1.9063
19516SOL    HW264385   7.067   4.907   4.325 -1.0101  1.9284  0.4421
19517SOL     OW64386   9.998   4.349   5.238 -0.0414 -0.1619 -0.0073
19517SOL    HW164387  10.063   4.417   5.253  1.0661 -1.1813  0.0328
19517SOL    HW264388   9.929   4.392   5.188  0.8761  0.8550 -0.4484
19518SOL     OW64389   9.814   2.953   4.714  0.3536  0.5290 -0.3919
19518SOL    HW164390   9.875   2.884   4.686  0.6804 -0.9076  3.2774
19518SOL    HW264391   9.728   2.915   4.699  0.5304 -0.7438  1.5011
19519SOL     OW64392   6.857   6.354  10.653  0.5225 -0.0802  0.0195
19519SOL    HW164393   6.866   6.436  10.603 -0.4378 -0.4608 -0.8261
19519SOL    HW264394   6.938   6.306  10.636  0.5550  0.1605 -0.5164
19520SOL     OW64395   6.224  10.411   0.926  0.2819 -0.1329 -0.2380
19520SOL    HW164396   6.198  10.496   0.892  1.4590  0.2479 -0.2141
19520SOL    HW264397   6.288  10.378   0.864  2.2759  0.4639  1.3902
19521SOL     OW64398   8.025   6.350  10.010 -0.0919 -0.2419 -0.4922
19521SOL    HW164399   8.073   6.267  10.004 -0.7165 -0.5565 -1.4349
19521SOL    HW264400   7.975   6.354   9.929  0.1979  1.2428 -0.6179
19522SOL     OW64401   0.150   6.004  10.552  0.1497 -0.1052 -0.3058
19522SOL    HW164402   0.186   6.073  10.608 -0.3176 -0.4433  0.4329
19522SOL    HW264403   0.056   6.020  10.553  0.0573 -0.6316 -0.2808
19523SOL     OW64404   8.309   5.008   5.192 -0.4216  0.0806 -0.4193
19523SOL    HW164405   8.306   4.991   5.098  1.0131  0.2135 -0.5092
19523SOL    HW264406   8.223   5.045   5.213 -1.0504 -0.7220 -1.5127
19524SOL     OW64407   0.421   4.265   3.991  0.2710  0.2531  0.9814
19524SOL    HW164408   0.374   4.183   4.008  0.1190  0.3553  1.0593
19524SOL    HW264409   0.363   4.333   4.024 -0.3776  0.5152 -0.5801
19525SOL     OW64410   8.713  10.041   6.633  0.2328  0.5790  0.6534
19525SOL    HW164411   8.786   9.979   6.634  1.5454  2.0342  2.6325
19525SOL    HW264412   8.685  10.044   6.542  1.8333 -0.9425  0.0625
19526SOL     OW64413   3.998   8.537   5.038  0.0241 -0.6338  0.4829
19526SOL    HW164414   4.019   8.630   5.031  1.2398 -1.0072 -3.3866
19526SOL    HW264415   4.083   8.493   5.039 -0.4679 -1.7388 -1.1887
19527SOL     OW64416   3.724   4.956   2.661  0.3311  0.8726 -0.4924
19527SOL    HW164417   3.758   4.868   2.642 -1.3927  0.4932 -2.0357
19527SOL    HW264418   3.799   5.003   2.698  1.3476 -1.1724  0.1888
19528SOL     OW64419   9.023   7.083   8.656  0.1222 -0.2565  0.2564
19528SOL    HW164420   9.094   7.029   8.619 -0.2222 -0.9517  0.5930
19528SOL    HW264421   9.062   7.126   8.731  0.3200 -0.2641  0.1594
19529SOL     OW64422   7.041   6.267   4.742 -0.3429 -0.3415  0.2840
19529SOL    HW164423   7.105   6.257   4.813  3.9676  0.5346 -3.0331
19529SOL    HW264424   7.056   6.190   4.687 -0.0273  1.2874 -2.0314
19530SOL     OW64425  10.668   8.010   9.138 -0.4508 -0.1989 -0.5105
19530SOL    HW164426  10.702   8.076   9.077  0.2968 -1.6500 -1.7115
19530SOL    HW264427  10.743   7.987   9.193 -0.6840 -0.1644 -0.1717
19531SOL     OW64428   7.517  10.520   8.045 -0.0327 -0.2009  0.2893
19531SOL    HW164429   7.494  10.488   8.132  0.9936 -0.8819  0.3234
19531SOL    HW264430   7.442  10.574   8.019 -0.6593 -0.5571  1.2934
19532SOL     OW64431   2.803   2.100   8.061  0.2515 -0.3299 -0.0538
19532SOL    HW164432   2.736   2.068   8.121 -0.7574  0.4458 -0.7429
19532SOL    HW264433   2.806   2.035   7.991  0.6746 -0.6808  0.2805
19533SOL     OW64434   8.232   8.268   7.167 -0.1448 -0.2586 -0.1333
19533SOL    HW164435   8.318   8.295   7.134  0.2454 -1.9119 -0.5573
19533SOL    HW264436   8.200   8.204   7.103 -0.8377 -1.0991  1.0053
19534SOL     OW64437   5.743   8.298   3.764 -0.6764 -0.0603  0.1761
19534SOL    HW164438   5.771   8.327   3.677 -0.6438  0.2866  0.3018
19534SOL    HW264439   5.708   8.377   3.806  0.5444  0.0792  0.9770
19535SOL     OW64440   8.570   0.056   5.034 -0.1602  0.0732 -0.1954
19535SOL    HW164441   8.627   0.125   5.070 -0.1687 -0.5832  1.1370
19535SOL    HW264442   8.515   0.101   4.970  1.6030  0.8044 -1.2851
19536SOL     OW64443   7.422   7.048   7.789 -0.0302 -0.0460 -0.4280
19536SOL    HW164444   7.453   6.977   7.845 -1.4555 -0.7377 -0.4669
19536SOL    HW264445   7.465   7.126   7.824  1.2290 -0.8545 -0.1112
19537SOL     OW64446   4.821   1.981   1.707  0.4663  0.0499  0.7097
19537SOL    HW164447   4.781   2.064   1.732 -0.9624 -0.0993 -0.8466
19537SOL    HW264448   4.746   1.922   1.694  1.3861 -1.1317  0.5988
19538SOL     OW64449   9.195   1.682   5.797  0.0248 -0.2507 -0.8965
19538SOL    HW164450   9.284   1.717   5.797  0.3261 -0.9520  0.1422
19538SOL    HW264451   9.143   1.746   5.846  0.3165 -0.6199 -0.0817
19539SOL     OW64452   3.330   7.269   2.010  0.5249  0.2295  0.5533
19539SOL    HW164453   3.398   7.309   2.064  0.7956  1.5308 -0.6857
19539SOL    HW264454   3.274   7.342   1.984  1.9865  0.2504 -3.1813
19540SOL     OW64455   4.126   0.694   2.260  0.5856  0.5803  0.0787
19540SOL    HW164456   4.083   0.658   2.338  0.5822 -1.5459 -0.8419
19540SOL    HW264457   4.215   0.713   2.290  0.2347  0.9632  0.9157
19541SOL     OW64458   6.519   5.266   5.351 -0.0459 -0.7510 -0.1227
19541SOL    HW164459   6.468   5.347   5.347  0.4865 -0.4314 -0.5789
19541SOL    HW264460   6.469   5.203   5.299 -0.7355 -0.8787  0.6726
19542SOL     OW64461   5.509  10.772   6.959 -0.4218  0.2527 -0.3780
19542SOL    HW164462   5.587  10.817   6.928  0.1993 -0.6340 -0.1432
19542SOL    HW264463   5.498  10.698   6.899  0.2524 -0.9283  0.8812
19543SOL     OW64464   5.895  10.199   1.023  0.2552  0.5917 -0.2190
19543SOL    HW164465   5.896  10.269   1.088  0.3672  0.4410 -0.0601
19543SOL    HW264466   5.820  10.145   1.049  1.7852 -0.8979  1.2973
19544SOL     OW64467   0.881   6.832   1.001 -0.0809 -0.1466  0.2633
19544SOL    HW164468   0.868   6.927   1.002 -1.0570 -0.2781  0.7674
19544SOL    HW264469   0.848   6.805   0.915  0.2051 -0.0398  0.1161
19545SOL     OW64470   3.242   9.247   5.551  0.2597  0.6591  0.5929
19545SOL    HW164471   3.310   9.209   5.495 -0.4587 -0.4413  0.4345
19545SOL    HW264472   3.238   9.339   5.525 -1.0050 -0.0711 -2.1746
19546SOL     OW64473   7.110   8.988   6.493  0.0700  0.7607  0.3894
19546SOL    HW164474   7.130   8.905   6.536  0.5026  1.2375  1.1188
19546SOL    HW264475   7.019   8.978   6.462  0.3527 -0.2440 -0.1731
19547SOL     OW64476  10.526  10.493   9.057  0.8792 -0.0916 -0.0255
19547SOL    HW164477  10.589  10.536   8.999  1.5223  0.0888  0.7767
19547SOL    HW264478  10.490  10.421   9.005 -1.2263  2.1457 -1.8866
19548SOL     OW64479   7.529   2.697   5.887 -0.2143 -0.3466 -0.5435
19548SOL    HW164480   7.439   2.689   5.917 -0.4866 -2.0495 -1.6946
19548SOL    HW264481   7.557   2.607   5.869  1.6517  0.1575 -0.4210
19549SOL     OW64482   1.138   7.777   6.889 -0.5665  0.3829  0.5688
19549SOL    HW164483   1.175   7.810   6.807 -1.0497  0.6550  0.4606
19549SOL    HW264484   1.068   7.838   6.911 -0.5377  0.2287  1.1106
19550SOL     OW64485   9.821   3.766   0.549 -0.1020 -0.1516  0.4412
19550SOL    HW164486   9.863   3.754   0.465 -0.4817  1.0112  0.0630
19550SOL    HW264487   9.839   3.857   0.572 -0.0615 -0.4322  1.5883
19551SOL     OW64488   8.214   5.489   4.082 -0.5515  0.0678  0.0976
19551SOL    HW164489   8.125   5.504   4.115 -0.4177 -2.1904  1.6593
19551SOL    HW264490   8.211   5.403   4.041  1.0585 -0.3019  0.6856
19552SOL     OW64491   5.604   9.738   8.743 -0.3076 -0.3101  0.0633
19552SOL    HW164492   5.567   9.652   8.725 -0.0693 -0.2626 -0.6929
19552SOL    HW264493   5.605   9.744   8.839  0.0681 -1.3232  0.1431
19553SOL     OW64494   9.604   6.505   6.849 -0.1836 -0.7862  0.2810
19553SOL    HW164495   9.609   6.562   6.772  0.6646 -2.2462 -0.7825
19553SOL    HW264496   9.691   6.512   6.889 -0.9304  0.7751  1.7561
19554SOL     OW64497   0.882   9.752   9.252 -0.6603  0.1307  0.4761
19554SOL    HW164498   0.879   9.731   9.346  0.1407 -0.0701  0.4669
19554SOL    HW264499   0.835   9.835   9.245  0.3883  0.8207  1.2581
19555SOL     OW64500   8.163   0.495   9.120 -0.1249  0.6677  0.3332
19555SOL    HW164501   8.071   0.493   9.146 -0.3473 -0.1980 -0.4602
19555SOL    HW264502   8.161   0.522   9.028  0.3187 -0.5043 -0.0361
19556SOL     OW64503   3.223   7.468   2.983  0.1199 -0.1930  0.0599
19556SOL    HW164504   3.269   7.457   2.900  0.2750 -0.9329  0.2352
19556SOL    HW264505   3.263   7.404   3.041 -0.6438 -0.3549  0.4259
19557SOL     OW64506   4.364   4.933   6.734  0.1555 -0.1167  0.3488
19557SOL    HW164507   4.406   4.933   6.820  0.0284 -0.5743  0.4136
19557SOL    HW264508   4.314   4.851   6.731  1.8922 -1.2079 -1.0137
19558SOL     OW64509   0.433   7.854   6.937  0.0469  0.0437  0.1150
19558SOL    HW164510   0.479   7.770   6.934  1.3859  0.7784 -0.8188
19558SOL    HW264511   0.363   7.845   6.872  0.7447 -0.0431 -0.6378
19559SOL     OW64512   5.397   8.265   5.461  0.1974  0.2561  0.1760
19559SOL    HW164513   5.483   8.275   5.501 -0.1160 -0.2782  1.0193
19559SOL    HW264514   5.412   8.275   5.368  1.0313  1.0462  0.3902
19560SOL     OW64515   0.441   9.875   7.808 -0.1819  0.2776  0.3002
19560SOL    HW164516   0.477   9.930   7.738 -0.6795 -1.2501 -1.2213
19560SOL    HW264517   0.498   9.799   7.811 -1.0833 -0.4125  0.4412
19561SOL     OW64518   0.997   0.933   4.501  0.1263  0.3550  0.4830
19561SOL    HW164519   0.996   0.974   4.588 -1.1763 -0.2351  0.7799
19561SOL    HW264520   0.935   0.986   4.450  1.2402  0.9918 -0.2568
19562SOL     OW64521   7.612   2.351   6.150 -0.5703  0.0762  0.4132
19562SOL    HW164522   7.650   2.413   6.213  0.4468 -0.6019  0.4840
19562SOL    HW264523   7.531   2.322   6.192 -0.1169 -0.0478  1.2293
19563SOL     OW64524   0.422   6.102   3.275 -0.7188 -0.5854  0.0296
19563SOL    HW164525   0.495   6.162   3.265 -0.2664 -1.2889 -1.1564
19563SOL    HW264526   0.452   6.038   3.340 -1.1758  0.4071  1.2391
19564SOL     OW64527  10.899   7.865  10.017  0.0630  0.3693 -0.5549
19564SOL    HW164528  10.903   7.879  10.111 -0.8689  0.6250 -0.5424
19564SOL    HW264529  10.919   7.772  10.005  1.5963  0.6318 -0.2389
19565SOL     OW64530   1.716   6.367   6.063 -0.1100  0.2460  0.3527
19565SOL    HW164531   1.755   6.410   6.139  0.2667 -1.8086  1.3883
19565SOL    HW264532   1.683   6.283   6.096 -0.4684 -0.4670 -1.6290
19566SOL     OW64533   4.137   8.036   2.224 -0.4665 -0.6734 -0.4253
19566SOL    HW164534   4.138   7.980   2.302 -0.3964 -0.9595 -0.6293
19566SOL    HW264535   4.055   8.086   2.231 -0.7240 -1.0870 -0.4390
19567SOL     OW64536   4.173   4.120   6.071 -0.6211  0.8891 -0.0411
19567SOL    HW164537   4.127   4.148   5.991 -0.5836  0.0029 -0.3941
19567SOL    HW264538   4.108   4.129   6.140 -2.3555 -2.8179 -0.9078
19568SOL     OW64539   3.089   6.332   3.499  0.1761  0.5423 -0.0552
19568SOL    HW164540   3.100   6.251   3.549  0.6865  0.3475 -0.4796
19568SOL    HW264541   3.175   6.373   3.501 -0.0862  1.0884  0.1752
19569SOL     OW64542   1.618   4.311   1.755 -0.3205  0.3923 -0.2802
19569SOL    HW164543   1.531   4.314   1.715 -0.7806 -0.2542  0.6498
19569SOL    HW264544   1.674   4.354   1.691 -1.0547 -0.4766 -1.5648
19570SOL     OW64545   9.032   4.699  10.114  0.3865  0.2870 -0.1191
19570SOL    HW164546   8.955   4.677  10.166 -0.4243  0.1745 -1.3093
19570SOL    HW264547   9.014   4.660  10.028  1.0306  1.6469 -0.9045
19571SOL     OW64548   5.118   7.839   9.650 -0.0675  0.2787 -0.2589
19571SOL    HW164549   5.078   7.752   9.651  0.2190  0.1504  0.0622
19571SOL    HW264550   5.079   7.885   9.724 -1.8244  1.1653 -1.6410
19572SOL     OW64551   1.964   5.101   0.783  0.3615  0.7011 -0.2493
19572SOL    HW164552   2.052   5.112   0.819 -0.3385  1.5389  1.3619
19572SOL    HW264553   1.967   5.147   0.699  1.7325 -0.2158 -0.7367
19573SOL     OW64554   2.623   0.458   0.222  0.1849 -0.6464 -0.4907
19573SOL    HW164555   2.585   0.510   0.293  0.7737 -0.8816  0.0092
19573SOL    HW264556   2.637   0.372   0.261  3.6426  0.0950  0.2080
19574SOL     OW64557   8.639   1.097   8.829 -0.2763  0.1967  0.4680
19574SOL    HW164558   8.610   1.187   8.810 -0.7173 -0.0919 -0.2540
19574SOL    HW264559   8.612   1.083   8.920  0.8158  1.1929  0.9722
19575SOL     OW64560   4.580   7.722   5.054  0.1493  0.2245 -0.1140
19575SOL    HW164561   4.539   7.808   5.052  1.7585  1.0150 -1.1188
19575SOL    HW264562   4.530   7.670   4.991 -0.6330  0.5141  0.2608
19576SOL     OW64563   1.670   4.752   8.738  0.0639 -0.2899  0.0492
19576SOL    HW164564   1.685   4.838   8.779  1.0338 -0.7845  0.7704
19576SOL    HW264565   1.588   4.721   8.777 -0.5698  0.5153 -0.5962
19577SOL     OW64566   1.539   6.473   1.810  0.2175 -0.2985  0.1815
19577SOL    HW164567   1.568   6.407   1.873 -0.0998 -0.9466 -0.3448
19577SOL    HW264568   1.488   6.535   1.862  0.2600 -0.6293  0.6233
19578SOL     OW64569   4.020   6.308   1.570  0.5861 -0.2964  0.5619
19578SOL    HW164570   3.968   6.264   1.638 -0.2742  0.2991  0.2991
19578SOL    HW264571   4.070   6.374   1.618  0.2344 -0.1033  0.6703
19579SOL     OW64572   6.492   2.114   6.322  0.2969  0.2914  0.2065
19579SOL    HW164573   6.503   2.156   6.407 -0.2615  0.7532  0.0573
19579SOL    HW264574   6.574   2.067   6.307 -0.4023 -1.6211  1.9784
19580SOL     OW64575   8.858  10.763   4.783 -0.4284  0.0594  0.0378
19580SOL    HW164576   8.907  10.793   4.859  1.3500 -3.1006  0.3153
19580SOL    HW264577   8.923  10.754   4.714 -1.3444 -0.5071 -0.7837
19581SOL     OW64578   2.401   2.691  10.059 -0.0691 -0.1132  0.3786
19581SOL    HW164579   2.379   2.617  10.003  0.4699 -0.3111  0.4168
19581SOL    HW264580   2.320   2.741  10.067 -0.4553 -0.7552  0.4362
19582SOL     OW64581   6.599   8.675   7.191 -0.3585 -0.2232  0.2227
19582SOL    HW164582   6.609   8.672   7.287  1.9863  0.1147  0.0296
19582SOL    HW264583   6.651   8.750   7.164 -1.3277 -0.0670 -1.3241
19583SOL     OW64584   1.481   1.205   8.386  0.0462 -0.4651  0.2132
19583SOL    HW164585   1.423   1.281   8.379  0.4421 -0.2484 -0.9840
19583SOL    HW264586   1.433   1.144   8.442 -1.8124 -0.6826 -1.4611
19584SOL     OW64587   6.331   6.302   1.298  0.8017  0.0356 -0.1583
19584SOL    HW164588   6.358   6.377   1.351 -1.4173 -0.3058  1.5754
19584SOL    HW264589   6.236   6.309   1.293  0.7933 -0.7603 -2.9833
19585SOL     OW64590   3.283   6.311   1.559  0.7838  0.5639  0.1317
19585SOL    HW164591   3.282   6.320   1.654 -0.5767 -0.7407  0.2750
19585SOL    HW264592   3.193   6.327   1.532  0.8592 -0.4370 -0.7901
19586SOL     OW64593   4.159   4.296   2.998  0.2552 -0.9382  0.1384
19586SOL    HW164594   4.132   4.356   2.928 -3.1005 -2.2721  0.0887
19586SOL    HW264595   4.254   4.301   2.999  0.3544  0.5500 -3.2531
19587SOL     OW64596  10.142   3.438   8.873 -0.2849  0.0787 -0.1443
19587SOL    HW164597  10.101   3.402   8.952  0.3561  1.8222  1.0444
19587SOL    HW264598  10.113   3.380   8.803 -2.1347 -0.6373  1.1247
19588SOL     OW64599   4.311   5.167   9.274  0.3952  0.2566  0.1195
19588SOL    HW164600   4.264   5.233   9.223 -0.3734 -0.1561  0.2721
19588SOL    HW264601   4.250   5.094   9.280  0.7602  0.0091  0.9999
19589SOL     OW64602   6.103   3.641   8.322 -0.2313 -0.1226 -0.1180
19589SOL    HW164603   6.022   3.671   8.362 -1.7369 -2.5426 -1.1222
19589SOL    HW264604   6.170   3.652   8.390 -1.7342  0.3005  1.3428
19590SOL     OW64605   2.909   4.912   4.375  0.1566  0.1302  0.0366
19590SOL    HW164606   2.913   4.933   4.468 -0.3378 -2.3464  0.6643
19590SOL    HW264607   2.816   4.901   4.356  0.3538 -0.8860 -0.3769
19591SOL     OW64608   9.133   5.571   3.419  0.1039  0.1173 -0.6741
19591SOL    HW164609   9.110   5.481   3.442  0.7451 -0.0680 -0.7420
19591SOL    HW264610   9.157   5.612   3.502  0.1701  0.1167 -0.6924
19592SOL     OW64611   7.632   6.898   4.380  0.5215  0.2239 -0.5167
19592SOL    HW164612   7.642   6.891   4.475  0.7361 -1.2543 -0.6232
19592SOL    HW264613   7.559   6.959   4.368 -0.2587 -0.4503  0.6265
19593SOL     OW64614  10.680   3.338   1.506  0.2736  0.4589 -0.2092
19593SOL    HW164615  10.658   3.251   1.474  1.1505 -1.4042  3.5798
19593SOL    HW264616  10.600   3.369   1.548  0.6877  0.2224  0.7886
19594SOL     OW64617   6.663   4.555   2.996  0.0574 -0.2820 -0.3408
19594SOL    HW164618   6.756   4.538   2.982 -0.0602 -1.5356  0.2110
19594SOL    HW264619   6.629   4.577   2.909  1.1779  1.9978 -0.2686
19595SOL     OW64620  10.438   3.672   1.247  0.5062 -0.0136 -0.2516
19595SOL    HW164621  10.407   3.677   1.338  1.3248 -1.4359  0.1388
19595SOL    HW264622  10.527   3.707   1.251  0.7438 -0.5885 -0.3875
19596SOL     OW64623   2.718   3.134   6.416 -0.0804  0.1102 -0.2681
19596SOL    HW164624   2.743   3.199   6.350 -0.1686 -1.1752 -1.6169
19596SOL    HW264625   2.760   3.053   6.387  0.1624 -0.4259  1.4675
19597SOL     OW64626   5.927   7.368   2.041 -0.3148 -0.3057 -0.3498
19597SOL    HW164627   5.991   7.300   2.064  0.2775  0.0336 -0.9434
19597SOL    HW264628   5.959   7.403   1.958 -1.5052 -0.4042 -0.8710
19598SOL     OW64629   5.201   6.599   0.228  0.0170 -0.1003 -0.0692
19598SOL    HW164630   5.226   6.524   0.281 -1.7688  0.7067  2.0769
19598SOL    HW264631   5.197   6.672   0.290 -0.4884  1.2850 -1.6549
19599SOL     OW64632   8.666   2.264  10.261  0.0521  0.2127  0.4081
19599SOL    HW164633   8.582   2.297  10.293  0.6808  2.3697 -0.0605
19599SOL    HW264634   8.665   2.171  10.285 -1.3330  0.7525  2.8096
19600SOL     OW64635   1.100   9.852   1.845 -0.5372  0.1773 -0.0684
19600SOL    HW164636   1.096   9.925   1.906 -0.2204  0.3475 -0.2480
19600SOL    HW264637   1.153   9.785   1.889 -1.7488 -0.3973  0.5621
19601SOL     OW64638   0.473   9.690   4.770 -0.0747 -0.3505  0.3126
19601SOL    HW164639   0.515   9.604   4.771 -0.2317 -0.4820 -1.4374
19601SOL    HW264640   0.494   9.726   4.684 -0.3929  1.1791  0.8431
19602SOL     OW64641  10.540   4.695   3.408 -0.2601 -0.2530 -0.3040
19602SOL    HW164642  10.569   4.732   3.492 -0.1235  2.1273 -1.3118
19602SOL    HW264643  10.451   4.728   3.397 -0.5588 -1.2036 -0.7378
19603SOL     OW64644   1.063   4.155   4.209  0.1981 -0.0039 -0.0950
19603SOL    HW164645   1.056   4.062   4.185 -1.0390  0.2910 -0.9973
19603SOL    HW264646   1.142   4.185   4.164  1.4071 -0.9072  1.3250
19604SOL     OW64647   0.990  10.866   9.625  0.6004 -0.1775 -0.3253
19604SOL    HW164648   1.062  10.906   9.674  0.6451 -0.2580 -0.3247
19604SOL    HW264649   0.958  10.796   9.681  0.2992  0.0741 -0.1798
19605SOL     OW64650   2.493   1.156   2.996  0.4196  0.5740  0.5320
19605SOL    HW164651   2.432   1.228   2.979  0.1125  0.0431 -0.7002
19605SOL    HW264652   2.436   1.082   3.019  0.7232  0.6285  1.5394
19606SOL     OW64653   6.376   9.568   9.319  0.2454  0.1581  0.1737
19606SOL    HW164654   6.358   9.628   9.248 -1.1518 -0.1670  0.2294
19606SOL    HW264655   6.402   9.624   9.392  1.0352  0.5300 -0.3753
19607SOL     OW64656   8.083   2.051   8.786  0.1929 -0.3784  0.6960
19607SOL    HW164657   8.040   1.979   8.740  0.7979  0.7163 -1.7373
19607SOL    HW264658   8.175   2.025   8.791  0.2731 -0.1286  0.5404
19608SOL     OW64659  10.035   0.623   9.584 -0.3543 -0.6321 -0.6028
19608SOL    HW164660  10.029   0.642   9.678  0.3616 -1.1560 -0.4455
19608SOL    HW264661   9.944   0.619   9.555 -0.5778 -0.1437  0.0007
19609SOL     OW64662   2.311   5.558   7.874 -0.1115  0.6344 -0.1987
19609SOL    HW164663   2.389   5.608   7.894 -0.2448  0.7800 -0.0381
19609SOL    HW264664   2.317   5.540   7.780 -0.6979  2.0635 -0.5327
19610SOL     OW64665   0.206   8.044   9.413  0.0728  0.3645  0.5522
19610SOL    HW164666   0.272   8.109   9.393  0.6209  0.0438  1.2961
19610SOL    HW264667   0.198   8.045   9.508  0.9793 -1.4794  0.7024
19611SOL     OW64668  10.472   3.191   8.260  0.1478 -0.0913  0.0748
19611SOL    HW164669  10.451   3.284   8.253 -3.2347 -0.6343  0.7853
19611SOL    HW264670  10.497   3.179   8.352 -2.5618 -0.2591  0.8836
19612SOL     OW64671   6.044   2.126   7.717 -0.3966  0.0010 -0.2182
19612SOL    HW164672   6.037   2.032   7.732  1.6567  0.0415  1.4725
19612SOL    HW264673   5.961   2.150   7.676 -1.0486 -2.4872 -0.5183
19613SOL     OW64674   1.238  10.750   8.029 -0.7851 -0.2126 -0.1752
19613SOL    HW164675   1.291  10.777   7.955 -0.5515 -1.3656 -0.4433
19613SOL    HW264676   1.210  10.832   8.070 -1.7346  0.4819 -2.0968
19614SOL     OW64677   2.563   0.727   3.440 -0.8750 -0.3462  0.1555
19614SOL    HW164678   2.575   0.814   3.477  0.1638 -0.1806 -0.5118
19614SOL    HW264679   2.481   0.732   3.392 -0.9794  0.1775  0.3809
19615SOL     OW64680   0.454   7.648   8.467  0.2144  0.4145 -0.3997
19615SOL    HW164681   0.498   7.585   8.523  0.2000  1.1691  0.4837
19615SOL    HW264682   0.489   7.632   8.380 -0.0371 -1.0306 -0.2598
19616SOL     OW64683   0.604   5.613   3.413 -0.2185 -0.1235  0.4350
19616SOL    HW164684   0.632   5.525   3.389  0.6566  0.2474  0.0923
19616SOL    HW264685   0.684   5.664   3.420 -0.8083  1.3084 -1.9305
19617SOL     OW64686   4.916   9.606   8.300 -0.1952  0.1355 -0.1419
19617SOL    HW164687   5.000   9.561   8.308  0.5958  1.2229 -1.7122
19617SOL    HW264688   4.851   9.543   8.332  1.1262 -1.0713  0.2527
19618SOL     OW64689  10.804   7.580   8.292 -0.2584 -0.3741 -0.2572
19618SOL    HW164690  10.826   7.552   8.203 -0.6217  1.5432 -1.0076
19618SOL    HW264691  10.781   7.500   8.338  2.9806 -1.8831 -0.9509
19619SOL     OW64692  10.734   4.847   3.588 -0.5468 -0.0587  0.0385
19619SOL    HW164693  10.639   4.849   3.596 -0.5609  1.2407 -0.2155
19619SOL    HW264694  10.766   4.866   3.677 -0.5243 -0.4332  0.1109
19620SOL     OW64695   8.450   6.826   6.612  0.7943 -0.5597  0.1879
19620SOL    HW164696   8.368   6.873   6.628  1.1053  0.4664 -1.0856
19620SOL    HW264697   8.517   6.880   6.654  0.9081 -1.0212  0.6048
19621SOL     OW64698  10.803   7.678   9.619  0.3826 -0.0791 -0.2856
19621SOL    HW164699  10.769   7.718   9.699  1.8510 -0.9343  0.8092
19621SOL    HW264700  10.897   7.676   9.631  0.4795 -2.3174 -1.0204
19622SOL     OW64701  10.191   4.467   6.873  0.3930 -0.8589 -0.1849
19622SOL    HW164702  10.211   4.382   6.834  2.2874 -0.0817 -1.0327
19622SOL    HW264703  10.131   4.509   6.811  1.1626 -0.7347 -0.8446
19623SOL     OW64704   1.389   7.746   2.065 -0.7754 -0.2791 -0.5685
19623SOL    HW164705   1.330   7.821   2.069 -1.0784 -0.4507 -1.4700
19623SOL    HW264706   1.333   7.670   2.078 -0.3392 -0.3362  1.2356
19624SOL     OW64707   0.064   8.390   3.990  0.1791  0.4054  0.2973
19624SOL    HW164708   0.121   8.340   4.049  1.2720  2.6329  1.2561
19624SOL    HW264709   0.119   8.461   3.958 -1.5804  1.6467 -0.1270
19625SOL     OW64710   7.540  10.530   5.908  0.2910 -0.0986  0.2070
19625SOL    HW164711   7.520  10.613   5.951 -1.5859 -1.8369  3.0031
19625SOL    HW264712   7.589  10.555   5.829 -0.1894  3.6089  0.9057
19626SOL     OW64713   7.660   8.245   2.959 -0.0888  0.0819 -0.6219
19626SOL    HW164714   7.618   8.306   2.897 -0.8142  1.0103  0.7364
19626SOL    HW264715   7.749   8.236   2.926 -0.7287 -0.2322 -2.3589
19627SOL     OW64716   3.414   9.715   6.799 -0.0852  0.2578 -0.4625
19627SOL    HW164717   3.506   9.743   6.802  0.3855 -1.3037  1.7985
19627SOL    HW264718   3.415   9.634   6.750 -0.2921  0.3443 -0.6112
19628SOL     OW64719  10.540   6.963   9.565 -0.1018 -0.3484 -0.2678
19628SOL    HW164720  10.450   6.936   9.584 -1.0254  1.4354 -1.7472
19628SOL    HW264721  10.585   6.882   9.543 -0.9469 -1.4703  1.8128
19629SOL     OW64722   1.964   9.757   5.557  0.4484  0.0556 -0.2566
19629SOL    HW164723   1.979   9.717   5.472 -1.9876 -0.2072 -0.6426
19629SOL    HW264724   1.935   9.846   5.538  1.0963  0.4067  0.3620
19630SOL     OW64725   9.546   3.091   3.437 -0.5061 -0.1782 -0.2256
19630SOL    HW164726   9.590   3.147   3.373 -0.2943 -1.1650 -0.9685
19630SOL    HW264727   9.464   3.136   3.455  0.1887  0.9777  0.1172
19631SOL     OW64728   0.685   9.553   4.126  0.3370  0.0317  0.2920
19631SOL    HW164729   0.636   9.558   4.207  0.1538  2.8213  0.1024
19631SOL    HW264730   0.658   9.471   4.086 -2.2867  0.2825  1.3767
19632SOL     OW64731   9.113   5.653   1.380  0.5033 -0.2969  0.5964
19632SOL    HW164732   9.032   5.704   1.388  0.1666 -0.3013 -1.9045
19632SOL    HW264733   9.105   5.585   1.446 -1.0501  0.3230  1.1015
19633SOL     OW64734   7.394   9.116   6.762  0.1709 -0.4647  0.2861
19633SOL    HW164735   7.351   9.184   6.709  1.1331  0.0076  0.0995
19633SOL    HW264736   7.413   9.046   6.700  1.2819  0.0815 -0.0033
19634SOL     OW64737   4.455   0.807   9.127  0.4350  0.3154 -0.3888
19634SOL    HW164738   4.541   0.771   9.103  0.0898 -1.9496  1.4801
19634SOL    HW264739   4.393   0.739   9.103 -0.9132  1.8553 -1.5580
19635SOL     OW64740   8.341   4.904   6.474 -0.0893  0.4394  0.1923
19635SOL    HW164741   8.260   4.859   6.451 -1.3675  1.1588  2.9148
19635SOL    HW264742   8.367   4.865   6.557  1.4361  1.4047  0.1977
19636SOL     OW64743   3.618   9.029   9.963  0.5175 -0.1137 -0.4431
19636SOL    HW164744   3.626   9.093   9.893  0.6845 -1.4475 -1.6783
19636SOL    HW264745   3.539   8.980   9.943  1.7537 -1.9856 -1.0099
19637SOL     OW64746   9.198   4.128  10.311 -1.2008 -0.6018 -0.7842
19637SOL    HW164747   9.166   4.066  10.377 -0.0613 -1.4435 -0.9944
19637SOL    HW264748   9.287   4.100  10.293 -0.8108  0.8476 -1.2260
19638SOL     OW64749   9.360   9.480   5.598  0.4355 -0.5630  0.1349
19638SOL    HW164750   9.353   9.394   5.639  0.7388  0.6476  3.0049
19638SOL    HW264751   9.362   9.541   5.672 -2.1835  2.1417 -1.7574
19639SOL     OW64752   5.821   0.718   9.966  0.1147 -0.2203  0.2561
19639SOL    HW164753   5.899   0.735  10.019 -0.2030  1.0793  0.3449
19639SOL    HW264754   5.786   0.636  10.001  1.0681 -0.4686  0.6602
19640SOL     OW64755   2.991   4.870   3.558 -0.3282 -0.2634 -0.2773
19640SOL    HW164756   2.969   4.919   3.479  0.0934 -0.9779 -0.8480
19640SOL    HW264757   3.006   4.937   3.624  0.0657  0.3736 -0.9957
19641SOL     OW64758   1.246   3.142   5.838 -0.0175 -0.2400  0.0722
19641SOL    HW164759   1.279   3.052   5.837 -0.7145 -0.7798  4.7205
19641SOL    HW264760   1.315   3.193   5.880 -1.3588  0.4126  1.6077
19642SOL     OW64761   4.821   4.831   4.631 -0.4462 -0.6664  0.0573
19642SOL    HW164762   4.821   4.862   4.722 -0.9252 -1.2151  0.2527
19642SOL    HW264763   4.763   4.755   4.632  1.5675 -2.2908 -0.1634
19643SOL     OW64764   8.742   8.771  10.089 -0.0994 -0.5226 -0.2415
19643SOL    HW164765   8.788   8.688  10.095 -1.3927 -1.2743 -0.3136
19643SOL    HW264766   8.727   8.783   9.995  2.0833  0.9731 -0.4751
19644SOL     OW64767   5.293   9.302   4.652 -0.3048  0.2007 -0.5701
19644SOL    HW164768   5.312   9.229   4.593  0.7227 -0.6683  0.7786
19644SOL    HW264769   5.200   9.292   4.672  0.2532 -2.1755  1.3472
19645SOL     OW64770  10.803   5.796   6.715  0.4139 -0.2697  0.2301
19645SOL    HW164771  10.860   5.730   6.755  3.0334  0.5099 -1.9513
19645SOL    HW264772  10.845   5.879   6.735  0.0091  0.3483 -1.3519
19646SOL     OW64773   6.820   7.895   1.836  0.3480 -0.0618  0.5612
19646SOL    HW164774   6.904   7.935   1.861 -0.1794  1.8334 -0.4886
19646SOL    HW264775   6.761   7.969   1.823 -0.9066 -1.2359 -0.8262
19647SOL     OW64776   7.706   9.651   8.710  0.3376 -0.0814 -0.5543
19647SOL    HW164777   7.701   9.651   8.614 -0.5810  2.2171 -0.5953
19647SOL    HW264778   7.644   9.720   8.736  1.1444 -0.1243  1.6555
19648SOL     OW64779   0.319   2.192   4.181 -0.0622 -0.7141  0.1054
19648SOL    HW164780   0.317   2.287   4.190 -0.1530 -0.7221  0.1755
19648SOL    HW264781   0.408   2.167   4.205  0.5208 -0.4738 -1.6692
19649SOL     OW64782   1.195   0.139   4.821  0.6853 -0.2842  0.1052
19649SOL    HW164783   1.122   0.127   4.882  1.2429 -0.2311  0.8060
19649SOL    HW264784   1.155   0.174   4.742  0.2591  2.8564  1.5221
19650SOL     OW64785   6.526   4.822   3.730  0.1696  0.5700  0.0199
19650SOL    HW164786   6.485   4.890   3.676  0.4222  0.7757  0.0839
19650SOL    HW264787   6.458   4.797   3.792  0.5726  1.9093  1.0462
19651SOL     OW64788   5.537   9.666   7.363  0.3473 -0.5487  0.9938
19651SOL    HW164789   5.603   9.611   7.321  1.1564 -0.3910  2.0282
19651SOL    HW264790   5.464   9.666   7.301  1.4252 -0.4475 -0.3483
19652SOL     OW64791  10.304   1.329  10.335 -0.4698  0.4443  0.0590
19652SOL    HW164792  10.399   1.325  10.341 -0.3592  2.3348  0.2140
19652SOL    HW264793  10.278   1.246  10.295  1.4112  0.7654 -2.0010
19653SOL     OW64794  10.436   1.505   7.443  0.5820 -0.8565 -0.0251
19653SOL    HW164795  10.496   1.577   7.423  0.8047 -0.9772  0.2042
19653SOL    HW264796  10.370   1.545   7.500  0.8495 -0.8911  0.3133
19654SOL     OW64797  10.319   2.039   2.849  0.4451  0.4783 -0.5570
19654SOL    HW164798  10.262   2.111   2.822  0.6704  1.4034  1.2630
19654SOL    HW264799  10.321   2.045   2.944  1.7788 -0.9501 -0.4596
19655SOL     OW64800   6.384   2.855   0.431 -0.2371 -0.1376 -0.1811
19655SOL    HW164801   6.430   2.887   0.509  0.2978 -2.0600  0.3564
19655SOL    HW264802   6.324   2.926   0.407 -0.4805  0.4788  2.0330
19656SOL     OW64803   4.654   7.593   0.187 -0.2702  0.9465 -0.4764
19656SOL    HW164804   4.720   7.526   0.206 -2.1116 -0.4863  1.3570
19656SOL    HW264805   4.701   7.676   0.193  1.7823 -0.0887 -1.3835
19657SOL     OW64806   7.656   9.453   4.852 -0.2192 -0.2008  0.2845
19657SOL    HW164807   7.599   9.387   4.812  0.3342 -0.6757  0.2622
19657SOL    HW264808   7.656   9.431   4.945  1.8645 -1.7594 -0.0097
19658SOL     OW64809   5.672   4.633   8.368 -0.5235  0.8334  0.1028
19658SOL    HW164810   5.726   4.576   8.423  0.4214  0.8738 -0.7597
19658SOL    HW264811   5.650   4.707   8.424  0.6352  0.9969  0.3666
19659SOL     OW64812   6.399   8.944  10.394  0.6610  0.3818 -0.4851
19659SOL    HW164813   6.383   8.931  10.301 -2.3179  0.0361 -0.0368
19659SOL    HW264814   6.461   8.875  10.418  0.1757 -0.5767 -1.9038
19660SOL     OW64815  10.350  10.255   8.082  0.2983 -0.2442  0.1028
19660SOL    HW164816  10.376  10.327   8.139 -0.2079  0.0164  0.0131
19660SOL    HW264817  10.432  10.212   8.058  0.4250 -1.7243  2.7457
19661SOL     OW64818   8.748   0.460   0.334 -0.1476  0.3655 -0.3372
19661SOL    HW164819   8.817   0.526   0.327 -0.8968  1.3187  0.7066
19661SOL    HW264820   8.681   0.488   0.272 -0.1043  0.1146 -0.4967
19662SOL     OW64821   4.387   2.564   2.996 -0.6134 -0.6028 -0.2329
19662SOL    HW164822   4.410   2.473   2.975  1.3644 -0.1920 -0.1200
19662SOL    HW264823   4.444   2.586   3.070 -0.7934  0.8351 -0.4962
19663SOL     OW64824   7.958  10.237   2.299 -0.3641 -0.2632  0.1536
19663SOL    HW164825   7.918  10.155   2.268 -0.9735 -0.0372  0.3178
19663SOL    HW264826   8.018  10.210   2.368  0.9880 -0.7755 -1.1800
19664SOL     OW64827   9.263   7.147   9.450  0.2863  0.2692 -0.1399
19664SOL    HW164828   9.244   7.059   9.418 -2.1128 -0.0952  1.9419
19664SOL    HW264829   9.236   7.145   9.542 -0.7762  3.4059 -0.2515
19665SOL     OW64830   7.412   3.083   2.975 -0.2813 -0.5511  0.1293
19665SOL    HW164831   7.464   3.080   2.895 -1.4043  0.7946 -0.6962
19665SOL    HW264832   7.458   3.025   3.035  2.8204  1.3705 -0.1476
19666SOL     OW64833   3.184   5.990   9.494  0.0701 -0.8635  0.0728
19666SOL    HW164834   3.210   6.082   9.485  2.8522 -1.3903  1.5118
19666SOL    HW264835   3.151   5.965   9.407 -0.9174  1.5002 -0.2892
19667SOL     OW64836   6.710   0.211  10.716 -0.1642 -0.1085 -0.2947
19667SOL    HW164837   6.772   0.150  10.677 -1.5068 -1.2535 -0.7640
19667SOL    HW264838   6.642   0.154  10.754 -0.2972  1.0595  1.2781
19668SOL     OW64839   8.449   9.196  10.520 -0.0975  0.0986  0.2016
19668SOL    HW164840   8.443   9.106  10.486  0.5809  0.3531 -0.6219
19668SOL    HW264841   8.400   9.193  10.603 -2.3729 -0.4060 -1.0656
19669SOL     OW64842   8.017   4.694   4.019 -0.1378 -0.2232  0.1873
19669SOL    HW164843   8.028   4.600   4.004 -0.0139 -0.2713  0.5665
19669SOL    HW264844   8.006   4.731   3.932  0.6100 -0.4873 -0.0263
19670SOL     OW64845   8.760  10.251   3.803 -0.3095 -0.7361 -0.5634
19670SOL    HW164846   8.810  10.270   3.883 -0.6818  3.1115 -1.0514
19670SOL    HW264847   8.826  10.237   3.736  0.3334  2.5788 -0.8245
19671SOL     OW64848   5.799   1.130   9.773  0.6523 -0.3312  0.1126
19671SOL    HW164849   5.891   1.150   9.756  1.0551 -0.8342  1.5357
19671SOL    HW264850   5.786   1.153   9.865 -1.8973  4.0899 -1.0663
19672SOL     OW64851   0.400   6.558   1.994 -0.3305  0.4137  0.4923
19672SOL    HW164852   0.383   6.606   2.075 -0.4965  1.2793 -0.0535
19672SOL    HW264853   0.379   6.619   1.924  0.3460 -0.1337 -0.2125
19673SOL     OW64854   1.998   6.855   6.313  0.1878 -0.4383 -0.1721
19673SOL    HW164855   2.072   6.902   6.350  0.6350 -0.4114 -1.0736
19673SOL    HW264856   1.966   6.912   6.243 -0.8683 -0.3227  0.3806
19674SOL     OW64857  10.764   8.499   3.738  0.3143 -0.5133  0.2171
19674SOL    HW164858  10.798   8.550   3.811 -0.2496  1.2869 -0.7019
19674SOL    HW264859  10.755   8.563   3.667 -0.7593 -1.8413 -0.8963
19675SOL     OW64860   3.243   3.450  10.592 -0.5509 -0.1810  0.4866
19675SOL    HW164861   3.283   3.366  10.568  0.7009  0.6504 -0.5027
19675SOL    HW264862   3.312   3.497  10.639 -0.2698  1.2747 -1.2293
19676SOL     OW64863   3.254   0.898   5.038 -0.0077  0.2316 -0.2747
19676SOL    HW164864   3.275   0.990   5.021  0.8944  0.1689  0.3991
19676SOL    HW264865   3.306   0.849   4.974 -2.9558  0.2176 -2.9343
19677SOL     OW64866   7.831   0.874   8.827  0.4590 -0.0915  0.3967
19677SOL    HW164867   7.809   0.925   8.905  0.1828 -2.8561  2.2475
19677SOL    HW264868   7.765   0.900   8.762 -0.7833  0.5664  1.8625
19678SOL     OW64869   7.905   5.866   0.939  0.2103 -0.2166 -0.1902
19678SOL    HW164870   7.834   5.858   1.003 -0.7611 -2.0582 -1.3926
19678SOL    HW264871   7.984   5.874   0.992 -0.5489 -1.6934  1.2724
19679SOL     OW64872   3.520   3.163   2.303 -0.1836 -0.4044 -0.2828
19679SOL    HW164873   3.442   3.122   2.342 -1.5660  0.1139 -2.3584
19679SOL    HW264874   3.515   3.255   2.332  0.6249 -0.7167  0.9436
19680SOL     OW64875  10.773   1.136   6.482  0.5975  0.8986  0.1648
19680SOL    HW164876  10.828   1.066   6.447 -1.5188 -0.5534 -0.4924
19680SOL    HW264877  10.747   1.186   6.405 -1.0669 -0.0509  0.0541
19681SOL     OW64878   3.713   2.440   6.177 -0.0207  0.4428  0.0748
19681SOL    HW164879   3.799   2.470   6.146 -0.8063  1.8803 -0.8650
19681SOL    HW264880   3.700   2.489   6.259 -0.5445  1.3874 -0.5479
19682SOL     OW64881   1.090   6.049   0.482 -0.4031 -0.0615  0.0119
19682SOL    HW164882   1.053   6.137   0.492 -2.7285 -0.6749 -1.9895
19682SOL    HW264883   1.044   6.013   0.406  2.1531 -2.1828 -0.6837
19683SOL     OW64884   3.386   2.848   0.074 -0.0605  0.6745 -0.8278
19683SOL    HW164885   3.292   2.865   0.065  0.0773  1.8583 -0.1705
19683SOL    HW264886   3.426   2.894   0.001 -0.1961 -2.5109 -3.1058
19684SOL     OW64887   4.064   9.605   1.518  0.1738  0.3412 -0.3126
19684SOL    HW164888   3.975   9.620   1.486  0.2875  1.2499 -0.2147
19684SOL    HW264889   4.116   9.677   1.483  0.0160  2.2736  3.0231
19685SOL     OW64890   0.813   6.890   0.103  0.2338  0.5971  0.1603
19685SOL    HW164891   0.747   6.821   0.116  1.1521 -0.6076 -1.2955
19685SOL    HW264892   0.784   6.937   0.025  0.7225  0.4897 -0.0913
19686SOL     OW64893   6.182   2.410   7.778  0.4454  0.1653  0.7662
19686SOL    HW164894   6.108   2.452   7.822  0.2200 -0.5686  1.1042
19686SOL    HW264895   6.153   2.320   7.763  0.3933  0.4826 -1.2125
19687SOL     OW64896   4.403   2.406   2.343 -0.6293 -0.5358 -0.5452
19687SOL    HW164897   4.368   2.385   2.257 -0.9102 -1.7137 -0.1619
19687SOL    HW264898   4.498   2.398   2.333 -0.6901 -1.2459 -0.6093
19688SOL     OW64899   9.341   3.983   9.451  0.2444  0.4898 -1.3302
19688SOL    HW164900   9.259   4.028   9.431 -0.0149  0.1266 -1.0848
19688SOL    HW264901   9.408   4.051   9.445 -0.2876  1.1985  0.2451
19689SOL     OW64902   4.593   4.223   7.205 -0.6589  0.0522 -0.1744
19689SOL    HW164903   4.623   4.208   7.115 -1.4089  2.8476 -1.0112
19689SOL    HW264904   4.661   4.185   7.260  0.9834  0.2541 -1.9490
19690SOL     OW64905   6.269   4.697   4.363 -0.7355  0.2663 -0.1148
19690SOL    HW164906   6.293   4.629   4.300 -0.6234 -0.0159  0.2287
19690SOL    HW264907   6.184   4.729   4.332 -0.2445  0.8097 -0.9553
19691SOL     OW64908   1.511   2.598  10.481  0.1545  0.0918  0.1210
19691SOL    HW164909   1.574   2.539  10.439  0.0240  0.0959 -0.0840
19691SOL    HW264910   1.534   2.685  10.448  1.0862  0.3200  1.3224
19692SOL     OW64911   3.820   7.896   1.973 -0.4525 -0.2771  0.0805
19692SOL    HW164912   3.914   7.888   1.954 -0.8781 -2.6801 -1.3737
19692SOL    HW264913   3.784   7.938   1.895 -0.8504 -1.3194 -0.3151
19693SOL     OW64914   6.471   7.423  10.124  0.3661 -0.1284  0.1793
19693SOL    HW164915   6.533   7.437  10.053  1.2494 -0.5330  0.8483
19693SOL    HW264916   6.525   7.403  10.200 -0.5663 -0.0132  0.9024
19694SOL     OW64917   1.047   3.325   2.146 -0.3514  0.2541 -0.4598
19694SOL    HW164918   0.962   3.309   2.106 -0.8280  0.7190  0.3409
19694SOL    HW264919   1.110   3.286   2.085 -1.0259  1.1689 -1.7865
19695SOL     OW64920   4.701   1.151   3.439  0.2766 -0.2273 -0.2897
19695SOL    HW164921   4.613   1.143   3.400  0.6081 -0.4721 -1.0051
19695SOL    HW264922   4.748   1.210   3.380 -0.1188  1.9015  1.3943
19696SOL     OW64923  10.204   7.935   9.833 -0.5580 -0.0462  0.0607
19696SOL    HW164924  10.229   8.021   9.799 -1.1403 -0.2119 -0.8141
19696SOL    HW264925  10.115   7.948   9.868 -0.8406 -0.3906 -0.5091
19697SOL     OW64926   6.266   6.091   5.365 -0.0677 -0.1506 -0.1146
19697SOL    HW164927   6.206   6.096   5.290 -0.4013  1.0894  0.2035
19697SOL    HW264928   6.275   6.182   5.394  2.2597 -0.2647 -0.3517
19698SOL     OW64929   9.265   6.429   6.978  0.0961 -0.1619 -0.0055
19698SOL    HW164930   9.177   6.407   6.946 -0.2051  0.5405  0.3240
19698SOL    HW264931   9.316   6.349   6.964 -1.5651 -2.0794  3.5112
19699SOL     OW64932   1.472   9.713  10.292 -0.0575  0.7017 -0.2115
19699SOL    HW164933   1.427   9.797  10.281 -0.8799  0.2477 -0.3941
19699SOL    HW264934   1.407   9.655  10.331 -0.0333 -0.3073 -1.5960
19700SOL     OW64935   7.750   3.358   6.558 -0.3635  0.1553  0.6087
19700SOL    HW164936   7.823   3.410   6.590 -0.1341 -0.5369  1.2231
19700SOL    HW264937   7.783   3.317   6.478  0.3848 -1.1818  1.5602
19701SOL     OW64938   9.995   1.502   0.133  0.2324  0.0150 -0.0413
19701SOL    HW164939   9.940   1.564   0.181 -0.5616 -0.5458 -0.2102
19701SOL    HW264940   9.934   1.452   0.078  0.7147 -1.5663  0.7951
19702SOL     OW64941   1.582  10.868   8.225 -0.4213 -0.1257  0.3456
19702SOL    HW164942   1.533  10.929   8.279 -0.1962  0.0901  0.3089
19702SOL    HW264943   1.672  10.872   8.260 -0.3365 -0.1966  0.1382
19703SOL     OW64944   7.116   0.291   3.115  0.0089 -0.0939  0.0796
19703SOL    HW164945   7.124   0.263   3.206  0.4858 -0.2235  0.0009
19703SOL    HW264946   7.090   0.211   3.068 -1.2056  0.1907  0.2428
19704SOL     OW64947   4.495   8.246   2.107 -0.1956 -0.1603 -0.7313
19704SOL    HW164948   4.454   8.331   2.094 -0.4044 -0.0464  0.4799
19704SOL    HW264949   4.461   8.191   2.037 -3.3310 -0.3853  0.7855
19705SOL     OW64950   1.851   6.825   1.205 -0.6367 -0.2460 -0.1163
19705SOL    HW164951   1.946   6.832   1.217 -0.5255  0.0939 -1.0829
19705SOL    HW264952   1.838   6.736   1.172 -0.8651 -0.9218  1.6652
19706SOL     OW64953   1.151   4.149   2.256  0.2162  0.2963  0.1224
19706SOL    HW164954   1.130   4.234   2.295 -3.4903 -0.1298 -0.5036
19706SOL    HW264955   1.201   4.170   2.177  0.0899  1.8348  0.4287
19707SOL     OW64956  10.439   9.378   2.819  0.0278  0.1943  0.2954
19707SOL    HW164957  10.411   9.368   2.910  1.3883  0.1799  0.7327
19707SOL    HW264958  10.527   9.415   2.825  0.2784 -0.1475 -1.0089
19708SOL     OW64959   3.114   1.475   5.896  0.0211 -0.6725 -0.1500
19708SOL    HW164960   3.190   1.521   5.932  0.5010 -0.0529 -1.8677
19708SOL    HW264961   3.152   1.406   5.841 -0.6883 -1.5943  0.4861
19709SOL     OW64962   8.388   7.323   3.827 -0.1828  0.8177 -0.4033
19709SOL    HW164963   8.431   7.349   3.746 -0.3864 -2.8798 -1.9115
19709SOL    HW264964   8.296   7.345   3.815 -0.1292  0.7417 -0.9453
19710SOL     OW64965   5.163   6.774   8.732  0.3626  0.6227  0.1947
19710SOL    HW164966   5.259   6.774   8.730  0.3757  0.4325  0.6385
19710SOL    HW264967   5.139   6.684   8.708  0.3213  0.4485  0.8631
19711SOL     OW64968   5.886   9.633   8.552  0.1601 -0.2736 -0.1102
19711SOL    HW164969   5.808   9.680   8.521 -0.5158 -0.0535  1.8116
19711SOL    HW264970   5.852   9.555   8.595  1.0694 -0.6553 -0.0612
19712SOL     OW64971   0.989   4.304   0.226 -0.1762  0.8385 -0.1953
19712SOL    HW164972   1.033   4.222   0.202 -0.1282  0.7010  0.3634
19712SOL    HW264973   0.993   4.357   0.146  0.2320  0.4883 -0.4123
19713SOL     OW64974  10.161   7.126   9.163 -0.3266  0.4112 -0.4714
19713SOL    HW164975  10.190   7.099   9.076 -0.0945 -1.9419  0.2626
19713SOL    HW264976  10.088   7.185   9.146 -0.0727  0.2747 -2.2637
19714SOL     OW64977   5.326   7.473   3.462 -0.0929 -0.0682 -0.4535
19714SOL    HW164978   5.329   7.385   3.424  0.0753  0.0911 -0.8107
19714SOL    HW264979   5.408   7.514   3.434 -0.1814  0.2093 -0.3043
19715SOL     OW64980   8.122   6.802  10.320  0.2497 -0.4518 -0.0158
19715SOL    HW164981   8.201   6.849  10.293 -0.6956  0.6065 -1.0740
19715SOL    HW264982   8.077   6.864  10.378 -0.3588 -0.5730 -0.3506
19716SOL     OW64983   9.507   8.760   7.606  0.2943  0.4614 -0.1720
19716SOL    HW164984   9.425   8.808   7.593 -1.4643 -1.1270  3.5144
19716SOL    HW264985   9.547   8.802   7.682  0.4935 -1.5756  0.9186
19717SOL     OW64986   7.656   8.208   7.397  0.1296  0.1328 -0.0191
19717SOL    HW164987   7.567   8.178   7.376  0.2002  0.1367 -0.3291
19717SOL    HW264988   7.712   8.160   7.335  0.2855  0.5610 -0.2112
19718SOL     OW64989   3.348   9.258   1.467  0.3141 -0.1628  0.0071
19718SOL    HW164990   3.387   9.227   1.386  1.1587 -1.4849  0.8769
19718SOL    HW264991   3.422   9.289   1.519 -0.0059 -0.8362  0.8943
19719SOL     OW64992   1.931   5.013  10.232 -0.3674  0.4264  0.2970
19719SOL    HW164993   1.974   4.964  10.302 -0.0197  0.1325 -0.1146
19719SOL    HW264994   1.914   4.948  10.165  0.9690  1.0154 -0.6701
19720SOL     OW64995   5.329   3.918   9.062  0.0704 -0.4183  0.8645
19720SOL    HW164996   5.343   3.865   8.983  0.4617  0.3383  0.4177
19720SOL    HW264997   5.418   3.939   9.092 -0.0598 -1.3211  1.9392
19721SOL     OW64998   2.757   6.414   3.425 -0.1156  0.6404  0.0386
19721SOL    HW164999   2.807   6.333   3.436  1.0719  1.4035  0.4962
19721SOL    HW265000   2.667   6.385   3.410  0.0959 -0.7384  1.2045
19722SOL     OW65001   6.485   0.201   8.087  0.0551 -0.1536  0.4537
19722SOL    HW165002   6.548   0.258   8.132 -0.2447  0.6749 -0.1567
19722SOL    HW265003   6.520   0.192   7.998 -0.4844 -0.0066  0.2253
19723SOL     OW65004   3.276   6.743   6.609  0.2253  0.3515  0.2479
19723SOL    HW165005   3.285   6.648   6.611 -1.1721  0.1993  0.1058
19723SOL    HW265006   3.276   6.769   6.702 -0.1380  0.1266  0.3132
19724SOL     OW65007   5.543   7.839   2.284  0.3017 -0.2232  0.6582
19724SOL    HW165008   5.556   7.930   2.259 -3.8395  0.2456 -0.6106
19724SOL    HW265009   5.559   7.789   2.203 -1.2573 -0.0829  0.2229
19725SOL     OW65010  10.519   3.244   2.211 -0.2554 -0.0861 -0.5162
19725SOL    HW165011  10.497   3.151   2.201  0.8426 -0.3615 -0.4201
19725SOL    HW265012  10.463   3.288   2.146 -0.4544 -0.8541 -0.8867
19726SOL     OW65013   6.576   7.418   1.239 -0.3470 -0.0105  0.3246
19726SOL    HW165014   6.517   7.462   1.301  0.6235  2.1812 -0.2104
19726SOL    HW265015   6.546   7.327   1.237 -1.8713  0.4017  2.2190
19727SOL     OW65016   2.233   5.294  10.222 -0.2489  0.2941 -0.0560
19727SOL    HW165017   2.298   5.280  10.153 -0.7000 -3.1475  0.0569
19727SOL    HW265018   2.282   5.332  10.294  1.3152 -0.6393 -0.5833
19728SOL     OW65019   7.041   4.527  10.440 -0.1894 -0.2295 -0.0003
19728SOL    HW165020   7.117   4.472  10.422  0.2212  0.5682 -0.7796
19728SOL    HW265021   7.050   4.550  10.533  1.0040  0.5470 -0.2820
19729SOL     OW65022   2.901   1.860   4.023  0.5314 -0.4126  0.7696
19729SOL    HW165023   2.907   1.851   3.928 -0.0219  1.4091  0.5166
19729SOL    HW265024   2.969   1.802   4.058  0.0594 -1.9019 -0.6764
19730SOL     OW65025   1.658   1.400   2.977  0.0278  0.0224 -0.1098
19730SOL    HW165026   1.747   1.400   3.013 -0.2673  0.1003  0.6265
19730SOL    HW265027   1.635   1.492   2.968  1.1655  0.1529 -3.2582
19731SOL     OW65028   5.069   5.094  10.420  0.0544 -0.0947  0.0818
19731SOL    HW165029   5.016   5.032  10.469  0.5379 -0.5701  0.0116
19731SOL    HW265030   5.157   5.057  10.421  1.0186  1.9906  2.4793
19732SOL     OW65031   7.911   9.229   5.308  0.1449 -0.4134 -0.0169
19732SOL    HW165032   7.891   9.226   5.215 -0.3426 -0.6713  0.0909
19732SOL    HW265033   7.924   9.138   5.333  1.3309 -0.2646 -0.0476
19733SOL     OW65034   3.853   6.142   3.107 -0.4411  0.1330  0.2060
19733SOL    HW165035   3.844   6.228   3.065 -0.4834  0.4382  0.8347
19733SOL    HW265036   3.766   6.122   3.139 -0.4838 -0.2592 -0.1451
19734SOL     OW65037   3.656   0.664   4.151 -0.1683 -0.0624 -0.0517
19734SOL    HW165038   3.591   0.666   4.081  0.4013  1.1956 -0.5773
19734SOL    HW265039   3.693   0.752   4.152  1.1344 -0.5859  0.6190
19735SOL     OW65040   8.303   3.958  10.906  0.3748  0.0091 -0.7017
19735SOL    HW165041   8.398   3.970  10.900  0.2861  0.5816 -0.9915
19735SOL    HW265042   8.274   4.026  10.966  0.2940 -0.9499  0.3737
19736SOL     OW65043   3.633   7.414   7.779 -0.2089 -0.1460 -0.3027
19736SOL    HW165044   3.559   7.473   7.762  0.8846  1.9419  1.6869
19736SOL    HW265045   3.682   7.456   7.850 -0.2493 -4.2418  2.5500
19737SOL     OW65046   5.525   4.809   8.962  0.2857 -0.4578  0.2436
19737SOL    HW165047   5.462   4.835   8.895 -1.9317  1.0176  2.7261
19737SOL    HW265048   5.490   4.728   8.999  3.1488 -3.1293 -2.2530
19738SOL     OW65049   2.451   4.876   3.751  0.3994  0.1145 -0.3694
19738SOL    HW165050   2.434   4.782   3.760  1.3971 -0.0650 -0.2753
19738SOL    HW265051   2.460   4.907   3.842 -1.8814  0.7022 -0.2849
19739SOL     OW65052  10.717   2.026   7.202 -0.4698  0.0760 -0.2599
19739SOL    HW165053  10.778   1.997   7.134 -1.2502 -0.1912 -0.8581
19739SOL    HW265054  10.659   2.088   7.157 -0.8428  0.0785  0.2242
19740SOL     OW65055   0.925   9.400   5.872 -0.3937  0.2786  0.8534
19740SOL    HW165056   1.012   9.408   5.831  0.8705 -1.6226  2.9569
19740SOL    HW265057   0.911   9.484   5.914  0.8391  0.3393  1.1930
19741SOL     OW65058   4.662   6.878   3.405  0.4515 -0.2905 -0.0230
19741SOL    HW165059   4.596   6.809   3.418  0.6365 -0.4035  0.3342
19741SOL    HW265060   4.611   6.954   3.376  0.0441 -0.1268  1.0476
19742SOL     OW65061  10.348   2.112   5.797  0.1397  0.8904 -0.9191
19742SOL    HW165062  10.432   2.105   5.752  0.7821 -0.2644  0.3815
19742SOL    HW265063  10.342   2.032   5.850 -2.7740 -0.1653 -2.5862
19743SOL     OW65064   4.941   9.577   8.731 -0.6257 -0.2825 -0.9791
19743SOL    HW165065   4.868   9.558   8.790 -0.1438  0.2081 -0.2175
19743SOL    HW265066   4.901   9.628   8.660 -0.7420  1.4449  0.2851
19744SOL     OW65067   4.007   1.605   1.007  0.0622 -0.5842  0.4284
19744SOL    HW165068   4.056   1.533   1.045 -1.0646 -0.8573  1.4212
19744SOL    HW265069   3.940   1.625   1.072 -1.2168 -0.3074 -0.9338
19745SOL     OW65070   9.415   6.489   3.490  0.1686 -0.4995 -0.1940
19745SOL    HW165071   9.421   6.473   3.584 -2.0891  1.5132  0.3981
19745SOL    HW265072   9.472   6.565   3.474 -0.6511  0.1476 -0.1158
19746SOL     OW65073   6.033   3.894   9.676 -0.1656  0.1030 -0.7051
19746SOL    HW165074   5.991   3.894   9.762  1.7981  0.2131  0.3065
19746SOL    HW265075   5.964   3.867   9.615 -0.8890 -3.0384  1.2938
19747SOL     OW65076   0.619   0.358   1.281 -0.8401 -0.1623 -0.5021
19747SOL    HW165077   0.593   0.367   1.190 -1.6399 -0.0703 -0.2781
19747SOL    HW265078   0.639   0.447   1.310 -0.3672 -0.2206 -0.6490
19748SOL     OW65079   7.637   3.760   7.567  0.3046  0.6844  0.0693
19748SOL    HW165080   7.714   3.817   7.566  0.2219  0.7943 -0.4251
19748SOL    HW265081   7.654   3.697   7.637  1.7725 -0.5469 -1.3111
19749SOL     OW65082   9.114   8.496   2.721 -0.1335  0.4720  0.6375
19749SOL    HW165083   9.171   8.420   2.709  0.1669  0.5353  1.5562
19749SOL    HW265084   9.150   8.541   2.797  1.0038  2.7527 -1.1218
19750SOL     OW65085   3.049   6.773   5.393 -0.4940 -0.3199  0.0883
19750SOL    HW165086   3.015   6.843   5.448 -1.0262  1.0429 -1.8487
19750SOL    HW265087   2.985   6.766   5.322  1.0100 -0.8126 -1.2747
19751SOL     OW65088   2.331   8.450   7.021  0.2552 -0.6557  0.2616
19751SOL    HW165089   2.396   8.474   6.955 -0.4575  0.6832  0.0036
19751SOL    HW265090   2.320   8.355   7.010  0.8888 -0.6212 -0.8556
19752SOL     OW65091   4.146   6.475   1.732 -0.2358  0.1364  0.2424
19752SOL    HW165092   4.197   6.455   1.811 -0.5046 -0.5269  0.2574
19752SOL    HW265093   4.106   6.560   1.749 -0.4951 -0.1159  0.9308
19753SOL     OW65094   1.666   1.036   4.710 -0.3241  0.3257  0.7127
19753SOL    HW165095   1.572   1.031   4.727 -0.6116  0.7467 -0.6401
19753SOL    HW265096   1.683   1.129   4.693  0.5897  0.4650  2.2344
19754SOL     OW65097   0.930   9.862   3.300  0.2093  0.3703 -0.2850
19754SOL    HW165098   0.848   9.881   3.255  0.5382  0.8311 -0.6957
19754SOL    HW265099   0.959   9.946   3.334  1.4854  0.5721 -1.7925
19755SOL     OW65100   4.247   5.984   0.420 -0.1127  0.0065  0.2101
19755SOL    HW165101   4.299   5.919   0.374  0.4584 -1.6414  2.9106
19755SOL    HW265102   4.279   5.981   0.510 -1.2443  2.8682  0.8224
19756SOL     OW65103   5.489  10.168  10.669 -0.0503  0.1611  0.3193
19756SOL    HW165104   5.441  10.185  10.750 -0.2100  0.3263  0.1905
19756SOL    HW265105   5.579  10.152  10.697  0.7132  3.6982  0.2744
19757SOL     OW65106   2.384   2.793   4.989 -0.1405 -0.7244 -0.0621
19757SOL    HW165107   2.342   2.869   5.029  0.7070  0.2722 -1.0040
19757SOL    HW265108   2.316   2.753   4.935 -0.6272 -0.7052  0.5344
19758SOL     OW65109   0.890   0.135   5.285  0.1101 -0.0120 -0.2587
19758SOL    HW165110   0.951   0.138   5.358 -0.3912  1.1407  0.1297
19758SOL    HW265111   0.857   0.045   5.284 -0.9146  0.2909  1.8038
19759SOL     OW65112  10.650   1.827   0.971 -0.0335  0.1637  0.0001
19759SOL    HW165113  10.631   1.735   0.989 -0.6121  0.1511 -0.6621
19759SOL    HW265114  10.565   1.867   0.960  0.1092  1.1734  2.0795
19760SOL     OW65115   0.016   8.533   4.563 -0.2784  0.3352  0.1324
19760SOL    HW165116   0.105   8.501   4.582 -0.3741 -0.2839 -0.4068
19760SOL    HW265117  -0.034   8.453   4.545 -0.7969  0.7218 -0.1555
19761SOL     OW65118   0.959   1.828  10.353  0.1842 -0.0012 -0.0929
19761SOL    HW165119   0.868   1.808  10.333  0.6718 -2.4540 -0.0908
19761SOL    HW265120   0.957   1.864  10.442 -0.9802  2.3105 -0.9623
19762SOL     OW65121   2.950   0.230   0.380 -0.5853  0.5193 -0.5006
19762SOL    HW165122   2.860   0.211   0.352 -0.3389  0.3564 -1.1871
19762SOL    HW265123   2.972   0.313   0.338  0.1306 -0.2091 -1.5905
19763SOL     OW65124   7.914   4.301   2.656  0.2863  0.4264 -0.3442
19763SOL    HW165125   7.956   4.278   2.738 -1.1114 -0.4422  0.1553
19763SOL    HW265126   7.978   4.278   2.589  1.0665  0.2471  0.4448
19764SOL     OW65127   6.615   4.301   0.717 -0.2609  0.1989 -0.3887
19764SOL    HW165128   6.633   4.265   0.804 -0.4540 -0.2945 -0.5521
19764SOL    HW265129   6.654   4.389   0.720  0.4202 -0.1015 -0.0635
19765SOL     OW65130   9.190   5.858  10.545 -0.0293  0.2046  0.6687
19765SOL    HW165131   9.234   5.939  10.571  1.1563 -0.4111  0.6753
19765SOL    HW265132   9.229   5.835  10.461 -0.1947 -0.4688  0.7629
19766SOL     OW65133   1.011   7.102   8.318  0.1882 -0.8190  0.0715
19766SOL    HW165134   1.053   7.055   8.390  1.1933  1.5054  1.0962
19766SOL    HW265135   1.083   7.136   8.265 -0.5178 -1.2512 -1.2081
19767SOL     OW65136   0.113   7.151   2.105 -0.7704 -0.1260  0.2357
19767SOL    HW165137   0.124   7.246   2.096  0.6552 -0.2639  0.3328
19767SOL    HW265138   0.086   7.121   2.019 -0.7629  0.3067  0.0810
19768SOL     OW65139   5.282   7.813   5.096  0.1883 -0.3014 -0.3027
19768SOL    HW165140   5.199   7.858   5.112  1.1183  0.3120  4.2114
19768SOL    HW265141   5.257   7.722   5.082 -1.2819  0.1650 -1.0228
19769SOL     OW65142   2.480   5.481  10.787  0.6795  0.0900  0.5837
19769SOL    HW165143   2.411   5.427  10.748  0.0000  1.4406 -0.1767
19769SOL    HW265144   2.473   5.565  10.741  0.9191  1.2159  2.5093
19770SOL     OW65145   7.446   4.135   7.663  0.2054  0.2673 -0.2676
19770SOL    HW165146   7.506   4.147   7.589 -0.4299 -1.3479 -1.1007
19770SOL    HW265147   7.465   4.047   7.695  0.7409  1.0834  1.7875
19771SOL     OW65148   5.346   6.930   7.736  0.2060  0.4968 -0.1561
19771SOL    HW165149   5.270   6.877   7.760 -1.4434  1.8096 -2.1585
19771SOL    HW265150   5.343   6.937   7.641  2.0485  1.7527 -0.1965
19772SOL     OW65151  10.447   9.143   4.955 -0.3773 -0.7242  0.0441
19772SOL    HW165152  10.483   9.232   4.957 -0.3978 -0.7227  1.1236
19772SOL    HW265153  10.353   9.155   4.943 -0.4492 -0.5617  0.6994
19773SOL     OW65154   8.609   3.613   5.144 -0.5445 -0.5029  0.5324
19773SOL    HW165155   8.667   3.553   5.097 -2.7387 -2.5492  0.2565
19773SOL    HW265156   8.578   3.674   5.077 -1.2829 -1.5159 -0.0856
19774SOL     OW65157   4.053   2.495   1.609  0.2279 -0.2821 -0.1646
19774SOL    HW165158   4.085   2.573   1.563 -2.6227  1.8141  1.0685
19774SOL    HW265159   4.023   2.436   1.540 -1.0992  1.4186 -1.0981
19775SOL     OW65160   0.241   7.729  10.214  0.2674 -0.3989  0.6649
19775SOL    HW165161   0.255   7.780  10.135  1.5886 -1.1741  0.3550
19775SOL    HW265162   0.169   7.670  10.193  0.8719 -0.8689 -0.1058
19776SOL     OW65163   1.760   8.051   6.835  0.5659 -0.0104 -0.4331
19776SOL    HW165164   1.795   7.994   6.767 -0.4529  0.1109 -1.0723
19776SOL    HW265165   1.821   8.126   6.837  0.5191  0.0590 -1.3191
19777SOL     OW65166   9.901   4.550   2.469  0.3458  0.3869 -0.2782
19777SOL    HW165167   9.921   4.463   2.435 -0.9316 -0.2272  0.4783
19777SOL    HW265168   9.831   4.583   2.412 -1.4082 -0.4164  1.2990
19778SOL     OW65169   4.970   1.979   1.445  0.0313 -0.1107  0.0439
19778SOL    HW165170   4.905   1.931   1.394  1.9079 -0.8759 -1.7912
19778SOL    HW265171   4.927   2.062   1.467 -1.4017 -0.3824 -1.4981
19779SOL     OW65172   7.169   7.190   7.752 -0.5950 -0.2753  0.4149
19779SOL    HW165173   7.244   7.137   7.779 -0.4703  1.3077  3.7984
19779SOL    HW265174   7.098   7.128   7.739  1.1588 -1.8358 -3.0103
19780SOL     OW65175   3.495   7.453   4.087  0.0129 -0.3740 -0.0992
19780SOL    HW165176   3.567   7.448   4.150 -0.0018 -0.8882 -0.1254
19780SOL    HW265177   3.417   7.428   4.137 -0.0295 -0.5830 -0.2690
19781SOL     OW65178   9.249   8.041   8.620  0.0709 -0.2833  0.2273
19781SOL    HW165179   9.187   7.985   8.574  1.4595 -2.4166  0.7733
19781SOL    HW265180   9.313   8.066   8.554  1.4367 -2.4113  0.6499
19782SOL     OW65181   2.578   6.377   2.822 -0.2529  0.3737  0.2263
19782SOL    HW165182   2.666   6.391   2.787 -0.1074 -0.6760  0.1342
19782SOL    HW265183   2.582   6.410   2.912  1.2670 -2.6290  1.4182
19783SOL     OW65184   2.556   4.157   4.922 -0.4493 -0.4525  0.1311
19783SOL    HW165185   2.631   4.216   4.936 -1.3686  0.3287  2.1111
19783SOL    HW265186   2.482   4.216   4.908 -0.7310 -1.2169 -2.0131
19784SOL     OW65187   7.910   9.614   8.883  0.5784  0.5274  0.0462
19784SOL    HW165188   7.829   9.649   8.846  0.0399  1.2698  1.8101
19784SOL    HW265189   7.911   9.523   8.855 -1.2482  0.3036  0.5661
19785SOL     OW65190   0.544   8.145   9.940  0.0477  0.1999 -0.5117
19785SOL    HW165191   0.460   8.102   9.925 -0.4792  1.2233 -0.5773
19785SOL    HW265192   0.562   8.191   9.858  0.1053  0.9197 -0.0953
19786SOL     OW65193   7.792   5.081   0.088  0.2446 -0.0007 -0.7931
19786SOL    HW165194   7.870   5.072   0.033  0.1624  1.2458 -1.1320
19786SOL    HW265195   7.793   5.002   0.143  0.5079 -1.1219 -2.3348
19787SOL     OW65196  10.795   1.314   1.486  0.2449 -0.5258 -0.2118
19787SOL    HW165197  10.842   1.394   1.462  0.2671 -0.2585  0.7084
19787SOL    HW265198  10.844   1.278   1.559 -1.6214  0.4019  1.6015
19788SOL     OW65199  10.703   9.610   6.370  0.1291 -0.3230  0.1019
19788SOL    HW165200  10.734   9.565   6.449  1.0445 -1.4372 -0.8604
19788SOL    HW265201  10.768   9.678   6.355  0.8852 -1.1665 -0.5912
19789SOL     OW65202   9.396   2.684   0.553 -0.2039  0.0178  0.0315
19789SOL    HW165203   9.345   2.718   0.626  2.1625  0.6600  1.4856
19789SOL    HW265204   9.381   2.589   0.556  1.1750 -0.2016  2.5085
19790SOL     OW65205   9.772   5.896   3.203  0.4123  0.6969  0.0539
19790SOL    HW165206   9.752   5.987   3.223  0.4585  0.8611 -0.6473
19790SOL    HW265207   9.849   5.899   3.146  0.5069  0.2124  0.1468
19791SOL     OW65208   8.637   6.314   6.444  0.4416 -0.7019 -0.1268
19791SOL    HW165209   8.661   6.246   6.382  2.2726 -0.3662  0.1589
19791SOL    HW265210   8.600   6.267   6.519 -0.9508 -1.1606 -1.0484
19792SOL     OW65211   3.430   2.050   6.933  0.2130 -0.0797  0.3145
19792SOL    HW165212   3.444   2.097   6.851 -0.3964  0.0468  0.2767
19792SOL    HW265213   3.483   2.097   6.997  1.0788 -0.4746 -0.1009
19793SOL     OW65214   0.908   8.886   0.917 -0.4845 -0.2271  0.3688
19793SOL    HW165215   0.913   8.791   0.922  0.6911 -0.1210  1.9205
19793SOL    HW265216   0.963   8.910   0.842 -0.8794 -0.7656 -0.0954
19794SOL     OW65217   3.662   7.121   5.168  0.0247  0.4970  0.8188
19794SOL    HW165218   3.724   7.053   5.193 -0.0447 -0.0074 -0.3487
19794SOL    HW265219   3.623   7.149   5.251  2.2614  1.2987  1.6924
19795SOL     OW65220   3.261   7.020   0.037 -0.4292  0.2320 -0.0296
19795SOL    HW165221   3.356   7.025   0.030 -0.0424 -1.0367  2.6793
19795SOL    HW265222   3.233   6.973  -0.042  1.0819  1.2054 -1.1917
19796SOL     OW65223   5.577   5.354   6.550 -0.2101 -0.0895  0.2424
19796SOL    HW165224   5.540   5.412   6.484 -0.8096 -0.0499  0.6063
19796SOL    HW265225   5.671   5.355   6.532 -0.5363 -1.8922 -2.0891
19797SOL     OW65226   0.562   3.793   4.295 -0.1632  0.4572 -0.3194
19797SOL    HW165227   0.589   3.848   4.221  0.3059 -1.0475 -1.3091
19797SOL    HW265228   0.641   3.782   4.347 -0.1911  0.4797 -0.2715
19798SOL     OW65229   5.089   3.879   4.888  0.4576  0.2414 -0.0405
19798SOL    HW165230   5.149   3.901   4.816  1.7867  0.2484  1.0354
19798SOL    HW265231   5.049   3.796   4.861 -2.0468  2.0837 -2.5680
19799SOL     OW65232   1.381   3.966   5.417 -1.3270  0.0994 -0.3724
19799SOL    HW165233   1.365   4.060   5.407 -1.1263 -0.0360 -2.4374
19799SOL    HW265234   1.446   3.960   5.488 -2.1305  1.4191  0.5115
19800SOL     OW65235   7.506   8.862  10.919 -0.1375  0.2169 -0.1374
19800SOL    HW165236   7.450   8.879  10.844 -0.7188  0.0726  0.2522
19800SOL    HW265237   7.450   8.880  10.995  0.5011  0.5532  0.2592
19801SOL     OW65238   7.735   3.187   9.764  0.2302 -0.3339  0.4117
19801SOL    HW165239   7.698   3.101   9.744  0.9180 -0.4354 -0.5267
19801SOL    HW265240   7.740   3.190   9.859 -3.4749  0.2600  0.7381
19802SOL     OW65241   8.760   6.837   2.396 -0.4478  0.5620 -0.4921
19802SOL    HW165242   8.788   6.928   2.410 -1.7906  0.9323 -0.0794
19802SOL    HW265243   8.818   6.785   2.452  1.7354  0.9150 -2.3060
19803SOL     OW65244   4.795   7.754   7.157 -0.1226  0.0091  0.9483
19803SOL    HW165245   4.718   7.752   7.100  1.9081 -0.2970 -1.9737
19803SOL    HW265246   4.802   7.665   7.192 -1.2046  0.1111  1.4704
19804SOL     OW65247   3.310   2.390   9.388 -0.1367  0.0182 -0.9989
19804SOL    HW165248   3.375   2.320   9.401  1.2360  1.3088 -0.5862
19804SOL    HW265249   3.361   2.471   9.395 -1.9816  1.1196  0.3380
19805SOL     OW65250   4.064  10.849  10.634  0.1622  0.1569 -0.2912
19805SOL    HW165251   4.006  10.788  10.589  0.7379 -0.9216  0.3962
19805SOL    HW265252   4.116  10.888  10.564 -1.0289  0.7953 -0.8673
19806SOL     OW65253   8.710   2.788   1.822 -0.4551  0.1109  0.2369
19806SOL    HW165254   8.707   2.877   1.788  1.8551 -0.0238 -0.4922
19806SOL    HW265255   8.720   2.733   1.745  2.7943 -0.3662  0.8658
19807SOL     OW65256   0.648   8.687   7.803 -0.5416 -0.4413 -0.5502
19807SOL    HW165257   0.690   8.705   7.719  1.0412  0.1920  0.3288
19807SOL    HW265258   0.558   8.666   7.781  0.3571 -2.4970 -2.5877
19808SOL     OW65259   1.808  10.457   4.093  0.2190  0.1676 -0.1266
19808SOL    HW165260   1.838  10.466   4.002 -1.5496  3.1358 -0.5721
19808SOL    HW265261   1.714  10.443   4.085  0.3819 -2.2452  1.3003
19809SOL     OW65262   8.340   2.572   4.998  0.5629  0.2549  0.0371
19809SOL    HW165263   8.344   2.629   5.075  0.7062 -0.1264  0.3188
19809SOL    HW265264   8.432   2.553   4.979  0.5303  0.4193 -0.2817
19810SOL     OW65265   8.894   8.561   3.324 -0.0026 -0.0492 -0.2239
19810SOL    HW165266   8.854   8.620   3.388 -0.1492 -0.8729  0.4652
19810SOL    HW265267   8.819   8.526   3.276 -0.1441 -1.4248  0.9207
19811SOL     OW65268  10.337   5.618   4.977  0.3667  0.0453 -0.2399
19811SOL    HW165269  10.409   5.634   4.916  0.0255  0.4617 -0.5374
19811SOL    HW265270  10.380   5.600   5.061  0.8507 -0.8504 -0.6651
19812SOL     OW65271   2.505   4.407   8.443 -0.0602 -0.0917  0.2764
19812SOL    HW165272   2.576   4.452   8.396 -0.2495 -0.0695  0.0101
19812SOL    HW265273   2.542   4.388   8.529 -0.3747  1.6782  0.8474
19813SOL     OW65274  10.109   1.927   7.179 -0.1105  0.2015  0.2874
19813SOL    HW165275  10.184   1.921   7.121  1.7116  1.6511  2.3619
19813SOL    HW265276  10.073   1.838   7.180  2.5978 -0.9745  0.5164
19814SOL     OW65277   1.680   4.567   1.314 -0.1481  0.2585  0.1979
19814SOL    HW165278   1.710   4.652   1.348 -1.7423  0.8862  0.1364
19814SOL    HW265279   1.708   4.566   1.223  1.4578 -0.0960  0.6602
19815SOL     OW65280   7.860   6.654   0.860 -0.4125 -0.2947  0.7079
19815SOL    HW165281   7.941   6.620   0.822 -0.5866  0.8710 -0.8103
19815SOL    HW265282   7.854   6.743   0.827 -1.7359  0.0244  1.7368
19816SOL     OW65283   4.651   1.522   2.010  0.2844 -0.4711 -0.1910
19816SOL    HW165284   4.627   1.465   1.936 -0.5042 -0.5425  0.1173
19816SOL    HW265285   4.592   1.597   2.003  0.0101 -0.6153  0.5332
19817SOL     OW65286   0.122   2.285   9.768  0.0457 -0.1859  0.7145
19817SOL    HW165287   0.209   2.247   9.778 -0.0369 -0.0777  2.0953
19817SOL    HW265288   0.136   2.365   9.718  0.9783  0.5778  2.1320
19818SOL     OW65289   6.972   2.391   6.887 -0.2853 -0.2042  0.6384
19818SOL    HW165290   6.986   2.437   6.970  0.3013 -1.2791  1.1627
19818SOL    HW265291   6.962   2.299   6.912 -2.0104 -0.3235 -0.3224
19819SOL     OW65292   3.823   4.665   3.752 -0.1205 -0.3397  0.1869
19819SOL    HW165293   3.790   4.576   3.759  1.1433 -1.0597 -1.9504
19819SOL    HW265294   3.917   4.655   3.738 -0.3686  0.9799 -3.9742
19820SOL     OW65295   4.433   7.083   2.389 -0.2410  0.2890 -0.7528
19820SOL    HW165296   4.413   7.004   2.339 -0.2595  0.5047 -1.0894
19820SOL    HW265297   4.524   7.101   2.369  1.1284 -1.9284  2.4445
19821SOL     OW65298   3.523  10.432   6.425 -0.3371 -0.1670  0.7731
19821SOL    HW165299   3.592  10.371   6.448 -1.5288 -2.1768 -0.6375
19821SOL    HW265300   3.450  10.408   6.482 -0.4850  0.6846  0.9524
19822SOL     OW65301   7.245   0.132   3.742 -0.5519 -0.2763  0.6113
19822SOL    HW165302   7.260   0.094   3.656 -1.8088 -0.1900  0.3318
19822SOL    HW265303   7.183   0.203   3.727 -0.0376  0.3737  1.4545
19823SOL     OW65304   8.918   9.333   8.485 -0.1554 -0.4249  0.5796
19823SOL    HW165305   8.996   9.336   8.429 -0.0234 -2.2011  0.6181
19823SOL    HW265306   8.902   9.425   8.509 -0.0316  0.3810 -2.0795
19824SOL     OW65307   4.260   9.424   6.472  0.6648  0.6456  0.3296
19824SOL    HW165308   4.292   9.335   6.452 -1.6439 -0.3499  0.7276
19824SOL    HW265309   4.291   9.441   6.561  1.0043  0.1543  0.3099
19825SOL     OW65310   2.778   6.507   6.422 -0.1611 -0.2580  0.5966
19825SOL    HW165311   2.767   6.428   6.369 -0.1268  0.8829 -1.1828
19825SOL    HW265312   2.788   6.577   6.358  0.9469  1.0419  2.1386
19826SOL     OW65313   4.982   9.068   7.321 -0.1125 -0.1453 -0.6968
19826SOL    HW165314   4.955   9.073   7.230 -0.0686  0.3977 -0.6832
19826SOL    HW265315   4.961   8.978   7.347 -1.8739  0.2253 -0.6953
19827SOL     OW65316   0.872   3.469   4.241  0.0525  0.4539  0.0145
19827SOL    HW165317   0.866   3.530   4.168 -1.4762  0.5208  0.1634
19827SOL    HW265318   0.784   3.467   4.278 -0.1608 -2.3697 -0.4255
19828SOL     OW65319   7.237   1.784   6.719 -0.0346  0.1148  0.6039
19828SOL    HW165320   7.184   1.797   6.640  1.6417 -0.5329 -0.6805
19828SOL    HW265321   7.231   1.690   6.737 -1.1192  0.3820  1.8237
19829SOL     OW65322   3.259   6.717   7.207 -0.2803 -0.1755  0.0374
19829SOL    HW165323   3.341   6.673   7.230  0.3405  0.6642 -0.4795
19829SOL    HW265324   3.279   6.762   7.125 -1.2711  0.0411 -0.0954
19830SOL     OW65325   3.754   7.344   1.794 -0.1559 -0.3921  0.1302
19830SOL    HW165326   3.789   7.419   1.841 -0.2386 -0.3512  0.1261
19830SOL    HW265327   3.831   7.305   1.751 -0.4797  1.3446 -2.2077
19831SOL     OW65328   6.642   1.519   9.513  0.6955  0.4789 -0.3673
19831SOL    HW165329   6.653   1.434   9.470 -1.0990 -0.2744  0.5484
19831SOL    HW265330   6.622   1.579   9.441 -1.0315 -0.5076 -0.7708
19832SOL     OW65331   2.504   1.865   8.652  0.1308 -0.1207  0.4094
19832SOL    HW165332   2.442   1.817   8.597  0.6820  2.2282 -2.5216
19832SOL    HW265333   2.460   1.948   8.671  0.5807 -0.2766  2.3413
19833SOL     OW65334   3.510   8.273   5.871  0.2239 -0.0088  0.0036
19833SOL    HW165335   3.499   8.368   5.881  0.1933 -0.0509  0.3712
19833SOL    HW265336   3.481   8.236   5.954  0.8022 -0.2974  0.0864
19834SOL     OW65337   7.158   8.716   7.920  0.3442  0.3202 -0.5205
19834SOL    HW165338   7.158   8.704   8.015 -1.8907 -0.0443 -0.5064
19834SOL    HW265339   7.218   8.789   7.905 -0.8323  1.7891  1.4173
19835SOL     OW65340   7.162   6.329   5.151 -0.9030 -0.3981 -0.1476
19835SOL    HW165341   7.252   6.359   5.162 -0.8696 -0.6568  0.3484
19835SOL    HW265342   7.132   6.311   5.240 -0.9569 -1.7037 -0.4024
19836SOL     OW65343   9.543   2.487  10.386 -0.7816 -0.6693 -0.3809
19836SOL    HW165344   9.594   2.568  10.391 -0.9197 -0.6536  1.3477
19836SOL    HW265345   9.547   2.462  10.293 -1.0740  1.5085 -1.0350
19837SOL     OW65346   6.481   1.626   2.880  1.0671 -0.3977  0.1999
19837SOL    HW165347   6.482   1.690   2.951 -3.1033  1.0285 -0.7268
19837SOL    HW265348   6.493   1.542   2.924 -0.5652  0.4941  2.5463
19838SOL     OW65349   5.180   8.299   7.356 -1.0396  0.2963 -0.4434
19838SOL    HW165350   5.164   8.217   7.402  2.7815 -1.0759 -1.2190
19838SOL    HW265351   5.130   8.293   7.275 -1.4248 -0.9121 -0.1249
19839SOL     OW65352   0.364   0.458   5.299  1.0239 -0.1264  0.2220
19839SOL    HW165353   0.363   0.407   5.218  1.3424  0.6480 -0.2825
19839SOL    HW265354   0.448   0.436   5.340  1.1104 -0.0936  0.0623
19840SOL     OW65355   0.255   4.126   6.700  0.2958  0.5528 -0.1138
19840SOL    HW165356   0.338   4.137   6.746 -0.1903  0.0397  0.9296
19840SOL    HW265357   0.240   4.031   6.699 -0.3060  0.6433 -0.2195
19841SOL     OW65358   0.225   0.082   6.794  0.4166  0.3095  0.2253
19841SOL    HW165359   0.299   0.090   6.734  1.2027 -0.6846  1.0277
19841SOL    HW265360   0.195   0.172   6.807 -0.9388  0.4484 -2.9836
19842SOL     OW65361   7.836   3.295   6.867  0.0396  0.3468 -0.0224
19842SOL    HW165362   7.808   3.385   6.847  0.2804  1.4151  3.6862
19842SOL    HW265363   7.928   3.304   6.891  0.3865 -1.1487 -0.7084
19843SOL     OW65364   2.673   3.468   6.662 -0.5310  0.0070  0.4966
19843SOL    HW165365   2.624   3.387   6.678 -0.0754 -0.3003  0.3580
19843SOL    HW265366   2.641   3.529   6.729 -0.6080 -0.4045  0.8394
19844SOL     OW65367   7.466   0.125  10.655  0.0772 -0.0729 -0.5853
19844SOL    HW165368   7.539   0.173  10.618  0.3317  1.5218  1.7258
19844SOL    HW265369   7.502   0.039  10.676  0.5598 -0.1755 -1.7914
19845SOL     OW65370   4.481   5.251   5.342  0.0887  0.1973 -0.0520
19845SOL    HW165371   4.497   5.344   5.354  0.6822  0.1094 -0.1356
19845SOL    HW265372   4.412   5.230   5.405 -0.7699  0.8922 -0.7249
19846SOL     OW65373   4.732   4.278   0.397 -0.0258 -0.0879 -0.1842
19846SOL    HW165374   4.723   4.291   0.491 -2.4970 -0.5178 -0.2933
19846SOL    HW265375   4.679   4.348   0.358  0.6885 -0.1143 -1.2495
19847SOL     OW65376   0.271  10.817   8.398  0.4293  0.9524  0.1759
19847SOL    HW165377   0.244  10.744   8.343 -2.5542  1.9711  0.1047
19847SOL    HW265378   0.333  10.866   8.345  0.2612  0.0221 -0.9059
19848SOL     OW65379   8.379   4.954   3.630  0.1211  0.5041  0.1281
19848SOL    HW165380   8.315   4.901   3.679  1.3034  0.1055  1.3140
19848SOL    HW265381   8.332   5.034   3.608 -1.6338 -0.8850 -1.4660
19849SOL     OW65382   1.326  10.450   8.057 -0.3491 -0.3982 -0.1619
19849SOL    HW165383   1.303  10.543   8.051  2.5372  0.3566 -1.1244
19849SOL    HW265384   1.293  10.411   7.976 -0.0941  0.1647 -0.5408
19850SOL     OW65385   1.315   1.592   7.049 -0.4001  0.3497  0.3636
19850SOL    HW165386   1.406   1.612   7.072  0.2499  0.5529 -2.1179
19850SOL    HW265387   1.269   1.676   7.058 -0.5039  0.1276  2.1697
19851SOL     OW65388   8.150   9.594   4.103 -0.2602  0.4550 -0.1145
19851SOL    HW165389   8.082   9.610   4.038 -0.4486  1.5429  0.3248
19851SOL    HW265390   8.231   9.624   4.060 -0.2762  0.4969 -0.1165
19852SOL     OW65391   7.949   9.522   5.176 -0.0169  0.3762  0.0670
19852SOL    HW165392   7.971   9.430   5.191  0.2107  0.5276  0.6872
19852SOL    HW265393   7.862   9.520   5.137  0.8403 -0.2066 -1.9286
19853SOL     OW65394   5.662   2.707   8.326 -0.4296  0.7973 -0.7165
19853SOL    HW165395   5.745   2.754   8.312 -0.9231  1.4986 -1.3709
19853SOL    HW265396   5.599   2.776   8.347 -1.0005  0.3490 -0.9233
19854SOL     OW65397   7.622   6.799   9.179  0.5377  0.0980  0.1454
19854SOL    HW165398   7.586   6.713   9.199  0.8528  0.2468  1.5070
19854SOL    HW265399   7.554   6.861   9.207  0.7731  0.3146  0.2466
19855SOL     OW65400   8.661   0.951   4.282  0.0863 -0.0889  0.6391
19855SOL    HW165401   8.620   0.865   4.272 -0.9412  0.3604  0.8166
19855SOL    HW265402   8.741   0.946   4.230 -1.4722 -0.1895 -1.9213
19856SOL     OW65403   6.327   4.514   9.742 -0.4009  0.4432  0.2793
19856SOL    HW165404   6.369   4.486   9.823 -1.4224 -0.7900  0.4254
19856SOL    HW265405   6.392   4.570   9.699  0.5712  0.2431  1.4353
19857SOL     OW65406   6.050   6.047   9.470  0.2467 -0.0894 -0.1032
19857SOL    HW165407   6.027   6.129   9.426  1.1563 -1.0170 -2.4908
19857SOL    HW265408   6.122   6.011   9.418  0.6194 -1.8883  1.5232
19858SOL     OW65409   0.172   6.298   6.229  0.4303 -0.0330  0.3155
19858SOL    HW165410   0.133   6.211   6.227  0.0650  0.1360  0.1500
19858SOL    HW265411   0.099   6.358   6.213  0.3324  0.4132  2.2126
19859SOL     OW65412   2.488   0.725   7.636 -0.4399  0.0524 -0.2964
19859SOL    HW165413   2.500   0.809   7.592 -0.5046  0.6741  0.8434
19859SOL    HW265414   2.574   0.705   7.673 -0.3071 -0.6163 -0.9264
19860SOL     OW65415   3.661   5.726   5.480 -0.8229  0.0199 -0.0024
19860SOL    HW165416   3.662   5.811   5.523 -0.7929  0.4304 -0.7970
19860SOL    HW265417   3.622   5.667   5.544 -1.2557  0.7191  0.3886
19861SOL     OW65418   8.445   5.830   9.372  0.2458 -0.0013 -0.1805
19861SOL    HW165419   8.400   5.795   9.295 -0.6272 -0.4574  0.5109
19861SOL    HW265420   8.374   5.860   9.429  0.8453 -0.2738  0.7297
19862SOL     OW65421   4.212   0.562   5.269 -0.1823  0.0483  0.1515
19862SOL    HW165422   4.218   0.474   5.304  0.4672 -0.1723 -0.4834
19862SOL    HW265423   4.299   0.580   5.233  0.0237  1.3559  1.1984
19863SOL     OW65424  10.236  10.244   0.058  0.3512 -0.1680 -0.2541
19863SOL    HW165425  10.253  10.160   0.102  1.6703  0.7548  1.1057
19863SOL    HW265426  10.214  10.304   0.130  0.8626  0.9857 -1.0335
19864SOL     OW65427   7.058   2.740  10.197 -0.1418 -0.4974  0.2299
19864SOL    HW165428   7.023   2.765  10.283  1.6546  0.9273  0.5910
19864SOL    HW265429   7.126   2.677  10.216  0.7030  0.3036 -0.0746
19865SOL     OW65430   0.449   9.241   2.627  0.7185  0.3816 -0.6223
19865SOL    HW165431   0.434   9.229   2.721  1.3213  0.3769 -0.5251
19865SOL    HW265432   0.501   9.321   2.620 -0.9007  1.4497 -1.0862
19866SOL     OW65433   0.152   6.888   4.446 -0.4188  0.3856 -0.1416
19866SOL    HW165434   0.128   6.954   4.382 -1.4572  0.3904  0.2299
19866SOL    HW265435   0.109   6.916   4.527 -0.5693 -0.5401  0.1127
19867SOL     OW65436   0.774  10.457   6.686  0.0265  0.2575  0.0062
19867SOL    HW165437   0.832  10.471   6.761 -0.5931 -0.5714  0.6563
19867SOL    HW265438   0.797  10.370   6.654 -1.2307 -0.3284  0.6314
19868SOL     OW65439   1.982   8.346  10.243 -0.0728 -0.0527 -0.0229
19868SOL    HW165440   1.943   8.378  10.324  0.9766  0.4542  0.3039
19868SOL    HW265441   2.012   8.257  10.264  2.4466  0.9315  0.9825
19869SOL     OW65442  10.623   8.342   9.773  0.3822 -0.0995 -0.0970
19869SOL    HW165443  10.644   8.273   9.710  1.0530  1.0467 -1.1973
19869SOL    HW265444  10.550   8.307   9.824 -0.4699 -0.9359 -1.7914
19870SOL     OW65445   5.172  10.797   6.193 -0.1831  0.2803  0.1006
19870SOL    HW165446   5.118  10.742   6.251  0.8304 -0.8092  0.0573
19870SOL    HW265447   5.131  10.789   6.107  0.2542 -0.8653 -0.0175
19871SOL     OW65448  10.663   3.265   5.378 -0.0949  0.3884  0.8423
19871SOL    HW165449  10.710   3.247   5.296 -2.0947 -0.1535 -0.2643
19871SOL    HW265450  10.694   3.198   5.439 -0.4056 -0.8450 -0.2896
19872SOL     OW65451   1.738   5.218   9.872 -0.2640  0.2881 -0.2234
19872SOL    HW165452   1.648   5.246   9.855 -0.5500 -0.3870  0.1111
19872SOL    HW265453   1.791   5.297   9.861 -0.8926  0.6836 -0.4663
19873SOL     OW65454   2.873   1.235   4.824  0.1249  0.1674  0.0260
19873SOL    HW165455   2.804   1.268   4.766  0.6666  0.1428 -0.6438
19873SOL    HW265456   2.828   1.218   4.907 -1.2276 -2.2247 -1.0797
19874SOL     OW65457   8.471   2.319   8.193 -0.3108  0.1848 -0.2275
19874SOL    HW165458   8.408   2.341   8.125  0.6919  0.2179 -1.1667
19874SOL    HW265459   8.417   2.287   8.266 -1.5422  1.9253 -0.2979
19875SOL     OW65460   3.816   5.311   4.616  0.4013 -0.1226  0.0297
19875SOL    HW165461   3.910   5.315   4.635  0.5041 -0.9252 -0.2763
19875SOL    HW265462   3.810   5.329   4.523  0.2660 -0.2084  0.0223
19876SOL     OW65463  10.075   7.705   7.500  0.4223 -0.5635 -0.4333
19876SOL    HW165464  10.144   7.696   7.435  0.2521 -1.0066 -0.5559
19876SOL    HW265465  10.119   7.693   7.584  0.8194  0.9671 -0.3922
19877SOL     OW65466   0.919   8.634   0.614  0.9560  0.2120  0.2575
19877SOL    HW165467   0.971   8.633   0.694 -1.1967  0.5559  1.7342
19877SOL    HW265468   0.890   8.544   0.603  0.3693  0.3667  0.4911
19878SOL     OW65469   3.469   5.675   6.268 -0.1809  0.1004  0.6847
19878SOL    HW165470   3.424   5.693   6.186 -0.5501 -1.1518  0.5789
19878SOL    HW265471   3.517   5.755   6.288  0.3362  0.2706 -1.0206
19879SOL     OW65472   6.363  10.230   4.183 -0.0156 -0.0548 -0.4109
19879SOL    HW165473   6.386  10.320   4.158  1.4187  0.3101  1.9615
19879SOL    HW265474   6.415  10.176   4.123 -0.6667  0.6489 -1.6754
19880SOL     OW65475   5.932   6.487   0.598 -0.3982  0.4457 -0.2520
19880SOL    HW165476   5.996   6.447   0.538 -2.1362 -0.3991 -1.6600
19880SOL    HW265477   5.880   6.413   0.629 -0.5692  1.0898  1.0295
19881SOL     OW65478   2.041   8.695   3.455  0.0637 -0.2436 -0.0276
19881SOL    HW165479   2.122   8.741   3.437  0.8053 -1.3763  0.3040
19881SOL    HW265480   2.038   8.687   3.550 -0.2860 -0.4852 -0.0555
19882SOL     OW65481   4.302   5.611   5.559 -0.2266 -0.0315 -0.0378
19882SOL    HW165482   4.220   5.582   5.598  0.3783 -0.0959  1.2589
19882SOL    HW265483   4.345   5.662   5.628  1.7576 -1.7367  0.1002
19883SOL     OW65484   0.634   5.456   2.682  0.1767 -0.1282  0.7502
19883SOL    HW165485   0.625   5.501   2.766  0.5803  0.4086  0.5105
19883SOL    HW265486   0.557   5.485   2.632  0.8864  0.9877  0.2855
19884SOL     OW65487   6.529   1.096   3.475 -0.1718  0.2799 -0.0785
19884SOL    HW165488   6.619   1.079   3.500  1.3160  2.0315 -3.5638
19884SOL    HW265489   6.506   1.022   3.418 -1.1735 -0.3873  1.1364
19885SOL     OW65490   4.292   5.474   8.982  0.3599 -0.2640  0.2179
19885SOL    HW165491   4.324   5.437   8.900 -0.0517  0.0242 -0.0767
19885SOL    HW265492   4.350   5.549   8.999 -0.3867  0.4992 -0.5217
19886SOL     OW65493   7.523   6.569   1.086  0.1769  0.7281  0.4289
19886SOL    HW165494   7.578   6.645   1.068  0.4294  0.6323  0.7883
19886SOL    HW265495   7.487   6.585   1.173  0.8101  0.0981  0.8168
19887SOL     OW65496   8.544   4.879  10.262 -0.0419  0.3325  0.3393
19887SOL    HW165497   8.474   4.828  10.304  0.6301 -1.7377 -0.8854
19887SOL    HW265498   8.498   4.936  10.200 -0.6816 -1.4035 -0.8700
19888SOL     OW65499   1.642   4.804   4.611  0.1959 -0.3038  0.3535
19888SOL    HW165500   1.571   4.777   4.669  0.3429 -1.7692 -0.1107
19888SOL    HW265501   1.721   4.791   4.663  0.2352 -0.2806  0.2992
19889SOL     OW65502   7.947   1.241  10.265 -0.5538 -0.1804 -0.3670
19889SOL    HW165503   7.854   1.226  10.281 -0.3147 -1.2418  0.1257
19889SOL    HW265504   7.951   1.278  10.177 -1.7023  3.2148  0.8457
19890SOL     OW65505   1.672   8.117   5.182  0.1823  0.2670  0.1754
19890SOL    HW165506   1.733   8.178   5.222  0.4774  0.3815 -0.4347
19890SOL    HW265507   1.722   8.036   5.171  0.3524  0.4726 -0.6656
19891SOL     OW65508   7.613   5.095   7.045  0.4048  0.3945 -0.3360
19891SOL    HW165509   7.547   5.034   7.079  1.5691 -1.1545 -0.7375
19891SOL    HW265510   7.569   5.180   7.045 -0.9810 -0.2580  1.1313
19892SOL     OW65511   4.001   2.175   7.383 -0.1997  0.4667 -0.1242
19892SOL    HW165512   3.928   2.140   7.433  0.7476  0.1844  1.1254
19892SOL    HW265513   3.983   2.149   7.292 -2.0380  1.1397  0.0168
19893SOL     OW65514   6.911   8.777   9.587  0.9375 -0.0657  0.3640
19893SOL    HW165515   6.857   8.753   9.512  0.8549 -0.3472  0.5098
19893SOL    HW265516   6.923   8.872   9.579  0.8194 -0.0746  0.0703
19894SOL     OW65517   7.554   2.028   1.334  1.0038  0.2540  0.0165
19894SOL    HW165518   7.561   2.084   1.257  3.4865 -1.5594 -1.2284
19894SOL    HW265519   7.639   2.037   1.378  0.0098  0.4384  1.9981
19895SOL     OW65520   6.717   1.477   9.124  0.0276  0.6051 -0.4283
19895SOL    HW165521   6.691   1.551   9.069 -3.1771 -1.5216 -2.0295
19895SOL    HW265522   6.775   1.425   9.068  0.0560  0.4837 -0.2855
19896SOL     OW65523   1.021   1.532   0.077 -0.3261 -0.9725  0.2053
19896SOL    HW165524   1.048   1.586   0.151  0.2500  1.2433 -1.4932
19896SOL    HW265525   1.088   1.464   0.071  0.4183 -0.3160  0.8446
19897SOL     OW65526   4.470   6.286   2.876  0.4832  0.3185 -0.1766
19897SOL    HW165527   4.412   6.247   2.942  1.1037 -0.2572  0.0492
19897SOL    HW265528   4.552   6.237   2.885  1.3611  1.7884  0.2158
19898SOL     OW65529   6.689   2.763   0.574  0.4811 -0.0469 -0.3792
19898SOL    HW165530   6.622   2.829   0.588  0.2352 -0.0876 -1.3334
19898SOL    HW265531   6.771   2.806   0.601  0.3886  0.8185 -1.4332
19899SOL     OW65532  10.400   7.652   8.798 -0.3591  0.8568  0.1009
19899SOL    HW165533  10.431   7.625   8.884  1.1877 -1.2035 -1.0160
19899SOL    HW265534  10.320   7.602   8.784  0.8546 -0.9646 -0.7034
19900SOL     OW65535   0.790   2.204  10.252 -0.0515 -0.2078 -0.2350
19900SOL    HW165536   0.769   2.298  10.254  0.2770 -0.1370  1.4480
19900SOL    HW265537   0.838   2.193  10.170 -0.0692  1.1117 -0.4556
19901SOL     OW65538   4.210   6.713   5.929  0.0789 -0.0434 -0.0704
19901SOL    HW165539   4.262   6.651   5.980 -0.0625 -0.0481  0.0693
19901SOL    HW265540   4.272   6.754   5.869  0.4203  0.6307  0.7349
19902SOL     OW65541   8.718   9.592   9.423 -0.0017 -0.1873 -0.2255
19902SOL    HW165542   8.726   9.500   9.399  0.2779 -0.5488  1.1655
19902SOL    HW265543   8.682   9.590   9.512 -1.6179  1.0933 -0.8153
19903SOL     OW65544   0.086   3.480   7.774  0.3639  0.0527 -0.0780
19903SOL    HW165545   0.054   3.430   7.850 -0.7408 -0.1576 -0.6644
19903SOL    HW265546   0.079   3.420   7.701  0.2648  0.6426 -0.5642
19904SOL     OW65547  10.835   2.974   3.071 -0.2999 -0.0787 -0.0680
19904SOL    HW165548  10.927   2.996   3.089 -0.3760  0.0056  0.2253
19904SOL    HW265549  10.807   3.039   3.006  0.2216 -0.9077 -1.1572
19905SOL     OW65550   0.045   4.871   4.792  0.1715  0.1447  0.0728
19905SOL    HW165551   0.003   4.880   4.878  0.5041 -0.9002  0.3636
19905SOL    HW265552  -0.021   4.825   4.739 -0.2780  1.3409 -0.4336
19906SOL     OW65553   3.680   0.250   0.665 -0.1531  0.0238  0.3268
19906SOL    HW165554   3.697   0.257   0.759  0.4866 -0.4214  0.2474
19906SOL    HW265555   3.616   0.319   0.647 -2.2089 -1.4484  1.5325
19907SOL     OW65556   3.869   5.198   6.519 -0.2259  0.4097 -0.0021
19907SOL    HW165557   3.857   5.105   6.541  1.3656  0.6030  1.9182
19907SOL    HW265558   3.948   5.200   6.465  0.0455  0.6959  0.4013
19908SOL     OW65559   3.774   6.615   1.433  0.2132 -0.0680  0.0743
19908SOL    HW165560   3.707   6.561   1.475  0.2938  1.0040  1.6995
19908SOL    HW265561   3.726   6.692   1.402  0.5343  0.2681  0.3977
19909SOL     OW65562   1.125   9.491   5.522  0.1522  0.1250 -0.5223
19909SOL    HW165563   1.071   9.552   5.573  1.4372  1.4620 -0.6792
19909SOL    HW265564   1.083   9.406   5.533 -0.2578  0.5669  1.8434
19910SOL     OW65565   2.200   7.401   6.141  0.4536  0.1709 -0.2534
19910SOL    HW165566   2.267   7.439   6.197 -1.1874  2.6216  0.2128
19910SOL    HW265567   2.139   7.359   6.202 -0.7806  1.9427 -0.1683
19911SOL     OW65568   9.403   0.709   4.021 -0.1513 -0.0044  0.1751
19911SOL    HW165569   9.424   0.734   3.931  0.3317 -1.5536 -0.1648
19911SOL    HW265570   9.309   0.722   4.029 -0.1150  0.6600 -0.3698
19912SOL     OW65571   2.490   0.308  10.707 -0.0555  0.0964 -0.1794
19912SOL    HW165572   2.558   0.280  10.769  0.4907  0.7844 -0.4555
19912SOL    HW265573   2.443   0.378  10.753  0.4818  0.7485 -0.6127
19913SOL     OW65574   1.415   6.692   3.474  0.1405  0.5231  0.3125
19913SOL    HW165575   1.502   6.724   3.450  1.6188 -1.8964  1.9452
19913SOL    HW265576   1.423   6.665   3.565 -2.3379  0.1721  0.5084
19914SOL     OW65577   4.299   1.707   1.726 -0.0815  0.2968  0.3302
19914SOL    HW165578   4.304   1.802   1.738  2.1580  0.1810  0.7335
19914SOL    HW265579   4.209   1.692   1.697 -0.5496  2.5096  0.3951
19915SOL     OW65580  10.692   3.766   6.926  0.1225 -0.0808  0.5149
19915SOL    HW165581  10.663   3.804   6.843 -0.9406 -1.0874  0.4037
19915SOL    HW265582  10.620   3.782   6.987  0.9619  0.8045  1.3228
19916SOL     OW65583   0.663   0.615   1.414 -0.2817  0.2524 -0.1910
19916SOL    HW165584   0.659   0.685   1.479 -0.6125 -0.5952  0.7309
19916SOL    HW265585   0.666   0.535   1.466 -0.7833 -0.4580 -1.2326
19917SOL     OW65586   7.547   8.673   8.812  0.6111  0.0004  0.0417
19917SOL    HW165587   7.527   8.702   8.901  1.4875  0.8674 -0.0285
19917SOL    HW265588   7.539   8.577   8.816  0.4873  0.0384  1.0050
19918SOL     OW65589   4.548   0.056   9.626  0.9530 -0.0874  0.5659
19918SOL    HW165590   4.556   0.101   9.710 -1.5484 -0.2520  0.9833
19918SOL    HW265591   4.556  -0.037   9.647  0.3047 -0.1297  0.6390
19919SOL     OW65592   2.313  10.586   7.720 -0.6140 -0.0905  0.4584
19919SOL    HW165593   2.222  10.560   7.730 -0.7438  0.5573  1.0421
19919SOL    HW265594   2.317  10.629   7.635 -0.6053 -1.0844 -0.0639
19920SOL     OW65595   8.264   2.661   1.094 -0.1758 -0.5962  0.0800
19920SOL    HW165596   8.315   2.581   1.080  0.1188 -0.3530 -0.2658
19920SOL    HW265597   8.260   2.702   1.007 -0.1528 -0.1323  0.2933
19921SOL     OW65598  10.472  10.009   0.893  0.0434 -0.5970  0.3073
19921SOL    HW165599  10.490  10.058   0.813  0.6693  0.1107  0.8671
19921SOL    HW265600  10.403  10.059   0.937  0.5091 -0.3415  0.7604
19922SOL     OW65601   9.830  10.798  10.253  0.0107  0.2867  0.1208
19922SOL    HW165602   9.815  10.705  10.272 -0.1990 -0.4657 -3.0542
19922SOL    HW265603   9.747  10.841  10.273 -0.0134 -0.2582  1.2520
19923SOL     OW65604   5.184   7.537   9.591 -0.1664 -0.4077  0.6052
19923SOL    HW165605   5.169   7.488   9.672  0.0606 -1.4566  0.0384
19923SOL    HW265606   5.202   7.469   9.526 -0.3081  0.4208 -0.3151
19924SOL     OW65607   9.441  10.046   8.406 -0.0172 -0.2735 -0.0648
19924SOL    HW165608   9.373  10.112   8.419  0.7178  0.5525 -0.3168
19924SOL    HW265609   9.466  10.020   8.495  0.2235  0.3661  0.0665
19925SOL     OW65610   4.062   1.893   5.918  0.1463  0.1434  0.3549
19925SOL    HW165611   4.125   1.846   5.863  2.2923  3.8997 -0.7786
19925SOL    HW265612   3.980   1.891   5.869  0.5436 -1.1658 -0.2953
19926SOL     OW65613  10.389   3.712   5.537 -0.5165  0.4509 -0.5906
19926SOL    HW165614  10.453   3.781   5.524  1.0522 -0.7911  0.1675
19926SOL    HW265615  10.402   3.684   5.628 -0.6555 -1.2638 -1.0665
19927SOL     OW65616   1.232   4.241   3.255  0.8847 -0.0454  0.5149
19927SOL    HW165617   1.233   4.157   3.301 -0.7871  0.0005  0.7030
19927SOL    HW265618   1.231   4.217   3.162 -0.5900 -0.3118  0.5633
19928SOL     OW65619   3.742   5.930   0.685  0.1216  0.0937  0.0791
19928SOL    HW165620   3.729   6.000   0.749  0.4965  1.7345 -1.5432
19928SOL    HW265621   3.804   5.967   0.622  1.8074 -2.4057  0.1382
19929SOL     OW65622   9.865   6.716   0.207 -0.2638  0.2436  0.2437
19929SOL    HW165623   9.953   6.749   0.189  1.1520 -2.0608  2.2752
19929SOL    HW265624   9.851   6.648   0.142  0.7938 -1.3972  1.6180
19930SOL     OW65625  10.349   3.213   8.789  0.2237  0.2355  0.0634
19930SOL    HW165626  10.346   3.212   8.884  0.8254  0.0692  0.0804
19930SOL    HW265627  10.407   3.140   8.766  1.1863  1.1283 -0.3869
19931SOL     OW65628   0.314   0.931   8.874  0.1790 -0.2571  0.4299
19931SOL    HW165629   0.368   0.972   8.807  0.4739  0.7863  1.2732
19931SOL    HW265630   0.225   0.936   8.840  0.6355 -3.4555 -1.7302
19932SOL     OW65631   4.769   0.248   8.986  0.6413 -0.2719 -0.3590
19932SOL    HW165632   4.730   0.219   8.903  1.2642 -2.0272 -0.0746
19932SOL    HW265633   4.784   0.168   9.035  0.5086  0.7191  1.3845
19933SOL     OW65634   8.581   7.211   0.848 -0.0820 -0.0786  0.7160
19933SOL    HW165635   8.667   7.239   0.817  0.1731 -0.9369  0.6260
19933SOL    HW265636   8.588   7.209   0.943 -0.2209  0.5049  0.7463
19934SOL     OW65637   6.918   1.614   8.814 -0.4171  0.3928  0.2326
19934SOL    HW165638   6.882   1.698   8.841 -1.5229 -0.6494  2.2256
19934SOL    HW265639   6.909   1.558   8.891  0.3808 -1.5409 -0.9975
19935SOL     OW65640   1.695   4.753   8.285  0.1272  0.1148 -0.3858
19935SOL    HW165641   1.694   4.756   8.189  0.8064  0.7878 -0.3735
19935SOL    HW265642   1.684   4.660   8.306  2.7034 -0.4228 -1.1568
19936SOL     OW65643   6.671   7.821   6.072 -0.0811 -0.1253  0.2369
19936SOL    HW165644   6.673   7.729   6.047 -0.7551 -0.5886  1.7405
19936SOL    HW265645   6.710   7.867   5.998  0.5816 -1.6446 -0.4068
19937SOL     OW65646   3.220   7.134   5.876 -0.4156  0.7672 -0.0826
19937SOL    HW165647   3.226   7.228   5.855 -0.1893  0.9907  0.9372
19937SOL    HW265648   3.140   7.105   5.833 -1.0806  1.6891  0.5039
19938SOL     OW65649   5.601   9.547   3.156  0.3286  0.0826  0.5604
19938SOL    HW165650   5.669   9.485   3.181 -1.1832 -1.1997  1.6174
19938SOL    HW265651   5.634   9.632   3.185  1.2422 -0.5874  1.5433
19939SOL     OW65652   1.006   0.249   8.548 -0.2001 -0.1897  0.2817
19939SOL    HW165653   0.919   0.211   8.533  0.0742 -1.2715  1.2986
19939SOL    HW265654   1.043   0.197   8.619  1.0697  0.6188  0.2431
19940SOL     OW65655   8.906   4.054   5.213  0.2108  0.4320 -0.5804
19940SOL    HW165656   8.841   4.049   5.143 -0.0419  0.7508 -0.3704
19940SOL    HW265657   8.855   4.066   5.293  0.3491 -2.2375 -0.0196
19941SOL     OW65658   4.844   3.524   8.458 -0.2185  0.1376 -0.1991
19941SOL    HW165659   4.858   3.585   8.531 -1.5154  0.4671 -0.1948
19941SOL    HW265660   4.767   3.558   8.413 -0.9986 -1.5091 -0.1869
19942SOL     OW65661   3.516   8.800   4.275  0.4346  0.7387  0.1720
19942SOL    HW165662   3.499   8.707   4.288 -2.1754  1.0544 -0.6209
19942SOL    HW265663   3.605   8.803   4.240  0.3550 -1.4875 -0.3604
19943SOL     OW65664   5.233   5.548   1.468  0.0525 -0.1379 -0.1771
19943SOL    HW165665   5.295   5.480   1.494  1.7315  1.0354 -0.9557
19943SOL    HW265666   5.181   5.507   1.398 -0.0091 -1.1053  0.4174
19944SOL     OW65667   7.567   1.590   7.946 -0.5281 -0.2443  0.2632
19944SOL    HW165668   7.603   1.608   8.033  4.0334 -0.7014 -1.2348
19944SOL    HW265669   7.526   1.672   7.919 -2.1588 -0.1321  2.7886
19945SOL     OW65670   8.605   4.343   9.431  0.1723  0.2646 -0.0520
19945SOL    HW165671   8.646   4.290   9.363 -0.3805 -0.0877 -0.1135
19945SOL    HW265672   8.669   4.344   9.502  1.5735  2.1539 -1.2265
19946SOL     OW65673   8.350   3.915   8.367 -0.1668 -0.1845 -0.3883
19946SOL    HW165674   8.319   3.924   8.457  2.1761  1.8678  0.3028
19946SOL    HW265675   8.394   3.830   8.365  1.4591  0.5666  1.0198
19947SOL     OW65676   5.595   5.527   7.237  0.1647  0.1203 -0.4242
19947SOL    HW165677   5.684   5.546   7.265 -0.2976  0.2490  1.0583
19947SOL    HW265678   5.571   5.447   7.284 -1.6307  1.9112  1.9680
19948SOL     OW65679   4.293  10.411  10.819 -0.0735 -0.2887  0.0850
19948SOL    HW165680   4.246  10.494  10.825 -0.3708 -0.3460 -1.2920
19948SOL    HW265681   4.378  10.428  10.860  0.8003  1.3995 -2.2242
19949SOL     OW65682   5.748   0.004   6.919 -0.0089 -0.0512 -0.0546
19949SOL    HW165683   5.746   0.025   6.826 -3.0364 -0.0451 -0.0904
19949SOL    HW265684   5.793  -0.080   6.923  0.2434 -0.0179 -1.5198
19950SOL     OW65685  10.166   5.159   9.814 -0.0539  0.0044  0.0530
19950SOL    HW165686  10.073   5.183   9.812  0.2362  1.2552  0.4678
19950SOL    HW265687  10.196   5.172   9.724 -0.2021 -0.0470 -0.0042
19951SOL     OW65688  10.266  10.433   7.290 -0.2847 -0.6519  0.4043
19951SOL    HW165689  10.200  10.365   7.274  1.8652 -2.9597  0.8025
19951SOL    HW265690  10.288  10.423   7.383  0.0404  0.6748  0.4840
19952SOL     OW65691   6.641   3.563   1.803  0.4288 -0.3155 -0.9333
19952SOL    HW165692   6.552   3.540   1.830  0.1019  0.4174 -1.3517
19952SOL    HW265693   6.648   3.530   1.714  0.8450 -1.0207 -0.6557
19953SOL     OW65694   1.902   5.612   7.978  0.3366 -0.2030  0.4139
19953SOL    HW165695   1.906   5.613   7.883  0.6400 -0.7460  0.4167
19953SOL    HW265696   1.811   5.633   7.999 -0.2351 -2.0598 -0.0584
19954SOL     OW65697   3.851   9.812   5.125 -0.3303  0.3090  0.4019
19954SOL    HW165698   3.816   9.726   5.105 -0.0935  0.1073  0.8421
19954SOL    HW265699   3.923   9.824   5.063 -1.6666  1.0740 -1.0768
19955SOL     OW65700  10.573  10.139   9.259 -0.2011 -0.0507  0.2055
19955SOL    HW165701  10.570  10.121   9.353 -0.7776  0.7936  0.3550
19955SOL    HW265702  10.497  10.194   9.242  0.1756  0.2232 -0.6697
19956SOL     OW65703   6.767   6.637   5.482 -0.0846 -0.4334  0.2431
19956SOL    HW165704   6.744   6.599   5.567 -0.8987  0.9886  0.6940
19956SOL    HW265705   6.838   6.581   5.450 -1.6776 -2.7497  0.4936
19957SOL     OW65706   5.942   3.992   7.919  0.1554  0.5441  0.4644
19957SOL    HW165707   5.929   4.041   8.001 -1.0357  0.4506  0.3501
19957SOL    HW265708   5.977   4.057   7.858 -2.1322  1.5216  0.0839
19958SOL     OW65709   7.520   3.318   7.631 -0.0465 -0.2326  0.3711
19958SOL    HW165710   7.513   3.223   7.617 -0.6728  0.2360 -3.7507
19958SOL    HW265711   7.613   3.337   7.618 -0.2722 -0.0728 -1.1738
19959SOL     OW65712  10.839  10.033   8.913  0.1656  0.8772  0.1175
19959SOL    HW165713  10.841  10.001   8.823 -1.7295  1.9222 -0.3405
19959SOL    HW265714  10.912   9.988   8.956 -1.4859 -3.0668 -0.7674
19960SOL     OW65715   1.983   2.280   8.135  0.2168  0.3110 -0.1105
19960SOL    HW165716   1.970   2.211   8.071 -0.3344  0.2114  0.1045
19960SOL    HW265717   1.982   2.361   8.084  0.9639  0.1636 -0.3753
19961SOL     OW65718   9.414   1.825   8.837  0.0207  0.3848  0.1111
19961SOL    HW165719   9.489   1.843   8.780  0.1243 -1.6959 -0.4753
19961SOL    HW265720   9.348   1.788   8.779 -0.1952 -0.9758  1.1862
19962SOL     OW65721   7.165   0.935   7.169  0.1205  0.1050 -0.1164
19962SOL    HW165722   7.149   0.951   7.076 -0.0699  0.3147 -0.0447
19962SOL    HW265723   7.120   0.853   7.187 -1.8306  1.2334  0.3507
19963SOL     OW65724   8.834   4.559   4.531  0.1712  0.0531 -0.7408
19963SOL    HW165725   8.743   4.579   4.550 -0.6599 -0.7793 -3.4881
19963SOL    HW265726   8.862   4.502   4.603 -1.2109  0.8847  0.5111
19964SOL     OW65727   3.705   1.074   7.602  0.0942  0.3012 -0.3717
19964SOL    HW165728   3.732   1.058   7.512  1.0348  0.1297 -0.0803
19964SOL    HW265729   3.611   1.089   7.598 -0.2942 -1.9352 -1.1251
19965SOL     OW65730   1.636   5.979   8.755  0.6074 -0.1569 -0.0763
19965SOL    HW165731   1.654   5.935   8.672 -2.2450  0.6079 -1.2208
19965SOL    HW265732   1.677   6.066   8.745  0.1244 -0.0011 -0.7757
19966SOL     OW65733   3.499   9.968   7.943  0.2213 -0.1776 -0.1545
19966SOL    HW165734   3.590   9.952   7.965  0.2375  1.6067  1.3559
19966SOL    HW265735   3.450   9.903   7.995  0.5343  0.6264  1.1872
19967SOL     OW65736   8.185   8.980   0.136  0.0953 -0.2775  0.0120
19967SOL    HW165737   8.198   8.904   0.079  0.8076 -2.0365  2.3706
19967SOL    HW265738   8.101   8.964   0.179 -0.2674  0.8365 -0.2387
19968SOL     OW65739  10.871   9.273   0.766 -0.4860 -0.1854 -0.2337
19968SOL    HW165740  10.793   9.267   0.820  0.6189 -0.5717  1.3694
19968SOL    HW265741  10.844   9.328   0.692 -2.8604 -2.0186 -0.8655
19969SOL     OW65742   7.765   2.697   5.500 -0.2445 -0.6302  0.1844
19969SOL    HW165743   7.727   2.783   5.520 -1.4946 -0.9026 -0.9021
19969SOL    HW265744   7.712   2.635   5.551 -1.5009 -1.0358 -1.5366
19970SOL     OW65745   4.783   8.880   8.630 -0.4127 -0.1671 -0.1463
19970SOL    HW165746   4.827   8.869   8.546  2.0296  0.5039  0.9555
19970SOL    HW265747   4.783   8.793   8.670 -0.8247 -0.3218 -0.4799
19971SOL     OW65748   3.280   6.628   5.915 -0.2570 -0.0861  0.3645
19971SOL    HW165749   3.355   6.569   5.907 -1.1818 -1.2699  0.2398
19971SOL    HW265750   3.289   6.688   5.841  1.6777  1.1315  1.4847
19972SOL     OW65751   3.292   2.526   2.652 -0.2700  0.5164  0.1515
19972SOL    HW165752   3.250   2.464   2.593  1.6096 -1.2079  0.4952
19972SOL    HW265753   3.370   2.555   2.604 -0.7808  2.1797  0.2584
19973SOL     OW65754   8.380   2.049   3.114  0.5082 -0.0265 -0.4822
19973SOL    HW165755   8.385   1.966   3.161 -1.5436  0.9872  1.7700
19973SOL    HW265756   8.440   2.107   3.161 -1.0635  0.8136  0.5900
19974SOL     OW65757   1.671   5.374   9.004  0.0241  0.2656 -0.2719
19974SOL    HW165758   1.593   5.325   8.977  0.2679 -0.0949 -0.3320
19974SOL    HW265759   1.719   5.389   8.923 -0.4857  1.3813 -0.3726
19975SOL     OW65760   7.978   4.675   9.547 -0.3930  0.5131 -0.2736
19975SOL    HW165761   7.999   4.709   9.634  0.7630 -0.8382  0.0005
19975SOL    HW265762   7.955   4.584   9.561 -2.2903  0.8152 -1.1531
19976SOL     OW65763   1.385   7.324   8.627 -0.3303  0.4876  0.2702
19976SOL    HW165764   1.319   7.303   8.561  0.1254  0.1490 -0.0813
19976SOL    HW265765   1.418   7.410   8.602 -0.0829  0.3131 -0.0060
19977SOL     OW65766  10.013  10.044   4.229 -0.3012 -0.0366  0.3730
19977SOL    HW165767   9.955  10.097   4.175  2.0361  2.0033 -0.3618
19977SOL    HW265768  10.051  10.106   4.291 -0.2004 -1.6351  1.9831
19978SOL     OW65769   3.116   2.030   6.832 -0.2366  0.0560 -0.2746
19978SOL    HW165770   3.209   2.033   6.854 -0.3786 -0.8640  0.5059
19978SOL    HW265771   3.073   1.997   6.911 -0.9075 -2.1626 -1.4643
19979SOL     OW65772   4.606   5.943   0.868  0.8412  0.4081  0.4274
19979SOL    HW165773   4.678   5.935   0.931 -0.8203 -0.4537  2.3246
19979SOL    HW265774   4.555   6.017   0.900 -0.0254 -0.0289  0.0714
19980SOL     OW65775   4.563   4.648   7.795 -0.6402 -0.0275 -0.2532
19980SOL    HW165776   4.490   4.674   7.852 -2.0947 -3.2590 -0.4091
19980SOL    HW265777   4.640   4.650   7.852 -1.1247  1.6464  0.4156
19981SOL     OW65778   8.360   9.826   4.933  0.1392  0.1474 -0.2160
19981SOL    HW165779   8.332   9.911   4.967  0.1764  1.1631 -2.5218
19981SOL    HW265780   8.303   9.762   4.977  0.0791  1.3516  1.5275
19982SOL     OW65781   1.372   3.636   0.699  0.1533 -0.1915 -0.7019
19982SOL    HW165782   1.447   3.645   0.639 -0.1947  1.5061 -0.9307
19982SOL    HW265783   1.306   3.590   0.648  0.4076 -0.1104 -1.1128
19983SOL     OW65784   2.425   0.550  10.100  0.4960 -0.4752  0.6935
19983SOL    HW165785   2.358   0.551  10.169 -1.2318 -0.5006 -0.8886
19983SOL    HW265786   2.418   0.462  10.062  0.0976  0.1154 -0.6838
19984SOL     OW65787   0.916   1.316   4.654 -0.1344  0.3559  0.7129
19984SOL    HW165788   0.940   1.286   4.566 -0.6860 -0.5888  0.8635
19984SOL    HW265789   0.836   1.368   4.640 -0.8277 -0.6636  0.7473
19985SOL     OW65790   0.440   1.464   4.640 -0.4819  0.0373 -0.0564
19985SOL    HW165791   0.356   1.503   4.617 -0.0852  1.3162  0.5560
19985SOL    HW265792   0.496   1.539   4.663  0.5829 -0.8361  0.3054
19986SOL     OW65793   1.312   4.220   4.127  0.3168  0.0084 -0.1678
19986SOL    HW165794   1.336   4.244   4.037  1.5984  1.9394  0.6134
19986SOL    HW265795   1.382   4.161   4.155 -1.1604 -2.2694 -1.0460
19987SOL     OW65796   8.078   1.358   2.076  0.0609  0.0385 -0.0359
19987SOL    HW165797   8.033   1.275   2.089  0.8118 -0.3963 -0.1946
19987SOL    HW265798   8.038   1.417   2.141 -2.4686  0.3960 -1.7775
19988SOL     OW65799  10.422  10.717  10.556 -0.1984  0.0875  0.7514
19988SOL    HW165800  10.419  10.634  10.509 -0.2239  0.6727 -0.2986
19988SOL    HW265801  10.495  10.707  10.617  0.3913 -0.3811 -0.0169
19989SOL     OW65802   8.436   9.266   8.698  0.3503 -0.2381 -0.0805
19989SOL    HW165803   8.485   9.300   8.773  1.0559 -1.2230 -0.0830
19989SOL    HW265804   8.379   9.339   8.672  1.1745  0.6299  0.4699
19990SOL     OW65805   2.901  10.714   4.792  0.6632  0.6506  0.5755
19990SOL    HW165806   2.987  10.743   4.764  0.0309  0.2266 -2.0868
19990SOL    HW265807   2.907  10.618   4.793  0.1537  0.6070  0.0565
19991SOL     OW65808   2.508   9.627   6.807 -0.1651 -1.4765 -0.1539
19991SOL    HW165809   2.467   9.572   6.873 -0.8255 -0.7004  0.0918
19991SOL    HW265810   2.447   9.626   6.733 -0.5396 -0.4818  0.1357
19992SOL     OW65811   3.496   8.480   3.699  0.3395  0.0894  0.4767
19992SOL    HW165812   3.445   8.519   3.628 -1.1606 -0.0279  1.4368
19992SOL    HW265813   3.520   8.393   3.667 -0.8205 -0.1854  0.3139
19993SOL     OW65814   1.668   1.503   4.254  0.7760  0.0880  0.4971
19993SOL    HW165815   1.631   1.457   4.330  0.0487 -0.5431 -0.2217
19993SOL    HW265816   1.712   1.579   4.292  0.7420 -0.4072  1.5846
19994SOL     OW65817   3.215   8.769   5.706  0.3783  0.0930 -0.5067
19994SOL    HW165818   3.139   8.717   5.733  1.3102 -0.3445  1.3985
19994SOL    HW265819   3.184   8.860   5.708  0.2802  0.0609  1.7807
19995SOL     OW65820   2.333   6.503   3.539 -0.6908 -0.1620  0.5405
19995SOL    HW165821   2.373   6.520   3.624 -1.3784  1.0971  0.6411
19995SOL    HW265822   2.262   6.442   3.559 -0.9098  0.1996  0.8919
19996SOL     OW65823   1.658   2.841   7.450  0.3386  0.2233 -0.0189
19996SOL    HW165824   1.726   2.779   7.422 -1.5607 -1.1461 -1.9633
19996SOL    HW265825   1.609   2.793   7.518 -0.1039  0.2490 -0.3154
19997SOL     OW65826   9.945  10.517   0.993 -0.3036 -0.0595  0.1797
19997SOL    HW165827   9.883  10.503   1.065 -0.7806 -0.1403 -0.2401
19997SOL    HW265828   9.904  10.475   0.918  0.4029 -0.3733 -0.0434
19998SOL     OW65829   0.354   8.931   8.476  0.2834 -0.2561 -0.1233
19998SOL    HW165830   0.261   8.919   8.458  0.1299  0.6003  0.0612
19998SOL    HW265831   0.386   8.843   8.498 -0.5615 -0.4933  0.1966
19999SOL     OW65832   7.888   6.369   9.773  0.4046 -0.5221  0.0805
19999SOL    HW165833   7.803   6.390   9.812 -0.0460 -2.6488  0.3853
19999SOL    HW265834   7.870   6.294   9.717  1.7754  0.1220 -1.2919
20000SOL     OW65835   0.659   9.376   7.062 -0.5828  0.1448 -0.2166
20000SOL    HW165836   0.671   9.471   7.053 -2.6415  0.4866  0.1847
20000SOL    HW265837   0.592   9.367   7.131 -0.6731 -1.5882 -0.4955
20001SOL     OW65838   2.698   6.772   3.641 -0.2510 -0.1071  0.6082
20001SOL    HW165839   2.637   6.751   3.570 -1.9127  0.8543  1.6777
20001SOL    HW265840   2.774   6.717   3.624 -1.1464 -0.8973 -1.1490
20002SOL     OW65841   1.844   9.441   6.475  0.9734  1.0437  0.1491
20002SOL    HW165842   1.865   9.514   6.532 -1.3503  1.7750  0.1802
20002SOL    HW265843   1.836   9.366   6.534  0.1760  1.4599  0.5855
20003SOL     OW65844   3.876   7.077   9.710  0.0373  0.3904 -0.0020
20003SOL    HW165845   3.957   7.027   9.699 -0.1202  0.3019 -0.8175
20003SOL    HW265846   3.886   7.120   9.795  0.7194 -0.0227  0.1353
20004SOL     OW65847   9.994   3.925   4.774  0.0185  0.2821  0.3931
20004SOL    HW165848   9.943   3.970   4.841  1.3740  0.8127  1.1312
20004SOL    HW265849  10.085   3.937   4.803  0.5842 -0.1644 -1.1331
20005SOL     OW65850   5.025   2.114   0.747  0.4187  0.4678 -0.5042
20005SOL    HW165851   4.999   2.089   0.658 -0.6459 -0.1961 -0.0232
20005SOL    HW265852   5.000   2.039   0.801 -0.8131  1.6768  0.6628
20006SOL     OW65853   0.755   4.777   1.345 -0.0632  0.1125 -0.2518
20006SOL    HW165854   0.727   4.715   1.412 -1.0489  4.1693  3.6142
20006SOL    HW265855   0.684   4.841   1.340  1.4276  1.7688 -2.8704
20007SOL     OW65856   7.395   5.712   0.443 -0.1244 -0.5246  0.0145
20007SOL    HW165857   7.367   5.621   0.428 -1.1855 -0.0729 -0.9021
20007SOL    HW265858   7.314   5.759   0.464 -0.1382  0.7932 -2.5456
20008SOL     OW65859   6.154   3.400   7.918 -0.3684 -0.2155  0.6726
20008SOL    HW165860   6.208   3.438   7.850  0.6371 -0.0907  1.5118
20008SOL    HW265861   6.195   3.428   8.000 -0.9534 -1.1968  1.3231
20009SOL     OW65862   4.136   8.258  10.627 -0.1505 -0.7180  0.5467
20009SOL    HW165863   4.070   8.211  10.678 -1.1900 -1.8004 -1.6466
20009SOL    HW265864   4.208   8.196  10.618  0.1400 -0.4362  0.8765
20010SOL     OW65865  10.478   5.725   9.717  0.7722  0.4625 -0.0752
20010SOL    HW165866  10.471   5.820   9.727  0.3706  0.2787  1.8110
20010SOL    HW265867  10.433   5.690   9.794  1.8348 -1.2271 -0.1766
20011SOL     OW65868   9.336   5.281   4.801 -0.6080  0.4033 -0.6133
20011SOL    HW165869   9.430   5.284   4.817 -0.8427 -0.6358  1.2365
20011SOL    HW265870   9.317   5.362   4.753  1.3953  0.0237 -2.1738
20012SOL     OW65871   0.324  10.520   6.155  0.1256  0.1450  0.1988
20012SOL    HW165872   0.253  10.459   6.136  0.0448  0.5752 -0.9746
20012SOL    HW265873   0.399  10.485   6.107  0.2203  0.6818 -0.0488
20013SOL     OW65874   5.740   2.303  10.786  0.1878  0.0507  0.0648
20013SOL    HW165875   5.797   2.246  10.837 -1.3744 -2.6665 -0.9947
20013SOL    HW265876   5.672   2.331  10.848  1.3137  1.4149  0.7504
20014SOL     OW65877   4.733   0.353   5.226  0.1126 -0.3718  0.4956
20014SOL    HW165878   4.798   0.284   5.215  0.3569 -0.5795  2.7657
20014SOL    HW265879   4.776   0.433   5.195  1.5893 -0.4638  2.1386
20015SOL     OW65880   3.793   8.095  10.251 -0.0946 -0.2390  0.0985
20015SOL    HW165881   3.818   8.115  10.342 -1.6011 -1.6437  0.8823
20015SOL    HW265882   3.854   8.026  10.225  0.1999  0.0090  0.1300
20016SOL     OW65883   3.539   9.484   3.056 -0.0464  0.1078  0.7151
20016SOL    HW165884   3.456   9.491   3.009  1.9566  0.2927 -3.1822
20016SOL    HW265885   3.559   9.573   3.084 -0.2105  0.4053 -0.1193
20017SOL     OW65886   0.807   8.262   9.858 -0.3224 -0.5697 -0.2785
20017SOL    HW165887   0.812   8.249   9.952  1.7748  0.0775 -0.2421
20017SOL    HW265888   0.889   8.225   9.824 -1.8190 -2.4346 -2.0955
20018SOL     OW65889   9.842   9.570   5.309  0.4351  0.1564  0.3012
20018SOL    HW165890   9.753   9.574   5.344  0.3700  0.2488  0.1284
20018SOL    HW265891   9.835   9.511   5.234 -0.0197  2.0585 -1.2437
20019SOL     OW65892   7.989   5.231   6.451  1.0632 -0.0562  0.5772
20019SOL    HW165893   7.930   5.156   6.442  2.2337 -1.3491  2.7864
20019SOL    HW265894   8.074   5.199   6.419  1.5525  0.3298  1.4507
20020SOL     OW65895   6.156   7.327   8.289 -0.4306 -0.1475  0.6095
20020SOL    HW165896   6.185   7.418   8.278  1.8702 -1.0097 -1.5950
20020SOL    HW265897   6.067   7.325   8.255  0.6262  0.7367 -2.5003
20021SOL     OW65898   0.285  10.509   3.491  0.1422  0.0342  0.1684
20021SOL    HW165899   0.379  10.491   3.499  0.8243  1.4750 -3.0158
20021SOL    HW265900   0.245  10.423   3.476  0.5819 -0.8317  3.2494
20022SOL     OW65901   2.837   7.981   9.424  0.4488  0.1973  0.0493
20022SOL    HW165902   2.843   7.898   9.471 -2.7722  0.1654  0.6415
20022SOL    HW265903   2.870   7.962   9.336  0.8674 -1.3779  0.5182
20023SOL     OW65904   2.506   3.535   5.064 -0.0516  0.2806 -0.0038
20023SOL    HW165905   2.556   3.507   5.141  2.4456 -1.0216 -1.9579
20023SOL    HW265906   2.564   3.595   5.018 -1.8034  1.6432 -0.5689
20024SOL     OW65907   0.028   0.606   5.996  0.0491  0.5925 -0.0810
20024SOL    HW165908   0.075   0.523   5.986  1.1497  0.9305  1.9065
20024SOL    HW265909  -0.059   0.588   5.960  0.8651 -0.8059 -1.5194
20025SOL     OW65910   9.338   0.661   5.825  0.2077  0.0716 -0.0157
20025SOL    HW165911   9.417   0.687   5.872  0.6544 -1.1905 -0.0110
20025SOL    HW265912   9.278   0.734   5.836  0.1441 -0.3021  2.8393
20026SOL     OW65913  10.620   2.520  10.607 -0.7865  0.4008  0.0220
20026SOL    HW165914  10.533   2.561  10.611 -0.9529 -0.0217  1.0006
20026SOL    HW265915  10.605   2.437  10.562 -0.6634  0.8764 -0.9053
20027SOL     OW65916   3.437   6.164   7.479  0.1699 -0.2874 -0.4851
20027SOL    HW165917   3.364   6.132   7.531  1.4718 -0.6041  1.2657
20027SOL    HW265918   3.501   6.092   7.482  0.5562 -0.0278 -1.9809
20028SOL     OW65919   9.074   8.125   8.850 -0.0860 -0.5580 -0.2411
20028SOL    HW165920   9.145   8.089   8.798  1.2450 -1.3270  1.9973
20028SOL    HW265921   8.998   8.071   8.827  0.8317 -1.8849 -0.2681
20029SOL     OW65922   8.833   2.691   2.052 -0.3356  0.1308 -0.2232
20029SOL    HW165923   8.801   2.601   2.048 -1.2768  0.4375  0.0973
20029SOL    HW265924   8.810   2.729   1.968  0.4131 -0.0269 -0.5111
20030SOL     OW65925   0.590   2.249   1.484  0.1145 -0.1131  0.5481
20030SOL    HW165926   0.524   2.317   1.472 -0.4203 -0.8475 -0.9434
20030SOL    HW265927   0.553   2.189   1.548  0.0029  0.2857  0.8570
20031SOL     OW65928   6.526   0.499   0.287  0.3839 -0.3443 -0.2587
20031SOL    HW165929   6.571   0.421   0.256  1.6822  0.4615 -0.4463
20031SOL    HW265930   6.574   0.526   0.365  0.0199  0.3318 -0.2585
20032SOL     OW65931   8.209   1.239   5.233 -0.2019 -0.2838  0.1168
20032SOL    HW165932   8.252   1.286   5.304 -1.6057 -0.4979  1.1444
20032SOL    HW265933   8.262   1.259   5.155  0.7893  0.7546  1.0281
20033SOL     OW65934   7.291   5.132   4.694  0.5030  0.1697  0.3776
20033SOL    HW165935   7.355   5.122   4.764 -0.8511 -0.8577  1.5217
20033SOL    HW265936   7.293   5.049   4.647  2.0740  1.1674 -1.4777
20034SOL     OW65937   1.301   4.694   9.815 -0.1411  0.1742  0.6046
20034SOL    HW165938   1.351   4.775   9.815  1.3968 -0.7327 -0.1428
20034SOL    HW265939   1.281   4.677   9.907  1.4126  0.2931  0.9916
20035SOL     OW65940   2.707   6.369   4.557  0.0146  0.2241  0.0284
20035SOL    HW165941   2.739   6.459   4.567 -4.3528  1.7587  3.0075
20035SOL    HW265942   2.753   6.320   4.624 -0.3274  1.1993  1.0065
20036SOL     OW65943   6.330   1.932   8.641 -0.2913  0.0651 -0.6306
20036SOL    HW165944   6.308   1.916   8.549  0.3840  1.1307 -0.9892
20036SOL    HW265945   6.411   1.883   8.654  0.6984  1.4841 -1.1815
20037SOL     OW65946  10.532   6.488   2.697  0.2554 -0.7244 -0.2194
20037SOL    HW165947  10.451   6.530   2.726  0.5874 -0.8660  0.9489
20037SOL    HW265948  10.522   6.396   2.722  1.6564 -0.3525  2.0059
20038SOL     OW65949   1.588   5.490   6.200 -0.3999  0.2739  0.0714
20038SOL    HW165950   1.665   5.444   6.167  0.0447  0.3201  0.9917
20038SOL    HW265951   1.621   5.576   6.225 -0.6008  0.0733  1.0711
20039SOL     OW65952  10.461   3.963   3.631  0.1262 -0.7713  0.2240
20039SOL    HW165953  10.527   4.003   3.574  1.5459 -2.1518  0.8221
20039SOL    HW265954  10.481   3.996   3.718 -0.1857 -0.9431  0.3623
20040SOL     OW65955   7.313   7.291  10.191  0.0630  0.6136 -0.4073
20040SOL    HW165956   7.264   7.338  10.124 -1.8106 -0.8286 -0.1565
20040SOL    HW265957   7.294   7.338  10.273 -0.8485  0.1613 -0.3376
20041SOL     OW65958  10.869   6.688   1.654  0.6306 -0.1311  0.4734
20041SOL    HW165959  10.861   6.614   1.594 -1.2350 -1.1752  1.8855
20041SOL    HW265960  10.945   6.737   1.623  0.7800 -1.5880 -1.6383
20042SOL     OW65961   9.490   7.447   1.151  0.6123 -0.1712  0.1632
20042SOL    HW165962   9.526   7.395   1.223  0.1811  0.4658  0.8539
20042SOL    HW265963   9.542   7.527   1.152  1.5592 -0.7481 -1.1709
20043SOL     OW65964   9.176   8.328   9.088 -0.0112 -0.2667 -0.0346
20043SOL    HW165965   9.265   8.298   9.104  0.3269  1.4772  1.6604
20043SOL    HW265966   9.186   8.412   9.043 -0.8023 -0.2849 -0.2646
20044SOL     OW65967   3.484  10.666   0.209 -0.2777  0.0986 -0.0690
20044SOL    HW165968   3.505  10.659   0.302  0.7172 -1.1448 -0.3550
20044SOL    HW265969   3.520  10.751   0.182  0.2548  0.0507  0.4807
20045SOL     OW65970   9.828   1.989   6.103  0.0034 -0.1175  0.3159
20045SOL    HW165971   9.915   1.961   6.078 -0.1402 -0.0173 -0.3244
20045SOL    HW265972   9.840   2.079   6.135 -0.1396  0.7682 -1.8819
20046SOL     OW65973   6.178   7.399   5.153  0.2458 -0.6151  0.6254
20046SOL    HW165974   6.091   7.435   5.136  0.5225 -0.5593 -0.7400
20046SOL    HW265975   6.174   7.310   5.120  1.3677  0.0904 -1.5542
20047SOL     OW65976   0.191   1.545   8.237 -0.6715 -0.3430  0.2268
20047SOL    HW165977   0.113   1.559   8.290  0.3060  0.9440  1.3973
20047SOL    HW265978   0.204   1.450   8.237 -1.6154 -0.4834  0.9214
20048SOL     OW65979   6.939   5.279   0.896 -0.6466  0.1490  0.3312
20048SOL    HW165980   7.031   5.295   0.872 -0.9064  2.5783  0.7263
20048SOL    HW265981   6.892   5.353   0.858 -2.2196 -0.2149  1.5044
20049SOL     OW65982   1.792   0.919   9.281  0.0278 -0.2795 -0.4674
20049SOL    HW165983   1.734   0.987   9.315 -1.0713 -1.3719 -0.0958
20049SOL    HW265984   1.826   0.955   9.200  0.3244  1.1503  0.2559
20050SOL     OW65985   7.720   2.645   4.171  0.1065  0.6666 -0.2770
20050SOL    HW165986   7.737   2.739   4.178 -0.2308  0.7799 -0.8684
20050SOL    HW265987   7.789   2.613   4.113 -0.5322  0.7899 -1.1291
20051SOL     OW65988   1.865   9.586   0.252 -0.0227  0.7940 -0.4456
20051SOL    HW165989   1.831   9.605   0.340  1.0295  0.8922 -0.0421
20051SOL    HW265990   1.885   9.493   0.254 -0.0368  0.7885 -0.5869
20052SOL     OW65991   0.303   7.149   0.412 -0.2473 -0.6066 -0.6666
20052SOL    HW165992   0.361   7.076   0.389 -0.7555 -0.6234 -1.9687
20052SOL    HW265993   0.260   7.121   0.493 -0.8008 -1.9688 -1.4081
20053SOL     OW65994   1.626  10.824   9.576 -0.2731 -0.3426 -0.2049
20053SOL    HW165995   1.542  10.780   9.564  0.3947 -1.9588  0.6941
20053SOL    HW265996   1.620  10.903   9.523 -1.3699 -1.7519 -2.3176
20054SOL     OW65997   2.434   1.653   3.817 -0.5114 -0.0439  0.7201
20054SOL    HW165998   2.411   1.741   3.846 -0.9267  0.1935 -0.2902
20054SOL    HW265999   2.357   1.624   3.767  0.3973 -0.1968 -0.6291
20055SOL     OW66000   8.379   7.227   8.962  0.0688  0.0887  0.0167
20055SOL    HW166001   8.414   7.168   9.029 -0.8251  0.1344  0.5379
20055SOL    HW266002   8.407   7.188   8.879 -1.2214 -1.5610  0.3079
20056SOL     OW66003   3.791  10.456   5.133  0.2110 -0.2010  0.0908
20056SOL    HW166004   3.698  10.434   5.130  0.3054 -0.5086 -0.8524
20056SOL    HW266005   3.822  10.443   5.044  1.0621  0.3465  0.2905
20057SOL     OW66006  10.143   5.503   8.156 -0.4394 -0.2418  0.3112
20057SOL    HW166007  10.078   5.511   8.087 -1.3636 -1.7239  0.9527
20057SOL    HW266008  10.140   5.588   8.201 -1.9212 -0.2452  0.2893
20058SOL     OW66009   3.376  10.318   2.585  0.3051 -0.3220  0.3302
20058SOL    HW166010   3.457  10.336   2.537 -1.5813 -3.2832 -4.6871
20058SOL    HW266011   3.380  10.226   2.607 -1.8770 -0.7511 -0.7380
20059SOL     OW66012   1.640   1.535  10.470 -0.3414  0.2893  0.0904
20059SOL    HW166013   1.727   1.573  10.472 -1.4466  2.9846  0.6211
20059SOL    HW266014   1.640   1.479  10.392  1.9433 -0.1367  0.3258
20060SOL     OW66015   8.242   1.981   3.589  0.1850  0.0170  0.0720
20060SOL    HW166016   8.206   1.934   3.514  0.7585 -1.4556  0.6651
20060SOL    HW266017   8.331   2.003   3.563 -0.6537  2.5184 -0.9108
20061SOL     OW66018   2.014   0.690   0.754  0.2393  0.1020  0.3313
20061SOL    HW166019   2.104   0.682   0.785  0.7716  1.2253 -0.8436
20061SOL    HW266020   2.012   0.774   0.708 -1.6032  0.4391  0.9648
20062SOL     OW66021   4.037   2.006   3.576 -0.0654  0.6807  0.5786
20062SOL    HW166022   3.998   2.074   3.521  0.6318 -0.0596 -0.8887
20062SOL    HW266023   4.098   1.961   3.519  1.0668  0.1752  2.1196
20063SOL     OW66024   3.574   8.937   8.933 -0.4301  0.0905  0.4498
20063SOL    HW166025   3.567   8.993   8.856  2.0927  0.8874  0.7220
20063SOL    HW266026   3.487   8.938   8.972 -0.6397  3.3979  0.1287
20064SOL     OW66027   0.544   6.445   5.278  0.1073  0.8131  0.2080
20064SOL    HW166028   0.545   6.391   5.199  0.5152  1.7318 -0.4291
20064SOL    HW266029   0.636   6.450   5.304  0.0409  0.9926  0.4114
20065SOL     OW66030   0.582   2.170  10.443 -0.2071  0.0735 -0.3269
20065SOL    HW166031   0.661   2.183  10.390 -0.8514 -1.2430 -1.6875
20065SOL    HW266032   0.517   2.137  10.381 -2.5236  3.0419  0.2611
20066SOL     OW66033   2.199   6.153   0.072 -0.2054 -0.0183 -0.1793
20066SOL    HW166034   2.179   6.242   0.101 -1.8964 -0.2856 -0.4045
20066SOL    HW266035   2.229   6.107   0.151 -1.3815  0.1923  0.4013
20067SOL     OW66036   5.061   5.971   0.229  0.1430  0.4801 -0.1350
20067SOL    HW166037   5.034   6.043   0.287 -0.7110  1.7804 -2.0468
20067SOL    HW266038   4.982   5.920   0.216  0.3494  0.1475 -0.0828
20068SOL     OW66039  10.657   5.259   0.180 -0.0358  0.4270  0.3878
20068SOL    HW166040  10.683   5.327   0.118  1.6228 -0.6465 -0.1536
20068SOL    HW266041  10.705   5.279   0.260  0.2748  0.0234  0.3024
20069SOL     OW66042  10.555   6.590   7.501  0.0086 -0.1163  0.5338
20069SOL    HW166043  10.549   6.506   7.546  1.4121 -0.7280 -0.3205
20069SOL    HW266044  10.604   6.646   7.561  3.1631 -1.3586 -0.6432
20070SOL     OW66045   7.056   1.907   6.887 -0.3461  0.1030 -0.6370
20070SOL    HW166046   7.129   1.894   6.827 -0.5031 -1.5209 -0.5342
20070SOL    HW266047   7.092   1.887   6.974 -0.8350 -0.4986 -0.5624
20071SOL     OW66048   2.476   0.479   2.917  0.2188 -0.6114 -0.0052
20071SOL    HW166049   2.455   0.428   2.839 -0.7462 -0.6602  0.2794
20071SOL    HW266050   2.449   0.568   2.894  0.3759 -0.5341  0.1082
20072SOL     OW66051   1.524   4.320  10.063 -0.6801 -0.1927  0.6625
20072SOL    HW166052   1.525   4.242  10.118 -0.4635 -0.4851  0.2479
20072SOL    HW266053   1.530   4.287   9.974  0.0664  0.3198  0.5080
20073SOL     OW66054   6.309   0.578   4.434 -0.1330 -0.8298  0.4177
20073SOL    HW166055   6.291   0.519   4.361 -1.7619 -1.5126  1.3158
20073SOL    HW266056   6.314   0.665   4.394  1.8572 -1.4651 -0.8623
20074SOL     OW66057  10.021   6.115   9.736  0.1832 -0.1301 -0.0621
20074SOL    HW166058   9.966   6.069   9.799  0.6738 -0.1487  0.3591
20074SOL    HW266059  10.098   6.059   9.726  0.5340  0.3247  0.0377
20075SOL     OW66060   3.367   0.681   0.431 -0.9319 -0.0202 -0.8723
20075SOL    HW166061   3.313   0.742   0.380 -0.0534 -0.4607 -2.3987
20075SOL    HW266062   3.334   0.594   0.409 -1.5046 -0.1794  0.5025
20076SOL     OW66063   2.050   7.106   7.602 -0.4987  0.0850 -0.1115
20076SOL    HW166064   2.042   7.170   7.531 -0.1639  1.1251  0.7599
20076SOL    HW266065   1.994   7.141   7.672 -2.6051 -2.0634 -0.6190
20077SOL     OW66066   1.960   8.970   1.253 -0.2528 -0.7976  0.1508
20077SOL    HW166067   2.027   9.032   1.224 -2.8655  2.3789  0.3933
20077SOL    HW266068   1.963   8.975   1.349 -0.6509 -0.8638  0.1661
20078SOL     OW66069   6.265   5.649   4.237  0.2057  0.0219 -0.5502
20078SOL    HW166070   6.308   5.732   4.257  0.0291  0.2719 -1.1906
20078SOL    HW266071   6.327   5.582   4.268  0.0977  0.3803  0.4941
20079SOL     OW66072   3.994   1.100   4.225  0.3186 -0.0338 -0.6437
20079SOL    HW166073   4.049   1.086   4.302 -1.3966  0.1335  0.6544
20079SOL    HW266074   4.057   1.109   4.153  1.9262 -1.6847  0.4561
20080SOL     OW66075   4.196   1.525   4.745  0.8858 -0.1541 -0.6661
20080SOL    HW166076   4.180   1.578   4.823  3.2885 -1.0295  0.5469
20080SOL    HW266077   4.125   1.547   4.685 -0.5758  1.1943  1.4333
20081SOL     OW66078   7.516   0.546   4.745 -0.0393  0.2128 -0.2217
20081SOL    HW166079   7.492   0.613   4.681  0.6237  0.7833  0.1153
20081SOL    HW266080   7.539   0.470   4.693  0.4475  0.6558 -0.6672
20082SOL     OW66081   5.297   6.996   9.806 -0.4213  0.0318  0.7239
20082SOL    HW166082   5.245   7.015   9.884 -2.4098 -0.3059 -0.4545
20082SOL    HW266083   5.285   7.072   9.749  0.1985 -0.1624  0.3170
20083SOL     OW66084   8.817  10.046   9.354 -0.2507 -0.3040 -0.2390
20083SOL    HW166085   8.758   9.971   9.364 -0.0233 -0.6900 -1.6591
20083SOL    HW266086   8.759  10.119   9.331 -0.2231 -0.6087 -1.3059
20084SOL     OW66087   6.483   7.023   7.955 -0.2363  0.2638 -0.2995
20084SOL    HW166088   6.502   7.094   8.016 -3.1621 -0.3001  1.4735
20084SOL    HW266089   6.406   7.052   7.907 -1.0506 -1.3777 -0.0614
20085SOL     OW66090   5.277   8.459   7.555 -0.6627  0.1518 -0.2187
20085SOL    HW166091   5.272   8.552   7.535 -1.9469  0.2655  0.5325
20085SOL    HW266092   5.251   8.416   7.473 -0.9189  0.4755 -0.3098
20086SOL     OW66093   9.630   1.577  10.456 -0.1476 -0.6369 -0.6485
20086SOL    HW166094   9.599   1.622  10.534 -1.4968 -2.6815  0.0621
20086SOL    HW266095   9.644   1.647  10.392  1.7260  1.2018  1.5608
20087SOL     OW66096   0.835   3.360   8.867 -0.0408  0.4134 -0.0081
20087SOL    HW166097   0.775   3.293   8.836 -1.1676  0.5613  1.7074
20087SOL    HW266098   0.876   3.322   8.944 -0.3185  1.4729  0.6936
20088SOL     OW66099   0.763   9.801   3.704  0.3561 -0.4137  0.0440
20088SOL    HW166100   0.719   9.775   3.785  1.6440 -1.1759  0.5209
20088SOL    HW266101   0.716   9.752   3.636  0.2843 -1.0213  0.5167
20089SOL     OW66102   7.898   3.362   8.336  0.2686  0.3037 -0.6131
20089SOL    HW166103   7.812   3.322   8.327 -0.7174  1.9226  0.9919
20089SOL    HW266104   7.884   3.454   8.315  1.7254  0.5194 -0.7458
20090SOL     OW66105   1.108   5.258   7.021  0.7126 -0.1952 -0.2815
20090SOL    HW166106   1.096   5.323   7.091  0.3548 -0.4333 -0.1221
20090SOL    HW266107   1.150   5.184   7.065 -0.3338 -0.7069 -0.1224
20091SOL     OW66108   1.481  10.121   0.303 -0.2087  0.3080  0.3013
20091SOL    HW166109   1.503  10.086   0.389  1.3913  0.2544 -0.1064
20091SOL    HW266110   1.402  10.174   0.318 -0.3705 -0.2812  1.6511
20092SOL     OW66111   8.487   9.524  10.149 -0.4231  0.0136 -0.2360
20092SOL    HW166112   8.554   9.498  10.212  0.3646 -0.0673 -1.0904
20092SOL    HW266113   8.482   9.619  10.156  0.3976  0.1075 -0.7529
20093SOL     OW66114   7.415  10.053  10.537  0.0918  0.4246  0.3063
20093SOL    HW166115   7.388  10.141  10.561  0.1292  0.8881 -1.2130
20093SOL    HW266116   7.475  10.066  10.464 -0.1015 -0.8655 -0.1081
20094SOL     OW66117   7.357   4.927   5.864  0.0512  0.2463 -0.4040
20094SOL    HW166118   7.280   4.890   5.907  0.2964 -0.1169 -0.2785
20094SOL    HW266119   7.327   5.013   5.833 -0.0080  0.7389  0.9124
20095SOL     OW66120   0.210   5.007   0.093  0.4524 -0.0844  0.4081
20095SOL    HW166121   0.261   4.928   0.074 -0.5851 -1.1991  1.9750
20095SOL    HW266122   0.173   4.991   0.180 -0.1609  1.9522  0.5688
20096SOL     OW66123  10.223   4.770   9.397  0.1697  0.6640 -0.0564
20096SOL    HW166124  10.252   4.725   9.477  1.3604  0.7589 -0.4097
20096SOL    HW266125  10.251   4.860   9.409 -0.8166  0.9734 -0.0284
20097SOL     OW66126  10.163   0.275   3.393 -0.2602 -0.1008  0.0325
20097SOL    HW166127  10.258   0.263   3.394 -0.1583  0.6598  0.1006
20097SOL    HW266128  10.149   0.351   3.338 -0.9821 -1.2997 -1.5058
20098SOL     OW66129   3.479   5.781   5.178  0.0488  0.3379 -0.8703
20098SOL    HW166130   3.520   5.699   5.204 -0.9981 -0.4008 -1.4566
20098SOL    HW266131   3.541   5.849   5.204  0.6696 -0.5976  0.1575
20099SOL     OW66132   2.375   5.977   8.709 -0.3814 -0.6285 -0.0529
20099SOL    HW166133   2.439   5.957   8.641 -2.1332 -1.3903 -1.5655
20099SOL    HW266134   2.366   5.895   8.758 -0.1303 -0.4904  0.2255
20100SOL     OW66135   2.015   6.095   4.140  0.0559 -0.8536 -0.1242
20100SOL    HW166136   2.096   6.080   4.188 -0.0164 -3.8004 -0.7557
20100SOL    HW266137   1.946   6.064   4.200 -0.5846  0.7342  0.0249
20101SOL     OW66138   9.772   4.981   3.883 -0.4002 -0.2606 -0.1929
20101SOL    HW166139   9.709   4.929   3.933  1.3438 -0.9210  1.4375
20101SOL    HW266140   9.721   5.018   3.811 -2.6882 -0.5332  1.1942
20102SOL     OW66141   1.561   8.807   1.455 -0.5603 -0.1793  0.2621
20102SOL    HW166142   1.639   8.782   1.405 -1.0295  2.4452 -2.0393
20102SOL    HW266143   1.580   8.781   1.545  2.6316 -0.3865 -0.3660
20103SOL     OW66144   5.503   9.369   4.799 -0.2174  0.6264  0.2763
20103SOL    HW166145   5.417   9.339   4.771  0.1542  0.9961 -1.3461
20103SOL    HW266146   5.547   9.396   4.718  1.3986  0.5107  1.0715
20104SOL     OW66147   9.437   3.997   6.142 -0.2786  0.2248  0.1921
20104SOL    HW166148   9.386   3.939   6.085 -0.3488 -0.0655  0.5522
20104SOL    HW266149   9.528   3.969   6.130 -0.4027 -0.5803  1.0773
20105SOL     OW66150   8.788   0.826   6.955 -0.2187 -0.5798 -0.4590
20105SOL    HW166151   8.802   0.917   6.981 -3.7963 -0.3081  1.0839
20105SOL    HW266152   8.703   0.827   6.911  0.1047 -3.0782 -1.3046
20106SOL     OW66153   6.118   7.445   8.984  0.0576 -0.3360  0.1979
20106SOL    HW166154   6.056   7.512   8.954  0.1859 -0.7521 -1.0849
20106SOL    HW266155   6.063   7.373   9.016 -0.0827  0.6815  2.4096
20107SOL     OW66156   6.405  10.345   4.435 -0.5007 -0.3783  0.1713
20107SOL    HW166157   6.369  10.302   4.358  0.6234 -1.0568 -0.0018
20107SOL    HW266158   6.335  10.341   4.500 -1.4365  0.1567 -0.7809
20108SOL     OW66159   0.460   9.666   5.442  0.3227 -0.2993  0.5206
20108SOL    HW166160   0.442   9.746   5.393 -0.3136 -0.6899  0.1006
20108SOL    HW266161   0.535   9.688   5.497  0.3242  0.4999  0.2133
20109SOL     OW66162   8.397   4.003   3.358  0.7023  0.6198  0.2251
20109SOL    HW166163   8.429   3.965   3.440  0.9031 -0.4139 -0.3098
20109SOL    HW266164   8.311   4.039   3.380  0.8031  0.4546  0.9108
20110SOL     OW66165   5.100   0.265   3.171  0.2587 -0.1618  0.0977
20110SOL    HW166166   5.125   0.223   3.253 -1.3363 -0.8437  0.2778
20110SOL    HW266167   5.183   0.278   3.124  1.5888  2.7455  2.8838
20111SOL     OW66168   6.187  10.337   4.610 -0.4755 -0.2207  0.0461
20111SOL    HW166169   6.160  10.255   4.650  2.6088 -0.7995  1.2693
20111SOL    HW266170   6.211  10.393   4.683 -0.5205  0.9826 -0.8388
20112SOL     OW66171   4.709   8.824   3.854 -0.1743 -0.2064 -0.0478
20112SOL    HW166172   4.747   8.849   3.938 -1.1869 -0.4467  0.5026
20112SOL    HW266173   4.704   8.728   3.858 -3.9936 -0.1439  1.4278
20113SOL     OW66174   0.882   2.293   2.285  0.2846  0.6525  0.2671
20113SOL    HW166175   0.885   2.388   2.298  1.2594  0.8799 -1.3161
20113SOL    HW266176   0.805   2.279   2.231 -0.5046  0.3861  1.4319
20114SOL     OW66177   6.306   7.179  10.156  0.8110 -0.1392  0.0007
20114SOL    HW166178   6.367   7.253  10.154  1.6206 -0.8023 -0.6314
20114SOL    HW266179   6.361   7.103  10.172  0.1302 -0.7364 -0.4289
20115SOL     OW66180   8.153   8.223   6.736  0.1301  0.0480  0.3310
20115SOL    HW166181   8.144   8.318   6.744  1.9231  0.2252  0.8283
20115SOL    HW266182   8.236   8.204   6.781 -0.1593 -1.7410  0.1616
20116SOL     OW66183   3.187   8.597   1.676  0.3914 -0.1183 -0.5117
20116SOL    HW166184   3.192   8.685   1.712  0.6335  0.3119 -1.5817
20116SOL    HW266185   3.156   8.543   1.749 -0.6673  1.0033 -0.1113
20117SOL     OW66186   3.993   7.390   1.074  0.2717  0.4500  0.0295
20117SOL    HW166187   3.928   7.338   1.025  1.2642 -0.4631 -0.3685
20117SOL    HW266188   4.024   7.331   1.142  0.4075  1.0159  0.4615
20118SOL     OW66189   5.439   4.087   8.736 -0.7136  0.9797 -0.1306
20118SOL    HW166190   5.467   3.996   8.745  1.2722  1.7292  2.5001
20118SOL    HW266191   5.362   4.095   8.792 -1.8274  0.6337 -1.5534
20119SOL     OW66192   0.569   5.688   5.360  0.0739 -0.4375 -0.0873
20119SOL    HW166193   0.585   5.770   5.407 -1.1559  0.0651 -0.4898
20119SOL    HW266194   0.513   5.637   5.418 -0.7910 -0.1466 -0.6393
20120SOL     OW66195   2.936   0.676  10.003  0.3722 -0.2569  0.4482
20120SOL    HW166196   2.972   0.612  10.064 -1.4338 -2.2405 -0.4454
20120SOL    HW266197   2.930   0.628   9.920 -0.5970  1.2212 -0.3698
20121SOL     OW66198   9.245   0.262   4.367 -0.3685  0.0974 -0.0060
20121SOL    HW166199   9.259   0.322   4.293  0.5303 -0.8992 -0.6809
20121SOL    HW266200   9.288   0.305   4.441 -0.8262  0.8647 -0.1711
20122SOL     OW66201   1.733   6.795   9.406 -0.6162 -0.0499  0.3183
20122SOL    HW166202   1.781   6.720   9.440  0.8454 -0.2164 -1.9484
20122SOL    HW266203   1.774   6.871   9.447  1.6409 -0.1977 -1.4976
20123SOL     OW66204   0.259   9.724   7.317 -0.4284  0.0750  0.0632
20123SOL    HW166205   0.256   9.675   7.235  1.3736 -1.0451  0.5928
20123SOL    HW266206   0.185   9.691   7.368 -1.0133  0.1155 -0.7429
20124SOL     OW66207   4.549   2.591   5.223  0.5032  0.4056  0.3530
20124SOL    HW166208   4.571   2.569   5.132 -0.4458  0.0789  0.1880
20124SOL    HW266209   4.499   2.673   5.215 -1.0467 -0.5079  0.4045
20125SOL     OW66210   5.559   0.189  10.636  0.4571  0.3939  0.3215
20125SOL    HW166211   5.499   0.191  10.710  0.8196  0.0288  0.6283
20125SOL    HW266212   5.634   0.138  10.667 -0.1129 -1.2295 -0.8434
20126SOL     OW66213   3.061   8.750  10.397  0.1807 -0.5637  0.0172
20126SOL    HW166214   2.977   8.722  10.435 -0.4671  1.8534  0.5172
20126SOL    HW266215   3.080   8.685  10.330 -1.6700 -1.6354  0.4744
20127SOL     OW66216   6.066   7.044   4.035 -0.2488 -0.2490  0.6617
20127SOL    HW166217   5.990   6.991   4.060 -0.9838  0.7449  0.6081
20127SOL    HW266218   6.083   7.019   3.944 -0.1349 -0.9016  0.8572
20128SOL     OW66219   0.684   7.417   7.057 -0.4586 -0.6177  0.4228
20128SOL    HW166220   0.636   7.424   7.140 -2.0060 -0.8537 -0.4141
20128SOL    HW266221   0.712   7.326   7.053 -1.7370 -1.0124 -0.0020
20129SOL     OW66222   1.574  10.488  10.201 -0.9236  0.0813  0.5142
20129SOL    HW166223   1.504  10.553  10.202 -0.8460  0.2621  3.1821
20129SOL    HW266224   1.589  10.469  10.294  2.8185  0.3212  0.0877
20130SOL     OW66225   8.412   7.651   2.816 -0.4684 -0.0298  0.1394
20130SOL    HW166226   8.420   7.559   2.842 -0.0251 -0.6604 -1.9803
20130SOL    HW266227   8.500   7.687   2.826 -0.2988 -0.2709 -0.4169
20131SOL     OW66228   2.314   7.359   8.091 -0.1659  0.0090  0.2684
20131SOL    HW166229   2.407   7.341   8.078  0.0036  0.1044  1.2628
20131SOL    HW266230   2.282   7.385   8.005  0.7550  0.0906 -0.0568
20132SOL     OW66231   7.637   6.343   0.239 -0.7030  0.1189 -0.1184
20132SOL    HW166232   7.588   6.416   0.277  0.2252  0.6035  0.1881
20132SOL    HW266233   7.614   6.345   0.146 -3.2783 -1.2976  0.3953
20133SOL     OW66234   9.640   7.046   0.047 -0.4231  1.0234 -0.3096
20133SOL    HW166235   9.664   7.113   0.110 -0.5893  1.2897 -0.5282
20133SOL    HW266236   9.620   6.969   0.100 -1.2855  1.4602  0.0112
20134SOL     OW66237   1.651   5.974   8.225  0.7625  0.2967  0.3401
20134SOL    HW166238   1.636   5.922   8.147  0.3882  0.9907 -0.0520
20134SOL    HW266239   1.617   6.060   8.204 -0.2240  0.2387  1.6140
20135SOL     OW66240   1.697  10.260   3.848 -0.1130  0.0446 -0.2870
20135SOL    HW166241   1.785  10.248   3.883 -0.3313  0.5674  0.4505
20135SOL    HW266242   1.707  10.330   3.782  0.1406 -0.3657 -0.6894
20136SOL     OW66243   7.788   0.977   1.732  0.0516 -0.1327  0.8761
20136SOL    HW166244   7.693   0.984   1.723  0.1015  0.7346  0.9445
20136SOL    HW266245   7.817   1.067   1.748  0.9947 -0.2134 -0.2588
20137SOL     OW66246   1.445   9.211   5.388  0.2267  0.2982 -0.4120
20137SOL    HW166247   1.492   9.135   5.423  0.0209  1.1401  1.8235
20137SOL    HW266248   1.366   9.174   5.349  1.0232 -0.7904 -1.0555
20138SOL     OW66249   1.043   1.446   1.409 -0.2356  0.1827  0.3676
20138SOL    HW166250   1.052   1.415   1.499  0.0453  0.9226  0.6027
20138SOL    HW266251   1.039   1.542   1.417  0.7590  0.3205 -0.4663
20139SOL     OW66252   0.425   5.302   1.960  0.4236 -0.1846 -0.0659
20139SOL    HW166253   0.439   5.387   2.002 -0.9104 -0.1933  0.4295
20139SOL    HW266254   0.385   5.248   2.028 -1.7858 -0.1992 -1.2876
20140SOL     OW66255   2.992   7.326  10.846  0.3400  0.2110 -0.0036
20140SOL    HW166256   3.032   7.337  10.760 -1.2893 -1.8460 -1.1432
20140SOL    HW266257   2.918   7.386  10.846  0.9506  0.9815  0.4226
20141SOL     OW66258   5.635   2.737   6.543 -0.0703 -0.3191  0.1929
20141SOL    HW166259   5.647   2.650   6.582  0.0056 -0.0638  0.7571
20141SOL    HW266260   5.580   2.722   6.466  1.3181 -1.0942 -0.6795
20142SOL     OW66261   0.995  10.386   0.445 -0.5816  0.3751  0.2393
20142SOL    HW166262   0.970  10.374   0.537  2.1165  0.5087  1.0583
20142SOL    HW266263   0.916  10.362   0.396 -1.4358 -1.8489  2.4874
20143SOL     OW66264   6.027   2.725   8.685  0.2427 -0.2203 -0.4499
20143SOL    HW166265   6.040   2.773   8.604  1.3540 -0.4333 -0.4138
20143SOL    HW266266   5.934   2.735   8.704  0.4482  1.9972 -0.3806
20144SOL     OW66267   4.354   4.049   4.475  0.1458  0.2480 -0.0524
20144SOL    HW166268   4.407   4.128   4.491 -0.3660  0.4524  0.6987
20144SOL    HW266269   4.415   3.988   4.434  0.9926  0.4637  0.8363
20145SOL     OW66270   2.730   4.001   3.230  0.2876 -0.1298 -0.0316
20145SOL    HW166271   2.702   3.910   3.226 -1.0044  0.2125  0.5675
20145SOL    HW266272   2.672   4.047   3.169  1.1417  0.2526 -0.5773
20146SOL     OW66273  10.840   3.087   5.215 -0.9303  0.1193 -0.3287
20146SOL    HW166274  10.829   2.999   5.177  0.7651 -0.1583 -0.2345
20146SOL    HW266275  10.852   3.071   5.309  0.1121  0.3831 -0.4101
20147SOL     OW66276   7.114   4.260   1.192 -0.1846  0.3313  0.0548
20147SOL    HW166277   7.171   4.186   1.171 -0.2449  0.4528 -0.5664
20147SOL    HW266278   7.077   4.239   1.277  0.7838  0.2452  0.4695
20148SOL     OW66279   1.974   7.719  10.595  0.5729  0.6977 -0.1682
20148SOL    HW166280   1.995   7.649  10.657 -0.6244  0.3789 -0.0964
20148SOL    HW266281   1.959   7.796  10.650 -0.8132  0.3368 -0.0127
20149SOL     OW66282   6.279  10.648   6.038 -0.1377  0.4853  0.1123
20149SOL    HW166283   6.194  10.610   6.062 -0.8239  1.8898  0.0421
20149SOL    HW266284   6.279  10.649   5.942  0.6073 -0.8555  0.0810
20150SOL     OW66285   9.805   9.561   1.775 -0.4504 -0.4015 -0.5247
20150SOL    HW166286   9.766   9.609   1.703 -0.6198 -0.0538 -0.2062
20150SOL    HW266287   9.783   9.613   1.853 -4.3990 -3.1152  0.4767
20151SOL     OW66288   9.646   6.320   4.572  0.1707 -0.7395 -0.6556
20151SOL    HW166289   9.639   6.409   4.538  0.8323  0.2015  1.5279
20151SOL    HW266290   9.567   6.276   4.540 -1.5483  1.3947  0.3980
20152SOL     OW66291   8.845   5.241   5.207 -0.1701 -0.5456  0.1578
20152SOL    HW166292   8.903   5.304   5.251 -0.5115 -0.6527  0.7713
20152SOL    HW266293   8.899   5.162   5.198  0.7255  0.2199 -1.8394
20153SOL     OW66294   6.777   4.627   6.616  0.0800 -0.0617  0.3907
20153SOL    HW166295   6.710   4.683   6.577 -0.2144 -0.7246 -0.0817
20153SOL    HW266296   6.855   4.641   6.562 -0.2167 -0.6861 -0.2096
20154SOL     OW66297   6.555  10.749   9.991  0.1397  0.7037 -0.0247
20154SOL    HW166298   6.512  10.825  10.030  0.7219  2.0588 -1.8904
20154SOL    HW266299   6.488  10.681   9.992 -0.4212  1.2229  1.6114
20155SOL     OW66300   8.994   7.835   2.200  0.7126  0.4026  0.4112
20155SOL    HW166301   8.916   7.814   2.252 -0.3397  2.0232 -0.4150
20155SOL    HW266302   9.012   7.755   2.150 -0.4900  0.0160  0.5581
20156SOL     OW66303   8.291   5.464   2.046 -0.3511 -0.2518 -0.4462
20156SOL    HW166304   8.371   5.466   2.098 -0.0754 -0.3352 -0.8578
20156SOL    HW266305   8.227   5.513   2.098  0.0620  0.1015 -0.2600
20157SOL     OW66306   4.045   4.550   2.036 -0.0039  0.4764 -0.1295
20157SOL    HW166307   4.042   4.614   1.965  1.5316  0.2248 -0.4707
20157SOL    HW266308   4.098   4.592   2.103 -2.8650  1.4316  1.6961
20158SOL     OW66309   7.744   6.420   2.355  0.3552  0.4707 -0.0616
20158SOL    HW166310   7.720   6.485   2.421  1.8971  0.6898  0.3407
20158SOL    HW266311   7.731   6.336   2.397  1.5896  0.6153  0.6671
20159SOL     OW66312   4.517  10.866   5.957 -0.1860 -0.3894 -0.0633
20159SOL    HW166313   4.575  10.850   5.883 -0.4404 -1.0280 -0.1326
20159SOL    HW266314   4.486  10.779   5.983  0.0383 -0.1897  0.9101
20160SOL     OW66315   3.459   4.290   1.038 -0.5178 -0.4347 -0.0154
20160SOL    HW166316   3.373   4.249   1.028 -0.2952 -0.7803 -0.6104
20160SOL    HW266317   3.505   4.267   0.957 -0.4450  1.1459 -0.4573
20161SOL     OW66318  10.399   3.053   3.856  0.3143  0.0053 -0.3430
20161SOL    HW166319  10.448   3.070   3.776 -0.3611 -1.0418 -1.0055
20161SOL    HW266320  10.348   3.133   3.870  0.0449  0.0041 -1.2546
20162SOL     OW66321   4.208   5.123   6.632  0.6468  0.2159  0.4031
20162SOL    HW166322   4.195   5.134   6.538  0.4829  0.9936  0.5085
20162SOL    HW266323   4.265   5.047   6.639  0.8409  0.2807 -0.3361
20163SOL     OW66324   5.255   5.521   5.920 -0.3294 -0.2570  0.2618
20163SOL    HW166325   5.317   5.448   5.926 -1.2133 -0.9315  1.6022
20163SOL    HW266326   5.187   5.491   5.859  0.5754  0.4596 -1.1610
20164SOL     OW66327  10.755   2.281   1.703  0.0386  0.6363  0.1602
20164SOL    HW166328  10.707   2.227   1.766  0.2755 -1.4243 -1.2969
20164SOL    HW266329  10.844   2.285   1.739 -0.2777  1.1462  0.9145
20165SOL     OW66330   1.194   5.385   0.314  0.7458 -0.1709  0.1641
20165SOL    HW166331   1.289   5.398   0.309  1.1794 -3.1162 -1.4819
20165SOL    HW266332   1.184   5.291   0.325 -2.0274  0.2153  1.8133
20166SOL     OW66333   1.131   5.703   8.507  0.0672  0.3258 -0.5187
20166SOL    HW166334   1.213   5.655   8.517  0.0036  0.3832  0.3848
20166SOL    HW266335   1.156   5.787   8.469  0.3716  0.1812 -0.6391
20167SOL     OW66336   9.188   1.495   3.046 -0.2106 -0.6894  0.6170
20167SOL    HW166337   9.242   1.434   2.997 -1.0288 -0.6647 -0.3549
20167SOL    HW266338   9.101   1.454   3.050 -1.1663  0.9756 -1.2992
20168SOL     OW66339   4.812   7.789   5.192  0.3205 -0.7400 -0.4646
20168SOL    HW166340   4.755   7.771   5.117  0.8161 -1.7890 -0.6121
20168SOL    HW266341   4.852   7.705   5.213  1.3228 -0.1677  0.0392
20169SOL     OW66342   9.082   2.230   8.366  0.3823  0.4837 -0.7412
20169SOL    HW166343   9.000   2.245   8.413  1.2585  1.3332  0.5880
20169SOL    HW266344   9.111   2.317   8.339  0.5403  0.1260 -1.7879
20170SOL     OW66345   5.531   2.644   1.307  0.0699 -0.0269  0.1572
20170SOL    HW166346   5.538   2.571   1.245 -0.3705 -0.3452  0.4767
20170SOL    HW266347   5.448   2.629   1.353 -0.2890  0.9689 -0.1430
20171SOL     OW66348   7.508   8.091   5.679 -0.2461  0.1948 -0.0741
20171SOL    HW166349   7.488   8.161   5.617  1.2499  0.8753  0.1781
20171SOL    HW266350   7.603   8.091   5.686 -0.2616 -1.3665  0.5204
20172SOL     OW66351   9.352   1.302   2.044  0.5277 -0.4079 -0.1997
20172SOL    HW166352   9.302   1.222   2.061  0.2932 -0.4906 -1.1842
20172SOL    HW266353   9.413   1.309   2.117 -2.4094  0.9124  2.3672
20173SOL     OW66354   4.466   1.121   5.777 -0.0931 -0.1732  0.4763
20173SOL    HW166355   4.472   1.165   5.692 -2.3390  0.7286  0.7306
20173SOL    HW266356   4.529   1.167   5.832 -0.6010  1.0976  0.0363
20174SOL     OW66357   6.837   2.703   8.079 -0.1329  0.4962 -0.6437
20174SOL    HW166358   6.874   2.621   8.111  1.9458  0.4400 -2.9223
20174SOL    HW266359   6.758   2.678   8.032  0.2633 -0.1513 -0.9685
20175SOL     OW66360   8.264   6.379   8.222 -0.0913  0.6307 -0.3529
20175SOL    HW166361   8.334   6.375   8.287 -0.9874  1.7838  0.7353
20175SOL    HW266362   8.257   6.289   8.188  1.1540  0.2617  0.3157
20176SOL     OW66363   4.704   2.337   9.610  0.3866 -0.4502  0.8014
20176SOL    HW166364   4.755   2.328   9.691 -2.1322  1.1896  2.7306
20176SOL    HW266365   4.712   2.429   9.587 -0.2718 -0.5506  0.1383
20177SOL     OW66366   3.315   8.189   0.040  0.3359 -0.2945  0.2677
20177SOL    HW166367   3.243   8.244   0.012  0.3444 -0.3901  0.0555
20177SOL    HW266368   3.302   8.177   0.134  0.5447  0.3736  0.3846
20178SOL     OW66369   0.583   8.196   0.835 -0.4074 -0.1522 -0.2047
20178SOL    HW166370   0.500   8.149   0.827  0.2500 -1.2626 -0.7840
20178SOL    HW266371   0.627   8.155   0.909  0.6102 -1.2093 -1.3387
20179SOL     OW66372   0.633   3.145  10.607  0.1716  0.2716  0.2394
20179SOL    HW166373   0.551   3.167  10.563 -0.6855  0.3192  1.7750
20179SOL    HW266374   0.699   3.200  10.565 -0.1859 -1.0740 -2.2627
20180SOL     OW66375   2.846   0.755   9.102 -0.2176 -0.2503  0.1452
20180SOL    HW166376   2.819   0.725   9.188  1.0918  0.6551  0.8973
20180SOL    HW266377   2.887   0.840   9.117  0.5660 -0.3376 -1.2930
20181SOL     OW66378   6.682   8.968   1.339  1.1549 -0.3840 -0.0131
20181SOL    HW166379   6.755   8.982   1.399 -0.1938 -0.2024  1.6717
20181SOL    HW266380   6.605   8.961   1.396 -0.3535  0.8292 -1.7576
20182SOL     OW66381   0.760   4.148   5.451  0.6107  0.1986 -0.1419
20182SOL    HW166382   0.734   4.176   5.539 -0.5802 -2.3652  0.4302
20182SOL    HW266383   0.701   4.195   5.392 -0.2616  0.0928  0.6258
20183SOL     OW66384   8.315  10.525   6.583  0.0750  0.1534 -0.0983
20183SOL    HW166385   8.223  10.519   6.612 -0.1652  0.8495 -0.7059
20183SOL    HW266386   8.353  10.442   6.612 -0.4727  0.2862  1.0852
20184SOL     OW66387   4.910   1.459  10.070 -0.6497  0.2723  0.2542
20184SOL    HW166388   4.886   1.372  10.039  0.5558 -0.2885  0.8046
20184SOL    HW266389   4.839   1.516  10.040 -0.3699 -0.4987 -2.0334
20185SOL     OW66390   2.150   0.731   0.242  0.0724 -0.3129  0.2734
20185SOL    HW166391   2.183   0.668   0.179 -3.0844 -2.7118  0.7791
20185SOL    HW266392   2.212   0.727   0.315  1.2067 -0.9875 -0.6875
20186SOL     OW66393   0.816   9.558   5.460  0.7300 -0.8329  0.9059
20186SOL    HW166394   0.795   9.620   5.530 -0.7639 -0.4845  0.1866
20186SOL    HW266395   0.817   9.611   5.380  0.4572 -1.5494  0.4158
20187SOL     OW66396   3.771   3.973   6.472  0.4335  0.5158  0.1603
20187SOL    HW166397   3.765   3.921   6.392  0.5360 -1.0561  1.1339
20187SOL    HW266398   3.823   4.049   6.447  2.4591 -1.0709 -0.7479
20188SOL     OW66399   3.363   8.172   8.633  0.2522  0.0622 -0.0393
20188SOL    HW166400   3.350   8.141   8.544  1.0089  0.5607 -0.3333
20188SOL    HW266401   3.291   8.133   8.683 -1.3687  1.3734 -1.2475
20189SOL     OW66402   5.216   9.750   5.004 -0.2299  0.5572 -0.3135
20189SOL    HW166403   5.215   9.807   4.927 -1.8390  0.3716 -0.4585
20189SOL    HW266404   5.224   9.810   5.078  0.2732  0.8059 -0.5608
20190SOL     OW66405   3.376   5.692   6.586 -0.1267  0.1903 -0.4598
20190SOL    HW166406   3.281   5.678   6.588 -0.0667 -0.1419  0.0586
20190SOL    HW266407   3.409   5.621   6.530 -0.0901 -0.2745  0.1344
20191SOL     OW66408   6.775   8.799   6.570 -0.1125  0.3386  0.1985
20191SOL    HW166409   6.717   8.730   6.539 -1.4292  1.5229 -0.1035
20191SOL    HW266410   6.823   8.759   6.643 -0.6236 -0.9694 -0.1533
20192SOL     OW66411   6.927  10.548   0.764  0.3525 -0.0571  0.3469
20192SOL    HW166412   6.848  10.532   0.713 -0.0402 -0.9864  1.2085
20192SOL    HW266413   6.963  10.461   0.781  1.7114  0.3695 -0.2448
20193SOL     OW66414   4.562   4.666   9.612  0.0523 -0.9193  0.2514
20193SOL    HW166415   4.609   4.585   9.635 -0.5322 -1.1380  0.6827
20193SOL    HW266416   4.470   4.641   9.614 -0.2509  0.2465  2.3192
20194SOL     OW66417   7.612   3.158   4.650  0.4403 -0.1333  0.0664
20194SOL    HW166418   7.525   3.125   4.631  0.4945  0.1438 -0.6851
20194SOL    HW266419   7.597   3.239   4.699  0.2780 -0.0537 -0.1162
20195SOL     OW66420   4.462   1.396   1.456  0.2122  0.7392  0.3107
20195SOL    HW166421   4.438   1.437   1.540  1.2173 -0.4414  1.2140
20195SOL    HW266422   4.549   1.359   1.472  0.9753  1.5479 -1.6622
20196SOL     OW66423   8.001   9.991   8.706 -0.2574  0.3070  0.0073
20196SOL    HW166424   7.979   9.902   8.733  0.5144  0.4480  1.1844
20196SOL    HW266425   8.017  10.038   8.788 -2.9152  2.1750 -0.4356
20197SOL     OW66426   7.026   4.327   5.294 -0.1806  0.3476 -0.1155
20197SOL    HW166427   7.073   4.380   5.358  0.9208  0.1751 -0.7663
20197SOL    HW266428   7.024   4.381   5.215 -0.1725 -0.0657 -0.4011
20198SOL     OW66429   4.940   7.266   4.208 -0.4508  0.1710 -0.5692
20198SOL    HW166430   4.845   7.264   4.197 -0.5222  1.9326 -0.5215
20198SOL    HW266431   4.957   7.340   4.266  0.9729  0.0469 -0.7697
20199SOL     OW66432   1.449   5.116   7.813 -0.2904 -0.8763 -0.8865
20199SOL    HW166433   1.498   5.192   7.783 -0.0203 -0.9159 -0.5536
20199SOL    HW266434   1.365   5.122   7.768 -0.7043  0.2383 -0.0281
20200SOL     OW66435   4.653   3.790   8.647  0.3964  0.2286  0.0976
20200SOL    HW166436   4.685   3.836   8.570  1.5618 -1.2559 -0.3486
20200SOL    HW266437   4.717   3.720   8.662 -0.1516  0.0755  2.0237
20201SOL     OW66438   2.179   6.382   8.547 -0.6276  0.2346 -0.1716
20201SOL    HW166439   2.107   6.326   8.576 -1.2841  0.5184 -1.2023
20201SOL    HW266440   2.178   6.457   8.607  0.0770 -0.6770  1.0383
20202SOL     OW66441   6.149   3.657   1.419 -0.5527  0.3491  0.2725
20202SOL    HW166442   6.162   3.581   1.363 -2.3418 -0.9474  1.5263
20202SOL    HW266443   6.080   3.707   1.376  1.3892  1.9959 -1.1654
20203SOL     OW66444   7.553   9.107   9.268 -1.0478 -0.2167 -0.3712
20203SOL    HW166445   7.591   9.153   9.193 -2.4974 -1.2418 -1.8066
20203SOL    HW266446   7.510   9.177   9.318  1.5482  0.7718  0.6494
20204SOL     OW66447   1.284   2.562   1.782 -0.0168  0.1887  0.0146
20204SOL    HW166448   1.238   2.512   1.849 -0.5037  1.8847  1.0079
20204SOL    HW266449   1.360   2.598   1.828 -0.1562  1.0798 -0.4404
20205SOL     OW66450   1.717   2.393  10.358 -0.1840 -0.0680  0.2577
20205SOL    HW166451   1.751   2.311  10.394  0.1744 -0.8551 -1.7240
20205SOL    HW266452   1.627   2.371  10.331 -0.4164  0.4777  0.5819
20206SOL     OW66453   2.729   3.026   0.512 -0.4499  0.3209 -0.5176
20206SOL    HW166454   2.806   2.975   0.489 -1.6900 -0.2215 -3.9885
20206SOL    HW266455   2.659   2.962   0.522 -1.4752  1.0988 -2.3594
20207SOL     OW66456   8.309   6.598   6.815 -0.3565 -0.5678  0.3989
20207SOL    HW166457   8.301   6.524   6.875 -0.9493  0.7034  1.9609
20207SOL    HW266458   8.387   6.645   6.843 -1.4278  0.8514  1.1936
20208SOL     OW66459   3.506   1.617   7.023 -0.4599 -0.3340 -0.0620
20208SOL    HW166460   3.552   1.611   6.939  0.5432  0.7672  0.3808
20208SOL    HW266461   3.566   1.666   7.079 -2.2376  1.3119  0.5016
20209SOL     OW66462   0.969   9.997   9.630  0.0544  0.5000  0.3914
20209SOL    HW166463   0.957   9.971   9.721  0.1013  0.0101  0.2633
20209SOL    HW266464   0.981   9.914   9.583 -1.1507  0.6656 -0.2392
20210SOL     OW66465   8.413   2.790   7.347 -0.3413  0.2658  0.2226
20210SOL    HW166466   8.500   2.792   7.387  0.2193 -1.6221 -0.7582
20210SOL    HW266467   8.378   2.878   7.360  1.6524  1.0317  0.7608
20211SOL     OW66468   8.892   7.830   3.116  0.1147 -0.0073 -0.6018
20211SOL    HW166469   8.797   7.829   3.103  0.1180  0.4183 -0.6832
20211SOL    HW266470   8.928   7.846   3.028  0.2983 -1.0433 -0.7233
20212SOL     OW66471   7.286   0.985  10.384 -0.2742 -0.2719  0.0185
20212SOL    HW166472   7.337   0.972  10.464  0.3400 -1.4548 -0.5235
20212SOL    HW266473   7.299   1.077  10.362 -1.2152  0.3206  1.7583
20213SOL     OW66474   1.243   5.563   5.987 -0.3171 -0.0843  0.2007
20213SOL    HW166475   1.153   5.581   5.958  0.0337  0.8660 -0.3520
20213SOL    HW266476   1.234   5.494   6.052 -1.5072  0.3997  0.5752
20214SOL     OW66477   2.550   8.645   5.133 -0.2966 -0.1243  0.1960
20214SOL    HW166478   2.490   8.577   5.103  0.2838 -0.2544 -0.7186
20214SOL    HW266479   2.538   8.648   5.227 -0.9007 -0.9509  0.1549
20215SOL     OW66480   9.249   4.697  10.288  0.4164  0.0304 -0.7279
20215SOL    HW166481   9.241   4.610  10.249  0.5216  0.2452 -1.2474
20215SOL    HW266482   9.185   4.750  10.241  0.3365  0.2284 -0.3955
20216SOL     OW66483   5.230   8.441   7.850 -0.4219 -0.0573  0.1993
20216SOL    HW166484   5.264   8.485   7.772  0.8125 -0.7831  0.3113
20216SOL    HW266485   5.286   8.364   7.861 -0.5401  0.0564  1.8349
20217SOL     OW66486   3.641   2.976   6.818  0.2556  0.3234  0.1808
20217SOL    HW166487   3.720   3.010   6.860 -0.4248  1.0975  0.8659
20217SOL    HW266488   3.674   2.917   6.750  1.4294  0.7742  0.3266
20218SOL     OW66489  10.734   2.362   1.961 -0.1659  0.2577  0.5655
20218SOL    HW166490  10.815   2.359   2.011  1.3987  0.3112 -1.7651
20218SOL    HW266491  10.664   2.352   2.025  1.6606  0.7758  2.7285
20219SOL     OW66492   8.087   9.793  10.341  0.5105 -0.5566  0.0431
20219SOL    HW166493   8.019   9.796  10.408 -1.1236  2.9951 -1.5355
20219SOL    HW266494   8.157   9.848  10.375  1.5580 -2.1437  0.5568
20220SOL     OW66495   9.864   3.920   8.353 -0.4765 -0.7748  0.3114
20220SOL    HW166496   9.854   3.935   8.259  0.0308  2.3906  0.6371
20220SOL    HW266497   9.776   3.895   8.383 -0.6579 -1.7375 -0.9561
20221SOL     OW66498  10.766  10.389   9.190 -0.2460 -0.4786 -0.3600
20221SOL    HW166499  10.675  10.418   9.194 -0.6988 -1.6947 -1.3790
20221SOL    HW266500  10.762  10.294   9.197  0.8103 -0.6735 -1.9582
20222SOL     OW66501   2.205   1.032   6.171 -0.4452 -0.1752  0.5841
20222SOL    HW166502   2.214   0.943   6.205 -0.8509 -0.0113  1.1611
20222SOL    HW266503   2.111   1.051   6.182 -0.2141  0.6252  1.2879
20223SOL     OW66504   3.368   0.111  10.301 -0.1070  0.8215  0.1401
20223SOL    HW166505   3.388   0.068  10.219  4.0191 -1.0217  1.8523
20223SOL    HW266506   3.285   0.071  10.330 -0.1516 -0.5644 -1.7290
20224SOL     OW66507  10.311   9.938   7.091  0.8061 -0.4994 -1.0683
20224SOL    HW166508  10.391   9.942   7.144 -0.2606  1.2958  0.5318
20224SOL    HW266509  10.257   9.872   7.135  0.5558 -0.1657 -0.8750
20225SOL     OW66510   5.294   2.357  10.877  0.1430 -0.2541 -0.2693
20225SOL    HW166511   5.248   2.277  10.901 -1.5604  0.5586 -0.6769
20225SOL    HW266512   5.247   2.426  10.924  0.3891  0.7077 -1.4030
20226SOL     OW66513   3.101   2.113   3.640 -0.1544  0.4290  0.4393
20226SOL    HW166514   3.093   2.054   3.565  0.4987  0.7558  0.1029
20226SOL    HW266515   3.195   2.123   3.653 -0.2569  0.2446  1.4172
20227SOL     OW66516   4.876   4.598  10.100 -0.9172  0.4107  0.8671
20227SOL    HW166517   4.894   4.683  10.139  1.3752 -0.5691  2.1893
20227SOL    HW266518   4.957   4.548  10.114 -1.8501 -1.6818 -0.6845
20228SOL     OW66519   7.276   4.875   3.753 -0.0874  0.5317  0.4377
20228SOL    HW166520   7.305   4.941   3.816  0.8878  1.0801 -0.5381
20228SOL    HW266521   7.267   4.795   3.804 -1.1858  1.3747  1.6257
20229SOL     OW66522   9.870   6.156   6.466 -0.3680 -0.5245 -0.0476
20229SOL    HW166523   9.921   6.075   6.478  0.6597 -0.0881 -1.3036
20229SOL    HW266524   9.863   6.165   6.371  0.8255  1.6419  0.0204
20230SOL     OW66525  10.541   6.568   5.977 -0.2071 -0.6240  0.4141
20230SOL    HW166526  10.603   6.530   5.915  0.9608  0.7083  0.7283
20230SOL    HW266527  10.489   6.494   6.008 -0.7610 -1.3564 -2.0549
20231SOL     OW66528   7.667   6.766   0.479 -0.2942  0.0985 -0.4644
20231SOL    HW166529   7.585   6.757   0.431 -0.8859  0.5265  0.4384
20231SOL    HW266530   7.676   6.683   0.527 -0.7784  0.4818  0.3027
20232SOL     OW66531   3.532   5.650   0.201 -0.0589  0.1861 -0.2637
20232SOL    HW166532   3.557   5.725   0.254  1.5629 -1.2317  1.0655
20232SOL    HW266533   3.594   5.650   0.129 -1.3565  1.2538 -1.4627
20233SOL     OW66534   3.648   1.224   5.077 -0.6196 -0.5597  0.0896
20233SOL    HW166535   3.639   1.140   5.032  1.0194 -1.8742  2.0538
20233SOL    HW266536   3.588   1.218   5.152 -2.1347  0.9682 -0.9071
20234SOL     OW66537   3.999   1.512   9.793  0.4266 -0.2570  0.3049
20234SOL    HW166538   3.974   1.441   9.734  1.1500  1.2306 -1.9516
20234SOL    HW266539   4.095   1.512   9.791  0.5118  2.1933 -1.7699
20235SOL     OW66540   8.259   8.263   8.001  0.1749  0.3927  0.3330
20235SOL    HW166541   8.260   8.281   8.095 -0.4094 -2.4496  0.9943
20235SOL    HW266542   8.333   8.203   7.987 -1.7457 -2.0197 -0.2497
20236SOL     OW66543   6.154   8.052   5.442 -0.0137 -0.0368  0.9934
20236SOL    HW166544   6.244   8.038   5.411 -0.4100 -1.5250  0.4100
20236SOL    HW266545   6.110   8.096   5.370 -1.0129 -3.7516 -0.9569
20237SOL     OW66546   3.822   5.957   5.672  0.4503  0.6315  0.5040
20237SOL    HW166547   3.888   5.947   5.602  0.2628  0.1415  0.3920
20237SOL    HW266548   3.873   5.980   5.749  0.9171 -1.0494  0.7371
20238SOL     OW66549   6.950   1.658   1.494  0.3015  0.4138 -0.0648
20238SOL    HW166550   7.025   1.702   1.534  1.6785  0.0216 -2.0076
20238SOL    HW266551   6.923   1.717   1.423 -0.8854  0.2901  0.2738
20239SOL     OW66552   6.599   9.764   3.192  0.1664 -0.5142 -0.5920
20239SOL    HW166553   6.550   9.800   3.118  1.3633  0.3881 -0.9981
20239SOL    HW266554   6.688   9.752   3.157  0.0189 -3.1536 -0.2138
20240SOL     OW66555   3.450   3.934   6.727 -0.0961  0.5315  0.1624
20240SOL    HW166556   3.454   3.870   6.657 -3.0069 -0.6697  0.9674
20240SOL    HW266557   3.434   4.017   6.682  0.0369  0.1091 -0.6891
20241SOL     OW66558   8.194   4.663   0.775 -0.1331 -0.0355 -0.2716
20241SOL    HW166559   8.130   4.713   0.826 -0.9571  0.4780 -1.7444
20241SOL    HW266560   8.263   4.726   0.755  0.1649 -0.2244  0.1269
20242SOL     OW66561   5.383   7.060   1.996  0.0943 -0.5375  0.0983
20242SOL    HW166562   5.291   7.061   1.972  0.6817  0.0327 -2.4934
20242SOL    HW266563   5.429   7.037   1.915  2.3943  2.1958  0.4419
20243SOL     OW66564   6.921   9.133   3.977 -0.1523 -0.0649 -0.0211
20243SOL    HW166565   6.965   9.135   4.062  0.2497  2.0768 -0.2338
20243SOL    HW266566   6.861   9.207   3.979  1.4430  1.4017 -2.3644
20244SOL     OW66567   4.534   4.066   4.040  0.4958 -0.2647 -0.2484
20244SOL    HW166568   4.524   4.161   4.047  1.8536 -0.0715 -0.5757
20244SOL    HW266569   4.447   4.034   4.016  0.0322  0.8967 -0.1956
20245SOL     OW66570   2.780   3.033   8.101 -0.7119 -0.3738  0.2317
20245SOL    HW166571   2.789   3.006   8.009  1.3402  1.1942 -0.0835
20245SOL    HW266572   2.704   3.092   8.101 -1.7990 -1.7133 -0.0829
20246SOL     OW66573   5.527  10.340   4.950  0.5505 -0.4981 -0.1965
20246SOL    HW166574   5.610  10.381   4.976  1.2274 -0.4560 -2.2229
20246SOL    HW266575   5.480  10.326   5.032  0.5321  3.7652  0.7429
20247SOL     OW66576   3.664   6.625   8.315 -0.5953 -0.6820  0.2677
20247SOL    HW166577   3.601   6.576   8.369 -0.9538 -0.0254  0.4533
20247SOL    HW266578   3.612   6.656   8.240 -0.4865 -0.1615  0.4070
20248SOL     OW66579  10.901   1.505   8.388 -0.3985  0.0719 -0.1715
20248SOL    HW166580  10.847   1.457   8.326  0.0441  1.5718 -1.8093
20248SOL    HW266581  10.838   1.544   8.449 -0.8991 -0.7889 -0.1198
20249SOL     OW66582   0.064   6.396   1.769  0.4681 -0.1671  0.2387
20249SOL    HW166583   0.142   6.398   1.713  1.0493  0.9301  1.0525
20249SOL    HW266584  -0.009   6.415   1.710  0.6097 -2.4111 -0.7827
20250SOL     OW66585   3.450   2.861   1.443  0.1683 -0.3554  0.0767
20250SOL    HW166586   3.390   2.920   1.489  1.4566  0.8318  0.2905
20250SOL    HW266587   3.527   2.914   1.424  1.6339 -2.1055  0.7679
20251SOL     OW66588   4.250   1.466   7.913 -0.3267  0.1518 -0.3444
20251SOL    HW166589   4.265   1.559   7.898 -0.5163  0.0240 -1.4151
20251SOL    HW266590   4.154   1.457   7.910 -0.3434  0.0277  0.4443
20252SOL     OW66591   2.530   4.334   6.624  0.4472 -0.0044 -0.6340
20252SOL    HW166592   2.548   4.330   6.718 -1.9351  0.2869 -0.1070
20252SOL    HW266593   2.484   4.417   6.612  0.2115 -0.3043 -1.9617
20253SOL     OW66594   5.990   2.031   6.320  0.3738 -0.1569  0.1292
20253SOL    HW166595   5.981   1.971   6.394 -0.2668 -0.8327 -0.4685
20253SOL    HW266596   5.911   2.084   6.323 -0.2906 -1.0425 -0.7797
20254SOL     OW66597   2.002   4.835   0.692 -0.6067 -0.4261  0.1017
20254SOL    HW166598   1.911   4.806   0.696 -1.2079  1.2106 -0.6747
20254SOL    HW266599   2.000   4.927   0.719  1.2501 -1.0336  2.7809
20255SOL     OW66600   5.239   8.560   3.731 -0.1642  0.4414 -0.2459
20255SOL    HW166601   5.287   8.573   3.812 -1.3709  1.9870  0.2672
20255SOL    HW266602   5.188   8.480   3.746  0.1558  0.3261  0.2388
20256SOL     OW66603   7.003   6.685   0.358  0.3984 -0.1126 -0.4751
20256SOL    HW166604   6.920   6.696   0.404 -1.0608  1.0506 -3.1525
20256SOL    HW266605   7.026   6.593   0.371 -1.1086 -0.3565  0.6357
20257SOL     OW66606   4.947   0.842   3.981  0.0781  0.2815  0.1857
20257SOL    HW166607   4.948   0.896   3.902 -2.3394  0.0505 -0.0600
20257SOL    HW266608   5.034   0.854   4.019  0.7039  1.7639 -1.5811
20258SOL     OW66609   9.834  10.288   5.665  0.0465 -0.8129 -0.7508
20258SOL    HW166610   9.924  10.274   5.636  0.4577  0.1719 -0.0082
20258SOL    HW266611   9.808  10.203   5.703  0.6961 -1.0751 -0.8791
20259SOL     OW66612   2.225   8.893   5.456 -0.5951  0.0769 -0.3883
20259SOL    HW166613   2.201   8.805   5.487 -1.3788 -0.7310 -3.0319
20259SOL    HW266614   2.187   8.952   5.520 -0.6515 -1.4815  1.0940
20260SOL     OW66615   0.766  10.384   2.677 -0.2171 -0.2838 -0.0254
20260SOL    HW166616   0.778  10.429   2.593 -2.1335  1.1673  0.4181
20260SOL    HW266617   0.732  10.297   2.653  0.6759 -0.4380 -0.7813
20261SOL     OW66618   7.980   1.864   2.722  0.4599 -0.2458 -0.0091
20261SOL    HW166619   7.934   1.786   2.753 -0.4089 -0.7323 -2.3080
20261SOL    HW266620   8.029   1.895   2.798  0.2827 -2.6210  1.1651
20262SOL     OW66621   7.701   9.794   6.663 -0.3587 -0.6170  0.6681
20262SOL    HW166622   7.753   9.725   6.705  1.2668  0.6477  0.8430
20262SOL    HW266623   7.766   9.859   6.635 -1.7413  0.3349 -0.4670
20263SOL     OW66624   0.337   1.807   4.377 -0.5249  0.3938 -0.8256
20263SOL    HW166625   0.264   1.855   4.338 -0.4024  1.0052 -0.3355
20263SOL    HW266626   0.295   1.734   4.423 -0.6182 -0.7570 -2.6352
20264SOL     OW66627   0.576   4.071   6.144 -0.2160 -0.1953  0.0840
20264SOL    HW166628   0.546   4.065   6.235  1.0602  1.3738  0.6559
20264SOL    HW266629   0.671   4.068   6.149 -0.1083  0.3896 -1.1556
20265SOL     OW66630  10.099   2.700   0.633 -0.1699 -0.0655  0.0788
20265SOL    HW166631  10.172   2.675   0.690  0.8551 -0.4504 -1.3609
20265SOL    HW266632  10.132   2.687   0.545 -1.4262  1.3708 -0.6435
20266SOL     OW66633   1.122   0.689   7.548 -0.1282 -0.2120 -0.4273
20266SOL    HW166634   1.105   0.754   7.480  3.8039  1.1776 -0.3297
20266SOL    HW266635   1.169   0.619   7.504  1.3601  0.1221  0.5736
20267SOL     OW66636   7.381   4.060   3.712 -0.4203 -0.5955  0.3628
20267SOL    HW166637   7.436   4.130   3.678 -0.8115 -0.9004 -0.9753
20267SOL    HW266638   7.306   4.105   3.751 -0.2357 -0.2432  0.3146
20268SOL     OW66639   1.558   2.106  10.373 -0.4134  0.4533 -0.3286
20268SOL    HW166640   1.465   2.127  10.383 -0.3177  0.2842  1.2043
20268SOL    HW266641   1.586   2.081  10.461  0.8488 -0.4902 -0.9728
20269SOL     OW66642   8.374   7.663   6.408 -0.0545  0.0492 -0.2985
20269SOL    HW166643   8.447   7.612   6.444  1.3518  0.5871 -2.1991
20269SOL    HW266644   8.324   7.690   6.485 -0.0210 -2.8889  0.8812
20270SOL     OW66645   2.079   3.716   1.993 -0.4926  0.1181 -0.8367
20270SOL    HW166646   2.122   3.635   2.018 -0.5956  0.5968  1.0246
20270SOL    HW266647   2.151   3.773   1.966  0.1019  0.7312  1.7424
20271SOL     OW66648   5.982   8.269   7.002 -0.1531 -0.7307 -0.4162
20271SOL    HW166649   6.040   8.212   6.950  0.4087 -0.6488  0.1158
20271SOL    HW266650   6.027   8.354   7.003  0.5537 -1.0991  1.3848
20272SOL     OW66651  10.350   2.296   6.470 -0.0250  0.1468  0.3538
20272SOL    HW166652  10.416   2.246   6.519  1.1448  0.0722 -1.2292
20272SOL    HW266653  10.266   2.261   6.500  0.7322 -2.5659 -0.4599
20273SOL     OW66654   5.635   6.959   0.024 -0.0802  0.1608 -0.5808
20273SOL    HW166655   5.709   6.987  -0.029  0.2488 -1.6735 -1.1785
20273SOL    HW266656   5.560   6.963  -0.035 -0.3225  1.1823 -0.2258
20274SOL     OW66657   8.824   0.091  10.607 -0.0479 -0.6741  0.5183
20274SOL    HW166658   8.874   0.123  10.682 -1.1112 -2.3805  2.0399
20274SOL    HW266659   8.838  -0.004  10.607 -0.6725 -0.8033 -1.0134
20275SOL     OW66660   8.908   2.768   3.671  0.0626  0.3541  0.0423
20275SOL    HW166661   8.903   2.791   3.578 -0.7431  1.3760  0.3299
20275SOL    HW266662   9.002   2.757   3.687  0.4956  2.9039 -0.2728
20276SOL     OW66663   0.390   4.382   9.041  0.3831 -0.0760  0.5633
20276SOL    HW166664   0.317   4.439   9.015  0.4991 -0.7069 -1.3516
20276SOL    HW266665   0.436   4.364   8.958  1.2964 -1.6345  1.3680
20277SOL     OW66666   6.192   1.105   0.104 -0.3624  0.4559  0.1166
20277SOL    HW166667   6.138   1.053   0.045  1.4966  0.6276 -1.8697
20277SOL    HW266668   6.203   1.189   0.059  2.6687 -0.0469 -0.3416
20278SOL     OW66669   6.036   1.098   0.810 -0.5862 -0.4368  0.1791
20278SOL    HW166670   6.052   1.012   0.850 -0.6172  0.3893  2.0769
20278SOL    HW266671   6.112   1.151   0.835 -0.0915 -0.1230 -1.7718
20279SOL     OW66672   2.243   8.003   5.424 -0.0219  0.3016 -0.1994
20279SOL    HW166673   2.232   7.942   5.351  1.3506 -1.1810  0.7529
20279SOL    HW266674   2.155   8.034   5.444 -0.6754 -0.9083 -1.1071
20280SOL     OW66675   1.353   8.654   0.849  0.2060 -1.0325  0.2422
20280SOL    HW166676   1.259   8.652   0.831  0.1863  0.1948  0.1616
20280SOL    HW266677   1.388   8.722   0.792  0.8705 -0.2763  1.4898
20281SOL     OW66678   4.724   3.950   5.559 -0.3994 -0.3522 -0.4617
20281SOL    HW166679   4.691   3.928   5.471  1.2324 -3.6809 -0.3740
20281SOL    HW266680   4.777   4.028   5.545 -0.1612 -0.8166 -2.4708
20282SOL     OW66681   5.066   4.607   3.612  0.0146  0.2359 -0.2831
20282SOL    HW166682   5.030   4.561   3.688  0.5087 -1.3151 -0.9533
20282SOL    HW266683   5.089   4.538   3.550  1.4245  1.3369 -1.0675
20283SOL     OW66684   8.824   1.315   8.473  0.4171  0.0706  0.0929
20283SOL    HW166685   8.917   1.333   8.457  0.9829 -2.3706  0.2710
20283SOL    HW266686   8.800   1.250   8.408 -1.3311  0.9353 -0.2029
20284SOL     OW66687   2.258   2.783   2.709 -0.9866  0.1928  0.2039
20284SOL    HW166688   2.287   2.761   2.797  0.8784 -1.9938 -0.8461
20284SOL    HW266689   2.271   2.877   2.702  0.4830  0.1448  1.7220
20285SOL     OW66690   7.028   0.706   8.289  0.2548 -0.6720  0.2469
20285SOL    HW166691   6.942   0.749   8.290 -0.1108 -1.3790  0.0287
20285SOL    HW266692   7.046   0.689   8.197  0.8537 -0.1122  0.2507
20286SOL     OW66693   2.464   6.511   8.411  0.3742 -0.0443 -0.0821
20286SOL    HW166694   2.401   6.583   8.406 -0.6516 -0.9027  0.3214
20286SOL    HW266695   2.498   6.515   8.500  0.5410  0.1249 -0.1525
20287SOL     OW66696   3.434   6.161   2.079  0.7691  0.1853  0.2277
20287SOL    HW166697   3.412   6.116   1.997  0.5811 -0.6323  0.7128
20287SOL    HW266698   3.523   6.131   2.099  0.5402 -0.2094  0.6949
20288SOL     OW66699   0.793  10.311   0.300  0.4014  0.4775  0.4353
20288SOL    HW166700   0.725  10.245   0.301  1.4380 -0.6363 -0.3456
20288SOL    HW266701   0.818  10.320   0.208  0.4936  1.7399  0.5582
20289SOL     OW66702   9.298   8.998   4.523  0.6981 -0.3886  0.2796
20289SOL    HW166703   9.367   9.024   4.584 -1.2975  1.2987  1.9571
20289SOL    HW266704   9.247   8.933   4.570  0.1269 -0.3327 -0.2507
20290SOL     OW66705   4.396   4.901   0.398 -0.3721  0.2907 -0.2612
20290SOL    HW166706   4.353   4.816   0.389  0.4532 -0.2265  0.5607
20290SOL    HW266707   4.332   4.955   0.445 -0.5909 -0.0988 -0.1070
20291SOL     OW66708   6.950   2.394   2.315  0.0200 -0.4473  0.0894
20291SOL    HW166709   7.002   2.469   2.285  1.8123 -1.2645  0.9838
20291SOL    HW266710   6.891   2.376   2.242  0.5754  0.9025 -0.7482
20292SOL     OW66711   5.565   4.823   7.161 -0.2649 -0.5462 -0.4361
20292SOL    HW166712   5.570   4.729   7.182 -0.2393 -0.9181 -2.0204
20292SOL    HW266713   5.649   4.858   7.190 -1.2153 -0.4440  2.5669
20293SOL     OW66714   6.824   7.362   3.987  0.2642  0.6819 -0.4383
20293SOL    HW166715   6.820   7.402   4.073  1.6470  1.1857 -0.5810
20293SOL    HW266716   6.918   7.349   3.971  0.0064  0.1723 -1.6710
20294SOL     OW66717   6.251   8.020   6.999 -0.4963 -0.3445  0.3067
20294SOL    HW166718   6.265   7.932   6.965  0.6701 -0.3947  0.8535
20294SOL    HW266719   6.209   8.068   6.927  0.6372 -0.8161 -0.6912
20295SOL     OW66720   9.942   5.527   8.920 -0.4023 -0.0569 -0.1474
20295SOL    HW166721   9.905   5.507   8.834 -0.1869  0.2467 -0.3102
20295SOL    HW266722   9.884   5.594   8.956 -0.2028  0.1788 -0.2645
20296SOL     OW66723   9.824   1.486   7.060 -0.1192 -0.7123  0.0006
20296SOL    HW166724   9.769   1.453   7.131 -2.0159 -0.1112 -1.0983
20296SOL    HW266725   9.895   1.423   7.054 -1.3340 -2.2402  0.7259
20297SOL     OW66726   1.632   0.949   1.675  0.2905  0.4281 -0.5424
20297SOL    HW166727   1.678   0.948   1.591  0.5312  0.8934 -0.4209
20297SOL    HW266728   1.539   0.944   1.652  0.3972 -2.2094 -0.7494
20298SOL     OW66729   2.703   1.870   6.946  0.3145  0.6243 -0.9744
20298SOL    HW166730   2.679   1.961   6.930 -0.1745  1.1921  2.2461
20298SOL    HW266731   2.642   1.840   7.013  2.1223 -1.2144 -0.0146
20299SOL     OW66732   9.864   0.102   5.314 -0.3883 -0.1176 -0.3687
20299SOL    HW166733   9.915   0.037   5.363 -1.2995 -0.8006 -0.3003
20299SOL    HW266734   9.915   0.115   5.233  0.2413 -0.2772 -0.0045
20300SOL     OW66735   4.649   1.486   1.682  0.3314 -0.2490  0.0240
20300SOL    HW166736   4.671   1.417   1.619 -0.3061 -0.9785  0.5632
20300SOL    HW266737   4.731   1.505   1.727  0.4381 -0.9713  0.1552
20301SOL     OW66738   4.541   6.759   8.777 -0.9379  0.0293 -0.5692
20301SOL    HW166739   4.455   6.771   8.817 -1.1892  1.6989 -1.5101
20301SOL    HW266740   4.601   6.754   8.852 -1.7820 -0.6392  0.0825
20302SOL     OW66741   1.174   5.142   7.431  0.9154 -0.2148  0.2779
20302SOL    HW166742   1.097   5.198   7.433 -0.2867 -1.7657  2.7342
20302SOL    HW266743   1.172   5.101   7.344  0.8894  2.1690 -0.9155
20303SOL     OW66744   3.122   5.089   1.375  0.2507 -0.3129 -0.4673
20303SOL    HW166745   3.123   5.162   1.313 -0.3360 -0.4093 -0.5999
20303SOL    HW266746   3.048   5.035   1.346  0.9529 -1.1971 -0.6463
20304SOL     OW66747   4.182   7.624   2.857  0.1271  0.3643  0.1215
20304SOL    HW166748   4.145   7.703   2.818 -2.0958 -0.9122 -0.5327
20304SOL    HW266749   4.219   7.575   2.784  1.3022  0.6676  0.4931
20305SOL     OW66750   6.454   8.910   9.883  0.8149  0.1267  0.1572
20305SOL    HW166751   6.492   8.879   9.801  2.2426 -1.5029  1.3539
20305SOL    HW266752   6.382   8.968   9.857  1.2602 -0.3163 -2.2094
20306SOL     OW66753   1.737   5.616  10.437  0.6674 -0.2306 -0.4518
20306SOL    HW166754   1.709   5.577  10.520 -2.2280 -0.8204 -1.6041
20306SOL    HW266755   1.745   5.541  10.378  0.8857  0.3728 -1.1858
20307SOL     OW66756   5.521   5.762   3.169 -0.2688 -0.0409 -0.3410
20307SOL    HW166757   5.494   5.726   3.253  0.0400 -0.2277 -0.3198
20307SOL    HW266758   5.504   5.693   3.106  0.2155 -0.1909 -0.3169
20308SOL     OW66759   9.467   6.056   1.100  0.0389 -0.4315 -0.4113
20308SOL    HW166760   9.533   6.124   1.086  1.9369 -2.2926 -1.1652
20308SOL    HW266761   9.498   6.008   1.177 -0.4745 -1.2726 -0.7119
20309SOL     OW66762   3.844   0.834   0.598 -0.4821  0.4811 -0.0767
20309SOL    HW166763   3.761   0.829   0.550  0.2448  1.5715 -1.5446
20309SOL    HW266764   3.824   0.802   0.685 -3.3453  3.9842  0.7672
20310SOL     OW66765   9.728   0.148   9.027  0.0073  0.1332  0.0323
20310SOL    HW166766   9.716   0.085   8.956 -0.4580 -0.2158  0.4131
20310SOL    HW266767   9.791   0.211   8.992 -0.5142  0.1982 -0.8440
20311SOL     OW66768   0.457   6.974   1.675 -0.1870 -0.6631 -0.1067
20311SOL    HW166769   0.551   6.970   1.689 -0.4556 -0.3478  2.2296
20311SOL    HW266770   0.445   6.952   1.583  2.2221  0.2179 -0.6956
20312SOL     OW66771  10.204  10.590   1.726  0.5282  0.2156 -0.1428
20312SOL    HW166772  10.194  10.680   1.695  0.9997 -0.0569 -1.1397
20312SOL    HW266773  10.273  10.553   1.670 -0.1654 -0.9845 -0.2452
20313SOL     OW66774   9.141   7.329   5.690  0.0468 -0.3640  0.5701
20313SOL    HW166775   9.235   7.339   5.703  0.0156  3.2521 -0.9462
20313SOL    HW266776   9.133   7.265   5.619  1.2551 -1.2150  1.1587
20314SOL     OW66777   7.425  10.758   6.966 -0.2609 -0.4524 -0.2997
20314SOL    HW166778   7.458  10.692   6.905 -2.5263 -1.4443 -0.5541
20314SOL    HW266779   7.502  10.786   7.014  1.0804 -1.9668 -1.4422
20315SOL     OW66780   0.991   1.608   4.843  0.0139  0.5878  0.3935
20315SOL    HW166781   0.991   1.628   4.936  0.7747  0.5681  0.4047
20315SOL    HW266782   0.899   1.593   4.821 -0.0905 -0.1909  1.3150
20316SOL     OW66783   9.813   9.611   9.362  0.4433 -0.3094  0.3081
20316SOL    HW166784   9.888   9.566   9.399  0.8449  0.5503  0.5711
20316SOL    HW266785   9.834   9.704   9.370 -0.7294 -0.0422  0.5595
20317SOL     OW66786   9.075   4.251   7.913 -0.2547 -0.1366 -0.2300
20317SOL    HW166787   8.987   4.259   7.876 -0.7466 -1.0229  0.7027
20317SOL    HW266788   9.090   4.157   7.921  1.1259 -0.0199 -1.1391
20318SOL     OW66789   9.765  10.639   0.474  0.2695  0.5739 -0.1552
20318SOL    HW166790   9.740  10.556   0.515  1.8229  0.3561  0.4439
20318SOL    HW266791   9.757  10.623   0.380 -0.7913  0.2156 -0.0181
20319SOL     OW66792   6.918   5.547   5.545 -0.2223  0.2413 -0.7082
20319SOL    HW166793   6.978   5.608   5.588 -0.7474  0.1346  0.2142
20319SOL    HW266794   6.883   5.494   5.617  0.8744 -1.7681 -1.5535
20320SOL     OW66795   0.838   0.044   8.881  0.3637 -0.3029 -0.4553
20320SOL    HW166796   0.863   0.023   8.971 -0.2237  0.7283 -0.0366
20320SOL    HW266797   0.779  -0.027   8.856  1.0724 -0.9645 -0.2795
20321SOL     OW66798   8.086   1.411   4.643 -0.5364 -0.6827 -0.2079
20321SOL    HW166799   7.992   1.429   4.637 -0.5381  0.5272  2.1854
20321SOL    HW266800   8.093   1.349   4.716  0.5587 -0.4888 -0.1364
20322SOL     OW66801   8.725   5.820   8.527  0.4649 -0.4770 -0.6450
20322SOL    HW166802   8.659   5.889   8.520 -0.0875 -0.7640  1.0995
20322SOL    HW266803   8.805   5.866   8.555 -0.0882 -0.5687  1.2310
20323SOL     OW66804   2.190   3.627   2.561 -0.0183 -0.0679 -0.1060
20323SOL    HW166805   2.154   3.709   2.529  0.4115  0.3450  0.4334
20323SOL    HW266806   2.267   3.653   2.613  0.8122 -0.8904 -0.8825
20324SOL     OW66807   9.720   8.221   4.421 -0.1301  0.3730  0.0613
20324SOL    HW166808   9.715   8.156   4.351  1.3169 -0.0643  0.3377
20324SOL    HW266809   9.741   8.303   4.376 -0.0355  0.2578 -0.1076
20325SOL     OW66810   8.268   5.024   0.765  0.1146  0.6266  0.2734
20325SOL    HW166811   8.277   4.982   0.680  1.6615 -2.3577  1.7423
20325SOL    HW266812   8.174   5.035   0.778 -0.1480  0.8549 -1.6326
20326SOL     OW66813   8.470   3.254   0.592  0.0611 -0.4605 -0.4896
20326SOL    HW166814   8.382   3.284   0.614  0.3356  1.2317 -1.4455
20326SOL    HW266815   8.495   3.196   0.664 -0.6457  1.4799  1.4283
20327SOL     OW66816   3.347   6.561   8.448  0.4886  0.5959 -0.1666
20327SOL    HW166817   3.332   6.510   8.368  0.0169 -0.7413  0.7286
20327SOL    HW266818   3.302   6.511   8.517  2.7914  0.4617  1.3531
20328SOL     OW66819   4.896   8.337   3.489  0.5471  0.7269  0.0362
20328SOL    HW166820   4.983   8.377   3.490 -0.1415  2.3268  1.3340
20328SOL    HW266821   4.894   8.285   3.409  3.3317 -0.8555  0.8231
20329SOL     OW66822   4.469   3.728   3.115  0.8125 -0.1554  0.3062
20329SOL    HW166823   4.510   3.805   3.153 -0.9741 -0.2471  2.6366
20329SOL    HW266824   4.392   3.762   3.070  1.1186 -0.4022 -0.4200
20330SOL     OW66825   4.865   7.368   7.466  0.6843 -0.4155 -0.9024
20330SOL    HW166826   4.946   7.332   7.501  1.9749 -1.6070 -4.6277
20330SOL    HW266827   4.796   7.316   7.508  2.1227 -2.4487 -0.9035
20331SOL     OW66828   9.292   3.367   2.150 -0.2226 -0.2896  0.4331
20331SOL    HW166829   9.299   3.459   2.126  0.0442 -0.4299 -0.0352
20331SOL    HW266830   9.270   3.368   2.243  0.6016  0.2360  0.6329
20332SOL     OW66831   3.845   4.300   3.160 -0.1665  0.1490  0.6371
20332SOL    HW166832   3.842   4.204   3.159 -1.8629  0.1582  1.4796
20332SOL    HW266833   3.837   4.325   3.068 -2.1460 -0.5217  0.5823
20333SOL     OW66834   6.062   6.991   2.646 -0.1374  0.4435 -0.0719
20333SOL    HW166835   5.997   6.981   2.716  0.1198 -0.4973  0.0423
20333SOL    HW266836   6.071   6.903   2.609  0.3733  0.7613 -0.7169
20334SOL     OW66837   8.132   2.368   4.141 -0.3364  0.0252 -0.0415
20334SOL    HW166838   8.164   2.320   4.218 -0.9006 -0.0291  0.1647
20334SOL    HW266839   8.209   2.379   4.086 -0.0888 -0.6516  0.1586
20335SOL     OW66840   2.587   5.279   5.517 -0.2269  0.3443  0.2887
20335SOL    HW166841   2.623   5.288   5.429 -0.5474  2.3536  0.3111
20335SOL    HW266842   2.580   5.185   5.531 -1.3595 -0.0578 -2.3372
20336SOL     OW66843   2.457   5.416   0.364 -0.3437 -0.2179 -0.0816
20336SOL    HW166844   2.474   5.507   0.388  1.6430 -0.4510 -0.4271
20336SOL    HW266845   2.396   5.385   0.431 -0.7456  1.2418  0.2706
20337SOL     OW66846   1.396   1.100   3.661  0.0708  0.2291  0.8394
20337SOL    HW166847   1.331   1.114   3.729  0.8270  0.3162  1.5578
20337SOL    HW266848   1.414   1.187   3.626  0.3289  0.2985  1.1405
20338SOL     OW66849   3.636   7.983   6.560 -0.3295  0.0864 -0.5385
20338SOL    HW166850   3.659   7.951   6.647 -1.6387  5.5113  2.2287
20338SOL    HW266851   3.548   7.949   6.544 -1.0766  0.9617  1.4840
20339SOL     OW66852   1.111   7.436   8.251  0.4266  0.4324  0.5390
20339SOL    HW166853   1.042   7.388   8.296 -1.2056  1.2439 -0.9365
20339SOL    HW266854   1.160   7.369   8.203 -1.0294  0.0731 -0.5033
20340SOL     OW66855   1.379   8.965  10.089 -0.2399 -0.6052 -0.1204
20340SOL    HW166856   1.391   8.925  10.003  0.4587 -2.3977  0.7494
20340SOL    HW266857   1.296   9.012  10.083 -0.8406 -1.7630 -1.3822
20341SOL     OW66858   3.435   5.217   2.914 -0.6159  0.1380 -0.0958
20341SOL    HW166859   3.501   5.148   2.905 -1.7831 -1.1857  1.0223
20341SOL    HW266860   3.351   5.170   2.911 -1.4263  1.2256  2.6128
20342SOL     OW66861   0.791   2.731   0.436 -0.3022 -0.1005  0.2455
20342SOL    HW166862   0.791   2.810   0.382 -1.2260  0.7870  1.4987
20342SOL    HW266863   0.879   2.694   0.424  0.6045  1.8211  0.6380
20343SOL     OW66864   9.791   6.690  10.262 -0.4675  0.7814  0.1530
20343SOL    HW166865   9.744   6.623  10.212 -2.0256  0.7494  1.5513
20343SOL    HW266866   9.781   6.770  10.210 -0.7395  0.4318 -0.3379
20344SOL     OW66867   7.134   3.157   5.593  0.5543  0.1313 -0.3925
20344SOL    HW166868   7.126   3.118   5.506  2.7299  2.2265 -1.6704
20344SOL    HW266869   7.051   3.201   5.608 -0.9671 -2.6124 -0.0188
20345SOL     OW66870   8.300   9.684   9.046 -0.2684 -0.6415 -0.4135
20345SOL    HW166871   8.301   9.600   9.093 -0.2315 -1.8260 -2.4186
20345SOL    HW266872   8.346   9.744   9.104  3.0210 -2.9129 -0.4046
20346SOL     OW66873   2.701   9.003   4.858  0.7630  0.9917  0.2379
20346SOL    HW166874   2.784   8.991   4.904  1.3156  1.1725 -0.6825
20346SOL    HW266875   2.727   9.022   4.768 -0.3070 -0.3793 -0.3821
20347SOL     OW66876   5.592   4.225   8.085 -0.1590  0.0498  0.0842
20347SOL    HW166877   5.621   4.316   8.082 -1.9423  0.6391 -1.6719
20347SOL    HW266878   5.672   4.175   8.098  1.0621  1.7865 -0.3028
20348SOL     OW66879   8.300   4.153  10.276 -0.2615 -0.3008  0.3412
20348SOL    HW166880   8.230   4.102  10.318 -0.6206 -0.8820 -0.9090
20348SOL    HW266881   8.271   4.163  10.186  0.6719  0.5915  0.1200
20349SOL     OW66882   0.920   7.732   2.877  0.1315 -0.1064 -0.6105
20349SOL    HW166883   0.990   7.795   2.857 -0.0171 -0.5744 -2.8964
20349SOL    HW266884   0.894   7.753   2.966  1.0073  2.1986 -0.8192
20350SOL     OW66885   8.118   6.730   2.346  0.1497  0.0489 -0.7958
20350SOL    HW166886   8.060   6.806   2.343  2.3522  1.8839  0.4736
20350SOL    HW266887   8.178   6.741   2.273  1.4184  0.3722  0.2565
20351SOL     OW66888   5.286   0.107   3.356 -0.4144 -0.1288 -0.0288
20351SOL    HW166889   5.314   0.122   3.266  2.4782  0.5428  0.8840
20351SOL    HW266890   5.326   0.024   3.381  0.7451  0.7758  1.2948
20352SOL     OW66891   3.009   1.194   3.166 -0.2982  0.0975  0.4606
20352SOL    HW166892   3.074   1.186   3.095  0.1090  1.0164  0.7141
20352SOL    HW266893   2.929   1.156   3.129  0.2369 -0.5839 -0.0426
20353SOL     OW66894   9.581   4.339  10.309  0.1072 -0.0835  0.0245
20353SOL    HW166895   9.637   4.264  10.330 -1.4572 -1.4414 -0.4449
20353SOL    HW266896   9.524   4.347  10.385 -0.5568 -0.1737 -0.4629
20354SOL     OW66897   4.920   8.780   2.699  0.3324 -0.2200  0.3534
20354SOL    HW166898   4.983   8.830   2.647  0.3120 -0.0859  0.4552
20354SOL    HW266899   4.835   8.805   2.664  0.3770 -1.2718 -0.5515
20355SOL     OW66900   1.140   8.863   1.232  0.1720 -0.1730 -0.6301
20355SOL    HW166901   1.121   8.945   1.185  1.5239 -0.2147 -1.2987
20355SOL    HW266902   1.235   8.854   1.226  0.0580 -1.7040 -0.4112
20356SOL     OW66903   8.664   6.096   7.610  0.1244  0.2081 -0.0369
20356SOL    HW166904   8.677   6.025   7.548 -1.3273  0.2624 -0.4322
20356SOL    HW266905   8.583   6.075   7.655  0.8523  0.4684  1.4643
20357SOL     OW66906   0.453   4.502   4.459 -0.0560 -0.6593  0.0303
20357SOL    HW166907   0.511   4.427   4.467  1.0705  0.2480  0.7545
20357SOL    HW266908   0.385   4.474   4.397 -0.0387 -2.4732  0.7843
20358SOL     OW66909   2.308   3.594   4.714  0.1403  0.1117  0.4184
20358SOL    HW166910   2.243   3.554   4.772  1.0716 -0.7287  0.9072
20358SOL    HW266911   2.287   3.560   4.627 -1.0323  1.0867  0.2838
20359SOL     OW66912   3.781   0.932   0.981 -0.6000  0.2551 -0.1204
20359SOL    HW166913   3.773   0.909   1.074 -0.7603 -2.7305 -0.7694
20359SOL    HW266914   3.814   1.022   0.981  1.9916 -0.5432  2.8282
20360SOL     OW66915   8.592   9.098   7.440 -0.7192  1.2022  0.3085
20360SOL    HW166916   8.688   9.093   7.435 -0.4569  3.1285  1.8747
20360SOL    HW266917   8.564   9.103   7.349  0.5737 -0.2283 -0.2212
20361SOL     OW66918  10.445  10.579   9.778  0.0738  0.0681  0.4087
20361SOL    HW166919  10.458  10.582   9.872  0.5712  0.1830  0.3389
20361SOL    HW266920  10.429  10.486   9.758 -1.1667  0.1995  0.7494
20362SOL     OW66921  10.339   7.199   1.034  0.0569  0.2272 -0.4604
20362SOL    HW166922  10.288   7.118   1.030 -1.0972  0.7772  1.6379
20362SOL    HW266923  10.279   7.263   1.073  0.7532  2.2672 -2.4824
20363SOL     OW66924   3.168   3.567   3.841 -0.5265  0.2147 -0.3245
20363SOL    HW166925   3.219   3.497   3.802  0.8153  1.6785 -1.3480
20363SOL    HW266926   3.092   3.577   3.784 -0.3331  0.0860 -0.6036
20364SOL     OW66927   4.206   9.259   8.750  0.1033 -0.4389 -0.2848
20364SOL    HW166928   4.201   9.286   8.659 -0.9197  0.1135 -0.0910
20364SOL    HW266929   4.125   9.292   8.789  0.2678 -1.1332  0.6969
20365SOL     OW66930  10.559   8.584   9.700  0.2805 -0.3000  0.4772
20365SOL    HW166931  10.579   8.491   9.713 -1.7970 -1.0447 -1.1247
20365SOL    HW266932  10.585   8.602   9.610 -2.2920 -0.2415 -0.3149
20366SOL     OW66933   9.819   9.201   4.561 -0.4563 -0.4124 -0.0350
20366SOL    HW166934   9.774   9.117   4.560 -1.5575  0.1649 -0.9900
20366SOL    HW266935   9.792   9.244   4.480 -1.3539  1.5835  1.2399
20367SOL     OW66936   1.050   2.163   3.006  0.1014 -0.2746  0.1335
20367SOL    HW166937   1.142   2.152   3.032  0.6053 -0.3337 -1.5531
20367SOL    HW266938   1.000   2.129   3.080  1.3740  1.6703  2.0200
20368SOL     OW66939   5.058   2.626  10.163  0.4668  0.8383  0.0609
20368SOL    HW166940   5.070   2.665  10.250 -0.2761  1.9339 -0.3022
20368SOL    HW266941   5.125   2.668  10.108 -0.0562  1.2969 -0.2361
20369SOL     OW66942   6.274   6.544   2.820 -0.2990  0.2481  0.1667
20369SOL    HW166943   6.362   6.547   2.781 -0.6277  0.3372 -0.5745
20369SOL    HW266944   6.215   6.541   2.746 -0.9142 -0.3556  0.6724
20370SOL     OW66945  10.414   7.577   7.935 -0.0845 -0.4921 -0.0441
20370SOL    HW166946  10.494   7.625   7.912 -0.5266  0.2684 -0.0152
20370SOL    HW266947  10.440   7.519   8.006  0.2736  0.2759  0.4588
20371SOL     OW66948   9.515   6.525   4.050 -0.0767  0.3249 -0.0419
20371SOL    HW166949   9.479   6.445   4.089  0.7916 -0.3361 -0.5593
20371SOL    HW266950   9.439   6.583   4.040 -0.3563  0.5768  2.6707
20372SOL     OW66951   4.089  10.921   0.165 -1.0537 -0.1157  0.1240
20372SOL    HW166952   4.070  10.829   0.148  0.9703 -0.2653 -1.7306
20372SOL    HW266953   4.060  10.966   0.086  1.2325  0.3178 -0.5208
20373SOL     OW66954   8.543   7.591   0.662  0.0909 -0.0483  0.2809
20373SOL    HW166955   8.625   7.545   0.646 -0.0616 -0.8649  1.6682
20373SOL    HW266956   8.530   7.646   0.585  2.1022  0.3442  0.1880
20374SOL     OW66957   1.679   1.558   0.902 -0.0068  0.0263 -0.0146
20374SOL    HW166958   1.602   1.553   0.959  0.8676  2.2210  1.4802
20374SOL    HW266959   1.736   1.488   0.934 -0.1987  0.2261  0.8110
20375SOL     OW66960   6.125   0.262   5.983 -0.2675  0.3856  0.0491
20375SOL    HW166961   6.158   0.325   6.047 -0.6884  1.7887 -1.0525
20375SOL    HW266962   6.200   0.243   5.927 -0.2683  0.3018  0.0764
20376SOL     OW66963   0.571   2.465   6.213  0.2884 -0.1520 -0.1544
20376SOL    HW166964   0.632   2.460   6.140  0.0737 -1.8327 -0.2468
20376SOL    HW266965   0.626   2.465   6.292  0.4439 -0.7545 -0.2606
20377SOL     OW66966   9.021   3.739   1.451 -0.0296  0.7970 -0.2260
20377SOL    HW166967   9.017   3.798   1.376 -0.4485  1.7881  0.5607
20377SOL    HW266968   8.932   3.703   1.457  0.5244 -0.8919 -1.4425
20378SOL     OW66969   9.822   2.098   6.481  0.0190 -0.0731 -0.1459
20378SOL    HW166970   9.907   2.076   6.442 -0.3684 -1.3373 -0.3480
20378SOL    HW266971   9.776   2.014   6.485 -0.6960  0.3610  1.2394
20379SOL     OW66972  10.432   2.060   3.474  0.0201  0.3943 -0.2871
20379SOL    HW166973  10.512   2.107   3.498 -0.7973  1.9524 -0.4837
20379SOL    HW266974  10.385   2.121   3.417 -1.0419 -0.7280 -0.6541
20380SOL     OW66975   8.002   8.924   9.711 -0.0360 -0.0026  0.1182
20380SOL    HW166976   8.031   8.961   9.794  0.4714  0.3587 -0.2145
20380SOL    HW266977   7.972   8.835   9.733 -1.4700  0.6654  0.9627
20381SOL     OW66978   1.454   1.214  10.443 -0.1085  0.0122  0.1069
20381SOL    HW166979   1.542   1.245  10.422  0.0803 -0.2189  0.5528
20381SOL    HW266980   1.462   1.175  10.530 -0.7140  0.2380  0.2686
20382SOL     OW66981   6.843   2.040   7.932 -0.2157 -0.1194 -0.3363
20382SOL    HW166982   6.778   2.051   7.862 -0.0122 -0.2721 -0.5484
20382SOL    HW266983   6.897   1.967   7.903  0.6127  0.5842 -0.5908
20383SOL     OW66984   0.765  10.068   9.448 -0.2917 -0.3627 -0.4906
20383SOL    HW166985   0.725  10.009   9.384  0.8826  0.3063 -1.9133
20383SOL    HW266986   0.817  10.011   9.505  0.5361 -0.7698 -1.6197
20384SOL     OW66987   0.663   7.724   3.295 -0.1165 -0.5350  0.2873
20384SOL    HW166988   0.741   7.670   3.312 -0.0942 -1.0390 -1.3130
20384SOL    HW266989   0.652   7.722   3.200 -1.2060  0.7875  0.3550
20385SOL     OW66990   5.711   4.012   7.154 -0.5615  0.2898 -0.2497
20385SOL    HW166991   5.636   4.058   7.190 -1.4632 -0.7090 -0.7721
20385SOL    HW266992   5.679   3.974   7.072  0.5631 -0.0088 -0.5766
20386SOL     OW66993   6.161   4.759   6.026  0.2252  0.5313  0.2682
20386SOL    HW166994   6.148   4.851   6.049  0.3780  0.6164  0.0102
20386SOL    HW266995   6.173   4.759   5.931  1.5282  0.3993  0.4147
20387SOL     OW66996   9.843   1.137   4.859  0.0992 -0.8535 -0.0182
20387SOL    HW166997   9.816   1.160   4.948 -0.3671 -2.7575  0.3852
20387SOL    HW266998   9.901   1.062   4.870  0.5877 -0.6863 -1.2887
20388SOL     OW66999   0.063   3.838  10.091 -0.0716 -0.2867  0.2424
20388SOL    HW167000   0.144   3.883  10.067 -0.4104  0.3902  0.3544
20388SOL    HW267001   0.081   3.746  10.071 -0.6926  0.2747 -3.6739
20389SOL     OW67002   9.730   4.268   0.794  0.1205 -0.4819  0.0974
20389SOL    HW167003   9.682   4.282   0.713  0.4749  0.5680  0.0574
20389SOL    HW267004   9.818   4.301   0.776 -0.0765  0.7063  1.2165
20390SOL     OW67005   8.400   0.044   5.262 -0.1947 -0.6400  0.0623
20390SOL    HW167006   8.459   0.051   5.187  0.1853 -0.6358  0.3581
20390SOL    HW267007   8.313   0.062   5.226  0.0888  0.2294 -0.2113
20391SOL     OW67008   8.330   4.903   0.495  0.1353 -0.0745 -0.7084
20391SOL    HW167009   8.359   4.812   0.497  0.6547  0.0938 -0.5761
20391SOL    HW267010   8.271   4.908   0.420  0.8242 -0.3005 -1.2686
20392SOL     OW67011   1.073   5.791   5.705  0.0783 -0.0190 -0.1374
20392SOL    HW167012   1.145   5.850   5.728  0.3795 -0.2923 -0.3715
20392SOL    HW267013   0.994   5.841   5.724  0.2757  1.6054 -3.1553
20393SOL     OW67014   9.031   6.931   6.341  0.3397  0.2986  0.0251
20393SOL    HW167015   9.013   6.859   6.280  0.6685  0.7714 -0.6427
20393SOL    HW267016   8.972   6.916   6.414 -0.4281  0.0050 -0.6451
20394SOL     OW67017   4.734  10.896   5.741 -0.3484  0.1444  0.1590
20394SOL    HW167018   4.822  10.892   5.704 -0.4470 -1.5136  0.0439
20394SOL    HW267019   4.676  10.900   5.666 -0.4075  0.6469  0.2265
20395SOL     OW67020   2.898   0.958   1.844 -0.1599 -0.3194  0.1181
20395SOL    HW167021   2.839   0.946   1.919 -0.9342  0.1181 -0.4175
20395SOL    HW267022   2.860   0.904   1.775  0.0334  0.0274 -0.2586
20396SOL     OW67023   3.077   3.582   6.604 -1.0096 -0.3042 -0.2856
20396SOL    HW167024   3.107   3.664   6.566  1.9375 -1.5384 -0.9009
20396SOL    HW267025   2.999   3.559   6.553 -0.3717  0.8383 -1.8635
20397SOL     OW67026   1.878   4.473   7.204 -0.0184  0.6773 -0.3098
20397SOL    HW167027   1.792   4.434   7.185  0.0408  0.1287  0.5192
20397SOL    HW267028   1.860   4.537   7.273  0.3894 -0.1680  0.6023
20398SOL     OW67029   6.284   5.109   5.299 -0.4410  0.1340  0.7550
20398SOL    HW167030   6.210   5.144   5.249 -1.7274 -0.8663  1.8662
20398SOL    HW267031   6.259   5.018   5.318  0.3866  0.2180  2.4303
20399SOL     OW67032   1.723   4.789   0.730  0.1660 -0.0926  0.1143
20399SOL    HW167033   1.761   4.709   0.694 -0.6766 -0.2044 -0.5652
20399SOL    HW267034   1.647   4.758   0.780  0.2690  0.2265  0.4789
20400SOL     OW67035  10.614   1.720   9.382  0.2815  0.5747  0.3868
20400SOL    HW167036  10.542   1.780   9.400 -0.8841 -0.7123  0.2032
20400SOL    HW267037  10.646   1.696   9.469 -0.5857 -0.0741  0.5432
20401SOL     OW67038   2.054   2.678   5.431 -0.1283  0.5099 -0.3396
20401SOL    HW167039   2.098   2.666   5.347  0.4100  2.4441 -0.3860
20401SOL    HW267040   1.969   2.638   5.419  1.5683 -3.5997 -0.1707
20402SOL     OW67041   9.699   3.708   1.744  0.2916 -0.1225  0.4331
20402SOL    HW167042   9.647   3.787   1.755 -1.6560 -1.3013  0.1718
20402SOL    HW267043   9.688   3.661   1.826  0.6919 -0.5305  0.2560
20403SOL     OW67044   8.090   4.492   0.361 -0.0312  0.0177 -0.3676
20403SOL    HW167045   8.182   4.489   0.335 -0.1931  0.8320 -1.0616
20403SOL    HW267046   8.059   4.403   0.345  0.0865  0.2706 -2.2802
20404SOL     OW67047   5.738   0.474   9.728 -0.3807 -0.1112 -0.3163
20404SOL    HW167048   5.683   0.503   9.800 -2.1836 -2.3269 -0.6901
20404SOL    HW267049   5.817   0.440   9.770 -1.0254 -0.5643  0.5543
20405SOL     OW67050  10.100   7.340  10.728  0.1354  0.4659  0.2912
20405SOL    HW167051  10.029   7.398  10.699  1.5051  1.5661 -0.9670
20405SOL    HW267052  10.090   7.337  10.823 -1.3662  0.8797  0.1850
20406SOL     OW67053   2.391   1.388   7.357 -0.2855 -0.2423  0.3749
20406SOL    HW167054   2.345   1.309   7.387  0.6784 -0.6571  0.8291
20406SOL    HW267055   2.480   1.377   7.391  0.4644 -0.0309 -1.4442
20407SOL     OW67056   0.126   4.808   3.389 -0.1059  0.1530 -0.2908
20407SOL    HW167057   0.138   4.798   3.483 -1.9623 -0.4593 -0.0689
20407SOL    HW267058   0.159   4.726   3.352  1.9971  0.9813 -0.3622
20408SOL     OW67059   7.789   4.349   8.187 -0.1309  0.2325  0.4607
20408SOL    HW167060   7.818   4.431   8.227 -1.6268  0.2492  1.6124
20408SOL    HW267061   7.844   4.282   8.228  1.1463  0.6358 -0.5386
20409SOL     OW67062   4.022   5.098   8.186 -0.3529  0.4298  0.1253
20409SOL    HW167063   4.010   5.087   8.281 -0.8320 -0.5301 -0.0330
20409SOL    HW267064   4.117   5.095   8.174 -0.2184  1.8370  0.7044
20410SOL     OW67065   3.769   9.715   9.365  0.0931  0.2733  0.2436
20410SOL    HW167066   3.755   9.668   9.283  0.7836  1.6016 -0.6720
20410SOL    HW267067   3.840   9.666   9.408  0.0205 -0.1844 -0.1475
20411SOL     OW67068   3.583   8.316   0.403  0.1375  0.2654 -0.0465
20411SOL    HW167069   3.631   8.251   0.455 -1.0057 -0.3852  0.2302
20411SOL    HW267070   3.626   8.399   0.425  2.0300 -0.4307 -0.8843
20412SOL     OW67071   0.251   4.042   1.177  0.2236 -0.4997  0.7228
20412SOL    HW167072   0.302   3.977   1.225  0.3638 -0.4320  0.6644
20412SOL    HW267073   0.250   4.119   1.234 -0.2922 -0.6901  0.9796
20413SOL     OW67074   2.941   8.499   0.311  0.4966 -0.2197 -0.3821
20413SOL    HW167075   2.957   8.459   0.396  0.2582 -0.3590 -0.4034
20413SOL    HW267076   3.024   8.543   0.289  0.3701  0.3231  0.1917
20414SOL     OW67077   0.826   8.361   1.849 -0.3914  0.0532  0.0477
20414SOL    HW167078   0.894   8.402   1.796 -1.6920  1.5689 -0.5433
20414SOL    HW267079   0.802   8.282   1.800 -0.1275  0.3343 -0.5465
20415SOL     OW67080   2.422   0.354   0.981  0.0634  0.3655 -0.4394
20415SOL    HW167081   2.508   0.393   0.965  0.8690 -1.3944 -0.7142
20415SOL    HW267082   2.394   0.322   0.896 -0.2671 -0.1916 -0.1314
20416SOL     OW67083   1.169   9.444   0.971 -0.1656 -0.6560  1.0676
20416SOL    HW167084   1.096   9.383   0.958  0.4951 -1.1976 -0.2156
20416SOL    HW267085   1.237   9.413   0.912  0.8029  0.3571  1.6189
20417SOL     OW67086   9.804   2.590   6.616 -1.1040  0.0526 -0.4722
20417SOL    HW167087   9.722   2.542   6.631 -2.6293  2.6119  0.0299
20417SOL    HW267088   9.778   2.667   6.566  0.4809  2.3191  1.9366
20418SOL     OW67089   7.714   3.409   6.174  0.1399 -0.3751 -0.1090
20418SOL    HW167090   7.753   3.435   6.090  1.1684 -0.7057  0.2548
20418SOL    HW267091   7.786   3.368   6.222  0.4035  2.4734  2.1472
20419SOL     OW67092   0.018   9.279   6.247  0.2387 -0.4190 -0.3996
20419SOL    HW167093   0.095   9.250   6.197  0.8238  0.8210 -0.2507
20419SOL    HW267094   0.014   9.219   6.321  2.1886  0.5742  0.6017
20420SOL     OW67095   8.741   7.231   8.739 -0.4480  0.2701 -0.3163
20420SOL    HW167096   8.790   7.148   8.738 -0.0839  0.4784  0.1201
20420SOL    HW267097   8.791   7.287   8.798 -1.1666  0.5209  0.0546
20421SOL     OW67098   5.982   3.618   7.328 -0.4464 -0.0930 -0.3500
20421SOL    HW167099   5.936   3.618   7.244 -0.6363 -1.4612 -0.2678
20421SOL    HW267100   6.057   3.561   7.315  0.3448  0.8456 -0.0035
20422SOL     OW67101   9.837   3.138   2.187  0.0533 -0.4416 -0.2257
20422SOL    HW167102   9.813   3.187   2.266 -0.1216  0.2220 -0.6833
20422SOL    HW267103   9.780   3.173   2.119 -1.5458 -2.6885 -0.1622
20423SOL     OW67104   5.491   0.168   2.627 -0.2317 -0.1662  0.1738
20423SOL    HW167105   5.543   0.198   2.553 -0.7368  1.4853  0.4616
20423SOL    HW267106   5.556   0.142   2.693  0.2157 -0.4216 -0.3672
20424SOL     OW67107   8.008   6.865   4.797  0.3627 -0.0776  0.2203
20424SOL    HW167108   7.950   6.789   4.794 -0.2749  0.4175 -0.3351
20424SOL    HW267109   8.093   6.829   4.821 -0.3427 -0.7070  1.9658
20425SOL     OW67110   4.035  10.489   7.745 -0.2194 -0.2543 -0.3090
20425SOL    HW167111   4.009  10.429   7.675 -2.1731  0.0069  0.1127
20425SOL    HW267112   3.957  10.543   7.759  0.7652  0.9445  0.7946
20426SOL     OW67113   3.868   8.665   9.665 -0.1642 -0.6270 -0.0284
20426SOL    HW167114   3.881   8.702   9.578  1.0879 -0.8331  0.0488
20426SOL    HW267115   3.851   8.742   9.721 -3.0840 -0.6502 -0.7574
20427SOL     OW67116   2.530   7.195   9.118  0.4898  0.3160 -0.7654
20427SOL    HW167117   2.465   7.246   9.166  0.9176 -0.2158  0.4287
20427SOL    HW267118   2.614   7.226   9.152  0.7674 -0.8818 -0.3104
20428SOL     OW67119   4.238  10.732   6.117 -0.2002  0.2392 -0.1848
20428SOL    HW167120   4.304  10.761   6.180 -0.5716 -0.3596  0.4987
20428SOL    HW267121   4.162  10.787   6.135  0.1956  1.1427 -1.1813
20429SOL     OW67122   6.461  10.540   8.080 -0.5480  0.0185 -0.0067
20429SOL    HW167123   6.538  10.573   8.033  0.1480 -1.6139 -0.0521
20429SOL    HW267124   6.449  10.451   8.048  0.4529 -1.5031  3.4242
20430SOL     OW67125   1.197   7.644   4.949  0.0258  0.1236 -0.1177
20430SOL    HW167126   1.135   7.600   4.890 -0.1739  0.1540  0.0653
20430SOL    HW267127   1.231   7.573   5.004 -0.7585  0.2746  0.5896
20431SOL     OW67128   4.246   5.177   1.823 -0.0414  0.2327  0.1113
20431SOL    HW167129   4.225   5.202   1.913 -0.0301  0.3141  0.0913
20431SOL    HW267130   4.217   5.086   1.816 -0.8566  0.4925 -0.0651
20432SOL     OW67131   4.086   0.909   8.280 -0.0487 -0.4051 -0.1190
20432SOL    HW167132   4.139   0.864   8.214 -0.5580  0.1936 -0.9609
20432SOL    HW267133   4.043   0.980   8.232 -0.0392  0.3623  0.9668
20433SOL     OW67134   9.511   7.115   5.179  0.5389 -0.2614  0.4765
20433SOL    HW167135   9.484   7.140   5.267 -0.1596 -0.4463  0.3269
20433SOL    HW267136   9.532   7.021   5.185  1.7958  0.0247  0.7327
20434SOL     OW67137  10.518   0.308   9.107 -0.1230  0.1986 -0.7409
20434SOL    HW167138  10.598   0.338   9.149 -1.3422  1.4411  0.8094
20434SOL    HW267139  10.544   0.287   9.017  1.5071  2.6435 -0.9103
20435SOL     OW67140   5.713   1.699   6.350 -0.1818 -0.3111 -0.4339
20435SOL    HW167141   5.736   1.771   6.292 -0.1398  0.7858  0.8846
20435SOL    HW267142   5.797   1.662   6.378 -0.1392  0.3889  0.3906
20436SOL     OW67143   6.113   7.135   8.783  0.1387 -0.1580  0.0045
20436SOL    HW167144   6.043   7.197   8.762 -0.4239 -0.5530  0.6656
20436SOL    HW267145   6.068   7.050   8.789  0.7610 -0.4961 -0.0464
20437SOL     OW67146   2.252  10.526   6.063  0.2646 -0.3310 -0.3440
20437SOL    HW167147   2.216  10.581   5.993  1.1723 -1.4564 -1.7524
20437SOL    HW267148   2.175  10.488   6.106 -0.3030  0.2534 -0.8335
20438SOL     OW67149   9.421  10.248   7.149 -0.0040  0.5386  0.5691
20438SOL    HW167150   9.375  10.317   7.102 -1.8297 -0.2285  1.1643
20438SOL    HW267151   9.403  10.265   7.242  0.4093 -0.1366  0.7814
20439SOL     OW67152   5.055   7.177   4.617  0.0584 -0.3855  0.1545
20439SOL    HW167153   5.040   7.164   4.711  1.2238 -0.4523  0.3409
20439SOL    HW267154   4.993   7.118   4.575 -0.8805  0.0556  0.8622
20440SOL     OW67155   4.868  10.669   1.253  0.2178  0.1423 -0.5380
20440SOL    HW167156   4.807  10.739   1.232  0.1281 -0.1374 -1.2196
20440SOL    HW267157   4.815  10.589   1.248  0.3643  0.0048  0.0468
20441SOL     OW67158   8.026   3.469   3.998 -0.3432 -0.8037  0.0773
20441SOL    HW167159   8.098   3.511   4.046 -0.9809 -1.4746  1.7297
20441SOL    HW267160   7.949   3.521   4.022 -0.6208 -0.9380 -0.5273
20442SOL     OW67161   8.342   5.423   7.459  0.2371 -0.1705  0.1097
20442SOL    HW167162   8.395   5.368   7.403  2.5195 -0.0444  1.9942
20442SOL    HW267163   8.321   5.368   7.535  0.1091  0.6589  0.6982
20443SOL     OW67164   6.433   7.108  10.475 -0.2604 -0.7288  0.4582
20443SOL    HW167165   6.483   7.050  10.531  0.2735  0.8759  1.7130
20443SOL    HW267166   6.357   7.133  10.527  0.1959  0.7161  0.4777
20444SOL     OW67167   1.042   8.376   5.514  0.1551 -0.3349 -0.1125
20444SOL    HW167168   1.112   8.337   5.462  0.0564  0.5947 -0.9798
20444SOL    HW267169   0.963   8.327   5.490  0.2434 -0.3960 -0.2780
20445SOL     OW67170   5.762   1.905   6.164  0.4577  0.2615  0.6225
20445SOL    HW167171   5.697   1.945   6.222  0.2472 -0.0381  0.5930
20445SOL    HW267172   5.741   1.940   6.077  0.2315  0.0419  0.5852
20446SOL     OW67173   2.267   8.691   4.740  0.2215 -0.3051 -0.0979
20446SOL    HW167174   2.286   8.782   4.717 -2.2922  0.8696  1.9830
20446SOL    HW267175   2.252   8.693   4.835 -1.7809 -2.4883 -0.2790
20447SOL     OW67176   7.865  10.319  10.877 -0.8954  0.0662 -0.1168
20447SOL    HW167177   7.865  10.413  10.894  0.3080 -0.0736  0.7825
20447SOL    HW267178   7.950  10.289  10.908 -1.4532 -1.4058  0.0664
20448SOL     OW67179  10.178   4.985   8.492 -0.2107  0.2727 -0.1992
20448SOL    HW167180  10.215   4.897   8.499  0.2235  0.4750  0.1988
20448SOL    HW267181  10.248   5.042   8.524 -0.8033  0.6861  0.4023
20449SOL     OW67182   8.516   6.289   5.554 -0.0432 -0.3232  0.3111
20449SOL    HW167183   8.495   6.289   5.647  1.5980 -0.4960  0.7045
20449SOL    HW267184   8.447   6.235   5.514 -1.0180  0.1288  1.3363
20450SOL     OW67185  10.262  10.318   2.360 -0.1610  0.4053  0.0277
20450SOL    HW167186  10.193  10.258   2.388 -0.8278  1.4681  0.7180
20450SOL    HW267187  10.257  10.319   2.265 -1.1134  0.4941  0.0775
20451SOL     OW67188   3.316   3.967   1.585 -1.7701  0.3297 -0.0188
20451SOL    HW167189   3.345   3.879   1.562 -2.6164 -0.4178  1.6394
20451SOL    HW267190   3.397   4.019   1.587 -0.7979 -1.1393  2.0854
20452SOL     OW67191   9.959   7.500   0.279  0.4390 -0.5467 -0.1434
20452SOL    HW167192   9.952   7.418   0.327 -1.9007 -1.1143 -1.3232
20452SOL    HW267193   9.883   7.551   0.308  0.1757 -0.0481 -1.6675
20453SOL     OW67194   8.534   1.970  10.327 -0.3070 -0.4685 -0.0946
20453SOL    HW167195   8.503   1.931  10.408  1.5570 -1.9639 -0.0400
20453SOL    HW267196   8.593   1.905  10.289  0.1905  0.8781 -1.8133
20454SOL     OW67197   1.641   6.076   4.548 -0.2769 -0.2287  0.1541
20454SOL    HW167198   1.584   6.038   4.614 -0.4570 -0.1567  0.0410
20454SOL    HW267199   1.582   6.100   4.476 -0.4436  1.9088  0.9408
20455SOL     OW67200   0.128  10.493   8.555 -0.2659  0.2881  0.3774
20455SOL    HW167201   0.099  10.584   8.558 -1.1831 -0.0213  1.6446
20455SOL    HW267202   0.052  10.443   8.585  0.0259 -0.9633 -0.8613
20456SOL     OW67203   0.425   3.989   4.882  0.3550 -0.1513 -0.1560
20456SOL    HW167204   0.518   4.009   4.889 -0.0815  1.9666  0.5652
20456SOL    HW267205   0.381   4.072   4.905 -1.7040 -1.1790 -0.1339
20457SOL     OW67206   9.875   1.761   1.487  0.3143 -0.9832 -0.2182
20457SOL    HW167207   9.874   1.728   1.577  0.0585 -0.9719 -0.2144
20457SOL    HW267208   9.782   1.774   1.466  0.4509  1.1230  0.2988
20458SOL     OW67209   4.425   2.282   2.824 -0.5132  0.2218  0.6775
20458SOL    HW167210   4.427   2.198   2.778 -2.6081  0.0148  0.8807
20458SOL    HW267211   4.502   2.280   2.881  0.5186 -0.7348 -0.6789
20459SOL     OW67212   7.888   3.481   8.623 -0.0093 -0.5120  0.1708
20459SOL    HW167213   7.900   3.441   8.537 -1.0693 -1.3079  0.3830
20459SOL    HW267214   7.973   3.469   8.667  1.5456  2.3598 -1.7000
20460SOL     OW67215   9.835   5.777   0.885 -0.1626  0.7073  0.5109
20460SOL    HW167216   9.821   5.868   0.911  0.1825  1.4470 -1.6273
20460SOL    HW267217   9.772   5.762   0.815  0.4593 -0.3670  0.1553
20461SOL     OW67218   0.861   1.209   6.849  0.2020  0.2059  0.1980
20461SOL    HW167219   0.873   1.208   6.944  0.9451  0.1161  0.1078
20461SOL    HW267220   0.926   1.272   6.817 -0.9250  1.2361 -0.1462
20462SOL     OW67221   5.687  10.480   8.764 -0.1224 -0.5421  0.5642
20462SOL    HW167222   5.685  10.555   8.824 -0.6551 -0.9477  1.0571
20462SOL    HW267223   5.603  10.485   8.717 -0.0965 -0.7492  0.4962
20463SOL     OW67224  10.624   8.414   5.141  0.1983 -0.3174  0.4693
20463SOL    HW167225  10.530   8.432   5.154  0.0283  0.6925 -1.7115
20463SOL    HW267226  10.632   8.319   5.151 -1.0997 -0.4472  0.5032
20464SOL     OW67227   2.414   0.154   0.432 -0.4342  0.0732  0.5046
20464SOL    HW167228   2.489   0.152   0.492 -0.5859 -0.8693  0.6816
20464SOL    HW267229   2.412   0.066   0.394 -0.6678  0.4971 -0.4858
20465SOL     OW67230   3.915   8.542   7.947  0.2194  0.6174  0.2973
20465SOL    HW167231   3.990   8.491   7.978 -0.6307 -0.4440  0.6384
20465SOL    HW267232   3.840   8.485   7.959 -0.5522  1.3535 -0.8139
20466SOL     OW67233   2.692   6.963   1.249 -0.0638  0.1853  0.3799
20466SOL    HW167234   2.702   6.990   1.157  0.3973  1.9080  0.9051
20466SOL    HW267235   2.756   7.016   1.296  0.0289 -1.0128  1.6662
20467SOL     OW67236   7.296   3.076   2.494  0.5055 -0.0928 -0.3587
20467SOL    HW167237   7.350   3.116   2.427  0.8647 -1.6575 -1.0544
20467SOL    HW267238   7.356   3.058   2.567  0.1127  1.6184  0.4274
20468SOL     OW67239   9.215   2.230   3.146  0.6893 -0.2499  0.1460
20468SOL    HW167240   9.268   2.252   3.069 -1.4723  1.0044 -1.0836
20468SOL    HW267241   9.149   2.169   3.113  1.7113 -2.4442  1.8263
20469SOL     OW67242   3.513  10.469   1.556 -0.1371 -0.6728  0.2236
20469SOL    HW167243   3.594  10.473   1.505  0.0265 -0.9757  0.4615
20469SOL    HW267244   3.455  10.412   1.505  0.1788 -1.3313  0.5840
20470SOL     OW67245   6.633   8.667   7.924  0.3461  0.1842 -0.1986
20470SOL    HW167246   6.635   8.752   7.879 -0.7071  0.1711 -0.2917
20470SOL    HW267247   6.551   8.667   7.973 -0.1975 -1.2010 -1.0486
20471SOL     OW67248   3.965   8.481   7.385  0.2998  0.4450  0.6120
20471SOL    HW167249   3.914   8.560   7.401  2.9397  1.8698  3.0708
20471SOL    HW267250   3.984   8.483   7.291 -0.6272  2.1220  0.4185
20472SOL     OW67251   9.216   5.342   3.980 -0.5611 -0.4918 -0.1252
20472SOL    HW167252   9.126   5.340   4.013 -0.7834 -0.1695 -0.6842
20472SOL    HW267253   9.246   5.432   3.998 -0.6647 -0.3325 -0.7360
20473SOL     OW67254   1.071   2.511   1.043  0.5638 -0.0481  0.1822
20473SOL    HW167255   0.976   2.504   1.032  0.8725 -1.8114 -2.1883
20473SOL    HW267256   1.085   2.599   1.077 -1.9053  0.2162  0.7045
20474SOL     OW67257   4.444   2.727  10.696 -0.5385  0.3365 -0.4292
20474SOL    HW167258   4.380   2.656  10.691 -0.0343 -0.1933  0.4093
20474SOL    HW267259   4.429   2.766  10.782  1.5640 -1.0674  0.6379
20475SOL     OW67260   3.181   4.232   8.504  0.0055 -0.1895  0.3065
20475SOL    HW167261   3.172   4.140   8.477  0.5755 -0.2916  0.4528
20475SOL    HW267262   3.156   4.231   8.597  4.1113 -1.0413  1.6209
20476SOL     OW67263   3.752  10.920   8.646 -0.1016  0.6907 -0.0595
20476SOL    HW167264   3.665  10.916   8.606 -0.9597  0.3756  1.7642
20476SOL    HW267265   3.786  10.831   8.639 -1.1256  0.1124  1.6987
20477SOL     OW67266  10.477   0.457   3.035 -0.0766 -0.1461  0.1224
20477SOL    HW167267  10.489   0.425   3.124 -0.1466 -1.0349 -0.1834
20477SOL    HW267268  10.394   0.505   3.038 -0.2303 -0.4276  0.4680
20478SOL     OW67269   5.686   8.894   2.440 -0.1693 -0.1585  0.1135
20478SOL    HW167270   5.680   8.877   2.346  0.5071  0.3305 -0.0264
20478SOL    HW267271   5.706   8.987   2.446  1.1890 -0.4581  0.6760
20479SOL     OW67272   7.436   8.381   6.818 -0.0322  0.2377 -0.4693
20479SOL    HW167273   7.480   8.304   6.782 -1.8090 -0.5984 -0.9630
20479SOL    HW267274   7.483   8.399   6.900  2.5185  0.6807 -1.9036
20480SOL     OW67275   2.309   5.159   3.498  0.1383  0.0357 -0.1762
20480SOL    HW167276   2.392   5.206   3.497  1.0003 -1.2077  2.4799
20480SOL    HW267277   2.248   5.217   3.543  0.2226  0.0326 -0.0580
20481SOL     OW67278   7.725   6.371   2.924 -0.4760  0.1919 -0.0524
20481SOL    HW167279   7.802   6.321   2.896 -0.0540  1.5533 -1.4565
20481SOL    HW267280   7.759   6.434   2.988 -0.7575 -0.3541  0.6505
20482SOL     OW67281   2.461   0.451   1.423  0.4009 -0.0655 -0.0386
20482SOL    HW167282   2.387   0.459   1.363 -0.7851 -0.8512  1.2719
20482SOL    HW267283   2.503   0.368   1.399 -0.5109 -0.7488  0.6559
20483SOL     OW67284   3.479   3.361   8.529  0.1395 -0.6250  0.3716
20483SOL    HW167285   3.463   3.449   8.562  0.1660 -0.8869  1.1254
20483SOL    HW267286   3.413   3.348   8.462  0.0796 -0.0634  0.3166
20484SOL     OW67287   5.313   8.169  10.728  0.3820  0.2956  0.8383
20484SOL    HW167288   5.274   8.197  10.811 -0.9041 -0.8969  0.6785
20484SOL    HW267289   5.310   8.074  10.731  3.2583  0.1326  0.7314
20485SOL     OW67290   6.507   1.259   5.047 -0.0912  0.1228  0.6003
20485SOL    HW167291   6.541   1.288   5.131 -1.3993 -0.3257  1.3226
20485SOL    HW267292   6.493   1.165   5.057 -0.9990  0.1942  0.1790
20486SOL     OW67293   3.724   6.341   5.530  0.6195 -0.6185  0.8166
20486SOL    HW167294   3.736   6.268   5.468 -2.8738  1.8665 -3.3917
20486SOL    HW267295   3.650   6.315   5.584 -0.6958 -0.3037 -0.7516
20487SOL     OW67296   8.395   4.510   7.708 -0.0551 -0.1895 -0.6161
20487SOL    HW167297   8.445   4.430   7.697 -0.1163 -0.2395 -0.5357
20487SOL    HW267298   8.362   4.506   7.798  0.3571  0.1643 -0.4432
20488SOL     OW67299   0.758   7.937   0.504 -0.6411 -0.5870 -0.3993
20488SOL    HW167300   0.819   7.955   0.433  0.2355 -0.1204  0.4527
20488SOL    HW267301   0.715   8.021   0.520 -0.2637 -0.4984  0.1499
20489SOL     OW67302   1.690   2.993   1.619 -0.3339  0.2266 -0.1165
20489SOL    HW167303   1.713   2.904   1.644 -0.6312  0.5446  1.3436
20489SOL    HW267304   1.697   3.044   1.700  0.5291  1.6771 -1.0548
20490SOL     OW67305   2.214  10.826   3.779  0.1849  0.4179 -0.0924
20490SOL    HW167306   2.243  10.917   3.784  1.5207 -0.0508  1.4091
20490SOL    HW267307   2.195  10.802   3.869  1.2290 -1.2168 -0.2837
20491SOL     OW67308   7.823   2.094  10.693 -0.0980 -0.0351 -0.1183
20491SOL    HW167309   7.785   2.056  10.772 -0.7675  1.2343  0.2008
20491SOL    HW267310   7.833   2.187  10.713 -1.0304  0.4702 -1.7742
20492SOL     OW67311   9.213   9.597   9.728 -0.1265  0.4421  0.2484
20492SOL    HW167312   9.137   9.600   9.671 -0.8036  2.3883  1.1625
20492SOL    HW267313   9.275   9.658   9.688 -0.3156  1.2437  1.1328
20493SOL     OW67314   3.092   6.260   5.741  0.3743  0.3448  0.7991
20493SOL    HW167315   3.133   6.296   5.662  1.1376 -1.7729  0.1562
20493SOL    HW267316   3.061   6.337   5.789 -0.9671  1.6861 -1.9789
20494SOL     OW67317   3.644   2.515   1.402 -0.2071 -0.2800 -0.4244
20494SOL    HW167318   3.604   2.563   1.475 -0.2176  0.0837 -0.6663
20494SOL    HW267319   3.657   2.581   1.334  3.6327  0.3360  0.6816
20495SOL     OW67320   9.956  10.129  10.239  0.0901 -0.8791 -0.4486
20495SOL    HW167321   9.992  10.098  10.322 -0.1887 -2.5798 -0.9399
20495SOL    HW267322   9.861  10.128  10.252  0.0742  0.4476 -0.2635
20496SOL     OW67323   5.745   6.113   7.402  0.3003  0.4763 -0.4830
20496SOL    HW167324   5.684   6.156   7.343  0.7021  0.3937 -0.9638
20496SOL    HW267325   5.691   6.083   7.475 -0.3514 -0.1866 -1.2172
20497SOL     OW67326   6.883   0.815   7.820 -0.4998  0.0164  0.7973
20497SOL    HW167327   6.802   0.832   7.868 -1.2468 -0.2534 -0.3304
20497SOL    HW267328   6.864   0.738   7.767 -0.1256  0.9763 -0.8142
20498SOL     OW67329   7.638   7.894   5.445 -0.1643 -0.4723 -0.2834
20498SOL    HW167330   7.669   7.955   5.511 -0.3654 -0.6041 -0.0663
20498SOL    HW267331   7.718   7.856   5.408 -0.0441 -0.1684 -0.3371
20499SOL     OW67332   1.053   3.295   2.411 -0.0003 -0.1636 -0.1999
20499SOL    HW167333   1.122   3.359   2.426 -0.7677  0.8080 -0.6538
20499SOL    HW267334   1.059   3.275   2.318 -0.3376 -0.0450 -0.2506
20500SOL     OW67335   8.506   6.343   8.353  0.5196  0.0277 -0.6513
20500SOL    HW167336   8.541   6.322   8.439 -0.9135 -1.2686 -0.3321
20500SOL    HW267337   8.582   6.344   8.295  1.2569 -1.3491  0.2400
20501SOL     OW67338   9.234   3.656   3.913 -0.4579  0.0357  0.0035
20501SOL    HW167339   9.189   3.718   3.970 -0.0009 -0.7758  1.3029
20501SOL    HW267340   9.169   3.589   3.893 -0.1576 -0.5742  1.0014
20502SOL     OW67341   2.519   8.237   7.576  0.3481 -0.7438  0.1103
20502SOL    HW167342   2.598   8.197   7.614  0.3855  0.5331  1.4564
20502SOL    HW267343   2.466   8.260   7.652  0.4688  2.0002 -0.5562
20503SOL     OW67344   7.527   6.342   1.634  0.1893  0.2454 -0.2369
20503SOL    HW167345   7.507   6.412   1.572  0.7330  0.3129 -0.3391
20503SOL    HW267346   7.622   6.340   1.639  0.1482  0.4678  0.8696
20504SOL     OW67347  10.311   2.082   4.232  0.3185 -0.3978 -0.3297
20504SOL    HW167348  10.398   2.049   4.253 -0.0162 -1.0177  0.1228
20504SOL    HW267349  10.265   2.007   4.195 -0.9028 -0.9125  1.9784
20505SOL     OW67350   1.157  10.615   7.637  0.0912 -0.2362  0.2215
20505SOL    HW167351   1.229  10.600   7.575  1.9080  0.8022  1.9854
20505SOL    HW267352   1.088  10.556   7.607  1.0607 -0.1319 -2.4874
20506SOL     OW67353   8.044   5.100   0.007 -0.2532  0.1821 -0.2862
20506SOL    HW167354   8.133   5.134  -0.007 -0.2926 -0.0053 -1.0375
20506SOL    HW267355   8.032   5.103   0.102  0.3066  0.8373 -0.2247
20507SOL     OW67356   1.800   7.377   2.853  0.3567 -0.4510 -0.1645
20507SOL    HW167357   1.779   7.464   2.821  0.7460  0.0414  0.8751
20507SOL    HW267358   1.831   7.329   2.776  0.9857  0.5971 -0.5764
20508SOL     OW67359   4.424  10.912   0.290 -0.5777 -0.0644 -0.3821
20508SOL    HW167360   4.337  10.939   0.320 -0.5314  0.9391 -1.0778
20508SOL    HW267361   4.410  10.885   0.199  0.0582  1.5698 -1.0147
20509SOL     OW67362   7.415   6.308   5.841  0.1264 -0.0256 -0.2240
20509SOL    HW167363   7.510   6.294   5.834  0.3578  1.1768  0.3742
20509SOL    HW267364   7.381   6.277   5.757  0.6989 -3.0082  0.5263
20510SOL     OW67365   0.440   0.841   3.513  0.4268 -0.0391  0.5005
20510SOL    HW167366   0.488   0.870   3.591  0.3504 -0.6981  0.7987
20510SOL    HW267367   0.463   0.906   3.446 -0.0261  0.9152  1.2310
20511SOL     OW67368  10.425   5.839   0.089  0.6242  0.2498 -0.1655
20511SOL    HW167369  10.396   5.906   0.027  1.3534 -0.3834 -1.2230
20511SOL    HW267370  10.370   5.763   0.070  1.5073 -0.2589 -0.7050
20512SOL     OW67371   5.240   2.852  10.726 -0.3263 -0.0531 -0.0476
20512SOL    HW167372   5.247   2.899  10.643 -1.6510  1.7007  0.7694
20512SOL    HW267373   5.324   2.869  10.770 -0.7324  1.5309  0.1839
20513SOL     OW67374   3.575   6.984   7.438 -0.2364 -0.2377  0.1164
20513SOL    HW167375   3.667   6.987   7.463 -0.1763  1.5339 -0.1641
20513SOL    HW267376   3.545   6.898   7.465  0.7664  0.1753  2.7987
20514SOL     OW67377  10.128   2.615   5.950 -0.0480 -0.1190  0.7181
20514SOL    HW167378  10.172   2.696   5.925  0.6256 -0.6108  0.2803
20514SOL    HW267379  10.173   2.547   5.901 -0.8832 -0.7162  0.7633
20515SOL     OW67380   6.537   0.961   9.986 -0.1881  0.1357  0.2111
20515SOL    HW167381   6.569   1.035   9.933  0.4094  0.8686  1.5448
20515SOL    HW267382   6.442   0.960   9.970 -0.2663  1.4550  0.4622
20516SOL     OW67383   4.124   4.961   9.233  0.6080  0.5720 -0.1052
20516SOL    HW167384   4.081   4.895   9.178  1.1163 -0.0901  0.2771
20516SOL    HW267385   4.068   4.969   9.310 -1.2158  2.9718 -1.5201
20517SOL     OW67386  10.571   7.443   4.236  0.3612  0.3537 -0.0615
20517SOL    HW167387  10.616   7.375   4.186  3.1627  0.7868  1.6564
20517SOL    HW267388  10.586   7.523   4.186 -1.1801  0.1011 -1.0151
20518SOL     OW67389   9.497  10.019   7.420  0.0770 -0.6664  0.0464
20518SOL    HW167390   9.506   9.930   7.454  1.0052 -0.3824  0.5655
20518SOL    HW267391   9.473  10.071   7.496  0.8757 -0.2494  0.0206
20519SOL     OW67392   8.009   3.460  10.092  0.4562  0.2516  0.4723
20519SOL    HW167393   7.921   3.481  10.123 -1.0683 -5.0033  0.7824
20519SOL    HW267394   7.997   3.438   9.999  1.1397 -1.4750  0.7498
20520SOL     OW67395   9.841   2.270  10.050  0.3530 -1.0409  0.1726
20520SOL    HW167396   9.835   2.334  10.121 -0.3926 -0.1238 -0.6909
20520SOL    HW267397   9.934   2.268  10.028  0.4241 -0.4277  0.3773
20521SOL     OW67398   4.399   3.442   7.050  0.3645 -0.5807 -0.5672
20521SOL    HW167399   4.479   3.396   7.076  0.4535 -0.1751 -0.1193
20521SOL    HW267400   4.331   3.374   7.055 -0.0789 -0.0634  3.0673
20522SOL     OW67401   9.850   0.492   5.996 -0.2635 -0.5952  0.4951
20522SOL    HW167402   9.876   0.506   6.087  0.7350 -2.9099  0.6360
20522SOL    HW267403   9.921   0.440   5.959 -1.7003 -1.5988 -0.9714
20523SOL     OW67404   8.963   2.473   5.070 -0.4262  0.2994 -0.1303
20523SOL    HW167405   9.030   2.424   5.117 -1.0436 -2.2141 -1.7117
20523SOL    HW267406   8.880   2.444   5.107 -0.8146  0.0011 -1.1842
20524SOL     OW67407   2.111   6.117   5.084 -0.3660  0.0337 -0.5380
20524SOL    HW167408   2.022   6.141   5.109 -0.7623 -0.7292 -1.1671
20524SOL    HW267409   2.141   6.189   5.030 -0.3362  0.6227  0.2404
20525SOL     OW67410   8.849   1.667  10.852 -0.3323 -0.3765 -0.1573
20525SOL    HW167411   8.912   1.718  10.903  0.9205 -1.6964 -0.3045
20525SOL    HW267412   8.769   1.666  10.905  0.2199  0.1551  0.7028
20526SOL     OW67413   2.787  10.126   7.483  0.1910  0.1888  0.7615
20526SOL    HW167414   2.718  10.129   7.550 -0.0208 -0.2789  0.5695
20526SOL    HW267415   2.846  10.197   7.506  1.7725 -1.7345  3.2252
20527SOL     OW67416   0.727   4.048   7.861 -0.4312 -0.4317  0.1884
20527SOL    HW167417   0.660   4.044   7.792 -1.5287 -0.3587  1.2103
20527SOL    HW267418   0.809   4.066   7.814 -1.3573  1.0579 -0.9700
20528SOL     OW67419   4.551   8.216   8.441  0.2264 -0.2404 -0.6136
20528SOL    HW167420   4.487   8.162   8.487 -0.5659  2.3902  1.6217
20528SOL    HW267421   4.585   8.276   8.508  2.3451  0.8824 -2.5498
20529SOL     OW67422   7.969   3.968   8.078  0.0620  0.0204  0.2727
20529SOL    HW167423   8.030   4.029   8.120 -0.3993 -0.1650  1.2485
20529SOL    HW267424   8.019   3.888   8.064  0.3753  0.2709 -0.0339
20530SOL     OW67425   4.996   1.820   6.526  0.0251 -0.1908  0.3354
20530SOL    HW167426   5.088   1.845   6.523  0.0247 -0.1421  0.6513
20530SOL    HW267427   4.959   1.852   6.444  0.0588  0.7175  0.6585
20531SOL     OW67428   0.545   0.517   6.658 -0.0671 -0.3142 -0.2985
20531SOL    HW167429   0.589   0.435   6.634 -1.6821 -1.1339 -0.6474
20531SOL    HW267430   0.614   0.573   6.690  1.1648 -1.6648 -0.4835
20532SOL     OW67431   5.719   2.582   9.393  0.2621 -0.4459  0.9841
20532SOL    HW167432   5.672   2.537   9.323 -0.3196  1.6658 -0.0827
20532SOL    HW267433   5.671   2.558   9.473 -1.0205 -0.4521  0.2487
20533SOL     OW67434   4.145   2.712   1.813  0.2598 -0.3992  0.2283
20533SOL    HW167435   4.128   2.681   1.902  4.3512 -3.3844  0.2792
20533SOL    HW267436   4.101   2.649   1.756 -0.8814  0.4786  0.1131
20534SOL     OW67437   0.601   5.684   2.233 -0.3259 -0.2766 -0.2419
20534SOL    HW167438   0.682   5.675   2.283 -1.1035  0.4005  1.1935
20534SOL    HW267439   0.580   5.777   2.237 -1.2291 -0.4550 -0.4778
20535SOL     OW67440   8.459   1.545  10.827  1.0440 -0.1591  0.1282
20535SOL    HW167441   8.511   1.465  10.835 -0.3365 -1.0087  0.9840
20535SOL    HW267442   8.369   1.514  10.821  0.4984  1.3321  0.3000
20536SOL     OW67443   3.780   2.373   2.206  0.4269  0.1928  0.3975
20536SOL    HW167444   3.875   2.384   2.203  0.3045  1.2281 -0.0356
20536SOL    HW267445   3.768   2.282   2.231  1.5365 -0.2071 -0.4248
20537SOL     OW67446   1.891   3.755  10.014 -0.6081 -0.6046  0.1766
20537SOL    HW167447   1.920   3.751  10.105  1.6070  1.0050 -0.3679
20537SOL    HW267448   1.895   3.665   9.983 -1.4235 -1.1832  1.6385
20538SOL     OW67449   4.642   3.758   3.957 -0.4031 -0.2736  0.5591
20538SOL    HW167450   4.686   3.707   4.025  0.9546  0.8088  0.5354
20538SOL    HW267451   4.684   3.732   3.875  1.2346  1.7578  0.6838
20539SOL     OW67452   4.465   7.249   7.134 -0.5069  0.4515  0.2472
20539SOL    HW167453   4.450   7.308   7.208 -1.8276  2.1095 -1.2951
20539SOL    HW267454   4.545   7.282   7.093 -0.5217  0.3393  0.1280
20540SOL     OW67455   2.774   8.388   3.407  0.9015  0.2293  0.1488
20540SOL    HW167456   2.827   8.308   3.411  0.1619 -0.2631  3.9616
20540SOL    HW267457   2.685   8.358   3.423  0.5003  1.7196  0.8229
20541SOL     OW67458   6.630   2.419   4.301  0.6318  0.4152 -0.2761
20541SOL    HW167459   6.560   2.361   4.271 -0.7308  1.6620  0.3955
20541SOL    HW267460   6.653   2.472   4.224  0.3543  0.4903 -0.3051
20542SOL     OW67461   2.283   4.036   0.820  0.7020 -0.4101 -0.0650
20542SOL    HW167462   2.377   4.056   0.817  0.4368  0.9021 -0.0017
20542SOL    HW267463   2.240   4.117   0.796 -0.4777 -0.1965  2.4632
20543SOL     OW67464  10.605   5.955   3.120  0.2863  0.1367  0.5434
20543SOL    HW167465  10.685   5.942   3.171 -0.5344 -1.1680  1.5552
20543SOL    HW267466  10.548   5.882   3.145 -2.2383  2.3277  1.7630
20544SOL     OW67467   9.093   5.451   1.845 -0.0084  0.0660  0.2613
20544SOL    HW167468   9.042   5.494   1.776 -1.3221 -1.1384  0.4429
20544SOL    HW267469   9.100   5.359   1.816  2.0936  0.1722  0.2428
20545SOL     OW67470   2.234   0.578   0.023 -0.0497  0.0077  0.3718
20545SOL    HW167471   2.321   0.567  -0.017 -0.0723 -0.2977  0.4032
20545SOL    HW267472   2.194   0.491   0.016 -0.2068  0.0531  0.7013
20546SOL     OW67473   0.520  10.462   0.135  0.0007 -0.4116 -0.5580
20546SOL    HW167474   0.533  10.381   0.184  0.7346 -0.0615 -0.1421
20546SOL    HW267475   0.491  10.434   0.048  1.0859 -1.1700 -0.6959
20547SOL     OW67476   8.907  10.097   1.395  0.0289 -0.0004 -0.4506
20547SOL    HW167477   8.996  10.129   1.378 -0.4475  1.8498  0.3036
20547SOL    HW267478   8.857  10.123   1.318 -0.6757  2.5157  0.7522
20548SOL     OW67479   4.534   0.955   0.606  0.5314  0.1417 -0.1968
20548SOL    HW167480   4.502   1.043   0.589  1.6606  0.1627 -2.6664
20548SOL    HW267481   4.497   0.902   0.534  1.3627 -0.9966  0.1833
20549SOL     OW67482   3.714   1.570   2.109  0.0520 -0.4116  0.1267
20549SOL    HW167483   3.715   1.520   2.191  1.6768 -1.0897 -0.2780
20549SOL    HW267484   3.701   1.661   2.137  0.2808 -0.6697  1.1263
20550SOL     OW67485   1.388   2.537   8.919  0.1146 -0.4914 -0.0825
20550SOL    HW167486   1.313   2.506   8.868  0.7519 -0.2831 -1.1611
20550SOL    HW267487   1.418   2.460   8.967 -0.9729 -0.5070  0.6338
20551SOL     OW67488   4.258   6.505   5.441 -0.6595  0.6650  0.6881
20551SOL    HW167489   4.271   6.458   5.358 -0.6511  2.6711 -0.5106
20551SOL    HW267490   4.337   6.486   5.492 -0.2598  0.1105 -0.1179
20552SOL     OW67491   4.428   2.537   5.682 -0.3902 -0.0332 -0.5189
20552SOL    HW167492   4.391   2.449   5.684 -1.3748  0.3716  1.6458
20552SOL    HW267493   4.356   2.593   5.711  0.5603  1.3587 -0.7736
20553SOL     OW67494   6.416   4.395   9.494 -0.0299 -0.5489  0.2946
20553SOL    HW167495   6.361   4.444   9.556 -0.7330 -0.4540 -0.3831
20553SOL    HW267496   6.489   4.364   9.546 -0.1080  0.3494  0.9713
20554SOL     OW67497   0.971   7.563   4.846 -0.3892 -0.1908 -0.4958
20554SOL    HW167498   0.986   7.470   4.864  0.6057  0.2007  0.8148
20554SOL    HW267499   0.917   7.593   4.919  0.0869  0.4643 -0.4059
20555SOL     OW67500   4.804   7.442   5.636  0.0949 -0.0209 -0.4587
20555SOL    HW167501   4.839   7.408   5.718  1.1498  1.3383 -0.3032
20555SOL    HW267502   4.844   7.529   5.627 -2.4419  1.2210 -0.8191
20556SOL     OW67503   8.299   7.718   2.580 -0.2868 -0.1726  0.4569
20556SOL    HW167504   8.319   7.703   2.672  0.9955 -1.3852  0.0182
20556SOL    HW267505   8.257   7.804   2.578  0.9603  0.5293  2.0070
20557SOL     OW67506   1.621   7.489   4.026  0.0093 -0.1884 -0.1428
20557SOL    HW167507   1.552   7.552   4.006 -0.4780 -0.6041  0.2141
20557SOL    HW267508   1.663   7.472   3.941 -1.3175 -1.0868 -0.6476
20558SOL     OW67509   8.141   9.042   6.250 -0.1610 -0.6582  0.1158
20558SOL    HW167510   8.217   9.000   6.211 -1.5684 -2.8460 -0.5055
20558SOL    HW267511   8.069   9.024   6.189 -1.3752  0.4552  1.1446
20559SOL     OW67512   9.833   0.709   7.340  0.3733 -0.5096 -0.1332
20559SOL    HW167513   9.798   0.631   7.384 -0.7267 -1.0546 -1.8335
20559SOL    HW267514   9.912   0.678   7.296  1.5811  0.0796  1.5198
20560SOL     OW67515   3.368   2.217   7.279  0.2964  0.3252 -0.0789
20560SOL    HW167516   3.286   2.203   7.232 -0.2601 -0.1806  1.0131
20560SOL    HW267517   3.342   2.260   7.361  0.8618 -1.6298  1.1845
20561SOL     OW67518   8.848   6.538   8.694 -0.1218  0.3027  0.9356
20561SOL    HW167519   8.939   6.547   8.723  0.2194  1.4970 -0.4295
20561SOL    HW267520   8.803   6.497   8.768  1.5231 -0.3157  1.6267
20562SOL     OW67521   7.227   5.704   3.211  0.0826 -0.4372 -0.0378
20562SOL    HW167522   7.155   5.730   3.269  0.1892  1.2544 -0.6185
20562SOL    HW267523   7.208   5.748   3.128  0.2861 -2.2874 -1.1098
20563SOL     OW67524   3.039   2.671   9.498  0.1807 -0.2938  0.0165
20563SOL    HW167525   3.004   2.605   9.438  1.1851  0.2956 -1.2696
20563SOL    HW267526   3.003   2.754   9.465  1.3500  0.1210 -0.2466
20564SOL     OW67527   4.558  10.710   0.706 -0.1608 -0.1022  0.1183
20564SOL    HW167528   4.573  10.672   0.792  0.4615  2.0499  1.0197
20564SOL    HW267529   4.508  10.790   0.723  1.2704  1.1840 -1.3261
20565SOL     OW67530   0.178   6.019   9.155 -0.3857  0.4063 -0.0373
20565SOL    HW167531   0.224   6.066   9.086 -0.2636 -0.0411 -0.2626
20565SOL    HW267532   0.239   5.952   9.184 -1.4555 -1.2734 -1.4740
20566SOL     OW67533   9.367   4.557   0.548 -0.1150 -0.2997  0.2637
20566SOL    HW167534   9.350   4.647   0.519 -0.0664 -0.0897  0.8611
20566SOL    HW267535   9.344   4.503   0.473  1.7566  0.3254 -0.8110
20567SOL     OW67536   2.694   4.230   5.227  0.5377 -0.2610  0.1933
20567SOL    HW167537   2.701   4.290   5.153  2.7755 -0.3894  0.2565
20567SOL    HW267538   2.654   4.282   5.297  0.5550  0.5444 -0.3881
20568SOL     OW67539   1.438   7.145  10.350  0.0002  0.6414  0.1966
20568SOL    HW167540   1.351   7.120  10.380  0.1586  0.9298  0.9269
20568SOL    HW267541   1.442   7.116  10.259 -0.3194 -0.7539  0.5967
20569SOL     OW67542   7.998   3.018   2.088  0.2680  0.1876  0.4191
20569SOL    HW167543   8.011   2.925   2.072 -0.4239  0.4252 -2.0406
20569SOL    HW267544   8.080   3.048   2.126  0.3998 -1.4397  1.5250
20570SOL     OW67545   8.780   4.594   9.555  0.1409 -0.1529  0.0768
20570SOL    HW167546   8.843   4.665   9.551 -1.4133  1.3901  1.3571
20570SOL    HW267547   8.708   4.622   9.497  0.8711 -2.2551 -2.0375
20571SOL     OW67548   1.336   4.701   7.816 -0.4433 -0.1897  0.2140
20571SOL    HW167549   1.371   4.783   7.850  0.0312 -0.0525 -0.5675
20571SOL    HW267550   1.385   4.633   7.861  0.1819 -0.0126 -0.1875
20572SOL     OW67551   1.423   9.363   0.104  0.3715  0.5932  0.0371
20572SOL    HW167552   1.505   9.322   0.129 -0.7082 -0.3011  2.4030
20572SOL    HW267553   1.391   9.310   0.031  0.8735 -0.3630  0.4901
20573SOL     OW67554   9.159   3.914   8.073 -0.7301  0.6416  1.0591
20573SOL    HW167555   9.121   3.876   7.994  1.7759 -1.4322  0.7195
20573SOL    HW267556   9.126   3.859   8.144 -0.6158  0.6484  1.1165
20574SOL     OW67557   6.604   8.720   0.436 -0.0208 -0.1232  0.0097
20574SOL    HW167558   6.647   8.791   0.484 -1.8059  0.5150  0.7698
20574SOL    HW267559   6.646   8.641   0.468  0.9040  0.5019  0.3709
20575SOL     OW67560   1.025   4.846   7.204  0.4188 -0.5182 -0.5490
20575SOL    HW167561   0.940   4.855   7.246  0.5293  0.2014 -0.4800
20575SOL    HW267562   1.064   4.769   7.246  0.8682  0.6561  1.2880
20576SOL     OW67563   3.483   9.193   9.597  0.1944  0.5798  0.1365
20576SOL    HW167564   3.551   9.207   9.663  0.5150 -0.2389 -0.0083
20576SOL    HW267565   3.403   9.224   9.638  0.8774  3.2274 -0.3221
20577SOL     OW67566   5.933  10.210   1.362 -0.2986  0.2812 -0.2397
20577SOL    HW167567   5.862  10.158   1.324  1.6376 -1.7831 -1.3357
20577SOL    HW267568   5.898  10.244   1.444 -3.0730  0.8303 -1.5241
20578SOL     OW67569   2.265   5.101   7.149  0.2271  0.2516 -0.3424
20578SOL    HW167570   2.266   5.172   7.084  0.2846  1.1402  0.6013
20578SOL    HW267571   2.176   5.099   7.182  1.0022  2.4423  2.2842
20579SOL     OW67572   4.417   6.638   8.207  0.7385 -0.0200  0.0150
20579SOL    HW167573   4.413   6.544   8.192 -1.0650  0.0164  0.0295
20579SOL    HW267574   4.406   6.677   8.120  1.1582  0.1765  0.0494
20580SOL     OW67575   3.793   4.602   4.634  0.5619  0.1579  0.5728
20580SOL    HW167576   3.750   4.543   4.695  1.2823 -0.1615  0.7808
20580SOL    HW267577   3.749   4.686   4.647  0.7277  0.1049  1.5573
20581SOL     OW67578   8.910  10.389   9.053  0.1180 -1.0255 -0.8502
20581SOL    HW167579   8.833  10.443   9.070  0.3228 -0.6643 -1.0397
20581SOL    HW267580   8.893  10.348   8.969 -0.6925 -2.4470 -0.0163
20582SOL     OW67581   2.293   8.629   1.355  0.5822  0.0259  0.3414
20582SOL    HW167582   2.247   8.604   1.435  0.7308 -1.5427 -0.0425
20582SOL    HW267583   2.223   8.655   1.295  0.3966  0.1462  0.6053
20583SOL     OW67584   1.662   1.319   6.035 -0.3678  0.1061 -0.1018
20583SOL    HW167585   1.597   1.348   6.098 -0.5339  2.0816 -1.0929
20583SOL    HW267586   1.612   1.276   5.966 -0.3302 -0.6736  0.3377
20584SOL     OW67587   4.380   1.456   1.741 -0.3204  0.3296 -0.1788
20584SOL    HW167588   4.476   1.452   1.748 -0.1170  2.0677 -1.2974
20584SOL    HW267589   4.361   1.550   1.735 -2.0130 -0.0319 -1.0369
20585SOL     OW67590   4.880   8.579   9.709  0.1463  0.2601 -0.2685
20585SOL    HW167591   4.808   8.545   9.656 -0.5150 -0.2319  0.9310
20585SOL    HW267592   4.944   8.508   9.712  0.8480  0.7910 -1.5600
20586SOL     OW67593   8.596   1.976   0.224  0.0699  0.7237 -0.0167
20586SOL    HW167594   8.512   1.964   0.180  0.3078 -1.3809  0.0087
20586SOL    HW267595   8.630   1.887   0.236  2.8582  1.5306 -1.0986
20587SOL     OW67596   5.541   9.853   9.662  0.5439 -0.2921  0.1470
20587SOL    HW167597   5.574   9.884   9.747 -0.4856  2.2388 -0.2969
20587SOL    HW267598   5.512   9.763   9.680 -0.3935  0.4154  2.7313
20588SOL     OW67599   1.665   8.827   1.766 -0.0176  0.3185  0.8125
20588SOL    HW167600   1.721   8.894   1.726 -1.0237  0.6112 -0.1461
20588SOL    HW267601   1.641   8.864   1.850 -0.2684  1.0113  0.4463
20589SOL     OW67602   4.582   0.444   2.624  0.0256 -0.3146  0.0825
20589SOL    HW167603   4.530   0.367   2.646 -0.0962 -0.1471  0.4000
20589SOL    HW267604   4.610   0.430   2.534 -1.0856 -0.1228 -0.3091
20590SOL     OW67605   6.443   6.297   6.799  0.3798  0.5363 -0.4543
20590SOL    HW167606   6.401   6.370   6.846  0.4636  0.9251 -0.9771
20590SOL    HW267607   6.509   6.265   6.860 -0.4713  0.1001  0.2672
20591SOL     OW67608   6.294   7.889   5.734  0.5819 -1.1860 -0.0722
20591SOL    HW167609   6.241   7.931   5.666  1.2628 -1.2340 -0.6575
20591SOL    HW267610   6.373   7.943   5.739  1.1624 -1.9869 -0.3426
20592SOL     OW67611   2.544   9.647   6.322  0.4907 -0.0225 -0.2328
20592SOL    HW167612   2.572   9.602   6.401 -0.6212  0.8595  0.6848
20592SOL    HW267613   2.489   9.718   6.352 -0.0196  0.2979 -1.8045
20593SOL     OW67614  10.091   9.245   4.551 -0.1543  0.5298  0.0173
20593SOL    HW167615  10.127   9.159   4.530 -1.4109  0.1865 -0.7918
20593SOL    HW267616   9.996   9.234   4.546 -0.3328  2.0461 -0.4233
20594SOL     OW67617   4.927   3.360   2.956 -0.8594 -0.6481 -0.2370
20594SOL    HW167618   4.923   3.330   2.865 -0.4804 -0.4260 -0.3305
20594SOL    HW267619   4.904   3.453   2.952  0.7214 -0.2297 -0.3317
20595SOL     OW67620   5.792   3.408   2.730 -0.3322 -0.0009 -0.0170
20595SOL    HW167621   5.761   3.497   2.746 -0.8853 -0.1262 -0.3445
20595SOL    HW267622   5.858   3.393   2.798 -0.1116  0.7124 -0.0601
20596SOL     OW67623   3.412   4.124   7.906 -0.4350 -0.3050 -0.3917
20596SOL    HW167624   3.486   4.178   7.936  0.0271 -0.8166 -0.6067
20596SOL    HW267625   3.434   4.100   7.817 -0.7134 -0.7257 -0.3507
20597SOL     OW67626   6.383   3.211  10.339  0.4880 -0.1998  0.2247
20597SOL    HW167627   6.408   3.282  10.280  0.4906 -0.3850  0.0035
20597SOL    HW267628   6.339   3.255  10.412  3.0608  0.3360  1.5629
20598SOL     OW67629   0.410   3.739   7.458 -0.1562 -0.3015  0.3824
20598SOL    HW167630   0.398   3.709   7.548 -1.2323 -1.6797 -0.2051
20598SOL    HW267631   0.505   3.751   7.450 -0.0518 -0.0776  1.7096
20599SOL     OW67632   0.138   6.717   7.262 -0.5454  0.0765  0.0561
20599SOL    HW167633   0.044   6.709   7.280 -0.3483  0.7854  1.5107
20599SOL    HW267634   0.180   6.709   7.348  0.6237  1.3174 -0.3613
20600SOL     OW67635   0.992   8.057   3.642  0.6137 -0.0667 -0.7075
20600SOL    HW167636   1.025   8.025   3.725 -0.0608  0.4011 -0.2468
20600SOL    HW267637   1.058   8.031   3.578  2.0297  1.1256  0.2168
20601SOL     OW67638   6.050   1.177   3.507 -0.0655 -0.0739  0.5139
20601SOL    HW167639   6.138   1.190   3.542  0.1279  0.8485 -0.2639
20601SOL    HW267640   6.048   1.229   3.426 -1.7577  1.1064  1.2282
20602SOL     OW67641   0.472   5.185  10.255  0.2443 -0.0736  0.1331
20602SOL    HW167642   0.468   5.229  10.170  0.2356 -1.0907 -0.4041
20602SOL    HW267643   0.565   5.186  10.278  0.2139  0.4456  0.2511
20603SOL     OW67644   3.758   9.400   9.500  0.3458  0.4610  0.4171
20603SOL    HW167645   3.700   9.468   9.536  1.8893  1.0397  1.9556
20603SOL    HW267646   3.739   9.322   9.553  0.6192  0.5072  0.5807
20604SOL     OW67647   2.590   8.805   6.059  0.5122  0.5098  0.2279
20604SOL    HW167648   2.659   8.740   6.044  0.2919  0.1588  0.6991
20604SOL    HW267649   2.618   8.882   6.010  0.0696 -0.4153 -1.5704
20605SOL     OW67650   9.652   6.062  10.819 -0.1786 -0.0660 -0.4900
20605SOL    HW167651   9.715   6.119  10.776 -0.1178  0.7149  0.5717
20605SOL    HW267652   9.596   6.122  10.869 -0.8226 -0.8595 -0.2332
20606SOL     OW67653   2.770   0.596   5.796 -0.2486 -0.6970 -0.3434
20606SOL    HW167654   2.749   0.681   5.758  0.5259  0.0691  0.8691
20606SOL    HW267655   2.716   0.534   5.747 -1.2024  0.5401 -0.9214
20607SOL     OW67656   1.153   4.636   7.320  0.5214 -0.3874 -0.5854
20607SOL    HW167657   1.210   4.582   7.265  0.1770 -1.6480  0.2502
20607SOL    HW267658   1.199   4.642   7.403  0.9076  1.2804 -0.8971
20608SOL     OW67659   2.774   7.048   7.895 -0.0187  0.6006 -0.0091
20608SOL    HW167660   2.802   6.958   7.914  0.6288  0.8826  0.4462
20608SOL    HW267661   2.788   7.058   7.801  1.2393  0.6514  0.1628
20609SOL     OW67662   5.493   1.903   8.605 -0.1168  0.6290 -0.5937
20609SOL    HW167663   5.581   1.875   8.577  0.2053  0.6782  0.3258
20609SOL    HW267664   5.504   1.927   8.697 -1.3102 -0.3197 -0.1793
20610SOL     OW67665   3.036   5.452   6.899 -0.7081 -0.1947  0.2802
20610SOL    HW167666   2.973   5.508   6.944  0.2135  0.2622  1.0521
20610SOL    HW267667   3.055   5.382   6.961  0.4075  0.3165  0.5577
20611SOL     OW67668   7.322   5.954   6.344  0.0682 -0.6306  0.3250
20611SOL    HW167669   7.243   6.008   6.348  0.2757 -0.1669 -1.1532
20611SOL    HW267670   7.294   5.868   6.375 -0.5599 -0.0051  1.5546
20612SOL     OW67671   3.274   4.194   5.636  0.1017 -0.1180 -0.2307
20612SOL    HW167672   3.274   4.136   5.712 -2.2729  2.8288  2.2815
20612SOL    HW267673   3.310   4.277   5.668  1.6654  0.5019 -3.1666
20613SOL     OW67674   8.686   2.274   9.936 -0.3285  0.0217  0.0724
20613SOL    HW167675   8.752   2.294   9.869 -1.0349 -1.8211 -1.2611
20613SOL    HW267676   8.733   2.278  10.019  1.3080 -0.6032 -0.7920
20614SOL     OW67677   7.400   7.903   6.059 -0.0395  0.2213 -0.5034
20614SOL    HW167678   7.434   7.863   5.979  0.9766  0.4801 -0.2189
20614SOL    HW267679   7.443   7.855   6.130 -0.5969  0.2839 -0.1165
20615SOL     OW67680   1.426   9.032   3.128  0.6812  0.1302 -0.4716
20615SOL    HW167681   1.457   9.081   3.052 -0.0618  1.6292  0.1510
20615SOL    HW267682   1.445   9.089   3.203 -0.9622 -0.1262  0.1933
20616SOL     OW67683   8.548   3.918   7.642 -0.1749  0.1233  0.4961
20616SOL    HW167684   8.625   3.883   7.686 -0.7741 -0.3005  1.2361
20616SOL    HW267685   8.508   3.977   7.706  0.0883  1.1440 -0.2536
20617SOL     OW67686   6.885   6.541   5.015 -0.6047  0.4940 -0.5881
20617SOL    HW167687   6.873   6.456   5.058  0.3134  0.7127  0.1322
20617SOL    HW267688   6.917   6.519   4.927 -0.0396  0.1036 -0.2903
20618SOL     OW67689   7.931  10.908   7.874 -0.0980  0.2425  0.1898
20618SOL    HW167690   7.958  10.998   7.854  1.0011 -0.1192  0.0261
20618SOL    HW267691   7.956  10.895   7.966  1.8490 -0.6397 -0.4261
20619SOL     OW67692   3.487   2.083   2.129  0.0335 -0.1115 -0.7353
20619SOL    HW167693   3.469   2.092   2.035 -0.1611 -0.9184 -0.7859
20619SOL    HW267694   3.436   2.152   2.170 -0.4088 -0.1766 -1.1713
20620SOL     OW67695   6.144   9.749   7.263  0.1358 -0.4473  0.6144
20620SOL    HW167696   6.218   9.722   7.318  2.1491  2.3398 -0.5189
20620SOL    HW267697   6.154   9.696   7.183  1.5582  0.5457  0.0847
20621SOL     OW67698   0.501  10.621   7.999 -0.6801 -0.0346  0.1508
20621SOL    HW167699   0.420  10.667   7.978 -0.0612  0.3669 -1.4533
20621SOL    HW267700   0.552  10.624   7.919  0.7805 -0.6133  1.0233
20622SOL     OW67701   1.372   4.266   6.521 -0.1671 -0.3282 -0.1546
20622SOL    HW167702   1.444   4.306   6.569  0.7579 -1.3328 -0.6410
20622SOL    HW267703   1.301   4.260   6.584  0.8160 -1.0517  0.9172
20623SOL     OW67704   4.456   7.462   9.301 -0.3743  0.5166  0.0863
20623SOL    HW167705   4.488   7.444   9.390  0.8260 -0.4574 -0.5074
20623SOL    HW267706   4.447   7.376   9.261  2.7095  0.9581 -1.9076
20624SOL     OW67707   7.880   3.731   4.508  0.5481 -0.1861  0.1107
20624SOL    HW167708   7.919   3.663   4.452  0.8961 -0.1065  0.2541
20624SOL    HW267709   7.797   3.752   4.465  0.6418 -0.3887 -0.1759
20625SOL     OW67710   8.507   7.957   5.138 -0.3273  0.3674 -0.8668
20625SOL    HW167711   8.445   8.029   5.148  0.7789  1.3626 -1.0119
20625SOL    HW267712   8.583   7.983   5.189 -0.3526 -1.2624  0.0640
20626SOL     OW67713   1.788   0.077   9.369 -0.2315 -0.4636  0.3999
20626SOL    HW167714   1.731   0.145   9.332 -1.5587 -1.2489  0.9377
20626SOL    HW267715   1.842   0.049   9.295 -1.3245 -0.4748 -0.4202
20627SOL     OW67716   1.717   7.486   7.086 -0.2968 -0.0890  0.1361
20627SOL    HW167717   1.783   7.519   7.025  0.0507  0.2250  0.6735
20627SOL    HW267718   1.685   7.565   7.131 -1.3355 -0.1794 -0.4008
20628SOL     OW67719   3.293   6.626  10.024  0.2061  0.0524 -0.9016
20628SOL    HW167720   3.355   6.608  10.094  0.0789  1.5897 -0.3427
20628SOL    HW267721   3.227   6.558  10.031  0.0335  0.3569  0.6880
20629SOL     OW67722   4.114   7.659   2.566  0.1967  0.4722 -0.0626
20629SOL    HW167723   4.021   7.661   2.590  0.1412  2.0618 -0.2910
20629SOL    HW267724   4.135   7.566   2.561 -2.1581 -0.0781 -2.9059
20630SOL     OW67725   9.133   8.597  10.013 -0.4026 -0.1857 -0.0476
20630SOL    HW167726   9.183   8.678  10.024  0.2387 -0.4015 -1.2761
20630SOL    HW267727   9.181   8.532  10.063  0.0299 -0.1748 -0.4374
20631SOL     OW67728   7.337   4.104   4.767  0.0726  0.0624 -0.0965
20631SOL    HW167729   7.245   4.129   4.760 -0.1638 -0.9741 -1.0598
20631SOL    HW267730   7.375   4.166   4.829 -0.7161  2.0642 -1.5258
20632SOL     OW67731   4.916   0.380   6.427  0.9271  0.1469  0.4377
20632SOL    HW167732   5.010   0.387   6.443  0.9785  0.0836  0.1722
20632SOL    HW267733   4.908   0.387   6.332  0.9538 -2.9031  0.1005
20633SOL     OW67734   6.938   7.363   0.010  0.0551 -0.2753  0.3286
20633SOL    HW167735   7.012   7.316  -0.030  0.9962  1.3872  0.0148
20633SOL    HW267736   6.941   7.336   0.102 -0.5683 -2.1838 -0.1512
20634SOL     OW67737   1.310   9.775   5.865  0.3841 -0.2527  0.5832
20634SOL    HW167738   1.310   9.844   5.798 -1.0364  0.6561  1.4430
20634SOL    HW267739   1.261   9.814   5.938  2.3724 -0.9706  2.4092
20635SOL     OW67740   4.130   2.051   9.586 -0.1243  0.7892  0.8353
20635SOL    HW167741   4.209   2.082   9.541  1.1572 -0.9328  1.7965
20635SOL    HW267742   4.059   2.074   9.526  1.0985  2.1689 -0.1820
20636SOL     OW67743   2.681   5.325   2.526 -0.3080 -0.1832 -0.5603
20636SOL    HW167744   2.630   5.264   2.580  0.9032 -0.3547  0.4268
20636SOL    HW267745   2.676   5.408   2.574  0.4034 -0.2258 -0.4070
20637SOL     OW67746   8.782   0.738   5.865 -0.1557 -0.6047  0.7782
20637SOL    HW167747   8.717   0.676   5.898  2.0149 -2.0121  2.6504
20637SOL    HW267748   8.846   0.746   5.935  1.9224  0.4533 -1.1098
20638SOL     OW67749   0.581   9.079   6.639  0.1234  0.3060 -0.2952
20638SOL    HW167750   0.631   8.997   6.643 -1.1447 -0.4644  0.6293
20638SOL    HW267751   0.642   9.146   6.668  0.3164 -0.7617  1.9552
20639SOL     OW67752   8.723   2.910   9.027  0.3659 -0.1073  0.5434
20639SOL    HW167753   8.692   2.850   9.095  1.1709 -0.3859  0.6711
20639SOL    HW267754   8.663   2.985   9.031 -2.4809 -2.0608 -1.5005
20640SOL     OW67755   7.574   0.586   6.900  0.0969 -0.3939 -0.0940
20640SOL    HW167756   7.590   0.660   6.958  0.0025 -1.1258  0.8904
20640SOL    HW267757   7.606   0.614   6.815 -0.2544  0.9072  0.1842
20641SOL     OW67758   1.298   1.875  10.672 -0.9238  0.6356 -0.3270
20641SOL    HW167759   1.203   1.873  10.664 -1.1297 -2.2137  1.2148
20641SOL    HW267760   1.324   1.783  10.668  1.3386  0.9670  2.8338
20642SOL     OW67761   7.744  10.269  10.373 -0.3165  0.5260  0.4950
20642SOL    HW167762   7.814  10.265  10.438 -0.0616  1.8331  0.3305
20642SOL    HW267763   7.736  10.362  10.352 -0.2113  0.1159 -1.5409
20643SOL     OW67764   0.023   8.043   8.538 -0.6512  0.1391  0.3539
20643SOL    HW167765  -0.029   8.104   8.486 -1.6335  1.6957  2.9539
20643SOL    HW267766   0.103   8.092   8.560  1.1674 -1.5337 -1.9477
20644SOL     OW67767   5.295   2.916   9.243 -0.3277  0.2843  0.9751
20644SOL    HW167768   5.202   2.942   9.241 -0.7202 -1.0561  0.1325
20644SOL    HW267769   5.293   2.821   9.236  1.1483  0.3151 -0.5858
20645SOL     OW67770   6.437   5.271  10.001 -0.1711  0.0417 -0.0410
20645SOL    HW167771   6.436   5.181  10.033  0.9620  0.7227  2.0689
20645SOL    HW267772   6.380   5.319  10.061  1.7498  1.3011  0.8683
20646SOL     OW67773   1.941   7.231   9.868  0.1135  0.2709  0.4265
20646SOL    HW167774   1.887   7.184   9.805  0.4635 -0.6283  0.7852
20646SOL    HW267775   1.910   7.202   9.954  0.0514  1.0148  0.6618
20647SOL     OW67776   6.917   3.739   5.682 -0.5347  0.0918  0.0848
20647SOL    HW167777   6.958   3.799   5.620  2.0543 -0.3938  1.1955
20647SOL    HW267778   6.873   3.796   5.745  0.4022  0.7861  0.1325
20648SOL     OW67779   5.947   1.584   5.805  0.1885  0.1938  0.8446
20648SOL    HW167780   5.916   1.585   5.895 -2.1673  3.2768  0.1791
20648SOL    HW267781   6.030   1.632   5.808 -1.0747  2.5156  1.1624
20649SOL     OW67782   3.285   4.298   4.277 -0.0353 -0.4185  0.1957
20649SOL    HW167783   3.376   4.306   4.246 -0.3765  0.1295 -0.7123
20649SOL    HW267784   3.292   4.248   4.359  1.2331  0.8336  0.9060
20650SOL     OW67785   9.267   1.634   7.047 -0.7679 -0.1511  0.1319
20650SOL    HW167786   9.296   1.707   7.102  1.1815 -0.1200 -0.8492
20650SOL    HW267787   9.241   1.566   7.109 -0.5873  0.6245  1.0815
20651SOL     OW67788   7.024   4.578   7.743  0.3466  0.5101 -0.0119
20651SOL    HW167789   7.065   4.494   7.764 -0.1889 -0.0697 -1.2047
20651SOL    HW267790   6.955   4.556   7.680 -1.6478  1.4739  1.6977
20652SOL     OW67791   4.423   5.047   1.018 -0.9334 -0.5061  0.1299
20652SOL    HW167792   4.505   5.027   1.063 -0.1843 -0.4122 -1.1458
20652SOL    HW267793   4.417   4.981   0.948 -2.5027 -1.1988  0.8691
20653SOL     OW67794   2.771   3.241   4.173  0.4022  0.4142 -0.1057
20653SOL    HW167795   2.738   3.195   4.095  1.6928 -1.8721  0.6164
20653SOL    HW267796   2.714   3.211   4.244  1.7353 -0.7740  0.5096
20654SOL     OW67797   8.670   6.852   4.274 -0.3971 -0.0251 -0.0972
20654SOL    HW167798   8.749   6.827   4.321 -0.8011 -0.8150  0.1736
20654SOL    HW267799   8.645   6.774   4.224 -0.3630  0.5809 -1.0838
20655SOL     OW67800   5.213   3.664   2.868  0.2224  0.2617  0.1346
20655SOL    HW167801   5.264   3.608   2.926 -0.6483 -0.0630  0.6027
20655SOL    HW267802   5.253   3.651   2.782 -0.2269 -1.4298  0.1484
20656SOL     OW67803   0.492   0.671   5.602  0.6204  0.1172 -0.2115
20656SOL    HW167804   0.418   0.715   5.559  0.5766 -0.2727 -0.5382
20656SOL    HW267805   0.480   0.579   5.582 -0.5627 -0.3782  2.3130
20657SOL     OW67806   9.324   1.142   3.335  0.6955  0.2572 -0.1296
20657SOL    HW167807   9.325   1.233   3.305 -0.7097  0.0897 -0.7513
20657SOL    HW267808   9.255   1.139   3.401 -2.5498 -1.2241 -3.2801
20658SOL     OW67809   4.632   2.305   3.378 -0.1420  0.4941 -0.4252
20658SOL    HW167810   4.623   2.220   3.335 -1.0104  0.4952 -0.2658
20658SOL    HW267811   4.725   2.312   3.398  0.1086  0.0462 -1.3880
20659SOL     OW67812   1.966   1.111   7.652 -0.5464 -0.1198  0.6072
20659SOL    HW167813   2.059   1.092   7.643 -0.8147 -1.3259  0.2584
20659SOL    HW267814   1.963   1.196   7.696  0.7657  1.4994 -2.1179
20660SOL     OW67815   5.306   2.964   0.365  0.5434  0.5816 -0.1147
20660SOL    HW167816   5.315   3.059   0.372  1.3965  0.5546 -0.7522
20660SOL    HW267817   5.212   2.950   0.356  0.2798  1.2691  1.3083
20661SOL     OW67818   4.952   8.377   2.866 -0.1719 -0.3980 -0.8708
20661SOL    HW167819   4.920   8.448   2.923  2.5568  0.7901 -0.6660
20661SOL    HW267820   4.965   8.419   2.781 -1.2546 -1.4233 -1.5837
20662SOL     OW67821  10.055   0.826   6.441 -0.4590  0.0276  0.0570
20662SOL    HW167822  10.122   0.850   6.505 -1.2654 -0.0682  0.9568
20662SOL    HW267823   9.978   0.804   6.493 -1.0532 -0.3428 -0.9356
20663SOL     OW67824   0.559   4.802   0.200  0.6805  0.5972  0.4406
20663SOL    HW167825   0.517   4.867   0.255  1.5611  1.4960  0.0938
20663SOL    HW267826   0.489   4.768   0.144  0.0817  0.7474  1.0909
20664SOL     OW67827   0.936   6.284   9.015  0.0670  1.0344  0.3440
20664SOL    HW167828   1.008   6.331   9.057  0.4947  0.4320  0.2997
20664SOL    HW267829   0.891   6.239   9.086  1.7178 -1.2498  0.0729
20665SOL     OW67830   0.743   6.859   7.349 -0.1360  0.1342  0.8923
20665SOL    HW167831   0.698   6.778   7.327  0.4778 -0.4000  1.5665
20665SOL    HW267832   0.830   6.851   7.310 -0.7262  1.3517 -0.7900
20666SOL     OW67833   8.159   9.203   7.042  0.6394  0.1988 -0.3512
20666SOL    HW167834   8.193   9.114   7.050 -1.7949 -0.7852  0.2114
20666SOL    HW267835   8.228   9.259   7.077  2.2821 -1.4502 -0.8277
20667SOL     OW67836   0.074   7.444   2.056  0.1773  0.1554 -0.2708
20667SOL    HW167837   0.142   7.492   2.104  0.0147 -1.5574  1.8250
20667SOL    HW267838  -0.008   7.485   2.085  0.1725  0.4034 -0.6318
20668SOL     OW67839   8.693   9.995   7.589  0.1227 -0.2777  0.2593
20668SOL    HW167840   8.666   9.928   7.526 -1.3209  0.0412  0.5077
20668SOL    HW267841   8.621  10.000   7.651  0.0691  1.6908  0.1043
20669SOL     OW67842   6.907   1.038   4.104  0.2227 -0.2094  0.5550
20669SOL    HW167843   6.864   1.042   4.019  0.5726  0.2540  0.3936
20669SOL    HW267844   6.991   0.994   4.086  1.0557  1.3923  0.3152
20670SOL     OW67845   9.967   2.073   1.571  0.6600  0.0111  0.2262
20670SOL    HW167846   9.945   2.073   1.478  0.9099  0.4808  0.1623
20670SOL    HW267847   9.887   2.045   1.615 -0.1667  1.9168  0.0251
20671SOL     OW67848   3.492   9.061   1.904 -0.1777  0.5107  0.1723
20671SOL    HW167849   3.434   9.130   1.935 -0.2124 -0.0158  1.3336
20671SOL    HW267850   3.456   8.980   1.942  0.3213 -0.0434 -0.5054
20672SOL     OW67851   4.570   5.532  10.014 -0.4132 -0.5749  0.0553
20672SOL    HW167852   4.568   5.613   9.963  0.3874 -1.4284 -1.4112
20672SOL    HW267853   4.480   5.522  10.046 -1.0565 -0.1893 -1.5260
20673SOL     OW67854   3.279   6.895   3.510  0.4025 -0.5675  0.3661
20673SOL    HW167855   3.288   6.881   3.416  1.7347  1.4024  0.1518
20673SOL    HW267856   3.294   6.809   3.549  1.4313 -1.0944 -1.1281
20674SOL     OW67857   9.135   6.646   3.125  0.8061 -0.1949  0.1609
20674SOL    HW167858   9.108   6.554   3.120 -0.0600 -0.0179  1.1839
20674SOL    HW267859   9.154   6.661   3.217 -1.6055  1.2871  0.5201
20675SOL     OW67860   7.562   3.621   6.482 -0.0209 -0.1758 -0.1439
20675SOL    HW167861   7.544   3.564   6.407 -0.0990  0.3163 -0.5048
20675SOL    HW267862   7.615   3.567   6.540 -0.2100 -0.6679 -0.4112
20676SOL     OW67863  10.181   3.126   5.498  0.0319 -0.1288  0.2287
20676SOL    HW167864  10.254   3.129   5.560  1.7200 -3.1475 -1.3479
20676SOL    HW267865  10.218   3.157   5.415 -1.2533  0.7169 -0.0718
20677SOL     OW67866   2.019   0.779   3.257  0.2490  0.7580 -0.8454
20677SOL    HW167867   1.956   0.851   3.258 -1.9318 -1.0550  0.2233
20677SOL    HW267868   1.992   0.722   3.328  1.7028 -1.3177 -1.8479
20678SOL     OW67869   5.288   8.164  10.354 -0.0969 -0.6620 -0.1905
20678SOL    HW167870   5.233   8.242  10.360 -2.2279 -2.0564 -0.4787
20678SOL    HW267871   5.226   8.091  10.344  1.7909 -2.4184  0.1390
20679SOL     OW67872   7.609   5.320   0.862  0.9734 -0.1676 -0.1520
20679SOL    HW167873   7.616   5.292   0.953  0.1461 -0.7643 -0.2649
20679SOL    HW267874   7.675   5.390   0.853  0.5668  0.3947  1.0887
20680SOL     OW67875   4.197   6.754   8.427  0.7019 -0.0203 -0.0127
20680SOL    HW167876   4.211   6.767   8.333  0.0563 -0.1190 -0.1231
20680SOL    HW267877   4.131   6.686   8.432  0.1398  0.5562  0.5101
20681SOL     OW67878   1.983   2.409  10.703 -0.0843  0.0660 -0.3283
20681SOL    HW167879   1.940   2.458  10.633  0.6500  2.3622  0.7287
20681SOL    HW267880   2.077   2.425  10.690  0.0543  1.0415  1.4308
20682SOL     OW67881   0.317   8.669   9.109  0.1013 -0.2302  0.2754
20682SOL    HW167882   0.365   8.604   9.057 -0.8966 -0.9312  0.2125
20682SOL    HW267883   0.235   8.683   9.061 -0.5887 -0.4616  1.3661
20683SOL     OW67884   5.166  10.606   6.471  0.1843 -0.0717  0.2705
20683SOL    HW167885   5.222  10.544   6.518 -1.4215 -1.3869  0.5668
20683SOL    HW267886   5.110  10.644   6.539  0.3727  0.8492 -0.0788
20684SOL     OW67887   0.341   1.750   8.509 -0.2636 -0.5903 -0.7255
20684SOL    HW167888   0.403   1.822   8.513 -1.5940  0.8117 -3.1836
20684SOL    HW267889   0.381   1.687   8.449  0.0380 -1.0663 -0.0473
20685SOL     OW67890   6.537   2.296   8.542 -0.1427 -0.0297 -0.3715
20685SOL    HW167891   6.488   2.255   8.470  0.6670 -0.7090 -0.5407
20685SOL    HW267892   6.570   2.377   8.504  0.9693 -0.7750 -1.0326
20686SOL     OW67893   3.957   8.994   8.734  0.2814 -0.6899 -0.0647
20686SOL    HW167894   4.011   8.965   8.808  1.3263  0.4905 -0.3165
20686SOL    HW267895   4.002   9.073   8.702 -1.6847  0.4372 -0.2014
20687SOL     OW67896   9.562   8.905   9.347  0.2713 -0.4678 -0.0522
20687SOL    HW167897   9.651   8.877   9.368  0.6517  0.5600 -0.2339
20687SOL    HW267898   9.519   8.917   9.431  0.7685  0.4543  0.0780
20688SOL     OW67899   8.129   1.307   0.885 -0.1163 -0.2853 -0.0475
20688SOL    HW167900   8.132   1.254   0.806 -0.2584  1.1442 -1.0453
20688SOL    HW267901   8.203   1.277   0.937 -0.1443 -1.3844 -0.6147
20689SOL     OW67902   0.651   9.876   3.093 -0.0702  0.1151  0.4124
20689SOL    HW167903   0.659   9.936   3.019  1.8530  0.4422  0.8488
20689SOL    HW267904   0.623   9.932   3.166 -1.3328 -0.0981  0.1211
20690SOL     OW67905   8.542   2.631   4.611 -0.0365  0.7092 -0.0207
20690SOL    HW167906   8.527   2.593   4.525  0.6665  1.4937 -0.5064
20690SOL    HW267907   8.454   2.645   4.647 -0.3142 -0.7955 -0.0658
20691SOL     OW67908   9.896   0.160  10.271  0.0059 -0.4203  0.2223
20691SOL    HW167909   9.880   0.066  10.274 -0.4541 -0.3609 -0.2295
20691SOL    HW267910   9.827   0.198  10.325  0.1384 -0.3356  0.3339
20692SOL     OW67911   0.214   4.983   6.484 -0.4178  0.8000 -0.4192
20692SOL    HW167912   0.240   5.070   6.453 -0.7239  0.8378 -0.5767
20692SOL    HW267913   0.251   4.922   6.420  0.5369  0.7476  0.1570
20693SOL     OW67914   6.984   4.720  10.182 -0.2719 -0.0242 -0.2198
20693SOL    HW167915   7.047   4.742  10.251 -0.7825 -0.8702  0.5330
20693SOL    HW267916   6.997   4.627  10.166 -1.1517 -0.1587 -0.2247
20694SOL     OW67917   8.402   0.894   7.939 -0.0752  0.2767  0.7324
20694SOL    HW167918   8.345   0.956   7.893 -0.5050  0.7829  1.9017
20694SOL    HW267919   8.444   0.844   7.869 -1.1719  0.5945 -0.1939
20695SOL     OW67920   0.772   3.230   2.338 -0.3661  0.2788  0.0376
20695SOL    HW167921   0.792   3.249   2.430 -0.6554  0.1135  0.1368
20695SOL    HW267922   0.787   3.136   2.329  0.8793  0.4964 -0.4036
20696SOL     OW67923   9.572   8.338   9.699 -0.8346 -0.0173 -0.3903
20696SOL    HW167924   9.634   8.377   9.762 -2.5404  0.4034  1.0997
20696SOL    HW267925   9.567   8.402   9.628  2.3706 -1.2230 -1.9311
20697SOL     OW67926   8.948   6.803   8.091  0.2623 -0.3805 -0.1927
20697SOL    HW167927   9.003   6.843   8.024  0.3368 -1.2775 -0.6890
20697SOL    HW267928   8.924   6.875   8.149 -0.1345  0.4998 -1.4098
20698SOL     OW67929   1.577   5.301   7.604 -0.1120 -0.2920  0.1813
20698SOL    HW167930   1.523   5.371   7.568  0.5585  0.3018  0.3020
20698SOL    HW267931   1.667   5.329   7.588  0.2198 -2.3654 -2.1420
20699SOL     OW67932   0.207   5.257   6.373  0.1895  0.7048  0.2048
20699SOL    HW167933   0.257   5.310   6.311  0.2074 -0.5015 -0.8624
20699SOL    HW267934   0.118   5.257   6.339  0.1461  0.2242  0.3016
20700SOL     OW67935   1.873   5.133   1.795  0.4698  0.0552  0.2682
20700SOL    HW167936   1.896   5.057   1.849  1.5364 -0.1140 -0.3902
20700SOL    HW267937   1.827   5.095   1.719 -2.6529  0.4233  1.8028
20701SOL     OW67938   9.338   8.554   0.847  0.0532  0.3235  0.1537
20701SOL    HW167939   9.297   8.528   0.764 -1.1493 -0.0207  0.8243
20701SOL    HW267940   9.264   8.580   0.903  0.6570 -0.9815  1.6493
20702SOL     OW67941  10.764   9.304   5.002  0.6185 -0.4043 -0.3049
20702SOL    HW167942  10.851   9.343   4.992  0.9985 -1.3444 -0.8614
20702SOL    HW267943  10.769   9.256   5.085  0.3284  0.2721  0.1107
20703SOL     OW67944   8.724  10.144   6.888 -0.0150  0.1761 -0.2246
20703SOL    HW167945   8.707  10.095   6.808  0.9155  1.4079 -1.2221
20703SOL    HW267946   8.742  10.233   6.858  0.3360  0.6744  1.3607
20704SOL     OW67947   8.819   6.211   9.718 -0.1985  0.1644  0.3820
20704SOL    HW167948   8.900   6.243   9.757 -1.2265  0.9484  1.9614
20704SOL    HW267949   8.834   6.117   9.705  0.4602  0.0307  1.9846
20705SOL     OW67950   7.086   3.863   6.814 -0.2920 -0.0011  0.1167
20705SOL    HW167951   7.140   3.789   6.785 -1.4605 -0.4941 -0.8469
20705SOL    HW267952   7.041   3.892   6.735  0.3812  1.9690  0.4130
20706SOL     OW67953  10.036   0.926   4.699  0.4595  0.1623 -0.1651
20706SOL    HW167954   9.986   0.851   4.729 -0.4605  0.3413 -1.1653
20706SOL    HW267955  10.126   0.908   4.726 -0.2669  0.3354  2.6169
20707SOL     OW67956   4.416   0.167   5.709  0.4143  0.2561  0.0939
20707SOL    HW167957   4.464   0.115   5.645  1.0115  0.0128  0.7239
20707SOL    HW267958   4.367   0.231   5.657 -0.3067 -0.9046 -0.6851
20708SOL     OW67959   3.718   4.390   7.032  0.2264 -0.0156 -0.1344
20708SOL    HW167960   3.651   4.445   6.991  0.6125  2.4130  2.1765
20708SOL    HW267961   3.674   4.347   7.104  0.7816  0.3464  0.4320
20709SOL     OW67962  10.351   5.119  10.681 -0.3345  0.5074  0.4202
20709SOL    HW167963  10.440   5.088  10.667 -0.8899 -0.5443 -1.0672
20709SOL    HW267964  10.327   5.086  10.768 -0.0954 -1.3231 -0.1587
20710SOL     OW67965   7.827   3.195   2.236 -0.4555 -0.5496  0.4140
20710SOL    HW167966   7.871   3.143   2.168 -0.5488 -1.9148  1.3601
20710SOL    HW267967   7.881   3.183   2.314 -0.4108  0.9137  0.6380
20711SOL     OW67968   3.081   6.121   2.413  0.0499  0.0544 -0.0392
20711SOL    HW167969   3.144   6.049   2.409  0.8999  0.7798  0.0536
20711SOL    HW267970   3.025   6.099   2.488 -0.7625 -1.3423 -1.0263
20712SOL     OW67971   4.113   4.292   3.740 -0.0563 -0.5876 -0.8509
20712SOL    HW167972   4.043   4.351   3.714  0.0353 -0.6022 -1.1356
20712SOL    HW267973   4.161   4.339   3.808  0.0527 -0.3095 -1.1189
20713SOL     OW67974  10.656   3.680  10.906  0.7158  0.4716 -0.7578
20713SOL    HW167975  10.697   3.751  10.956 -0.4014  1.3452 -1.0549
20713SOL    HW267976  10.612   3.724  10.833  0.0361 -0.5360 -0.9725
20714SOL     OW67977   6.507   8.420   7.596 -0.7167 -0.1004  0.1408
20714SOL    HW167978   6.435   8.481   7.584 -0.2242  0.4225 -0.2310
20714SOL    HW267979   6.469   8.333   7.582 -1.1235  0.2136 -0.7738
20715SOL     OW67980   1.434   7.588   8.502  0.0573  0.6884  0.0217
20715SOL    HW167981   1.515   7.597   8.552  0.8734 -0.6950 -1.0162
20715SOL    HW267982   1.458   7.613   8.413 -0.7258  0.5184 -0.2396
20716SOL     OW67983   2.592   9.635   0.191  0.6409  0.3097  0.3734
20716SOL    HW167984   2.539   9.698   0.143 -2.4157  0.1793  3.2600
20716SOL    HW267985   2.626   9.684   0.265  1.8369 -0.4691  0.3712
20717SOL     OW67986   9.095  10.115   4.587 -0.1023  0.7930  0.3124
20717SOL    HW167987   9.139  10.198   4.606 -1.5037  1.4826  0.7274
20717SOL    HW267988   9.064  10.124   4.497 -0.3240  0.7615  0.3840
20718SOL     OW67989   4.304   7.883   2.077 -0.2856  0.1603  0.1690
20718SOL    HW167990   4.394   7.912   2.090  0.0478 -1.0984  0.9380
20718SOL    HW267991   4.251   7.944   2.128  0.2878  0.0523  0.9186
20719SOL     OW67992   7.602   0.767   7.115  0.4443  0.3176 -0.0016
20719SOL    HW167993   7.518   0.811   7.130 -0.4295 -1.0089 -0.7681
20719SOL    HW267994   7.627   0.732   7.200  0.0694  0.4863  0.1773
20720SOL     OW67995   6.414   5.008  10.059 -0.1596  0.0007 -0.1637
20720SOL    HW167996   6.331   4.964  10.038 -0.5812  1.8145 -2.7889
20720SOL    HW267997   6.481   4.952  10.018 -0.2684 -0.4230  0.2303
20721SOL     OW67998   7.267   4.037   8.628 -0.5906  0.1312  0.2572
20721SOL    HW167999   7.268   3.959   8.572 -0.0216 -1.1187  1.9007
20721SOL    HW268000   7.254   4.110   8.568  0.6704 -1.0664 -1.5786
20722SOL     OW68001   8.340  10.635   3.494 -0.6099 -0.1561 -0.2596
20722SOL    HW168002   8.321  10.578   3.569 -2.2256 -2.3463 -2.1847
20722SOL    HW268003   8.363  10.574   3.424  2.1447  1.8731 -1.2881
20723SOL     OW68004  10.648   0.803   7.274 -0.6087  0.4652 -0.2324
20723SOL    HW168005  10.743   0.814   7.271 -0.4462 -0.3964  1.0660
20723SOL    HW268006  10.635   0.714   7.307 -1.8651  0.6962 -0.0734
20724SOL     OW68007   3.866   3.407   2.830  0.2455  0.2393 -0.4557
20724SOL    HW168008   3.939   3.461   2.798  1.6272 -1.0876  0.3229
20724SOL    HW268009   3.883   3.398   2.923 -1.4352  0.6183 -0.0861
20725SOL     OW68010   8.211   4.209   4.952 -0.0297 -0.3373 -0.1413
20725SOL    HW168011   8.166   4.259   5.021  4.0007  0.7874  1.9703
20725SOL    HW268012   8.231   4.273   4.885 -1.9689 -0.9785 -1.4142
20726SOL     OW68013   9.550   2.481   4.513  0.1720 -0.5526 -0.3818
20726SOL    HW168014   9.500   2.450   4.589 -0.7092 -1.2084 -1.2079
20726SOL    HW268015   9.506   2.562   4.487  0.9675  0.1176  0.2660
20727SOL     OW68016   8.255   6.329   4.384 -0.1236 -0.1704  0.5906
20727SOL    HW168017   8.285   6.275   4.457 -0.2942 -0.9130  0.1353
20727SOL    HW268018   8.220   6.408   4.424 -2.0909 -1.4007  1.4962
20728SOL     OW68019   0.974   1.396   9.702  0.2220 -0.2253 -0.0294
20728SOL    HW168020   1.010   1.329   9.761 -2.7151 -0.5268  1.5928
20728SOL    HW268021   0.926   1.347   9.636 -1.2312  0.1931  0.6760
20729SOL     OW68022   3.090   5.533   4.278 -0.3244 -0.6411 -0.1726
20729SOL    HW168023   3.095   5.581   4.196  1.4859  0.6304  0.6092
20729SOL    HW268024   3.041   5.591   4.336  0.8309 -0.2458  0.4328
20730SOL     OW68025   3.455   1.491   8.940  0.0317 -0.6933  0.3447
20730SOL    HW168026   3.469   1.431   9.014 -0.1220 -0.4915  0.5392
20730SOL    HW268027   3.498   1.572   8.968 -1.5117 -0.0434  0.9635
20731SOL     OW68028   4.987   9.140   5.202  0.0090 -0.0427  0.8516
20731SOL    HW168029   4.938   9.187   5.270 -0.0220  1.9638 -0.4666
20731SOL    HW268030   4.921   9.117   5.136  0.6763  2.8011 -1.0054
20732SOL     OW68031   9.736   1.704   1.738  0.2284  0.3912 -0.4336
20732SOL    HW168032   9.643   1.712   1.717 -0.2190 -2.2808  0.2345
20732SOL    HW268033   9.761   1.792   1.765 -1.3687  1.8732 -3.2434
20733SOL     OW68034   9.115   0.584   6.412  0.0818 -0.6499 -0.0872
20733SOL    HW168035   9.198   0.574   6.460  0.8994 -0.1273 -1.3331
20733SOL    HW268036   9.087   0.494   6.395 -0.8415 -0.8990  2.2967
20734SOL     OW68037   1.804   3.224   1.506  0.6683 -0.5085 -0.0245
20734SOL    HW168038   1.764   3.148   1.549  0.1655 -3.2827 -4.7624
20734SOL    HW268039   1.898   3.205   1.507  0.5788 -1.0438 -0.8324
20735SOL     OW68040   8.986   5.701   8.811  0.1111  0.1858 -0.3325
20735SOL    HW168041   9.040   5.753   8.871  0.3874 -0.1519 -0.2860
20735SOL    HW268042   8.982   5.754   8.731 -0.7541  0.9201  0.1750
20736SOL     OW68043   2.489   9.112   9.261  0.2446 -0.0783  0.7725
20736SOL    HW168044   2.583   9.113   9.243  0.2789 -0.6447  0.9099
20736SOL    HW268045   2.467   9.019   9.266 -0.8893 -0.0697 -2.1171
20737SOL     OW68046   4.941   5.021   1.144 -0.1860  0.2315  0.2487
20737SOL    HW168047   4.937   5.117   1.142  0.6757  0.2814  0.4925
20737SOL    HW268048   5.017   5.001   1.199 -0.7773 -0.6049  0.7938
20738SOL     OW68049   7.185   1.716   9.486 -0.4447 -0.3520 -0.8074
20738SOL    HW168050   7.281   1.712   9.484 -0.3444  0.8714  0.4222
20738SOL    HW268051   7.162   1.710   9.579 -1.5103  0.3015 -1.0098
20739SOL     OW68052   0.534   1.207   1.521 -0.8172 -0.5199 -0.1480
20739SOL    HW168053   0.614   1.193   1.572 -0.0616 -0.8143 -1.3876
20739SOL    HW268054   0.468   1.152   1.565 -0.5733  0.3077  1.3350
20740SOL     OW68055   4.286   4.323   8.301 -0.0292  0.5555 -0.1689
20740SOL    HW168056   4.205   4.308   8.350  0.1607  2.9441  1.0221
20740SOL    HW268057   4.277   4.268   8.223 -3.2302  1.3732 -0.5442
20741SOL     OW68058   4.742   3.357   8.637  0.7049 -0.1193  0.0785
20741SOL    HW168059   4.753   3.400   8.722  1.4098 -1.3304  0.6234
20741SOL    HW268060   4.788   3.413   8.575  2.9478 -0.8303  1.0164
20742SOL     OW68061   5.544   2.282   8.268  1.0180  0.5026 -0.1594
20742SOL    HW168062   5.449   2.281   8.254  0.7199 -0.2804  1.6528
20742SOL    HW268063   5.578   2.220   8.203  0.5165  1.9726 -1.9209
20743SOL     OW68064   1.662   3.703   2.184  0.1657 -0.2424 -0.5881
20743SOL    HW168065   1.716   3.746   2.118 -0.9611  0.2020 -1.2548
20743SOL    HW268066   1.573   3.732   2.164 -0.5954 -2.5639 -0.8051
20744SOL     OW68067   0.774   5.034   1.663  0.0550 -0.5218 -0.0799
20744SOL    HW168068   0.738   5.113   1.703  0.3625 -0.7807  0.7161
20744SOL    HW268069   0.778   5.055   1.570 -1.0565 -0.0651 -0.0436
20745SOL     OW68070   3.336   6.845   2.542  0.5999 -0.4205 -0.0173
20745SOL    HW168071   3.283   6.881   2.613  1.1614  0.6779 -0.1271
20745SOL    HW268072   3.362   6.922   2.490  0.5729 -1.1546 -1.1490
20746SOL     OW68073   1.764   3.183   3.128 -0.6551  0.5797 -0.0232
20746SOL    HW168074   1.755   3.089   3.109 -0.7915  0.3667  1.0600
20746SOL    HW268075   1.690   3.203   3.185 -0.3224  1.2217  0.1859
20747SOL     OW68076   8.468   7.592   6.152 -0.7225  0.1987  0.1849
20747SOL    HW168077   8.554   7.607   6.190 -0.2348 -2.4671  0.3743
20747SOL    HW268078   8.407   7.615   6.222 -0.0436 -0.1146  0.8928
20748SOL     OW68079   3.895   7.313   6.819 -0.4372  0.0766 -0.6357
20748SOL    HW168080   3.886   7.301   6.724 -0.8589  1.4522 -0.7984
20748SOL    HW268081   3.818   7.271   6.856  0.4877 -1.8155 -0.7477
20749SOL     OW68082   7.421   7.050   4.465 -0.0826  0.3227 -0.0395
20749SOL    HW168083   7.362   7.068   4.392 -0.8485 -0.5258  0.3517
20749SOL    HW268084   7.410   7.125   4.524 -0.6890  0.2313 -0.0314
20750SOL     OW68085  10.368   4.455   3.681  0.0337  0.1931  0.5693
20750SOL    HW168086  10.398   4.543   3.704  0.0131  0.5280 -0.6001
20750SOL    HW268087  10.294   4.470   3.621 -0.8960 -0.6234  1.4868
20751SOL     OW68088   1.067   0.275   3.128 -0.0491  0.5171 -0.5270
20751SOL    HW168089   1.138   0.220   3.094 -1.2916 -1.2274 -0.4519
20751SOL    HW268090   1.042   0.330   3.053 -0.6323 -1.0489 -1.5600
20752SOL     OW68091   4.066   5.180   4.083  0.2436  0.1779  0.3128
20752SOL    HW168092   4.029   5.246   4.024  2.2206  0.9516 -0.1490
20752SOL    HW268093   4.098   5.112   4.026  1.2654  0.4483  0.5503
20753SOL     OW68094   1.337  10.558   7.048  0.1232  0.1327  0.2075
20753SOL    HW168095   1.421  10.544   7.004 -0.0590  0.1830 -0.1677
20753SOL    HW268096   1.351  10.636   7.101  0.4899 -0.2014  0.6090
20754SOL     OW68097   3.095   3.355   9.411 -0.3634 -0.2510 -0.7150
20754SOL    HW168098   3.148   3.434   9.409  1.0255 -1.1231 -0.0222
20754SOL    HW268099   3.006   3.385   9.396  0.3026  1.2743 -1.8817
20755SOL     OW68100   2.993   6.997   4.761  0.2131  0.7619 -0.3113
20755SOL    HW168101   3.010   6.933   4.830  0.1650 -0.4730 -1.4184
20755SOL    HW268102   3.066   7.058   4.765  0.2591  0.6503  0.7556
20756SOL     OW68103   6.224   0.378   4.250 -0.5788  0.4734 -0.3212
20756SOL    HW168104   6.190   0.336   4.329 -0.0751 -0.0914 -0.3990
20756SOL    HW268105   6.245   0.305   4.191  2.1209  0.6837  0.2663
20757SOL     OW68106   7.279   6.075   4.605  0.0528 -0.0735  0.0489
20757SOL    HW168107   7.351   6.037   4.554 -0.2553 -0.9233  0.2375
20757SOL    HW268108   7.322   6.117   4.679  0.4405  0.4612 -0.4643
20758SOL     OW68109   8.496   7.596   8.448  0.6606 -0.1785  0.5815
20758SOL    HW168110   8.498   7.589   8.352  0.8829  1.1966  0.4724
20758SOL    HW268111   8.428   7.661   8.466  0.9247 -0.1014  1.3378
20759SOL     OW68112   2.431   0.283   4.486  0.4100 -0.3222 -0.7299
20759SOL    HW168113   2.416   0.359   4.543  0.2744  0.2294 -1.4861
20759SOL    HW268114   2.344   0.244   4.475  0.5307 -0.8072 -0.0609
20760SOL     OW68115   9.271   0.176   8.886 -0.2523  0.5151  0.0869
20760SOL    HW168116   9.283   0.120   8.962 -1.5595 -0.2753 -0.2661
20760SOL    HW268117   9.189   0.147   8.847  1.4092 -0.5827 -2.8886
20761SOL     OW68118   8.918   4.366   6.529 -0.2457  0.4148  0.4056
20761SOL    HW168119   8.861   4.300   6.489  0.3869 -0.8380  1.4617
20761SOL    HW268120   8.972   4.398   6.457 -0.9965  0.2344 -0.2518
20762SOL     OW68121   3.814   8.013   6.356 -0.0603  0.6017 -0.2835
20762SOL    HW168122   3.747   8.010   6.424  0.0873  0.8003 -0.1310
20762SOL    HW268123   3.803   7.931   6.308  1.5293 -0.7553  1.5640
20763SOL     OW68124   3.346   5.360   9.715  0.0797 -0.4280  0.8435
20763SOL    HW168125   3.438   5.342   9.697  0.2489 -0.6870  1.9060
20763SOL    HW268126   3.300   5.283   9.684 -0.0116  0.4748 -1.4259
20764SOL     OW68127  10.181   7.733   2.811 -0.1190  0.7317 -0.1911
20764SOL    HW168128  10.203   7.680   2.887 -0.9508  0.0631 -0.3980
20764SOL    HW268129  10.261   7.734   2.758 -0.3249 -1.0679 -0.6069
20765SOL     OW68130   1.119   8.422   4.015 -0.0574 -0.3826 -0.0430
20765SOL    HW168131   1.177   8.484   3.970 -1.6955  0.4480 -1.1187
20765SOL    HW268132   1.114   8.347   3.956  0.2304 -0.6199  0.2344
20766SOL     OW68133  10.651   2.771   0.555  0.1490  0.0270 -0.0049
20766SOL    HW168134  10.722   2.716   0.587  1.1049  1.1353 -0.1619
20766SOL    HW268135  10.652   2.760   0.460 -0.4554 -0.6107  0.0553
20767SOL     OW68136   9.842  10.850   3.427 -0.0671 -0.4040  0.3246
20767SOL    HW168137   9.924  10.891   3.453  0.1987 -0.6091 -0.1735
20767SOL    HW268138   9.816  10.897   3.348  1.5927 -2.8079 -1.8239
20768SOL     OW68139   4.065   1.129   6.863 -0.2513 -0.5618  0.5190
20768SOL    HW168140   4.092   1.142   6.954  0.1442  0.9061  0.2171
20768SOL    HW268141   4.141   1.157   6.811 -1.4783  1.4573 -0.2960
20769SOL     OW68142   4.767   3.599   3.668 -0.2453  0.1518 -0.6173
20769SOL    HW168143   4.802   3.688   3.676 -1.6005  0.7206 -0.8606
20769SOL    HW268144   4.837   3.543   3.703  0.2280  1.3707  0.4653
20770SOL     OW68145   2.914   8.697  10.773  0.4145 -0.1132 -0.3899
20770SOL    HW168146   2.895   8.632  10.841  0.7103 -0.3759 -0.5575
20770SOL    HW268147   2.900   8.651  10.691 -1.4010  0.6223 -0.5368
20771SOL     OW68148   2.764  10.319   0.405 -0.3205  0.6975  0.3496
20771SOL    HW168149   2.825  10.252   0.376 -0.3509  0.6494  0.3970
20771SOL    HW268150   2.782  10.394   0.349 -0.7633  0.4175 -0.1794
20772SOL     OW68151   5.465   7.477   1.623 -0.0422  0.1511 -1.2008
20772SOL    HW168152   5.441   7.428   1.701  1.5472 -0.0500 -0.7971
20772SOL    HW268153   5.387   7.529   1.602 -0.0293  1.4357  1.4547
20773SOL     OW68154  10.191   0.056   1.703  0.3095 -0.4564  0.5676
20773SOL    HW168155  10.221   0.111   1.775 -0.2067  0.2590  0.2539
20773SOL    HW268156  10.230   0.094   1.624 -1.7420  0.8280  0.0832
20774SOL     OW68157   3.826   9.779   4.493  0.0600  0.2543  0.2504
20774SOL    HW168158   3.837   9.691   4.528 -0.5061  0.1327  0.1303
20774SOL    HW268159   3.907   9.796   4.444  1.5776  0.9996  2.8184
20775SOL     OW68160   4.384   7.945   4.825 -0.4183 -0.0858  0.0884
20775SOL    HW168161   4.347   8.033   4.817 -0.5799 -0.2228 -0.7243
20775SOL    HW268162   4.426   7.945   4.911 -1.6040  0.3300  0.6821
20776SOL     OW68163   1.059   1.288   9.289 -0.1010 -0.3805  0.8013
20776SOL    HW168164   0.979   1.339   9.274  0.5546  0.8415  1.2668
20776SOL    HW268165   1.123   1.325   9.228 -0.3960 -2.7257 -1.0531
20777SOL     OW68166   4.258   0.251   4.005 -0.1380  0.1737  0.2450
20777SOL    HW168167   4.310   0.218   3.932  0.7964 -0.0207  0.9929
20777SOL    HW268168   4.284   0.198   4.080 -1.6831 -0.1840  0.5610
20778SOL     OW68169   5.132  10.758   0.412 -0.0721  0.0363 -0.2123
20778SOL    HW168170   5.216  10.799   0.391 -0.5795  0.9519 -0.5272
20778SOL    HW268171   5.112  10.705   0.335 -0.2390  0.6036 -0.5736
20779SOL     OW68172   5.492  10.394   9.744  0.2693  0.0646  0.8997
20779SOL    HW168173   5.436  10.341   9.800 -0.1497 -1.0034 -0.4671
20779SOL    HW268174   5.567  10.338   9.724  1.4762  1.1876  2.0475
20780SOL     OW68175   3.298   7.672   0.643 -0.1170 -0.4350 -0.2381
20780SOL    HW168176   3.361   7.644   0.577  0.1902  1.3131 -0.7491
20780SOL    HW268177   3.322   7.625   0.722  2.1444  0.5061 -0.2900
20781SOL     OW68178   6.017   7.633   4.511 -0.1824  0.3123  0.3332
20781SOL    HW168179   5.933   7.656   4.472 -0.2749  2.1308  1.4970
20781SOL    HW268180   6.077   7.701   4.482  1.4422 -1.9134 -1.9568
20782SOL     OW68181   1.700   6.159   3.120 -0.2497 -0.2281 -0.0999
20782SOL    HW168182   1.778   6.104   3.119  0.2045  0.4165 -0.6153
20782SOL    HW268183   1.727   6.239   3.164 -0.6237 -0.0014 -0.2777
20783SOL     OW68184   9.512   3.138   9.738 -0.2642  0.2745 -0.8353
20783SOL    HW168185   9.545   3.049   9.747  1.8411  1.1782  1.4486
20783SOL    HW268186   9.437   3.142   9.796  1.0661  0.5487  0.9522
20784SOL     OW68187   8.286   9.204  10.741 -0.3188  0.4903 -0.7162
20784SOL    HW168188   8.264   9.112  10.752 -1.4989  0.7416 -0.8132
20784SOL    HW268189   8.311   9.233  10.829  2.2133 -0.4094 -1.0514
20785SOL     OW68190   6.192   7.895   7.859 -0.3915  0.1809  0.4085
20785SOL    HW168191   6.207   7.989   7.862 -2.4563  0.6142 -1.0563
20785SOL    HW268192   6.165   7.872   7.947 -1.0889  1.1952  0.4704
20786SOL     OW68193   3.328   2.383   7.511  0.2929  0.1202 -0.0291
20786SOL    HW168194   3.383   2.461   7.505  1.5367 -0.6728  0.8226
20786SOL    HW268195   3.239   2.418   7.524  0.6319  1.3957 -0.9486
20787SOL     OW68196   0.664   7.871   5.608 -0.2994  0.3520 -0.1010
20787SOL    HW168197   0.760   7.873   5.614 -0.3395 -0.0289  0.8985
20787SOL    HW268198   0.634   7.878   5.699 -1.2239  0.5008 -0.4064
20788SOL     OW68199   1.300   0.970   2.769  0.0857  0.1793  0.1452
20788SOL    HW168200   1.334   0.937   2.686 -1.1651 -0.9829  0.0634
20788SOL    HW268201   1.223   0.917   2.786 -0.6376  1.5061  1.2328
20789SOL     OW68202   4.788   0.100   2.738  0.0209  0.1894  0.2562
20789SOL    HW168203   4.843   0.139   2.806  0.5473 -0.4339  0.2028
20789SOL    HW268204   4.835   0.020   2.712 -0.4414  0.1410 -0.4611
20790SOL     OW68205   8.098   7.827   7.238  0.1169 -0.5876 -0.6405
20790SOL    HW168206   8.158   7.764   7.276  2.1072 -0.9249 -3.9570
20790SOL    HW268207   8.045   7.777   7.176  0.0603  0.5669 -1.5737
20791SOL     OW68208  10.536   0.577   7.399  0.0115  0.2676  0.7050
20791SOL    HW168209  10.443   0.595   7.417 -0.4461 -0.8645 -0.3963
20791SOL    HW268210  10.536   0.490   7.359  1.2578  1.2732 -1.6887
20792SOL     OW68211   4.557   5.337   7.894  0.2114 -0.0688 -0.2496
20792SOL    HW168212   4.625   5.272   7.878  0.0242 -0.4418  0.4092
20792SOL    HW268213   4.481   5.305   7.845  0.1124 -0.3749  0.0907
20793SOL     OW68214   8.981   8.999   8.216 -0.3612  0.1124 -0.1676
20793SOL    HW168215   8.989   9.085   8.174 -0.8942  0.7109  0.9122
20793SOL    HW268216   8.987   9.018   8.309 -0.1696 -1.0745  0.0695
20794SOL     OW68217   7.828   0.643   1.099 -0.3055  0.4061  0.0225
20794SOL    HW168218   7.845   0.727   1.140 -0.6918  0.1259  0.7670
20794SOL    HW268219   7.774   0.595   1.162 -1.0090  0.0074 -0.8530
20795SOL     OW68220   3.659   3.170   3.543 -0.2432 -0.3458 -0.2048
20795SOL    HW168221   3.600   3.178   3.618 -0.5575 -0.3348 -0.4518
20795SOL    HW268222   3.743   3.203   3.575 -0.8484  1.4980 -0.4125
20796SOL     OW68223   0.841   3.308   6.258  0.3115  0.2684  0.3586
20796SOL    HW168224   0.800   3.387   6.296 -1.6291 -0.8951  0.8364
20796SOL    HW268225   0.865   3.334   6.170 -3.3220  0.5888 -0.7198
20797SOL     OW68226   1.505  10.413   5.912  0.6274  0.8789  0.2605
20797SOL    HW168227   1.574  10.470   5.877  0.0615  0.6753 -1.2780
20797SOL    HW268228   1.549  10.358   5.977  1.6373  1.5973  0.2043
20798SOL     OW68229  10.091   0.917  10.919  0.2187 -0.1650  0.0488
20798SOL    HW168230  10.102   1.012  10.921 -0.3604 -0.0946  0.2008
20798SOL    HW268231  10.180   0.882  10.917  0.4334  0.3870 -0.4381
20799SOL     OW68232   4.855   9.626   2.804  0.0341  0.3240 -0.2426
20799SOL    HW168233   4.778   9.595   2.852 -0.8178 -0.0142 -1.7675
20799SOL    HW268234   4.899   9.546   2.776  0.1728  0.5091 -0.5560
20800SOL     OW68235   2.492   3.415   1.436  0.0551 -0.3013  0.2010
20800SOL    HW168236   2.493   3.416   1.531 -0.4533 -0.4269  0.2136
20800SOL    HW268237   2.557   3.351   1.411 -0.7804 -1.2975  0.4992
20801SOL     OW68238  10.446   6.232   0.626  0.0201  0.4627 -0.2372
20801SOL    HW168239  10.370   6.287   0.609 -0.2608 -0.4592 -2.2857
20801SOL    HW268240  10.422   6.146   0.590  0.5599 -0.9731  2.5797
20802SOL     OW68241   9.037   9.116   6.184  0.5249  0.2162 -0.8018
20802SOL    HW168242   9.020   9.081   6.271 -1.1970  0.6821 -0.9138
20802SOL    HW268243   9.005   9.048   6.124  0.4141  0.4882 -1.0530
20803SOL     OW68244   6.484  10.672   9.637  0.2174 -0.5950  0.2760
20803SOL    HW168245   6.436  10.598   9.674  0.6143 -1.0909 -0.1636
20803SOL    HW268246   6.472  10.663   9.542 -0.8907  0.7229  0.2776
20804SOL     OW68247   3.803   3.761   2.177  0.3152 -0.3403  0.5050
20804SOL    HW168248   3.759   3.824   2.234  0.6751 -1.0316  1.5684
20804SOL    HW268249   3.734   3.732   2.117 -0.5025 -0.8428  1.6572
20805SOL     OW68250   2.556  10.885   6.507  0.1102 -0.2673 -0.0529
20805SOL    HW168251   2.592  10.962   6.463  3.1775 -1.6936 -0.3450
20805SOL    HW268252   2.594  10.811   6.459 -1.0493 -1.9305  1.4840
20806SOL     OW68253   9.264   4.977   8.980 -0.0768  0.5488  0.0909
20806SOL    HW168254   9.269   5.062   8.935  0.1733 -0.0125 -0.9847
20806SOL    HW268255   9.251   4.999   9.072 -0.4502  1.7495 -0.2284
20807SOL     OW68256   1.184   2.633   6.784  0.3569 -0.3447 -0.3923
20807SOL    HW168257   1.162   2.682   6.863 -1.0046 -0.6610 -0.5560
20807SOL    HW268258   1.207   2.700   6.720  1.6276 -0.0938  0.2887
20808SOL     OW68259   7.880   4.521   7.368  0.1489  0.5216 -0.3807
20808SOL    HW168260   7.845   4.441   7.329 -1.2855  1.3451 -0.8639
20808SOL    HW268261   7.840   4.592   7.317  1.0760  1.5605  0.2837
20809SOL     OW68262   1.664   7.628   9.606 -0.4795 -0.2179 -0.2979
20809SOL    HW168263   1.605   7.561   9.638  0.4184 -1.9484 -2.0564
20809SOL    HW268264   1.685   7.602   9.516  0.8672  1.7645 -0.6435
20810SOL     OW68265   0.828   5.816   4.080 -0.7509  0.1757  0.4122
20810SOL    HW168266   0.901   5.877   4.071  0.1741 -0.6506  1.7728
20810SOL    HW268267   0.761   5.866   4.127 -0.1329  0.2712  1.2224
20811SOL     OW68268   6.513  10.031   1.498 -0.5083  0.0254  0.2410
20811SOL    HW168269   6.466  10.048   1.579 -0.5163  3.2215 -0.2937
20811SOL    HW268270   6.600  10.068   1.512 -0.0084 -0.7196 -0.7305
20812SOL     OW68271   3.531   6.829   0.283 -0.6728  0.8226  0.4408
20812SOL    HW168272   3.572   6.880   0.213 -0.5314 -0.3698 -0.3627
20812SOL    HW268273   3.471   6.891   0.324 -1.2933  1.3618 -1.1905
20813SOL     OW68274   9.130   7.719   5.226 -0.1711 -0.1266 -0.6967
20813SOL    HW168275   9.045   7.763   5.226  0.0312  0.2990 -1.6276
20813SOL    HW268276   9.165   7.734   5.314 -0.0933  1.6676 -0.9862
20814SOL     OW68277   5.151   7.337   1.510 -0.1922  0.4434 -0.1220
20814SOL    HW168278   5.130   7.430   1.499  0.2597  0.4497 -0.9783
20814SOL    HW268279   5.119   7.296   1.430  1.2335  0.1462 -0.5614
20815SOL     OW68280   8.094   7.561   9.612  0.2248 -0.3328  0.0517
20815SOL    HW168281   8.175   7.560   9.562 -0.3467  2.3757 -1.0776
20815SOL    HW268282   8.025   7.573   9.547 -0.6409  2.0652  1.2985
20816SOL     OW68283   1.682   6.045   6.643 -0.6943  1.0773 -0.4596
20816SOL    HW168284   1.719   5.958   6.660 -1.1157  0.8163 -0.8470
20816SOL    HW268285   1.672   6.084   6.729 -0.2531  0.8440 -0.2977
20817SOL     OW68286   7.305   1.906   1.293 -0.3270 -0.0700 -0.3104
20817SOL    HW168287   7.254   1.983   1.266  0.3362  0.8366  0.9420
20817SOL    HW268288   7.393   1.940   1.311  0.6152 -1.5068 -1.8740
20818SOL     OW68289   0.057   3.679   9.326  0.2009  0.5087  0.4261
20818SOL    HW168290   0.064   3.591   9.289 -0.2473 -0.0835  1.7188
20818SOL    HW268291   0.106   3.734   9.264  1.6784 -0.8531  0.3136
20819SOL     OW68292   2.116   9.651   3.253  0.5845  0.0037 -0.0568
20819SOL    HW168293   2.085   9.738   3.277  2.2936  0.7043 -0.2662
20819SOL    HW268294   2.116   9.651   3.158  0.3467 -0.3226 -0.0576
20820SOL     OW68295   4.151   2.073   2.738 -0.0396  0.1051  0.1950
20820SOL    HW168296   4.057   2.091   2.742 -0.6254 -2.6763  1.1039
20820SOL    HW268297   4.186   2.143   2.683 -3.1493 -0.4736 -2.9286
20821SOL     OW68298   5.988   9.012   2.061  0.0387  0.0609  0.4059
20821SOL    HW168299   6.058   8.990   2.122  0.1955  0.1986  0.2749
20821SOL    HW268300   6.031   9.025   1.977 -0.1571  0.0292  0.2989
20822SOL     OW68301  10.594   6.764   3.333 -0.3823  0.3358  0.6804
20822SOL    HW168302  10.597   6.671   3.358  2.5635 -0.2642 -1.3811
20822SOL    HW268303  10.656   6.807   3.391 -1.4402  1.0025  1.3592
20823SOL     OW68304   5.599   2.883   4.286  0.3659  0.6313  0.0582
20823SOL    HW168305   5.689   2.905   4.261 -0.3545  2.3603 -1.2020
20823SOL    HW268306   5.556   2.967   4.299 -0.9488 -0.1659  1.2457
20824SOL     OW68307   9.971   1.431   1.783  0.1372 -0.7469  0.3695
20824SOL    HW168308   9.937   1.405   1.697  0.9916  0.7718 -0.4676
20824SOL    HW268309   9.897   1.472   1.827 -0.1954 -1.1701  0.2153
20825SOL     OW68310   6.240   9.061  10.016 -0.1006  0.1248  0.2351
20825SOL    HW168311   6.233   9.082  10.109  0.4250 -1.5031  0.6756
20825SOL    HW268312   6.150   9.041   9.989 -0.2851  0.7997  0.3385
20826SOL     OW68313   2.834   7.631   3.371 -0.2113 -0.1098 -0.2396
20826SOL    HW168314   2.755   7.675   3.402 -0.6351 -0.0663 -1.3166
20826SOL    HW268315   2.807   7.589   3.289  0.5918 -1.0656 -0.0341
20827SOL     OW68316   6.470   9.238   9.953 -0.0502  0.7572  0.0217
20827SOL    HW168317   6.401   9.177   9.977  0.1850 -0.6649 -2.4864
20827SOL    HW268318   6.495   9.281  10.034 -1.5236 -1.1645  1.5708
20828SOL     OW68319   6.088   7.182   1.205  0.4722  0.2487 -0.4823
20828SOL    HW168320   6.035   7.105   1.183  0.3046 -0.0468  0.8488
20828SOL    HW268321   6.153   7.188   1.136 -0.0167 -0.6211 -1.0263
20829SOL     OW68322   6.613   0.302   4.815  0.1325 -1.1261  0.2674
20829SOL    HW168323   6.559   0.320   4.738 -0.2168 -0.5809  0.6312
20829SOL    HW268324   6.657   0.219   4.795 -0.2354 -1.1740 -0.3633
20830SOL     OW68325   5.235  10.791   9.507  0.0673 -0.5849 -0.2006
20830SOL    HW168326   5.139  10.788   9.513  0.0863  0.5687  1.2103
20830SOL    HW268327   5.260  10.701   9.483 -1.3541 -0.8861 -0.6964
20831SOL     OW68328   9.022   0.063   5.337  0.5309  0.0372  0.2890
20831SOL    HW168329   8.987  -0.025   5.354 -0.2879  0.4650  0.8680
20831SOL    HW268330   9.062   0.056   5.251 -1.4797 -0.3491 -0.6846
20832SOL     OW68331   5.171   6.671   9.252 -0.2189  0.0788  0.3684
20832SOL    HW168332   5.261   6.661   9.284  0.1611 -0.8129 -0.8924
20832SOL    HW268333   5.144   6.582   9.230 -0.7031  0.5521 -1.0709
20833SOL     OW68334   6.212   3.660   2.915 -0.8215 -0.9205 -0.9103
20833SOL    HW168335   6.143   3.725   2.907 -1.0325 -0.9901  0.1148
20833SOL    HW268336   6.249   3.675   3.002 -1.3598 -2.6123 -0.3432
20834SOL     OW68337   3.135   3.893   2.313  0.1945 -0.3848  0.2579
20834SOL    HW168338   3.081   3.971   2.327  0.1269 -0.4258  0.2259
20834SOL    HW268339   3.205   3.900   2.378  1.9747  1.3052 -1.7065
20835SOL     OW68340   5.083   0.161  10.022  0.0121 -0.5244 -0.2967
20835SOL    HW168341   5.097   0.075   9.981  3.1886 -0.5589  0.5405
20835SOL    HW268342   5.067   0.220   9.949  0.0307 -1.4844 -1.0978
20836SOL     OW68343   0.661   4.580   1.539  0.0421 -0.1034  0.1649
20836SOL    HW168344   0.568   4.580   1.518 -0.0694 -0.8364  0.6463
20836SOL    HW268345   0.665   4.585   1.634  0.4546 -1.2353  0.2317
20837SOL     OW68346   2.813   9.606  10.437  0.4203  0.7152 -0.5229
20837SOL    HW168347   2.828   9.595  10.343 -0.3103  1.0722 -0.6937
20837SOL    HW268348   2.859   9.687  10.460 -0.6973  1.4865 -0.9165
20838SOL     OW68349   5.499   6.953   2.683  0.0041  0.1153 -0.4745
20838SOL    HW168350   5.554   6.994   2.617 -1.0208 -2.2399 -3.0176
20838SOL    HW268351   5.409   6.970   2.653 -0.4667 -2.0292 -0.4635
20839SOL     OW68352   9.899   1.559   2.946  0.3601 -0.3437  0.1547
20839SOL    HW168353   9.937   1.549   3.033  0.6047  1.7814  0.3568
20839SOL    HW268354   9.882   1.653   2.938 -0.8966 -0.6622 -1.5881
20840SOL     OW68355   3.500   7.420   2.775 -0.7541 -0.3754  0.1757
20840SOL    HW168356   3.584   7.459   2.751 -1.5373  0.7456 -0.8830
20840SOL    HW268357   3.523   7.342   2.826  0.9660 -1.1672 -1.6868
20841SOL     OW68358   3.250   7.489   7.292  0.4929  0.0502 -0.6923
20841SOL    HW168359   3.257   7.410   7.237  1.9564 -1.1356  1.0825
20841SOL    HW268360   3.330   7.538   7.273  0.1234  0.5565 -0.9515
20842SOL     OW68361   0.731   5.538   4.063 -0.9102 -0.7145 -0.2370
20842SOL    HW168362   0.730   5.554   4.158  1.1090 -1.0795 -0.1145
20842SOL    HW268363   0.759   5.621   4.025 -2.1585 -0.4314 -0.5778
20843SOL     OW68364   5.767   5.694   6.138 -0.1958  0.1195 -0.6857
20843SOL    HW168365   5.729   5.719   6.222 -0.9868 -0.2500 -0.9238
20843SOL    HW268366   5.728   5.609   6.118  0.5437 -0.1368 -1.0852
20844SOL     OW68367   4.866   5.196   3.119  0.1950  0.1571  0.4030
20844SOL    HW168368   4.917   5.126   3.160 -0.0161  0.0547  0.4907
20844SOL    HW268369   4.876   5.181   3.025 -1.0439 -0.8722  0.4156
20845SOL     OW68370   2.914   3.939   1.827  0.1475  0.7658 -0.0747
20845SOL    HW168371   2.937   4.031   1.836  0.8502  0.5240  0.7090
20845SOL    HW268372   2.926   3.902   1.915 -1.3946  0.2075 -0.0625
20846SOL     OW68373   3.439   7.601   7.634 -0.0383 -0.0771 -0.6274
20846SOL    HW168374   3.357   7.590   7.682 -0.5742 -1.6822 -1.8320
20846SOL    HW268375   3.438   7.531   7.568  2.5802 -0.5516 -0.2804
20847SOL     OW68376   6.336   1.675   2.670  0.4601  0.0814  0.1288
20847SOL    HW168377   6.376   1.761   2.659  0.0898  0.4207  1.3134
20847SOL    HW268378   6.381   1.637   2.746  0.2410 -0.5500 -0.0474
20848SOL     OW68379   3.857   2.839   5.389  0.1974  0.6175  0.6764
20848SOL    HW168380   3.779   2.878   5.428 -0.1757 -0.1410  0.7150
20848SOL    HW268381   3.839   2.839   5.295 -0.6411 -1.1508  0.7940
20849SOL     OW68382   6.822   5.420   0.529 -0.3179 -0.6351  0.0238
20849SOL    HW168383   6.741   5.370   0.520  0.1324 -1.3154 -0.4157
20849SOL    HW268384   6.837   5.426   0.623 -1.2505  0.1190  0.1313
20850SOL     OW68385   8.851   2.777   2.509  0.4019  0.0056  0.2088
20850SOL    HW168386   8.873   2.870   2.519 -0.1819  0.3293 -1.2569
20850SOL    HW268387   8.756   2.774   2.520 -0.1468  0.2162 -3.2632
20851SOL     OW68388   1.322   2.280  10.711  0.1132  0.2669 -0.3471
20851SOL    HW168389   1.380   2.338  10.760 -0.5508  0.5033  0.1798
20851SOL    HW268390   1.247   2.335  10.687 -0.4536 -0.3109  0.0379
20852SOL     OW68391   3.623  10.189   6.162  0.1179  0.2074 -0.4197
20852SOL    HW168392   3.577  10.161   6.083 -0.6960 -0.6162  0.3166
20852SOL    HW268393   3.626  10.111   6.217 -0.2872  1.0233  0.8054
20853SOL     OW68394   6.764   6.656   6.250  0.0385  0.1019  0.4094
20853SOL    HW168395   6.771   6.748   6.273 -1.7073  0.3550  0.0789
20853SOL    HW268396   6.781   6.653   6.156 -0.8938  0.2506  0.2265
20854SOL     OW68397   2.250   7.148   1.428  0.1145 -0.5389  0.0768
20854SOL    HW168398   2.222   7.207   1.498  1.5670 -1.6529  1.6814
20854SOL    HW268399   2.183   7.079   1.428 -1.0595  0.5487 -1.1488
20855SOL     OW68400   6.572   4.877   5.110 -0.0397  0.0955 -0.0391
20855SOL    HW168401   6.504   4.888   5.044  0.3931 -0.1792 -0.5323
20855SOL    HW268402   6.541   4.803   5.163 -0.6822  0.7022  0.4473
20856SOL     OW68403   0.525   2.507   9.344  0.2538 -0.2305  0.0087
20856SOL    HW168404   0.535   2.551   9.259  1.4727  0.2913  0.4052
20856SOL    HW268405   0.430   2.499   9.356  0.0194  1.4894 -0.5009
20857SOL     OW68406   0.454   0.991   6.671 -0.4233 -0.5245  0.6317
20857SOL    HW168407   0.504   1.073   6.680  0.4544 -1.0598  0.7806
20857SOL    HW268408   0.515   0.931   6.628 -0.9642 -1.1921  0.7806
20858SOL     OW68409   0.417   3.151   3.810  0.0785 -0.4845  0.2239
20858SOL    HW168410   0.343   3.181   3.863  2.8295  3.1169  2.5745
20858SOL    HW268411   0.392   3.171   3.720 -2.1252 -0.2438  0.8227
20859SOL     OW68412   6.046   6.365   2.236  0.3684 -0.0067 -0.2769
20859SOL    HW168413   6.098   6.436   2.273  2.5536 -0.9561 -1.3521
20859SOL    HW268414   6.056   6.376   2.141  0.8851 -1.7927 -0.4605
20860SOL     OW68415   3.398   7.169  10.227 -0.5000  0.4844  0.2300
20860SOL    HW168416   3.401   7.089  10.175 -0.0182  0.8020 -0.2472
20860SOL    HW268417   3.347   7.230  10.174  1.2819  1.3095 -0.6252
20861SOL     OW68418   7.526   5.896   2.403 -0.0340 -0.4576 -0.8645
20861SOL    HW168419   7.577   5.946   2.339  1.4415 -2.2307 -1.1695
20861SOL    HW268420   7.435   5.920   2.385  0.5394  1.4281 -1.5373
20862SOL     OW68421   1.280   6.563  10.079 -0.2957  0.4809  0.4147
20862SOL    HW168422   1.236   6.512  10.011  1.4544 -0.1687 -0.3065
20862SOL    HW268423   1.221   6.636  10.097 -1.4429 -0.1101 -0.7791
20863SOL     OW68424   4.184   1.615   6.620  0.3683  0.1259 -0.5801
20863SOL    HW168425   4.194   1.696   6.670  1.8025 -0.5778  0.3575
20863SOL    HW268426   4.249   1.555   6.658 -1.2163 -1.7590 -0.6798
20864SOL     OW68427   4.064   0.196   2.266  0.4104  0.5718  0.2895
20864SOL    HW168428   4.154   0.167   2.253  0.4427  0.1047  1.4066
20864SOL    HW268429   4.060   0.283   2.226  1.6335  1.0025  1.0511
20865SOL     OW68430   3.985   6.188   8.402  0.6455 -0.6416 -0.1163
20865SOL    HW168431   3.905   6.201   8.454  0.7647 -0.1020 -0.0564
20865SOL    HW268432   4.025   6.275   8.398  0.6061 -0.6507 -1.1596
20866SOL     OW68433   6.342  10.356   7.476  0.4208 -0.0251 -0.4671
20866SOL    HW168434   6.357  10.389   7.387  0.8151  0.5426 -0.1930
20866SOL    HW268435   6.280  10.284   7.464 -0.1430  0.5558 -1.1145
20867SOL     OW68436   7.438   6.795   0.692 -0.1432  0.2313  0.3140
20867SOL    HW168437   7.440   6.859   0.621  1.1084 -1.3616 -1.1923
20867SOL    HW268438   7.493   6.723   0.660 -0.8239 -1.2343  2.2660
20868SOL     OW68439   7.123   5.558   4.568  0.3398  0.0045  0.3812
20868SOL    HW168440   7.081   5.623   4.511 -0.9935  0.1511  1.5027
20868SOL    HW268441   7.150   5.488   4.508 -2.2179 -0.4733 -0.3355
20869SOL     OW68442   3.119   6.170   2.748 -0.0325 -0.4983 -0.5601
20869SOL    HW168443   3.114   6.147   2.841 -1.7131 -1.7300 -0.9099
20869SOL    HW268444   3.180   6.244   2.745  0.4443 -0.7487  1.4467
20870SOL     OW68445   3.195   7.703   3.145 -0.4152  0.4435  0.0653
20870SOL    HW168446   3.225   7.667   3.228 -0.2808 -0.7506 -0.4763
20870SOL    HW268447   3.184   7.626   3.088 -0.6119  1.2228 -0.9815
20871SOL     OW68448   7.887   3.428   5.131  0.2977  0.0663 -0.2765
20871SOL    HW168449   7.840   3.497   5.178  0.6311  0.1659 -0.0897
20871SOL    HW268450   7.969   3.417   5.179 -0.7488 -2.1349  1.1652
20872SOL     OW68451   2.922   9.851   7.858  0.0004  0.1303 -0.0216
20872SOL    HW168452   2.936   9.877   7.767 -1.8140  0.8778 -0.1383
20872SOL    HW268453   2.834   9.884   7.879 -1.0804 -2.9981  0.9135
20873SOL     OW68454   6.034   6.317   3.926  0.5271 -0.4080  0.3569
20873SOL    HW168455   5.982   6.291   3.850 -0.2183 -1.5259  1.2084
20873SOL    HW268456   6.033   6.240   3.983 -0.8199  1.0779  2.5087
20874SOL     OW68457   3.830   2.059   0.529 -0.1811 -0.6257  0.1608
20874SOL    HW168458   3.768   2.080   0.460 -0.7657  0.6392  1.0464
20874SOL    HW268459   3.887   1.993   0.490 -1.4341 -1.0672 -1.0118
20875SOL     OW68460   1.057   3.708   3.555  0.1397  0.3869  0.3144
20875SOL    HW168461   1.013   3.742   3.633 -0.8575 -0.5672  0.2014
20875SOL    HW268462   1.136   3.665   3.588  0.0723  0.5698  0.7193
20876SOL     OW68463   9.624   6.875   2.858  0.6834  0.4887  0.6306
20876SOL    HW168464   9.662   6.939   2.797 -0.4545  2.2233  1.6349
20876SOL    HW268465   9.552   6.836   2.809  0.6742  0.8229  0.3697
20877SOL     OW68466   9.632   5.639   2.472 -0.5344  0.2729 -0.2247
20877SOL    HW168467   9.661   5.661   2.384 -1.2093 -0.0719 -0.5362
20877SOL    HW268468   9.635   5.722   2.520 -1.3375  0.6987 -0.9015
20878SOL     OW68469   3.466   0.211   3.862 -0.5769 -0.4211  0.3087
20878SOL    HW168470   3.379   0.248   3.878  0.0822  0.9918  0.7864
20878SOL    HW268471   3.519   0.285   3.834  0.8517 -0.9423  1.4872
20879SOL     OW68472   9.541   7.859   8.989  0.6873  0.6308 -0.6065
20879SOL    HW168473   9.612   7.913   9.023  2.1970 -0.3963 -1.9811
20879SOL    HW268474   9.511   7.904   8.911  0.2718  0.7237 -0.3948
20880SOL     OW68475   4.639   4.651   3.717  0.0372  0.7643  0.5984
20880SOL    HW168476   4.698   4.650   3.793 -0.0933  1.1587  0.7050
20880SOL    HW268477   4.695   4.679   3.644  0.3351 -0.3003  0.3993
20881SOL     OW68478   7.764   5.451   7.109  0.3428 -0.0976 -0.7143
20881SOL    HW168479   7.786   5.497   7.191 -0.1424  0.8026 -1.0796
20881SOL    HW268480   7.841   5.397   7.091  0.3100 -0.5960  0.5330
20882SOL     OW68481   9.701  10.017   0.074 -0.1049 -0.3002  0.3080
20882SOL    HW168482   9.664  10.105   0.077 -0.7347 -0.5355 -0.2770
20882SOL    HW268483   9.788  10.029   0.036  0.0795  0.1485  0.8600
20883SOL     OW68484   1.256   3.070   2.892 -0.5278 -0.1447 -0.1970
20883SOL    HW168485   1.206   3.151   2.879 -0.2502 -0.0826 -0.9096
20883SOL    HW268486   1.298   3.082   2.977 -0.5134  0.4474 -0.2798
20884SOL     OW68487   8.124   2.383   6.771 -0.1873 -0.1387  0.2928
20884SOL    HW168488   8.072   2.350   6.698  0.1357 -1.5851  0.6922
20884SOL    HW268489   8.215   2.370   6.745 -0.0286  0.9483  0.2495
20885SOL     OW68490   9.237   5.891   3.349 -0.3960 -0.4208  0.2576
20885SOL    HW168491   9.215   5.869   3.440  0.0843  0.8712  0.7076
20885SOL    HW268492   9.276   5.978   3.354  1.5058 -1.1368 -0.9467
20886SOL     OW68493   7.586   5.696   0.963  0.1853 -0.4089 -0.4061
20886SOL    HW168494   7.623   5.719   1.048 -0.1464  0.5459 -0.5085
20886SOL    HW268495   7.492   5.710   0.972  0.1390 -0.3701 -0.9097
20887SOL     OW68496   0.648   4.837   4.324 -0.4810 -0.0049  0.1751
20887SOL    HW168497   0.603   4.911   4.284 -0.9292 -1.2571 -1.7240
20887SOL    HW268498   0.717   4.877   4.377 -0.2008  1.7604 -1.4285
20888SOL     OW68499   6.406   2.858   7.566 -0.6170  0.3241 -0.2324
20888SOL    HW168500   6.386   2.928   7.628 -0.5606  1.2202 -1.1917
20888SOL    HW268501   6.492   2.881   7.531 -0.3534 -0.5318 -0.1541
20889SOL     OW68502   5.592   4.228   1.026  0.2252 -0.3624 -0.4190
20889SOL    HW168503   5.620   4.153   1.078 -1.1187 -2.4406 -2.5102
20889SOL    HW268504   5.673   4.268   0.995  0.9759 -0.4969  1.2411
20890SOL     OW68505   5.365   4.799   4.854  0.0397  0.0629 -0.5534
20890SOL    HW168506   5.292   4.779   4.912  0.3539  1.6938  0.4721
20890SOL    HW268507   5.325   4.841   4.777 -0.1105  1.2924  0.1695
20891SOL     OW68508   7.328   8.618   1.090  0.5730  0.0537  0.5263
20891SOL    HW168509   7.333   8.593   1.182 -2.1886 -0.0355  0.7527
20891SOL    HW268510   7.275   8.550   1.049 -1.5585  2.0038 -0.2290
20892SOL     OW68511   4.304   0.714   9.597  0.2696 -0.3463 -0.3040
20892SOL    HW168512   4.388   0.669   9.603  1.1212  1.2042  0.0783
20892SOL    HW268513   4.315   0.777   9.526 -0.6028 -0.1630 -0.2970
20893SOL     OW68514  10.640   1.735   8.875 -0.3092 -0.6849  0.3960
20893SOL    HW168515  10.705   1.715   8.808 -1.0042  0.1909 -0.5814
20893SOL    HW268516  10.656   1.671   8.944  0.6197 -1.4343 -0.4786
20894SOL     OW68517   8.629   3.875   5.651 -0.2532  0.1021  0.1650
20894SOL    HW168518   8.646   3.831   5.568  0.0336  0.3146  0.1134
20894SOL    HW268519   8.567   3.945   5.629  0.0508  0.3442  0.0810
20895SOL     OW68520   9.811   2.564   8.748  0.0748 -0.2176 -0.0831
20895SOL    HW168521   9.783   2.639   8.696 -0.0853  0.4167  0.9001
20895SOL    HW268522   9.888   2.595   8.796 -1.2319  0.0337  1.9648
20896SOL     OW68523   9.057   0.399   5.200  0.5773  0.4453  0.1795
20896SOL    HW168524   9.034   0.483   5.161 -1.5007 -0.0060  0.3436
20896SOL    HW268525   9.040   0.410   5.293  1.5933  0.2374  0.4035
20897SOL     OW68526   1.615   1.178   5.526  0.3564 -0.1393  0.1635
20897SOL    HW168527   1.539   1.150   5.578 -0.4912  1.4972 -0.1273
20897SOL    HW268528   1.678   1.209   5.591 -0.8647  2.2964  0.2796
20898SOL     OW68529   3.864  10.409   1.139  0.1911 -0.2036 -0.9278
20898SOL    HW168530   3.799  10.456   1.191  1.0365  0.4828 -0.4574
20898SOL    HW268531   3.815  10.373   1.065 -0.8777 -0.4747 -0.1056
20899SOL     OW68532   0.667   0.352   6.050 -0.4917  0.0105 -0.0144
20899SOL    HW168533   0.637   0.262   6.060 -1.5412  0.4164  0.6942
20899SOL    HW268534   0.592   0.398   6.012  0.2477  0.4709 -0.9779
20900SOL     OW68535   9.512   0.603   0.054 -0.1919 -0.0029  0.1208
20900SOL    HW168536   9.438   0.550   0.024 -1.1135  1.0052  0.5831
20900SOL    HW268537   9.477   0.656   0.125  1.2567 -0.3137  1.1191
20901SOL     OW68538   9.876   3.268   9.611  0.2248  0.5799  0.2814
20901SOL    HW168539   9.953   3.326   9.607  0.4009  0.2920 -1.4054
20901SOL    HW268540   9.802   3.328   9.607  0.4072  0.7383 -1.3367
20902SOL     OW68541   8.297   9.531   8.807 -0.1974  0.1352  0.3065
20902SOL    HW168542   8.346   9.560   8.730  2.2092 -0.1447  1.6112
20902SOL    HW268543   8.304   9.603   8.869 -0.5007 -0.3401  0.9078
20903SOL     OW68544   2.195   8.500   0.604 -0.1755  0.6567 -0.5776
20903SOL    HW168545   2.284   8.535   0.607  0.2057 -0.2204 -1.2126
20903SOL    HW268546   2.146   8.553   0.667  0.6339  1.5885 -0.7093
20904SOL     OW68547   0.018   3.717   5.762 -0.0800  0.2260  0.7403
20904SOL    HW168548   0.017   3.694   5.855  2.2094 -0.0708  0.7520
20904SOL    HW268549   0.068   3.798   5.758 -0.2286  0.2776 -0.2419
20905SOL     OW68550   4.969   1.057   6.490  0.5109 -0.0563 -0.4619
20905SOL    HW168551   4.930   1.112   6.422  0.4963  0.2789 -0.1893
20905SOL    HW268552   5.063   1.077   6.485  0.3682  0.9987  0.4971
20906SOL     OW68553   3.378   3.601   8.638 -0.0809 -0.0251  0.6851
20906SOL    HW168554   3.461   3.589   8.684  0.5952  0.4228 -0.3617
20906SOL    HW268555   3.311   3.599   8.706  0.9920  2.3287  1.8998
20907SOL     OW68556   1.991  10.705   8.202 -0.4492  0.0807  0.2002
20907SOL    HW168557   1.929  10.637   8.175 -0.7476  1.0623 -1.7845
20907SOL    HW268558   2.050  10.661   8.263 -0.6617 -1.9548 -0.9757
20908SOL     OW68559   3.322   9.227   7.236  0.6425 -0.4968  0.5225
20908SOL    HW168560   3.329   9.302   7.176  4.1710 -1.2198 -0.1654
20908SOL    HW268561   3.262   9.257   7.304  0.4076  2.2264 -0.7364
20909SOL     OW68562   2.120   4.382   8.721 -0.6306  0.0242 -0.5496
20909SOL    HW168563   2.057   4.411   8.788 -0.5422  1.5782 -1.0887
20909SOL    HW268564   2.071   4.321   8.666 -0.7592 -1.1374  0.7895
20910SOL     OW68565  10.701   2.425  10.200  0.0969  0.2636 -0.7736
20910SOL    HW168566  10.613   2.443  10.233  0.9888  0.6279  1.5938
20910SOL    HW268567  10.721   2.337  10.232  1.6643  1.3098  1.3919
20911SOL     OW68568  10.629   5.539   0.701 -0.1715  0.1698 -0.8481
20911SOL    HW168569  10.703   5.480   0.685 -1.6872 -1.2627 -3.0603
20911SOL    HW268570  10.601   5.518   0.791  2.2666  1.0401  0.2045
20912SOL     OW68571   5.870   9.913   8.202 -0.1239 -0.0483  0.1481
20912SOL    HW168572   5.954   9.870   8.215  0.4093  0.7316 -0.5877
20912SOL    HW268573   5.875   9.992   8.256  0.0107  0.4854 -0.6248
20913SOL     OW68574   5.113   2.472   3.231  0.1715  0.1494 -0.3951
20913SOL    HW168575   5.081   2.506   3.148  1.0058 -1.0766 -1.2578
20913SOL    HW268576   5.206   2.452   3.215  0.3850  0.0282  0.8717
20914SOL     OW68577   8.719   5.197   5.553 -0.3244  0.0747 -0.3232
20914SOL    HW168578   8.780   5.127   5.575  0.2297  0.1150 -1.6249
20914SOL    HW268579   8.651   5.154   5.501 -2.3248 -0.2768  2.3908
20915SOL     OW68580   5.105   5.517   5.476  0.3441  0.3845 -0.2572
20915SOL    HW168581   5.125   5.610   5.485  0.0170  0.4398 -0.0830
20915SOL    HW268582   5.186   5.472   5.503 -0.1685  0.5731  1.7279
20916SOL     OW68583   8.503   6.715   3.024 -0.0920  0.2136 -0.3140
20916SOL    HW168584   8.520   6.621   3.011  0.9165  0.2866  0.4269
20916SOL    HW268585   8.495   6.725   3.119  0.6520  1.0195 -0.3312
20917SOL     OW68586   3.188   4.573   6.279 -0.7514 -0.5897  0.1628
20917SOL    HW168587   3.097   4.602   6.272 -0.5586 -0.2819 -1.6626
20917SOL    HW268588   3.228   4.634   6.342 -1.8099 -0.8031  1.0779
20918SOL     OW68589   3.482  10.256  10.261  0.2832 -0.3756  0.2686
20918SOL    HW168590   3.462  10.165  10.283  0.7986 -0.2858  1.1459
20918SOL    HW268591   3.549  10.251  10.193  1.4497 -0.6584  1.4111
20919SOL     OW68592   2.098   8.263   2.791 -0.2531  0.3726 -0.0811
20919SOL    HW168593   2.165   8.289   2.728 -0.2913 -0.9021 -0.6737
20919SOL    HW268594   2.146   8.242   2.871 -0.1563  1.4836  0.1671
20920SOL     OW68595   6.973   5.604   0.403  0.0925  0.2014 -0.5749
20920SOL    HW168596   6.956   5.679   0.460  2.5393  0.1363  0.3420
20920SOL    HW268597   6.920   5.533   0.441 -0.5773  0.8960 -0.1696
20921SOL     OW68598   5.066   8.647   4.768 -0.2242 -0.3328 -0.2839
20921SOL    HW168599   5.085   8.740   4.772 -0.6103 -0.2940  1.3734
20921SOL    HW268600   5.116   8.615   4.693 -1.2006  1.4307 -1.7451
20922SOL     OW68601   7.137   6.699   0.116 -0.3109 -0.1443 -0.2849
20922SOL    HW168602   7.084   6.715   0.194 -1.1924 -0.2272 -0.8479
20922SOL    HW268603   7.109   6.613   0.086  0.6866 -0.5092 -0.1820
20923SOL     OW68604   8.127   1.234   5.673 -0.5351  0.8732  0.4686
20923SOL    HW168605   8.157   1.271   5.756  1.3937 -0.3536  0.3691
20923SOL    HW268606   8.202   1.243   5.614 -0.6597 -1.3805 -0.1041
20924SOL     OW68607   5.204   3.527   5.125  0.7114 -0.1530 -0.0198
20924SOL    HW168608   5.255   3.600   5.091  0.6173 -0.6912 -1.3557
20924SOL    HW268609   5.197   3.465   5.052 -4.0056  0.9861 -0.9193
20925SOL     OW68610  10.711   0.499   5.867 -0.4424  0.1149  0.1298
20925SOL    HW168611  10.618   0.480   5.871 -0.1966 -1.0609  2.9658
20925SOL    HW268612  10.749   0.423   5.822 -0.7022 -0.3018  0.5947
20926SOL     OW68613   8.137   4.446  10.454  0.5558 -0.4539 -0.1477
20926SOL    HW168614   8.113   4.529  10.413 -1.7698 -0.4338  1.0484
20926SOL    HW268615   8.114   4.379  10.389  0.9830 -0.2376 -0.5235
20927SOL     OW68616   4.675  10.154   0.671  0.2036 -0.5952  0.0026
20927SOL    HW168617   4.616  10.229   0.677  1.4265  0.4027 -0.0156
20927SOL    HW268618   4.749  10.186   0.618  1.1270 -1.5530  0.6726
20928SOL     OW68619   0.325  10.532   5.031 -0.2491 -0.3562  0.3058
20928SOL    HW168620   0.363  10.611   4.994  2.4672 -1.1932  1.0893
20928SOL    HW268621   0.265  10.500   4.963  0.9196  0.7188 -1.3114
20929SOL     OW68622   6.989   3.558   8.171 -0.3027 -0.0978  0.2123
20929SOL    HW168623   6.938   3.486   8.207  1.0918 -1.3752 -0.2591
20929SOL    HW268624   6.978   3.551   8.076 -0.9787  0.9693  0.1911
20930SOL     OW68625   4.432   4.332   3.697  0.7827 -0.0239  0.1131
20930SOL    HW168626   4.397   4.384   3.769  1.8171  0.7517  0.0801
20930SOL    HW268627   4.388   4.247   3.705  0.1618  0.3667  1.0537
20931SOL     OW68628   5.956   7.512   9.497  0.2095  0.1982 -0.4958
20931SOL    HW168629   6.047   7.512   9.468  0.6018  0.5252  0.6975
20931SOL    HW268630   5.944   7.595   9.542  0.1863 -0.9985  1.8821
20932SOL     OW68631  10.568   1.572   7.927 -0.1986 -0.5023  0.0965
20932SOL    HW168632  10.484   1.554   7.885 -1.2318 -1.1427  2.2906
20932SOL    HW268633  10.596   1.486   7.961  1.9263 -0.5272 -1.5257
20933SOL     OW68634   8.415   6.876  10.394  0.5746  0.4246  0.0509
20933SOL    HW168635   8.372   6.940  10.451 -0.6764 -1.2373  1.0737
20933SOL    HW268636   8.378   6.892  10.307  0.0589  0.9026  0.3511
20934SOL     OW68637   2.014   8.572   4.755  0.5100 -0.3054 -0.6054
20934SOL    HW168638   2.024   8.528   4.839  1.4201  1.4036  0.2213
20934SOL    HW268639   2.100   8.608   4.736  0.4076 -0.9185 -2.4509
20935SOL     OW68640   4.795   4.448   4.896 -0.4481 -0.0375  0.0693
20935SOL    HW168641   4.719   4.502   4.877 -1.2740 -1.5818 -1.2945
20935SOL    HW268642   4.839   4.492   4.969 -1.1609  2.3178 -0.8411
20936SOL     OW68643   2.898  10.858   9.176  0.4375  0.1720 -0.3348
20936SOL    HW168644   2.842  10.804   9.233  1.4254  1.2050  1.7185
20936SOL    HW268645   2.844  10.934   9.155  0.2531  0.0432 -0.3283
20937SOL     OW68646   5.566   2.069   2.079  0.6105  0.0951  0.0492
20937SOL    HW168647   5.519   1.992   2.046  0.8596  0.4680 -1.2615
20937SOL    HW268648   5.554   2.134   2.010  0.8187  1.0761  0.9189
20938SOL     OW68649   4.420   4.771  10.674  0.3696  0.2325 -0.0853
20938SOL    HW168650   4.397   4.844  10.616  0.6796 -0.4698 -1.1190
20938SOL    HW268651   4.406   4.693  10.621  2.3656 -0.3468  0.1605
20939SOL     OW68652   7.456   6.257   0.050  0.1403 -0.0025 -0.0897
20939SOL    HW168653   7.388   6.200   0.086  0.0734  0.6706  0.8955
20939SOL    HW268654   7.523   6.196   0.017 -0.9861 -0.6667 -1.1969
20940SOL     OW68655   7.189   1.335   9.821  0.1868  0.2262  0.3004
20940SOL    HW168656   7.180   1.427   9.846  0.5961  0.6159 -0.8815
20940SOL    HW268657   7.151   1.331   9.733  0.0827 -0.7632  0.3787
20941SOL     OW68658   6.107   1.370   5.756 -0.0151  0.3493  0.6879
20941SOL    HW168659   6.114   1.323   5.839 -0.3788  1.5756  1.4392
20941SOL    HW268660   6.034   1.430   5.768 -0.2186  0.4078 -0.6092
20942SOL     OW68661   3.391   7.901   9.360 -1.0297  0.3988 -0.0577
20942SOL    HW168662   3.429   7.857   9.283 -1.5370 -0.2477  0.0489
20942SOL    HW268663   3.463   7.952   9.396 -0.4377 -0.2897 -0.2351
20943SOL     OW68664   1.829   2.897   3.086  0.0280  0.2430  0.4588
20943SOL    HW168665   1.922   2.913   3.094  0.3754 -1.3262 -0.0184
20943SOL    HW268666   1.820   2.852   3.002 -0.8883 -1.3127  1.3440
20944SOL     OW68667   0.781   2.991   1.018 -0.3365  0.2621  0.7059
20944SOL    HW168668   0.797   3.086   1.018 -2.1349  0.5906  0.7617
20944SOL    HW268669   0.756   2.971   0.928  0.7443 -0.3100  0.5198
20945SOL     OW68670  10.583   8.972   4.646  0.4185 -0.1793 -0.0582
20945SOL    HW168671  10.653   8.910   4.666  1.0807  1.3510  2.9421
20945SOL    HW268672  10.629   9.054   4.627 -0.5149 -0.0386 -1.9599
20946SOL     OW68673   3.871   8.476   0.578 -0.1035  0.0120 -0.1567
20946SOL    HW168674   3.931   8.548   0.598 -1.2171  0.7447  0.6160
20946SOL    HW268675   3.792   8.518   0.545 -0.7074 -0.8557  0.1413
20947SOL     OW68676   3.318  10.440  10.366 -0.4161 -0.1770 -0.2248
20947SOL    HW168677   3.297  10.394  10.448 -0.0611  1.1781  0.6693
20947SOL    HW268678   3.382  10.383  10.323 -1.6953 -1.6186 -0.2847
20948SOL     OW68679   4.052   6.722   9.028  0.0189  0.3236 -0.2954
20948SOL    HW168680   4.033   6.815   9.038  0.5782  0.4263 -0.1902
20948SOL    HW268681   3.995   6.693   8.957  0.5059  0.9407 -0.9481
20949SOL     OW68682   3.213   0.117   5.015  0.4011  0.1107  0.1888
20949SOL    HW168683   3.143   0.110   5.080  0.7079 -2.2777  0.3501
20949SOL    HW268684   3.174   0.168   4.943 -0.4120  1.5611  1.5889
20950SOL     OW68685   2.121   3.674   1.505 -0.2662 -0.0131 -0.2494
20950SOL    HW168686   2.091   3.718   1.426  0.7252  0.0363 -0.6143
20950SOL    HW268687   2.076   3.719   1.576 -1.2056 -0.0900 -0.7832
20951SOL     OW68688   5.254  10.512   9.471  0.0300  0.4217  0.8786
20951SOL    HW168689   5.220  10.426   9.494  0.6528  0.0883  0.5572
20951SOL    HW268690   5.305  10.498   9.391  0.8216  0.9403  1.2826
20952SOL     OW68691   2.400   2.414   4.815  0.4392 -0.4031  0.2313
20952SOL    HW168692   2.369   2.344   4.873  1.4371 -0.5721  0.5760
20952SOL    HW268693   2.448   2.473   4.873 -0.8911  0.9039  0.0541
20953SOL     OW68694   2.960   4.986   7.364 -0.1419 -0.3773  0.2919
20953SOL    HW168695   2.966   4.901   7.320  0.6602 -0.2853  0.1997
20953SOL    HW268696   3.030   4.984   7.429 -0.0496  0.2577  0.2163
20954SOL     OW68697   5.224   6.723   1.348  0.2193 -0.2170 -0.0445
20954SOL    HW168698   5.318   6.742   1.350 -0.2208  2.2686  1.2544
20954SOL    HW268699   5.183   6.807   1.331 -1.8364 -0.9609  0.9233
20955SOL     OW68700   5.643   0.322   2.068 -0.1065  0.2929  0.3125
20955SOL    HW168701   5.579   0.358   2.131 -1.6571  0.3149 -1.1949
20955SOL    HW268702   5.646   0.388   1.999 -0.2704 -0.8221 -0.7748
20956SOL     OW68703   0.963   1.731   1.181 -0.6036 -0.3646  0.3821
20956SOL    HW168704   1.038   1.697   1.132 -2.4203 -1.3551 -1.9686
20956SOL    HW268705   0.969   1.690   1.267  1.0572 -1.1165 -0.0604
20957SOL     OW68706   6.143   7.050   6.159  0.3573 -0.0776  0.2101
20957SOL    HW168707   6.096   6.980   6.206 -0.6115  1.1195  1.0972
20957SOL    HW268708   6.074   7.108   6.127  1.1556  0.6378 -0.2459
20958SOL     OW68709   3.252   0.514   4.983 -0.0600  0.3255 -0.7003
20958SOL    HW168710   3.290   0.458   5.051  3.0127  3.4147  0.4185
20958SOL    HW268711   3.158   0.517   5.004  0.3364 -1.0454  1.6856
20959SOL     OW68712   2.676   9.439   9.353 -0.4250 -0.3776  0.2472
20959SOL    HW168713   2.751   9.489   9.320  0.0998 -1.8660 -0.9794
20959SOL    HW268714   2.714   9.354   9.376 -1.6484 -0.9875  0.0725
20960SOL     OW68715   9.114   1.972   6.679  0.1785  0.3065  0.3890
20960SOL    HW168716   9.188   2.032   6.688 -0.4120  1.1680 -0.2029
20960SOL    HW268717   9.073   1.971   6.765  0.6025  0.2030  0.5883
20961SOL     OW68718   3.613   6.136   8.317  0.1405 -0.2392  0.1907
20961SOL    HW168719   3.588   6.203   8.381  2.2323 -0.1473  0.9892
20961SOL    HW268720   3.542   6.073   8.319  0.1328 -0.2377  2.6364
20962SOL     OW68721   0.286   2.417   8.387 -0.1946  0.3333  0.1234
20962SOL    HW168722   0.307   2.335   8.431 -4.8184 -1.1788  0.0345
20962SOL    HW268723   0.330   2.411   8.302 -1.1401 -2.5743 -0.2502
20963SOL     OW68724   5.050  10.082   4.421  0.3165 -0.1106 -0.6003
20963SOL    HW168725   5.145  10.094   4.429  0.1648 -0.2907  2.3926
20963SOL    HW268726   5.039  10.043   4.334  2.9869 -0.2239 -0.9846
20964SOL     OW68727   4.269   6.017   4.808 -0.1875  0.4961 -0.0346
20964SOL    HW168728   4.270   5.934   4.760 -0.3760  1.2121 -1.3443
20964SOL    HW268729   4.353   6.020   4.853  0.0389 -0.1815 -0.4017
20965SOL     OW68730   1.210   5.457   7.439 -0.2742 -0.5091  0.2573
20965SOL    HW168731   1.243   5.480   7.526 -1.0533 -2.7591  1.2267
20965SOL    HW268732   1.242   5.368   7.424  0.3063  0.0242 -2.0423
20966SOL     OW68733   2.440   0.576   5.781  0.1668 -0.4067 -0.3301
20966SOL    HW168734   2.485   0.590   5.698 -0.6240 -0.8664 -0.8461
20966SOL    HW268735   2.424   0.481   5.783 -0.4317 -0.3009  0.0243
20967SOL     OW68736   3.755   2.037   1.609 -0.3958 -1.0475 -0.1410
20967SOL    HW168737   3.725   1.964   1.663  0.6196 -1.4811 -0.1509
20967SOL    HW268738   3.848   2.045   1.629 -0.2346 -0.5409 -1.0566
20968SOL     OW68739   9.743   6.992  10.058 -0.0613 -0.9425 -0.6174
20968SOL    HW168740   9.810   6.954  10.001  0.2840 -0.5090 -0.5089
20968SOL    HW268741   9.793   7.029  10.131 -0.3679 -0.1085 -0.8197
20969SOL     OW68742   2.938   4.151   0.351 -0.6385  0.7598  0.0916
20969SOL    HW168743   3.004   4.202   0.398 -0.6048  2.8854 -2.0313
20969SOL    HW268744   2.855   4.195   0.371 -1.0707 -0.2930  0.6766
20970SOL     OW68745   9.334   5.617   1.674  0.5351  0.1546  0.0239
20970SOL    HW168746   9.274   5.543   1.666  1.3395 -0.4488 -0.5421
20970SOL    HW268747   9.376   5.623   1.588  1.0700  0.7631  0.3187
20971SOL     OW68748   5.880   5.549   6.705 -0.2783 -0.0590  0.8363
20971SOL    HW168749   5.876   5.459   6.737 -0.3796 -0.0887  0.7396
20971SOL    HW268750   5.814   5.595   6.757  0.3882  0.1539  1.5114
20972SOL     OW68751   5.176   5.437   8.863 -0.0526 -0.4017 -0.0130
20972SOL    HW168752   5.241   5.371   8.839 -1.4505 -1.8657  0.0637
20972SOL    HW268753   5.205   5.470   8.948 -0.1781 -2.1079  0.7158
20973SOL     OW68754   5.737   6.035   0.390 -0.0155 -0.2938 -0.0747
20973SOL    HW168755   5.688   6.111   0.358 -1.8872 -2.3218 -2.4373
20973SOL    HW268756   5.771   6.063   0.475 -1.6978  2.7120 -0.2300
20974SOL     OW68757   3.685   0.190  10.211 -0.0249  0.2291 -0.8326
20974SOL    HW168758   3.674   0.283  10.230 -0.5195 -0.0912  0.5624
20974SOL    HW268759   3.603   0.165  10.169 -1.1970 -0.1896  1.5079
20975SOL     OW68760   2.702  10.714   7.873 -0.8447 -0.1946  0.1497
20975SOL    HW168761   2.693  10.652   7.946 -0.7217  0.1916  0.4933
20975SOL    HW268762   2.787  10.756   7.887 -0.0101 -1.3298 -1.1585
20976SOL     OW68763   4.862  10.792   3.472  0.4031  0.0885 -0.0127
20976SOL    HW168764   4.856  10.868   3.529  1.5067  0.8020 -0.8081
20976SOL    HW268765   4.805  10.726   3.513 -1.9401  1.8831 -0.2024
20977SOL     OW68766   9.031   7.484   8.576 -0.3760  0.0041  0.1245
20977SOL    HW168767   9.056   7.466   8.667  0.9009  0.8085 -0.0334
20977SOL    HW268768   8.967   7.555   8.582  1.2631  1.5233  0.3363
20978SOL     OW68769  10.804   0.906  10.118  0.3156  0.4018  1.0589
20978SOL    HW168770  10.788   0.836  10.054 -1.1028  1.4432  0.2168
20978SOL    HW268771  10.782   0.987  10.071  0.7154  1.3272  2.4072
20979SOL     OW68772   3.040   4.229   8.789  0.4261 -0.5394 -0.5552
20979SOL    HW168773   3.014   4.142   8.760  0.4092 -1.2127  1.3681
20979SOL    HW268774   3.064   4.218   8.881  0.8481  1.4079 -0.3856
20980SOL     OW68775   3.423   5.997   2.699 -0.2173  0.6614  0.1338
20980SOL    HW168776   3.369   6.028   2.772 -0.2048  1.1353 -0.0589
20980SOL    HW268777   3.480   5.931   2.739 -0.5467  0.5639  0.4540
20981SOL     OW68778   0.663  10.615   3.441 -0.4129 -0.1151 -0.5060
20981SOL    HW168779   0.706  10.701   3.437  1.5892 -1.0877 -0.7779
20981SOL    HW268780   0.609  10.620   3.520 -1.2361  1.7651 -1.1154
20982SOL     OW68781   4.572   3.686  10.268  0.3687 -0.1053  0.0854
20982SOL    HW168782   4.505   3.698  10.335  0.1620  0.3147 -0.1942
20982SOL    HW268783   4.641   3.637  10.312  1.1979  1.9784  1.2716
20983SOL     OW68784   6.617   9.854   5.043  0.5001  0.0903 -0.1976
20983SOL    HW168785   6.706   9.891   5.042  0.0375  1.3499  1.1333
20983SOL    HW268786   6.630   9.759   5.050  1.7206  0.1324 -1.4473
20984SOL     OW68787   2.601   9.409   5.573  0.0153  0.3057 -0.1120
20984SOL    HW168788   2.589   9.496   5.534 -0.2924  1.9006  3.1965
20984SOL    HW268789   2.536   9.405   5.643  2.5264 -0.9397  2.3503
20985SOL     OW68790   7.624   4.967   3.968  0.5999  0.1072 -0.1708
20985SOL    HW168791   7.690   5.026   4.004  0.1043 -0.0338  1.0359
20985SOL    HW268792   7.570   4.943   4.043  0.0542 -0.9307 -0.8621
20986SOL     OW68793  10.771   5.609   2.962 -0.3756 -0.1884 -0.5523
20986SOL    HW168794  10.732   5.529   2.925 -0.2697 -0.6385  0.2906
20986SOL    HW268795  10.830   5.577   3.030 -1.2692  0.6627  0.6517
20987SOL     OW68796   7.527   4.802   2.108  0.2949  0.3691  0.1922
20987SOL    HW168797   7.623   4.805   2.117  0.4849 -1.4603 -0.6812
20987SOL    HW268798   7.498   4.760   2.189  0.5391 -1.6020 -0.6759
20988SOL     OW68799   7.325   4.894   3.065 -0.3446  0.0528 -0.3887
20988SOL    HW168800   7.337   4.986   3.042  1.8213 -0.7508 -2.8900
20988SOL    HW268801   7.231   4.880   3.060 -0.7020  2.0932 -0.0505
20989SOL     OW68802   6.457   5.594   5.567  0.0252  0.8402 -0.0858
20989SOL    HW168803   6.369   5.561   5.546  0.6138 -0.1723 -1.0259
20989SOL    HW268804   6.444   5.688   5.583 -1.5955  0.3475  2.0210
20990SOL     OW68805   9.360   0.782   5.233 -0.1746  0.1773  0.3702
20990SOL    HW168806   9.310   0.864   5.230 -0.3108  0.1186  0.8978
20990SOL    HW268807   9.451   0.808   5.225 -0.2411  0.3531  0.1976
20991SOL     OW68808   9.755   8.967   7.241 -0.1522  0.5157  0.1074
20991SOL    HW168809   9.803   8.918   7.308  1.0219  2.4236  0.7315
20991SOL    HW268810   9.779   9.058   7.257 -0.9259  1.1421 -2.0787
20992SOL     OW68811   3.740   7.204   2.150  0.8933  0.5242 -0.0685
20992SOL    HW168812   3.656   7.180   2.110 -0.0570 -0.3134  2.2424
20992SOL    HW268813   3.787   7.121   2.158  0.3960  0.3726  1.8518
20993SOL     OW68814   2.304   4.399   7.723  0.2648 -0.4423  0.3809
20993SOL    HW168815   2.331   4.490   7.708  0.0599 -0.6352 -1.3463
20993SOL    HW268816   2.215   4.406   7.758 -0.3457  0.0261 -1.1631
20994SOL     OW68817   1.051   9.764  10.718 -0.0345  0.0043  0.2854
20994SOL    HW168818   0.975   9.798  10.765 -1.6497  0.8418 -2.6808
20994SOL    HW268819   1.079   9.688  10.770 -2.2443  0.2880  2.0393
20995SOL     OW68820   0.702   6.084   5.289  0.2421  0.4306  0.1775
20995SOL    HW168821   0.628   6.032   5.322 -0.5308  1.6736  0.4888
20995SOL    HW268822   0.666   6.131   5.214  0.9582  0.4173 -0.1763
20996SOL     OW68823   3.998  10.634   8.810  0.0492  0.2334 -0.6304
20996SOL    HW168824   3.916  10.586   8.803 -0.2802  0.6654  0.1406
20996SOL    HW268825   4.031  10.612   8.897 -0.2054  1.5445 -0.1834
20997SOL     OW68826   4.236   2.245   8.916  0.2379 -0.2511 -0.0512
20997SOL    HW168827   4.323   2.283   8.904 -0.4940  0.6893 -3.3772
20997SOL    HW268828   4.243   2.156   8.881  0.5603 -1.3878  2.6514
20998SOL     OW68829   3.670   9.051   3.116  0.0973  0.2036 -0.0464
20998SOL    HW168830   3.602   9.103   3.073  1.6455  2.4475  0.0261
20998SOL    HW268831   3.699   8.989   3.049 -1.1146  0.0781 -0.4808
20999SOL     OW68832  10.783   6.307   4.205  0.8023  0.5251  0.1401
20999SOL    HW168833  10.810   6.228   4.251 -1.7394 -0.6933 -0.2990
20999SOL    HW268834  10.833   6.377   4.247  3.0633 -1.2643  0.6064
21000SOL     OW68835   2.015   2.861   4.123 -0.1505  0.3224  0.2226
21000SOL    HW168836   2.062   2.866   4.206  0.1854 -2.2042  0.2659
21000SOL    HW268837   2.081   2.877   4.057  0.2131 -0.4471  0.3830
21001SOL     OW68838   2.062   7.907   9.181 -0.6116  0.2168  0.3513
21001SOL    HW168839   2.156   7.898   9.170 -0.4280  0.6892  1.4735
21001SOL    HW268840   2.047   8.002   9.182 -1.3759  0.1827 -1.9372
21002SOL     OW68841   8.967   6.290   5.714 -0.5907 -0.3028 -0.1783
21002SOL    HW168842   8.965   6.291   5.619 -0.7341 -1.3518 -0.1938
21002SOL    HW268843   8.886   6.247   5.740  0.0645 -1.2259  0.3773
21003SOL     OW68844   4.054   5.567  10.418 -0.3607 -0.1263  0.0408
21003SOL    HW168845   4.128   5.507  10.408 -0.2331  0.0316  0.0404
21003SOL    HW268846   4.091   5.653  10.400 -0.7691 -0.1546 -0.9924
21004SOL     OW68847   2.757   6.891   0.001  0.2515 -0.2494 -0.2423
21004SOL    HW168848   2.668   6.920   0.022  0.7621  1.1123  0.0854
21004SOL    HW268849   2.811   6.969   0.009  1.2924 -0.7718 -1.6944
21005SOL     OW68850   9.378   1.885   9.536  0.6156 -0.2129  0.2631
21005SOL    HW168851   9.369   1.794   9.508  0.1522  0.7290 -3.0754
21005SOL    HW268852   9.297   1.905   9.582 -0.7149 -0.6508 -1.7923
21006SOL     OW68853   0.100   6.456  10.524 -0.2762 -0.5340 -0.1337
21006SOL    HW168854   0.068   6.406  10.599 -3.7246  0.0851 -1.0252
21006SOL    HW268855   0.078   6.547  10.544 -0.3840 -0.2412 -1.4807
21007SOL     OW68856   8.096   0.193  10.463 -0.5208  0.0018  0.2669
21007SOL    HW168857   8.171   0.142  10.494 -0.5386 -0.0677  0.1968
21007SOL    HW268858   8.021   0.136  10.478 -0.3683 -0.6794 -1.3488
21008SOL     OW68859   6.881   2.871   6.455  0.3232 -0.1712 -0.0824
21008SOL    HW168860   6.821   2.891   6.527  1.2807  0.0839  0.6645
21008SOL    HW268861   6.876   2.948   6.398  0.7412  0.3362  0.5469
21009SOL     OW68862   4.951   2.159   5.268  0.3278  0.4100 -0.9646
21009SOL    HW168863   4.897   2.170   5.189 -0.3195  1.0364 -0.4456
21009SOL    HW268864   4.952   2.246   5.308  2.0352  0.4987 -1.1509
21010SOL     OW68865   6.180   7.537   6.088 -0.0198 -0.0506  0.2253
21010SOL    HW168866   6.100   7.504   6.048  0.3684 -0.1096 -0.5371
21010SOL    HW268867   6.201   7.616   6.038  1.9351 -1.5640 -1.6052
21011SOL     OW68868  10.858   7.452   8.063 -0.1301 -0.1642 -0.1185
21011SOL    HW168869  10.898   7.372   8.030 -0.4562 -0.7650  0.9347
21011SOL    HW268870  10.774   7.458   8.016 -0.4124 -0.8043  0.3015
21012SOL     OW68871  10.636   1.113   3.454  0.5106  0.2587 -0.4179
21012SOL    HW168872  10.606   1.203   3.443  2.2021  0.8916 -0.1685
21012SOL    HW268873  10.691   1.097   3.377 -0.7443 -1.0163 -1.0976
21013SOL     OW68874   5.178   6.685   3.004 -0.2484 -0.0510 -0.0577
21013SOL    HW168875   5.229   6.720   3.077 -1.2537  1.3997 -0.0166
21013SOL    HW268876   5.236   6.694   2.928 -0.1259  0.8205  0.1277
21014SOL     OW68877   4.883   3.630   7.203  0.2429  0.3493  0.2549
21014SOL    HW168878   4.797   3.670   7.185  1.6865  2.7721 -2.0574
21014SOL    HW268879   4.917   3.679   7.277 -0.4444 -0.8494  1.4015
21015SOL     OW68880   1.573   0.084   5.999  0.2314  0.1880  0.3837
21015SOL    HW168881   1.646   0.133   6.039 -0.3154  0.7298  0.7415
21015SOL    HW268882   1.615   0.011   5.954  0.9258 -0.1127  1.4670
21016SOL     OW68883   2.338   8.361   1.158 -0.0508 -0.0687 -0.2241
21016SOL    HW168884   2.244   8.379   1.145 -0.1556 -0.1898  0.3721
21016SOL    HW268885   2.341   8.301   1.232  0.5123  0.0151 -0.1790
21017SOL     OW68886   2.885   3.177   5.189 -0.1518  0.2405 -0.1527
21017SOL    HW168887   2.898   3.271   5.181  0.0860  0.1374 -1.0748
21017SOL    HW268888   2.822   3.155   5.120  0.6616 -0.4502 -0.6897
21018SOL     OW68889   4.735   6.503   5.668 -0.0318  0.2562 -0.4968
21018SOL    HW168890   4.708   6.572   5.728 -0.3880  0.2628 -0.6644
21018SOL    HW268891   4.813   6.464   5.710 -0.5786 -0.0845  0.2318
21019SOL     OW68892  10.582   8.695   4.097 -0.3427  0.8248  0.3392
21019SOL    HW168893  10.634   8.632   4.047  0.4413  1.8031 -0.1203
21019SOL    HW268894  10.567   8.652   4.181 -0.7216 -0.3930 -0.3270
21020SOL     OW68895   3.144   2.381   9.639  0.2900 -0.2674  0.2356
21020SOL    HW168896   3.232   2.378   9.678  0.5084  0.4602 -0.1791
21020SOL    HW268897   3.161   2.383   9.545 -0.1738  0.0357  0.1607
21021SOL     OW68898   7.858   5.425   0.557 -0.2939  0.4240 -0.1504
21021SOL    HW168899   7.903   5.499   0.515  1.6765  0.4429  1.8338
21021SOL    HW268900   7.816   5.462   0.634 -0.9129 -0.2292 -0.1563
21022SOL     OW68901   0.392   5.412   8.870 -0.1267 -0.1485  0.2651
21022SOL    HW168902   0.305   5.408   8.831 -0.6131 -3.1341  1.3851
21022SOL    HW268903   0.452   5.410   8.796 -0.9587  0.7862 -0.4697
21023SOL     OW68904   8.838   8.689   8.020 -0.4515  0.0062  0.2230
21023SOL    HW168905   8.744   8.671   8.013 -0.1172 -1.2362 -2.0822
21023SOL    HW268906   8.871   8.679   7.930  1.8639  0.5811  0.9451
21024SOL     OW68907   5.948   0.700   3.582 -0.9457 -0.1829  0.4661
21024SOL    HW168908   5.872   0.702   3.523 -0.3232 -3.2159 -0.6551
21024SOL    HW268909   5.921   0.643   3.654 -0.0032 -0.7659  0.3828
21025SOL     OW68910  10.383   5.506   3.243 -0.1003 -0.4847 -1.0392
21025SOL    HW168911  10.420   5.481   3.158 -0.2835  0.5344 -1.4323
21025SOL    HW268912  10.294   5.537   3.222 -1.0520 -2.4417 -0.1783
21026SOL     OW68913   3.232   1.696   4.640 -0.2048 -0.4421  0.0414
21026SOL    HW168914   3.246   1.692   4.735 -0.5462 -0.2631  0.1028
21026SOL    HW268915   3.151   1.746   4.630 -0.1963 -0.5014 -0.3443
21027SOL     OW68916   2.967   8.408   9.573 -0.6073 -0.2756 -0.6803
21027SOL    HW168917   3.002   8.488   9.534  0.9850 -0.2932  0.6309
21027SOL    HW268918   2.934   8.435   9.658 -1.9143 -0.6781 -1.0341
21028SOL     OW68919   7.891   3.287   0.362  0.3705 -0.4456 -0.1151
21028SOL    HW168920   7.928   3.373   0.382 -0.5820  0.0644 -0.4893
21028SOL    HW268921   7.853   3.296   0.275 -1.9544 -0.4536  0.8108
21029SOL     OW68922  10.118   4.132   7.741  0.0658  0.0644 -0.4402
21029SOL    HW168923  10.076   4.091   7.666 -0.1137 -0.3283 -0.1278
21029SOL    HW268924  10.105   4.070   7.813 -0.1780  0.6535  0.0309
21030SOL     OW68925  10.203   5.675   8.813 -0.0996  0.5178  0.0462
21030SOL    HW168926  10.182   5.584   8.831 -0.1825 -0.0020 -2.3759
21030SOL    HW268927  10.163   5.723   8.886 -2.0275 -1.1827  0.1972
21031SOL     OW68928   6.488   6.101   4.649 -0.2061  0.5790 -0.1070
21031SOL    HW168929   6.542   6.022   4.649  0.5422  1.0814  0.3106
21031SOL    HW268930   6.413   6.079   4.703 -0.7172 -0.3180 -1.1472
21032SOL     OW68931   2.657   3.449  10.023 -0.2803 -1.0006 -0.2252
21032SOL    HW168932   2.713   3.468  10.098 -0.2656 -1.0305 -0.2283
21032SOL    HW268933   2.606   3.372  10.049 -1.8305  0.2430  0.5932
21033SOL     OW68934   3.081   2.000   1.279  0.0467 -0.4620 -0.4188
21033SOL    HW168935   3.010   1.990   1.216 -0.9033 -0.5099  0.6298
21033SOL    HW268936   3.157   2.022   1.226 -1.2670  2.1350 -1.4217
21034SOL     OW68937   2.455   8.161   1.770  0.3499 -0.0529 -0.0632
21034SOL    HW168938   2.415   8.091   1.822  1.3196 -1.1734 -0.7594
21034SOL    HW268939   2.543   8.169   1.806  1.0022 -0.7747 -1.4277
21035SOL     OW68940   1.403   0.387   0.636  0.1984 -0.0503  0.6168
21035SOL    HW168941   1.471   0.363   0.700  1.0252 -1.6891 -0.7730
21035SOL    HW268942   1.444   0.453   0.581  0.7924 -1.1441 -0.3126
21036SOL     OW68943  10.434   3.498   5.361  0.0140  0.0452 -0.2680
21036SOL    HW168944  10.522   3.532   5.348 -0.5902  1.1733 -1.8394
21036SOL    HW268945  10.391   3.562   5.417  0.3967 -0.9101  1.1527
21037SOL     OW68946   0.179   1.449   3.366  0.0887 -0.2616 -0.0700
21037SOL    HW168947   0.183   1.353   3.367 -0.5053 -0.2876  0.5557
21037SOL    HW268948   0.159   1.473   3.457  0.3351  0.4646 -0.1966
21038SOL     OW68949  10.803   7.170   0.748  0.4094 -0.1183 -0.2334
21038SOL    HW168950  10.744   7.225   0.799  0.4162 -0.7373  0.4517
21038SOL    HW268951  10.866   7.136   0.812  0.8562 -0.3198 -0.7745
21039SOL     OW68952  10.300   7.240   4.821  0.7073 -0.4759  0.6038
21039SOL    HW168953  10.384   7.254   4.776 -0.0497  0.8716 -0.4650
21039SOL    HW268954  10.244   7.199   4.755  0.2461 -0.5534  1.0386
21040SOL     OW68955   0.395   6.973   9.721  0.4225  0.4888 -0.2695
21040SOL    HW168956   0.375   7.059   9.758  4.0645  0.1302  3.3055
21040SOL    HW268957   0.344   6.911   9.773 -0.7801  0.2918 -1.6115
21041SOL     OW68958   2.305   8.686   3.206 -0.2755 -0.5205 -0.3221
21041SOL    HW168959   2.218   8.649   3.193 -1.7552  2.8825 -1.3241
21041SOL    HW268960   2.296   8.742   3.283  1.1854 -0.4954 -0.1420
21042SOL     OW68961  10.088  10.034   8.794  0.5753 -0.4455 -0.2658
21042SOL    HW168962  10.081   9.953   8.844 -2.3785 -1.2911 -1.7830
21042SOL    HW268963  10.084  10.005   8.702 -0.3068  1.3527 -0.8426
21043SOL     OW68964   5.595   4.549   7.239  0.0244  0.5827 -0.1024
21043SOL    HW168965   5.637   4.466   7.262 -0.3099  0.6761  0.8834
21043SOL    HW268966   5.515   4.551   7.292  0.2950  1.7720  0.2747
21044SOL     OW68967  10.268   9.552  10.727  0.4151  0.5192 -0.4958
21044SOL    HW168968  10.206   9.514  10.665  0.4061 -0.2291 -0.0369
21044SOL    HW268969  10.259   9.499  10.806 -0.1208  1.9259  0.4230
21045SOL     OW68970   1.263   6.995   4.985 -0.2813  0.0706 -0.1157
21045SOL    HW168971   1.291   6.910   5.018 -0.9913 -0.4527 -0.8145
21045SOL    HW268972   1.169   6.997   5.001 -0.3663  0.4762 -0.6348
21046SOL     OW68973   0.983   9.493   6.696 -0.3653 -0.7265 -0.4443
21046SOL    HW168974   0.908   9.536   6.737  0.2936 -0.3859  0.4226
21046SOL    HW268975   0.949   9.462   6.612 -1.1237  0.5766 -0.6375
21047SOL     OW68976   6.149   2.089   8.090 -0.1920  0.0210  0.0032
21047SOL    HW168977   6.219   2.120   8.034 -0.0894 -0.2646 -0.0254
21047SOL    HW268978   6.106   2.169   8.122 -0.8901  0.1761 -1.2727
21048SOL     OW68979   7.191  10.339   7.787  0.2889 -0.1874 -0.2068
21048SOL    HW168980   7.247  10.272   7.827  0.1868 -0.9917 -1.3490
21048SOL    HW268981   7.133  10.367   7.858  0.4165 -1.2212  0.3293
21049SOL     OW68982   6.149   9.967   4.604 -0.8819 -0.4839  0.1364
21049SOL    HW168983   6.133  10.004   4.517 -1.9686 -1.4154 -0.0886
21049SOL    HW268984   6.244   9.966   4.612 -0.7362 -0.8009 -1.2592
21050SOL     OW68985   3.485   1.108   9.650 -0.5885  0.4170  0.1225
21050SOL    HW168986   3.552   1.042   9.669  1.6826  2.4357 -0.4111
21050SOL    HW268987   3.418   1.061   9.600 -0.3244 -2.0033  1.8738
21051SOL     OW68988   0.076   7.773   5.660 -0.3059  0.0205 -0.2813
21051SOL    HW168989   0.115   7.848   5.616  0.5620  0.5078  1.2586
21051SOL    HW268990   0.150   7.716   5.681 -0.8227 -0.6944 -0.3548
21052SOL     OW68991   3.583   1.062   3.009 -0.4958  0.1746  0.5695
21052SOL    HW168992   3.636   1.118   2.952 -0.8879 -0.8016 -0.8083
21052SOL    HW268993   3.645   1.002   3.048 -0.4900 -0.8216 -0.8708
21053SOL     OW68994   7.780  10.109   2.542 -0.4745 -0.2984 -0.3153
21053SOL    HW168995   7.768  10.204   2.531  0.9287  0.0405  0.8591
21053SOL    HW268996   7.732  10.071   2.469 -1.5709  1.2896 -0.4813
21054SOL     OW68997   9.627   9.111   1.598  0.3458 -0.1631 -0.2461
21054SOL    HW168998   9.655   9.053   1.527 -1.5469 -0.6275 -0.6737
21054SOL    HW268999   9.660   9.197   1.573  3.0607 -0.9498  0.3152
21055SOL     OW69000  10.478   8.673   8.901 -0.0658 -0.1617 -0.5992
21055SOL    HW169001  10.551   8.717   8.857  1.3146 -0.4147  1.3346
21055SOL    HW269002  10.470   8.717   8.985 -0.0051 -2.2351  0.5436
21056SOL     OW69003   3.283   3.232   3.450 -0.0897  0.0516 -0.1283
21056SOL    HW169004   3.327   3.227   3.365  1.5566 -0.1092  0.6917
21056SOL    HW269005   3.286   3.325   3.473  1.2940 -0.1442  0.6241
21057SOL     OW69006   6.413  10.578   6.772  0.5909  0.2043  0.2697
21057SOL    HW169007   6.489  10.620   6.810  0.1561 -0.3496  1.8310
21057SOL    HW269008   6.403  10.497   6.822 -1.2463  0.4600  0.4004
21058SOL     OW69009   3.632   8.640   7.386  0.0729  0.0897  0.4289
21058SOL    HW169010   3.597   8.601   7.466 -1.7985  1.3310  0.2535
21058SOL    HW269011   3.603   8.582   7.316 -0.6672  0.4958  0.3952
21059SOL     OW69012   9.268   8.691   5.601 -0.1985  0.0073  0.3461
21059SOL    HW169013   9.196   8.750   5.577  0.2328  0.5215  0.3165
21059SOL    HW269014   9.343   8.748   5.617  0.0717 -0.4847  0.9029
21060SOL     OW69015   7.542   4.584   5.842 -0.1997 -0.4416 -0.5146
21060SOL    HW169016   7.455   4.618   5.823 -0.6987 -1.9547 -1.0473
21060SOL    HW269017   7.578   4.645   5.907 -2.2149 -0.5856  0.8163
21061SOL     OW69018   1.154   1.859   1.981  0.4746  0.4338  0.5225
21061SOL    HW169019   1.177   1.944   2.019 -1.9597  1.4054  0.0246
21061SOL    HW269020   1.112   1.811   2.052  0.0126  0.4561  0.2684
21062SOL     OW69021   1.524   1.759   8.626  0.2818 -0.1345 -0.3208
21062SOL    HW169022   1.577   1.835   8.652  0.9643 -0.7007 -0.0279
21062SOL    HW269023   1.581   1.710   8.567  0.5557 -1.3742  0.9188
21063SOL     OW69024   5.950   6.504   4.597 -0.0229  0.8887  0.0946
21063SOL    HW169025   5.990   6.570   4.653 -0.1573  1.2361 -0.2119
21063SOL    HW269026   6.014   6.433   4.593 -1.4743 -0.8596  3.7119
21064SOL     OW69027   0.402   6.057   4.029 -0.5980  0.0329  0.4618
21064SOL    HW169028   0.337   5.990   4.048  0.1762 -1.0599 -0.6041
21064SOL    HW269029   0.362   6.112   3.962 -0.4956 -0.5244 -0.0580
21065SOL     OW69030   1.152   4.620   0.646 -0.5219 -0.0708 -0.3422
21065SOL    HW169031   1.078   4.661   0.602 -2.5234 -1.6304  1.3749
21065SOL    HW269032   1.159   4.665   0.730  0.0090 -0.4229 -0.1895
21066SOL     OW69033   0.255   1.639   3.853 -0.0943 -0.1132 -0.8691
21066SOL    HW169034   0.321   1.704   3.827  0.3220 -0.1879 -0.0118
21066SOL    HW269035   0.296   1.589   3.923 -0.7976 -0.6386 -0.8195
21067SOL     OW69036  10.303   4.797   5.856 -1.0031  0.1230  0.2267
21067SOL    HW169037  10.245   4.795   5.780 -1.2727 -1.0731  0.4378
21067SOL    HW269038  10.391   4.784   5.820 -0.8288  1.9578 -0.0968
21068SOL     OW69039  10.212   3.050   9.569 -0.2089 -0.0017  0.1264
21068SOL    HW169040  10.173   3.103   9.639 -0.2360  0.2494 -0.0747
21068SOL    HW269041  10.231   2.966   9.610 -1.1732 -0.2089  0.1603
21069SOL     OW69042   1.852   4.314   4.244 -0.2801  0.2713  0.0858
21069SOL    HW169043   1.861   4.401   4.283 -0.1056 -0.2344  1.2482
21069SOL    HW269044   1.899   4.257   4.305 -0.0921 -0.5897 -0.8457
21070SOL     OW69045   3.342  10.779   9.316 -0.2288 -0.0262 -0.3292
21070SOL    HW169046   3.290  10.711   9.275  2.5690 -1.2091 -2.2400
21070SOL    HW269047   3.309  10.784   9.406 -1.3518 -3.0584 -0.4610
21071SOL     OW69048   5.537   8.371   2.047  0.1149 -0.1468 -0.3435
21071SOL    HW169049   5.504   8.416   2.125  0.5744  0.7883 -0.6816
21071SOL    HW269050   5.466   8.378   1.983  0.5981  1.0870 -0.7697
21072SOL     OW69051   5.990   5.828  10.650  0.2227 -0.9888  0.2846
21072SOL    HW169052   6.018   5.919  10.657 -1.0400 -0.4755 -0.8956
21072SOL    HW269053   6.034   5.796  10.572  0.3817 -1.2825  0.4953
21073SOL     OW69054   8.842   0.954   8.378  0.3192  0.2481  0.0065
21073SOL    HW169055   8.769   0.960   8.439 -1.2301 -3.3545 -1.2444
21073SOL    HW269056   8.833   1.030   8.322 -1.3778  0.8544  1.0274
21074SOL     OW69057  10.370   9.092   8.599 -0.0306  0.5556 -0.1361
21074SOL    HW169058  10.369   9.182   8.632 -1.7145  1.1178 -1.5745
21074SOL    HW269059  10.324   9.042   8.666 -0.1338  0.9919  0.1260
21075SOL     OW69060   3.568   9.236   3.806 -0.6757 -0.7977 -0.0191
21075SOL    HW169061   3.649   9.186   3.813 -1.1017 -1.4994  0.0510
21075SOL    HW269062   3.579   9.288   3.727 -0.2692 -1.1064 -0.1710
21076SOL     OW69063   0.988   0.557   0.263 -0.4655  0.3386  0.1814
21076SOL    HW169064   1.009   0.554   0.356 -0.2321  0.8338  0.1465
21076SOL    HW269065   1.031   0.480   0.226 -1.0822 -0.2104  0.5830
21077SOL     OW69066   3.883   3.222   0.516 -0.2614  0.3349  0.4520
21077SOL    HW169067   3.836   3.143   0.542 -1.0625  0.9815  1.0093
21077SOL    HW269068   3.975   3.200   0.529 -0.2851 -1.2654 -1.5213
21078SOL     OW69069   2.465   5.775   7.774  0.2956 -0.3434 -0.0716
21078SOL    HW169070   2.490   5.867   7.768 -0.9215  0.0463  0.5220
21078SOL    HW269071   2.526   5.730   7.715 -0.6334  1.1525 -2.3083
21079SOL     OW69072   8.632   1.220   7.041 -0.5849 -0.5086 -0.4972
21079SOL    HW169073   8.628   1.314   7.061  0.3886 -0.5740  0.0379
21079SOL    HW269074   8.540   1.195   7.030 -0.8909  0.4094 -0.1804
21080SOL     OW69075   3.888  10.108   0.884 -0.1155 -0.4452  0.0137
21080SOL    HW169076   3.825  10.037   0.871 -0.6593 -0.1623  1.0176
21080SOL    HW269077   3.835  10.186   0.898  0.3633 -0.4770  2.4663
21081SOL     OW69078   1.256   4.587  10.066 -0.2078 -0.0690 -0.3732
21081SOL    HW169079   1.193   4.578  10.137  0.6005  1.0112  0.5121
21081SOL    HW269080   1.341   4.578  10.108  0.2683 -0.6146 -1.4093
21082SOL     OW69081   0.226   5.108   6.946  0.0328 -0.1780 -0.3415
21082SOL    HW169082   0.265   5.108   6.858  0.8869  0.4130  0.0200
21082SOL    HW269083   0.268   5.181   6.991 -1.5523  0.5161  0.0739
21083SOL     OW69084   6.976   3.264   7.209 -0.6945  0.1058 -0.3990
21083SOL    HW169085   6.903   3.227   7.160  0.1711 -1.0570 -0.8885
21083SOL    HW269086   7.009   3.335   7.155 -3.2441  2.7034  1.1823
21084SOL     OW69087   0.284   7.556   0.020 -0.1682 -0.1738 -0.6765
21084SOL    HW169088   0.234   7.475   0.028  1.0269 -0.7622  1.8641
21084SOL    HW269089   0.283   7.593   0.108  1.2045  1.4037 -1.2816
21085SOL     OW69090   8.050   2.399   1.544 -0.3379  0.0279  0.4439
21085SOL    HW169091   8.065   2.305   1.540 -1.7990 -0.2114  0.0778
21085SOL    HW269092   7.968   2.413   1.498 -0.5146  1.3999  1.1031
21086SOL     OW69093   3.356   0.227   8.262 -0.0784  0.2066  0.1072
21086SOL    HW169094   3.451   0.224   8.250  0.0057 -0.6207  0.8933
21086SOL    HW269095   3.324   0.146   8.223 -0.8207  1.7267 -2.7323
21087SOL     OW69096   7.782  10.913   0.692 -0.1643 -0.4258 -0.4310
21087SOL    HW169097   7.783  10.978   0.763 -1.7767 -0.8437  0.0242
21087SOL    HW269098   7.861  10.931   0.642  0.3065  0.7802  0.6813
21088SOL     OW69099   9.871   0.288   1.759 -0.0220 -0.3734  0.2232
21088SOL    HW169100   9.789   0.334   1.738 -0.3683 -0.2266  1.7076
21088SOL    HW269101   9.880   0.299   1.854  1.5881 -0.6295  0.1308
21089SOL     OW69102   4.421  10.519  10.425 -0.5284 -0.0972 -0.1925
21089SOL    HW169103   4.338  10.506  10.380  0.6803 -0.4790 -2.4829
21089SOL    HW269104   4.413  10.605  10.466 -2.4906 -0.6932  0.8053
21090SOL     OW69105   7.386   6.144   1.221 -0.5147  0.3566 -0.3293
21090SOL    HW169106   7.348   6.062   1.187  2.1114 -1.8555  1.5985
21090SOL    HW269107   7.411   6.123   1.311  3.1212  2.2490 -0.7191
21091SOL     OW69108   4.093   2.727   2.446  0.2444 -0.3429 -0.2615
21091SOL    HW169109   4.062   2.638   2.464  1.2358 -1.0693 -1.9277
21091SOL    HW269110   4.188   2.722   2.456  0.3903  0.2954 -1.1784
21092SOL     OW69111   6.495   8.341   4.996 -0.1413  0.6086  0.0662
21092SOL    HW169112   6.561   8.399   4.959 -1.2108  1.8028 -0.0272
21092SOL    HW269113   6.470   8.285   4.922 -0.8744  1.6967 -0.5376
21093SOL     OW69114   3.853   5.945   3.569 -0.0353 -0.0860  0.3103
21093SOL    HW169115   3.899   5.866   3.598  0.7739  0.5346  0.7310
21093SOL    HW269116   3.843   5.933   3.474 -0.5818 -1.0218  0.4637
21094SOL     OW69117   8.661   5.725   2.799 -0.3379  0.1171  0.1047
21094SOL    HW169118   8.642   5.645   2.849 -0.5460 -0.0984 -0.3145
21094SOL    HW269119   8.633   5.705   2.710  1.2520  0.0319 -0.3946
21095SOL     OW69120   9.054   4.701   2.206  0.4558 -0.0201 -0.6628
21095SOL    HW169121   9.085   4.762   2.140  0.0339 -1.1387 -1.9343
21095SOL    HW269122   8.981   4.655   2.164  1.4269 -2.1482 -0.1637
21096SOL     OW69123   6.661   0.555   7.828  0.2076 -0.1696  0.5271
21096SOL    HW169124   6.586   0.509   7.865  0.3179  0.3500  1.4423
21096SOL    HW269125   6.657   0.642   7.868  0.9732  0.0453  0.1473
21097SOL     OW69126   1.105   2.444  10.688  0.0216 -0.1384 -0.2335
21097SOL    HW169127   1.032   2.392  10.722 -0.0126  0.0749  0.0238
21097SOL    HW269128   1.109   2.521  10.745  1.0097 -0.5762  0.3289
21098SOL     OW69129   6.787   7.053   7.368  0.4076  0.2291 -0.3344
21098SOL    HW169130   6.810   7.026   7.457 -0.4473  0.1749 -0.1198
21098SOL    HW269131   6.702   7.011   7.352  0.4757  0.3786 -1.1108
21099SOL     OW69132  10.690   1.023   8.499 -0.1380  0.2841  0.3454
21099SOL    HW169133  10.776   1.043   8.463 -0.2945 -1.5546 -1.2334
21099SOL    HW269134  10.685   1.075   8.579  1.9414  1.3448 -0.1349
21100SOL     OW69135   8.178  10.472   5.042 -0.0029 -0.6263  0.0547
21100SOL    HW169136   8.099  10.419   5.041 -1.3497  1.2937 -0.4899
21100SOL    HW269137   8.200  10.485   4.950 -0.4449  0.7667  0.1194
21101SOL     OW69138   1.781   1.230   0.614 -0.4001 -0.4333 -0.1704
21101SOL    HW169139   1.806   1.252   0.524  1.5475 -0.8481  0.2237
21101SOL    HW269140   1.733   1.147   0.605  0.0237 -0.6225 -0.7981
21102SOL     OW69141   6.057   1.862   4.391 -0.2515 -0.1872  0.2741
21102SOL    HW169142   6.069   1.945   4.345  0.8291 -0.7831 -0.5643
21102SOL    HW269143   5.963   1.857   4.407 -0.4351  0.8197 -0.3828
21103SOL     OW69144   4.827   6.331   2.741 -0.2912 -0.2544  0.5690
21103SOL    HW169145   4.766   6.272   2.786 -0.8715  1.6335  2.3968
21103SOL    HW269146   4.864   6.385   2.811  0.8087  1.0373 -0.9512
21104SOL     OW69147   6.278   3.095   0.490 -0.0620  0.3705  0.0207
21104SOL    HW169148   6.315   3.130   0.571 -1.2756  0.0309  0.7587
21104SOL    HW269149   6.195   3.055   0.517 -1.1100  1.3322 -1.5639
21105SOL     OW69150   5.766   2.828   5.002 -0.0460  0.4857  0.0816
21105SOL    HW169151   5.790   2.874   4.922 -0.4566 -1.0962 -1.0049
21105SOL    HW269152   5.839   2.843   5.061  0.3434  1.5406 -0.6400
21106SOL     OW69153   1.499   8.205   4.126  0.5359 -0.3406 -0.0425
21106SOL    HW169154   1.580   8.254   4.113 -0.0054  0.3104 -1.1002
21106SOL    HW269155   1.524   8.130   4.179  1.7654  0.0228 -0.0880
21107SOL     OW69156  10.023   8.227   7.962 -0.2292  0.0208 -0.1081
21107SOL    HW169157  10.024   8.308   7.912 -0.8779  1.1577  1.6432
21107SOL    HW269158  10.111   8.221   7.999 -0.9204  1.4212  1.9539
21108SOL     OW69159   6.081   8.323   9.801  0.3945  0.0007  0.3084
21108SOL    HW169160   6.150   8.311   9.865 -1.6871  0.6411  2.8298
21108SOL    HW269161   6.085   8.416   9.779  0.1970  0.0868  0.6327
21109SOL     OW69162   2.952   1.664   9.979 -0.2125  0.2330 -0.1715
21109SOL    HW169163   3.036   1.679  10.023 -0.2892  1.1013 -0.2895
21109SOL    HW269164   2.961   1.579   9.937 -1.0653 -1.9242  3.6129
21110SOL     OW69165   9.443   9.549   6.595  0.3123  0.9158  0.4079
21110SOL    HW169166   9.467   9.460   6.621  1.7242  1.3531  0.6475
21110SOL    HW269167   9.409   9.539   6.506  0.9783  0.2144  0.2233
21111SOL     OW69168   6.026  10.924   4.735  0.2190  0.3431 -0.0088
21111SOL    HW169169   6.096  10.860   4.750  0.3635  0.1121 -1.5159
21111SOL    HW269170   5.945  10.874   4.745  0.3339 -0.3123 -1.8965
21112SOL     OW69171   9.834   1.113   5.960 -0.2516  0.0726 -0.1434
21112SOL    HW169172   9.901   1.046   5.950  0.7201  1.1426 -1.1833
21112SOL    HW269173   9.754   1.072   5.927  0.1055 -0.8928  0.1630
21113SOL     OW69174   3.128   1.887   8.378  0.1230 -0.0530  0.4760
21113SOL    HW169175   3.033   1.878   8.384  0.1593 -0.8834  0.0158
21113SOL    HW269176   3.162   1.833   8.449  0.2467  0.4975  0.8380
21114SOL     OW69177   6.175   3.781   3.564 -0.4655  0.3656  0.3589
21114SOL    HW169178   6.173   3.740   3.477  1.0197  1.1461 -0.0649
21114SOL    HW269179   6.162   3.708   3.625 -0.9528 -0.2735 -0.4776
21115SOL     OW69180   6.049   3.215   4.611 -0.4047 -0.2244  0.3394
21115SOL    HW169181   6.073   3.137   4.662  0.2144  0.6108  1.3564
21115SOL    HW269182   6.113   3.281   4.636 -0.3729  0.3712 -1.1903
21116SOL     OW69183   3.600   2.592   4.500 -0.1465  0.3439 -0.0668
21116SOL    HW169184   3.520   2.641   4.518  0.5220  1.1405  0.8674
21116SOL    HW269185   3.658   2.614   4.573  1.5790  1.2161 -1.6048
21117SOL     OW69186   5.230   8.372   5.667  0.2656  0.0038  0.1482
21117SOL    HW169187   5.284   8.324   5.603  1.1414 -0.5795  1.2812
21117SOL    HW269188   5.268   8.460   5.668  2.1304 -0.7175  1.8377
21118SOL     OW69189   0.498   5.634   8.691 -0.4591  0.2559  0.1708
21118SOL    HW169190   0.537   5.570   8.632  2.1183  2.3080 -0.5329
21118SOL    HW269191   0.414   5.656   8.651 -0.0779 -0.5354 -1.1261
21119SOL     OW69192   9.108   9.122   9.657 -0.5465  0.0316 -0.2860
21119SOL    HW169193   9.187   9.155   9.616 -1.2833  1.5492 -0.5740
21119SOL    HW269194   9.138   9.070   9.731  0.7315  2.3476  0.9344
21120SOL     OW69195   2.469  10.880   4.838 -0.6155  0.6160  0.3645
21120SOL    HW169196   2.537  10.836   4.888 -0.8022 -0.0666  0.0380
21120SOL    HW269197   2.516  10.943   4.783 -0.3807  1.1108  1.1282
21121SOL     OW69198   0.229   3.920   9.616  0.1888  0.0364 -0.2130
21121SOL    HW169199   0.148   3.870   9.626 -0.7514  0.8439 -2.8234
21121SOL    HW269200   0.298   3.861   9.645 -1.2244 -1.1254  0.9374
21122SOL     OW69201   3.849   9.585   9.098  0.1699 -0.5714 -0.1957
21122SOL    HW169202   3.760   9.611   9.076  0.6157  0.4696 -0.8596
21122SOL    HW269203   3.839   9.507   9.152 -1.0929 -1.5314 -1.7138
21123SOL     OW69204   8.126   1.132   4.376 -0.7706 -0.1741 -0.5278
21123SOL    HW169205   8.102   1.071   4.306 -2.0386 -0.3086 -0.0020
21123SOL    HW269206   8.042   1.167   4.406 -0.0721  2.0089 -0.9630
21124SOL     OW69207   5.308   1.083   0.818  0.2712 -0.2735 -0.1553
21124SOL    HW169208   5.215   1.076   0.800  0.5917 -1.5512 -1.4954
21124SOL    HW269209   5.317   1.166   0.865 -1.9441 -1.6131  2.9621
21125SOL     OW69210   1.697   7.919   4.824 -0.3356 -0.2224 -0.6654
21125SOL    HW169211   1.701   7.871   4.907 -0.5425  0.1071 -0.4630
21125SOL    HW269212   1.698   7.851   4.757  2.1931 -0.4397 -0.4823
21126SOL     OW69213   2.198  10.736   9.076  0.3017  0.0423  0.3815
21126SOL    HW169214   2.288  10.758   9.100 -0.5695  0.9073  3.2205
21126SOL    HW269215   2.144  10.796   9.127 -2.0099 -3.6773  2.7955
21127SOL     OW69216   5.413   9.056   1.537  0.2945 -0.0444  0.2338
21127SOL    HW169217   5.397   8.997   1.611  0.9684 -1.1501 -0.4818
21127SOL    HW269218   5.413   9.143   1.576 -1.4147 -0.4227  1.2118
21128SOL     OW69219   2.959   0.239   5.840 -0.1180  0.2389  0.4388
21128SOL    HW169220   2.865   0.233   5.823 -0.0298 -0.4468  0.1719
21128SOL    HW269221   2.980   0.331   5.826 -0.9867  0.6600  1.7764
21129SOL     OW69222   9.627   9.336   7.081  0.3151  0.1508  0.2179
21129SOL    HW169223   9.655   9.306   6.994 -1.4341  0.7149 -0.5798
21129SOL    HW269224   9.706   9.374   7.120  0.8039  1.2857 -1.7456
21130SOL     OW69225   4.356   8.486   2.064 -0.0965  0.4953 -0.2570
21130SOL    HW169226   4.405   8.562   2.096  0.7518  0.4519 -1.3879
21130SOL    HW269227   4.274   8.488   2.113 -0.3962  2.5680 -0.7389
21131SOL     OW69228  10.252   8.640   0.240  0.5126 -0.1430 -0.3155
21131SOL    HW169229  10.256   8.735   0.228 -3.4025  0.2639  0.1646
21131SOL    HW269230  10.226   8.629   0.331  0.8511 -1.6731 -0.3933
21132SOL     OW69231   1.896   7.897   8.025 -0.4412 -0.2071  0.1145
21132SOL    HW169232   1.870   7.945   7.946  1.5772  0.9688  0.1197
21132SOL    HW269233   1.833   7.925   8.092 -1.1408  0.0669 -0.6396
21133SOL     OW69234   4.314   7.802   0.050  0.1501 -0.1166 -0.1760
21133SOL    HW169235   4.286   7.882   0.006  2.7198 -0.1521 -2.0925
21133SOL    HW269236   4.235   7.748   0.056 -0.9065  1.1254 -2.0861
21134SOL     OW69237   2.699   8.752   1.398 -0.1821  0.2927  0.1172
21134SOL    HW169238   2.633   8.686   1.377  0.2066 -0.0453 -0.0629
21134SOL    HW269239   2.748   8.714   1.471  0.9963 -0.2923 -0.9392
21135SOL     OW69240   3.366   6.730   0.568  0.0699 -0.0556 -0.1695
21135SOL    HW169241   3.423   6.658   0.541  0.8529 -0.2359  1.7735
21135SOL    HW269242   3.293   6.727   0.506  0.3886 -2.1371 -0.5303
21136SOL     OW69243   8.110  10.508   9.747 -0.0586 -0.4580  0.2098
21136SOL    HW169244   8.060  10.428   9.733  1.6971 -1.2907 -1.6402
21136SOL    HW269245   8.122  10.545   9.660  2.1210 -0.0550  0.6296
21137SOL     OW69246   7.877  10.813  10.097  0.1569  0.2236  0.2098
21137SOL    HW169247   7.912  10.859  10.020  0.1495  0.2750  0.2374
21137SOL    HW269248   7.951  10.806  10.156 -0.0661  1.0443  0.6006
21138SOL     OW69249   9.656   7.035   4.255 -0.3397 -0.1522  0.0839
21138SOL    HW169250   9.644   7.052   4.348  2.2534  1.4519  0.2353
21138SOL    HW269251   9.617   7.111   4.211 -1.3719 -0.8036 -0.1573
21139SOL     OW69252   5.072   2.525   0.994 -0.0139  0.0799  0.3912
21139SOL    HW169253   5.160   2.523   0.958  0.2244 -0.9893  0.9864
21139SOL    HW269254   5.021   2.470   0.935  0.7060 -2.9846  2.3538
21140SOL     OW69255   7.874   5.802   9.380  0.2983 -0.5157 -0.2599
21140SOL    HW169256   7.845   5.727   9.328  2.1814 -0.6546 -1.2417
21140SOL    HW269257   7.898   5.765   9.465 -1.0794 -0.5907  0.1171
21141SOL     OW69258   4.448   1.469   5.710  0.3287 -0.7167  0.0491
21141SOL    HW169259   4.543   1.477   5.724  0.7535 -2.1445 -1.6603
21141SOL    HW269260   4.438   1.477   5.615 -0.9931 -2.8766 -0.0404
21142SOL     OW69261   8.578   5.648   2.553  0.6373 -0.1182  0.6043
21142SOL    HW169262   8.654   5.589   2.554 -0.3110 -1.3905  0.2219
21142SOL    HW269263   8.530   5.623   2.474  0.9639  2.2071 -0.4083
21143SOL     OW69264   0.758   7.058   3.268 -0.4670  0.1688  0.7879
21143SOL    HW169265   0.731   7.004   3.343 -1.0734  0.5021  0.8139
21143SOL    HW269266   0.723   7.013   3.192 -1.7145  0.9606  0.8714
21144SOL     OW69267   3.907   3.298   6.355 -0.3162  0.6392  0.5613
21144SOL    HW169268   3.985   3.304   6.410 -0.7814  0.8896  1.2079
21144SOL    HW269269   3.937   3.323   6.268  0.2878  0.9064  0.8376
21145SOL     OW69270   7.685   2.498   0.460 -0.3166  0.0366  0.2335
21145SOL    HW169271   7.599   2.478   0.422  0.2470 -0.7636 -0.7025
21145SOL    HW269272   7.706   2.585   0.427 -0.6634  0.1222  0.2399
21146SOL     OW69273   4.753   9.294   6.094  0.0867  0.8054 -0.0010
21146SOL    HW169274   4.710   9.322   6.176 -1.2623  0.1444 -0.4424
21146SOL    HW269275   4.713   9.209   6.075  2.7202 -0.6097  0.3255
21147SOL     OW69276   6.369  10.004   5.084 -0.3833  0.2129 -0.3625
21147SOL    HW169277   6.449   9.957   5.058  0.2269  0.7803  0.4407
21147SOL    HW269278   6.350   9.971   5.172  0.1804  1.5947  0.3013
21148SOL     OW69279   0.313   2.439   1.882 -0.0318 -0.0046 -0.0904
21148SOL    HW169280   0.349   2.358   1.919  0.7303  0.4293  0.1437
21148SOL    HW269281   0.236   2.411   1.833  0.1453 -0.8546  0.1020
21149SOL     OW69282   1.082   7.971   0.918  0.4822  0.1799 -0.6259
21149SOL    HW169283   1.007   7.989   0.862  1.7411 -0.1066 -2.4651
21149SOL    HW269284   1.115   7.887   0.888  0.9372 -0.1987  0.8627
21150SOL     OW69285  10.829   6.580   1.141 -0.5409 -0.2317 -0.5928
21150SOL    HW169286  10.783   6.516   1.087 -0.6432 -0.5930 -0.0834
21150SOL    HW269287  10.764   6.611   1.204  0.3100 -2.1030  1.3519
21151SOL     OW69288  10.913   5.776   6.425  0.4900 -0.1717  0.2785
21151SOL    HW169289  10.859   5.743   6.498  1.1934  0.7059  1.2269
21151SOL    HW269290  10.972   5.703   6.404 -1.2711 -1.3041 -1.0563
21152SOL     OW69291   7.370   3.717   0.570  0.2324 -0.3448  0.3969
21152SOL    HW169292   7.356   3.806   0.604  0.8094 -0.8812  2.1700
21152SOL    HW269293   7.282   3.682   0.557 -0.0347  1.0495 -2.0230
21153SOL     OW69294   5.508   9.867   2.611  0.1403  0.0498 -0.5088
21153SOL    HW169295   5.424   9.826   2.633  0.0083  0.1416 -0.8361
21153SOL    HW269296   5.496   9.899   2.521  0.9959 -1.1475 -1.0685
21154SOL     OW69297   0.805   3.686   4.068 -0.0196 -0.1466  0.6918
21154SOL    HW169298   0.841   3.695   3.979  1.1066 -1.7547  0.9394
21154SOL    HW269299   0.774   3.774   4.090  0.8936  0.5909 -0.7786
21155SOL     OW69300   2.803   5.185   9.497 -0.0397  0.0808  0.1460
21155SOL    HW169301   2.743   5.242   9.545 -0.1117 -1.0152  1.4128
21155SOL    HW269302   2.883   5.184   9.550  1.1408  1.5061 -1.5121
21156SOL     OW69303   7.060  10.439   9.311 -0.1609  0.3728  0.3641
21156SOL    HW169304   6.978  10.425   9.359  0.6788 -0.7309  1.5307
21156SOL    HW269305   7.033  10.446   9.219 -1.7079  1.5675  0.8581
21157SOL     OW69306   3.911   9.358   3.798 -0.4052 -0.0277  0.0058
21157SOL    HW169307   3.886   9.296   3.867 -0.5312  0.5213  0.4604
21157SOL    HW269308   3.829   9.397   3.770 -0.2346  0.6536  0.4230
21158SOL     OW69309   8.067   2.761   2.100  0.5399 -0.3877 -0.4190
21158SOL    HW169310   8.158   2.761   2.129  0.5947 -0.6771 -0.5847
21158SOL    HW269311   8.029   2.684   2.141  0.1736  0.1257  0.2321
21159SOL     OW69312   9.710   2.971  10.452  1.0745 -0.1125 -0.6843
21159SOL    HW169313   9.663   2.953  10.534  0.1309  1.5218 -0.8368
21159SOL    HW269314   9.667   3.048  10.416  1.1995 -1.0456 -2.9614
21160SOL     OW69315   5.359   2.952  10.484 -0.1695 -0.6713  0.3751
21160SOL    HW169316   5.313   3.036  10.477  0.1659 -0.5755 -0.8263
21160SOL    HW269317   5.415   2.949  10.407 -0.5054 -2.2103  0.1714
21161SOL     OW69318   0.765   6.254   7.057  0.8620  0.2550 -0.2097
21161SOL    HW169319   0.735   6.201   7.131 -0.7681 -0.6467 -1.4427
21161SOL    HW269320   0.704   6.327   7.053 -1.3045 -1.4929 -2.6246
21162SOL     OW69321   1.157   8.954   4.138  0.0510 -0.3701 -0.2151
21162SOL    HW169322   1.164   9.022   4.072  3.3222 -0.3136  0.0526
21162SOL    HW269323   1.063   8.949   4.158 -0.8306  0.8002 -3.5262
21163SOL     OW69324   6.438   6.541   5.520  0.3713  0.3406 -0.2075
21163SOL    HW169325   6.527   6.516   5.544  0.8143  2.7928  1.0426
21163SOL    HW269326   6.436   6.636   5.531 -2.7815  0.2564  1.1571
21164SOL     OW69327   4.223   6.138   1.144 -0.3136 -0.1135  0.1428
21164SOL    HW169328   4.260   6.074   1.206 -1.7587 -0.5608  0.5928
21164SOL    HW269329   4.168   6.085   1.087 -1.7002  0.7422  0.6554
21165SOL     OW69330   5.474   9.663   7.645  0.3644 -0.2276  0.1536
21165SOL    HW169331   5.542   9.726   7.666 -0.0065  0.1773  0.1474
21165SOL    HW269332   5.482   9.648   7.551 -0.2653  0.6665 -0.0522
21166SOL     OW69333   1.603   3.763   8.794  0.0774  0.1163 -0.6699
21166SOL    HW169334   1.606   3.672   8.823 -1.5571  0.2147 -0.0940
21166SOL    HW269335   1.590   3.813   8.874 -2.3173  0.5759 -1.2831
21167SOL     OW69336   9.345   8.871   1.009 -0.5333 -0.4217 -0.4558
21167SOL    HW169337   9.274   8.847   1.069 -0.5451 -0.2720 -0.4090
21167SOL    HW269338   9.326   8.963   0.986 -0.8382 -0.6436 -1.1155
21168SOL     OW69339   2.632   1.627   5.197  0.1644 -0.1723  0.5659
21168SOL    HW169340   2.565   1.695   5.193 -0.4890 -0.8088  0.4221
21168SOL    HW269341   2.690   1.645   5.124  0.0085  0.2435  0.5443
21169SOL     OW69342   8.997   8.634   4.777  0.7167  0.1904  0.4562
21169SOL    HW169343   8.920   8.690   4.775  1.6419  1.4704 -0.3443
21169SOL    HW269344   8.962   8.545   4.769 -0.9948  0.3446  4.1803
21170SOL     OW69345   6.702   6.256   5.359  0.3755 -0.1629 -0.3077
21170SOL    HW169346   6.747   6.293   5.284 -0.5754  0.7096 -0.4779
21170SOL    HW269347   6.668   6.333   5.407 -1.6928 -0.7600 -0.6890
21171SOL     OW69348   4.066   4.833  10.557  0.3826  0.4438  0.0938
21171SOL    HW169349   4.095   4.801  10.643  1.4881  0.5305 -0.2291
21171SOL    HW269350   4.110   4.918  10.548 -0.7724  1.0434  0.0003
21172SOL     OW69351  10.254   7.138   1.940 -0.4957  0.2687 -0.5598
21172SOL    HW169352  10.167   7.124   1.977 -0.2658 -0.3674 -0.2449
21172SOL    HW269353  10.263   7.070   1.873  0.1936 -0.3998  0.1946
21173SOL     OW69354   8.379   6.520   7.990  0.4356 -0.2276 -0.1814
21173SOL    HW169355   8.399   6.598   8.043 -2.0415  0.1756  0.3261
21173SOL    HW269356   8.347   6.456   8.054  1.9795 -1.5170 -0.6611
21174SOL     OW69357   8.757   5.332   1.118 -0.2879 -0.1947 -0.1392
21174SOL    HW169358   8.789   5.279   1.192 -0.3044 -2.0033 -1.3495
21174SOL    HW269359   8.735   5.267   1.051 -0.6340  1.3732 -1.5965
21175SOL     OW69360   4.752   8.517   7.928  0.1620 -0.4604 -0.4977
21175SOL    HW169361   4.716   8.588   7.980  1.8572  0.1666 -0.1013
21175SOL    HW269362   4.844   8.540   7.915  0.1621 -1.3135 -2.5652
21176SOL     OW69363   0.399   7.106   2.751  0.0238  0.0083 -0.1096
21176SOL    HW169364   0.388   7.050   2.674  1.1312 -0.1897 -0.1274
21176SOL    HW269365   0.382   7.195   2.719  1.4006  0.0441 -0.8185
21177SOL     OW69366   9.693   1.544   0.848 -0.5626  0.0803  0.4505
21177SOL    HW169367   9.699   1.523   0.755 -0.7579 -1.5157  0.7722
21177SOL    HW269368   9.783   1.540   0.880 -0.5814 -0.1104  0.4796
21178SOL     OW69369   2.328   4.786   6.761  0.0139 -0.0878 -0.5647
21178SOL    HW169370   2.372   4.800   6.845  0.7030 -0.3944 -0.8684
21178SOL    HW269371   2.257   4.851   6.761 -1.0027 -1.1173  0.9270
21179SOL     OW69372   7.121   5.836   4.679  0.0005 -0.1703 -0.2935
21179SOL    HW169373   7.129   5.835   4.775  0.5961 -0.6726 -0.3432
21179SOL    HW269374   7.135   5.927   4.655 -1.9782  0.3084  0.2363
21180SOL     OW69375   2.449  10.526   0.029  0.3564 -0.2102  0.3274
21180SOL    HW169376   2.417  10.541   0.118  0.4083  0.7579  0.1908
21180SOL    HW269377   2.370  10.513  -0.023  0.3428 -1.2651  0.5870
21181SOL     OW69378   9.334   9.860   6.392 -0.1683 -0.1973 -0.3281
21181SOL    HW169379   9.380   9.776   6.394 -1.7141 -1.0962 -0.9572
21181SOL    HW269380   9.360   9.899   6.309  0.3351 -0.1708 -0.1627
21182SOL     OW69381   4.843   2.735  10.054  0.3115 -0.3761 -0.6392
21182SOL    HW169382   4.913   2.681  10.089  0.3501 -1.5639 -2.4486
21182SOL    HW269383   4.850   2.818  10.102  1.4872 -1.2641  0.7992
21183SOL     OW69384   5.999   4.649   3.304  0.0044 -0.0241 -0.2048
21183SOL    HW169385   6.010   4.728   3.356  2.2383 -0.1514 -0.3799
21183SOL    HW269386   5.961   4.585   3.364 -0.3358  0.7104  0.3729
21184SOL     OW69387   4.941   2.104   2.116  0.3344  0.5636  0.2957
21184SOL    HW169388   4.882   2.034   2.088 -1.5994  1.5578  1.6674
21184SOL    HW269389   4.990   2.127   2.037 -0.5012 -0.8762 -0.6943
21185SOL     OW69390   0.127   8.253   7.171  0.0952  0.8232 -0.0399
21185SOL    HW169391   0.042   8.221   7.202  0.3215  1.5644  1.4268
21185SOL    HW269392   0.106   8.323   7.109 -0.3773 -1.0510 -2.1211
21186SOL     OW69393   8.574   4.664   4.579 -0.3742  0.4459  0.1629
21186SOL    HW169394   8.500   4.608   4.557  0.5434 -0.6631 -0.2411
21186SOL    HW269395   8.569   4.675   4.674 -0.1975 -0.9414  0.3642
21187SOL     OW69396   4.623   0.871   5.735 -0.1181  0.2560 -0.2165
21187SOL    HW169397   4.551   0.926   5.765 -1.2574 -1.2284 -0.0953
21187SOL    HW269398   4.645   0.906   5.648 -0.5176  1.1521  0.0321
21188SOL     OW69399   1.043   4.238   4.892  0.2971 -0.6161  0.4201
21188SOL    HW169400   1.009   4.156   4.856  0.8152 -0.1979 -1.1039
21188SOL    HW269401   1.125   4.252   4.845  0.5357  0.4468  1.1322
21189SOL     OW69402  10.748   7.384  10.621 -0.0691 -0.3628 -0.1827
21189SOL    HW169403  10.842   7.406  10.627 -0.0691  0.3992 -2.1639
21189SOL    HW269404  10.704   7.469  10.618 -0.7323 -0.7058 -0.3200
21190SOL     OW69405   1.910   6.252   8.255 -0.5104 -0.1938 -0.4037
21190SOL    HW169406   1.928   6.166   8.293 -0.1010 -0.1283 -0.4437
21190SOL    HW269407   1.995   6.295   8.252 -1.1832  1.7038  3.1517
21191SOL     OW69408   2.295   8.164   1.363  0.2338 -0.5361  0.3319
21191SOL    HW169409   2.207   8.129   1.349  0.3412 -0.8267  0.3803
21191SOL    HW269410   2.294   8.192   1.455  0.7861 -2.2792  0.8981
21192SOL     OW69411   9.104   9.302   7.365  0.1957  0.2644  0.1208
21192SOL    HW169412   9.068   9.273   7.449 -1.1724  0.4302 -0.4007
21192SOL    HW269413   9.040   9.365   7.331  0.8238  0.3438 -0.9678
21193SOL     OW69414   9.067   2.979  10.540 -0.1792 -0.6964 -0.1737
21193SOL    HW169415   9.073   2.886  10.559  0.0353 -0.8066 -0.7827
21193SOL    HW269416   9.091   2.987  10.448  1.1893  0.1111  0.2194
21194SOL     OW69417  10.047   3.510   0.167 -0.2493  0.5266  0.4600
21194SOL    HW169418  10.082   3.565   0.097  1.8467  0.2603  1.2113
21194SOL    HW269419  10.046   3.422   0.130  2.8791  0.0004  1.2625
21195SOL     OW69420   7.204   3.937   7.545  0.3129  0.0315 -0.0155
21195SOL    HW169421   7.121   3.893   7.525  1.0130 -1.8523  1.0306
21195SOL    HW269422   7.185   3.990   7.622 -0.5136  1.5910 -1.2299
21196SOL     OW69423   7.011   7.056   4.563 -0.4442  0.6572 -0.1875
21196SOL    HW169424   7.087   7.033   4.510 -0.0876 -2.6644  1.5037
21196SOL    HW269425   6.940   7.002   4.528 -0.6861 -0.0887  1.3644
21197SOL     OW69426   7.154  10.289   5.845 -0.2490 -0.2792 -0.3484
21197SOL    HW169427   7.226  10.321   5.791 -0.2150  0.6843  0.2311
21197SOL    HW269428   7.082  10.274   5.783 -0.4705  1.5695 -0.6202
21198SOL     OW69429   9.265   0.797   2.053 -0.4390 -0.5181  0.2689
21198SOL    HW169430   9.318   0.763   1.981 -1.8753 -3.0374  0.2587
21198SOL    HW269431   9.175   0.776   2.029 -1.3501  2.0616  1.0745
21199SOL     OW69432   6.694   3.913   2.998 -0.2419 -0.4014 -0.0046
21199SOL    HW169433   6.679   3.833   3.048 -0.1864 -0.5362 -0.2008
21199SOL    HW269434   6.743   3.884   2.921  0.6892 -0.0274  0.4265
21200SOL     OW69435  10.618   1.649   2.088 -0.2766  0.0308  0.1486
21200SOL    HW169436  10.671   1.645   2.168 -0.4061 -0.8998  0.1997
21200SOL    HW269437  10.661   1.588   2.028  0.8359  1.9923 -1.1347
21201SOL     OW69438   1.305   8.525   2.908  0.0585 -0.8017 -0.4867
21201SOL    HW169439   1.389   8.541   2.951 -0.6126  0.4642  0.4433
21201SOL    HW269440   1.246   8.592   2.945 -1.7470 -2.5681  0.0144
21202SOL     OW69441   9.886   3.965   3.991 -0.2015  0.1031  0.2625
21202SOL    HW169442   9.939   3.922   4.058 -0.7891  2.6459  2.5702
21202SOL    HW269443   9.946   3.981   3.919  0.6175 -2.1902  0.3590
21203SOL     OW69444   5.229   0.772   0.395  0.0273 -0.4949  0.4085
21203SOL    HW169445   5.149   0.812   0.361  1.5989  0.8128 -2.0667
21203SOL    HW269446   5.236   0.689   0.347  1.6414  0.8104 -1.7959
21204SOL     OW69447   7.056   0.660   1.256  0.4606  0.4257 -0.1774
21204SOL    HW169448   7.142   0.619   1.266 -0.4256 -1.6596 -0.6576
21204SOL    HW269449   7.053   0.687   1.165 -0.2444 -1.6496 -0.8106
21205SOL     OW69450   8.946   6.572   5.032 -0.2159 -0.2301 -0.2866
21205SOL    HW169451   8.910   6.630   4.965 -3.7523 -1.9957 -0.1401
21205SOL    HW269452   8.884   6.577   5.104  0.3400 -2.7465  0.4705
21206SOL     OW69453   2.043   3.784   7.735 -0.0142 -0.0013  0.6990
21206SOL    HW169454   1.959   3.776   7.689 -0.5128  1.0229  1.3789
21206SOL    HW269455   2.106   3.807   7.667 -0.7978  1.8146  0.5288
21207SOL     OW69456   2.368   4.037   9.166  0.4712 -0.3267 -0.0047
21207SOL    HW169457   2.327   4.123   9.150  1.1513  0.3884  1.8461
21207SOL    HW269458   2.299   3.974   9.147 -0.8758  0.7531  1.0879
21208SOL     OW69459   6.269   5.306   9.401  0.1096 -0.2237 -0.0865
21208SOL    HW169460   6.331   5.291   9.472  1.9742  1.5587 -1.2412
21208SOL    HW269461   6.189   5.259   9.429  0.7625  0.3229  3.0994
21209SOL     OW69462   2.850   0.858   6.185 -0.2934 -0.0177 -0.6012
21209SOL    HW169463   2.901   0.881   6.107 -0.4054 -0.1931 -0.7273
21209SOL    HW269464   2.907   0.798   6.233  1.5891  3.2497  1.6008
21210SOL     OW69465   0.593   4.247   1.058 -1.0111  0.5953  0.2141
21210SOL    HW169466   0.644   4.293   0.992 -0.8064 -1.8801 -1.4855
21210SOL    HW269467   0.624   4.282   1.142  1.1767  1.4408 -0.8792
21211SOL     OW69468   2.469   5.924   9.432  0.4065 -0.6201  0.0902
21211SOL    HW169469   2.496   5.834   9.414 -0.0683 -0.7809  0.1634
21211SOL    HW269470   2.373   5.920   9.433  0.3893 -0.1689  0.3674
21212SOL     OW69471   6.618   8.439   6.946  0.3496 -0.2625  0.0369
21212SOL    HW169472   6.565   8.481   7.014  0.8888  1.9253 -0.8198
21212SOL    HW269473   6.696   8.494   6.939  0.5652 -0.7618 -1.9600
21213SOL     OW69474   8.711   6.818   1.982  0.1457 -0.3543  0.1759
21213SOL    HW169475   8.758   6.775   2.054  0.4642  2.9459  2.1181
21213SOL    HW269476   8.646   6.753   1.954 -0.8223 -1.4571  4.2735
21214SOL     OW69477   9.711   8.258   5.712  0.0036 -1.1527  0.3001
21214SOL    HW169478   9.657   8.318   5.763 -2.0258 -1.5261 -1.2487
21214SOL    HW269479   9.657   8.180   5.701  0.5884 -1.3365 -1.8111
21215SOL     OW69480   4.355   6.768   2.421  0.0541 -0.4584  0.0556
21215SOL    HW169481   4.448   6.791   2.418  0.3530 -1.6887 -1.0755
21215SOL    HW269482   4.340   6.739   2.511  0.3271  1.3700  0.7316
21216SOL     OW69483   5.237   8.062   0.797 -0.1884 -0.4376  0.2873
21216SOL    HW169484   5.294   7.985   0.791  1.1286  0.5123  0.0253
21216SOL    HW269485   5.225   8.090   0.706 -2.1626 -1.3449  0.2224
21217SOL     OW69486  10.113   5.257  10.629 -0.2862 -0.2901  0.2777
21217SOL    HW169487  10.074   5.275  10.714 -1.5902 -1.6133 -0.0109
21217SOL    HW269488  10.061   5.185  10.593  0.4549  0.0064 -1.4869
21218SOL     OW69489   0.268   3.524   2.042 -0.3007 -0.1433  0.1213
21218SOL    HW169490   0.269   3.564   2.128  1.8001 -3.6275  1.9629
21218SOL    HW269491   0.208   3.451   2.049 -1.4050  0.4705 -1.9878
21219SOL     OW69492   7.505   7.708   3.944  0.2840 -0.0541 -0.1201
21219SOL    HW169493   7.456   7.628   3.924 -1.7517  1.7197 -3.0766
21219SOL    HW269494   7.437   7.775   3.958  1.9094  1.3049  1.8748
21220SOL     OW69495  10.105   5.534   0.531 -0.5401  0.2729 -0.0727
21220SOL    HW169496  10.186   5.584   0.544  0.1741 -1.1714  1.4375
21220SOL    HW269497  10.116   5.493   0.446 -0.1045  0.8184 -0.2902
21221SOL     OW69498   2.444   9.541  10.811  0.3063  0.1715  0.2030
21221SOL    HW169499   2.490   9.550  10.728 -0.9134 -0.2749 -0.5546
21221SOL    HW269500   2.469   9.618  10.861  2.1222 -0.2187 -0.0259
21222SOL     OW69501   7.622   8.800   9.667 -0.4054  0.2259 -0.0103
21222SOL    HW169502   7.539   8.789   9.621  0.1660 -1.0070 -0.7905
21222SOL    HW269503   7.688   8.762   9.609  0.2772 -1.9540  2.0270
21223SOL     OW69504   9.334   3.912   8.622  0.4399  0.1589 -0.7727
21223SOL    HW169505   9.258   3.896   8.677 -0.4388  0.2828 -1.9169
21223SOL    HW269506   9.399   3.848   8.651 -0.8185 -1.3232 -1.1274
21224SOL     OW69507   7.988  10.141   3.151 -0.2305 -0.4439  0.1563
21224SOL    HW169508   8.043  10.218   3.165 -0.1650 -0.9633  3.4875
21224SOL    HW269509   7.903  10.178   3.124  0.3618  0.6472 -0.2841
21225SOL     OW69510  10.640   5.197   0.879  0.2556  0.7426  0.1879
21225SOL    HW169511  10.666   5.211   0.970  2.0576  3.0840 -0.5657
21225SOL    HW269512  10.638   5.102   0.868 -0.3992  0.3978  2.7363
21226SOL     OW69513   1.821   6.185   5.174  0.3527  0.3576 -0.1429
21226SOL    HW169514   1.814   6.093   5.147  1.0976  0.5202 -0.9322
21226SOL    HW269515   1.771   6.234   5.109 -1.0778  0.4225  0.9641
21227SOL     OW69516   0.031   9.530   3.369  0.0964 -0.4591  0.3959
21227SOL    HW169517   0.021   9.470   3.295 -1.7102 -0.2492  0.4125
21227SOL    HW269518   0.026   9.475   3.446 -0.6544 -0.4100  0.3922
21228SOL     OW69519   1.555   6.890   7.995 -0.5670  0.3916  0.3982
21228SOL    HW169520   1.636   6.861   7.952 -1.1889 -0.9764  0.0897
21228SOL    HW269521   1.556   6.985   7.987  0.3327  0.3023 -0.8463
21229SOL     OW69522   8.171   3.206   6.510 -0.0060 -0.2209  0.3481
21229SOL    HW169523   8.184   3.113   6.491 -0.1746 -0.2930  0.5807
21229SOL    HW269524   8.199   3.217   6.600 -1.8256 -0.4567  0.9791
21230SOL     OW69525   1.021   1.856   2.465  0.0770  0.4863  0.3374
21230SOL    HW169526   1.074   1.880   2.541 -1.5668  2.1500  1.0387
21230SOL    HW269527   0.954   1.925   2.459 -0.1126  0.1974 -2.3877
21231SOL     OW69528   1.530   1.119   7.183 -0.0502 -0.2683 -0.6532
21231SOL    HW169529   1.498   1.091   7.097 -1.1499 -1.8191  0.2168
21231SOL    HW269530   1.606   1.064   7.198  0.5114  0.4295 -0.8636
21232SOL     OW69531   3.000   1.783   3.770 -0.2165 -0.3543 -0.3695
21232SOL    HW169532   3.087   1.747   3.754 -0.5865 -1.0840 -0.8087
21232SOL    HW269533   3.004   1.872   3.735  0.4512 -0.2674 -0.0786
21233SOL     OW69534   9.527   2.433   3.824 -0.0285 -0.1537  0.0271
21233SOL    HW169535   9.563   2.501   3.880  2.6478 -0.6156 -0.9869
21233SOL    HW269536   9.604   2.385   3.792 -1.5519 -1.1475 -2.4439
21234SOL     OW69537   0.100   8.177   0.287  0.3351 -0.2331 -0.2421
21234SOL    HW169538   0.050   8.249   0.249 -0.2541  0.4803  1.7357
21234SOL    HW269539   0.046   8.099   0.271 -0.4995  0.2423  0.1697
21235SOL     OW69540   6.780  10.349   8.520  0.5764  0.1833  0.7101
21235SOL    HW169541   6.700  10.356   8.469  0.3723 -2.0197  0.6523
21235SOL    HW269542   6.751  10.346   8.611  0.3610 -2.5251  0.6232
21236SOL     OW69543   0.872   7.473   2.908 -0.2953 -0.6683  0.1198
21236SOL    HW169544   0.962   7.446   2.888 -0.9398 -2.0857 -1.0316
21236SOL    HW269545   0.874   7.569   2.902  0.8693 -0.7407 -1.1526
21237SOL     OW69546   1.232   6.348   2.033 -0.1965  0.8427  0.0755
21237SOL    HW169547   1.303   6.409   2.053 -1.2056  2.3474 -0.7074
21237SOL    HW269548   1.170   6.400   1.982 -0.7854 -1.0561 -1.2323
21238SOL     OW69549   3.788  10.617   3.689  0.2808  0.4512 -0.0187
21238SOL    HW169550   3.800  10.707   3.716  1.9303 -0.3379  2.1316
21238SOL    HW269551   3.706  10.590   3.731  0.3487  0.6291  0.2271
21239SOL     OW69552  10.519   0.130   9.807 -0.0067 -0.4190  0.1611
21239SOL    HW169553  10.504   0.037   9.827 -0.0390 -0.4776 -0.1328
21239SOL    HW269554  10.491   0.176   9.887  0.1790 -0.6726  0.3745
21240SOL     OW69555   2.166   1.365   8.799 -0.3234 -0.1793  0.0884
21240SOL    HW169556   2.260   1.383   8.805 -0.2108 -0.6933 -0.0533
21240SOL    HW269557   2.152   1.290   8.857 -0.7519  0.2523  0.5552
21241SOL     OW69558   5.325   0.779   7.931  0.0084  0.6842 -0.7369
21241SOL    HW169559   5.277   0.731   7.999  0.8123 -1.7558 -1.7539
21241SOL    HW269560   5.344   0.864   7.969 -1.3332  0.1300  1.3010
21242SOL     OW69561   6.793   3.230   8.411 -0.2878 -0.2211  0.0263
21242SOL    HW169562   6.778   3.269   8.498  1.0585  0.5305 -0.0567
21242SOL    HW269563   6.856   3.160   8.428 -2.1302 -1.9520  0.0566
21243SOL     OW69564   4.656   0.340   7.568 -0.2192 -0.0751  0.5013
21243SOL    HW169565   4.716   0.265   7.562 -1.0974 -0.6720 -1.7457
21243SOL    HW269566   4.712   0.416   7.553  0.7676 -0.1613  3.2749
21244SOL     OW69567   8.208   7.680   1.275 -0.2269 -0.4401  0.1304
21244SOL    HW169568   8.251   7.612   1.328 -1.8368  0.0602  2.2119
21244SOL    HW269569   8.205   7.756   1.333 -1.7394  0.2588 -0.8237
21245SOL     OW69570   3.230   0.361   4.401  0.3369  0.1723 -0.1403
21245SOL    HW169571   3.256   0.397   4.486  0.8359  1.2126 -0.7031
21245SOL    HW269572   3.187   0.278   4.422 -2.1088  1.6784  1.3503
21246SOL     OW69573   3.598   2.079   8.568 -0.3252  0.2315 -0.5939
21246SOL    HW169574   3.529   2.015   8.584  0.8119 -0.8061  0.4191
21246SOL    HW269575   3.595   2.137   8.644  0.7838 -0.6752  0.1851
21247SOL     OW69576   2.016   6.751   5.933 -0.1369 -0.3371 -0.1754
21247SOL    HW169577   2.032   6.690   6.005  1.8996  0.6403  0.2363
21247SOL    HW269578   2.065   6.714   5.860 -2.0889 -1.2545 -1.1105
21248SOL     OW69579   9.236   2.371   2.060 -0.5355 -0.0095 -0.2884
21248SOL    HW169580   9.157   2.381   2.007 -1.8226  0.2049  1.5509
21248SOL    HW269581   9.242   2.277   2.076  0.3419 -0.1741 -1.4649
21249SOL     OW69582   4.719   1.112   1.270 -0.2660 -0.4065  0.5650
21249SOL    HW169583   4.774   1.068   1.205  1.7866  0.7177  1.4277
21249SOL    HW269584   4.652   1.047   1.292  2.0615 -2.8312  1.1234
21250SOL     OW69585   3.861  10.706   2.690  0.2791  0.1153  1.0058
21250SOL    HW169586   3.855  10.707   2.786  1.2214  1.6563  1.0716
21250SOL    HW269587   3.954  10.695   2.672  0.2087  0.7048  0.2751
21251SOL     OW69588   1.809   2.590   0.942 -0.5481  0.7026  0.8543
21251SOL    HW169589   1.780   2.668   0.896 -0.6020  0.7037  0.8912
21251SOL    HW269590   1.729   2.543   0.963 -0.4576 -0.8482 -1.7662
21252SOL     OW69591  10.029   3.152   3.213  0.3601  0.2059  0.0415
21252SOL    HW169592  10.080   3.071   3.214  1.3233  0.7275 -2.0258
21252SOL    HW269593   9.952   3.132   3.161 -0.2188  0.1910  0.8814
21253SOL     OW69594   6.567   3.600   6.246 -0.0627  0.2682 -0.0689
21253SOL    HW169595   6.498   3.629   6.306 -0.2297  0.2175 -0.2363
21253SOL    HW269596   6.614   3.533   6.296  0.6716  1.1911  0.5290
21254SOL     OW69597   8.579   8.784   9.819 -0.1148 -0.2747 -0.0296
21254SOL    HW169598   8.515   8.755   9.754 -0.3120 -1.7795  0.7625
21254SOL    HW269599   8.595   8.876   9.799 -2.1831  0.0329 -0.5461
21255SOL     OW69600   9.763   6.965   5.048  0.8329  0.3881  0.3365
21255SOL    HW169601   9.709   6.921   5.115  1.2170 -1.2233 -0.3516
21255SOL    HW269602   9.701   6.986   4.978  0.6596  0.8970  0.6371
21256SOL     OW69603   7.238   4.169   8.206 -0.0341  0.2234  0.1332
21256SOL    HW169604   7.277   4.226   8.272  0.6296  0.4628 -0.4532
21256SOL    HW269605   7.170   4.122   8.253 -1.0262  1.9292  0.5082
21257SOL     OW69606   2.581   9.808   7.080 -0.4170 -0.0770  0.1742
21257SOL    HW169607   2.658   9.755   7.059 -0.3590 -0.4905  1.3554
21257SOL    HW269608   2.617   9.893   7.105 -0.4452  0.1936 -0.6699
21258SOL     OW69609   7.124   5.070   8.190 -0.0170 -0.2625 -0.0006
21258SOL    HW169610   7.085   5.147   8.148  0.1776  0.0744  0.4257
21258SOL    HW269611   7.063   5.047   8.260  0.3112 -0.0157  0.3728
21259SOL     OW69612   0.748   1.239   1.305  0.1081 -0.5437 -0.4267
21259SOL    HW169613   0.670   1.194   1.272 -0.0529 -0.2298 -0.4767
21259SOL    HW269614   0.794   1.172   1.356 -1.3919 -0.1490  1.6147
21260SOL     OW69615  10.593   0.803   9.185 -0.0334  0.4978 -0.1082
21260SOL    HW169616  10.513   0.788   9.134  0.2042  0.7274 -0.5584
21260SOL    HW269617  10.588   0.895   9.212 -0.4526  0.2157  0.8132
21261SOL     OW69618   5.798  10.095   8.421 -0.1342  0.1412 -0.1109
21261SOL    HW169619   5.822  10.055   8.505 -0.9848  0.7840  0.4566
21261SOL    HW269620   5.707  10.124   8.434  0.4277  2.2188 -0.4934
21262SOL     OW69621   3.333   3.792   7.561 -0.1018  0.1809  0.1599
21262SOL    HW169622   3.389   3.800   7.638  0.4195 -2.4957  0.1385
21262SOL    HW269623   3.298   3.703   7.566  0.7432 -0.4594 -3.2176
21263SOL     OW69624   0.394   8.370   3.113 -0.0248  0.4457 -0.3571
21263SOL    HW169625   0.354   8.364   3.026  0.6279 -0.3736 -0.6132
21263SOL    HW269626   0.416   8.279   3.135 -3.2999  0.0723  2.1686
21264SOL     OW69627   4.692   1.973   6.026 -0.6699  0.5210 -1.0720
21264SOL    HW169628   4.623   1.916   5.992  0.0643 -1.4966  0.6484
21264SOL    HW269629   4.768   1.916   6.037  0.8985  2.3887 -1.6017
21265SOL     OW69630  10.843   6.981   3.289 -0.2135  0.2167  0.1041
21265SOL    HW169631  10.882   6.894   3.280  3.1233  1.4712  0.7122
21265SOL    HW269632  10.881   7.031   3.216 -2.8818  0.9950 -0.8724
21266SOL     OW69633   3.726  10.005   6.339 -0.1314 -0.6769 -0.1213
21266SOL    HW169634   3.786  10.010   6.265  0.3525 -1.3083  0.2193
21266SOL    HW269635   3.772  10.049   6.411 -1.3809  1.6984 -0.6518
21267SOL     OW69636   4.083  10.025   8.671  0.2598 -0.3453 -0.3794
21267SOL    HW169637   4.022  10.081   8.717  0.0559 -1.4665  0.7647
21267SOL    HW269638   4.029   9.976   8.608  0.4235  0.6225 -1.3068
21268SOL     OW69639   4.781   8.537   1.262  0.4315 -0.0858  0.3657
21268SOL    HW169640   4.790   8.632   1.249 -1.0770 -0.0863 -0.9976
21268SOL    HW269641   4.805   8.499   1.177  0.0189 -0.8561  0.5882
21269SOL     OW69642   4.864   5.344   0.607 -0.3641 -1.1904 -0.3552
21269SOL    HW169643   4.954   5.364   0.634 -0.8960  1.0975 -0.0537
21269SOL    HW269644   4.814   5.344   0.688 -0.8125 -1.4147 -0.6294
21270SOL     OW69645   4.740   3.983   0.045  0.5872 -0.4101  0.0664
21270SOL    HW169646   4.650   3.998   0.017 -0.0160 -1.3059  1.3995
21270SOL    HW269647   4.732   3.959   0.138  2.1057 -1.4925 -0.0498
21271SOL     OW69648   9.126   2.960   6.078 -0.9798 -0.3088  0.2991
21271SOL    HW169649   9.108   3.040   6.030 -0.5310 -0.1917  0.3201
21271SOL    HW269650   9.058   2.899   6.051 -0.4398 -0.4126 -0.8881
21272SOL     OW69651   1.904   9.349   4.166 -0.0808  0.1583  0.1075
21272SOL    HW169652   1.810   9.338   4.173  0.0616 -1.8263 -0.5141
21272SOL    HW269653   1.931   9.286   4.098  1.6462  0.8867  0.0527
21273SOL     OW69654  10.557   3.993   9.460 -0.3433  0.6648  0.1067
21273SOL    HW169655  10.566   4.021   9.369 -0.5005 -0.2285 -0.1976
21273SOL    HW269656  10.641   4.016   9.500  0.0133  0.3922 -0.4628
21274SOL     OW69657  10.673   9.335   0.520  0.0778  0.0798  0.1719
21274SOL    HW169658  10.677   9.240   0.531  0.0807  0.0956  0.3136
21274SOL    HW269659  10.725   9.352   0.441  0.5184  0.0124  0.4406
21275SOL     OW69660   9.471   8.461   4.801  0.4683  0.5275 -0.1029
21275SOL    HW169661   9.384   8.423   4.790  0.3742  0.8867 -0.6290
21275SOL    HW269662   9.532   8.390   4.777  0.2919  0.7973 -1.4055
21276SOL     OW69663   0.454   9.514  10.016 -0.1515  0.5126  0.6475
21276SOL    HW169664   0.473   9.553   9.931  1.2920  1.6860  1.4664
21276SOL    HW269665   0.482   9.423  10.008  0.8947  0.8691  0.1604
21277SOL     OW69666   4.458   3.673   4.523 -0.5598  0.0323  0.2060
21277SOL    HW169667   4.503   3.610   4.579  0.6569  0.5873 -0.1221
21277SOL    HW269668   4.405   3.725   4.584  0.5251  0.4382  0.8255
21278SOL     OW69669   3.616   4.964   0.417  0.1428  0.3008  0.3524
21278SOL    HW169670   3.686   4.911   0.379 -0.0520 -0.5886  1.1851
21278SOL    HW269671   3.633   4.961   0.512  0.2792  1.9674  0.4266
21279SOL     OW69672  10.654   2.392   5.201 -0.3486  0.2097  0.4801
21279SOL    HW169673  10.657   2.368   5.294  0.1238  2.0367  0.9785
21279SOL    HW269674  10.724   2.340   5.161  0.0922  0.1192  1.3381
21280SOL     OW69675   3.347  10.097   4.716  0.2834  0.4612 -0.1295
21280SOL    HW169676   3.272  10.144   4.751  0.1560 -0.8744  1.5045
21280SOL    HW269677   3.309  10.030   4.659  0.1561 -0.6116  1.1758
21281SOL     OW69678   5.801   2.583   6.302  0.1809  0.2835  0.3553
21281SOL    HW169679   5.797   2.663   6.354 -2.6148  0.0875  0.6198
21281SOL    HW269680   5.710   2.555   6.293  1.0030 -2.7501  0.0336
21282SOL     OW69681   2.202   1.101   9.969 -0.3771  0.7211  0.2350
21282SOL    HW169682   2.110   1.129   9.970 -0.2766  1.0737 -0.0960
21282SOL    HW269683   2.242   1.153   9.900  0.0315  0.4288  0.2483
21283SOL     OW69684  10.028   2.234   8.962  0.2002  0.0726  0.6800
21283SOL    HW169685  10.039   2.139   8.964 -1.6199 -0.1806  0.4594
21283SOL    HW269686   9.998   2.253   8.873  5.0286  1.5091 -0.9426
21284SOL     OW69687   5.823   7.448   7.628  0.3705  0.9422 -0.3111
21284SOL    HW169688   5.914   7.450   7.656 -0.2089  0.9366  1.7414
21284SOL    HW269689   5.811   7.362   7.588  0.7046  0.0012  1.5379
21285SOL     OW69690   8.558   0.537   2.715  0.2458  0.0813 -0.4420
21285SOL    HW169691   8.511   0.525   2.633  1.3182 -0.9830 -0.9432
21285SOL    HW269692   8.590   0.627   2.712 -1.3316  0.6637 -0.2953
21286SOL     OW69693   5.416  10.195   3.532 -0.1273  0.1579 -0.0591
21286SOL    HW169694   5.373  10.216   3.615  2.2146  1.0265  1.0219
21286SOL    HW269695   5.460  10.112   3.548 -0.2069  0.0014 -0.6506
21287SOL     OW69696   9.390   6.701   9.445 -0.1453  0.0491 -0.2633
21287SOL    HW169697   9.408   6.772   9.507 -0.6219 -1.0083  1.1573
21287SOL    HW269698   9.425   6.622   9.488  0.0879 -0.6308 -1.6512
21288SOL     OW69699   6.576  10.791   2.968  0.2550  0.0808  0.3582
21288SOL    HW169700   6.539  10.789   2.879  2.6743  1.6344 -0.7863
21288SOL    HW269701   6.584  10.699   2.992 -1.1055 -0.3587 -0.7074
21289SOL     OW69702   4.441   1.020   2.450 -0.6331 -0.1730 -0.2895
21289SOL    HW169703   4.391   0.939   2.463 -0.9507  0.3338  2.1312
21289SOL    HW269704   4.520   1.008   2.503 -0.1067  0.6280 -0.8687
21290SOL     OW69705  10.888   2.688  10.606 -0.3974  1.1014 -0.2717
21290SOL    HW169706  10.796   2.674  10.584 -0.9598  2.4741  1.0547
21290SOL    HW269707  10.886   2.742  10.685  1.5519  0.9667 -0.0887
21291SOL     OW69708   3.710   2.274   5.523  0.7317  0.1304 -0.6113
21291SOL    HW169709   3.704   2.225   5.441 -0.8092 -0.3906 -0.2265
21291SOL    HW269710   3.746   2.359   5.498 -0.3549  0.2298 -1.9470
21292SOL     OW69711   5.627   8.689   3.790 -0.0239 -0.1365 -0.0709
21292SOL    HW169712   5.624   8.597   3.815  1.8010 -0.4546 -0.8109
21292SOL    HW269713   5.587   8.692   3.703 -1.9513  0.1460  0.7955
21293SOL     OW69714   5.734   6.491   1.724  0.2253 -0.0418 -0.4796
21293SOL    HW169715   5.781   6.542   1.658  0.4186  0.5487  0.0989
21293SOL    HW269716   5.642   6.513   1.711  0.2255 -0.2029 -0.7748
21294SOL     OW69717   1.133  10.706   5.297  0.4191  0.5680  0.0192
21294SOL    HW169718   1.144  10.726   5.390 -0.0078  1.2230 -0.0688
21294SOL    HW269719   1.112  10.613   5.294  3.5792 -0.2871  0.3705
21295SOL     OW69720   3.407   2.811   2.277  0.2887  0.0003  0.1263
21295SOL    HW169721   3.366   2.731   2.310 -0.1919  0.1787 -0.0252
21295SOL    HW269722   3.389   2.877   2.345  0.7497 -0.0376  0.2870
21296SOL     OW69723   6.551   1.334   9.743 -0.4418 -0.4292 -0.6267
21296SOL    HW169724   6.467   1.335   9.789 -0.2514  1.0468 -0.2763
21296SOL    HW269725   6.610   1.384   9.799 -0.0331  0.8597 -2.1457
21297SOL     OW69726   2.793   2.492   6.504  0.1029 -0.0959 -0.2444
21297SOL    HW169727   2.801   2.533   6.591 -1.6471 -0.2962  0.0358
21297SOL    HW269728   2.834   2.407   6.514 -0.2626 -0.1991  0.4612
21298SOL     OW69729   1.827   5.477   6.899  0.1975  0.0784  0.0180
21298SOL    HW169730   1.817   5.568   6.928  0.5012  0.3260 -0.6316
21298SOL    HW269731   1.751   5.461   6.843  0.2768  0.0236 -0.0760
21299SOL     OW69732   5.401   3.292   3.006 -0.1465  0.2339  0.2159
21299SOL    HW169733   5.321   3.279   2.955 -0.9266  0.6979  1.2734
21299SOL    HW269734   5.415   3.387   3.006  0.0877  0.2027  0.4843
21300SOL     OW69735   3.179   5.045   1.058  0.7409  0.2892 -0.0393
21300SOL    HW169736   3.262   5.040   1.012  0.0253  1.1052 -1.5079
21300SOL    HW269737   3.202   5.068   1.148  2.1000  0.2847 -0.3684
21301SOL     OW69738   1.889   1.682   6.607 -0.4267  0.1958 -0.2662
21301SOL    HW169739   1.844   1.764   6.585 -0.4516  0.3397  0.2963
21301SOL    HW269740   1.919   1.648   6.523  0.6863  1.4251 -0.3964
21302SOL     OW69741   4.554   6.043   7.236 -0.0445  0.2167  0.1334
21302SOL    HW169742   4.460   6.037   7.250 -0.3065  0.8846 -1.2023
21302SOL    HW269743   4.564   6.065   7.144  1.4366 -0.1728  0.1628
21303SOL     OW69744   3.541   4.085   6.050  0.3451 -0.0033 -0.0320
21303SOL    HW169745   3.554   4.005   6.102  1.2013  1.5094  2.2464
21303SOL    HW269746   3.446   4.091   6.039  0.3190 -2.5304 -2.3977
21304SOL     OW69747  10.412   5.797   9.105  0.1184  0.1896 -0.1498
21304SOL    HW169748  10.460   5.874   9.138 -1.0298  0.3850  1.1414
21304SOL    HW269749  10.320   5.823   9.108 -0.2029 -0.7961 -0.9524
21305SOL     OW69750   5.708   2.128   4.801  0.2171 -0.1322  0.1045
21305SOL    HW169751   5.645   2.194   4.831  0.2997 -0.0046  0.0022
21305SOL    HW269752   5.705   2.059   4.867 -1.0502 -0.7828 -0.5961
21306SOL     OW69753   2.202   4.630   9.641 -0.3529 -0.0655 -0.2364
21306SOL    HW169754   2.215   4.555   9.700 -0.6725  0.6587  0.7824
21306SOL    HW269755   2.168   4.699   9.697 -2.3955  0.1253 -1.5781
21307SOL     OW69756   7.820   0.506   6.333  0.7494 -0.5869 -0.3117
21307SOL    HW169757   7.829   0.426   6.281  1.1221 -1.2754  0.7851
21307SOL    HW269758   7.764   0.481   6.406  0.6531  0.2372 -0.0890
21308SOL     OW69759   0.275   5.286  10.433 -0.0900  0.2591  0.5967
21308SOL    HW169760   0.267   5.215  10.497 -2.2722 -0.4158 -0.3108
21308SOL    HW269761   0.348   5.261  10.378 -0.3267 -0.8831  0.7819
21309SOL     OW69762   0.478   0.403   7.673 -0.5726  0.2110  0.5480
21309SOL    HW169763   0.563   0.371   7.702 -0.7456 -1.0410 -0.2550
21309SOL    HW269764   0.416   0.367   7.736 -0.6136  0.2343  0.5213
21310SOL     OW69765   5.797  10.556   9.431 -0.0288  0.6128 -0.1099
21310SOL    HW169766   5.860  10.551   9.359  0.6598 -1.0826  0.5497
21310SOL    HW269767   5.813  10.477   9.482 -0.5964  1.6774  1.8271
21311SOL     OW69768   4.420  10.376   7.676  0.0425 -0.0003 -0.2672
21311SOL    HW169769   4.406  10.339   7.589  2.1827 -1.8744  0.0992
21311SOL    HW269770   4.398  10.469   7.667  1.8209  0.2411 -3.2920
21312SOL     OW69771   7.848   5.129   6.738 -0.0992  0.5881  0.3094
21312SOL    HW169772   7.921   5.185   6.712  0.0678 -0.0633 -0.6759
21312SOL    HW269773   7.877   5.088   6.819  0.1938  1.1230  0.4821
21313SOL     OW69774   3.528   8.339   3.058  0.3321  0.0148 -0.9708
21313SOL    HW169775   3.614   8.358   3.094  0.2488 -1.3633 -0.0095
21313SOL    HW269776   3.475   8.415   3.082  1.3494  1.0668 -1.9282
21314SOL     OW69777   5.614   3.788   8.887  0.2789 -0.3032  1.1050
21314SOL    HW169778   5.621   3.700   8.924 -3.2203 -0.4814  1.6562
21314SOL    HW269779   5.666   3.842   8.946  1.0701 -1.7038  1.7673
21315SOL     OW69780   8.660   3.211   7.920 -0.0291  0.2593 -0.1717
21315SOL    HW169781   8.632   3.275   7.855  0.8534  0.9389  0.1124
21315SOL    HW269782   8.704   3.262   7.988  1.8677 -0.7418 -0.5785
21316SOL     OW69783  10.170   8.573   7.207 -0.3151  0.4535 -0.5063
21316SOL    HW169784  10.174   8.596   7.300 -0.4131 -0.7684 -0.1844
21316SOL    HW269785  10.257   8.540   7.186 -1.2807 -2.8355  0.1636
21317SOL     OW69786   8.230   5.109   6.019 -0.3489 -0.4400  0.0406
21317SOL    HW169787   8.271   5.094   6.104 -0.7792 -0.8805  0.1694
21317SOL    HW269788   8.182   5.191   6.030  1.3708  0.7009 -0.4413
21318SOL     OW69789   4.993  10.853   0.714 -0.0240 -0.2140 -0.3706
21318SOL    HW169790   4.957  10.849   0.803 -1.0299 -1.2178 -0.7997
21318SOL    HW269791   4.938  10.917   0.669  0.4711  0.2765 -0.2846
21319SOL     OW69792   0.321   7.293   3.509  0.3927 -0.3946 -0.0877
21319SOL    HW169793   0.282   7.232   3.446  1.9739 -0.3865 -1.1306
21319SOL    HW269794   0.381   7.239   3.561 -0.0396 -0.1784  0.6480
21320SOL     OW69795   7.748   7.173   0.138 -0.0852  0.1181 -0.5114
21320SOL    HW169796   7.807   7.183   0.063  0.3271 -0.7329 -0.3144
21320SOL    HW269797   7.733   7.262   0.169 -0.1617  0.4701 -1.5289
21321SOL     OW69798   4.094  10.407   6.083 -0.3528  0.0368  0.5953
21321SOL    HW169799   4.107  10.492   6.041  1.5461  0.9898  2.9062
21321SOL    HW269800   4.005  10.382   6.059 -1.1639  2.8870  0.2225
21322SOL     OW69801   9.404   7.679   8.101 -0.2433 -0.3266 -0.1395
21322SOL    HW169802   9.421   7.645   8.013 -1.5000 -0.2199 -0.4419
21322SOL    HW269803   9.469   7.747   8.114  0.0291 -0.4274 -0.9441
21323SOL     OW69804   3.013   4.208  10.294  0.2396  0.8388  0.1486
21323SOL    HW169805   2.978   4.184  10.379  2.4070 -2.0902  0.3742
21323SOL    HW269806   3.068   4.284  10.312  0.8338  0.1388  1.4727
21324SOL     OW69807   5.733   0.885   4.010  0.1867  0.1638 -0.1255
21324SOL    HW169808   5.663   0.859   3.950 -0.0010 -0.7257  0.4493
21324SOL    HW269809   5.813   0.884   3.956 -0.1436  0.5435 -0.6294
21325SOL     OW69810  10.798   2.519   5.928 -0.6089 -0.1223  0.2587
21325SOL    HW169811  10.829   2.605   5.898  1.7918 -1.0521 -0.1277
21325SOL    HW269812  10.737   2.539   5.999  1.6615  1.9077  1.7771
21326SOL     OW69813   4.484   9.322   2.713 -0.0704 -0.2480  0.0902
21326SOL    HW169814   4.519   9.242   2.753  0.1710 -0.1150  0.1495
21326SOL    HW269815   4.414   9.291   2.656 -0.6336 -0.4065  0.8551
21327SOL     OW69816   9.068   5.606   8.529 -0.6368 -0.1257 -0.0199
21327SOL    HW169817   9.048   5.698   8.514 -1.6805 -0.3183  0.0656
21327SOL    HW269818   9.163   5.603   8.541 -0.4302  0.7532 -1.2717
21328SOL     OW69819   4.732   5.059   4.508  0.1445 -0.2175  0.1655
21328SOL    HW169820   4.759   5.126   4.570  0.3874  0.7505 -0.9330
21328SOL    HW269821   4.759   4.976   4.548  2.4618  0.5204  0.3146
21329SOL     OW69822   4.435   4.486   5.748  0.0445 -0.3655  0.3102
21329SOL    HW169823   4.381   4.448   5.817  0.3450  0.1234  0.8172
21329SOL    HW269824   4.522   4.447   5.761  0.0605 -0.3978  0.1073
21330SOL     OW69825   1.697   7.974   1.437  0.5894  1.0335  0.3618
21330SOL    HW169826   1.693   8.037   1.510  0.7880  0.2680  1.0556
21330SOL    HW269827   1.631   7.908   1.459  0.3118  1.0465 -0.4087
21331SOL     OW69828   9.751   6.804   2.296  0.2506  0.1815 -0.3151
21331SOL    HW169829   9.837   6.779   2.264  0.1309 -0.1067 -0.4126
21331SOL    HW269830   9.713   6.856   2.225  0.2016  0.0036 -0.4195
21332SOL     OW69831   3.261   2.209  10.872 -0.2090  0.3972 -0.2463
21332SOL    HW169832   3.346   2.184  10.835  0.0923  1.7094 -0.4987
21332SOL    HW269833   3.268   2.303  10.885 -2.0159  0.7174 -1.2810
21333SOL     OW69834   5.569   7.731   2.055 -0.2380 -0.1188 -0.3390
21333SOL    HW169835   5.491   7.727   2.000 -0.1991 -0.2891 -0.3858
21333SOL    HW269836   5.626   7.663   2.019 -0.2500 -0.2917 -0.0317
21334SOL     OW69837   7.704   2.794   8.428 -0.4806 -0.1539 -0.1456
21334SOL    HW169838   7.723   2.701   8.420 -1.2206 -0.2949 -0.3564
21334SOL    HW269839   7.623   2.798   8.480 -2.8389  0.1074 -3.5040
21335SOL     OW69840   1.598   1.123   8.139  0.2823  0.0474 -0.0397
21335SOL    HW169841   1.638   1.210   8.128 -2.3639  1.2742 -0.7057
21335SOL    HW269842   1.559   1.125   8.226 -1.4304  0.3202 -0.7675
21336SOL     OW69843   7.193   4.481   8.145  0.1884 -0.0842 -0.2084
21336SOL    HW169844   7.228   4.410   8.092  0.7615  0.4112 -0.5104
21336SOL    HW269845   7.255   4.553   8.133 -0.6677  0.6515 -0.3639
21337SOL     OW69846   1.015   2.516   3.459  0.4568 -0.2128  0.2171
21337SOL    HW169847   0.984   2.565   3.535  1.3091 -1.1585  1.2026
21337SOL    HW269848   0.946   2.528   3.393  0.6593  2.3298  0.3662
21338SOL     OW69849   7.922   2.095   7.304 -0.2916 -0.3611 -0.2225
21338SOL    HW169850   7.894   2.185   7.322 -0.3851 -0.2955 -0.6893
21338SOL    HW269851   7.894   2.078   7.215 -0.1949 -0.8272 -0.1697
21339SOL     OW69852   9.177   2.765   2.922  0.2428  0.2924  0.6219
21339SOL    HW169853   9.241   2.835   2.912 -0.8167  1.2201  0.2118
21339SOL    HW269854   9.223   2.698   2.973  1.4744  1.0071  0.4854
21340SOL     OW69855   3.405   1.450   7.978  0.0403  0.3877 -0.4629
21340SOL    HW169856   3.379   1.542   7.986  0.4039  0.3666  1.1904
21340SOL    HW269857   3.500   1.452   7.973 -0.0090  0.1745 -2.0386
21341SOL     OW69858  10.136   3.776   7.882 -0.2397 -0.3725  0.4635
21341SOL    HW169859  10.231   3.767   7.878 -0.2600 -0.4012 -0.2135
21341SOL    HW269860  10.119   3.830   7.958  0.4359  1.1433 -0.4269
21342SOL     OW69861   5.605   5.544   3.646 -0.2134  0.3515  0.5818
21342SOL    HW169862   5.538   5.578   3.706 -2.2721 -1.0953 -0.7324
21342SOL    HW269863   5.678   5.520   3.702 -1.5755  0.1678  2.3782
21343SOL     OW69864   4.119   4.491   5.265 -0.2320  0.2158  0.2631
21343SOL    HW169865   4.192   4.450   5.312 -0.2440 -0.5707 -0.3821
21343SOL    HW269866   4.041   4.452   5.303 -0.3268  0.9374  0.8401
21344SOL     OW69867   3.298   4.308   1.453  0.3780 -0.3033  0.1401
21344SOL    HW169868   3.249   4.383   1.485 -0.1238 -0.8511  0.6699
21344SOL    HW269869   3.319   4.257   1.531  0.3485 -0.9329 -0.2516
21345SOL     OW69870   4.848   6.850   5.421  0.6342  0.6645 -0.1605
21345SOL    HW169871   4.784   6.908   5.462 -0.4232  0.4535 -1.4333
21345SOL    HW269872   4.926   6.858   5.475 -0.5921  0.5831  1.7235
21346SOL     OW69873   9.564   1.000   3.293 -0.0850 -0.3358 -0.2024
21346SOL    HW169874   9.508   1.076   3.310  0.8533  0.3666 -0.1864
21346SOL    HW269875   9.578   1.002   3.198  0.7073  0.0747 -0.0852
21347SOL     OW69876   6.318   0.633   9.158 -0.4102  0.2999 -0.0870
21347SOL    HW169877   6.355   0.609   9.074  1.0915  0.3020  0.5546
21347SOL    HW269878   6.345   0.564   9.218  1.7127  2.1072  1.1932
21348SOL     OW69879   7.910   3.004   5.926  0.1789  0.1305 -0.3434
21348SOL    HW169880   7.960   2.962   5.856  1.4941  1.9134 -0.5406
21348SOL    HW269881   7.867   3.078   5.884 -1.2521 -0.3640  0.2042
21349SOL     OW69882   6.794  10.341   7.458  0.1211 -0.3645 -0.1215
21349SOL    HW169883   6.724  10.406   7.451  0.0332 -0.1951  1.9044
21349SOL    HW269884   6.872  10.387   7.427 -0.1579  0.3396  0.1868
21350SOL     OW69885   3.464   6.047  10.060  0.1563  0.3409 -0.7771
21350SOL    HW169886   3.370   6.069  10.061 -0.0038 -0.3179 -0.3115
21350SOL    HW269887   3.491   6.063   9.970 -0.7912 -0.9568 -1.3347
21351SOL     OW69888   7.339   0.192   1.566 -0.3507  0.4293  0.7857
21351SOL    HW169889   7.430   0.220   1.562  0.0090 -0.5442  1.7600
21351SOL    HW269890   7.290   0.266   1.529  0.9315  0.3074 -1.2834
21352SOL     OW69891   3.229   2.628   5.195 -0.3742  0.0112 -0.3524
21352SOL    HW169892   3.292   2.559   5.213 -0.6549 -0.1940 -0.1417
21352SOL    HW269893   3.256   2.665   5.111 -0.3106 -0.4521 -0.5392
21353SOL     OW69894   1.290   4.429   0.316 -0.2516 -0.0128 -0.2126
21353SOL    HW169895   1.229   4.441   0.244  2.2365  0.7805 -2.3287
21353SOL    HW269896   1.347   4.358   0.288  0.7437  0.2736  0.9969
21354SOL     OW69897   3.299   3.454   1.940  0.5975  0.6803 -0.3097
21354SOL    HW169898   3.214   3.426   1.975  1.2373 -2.6374 -1.0024
21354SOL    HW269899   3.358   3.451   2.015  0.5938  0.4089 -0.3154
21355SOL     OW69900   9.121   0.561   0.835 -0.4118  0.0177  0.2623
21355SOL    HW169901   9.181   0.551   0.910 -1.4509 -1.9192  0.9185
21355SOL    HW269902   9.176   0.594   0.764  1.0656 -0.0936  1.3081
21356SOL     OW69903   8.064   0.075   9.708  0.1844 -0.6171 -0.6106
21356SOL    HW169904   8.148   0.100   9.671  0.2914  1.3370  0.8302
21356SOL    HW269905   8.005   0.071   9.632  1.2541 -0.7440 -1.4616
21357SOL     OW69906   3.573   7.353  10.325 -0.4573  0.5303  0.0016
21357SOL    HW169907   3.498   7.297  10.308  0.8841 -1.5829  0.6008
21357SOL    HW269908   3.568   7.374  10.418  0.9983 -1.8215  0.6948
21358SOL     OW69909   8.385   7.999   9.055  0.1494 -0.0210 -0.4424
21358SOL    HW169910   8.305   7.960   9.019 -1.3226  2.3749 -0.0133
21358SOL    HW269911   8.409   7.942   9.128 -2.9261  0.6837  1.2952
21359SOL     OW69912   8.712   3.094   7.024  0.8084  0.0303  0.3191
21359SOL    HW169913   8.707   3.171   6.967 -2.0441 -0.3048 -0.0836
21359SOL    HW269914   8.690   3.021   6.966 -2.2103 -0.3196  1.7161
21360SOL     OW69915   7.040  10.239  10.551 -0.0223 -0.2318 -0.2203
21360SOL    HW169916   7.005  10.163  10.597 -1.9294  1.0155  0.5313
21360SOL    HW269917   6.998  10.314  10.594 -1.0083  1.0792 -3.2114
21361SOL     OW69918   3.033   0.081   8.673 -0.1410  0.1715 -0.9032
21361SOL    HW169919   2.957   0.095   8.616 -1.6335 -1.3862  0.6026
21361SOL    HW269920   3.091   0.024   8.621 -1.4174 -1.1237 -0.9718
21362SOL     OW69921   8.342   2.579   4.232 -0.0498  0.3534  0.3725
21362SOL    HW169922   8.271   2.521   4.255  0.4038 -0.0844  0.6860
21362SOL    HW269923   8.299   2.656   4.194 -0.6489 -0.1999 -0.0931
21363SOL     OW69924   3.001   3.219   3.783  0.1864 -0.3223  0.1004
21363SOL    HW169925   3.089   3.255   3.767 -0.1447 -0.4596 -2.3818
21363SOL    HW269926   2.949   3.295   3.810  0.0717  0.7238 -2.7476
21364SOL     OW69927  10.329   2.386   1.619  0.2269  0.2462 -0.3847
21364SOL    HW169928  10.408   2.347   1.583  0.8105 -1.6257  2.6675
21364SOL    HW269929  10.269   2.313   1.632 -0.8147  1.1752  0.2689
21365SOL     OW69930   5.476   9.111   5.210  0.3509 -0.6933 -0.7748
21365SOL    HW169931   5.473   9.061   5.291 -0.3387 -2.4759 -1.8466
21365SOL    HW269932   5.442   9.197   5.233  0.0222 -1.2209  0.7875
21366SOL     OW69933  10.887   3.573   7.471 -0.7759 -0.7360 -0.4646
21366SOL    HW169934  10.847   3.508   7.529 -1.9179  0.5398  0.2342
21366SOL    HW269935  10.849   3.555   7.385  0.4584 -2.2486 -0.7371
21367SOL     OW69936   8.582   9.666   6.812 -0.3522 -0.0846  0.1725
21367SOL    HW169937   8.668   9.708   6.820 -0.7142  0.8324 -0.5216
21367SOL    HW269938   8.535   9.694   6.890 -0.7830  1.3237 -0.5534
21368SOL     OW69939   8.520   5.728   5.372  0.5336 -0.1073  0.4275
21368SOL    HW169940   8.543   5.759   5.285  0.2421  3.0493  1.3498
21368SOL    HW269941   8.442   5.674   5.360  0.9923 -0.4162 -1.3222
21369SOL     OW69942   1.239   6.502   6.304 -0.5138 -0.2962  0.2109
21369SOL    HW169943   1.198   6.445   6.370 -0.8605 -0.5993 -0.2585
21369SOL    HW269944   1.286   6.568   6.355 -1.1824 -0.2358  0.7678
21370SOL     OW69945  10.412   6.769   5.840 -0.4081 -0.1712  0.7946
21370SOL    HW169946  10.478   6.772   5.771 -0.9371 -0.1999  0.2838
21370SOL    HW269947  10.433   6.690   5.890 -1.8702 -1.9496 -1.2129
21371SOL     OW69948   4.327   6.231   9.113  0.2644 -0.4238 -0.1371
21371SOL    HW169949   4.334   6.185   9.030  0.4858 -0.5935 -0.0257
21371SOL    HW269950   4.301   6.320   9.090  0.2329 -0.4974 -0.3803
21372SOL     OW69951   4.099   1.021   5.735  0.1160  0.3980  0.1534
21372SOL    HW169952   4.183   0.978   5.721  0.1621 -0.7378  3.2869
21372SOL    HW269953   4.122   1.110   5.762  0.2107  0.6562 -0.7398
21373SOL     OW69954   3.295   1.954   7.809  0.2448  0.3132 -0.1151
21373SOL    HW169955   3.346   2.032   7.784  0.1262  0.2500 -0.5602
21373SOL    HW269956   3.270   1.914   7.725 -1.0666  0.6834  0.0680
21374SOL     OW69957   6.652   2.894   6.097 -0.1447 -0.5886  0.0655
21374SOL    HW169958   6.708   2.952   6.147 -0.0229 -0.5457 -0.1169
21374SOL    HW269959   6.667   2.920   6.006 -1.9896  0.8212  0.0952
21375SOL     OW69960  10.102   1.702  10.158  0.3843  0.3580  0.2568
21375SOL    HW169961  10.114   1.748  10.241  2.1860  0.6839 -0.1296
21375SOL    HW269962  10.102   1.771  10.092 -0.1250  0.0313 -0.0955
21376SOL     OW69963   8.257  10.356   7.105 -0.0811  0.4522  0.1219
21376SOL    HW169964   8.235  10.386   7.194 -0.6340 -1.2690  0.6119
21376SOL    HW269965   8.317  10.283   7.118 -0.8654 -0.4027 -0.8650
21377SOL     OW69966   2.477   9.729   9.930  0.9111 -0.1932 -0.4450
21377SOL    HW169967   2.493   9.778   9.849  0.5900 -0.5158 -0.7060
21377SOL    HW269968   2.410   9.780   9.976  2.4530  1.0337  0.5370
21378SOL     OW69969   7.323   7.088   1.363 -0.6316  0.3643 -0.4620
21378SOL    HW169970   7.296   7.150   1.431 -0.2603  0.0484 -0.0218
21378SOL    HW269971   7.380   7.140   1.305 -0.5584  0.5098 -0.2615
21379SOL     OW69972   2.138   7.756   0.459 -0.2375 -0.0303  0.1007
21379SOL    HW169973   2.106   7.729   0.373 -1.5780 -0.6504  0.7742
21379SOL    HW269974   2.108   7.688   0.519  1.1030  0.1316  1.0130
21380SOL     OW69975   1.640   5.807   1.632 -0.0102  0.1697  0.2648
21380SOL    HW169976   1.669   5.810   1.541 -1.6885  1.1421 -0.2909
21380SOL    HW269977   1.547   5.782   1.626 -0.3223  0.9043  1.6394
21381SOL     OW69978   0.640   5.662   2.886  0.0162  0.1188  0.5421
21381SOL    HW169979   0.660   5.705   2.969  1.0311  0.2765  0.2230
21381SOL    HW269980   0.649   5.730   2.820  2.8263 -0.7668 -0.1170
21382SOL     OW69981   8.026   1.618   6.129 -0.3790  0.0692  0.1963
21382SOL    HW169982   7.973   1.630   6.208 -0.3969  2.8356 -0.1601
21382SOL    HW269983   8.018   1.700   6.081  3.0071  0.0701 -0.6443
21383SOL     OW69984   5.812  10.754   5.848  0.5269 -0.2401  0.9535
21383SOL    HW169985   5.774  10.840   5.868  0.2891  0.0478 -0.6357
21383SOL    HW269986   5.748  10.712   5.791  1.0125 -1.1637  1.0729
21384SOL     OW69987   7.870   5.944   2.100 -0.3351  0.4451  0.3166
21384SOL    HW169988   7.815   5.886   2.048 -1.9291  1.6766  0.5668
21384SOL    HW269989   7.912   6.001   2.036 -1.4505  1.2492  0.2843
21385SOL     OW69990  10.251   1.768   8.973  0.2739  0.1633  0.3162
21385SOL    HW169991  10.196   1.691   8.959  1.4873 -0.4301 -1.4053
21385SOL    HW269992  10.264   1.771   9.068 -0.1351 -1.4960  0.4493
21386SOL     OW69993   1.296   9.400   4.478 -0.1886  0.4169 -0.2614
21386SOL    HW169994   1.354   9.329   4.507 -0.1912 -0.0589 -1.3511
21386SOL    HW269995   1.298   9.394   4.382 -2.2176  0.2542 -0.3317
21387SOL     OW69996   9.341   8.770   2.232 -0.0144  0.1277  0.5637
21387SOL    HW169997   9.358   8.804   2.144  1.0203 -0.4641  0.5092
21387SOL    HW269998   9.291   8.839   2.275  0.9807  1.1977  0.0714
21388SOL     OW69999   3.843   3.453   9.583 -0.1707 -0.5093  0.1709
21388SOL    HW170000   3.774   3.519   9.583  1.4426  1.2674 -0.8850
21388SOL    HW270001   3.909   3.486   9.522  0.1626 -3.7328 -1.4484
21389SOL     OW70002   1.672   8.082   8.650 -0.8460  0.0741  0.5800
21389SOL    HW170003   1.681   8.005   8.706 -1.4091  0.1942  0.8531
21389SOL    HW270004   1.755   8.128   8.658 -0.5657 -0.4182  0.5451
21390SOL     OW70005   7.103  10.920   7.720 -0.7623 -0.8461 -0.2375
21390SOL    HW170006   7.023  10.971   7.709 -0.4049  0.1814  1.4700
21390SOL    HW270007   7.075  10.843   7.770 -0.7117 -0.4769  0.3777
21391SOL     OW70008   7.701   0.043   4.226 -0.7379 -0.3148  0.3427
21391SOL    HW170009   7.724  -0.041   4.186 -0.3806  0.9767 -2.3903
21391SOL    HW270010   7.781   0.071   4.271  0.4313  0.2315 -1.9381
21392SOL     OW70011   3.499   8.614   2.913  0.5248  0.6642  0.1722
21392SOL    HW170012   3.443   8.612   2.990 -1.9484  2.3992 -1.4480
21392SOL    HW270013   3.579   8.657   2.942  0.1298  0.2401  2.0054
21393SOL     OW70014   0.791   8.506   8.073  0.0833  0.0544 -0.4644
21393SOL    HW170015   0.780   8.545   8.160  1.0477 -0.1227 -0.2504
21393SOL    HW270016   0.768   8.577   8.013 -0.2971  0.2750 -0.0655
21394SOL     OW70017  10.876   2.710   8.215  0.0670 -0.9683  0.1569
21394SOL    HW170018  10.891   2.637   8.275 -0.2489 -0.6059  0.6893
21394SOL    HW270019  10.916   2.786   8.258  0.7182 -0.8906 -0.5655
21395SOL     OW70020   1.100   1.605   6.821  0.4402 -0.4426 -0.3005
21395SOL    HW170021   1.076   1.685   6.774 -0.2881  0.6770  1.8315
21395SOL    HW270022   1.188   1.623   6.855  0.3110 -0.5852  0.1069
21396SOL     OW70023   3.879   7.370   0.586 -0.2520  0.0161  0.3173
21396SOL    HW170024   3.953   7.419   0.550 -0.2905 -0.2131 -0.0830
21396SOL    HW270025   3.885   7.284   0.545 -1.6811  0.4920 -1.0081
21397SOL     OW70026   1.676   3.563   3.549  0.1628  0.4693  0.0761
21397SOL    HW170027   1.635   3.647   3.568 -0.9191  0.7642 -2.9761
21397SOL    HW270028   1.655   3.547   3.457  0.5876 -3.0297  0.4703
21398SOL     OW70029   2.143   3.044   7.652  0.3076 -0.0532 -0.3367
21398SOL    HW170030   2.103   2.995   7.724 -1.0326  0.5346 -0.6595
21398SOL    HW270031   2.123   2.994   7.574 -2.2797  1.6057 -0.8525
21399SOL     OW70032   2.985  10.381   0.188  0.1858  0.7803  0.0165
21399SOL    HW170033   3.059  10.392   0.247 -0.1345  0.3450  0.5097
21399SOL    HW270034   2.976  10.286   0.177 -1.0335  0.7639  0.9251
21400SOL     OW70035   9.781   7.084   7.684 -0.2403 -0.4178 -0.2304
21400SOL    HW170036   9.855   7.029   7.710  1.4104  1.6878 -0.2042
21400SOL    HW270037   9.716   7.070   7.753  1.0701 -0.5629  1.0297
21401SOL     OW70038   2.048   3.842   0.406  0.0530 -0.4651  0.7045
21401SOL    HW170039   2.014   3.762   0.367  1.4016 -1.6563  1.8592
21401SOL    HW270040   2.015   3.840   0.496 -1.3698  1.2193  0.2742
21402SOL     OW70041  10.754   9.416  10.132 -0.2591 -0.5559 -0.1955
21402SOL    HW170042  10.674   9.363  10.130 -1.0998  0.6812 -1.5297
21402SOL    HW270043  10.791   9.401  10.219 -2.3826 -0.5494  0.7642
21403SOL     OW70044   8.271  10.120   3.680  0.1822  0.4909 -0.4198
21403SOL    HW170045   8.262  10.213   3.662 -0.2519  0.6758  0.6839
21403SOL    HW270046   8.361  10.109   3.710 -0.3977  0.9674  1.6412
21404SOL     OW70047   2.093   6.506   4.732 -0.1839 -0.3889 -0.1826
21404SOL    HW170048   2.005   6.515   4.768 -0.1993  0.9429 -0.4920
21404SOL    HW270049   2.095   6.418   4.695 -0.9265 -0.9300  1.0070
21405SOL     OW70050   6.530   1.371   3.013  0.0832  0.4303 -0.5068
21405SOL    HW170051   6.514   1.346   3.104 -0.2349 -2.6731 -1.3145
21405SOL    HW270052   6.582   1.299   2.977  1.8353  2.4611 -2.3361
21406SOL     OW70053  10.652   5.827   8.864 -0.7346 -0.8645  0.4109
21406SOL    HW170054  10.561   5.856   8.868 -0.6139 -0.5715  1.4279
21406SOL    HW270055  10.702   5.901   8.898  0.0215 -0.5370 -1.2957
21407SOL     OW70056   1.438   1.283   2.099  0.3014 -0.3806  0.3865
21407SOL    HW170057   1.375   1.247   2.037  1.3379 -1.3011 -0.1626
21407SOL    HW270058   1.392   1.357   2.140 -0.2167  0.6138 -1.8594
21408SOL     OW70059   6.058   5.840   6.354 -0.6045 -0.0311  0.4897
21408SOL    HW170060   6.003   5.882   6.421 -0.6415 -0.2622  0.6043
21408SOL    HW270061   6.092   5.913   6.303  0.0998  0.2029  1.2767
21409SOL     OW70062  10.175   0.254   2.062  0.3215 -0.0703  0.3558
21409SOL    HW170063  10.221   0.338   2.070  0.5249  0.0833 -1.7634
21409SOL    HW270064  10.227   0.205   1.998  0.3525 -1.9544  1.7532
21410SOL     OW70065  10.231   8.627   0.517  0.7138 -0.6152 -0.7996
21410SOL    HW170066  10.301   8.685   0.547 -0.1113  0.2053 -0.4305
21410SOL    HW270067  10.253   8.541   0.555  0.5491  0.0378  0.8246
21411SOL     OW70068   0.303   1.921   9.868 -0.6265  0.5267 -0.1429
21411SOL    HW170069   0.348   1.920   9.783  1.2658 -1.3148  0.8035
21411SOL    HW270070   0.334   2.002   9.910 -1.1980  1.2006 -0.9886
21412SOL     OW70071   7.868   3.088   6.659 -0.3809 -0.9371  0.5075
21412SOL    HW170072   7.919   3.143   6.718 -0.2678 -0.6614  0.1575
21412SOL    HW270073   7.799   3.146   6.625 -0.5335 -1.1319  0.4851
21413SOL     OW70074   6.358   6.000   0.534  0.1948  0.5473  0.0807
21413SOL    HW170075   6.342   5.977   0.443 -3.2773 -2.8746  1.2711
21413SOL    HW270076   6.294   6.068   0.554 -0.2094  0.1006  0.3342
21414SOL     OW70077   1.397   3.692   6.974 -0.1492  0.2527 -0.0263
21414SOL    HW170078   1.465   3.627   6.956 -0.1740  0.3458 -0.4724
21414SOL    HW270079   1.445   3.770   7.001 -0.1730 -0.4741  2.3128
21415SOL     OW70080   1.563   9.340   5.175 -0.1098 -0.0782  0.0953
21415SOL    HW170081   1.594   9.265   5.124 -0.3319  0.3774 -0.7356
21415SOL    HW270082   1.524   9.302   5.253 -0.3403 -0.8337 -0.3789
21416SOL     OW70083   7.613   7.187   7.059 -0.5931 -0.0555 -0.2122
21416SOL    HW170084   7.624   7.206   7.152  0.6778  0.5896 -0.4768
21416SOL    HW270085   7.531   7.231   7.035 -0.5251  0.4240  0.4203
21417SOL     OW70086   4.015   3.582  10.602  0.5625  0.2474  0.1985
21417SOL    HW170087   4.060   3.528  10.667  1.0278  0.7033  0.2622
21417SOL    HW270088   4.016   3.529  10.522 -0.6908 -0.6417  0.7341
21418SOL     OW70089   2.330  10.318   3.333 -0.9211 -0.5114  0.8132
21418SOL    HW170090   2.422  10.293   3.346 -0.6536  0.1660  0.2837
21418SOL    HW270091   2.321  10.400   3.382  0.0472  1.9942 -2.8128
21419SOL     OW70092   7.370   0.623   5.514  0.3044 -0.0736  0.3264
21419SOL    HW170093   7.322   0.541   5.517 -0.9923  0.6712  1.2923
21419SOL    HW270094   7.461   0.598   5.502  0.0120 -1.6818  1.1974
21420SOL     OW70095   6.115   2.188   5.269  0.2492 -0.0666 -0.3677
21420SOL    HW170096   6.177   2.199   5.341 -0.0621  0.1147 -0.1255
21420SOL    HW270097   6.085   2.277   5.250  0.0706 -0.1544 -0.4900
21421SOL     OW70098  10.305   4.784   3.321  0.7689  0.2280 -0.5622
21421SOL    HW170099  10.211   4.794   3.306  0.2788 -1.4719  1.0240
21421SOL    HW270100  10.336   4.735   3.244  0.0603 -0.4720 -0.4199
21422SOL     OW70101   3.013  10.743   3.113  0.2531  0.1606 -0.3704
21422SOL    HW170102   3.004  10.743   3.017  0.8790 -2.9951 -0.5352
21422SOL    HW270103   2.937  10.694   3.144 -0.2933  1.6926  0.8912
21423SOL     OW70104   6.991   3.378   7.484  0.2071 -0.3805  0.7659
21423SOL    HW170105   7.002   3.331   7.401 -0.1316 -1.5277  1.3451
21423SOL    HW270106   7.028   3.319   7.549  2.8071  1.5702  1.2125
21424SOL     OW70107   9.245   4.375   4.289 -0.2322  0.0511 -0.4854
21424SOL    HW170108   9.260   4.411   4.377  1.1888  0.0226 -0.6903
21424SOL    HW270109   9.183   4.304   4.302  0.2405 -0.1859  0.5615
21425SOL     OW70110   3.577   4.343   6.319  0.0319 -0.0052 -0.2105
21425SOL    HW170111   3.557   4.279   6.387  1.0979  0.6538  0.7550
21425SOL    HW270112   3.519   4.319   6.246 -1.5640 -0.3866  1.1186
21426SOL     OW70113   6.709  10.305   4.730 -0.1510  0.3766 -0.1678
21426SOL    HW170114   6.776  10.283   4.666  2.3450 -0.7023  2.5691
21426SOL    HW270115   6.656  10.226   4.738 -0.0233  0.2689 -0.3985
21427SOL     OW70116   5.414   6.102   6.819 -0.1358 -0.3867  0.0198
21427SOL    HW170117   5.476   6.031   6.835  0.3630  0.1552  0.5656
21427SOL    HW270118   5.464   6.167   6.769 -1.2127 -1.3577 -2.4877
21428SOL     OW70119   7.882  10.581  10.889  0.4468 -0.0785  0.4369
21428SOL    HW170120   7.799  10.626  10.871  0.9667  0.8511  0.3054
21428SOL    HW270121   7.946  10.627  10.834  1.5019  0.8439  2.3539
21429SOL     OW70122   7.892   9.733   4.214 -0.2875 -0.0106  0.2900
21429SOL    HW170123   7.849   9.676   4.150 -0.5696 -0.3389  0.7626
21429SOL    HW270124   7.891   9.682   4.295  0.5112  0.2024  0.4377
21430SOL     OW70125   7.502   9.412   9.005  0.2605  0.5575  0.4988
21430SOL    HW170126   7.502   9.327   8.961  0.6842 -0.2476  1.9682
21430SOL    HW270127   7.416   9.419   9.045  0.1109  0.9742  0.1125
21431SOL     OW70128   6.018   9.669   5.290  0.6570 -0.1815 -0.7733
21431SOL    HW170129   6.073   9.697   5.363 -0.3189  0.8555 -0.4106
21431SOL    HW270130   5.955   9.608   5.329  0.1233  0.3876 -0.7386
21432SOL     OW70131   4.541  10.337   6.985 -0.3997  0.1388  0.3424
21432SOL    HW170132   4.518  10.326   6.893  0.6617  0.2528  0.0438
21432SOL    HW270133   4.460  10.319   7.033 -1.1315  0.7313 -0.6404
21433SOL     OW70134   6.634   2.894   7.053 -0.3299  0.2541  0.0325
21433SOL    HW170135   6.611   2.936   6.970  0.8504 -0.3333 -0.6195
21433SOL    HW270136   6.558   2.909   7.110 -1.4163  0.1644 -1.3395
21434SOL     OW70137   1.954   4.845   9.536  0.0719 -0.6180  0.3081
21434SOL    HW170138   1.938   4.864   9.444  2.1101 -0.6750 -0.1090
21434SOL    HW270139   2.018   4.910   9.563 -0.7195 -0.4263  1.7825
21435SOL     OW70140   2.658   9.873   6.486 -0.2731 -0.0410  0.1648
21435SOL    HW170141   2.661   9.914   6.572 -0.2336 -0.4289  0.3525
21435SOL    HW270142   2.733   9.813   6.486  0.2099  0.5461 -0.4436
21436SOL     OW70143   2.397   7.347   3.823  0.0783 -0.3926  0.4121
21436SOL    HW170144   2.326   7.286   3.805 -0.5394  0.5085 -0.3150
21436SOL    HW270145   2.474   7.292   3.834 -0.3603 -1.2695 -0.7500
21437SOL     OW70146   2.107   4.102   9.262 -0.2266 -0.2281 -0.0444
21437SOL    HW170147   2.063   4.076   9.343 -0.8468  2.1782  0.4954
21437SOL    HW270148   2.189   4.052   9.262 -0.2525 -0.3814  2.0395
21438SOL     OW70149   3.932   9.238   5.723  0.4326 -0.1033 -0.8973
21438SOL    HW170150   3.843   9.235   5.757 -0.3335  0.3569 -2.7240
21438SOL    HW270151   3.958   9.146   5.717  1.0737 -0.1845  1.9421
21439SOL     OW70152   2.747   9.091   3.724 -0.1173 -0.3777 -0.3186
21439SOL    HW170153   2.799   9.018   3.691  0.8362  0.8519 -1.6885
21439SOL    HW270154   2.658   9.057   3.731  0.1723 -1.4587 -1.6469
21440SOL     OW70155   2.034   2.569   2.192 -0.1980  0.2057  0.0552
21440SOL    HW170156   2.109   2.575   2.133 -0.5581 -0.0773 -0.4424
21440SOL    HW270157   2.050   2.635   2.258  0.3396  0.3580 -0.2207
21441SOL     OW70158   5.547   2.471   5.876 -0.1154  0.4326 -0.2392
21441SOL    HW170159   5.633   2.481   5.916  0.8823 -0.2165 -2.1279
21441SOL    HW270160   5.523   2.380   5.894 -0.5597  0.6832  0.5066
21442SOL     OW70161   0.712   8.272   0.154 -0.5868 -0.4002 -0.7289
21442SOL    HW170162   0.644   8.306   0.096 -0.3048 -0.1115 -0.8896
21442SOL    HW270163   0.776   8.342   0.159 -1.2594  0.1417  1.0367
21443SOL     OW70164   4.423   7.059   1.727 -0.3658  0.2090 -0.0216
21443SOL    HW170165   4.392   7.139   1.684  0.3081  1.8503  2.3327
21443SOL    HW270166   4.413   7.077   1.820  0.6858 -2.1202  0.6026
21444SOL     OW70167   9.979   4.502   7.896  0.1860 -0.0766 -0.0292
21444SOL    HW170168  10.015   4.591   7.894  0.1633 -0.0418  0.7623
21444SOL    HW270169   9.983   4.473   7.805  0.2778  0.6999 -0.2850
21445SOL     OW70170   1.648   1.663   1.289 -0.1435 -0.3557  0.2291
21445SOL    HW170171   1.588   1.735   1.273 -0.9725 -1.4091 -1.8577
21445SOL    HW270172   1.608   1.612   1.359  0.2143  0.8932  1.3876
21446SOL     OW70173   6.931   9.284   0.007  0.1069 -0.4668  0.2199
21446SOL    HW170174   7.007   9.296   0.065  0.7637 -0.2490 -0.6604
21446SOL    HW270175   6.882   9.366   0.015  0.7040 -0.0467 -0.2302
21447SOL     OW70176   1.234   3.338   0.796  0.4267  0.6471 -0.3479
21447SOL    HW170177   1.245   3.404   0.864  1.1656  0.5580 -0.3735
21447SOL    HW270178   1.323   3.319   0.766  0.2912 -0.7613  0.0620
21448SOL     OW70179  10.739   4.831   6.384  0.0100  0.3472 -0.3449
21448SOL    HW170180  10.709   4.743   6.407  1.7381 -0.6153 -1.5389
21448SOL    HW270181  10.791   4.860   6.460  3.5601 -1.7679 -1.7274
21449SOL     OW70182   7.014   6.956  10.903 -0.2838 -0.1230  0.4643
21449SOL    HW170183   7.040   7.048  10.899 -0.4489 -0.1102 -0.3840
21449SOL    HW270184   7.093   6.911  10.934  0.5343  0.0260 -1.2806
21450SOL     OW70185   0.090   3.336   6.536  0.7595 -0.0008 -0.0003
21450SOL    HW170186   0.022   3.396   6.568 -0.6593 -0.7961 -1.3897
21450SOL    HW270187   0.152   3.393   6.491  1.0110  0.7332  1.2203
21451SOL     OW70188   1.584   1.929   8.357  0.0570 -0.7674 -0.0461
21451SOL    HW170189   1.521   1.858   8.350  0.1069 -0.9713  1.3128
21451SOL    HW270190   1.668   1.886   8.372  0.0487 -0.4428  1.0473
21452SOL     OW70191  10.132   0.098   6.968  0.4789  0.4415  0.6631
21452SOL    HW170192  10.047   0.057   6.954  1.4304 -1.3918 -0.0020
21452SOL    HW270193  10.124   0.184   6.928 -0.9996  0.2385  0.4786
21453SOL     OW70194   6.657   3.771   0.705  0.3270  0.1277  0.1462
21453SOL    HW170195   6.739   3.807   0.740  0.4034 -0.2423  0.3613
21453SOL    HW270196   6.602   3.847   0.688  0.6099  0.3622  0.2741
21454SOL     OW70197  10.579   1.702   3.284  0.6928  0.6517 -0.0089
21454SOL    HW170198  10.571   1.765   3.212 -2.0302  0.9431  0.4370
21454SOL    HW270199  10.498   1.651   3.280  0.8442  0.1060  2.3179
21455SOL     OW70200   1.892   4.053   9.935 -0.8111  0.1809  0.8230
21455SOL    HW170201   1.864   3.970   9.973  0.2842 -1.1261 -1.0183
21455SOL    HW270202   1.950   4.092  10.000 -1.3702 -0.4658  1.7273
21456SOL     OW70203   5.347   1.497   6.177  0.6799  0.5735 -0.0445
21456SOL    HW170204   5.396   1.576   6.158 -0.0188  0.8501 -0.7281
21456SOL    HW270205   5.410   1.426   6.164  0.9661  0.9338 -0.6758
21457SOL     OW70206   7.181   2.852   5.616 -0.4748 -0.4319  0.6884
21457SOL    HW170207   7.224   2.771   5.591  0.2643  0.2509 -0.3534
21457SOL    HW270208   7.252   2.908   5.648 -0.7294  0.3469 -0.0724
21458SOL     OW70209   2.458   3.501   1.099 -0.3577 -0.0389  0.4153
21458SOL    HW170210   2.429   3.422   1.055  0.7309 -0.5812  0.6611
21458SOL    HW270211   2.500   3.553   1.031 -4.2280  2.0915 -0.6665
21459SOL     OW70212   9.321   0.971   7.926  0.3571  0.7847 -0.1616
21459SOL    HW170213   9.287   0.904   7.867 -0.0231 -0.4134  1.3620
21459SOL    HW270214   9.410   0.987   7.895 -0.1225  0.8712 -1.5979
21460SOL     OW70215   2.995  10.878   5.829  0.0527 -0.6053  0.2362
21460SOL    HW170216   3.036  10.829   5.758 -1.9409 -1.5298 -0.3449
21460SOL    HW270217   2.997  10.969   5.799  0.0148 -0.8769 -0.6133
21461SOL     OW70218   8.455   1.740   7.426  0.0071 -0.1067  0.1716
21461SOL    HW170219   8.542   1.757   7.462 -0.2356  1.7691 -0.0585
21461SOL    HW270220   8.463   1.756   7.332 -1.2160  3.1440  0.5032
21462SOL     OW70221   8.304   4.566   6.509  0.0456 -0.1678 -0.5131
21462SOL    HW170222   8.218   4.531   6.485  0.1403  0.3637 -1.7306
21462SOL    HW270223   8.354   4.491   6.539 -0.6263 -0.5978 -0.4535
21463SOL     OW70224   2.020   7.241   7.382 -0.0188 -0.4380  0.1217
21463SOL    HW170225   1.989   7.235   7.291 -1.1463 -0.8092  0.5198
21463SOL    HW270226   2.015   7.334   7.403 -1.6336 -0.5633  0.4198
21464SOL     OW70227   1.388   0.604   5.698 -0.4763  0.5041  0.1449
21464SOL    HW170228   1.353   0.631   5.613 -0.1399  2.1812  0.5002
21464SOL    HW270229   1.460   0.665   5.714 -0.4152  0.0934  1.5539
21465SOL     OW70230   3.612   4.541   2.403  0.2970 -0.0750  0.4175
21465SOL    HW170231   3.678   4.589   2.452  0.6717 -2.1211  2.0618
21465SOL    HW270232   3.647   4.536   2.314 -0.2739  3.4762 -0.1502
21466SOL     OW70233   4.339   5.828   5.115 -0.2937 -0.4659 -0.3666
21466SOL    HW170234   4.357   5.875   5.034  0.0640 -0.6516 -0.3992
21466SOL    HW270235   4.409   5.763   5.121  0.5107  0.4530  0.7838
21467SOL     OW70236   9.966  10.127   0.174 -0.3676 -0.3150 -0.0931
21467SOL    HW170237  10.002  10.161   0.092  0.0305  1.5626  0.8046
21467SOL    HW270238   9.939  10.205   0.222 -1.9126 -1.4520  0.9914
21468SOL     OW70239   7.037   6.984   2.251 -0.4069  0.4735  0.4679
21468SOL    HW170240   7.030   6.901   2.299 -1.1222  0.3950  0.2387
21468SOL    HW270241   7.021   7.051   2.317  1.3512  0.5080  0.9150
21469SOL     OW70242   3.167   4.913   8.020  0.8417  0.2355 -0.0316
21469SOL    HW170243   3.081   4.875   8.001  1.5764 -1.0985 -0.8630
21469SOL    HW270244   3.158   4.950   8.107 -0.4579 -0.2429  0.0663
21470SOL     OW70245   5.836   2.011   5.065  0.5887  0.1785  0.1151
21470SOL    HW170246   5.830   1.994   5.159 -1.1388 -1.5552 -0.2305
21470SOL    HW270247   5.859   2.103   5.059  0.1395  0.5014  2.2464
21471SOL     OW70248   8.685   3.157  10.123  0.1465 -0.2462  0.2266
21471SOL    HW170249   8.669   3.094  10.053  2.7251 -0.9527  0.1922
21471SOL    HW270250   8.708   3.238  10.079 -0.3290 -0.0728  0.2852
21472SOL     OW70251   4.050   2.876   7.996  0.2376 -0.4541 -0.5074
21472SOL    HW170252   4.142   2.851   7.990  0.3326 -0.2259 -0.0707
21472SOL    HW270253   4.028   2.912   7.910  0.6837 -0.0760 -0.4623
21473SOL     OW70254   3.086   7.785   7.925 -0.4233 -0.2595 -0.0229
21473SOL    HW170255   3.019   7.808   7.861  0.2542  1.0545 -0.2992
21473SOL    HW270256   3.045   7.719   7.981 -0.9844 -1.5883 -1.8885
21474SOL     OW70257   7.671   0.092   6.363  0.3343  0.1260  0.1406
21474SOL    HW170258   7.757   0.124   6.390  0.2000  1.2602 -0.7147
21474SOL    HW270259   7.687   0.002   6.332  0.9843 -0.1090  1.1044
21475SOL     OW70260   4.109   6.000   5.125  0.1878 -0.3471 -0.3022
21475SOL    HW170261   4.174   5.930   5.110  0.9836  0.2280  0.3345
21475SOL    HW270262   4.149   6.054   5.194 -1.2806 -0.3590  0.5849
21476SOL     OW70263   3.750   4.723   9.544 -0.4059 -0.5385 -0.0440
21476SOL    HW170264   3.696   4.727   9.623  0.8495 -0.2231  0.8273
21476SOL    HW270265   3.776   4.631   9.538 -1.5460 -0.8386 -0.8544
21477SOL     OW70266   8.437  10.726   6.723 -0.5345 -0.3408 -0.7173
21477SOL    HW170267   8.379  10.678   6.664 -1.3517 -0.6996  0.3304
21477SOL    HW270268   8.407  10.701   6.811 -0.8609  1.9312 -0.1166
21478SOL     OW70269   5.799   4.021   2.605  0.2858  0.4007 -0.2163
21478SOL    HW170270   5.841   3.935   2.610  0.7480  0.5743 -0.9803
21478SOL    HW270271   5.869   4.081   2.582 -0.1115  0.9233 -0.0727
21479SOL     OW70272   4.812   0.397   8.391 -0.3253  0.3738 -0.1960
21479SOL    HW170273   4.884   0.335   8.381  1.5720  2.0123  2.1666
21479SOL    HW270274   4.812   0.419   8.484 -3.7220  0.7330 -0.1564
21480SOL     OW70275   9.910   5.476   6.443 -0.0014 -0.2893  0.4054
21480SOL    HW170276   9.864   5.524   6.374 -0.0129  0.2163  0.7592
21480SOL    HW270277   9.962   5.411   6.396 -0.1767 -0.0971 -0.0657
21481SOL     OW70278   8.220   6.530   7.774 -0.2507 -0.3571 -0.0463
21481SOL    HW170279   8.217   6.624   7.792  1.5403  0.0997 -1.7432
21481SOL    HW270280   8.262   6.492   7.851 -0.0762  0.3649  0.2197
21482SOL     OW70281   8.306   0.879   3.793  0.0357 -0.2338  0.0568
21482SOL    HW170282   8.283   0.795   3.751 -1.6952 -0.4675  1.3454
21482SOL    HW270283   8.306   0.859   3.886  2.4199  0.5998  0.2896
21483SOL     OW70284   1.292   8.945   5.274  0.0857  0.0700 -0.2331
21483SOL    HW170285   1.206   8.986   5.283 -0.4000 -0.6545 -1.2866
21483SOL    HW270286   1.284   8.861   5.319  0.7668  0.6645  1.0558
21484SOL     OW70287   5.711   8.699   0.905  0.3684  0.1422  0.0501
21484SOL    HW170288   5.711   8.642   0.981 -2.6442 -0.9761 -0.6547
21484SOL    HW270289   5.640   8.762   0.922 -0.5225 -0.2753 -1.8746
21485SOL     OW70290   1.971   4.683   6.494 -0.4399 -0.2279 -0.3472
21485SOL    HW170291   1.923   4.658   6.572  1.1187  0.5274  0.9128
21485SOL    HW270292   1.941   4.772   6.475  0.0251  0.0299  0.1026
21486SOL     OW70293   3.394   1.999   1.225 -0.2787  1.1905  0.1371
21486SOL    HW170294   3.474   1.947   1.218 -0.7413 -0.4521  4.3617
21486SOL    HW270295   3.425   2.089   1.239  0.8241  0.6840  1.0801
21487SOL     OW70296   2.842  10.007   9.882 -0.0200  0.5121  0.6317
21487SOL    HW170297   2.827  10.018   9.788  0.7836  0.6348  0.5103
21487SOL    HW270298   2.934   9.984   9.889 -0.4719 -1.3212  1.2576
21488SOL     OW70299   5.752   3.354   1.239 -0.5756 -0.1688 -0.3348
21488SOL    HW170300   5.679   3.398   1.282 -0.0334 -0.4839  0.9495
21488SOL    HW270301   5.747   3.382   1.148 -0.4970  2.2184  0.3411
21489SOL     OW70302   3.304   2.144   2.982 -0.0382  0.1621 -0.0231
21489SOL    HW170303   3.341   2.123   2.897 -2.8150 -0.8461 -1.0998
21489SOL    HW270304   3.288   2.238   2.979 -2.0135 -0.1608 -1.5242
21490SOL     OW70305   3.043   2.395   6.590 -0.1682 -0.1120 -0.0197
21490SOL    HW170306   3.124   2.350   6.614  0.4254  0.1972 -1.3339
21490SOL    HW270307   3.061   2.488   6.608 -0.3495 -0.0812  0.0066
21491SOL     OW70308   8.196  10.780   4.047 -0.1195 -0.1036  0.2774
21491SOL    HW170309   8.272  10.824   4.010 -0.5088  0.0023 -0.4212
21491SOL    HW270310   8.219  10.687   4.044  0.4540  0.0005  1.1787
21492SOL     OW70311   0.813   5.497  10.590 -0.0951 -0.3936 -0.1164
21492SOL    HW170312   0.855   5.569  10.637  0.6097 -0.3071 -0.8733
21492SOL    HW270313   0.756   5.456  10.656  1.9924 -1.2152  1.2862
21493SOL     OW70314   0.759   8.556   2.918  0.4299  0.2477  0.4215
21493SOL    HW170315   0.829   8.491   2.917 -0.6403 -0.9430 -1.0182
21493SOL    HW270316   0.722   8.552   2.830 -1.3224  0.9808  1.0910
21494SOL     OW70317  10.264   2.470   2.565 -0.5079 -0.1855 -0.4130
21494SOL    HW170318  10.302   2.385   2.540  0.1241  0.1293 -0.5483
21494SOL    HW270319  10.327   2.534   2.532 -0.3679  0.2936  0.7642
21495SOL     OW70320   7.121   5.687  10.208 -0.4687 -0.0298 -0.1586
21495SOL    HW170321   7.070   5.701  10.287  0.4428 -1.6806  0.7764
21495SOL    HW270322   7.133   5.774  10.171 -0.6634  0.8137  1.6652
21496SOL     OW70323   4.128   9.926  10.743 -0.3476  0.1662 -0.5234
21496SOL    HW170324   4.171  10.006  10.713  0.4616 -0.9811 -2.5983
21496SOL    HW270325   4.070   9.901  10.671 -0.4937 -1.1631  0.0302
21497SOL     OW70326   4.802   9.412   5.677 -0.5045  0.2184 -0.0049
21497SOL    HW170327   4.855   9.407   5.757  0.3784  0.0105 -0.5940
21497SOL    HW270328   4.724   9.359   5.697  0.1517 -0.6223  0.3806
21498SOL     OW70329   2.070  10.630   7.186  0.0667  0.4976  0.0304
21498SOL    HW170330   2.090  10.705   7.241 -1.5045 -0.4576  2.0409
21498SOL    HW270331   1.982  10.649   7.152 -0.2280 -0.2754  0.3388
21499SOL     OW70332   8.289   3.279   2.560 -0.2580 -0.1241  0.3218
21499SOL    HW170333   8.254   3.192   2.581  1.6436 -0.6471  1.5319
21499SOL    HW270334   8.324   3.312   2.642  0.1752  1.2692 -0.3878
21500SOL     OW70335   7.467   3.347  10.160  1.0355 -0.0319  0.1031
21500SOL    HW170336   7.507   3.260  10.163  0.3391 -0.3523  0.7383
21500SOL    HW270337   7.507   3.390  10.085  0.6998 -1.2594 -0.8291
21501SOL     OW70338   6.015   3.893   3.758  0.4143 -0.0903 -0.2010
21501SOL    HW170339   6.080   3.960   3.778  0.7852 -0.4241 -0.2915
21501SOL    HW270340   6.045   3.854   3.676  0.1212 -0.2731 -0.2222
21502SOL     OW70341  10.281   0.372   4.420 -0.3702 -0.2299  0.5372
21502SOL    HW170342  10.216   0.390   4.488 -1.6529 -1.1226 -0.3998
21502SOL    HW270343  10.348   0.440   4.431 -0.0669 -0.8439  3.2279
21503SOL     OW70344   4.315  10.175  10.673 -0.0450  0.1351 -0.1863
21503SOL    HW170345   4.355  10.127  10.746 -0.8845 -0.1925  0.0741
21503SOL    HW270346   4.297  10.262  10.708 -0.8456 -0.1561  0.1435
21504SOL     OW70347   2.030   3.457   2.732  0.1894 -0.5621 -0.4760
21504SOL    HW170348   2.086   3.503   2.670 -1.3052 -1.4883 -2.6029
21504SOL    HW270349   2.087   3.389   2.769  1.6132  1.1195  0.6328
21505SOL     OW70350   7.419   7.619   8.070  0.0717 -0.2586 -0.2773
21505SOL    HW170351   7.452   7.701   8.106 -2.4814 -0.1379  2.1819
21505SOL    HW270352   7.492   7.558   8.079  1.5012  1.3121 -0.6290
21506SOL     OW70353   9.672   5.586   4.521  0.2881  0.2065  0.1090
21506SOL    HW170354   9.580   5.590   4.546  0.0703  0.5720 -0.7046
21506SOL    HW270355   9.718   5.558   4.600 -0.4790  0.3891  0.6245
21507SOL     OW70356   4.474   3.344   1.931 -0.4215  0.5238 -0.3135
21507SOL    HW170357   4.389   3.359   1.890 -0.2026  1.8940 -0.3085
21507SOL    HW270358   4.535   3.396   1.880  0.8130 -1.9855 -1.5602
21508SOL     OW70359   9.758   8.505   1.114  0.4149 -0.0074  0.2353
21508SOL    HW170360   9.802   8.491   1.198  0.6176 -1.2857 -0.0649
21508SOL    HW270361   9.720   8.592   1.121  2.5076  0.9031  0.7168
21509SOL     OW70362   5.197   3.451   8.254  0.1617 -0.0672 -0.0266
21509SOL    HW170363   5.212   3.536   8.296  0.8817 -0.9473  1.6084
21509SOL    HW270364   5.230   3.462   8.165 -1.9754  2.0546 -0.6473
21510SOL     OW70365   9.061  10.603   1.915 -0.3458 -0.0328 -0.2124
21510SOL    HW170366   9.059  10.585   2.009 -0.4180  2.2690  0.3064
21510SOL    HW270367   9.112  10.532   1.877 -1.0349 -1.4806  1.4267
21511SOL     OW70368  10.641   7.771   7.896  0.5481 -0.1518  0.5610
21511SOL    HW170369  10.733   7.786   7.874  0.0212  0.2612 -1.5789
21511SOL    HW270370  10.601   7.858   7.889 -0.3824 -0.6438 -0.6561
21512SOL     OW70371   1.503  10.822   9.196  0.1100 -0.3118  0.3106
21512SOL    HW170372   1.492  10.734   9.233  0.8381 -0.5996 -0.1391
21512SOL    HW270373   1.440  10.826   9.124 -0.5377 -0.1426  0.8727
21513SOL     OW70374   5.445   6.822   5.457  0.1396  0.0075  0.4598
21513SOL    HW170375   5.444   6.798   5.549 -2.0639 -1.0149  0.2474
21513SOL    HW270376   5.357   6.799   5.425 -0.3050  3.2639 -1.1413
21514SOL     OW70377   7.354   4.210   5.313  0.2154  0.8795 -0.1201
21514SOL    HW170378   7.441   4.196   5.351 -0.0196  0.0713  0.1435
21514SOL    HW270379   7.333   4.301   5.333  1.0884  1.1468 -0.3750
21515SOL     OW70380  10.266   9.328   4.173 -0.2065  0.5117 -0.1984
21515SOL    HW170381  10.309   9.286   4.248 -1.9892  0.7517  1.0342
21515SOL    HW270382  10.296   9.278   4.097  0.4054 -0.7946  0.8568
21516SOL     OW70383   4.884   1.284   3.280  0.2238 -0.1995 -0.1248
21516SOL    HW170384   4.946   1.290   3.208  0.5112  0.1201  0.1455
21516SOL    HW270385   4.819   1.352   3.261 -0.9074 -1.5304 -1.2103
21517SOL     OW70386  10.754   0.441   4.149 -0.4664  0.2069 -0.2093
21517SOL    HW170387  10.762   0.533   4.122 -1.6538 -0.1405 -1.8601
21517SOL    HW270388  10.824   0.396   4.101 -0.1131  0.1740  0.3245
21518SOL     OW70389   5.037   6.808   1.881  0.0483  0.0909 -0.5269
21518SOL    HW170390   5.127   6.822   1.912  0.2567 -1.0751 -0.5334
21518SOL    HW270391   4.985   6.874   1.926  0.5894 -0.5755  1.1695
21519SOL     OW70392   2.995   7.089   0.040  0.0632 -0.2203  0.4358
21519SOL    HW170393   2.996   7.162  -0.023 -0.2840 -1.4009 -1.0012
21519SOL    HW270394   3.086   7.062   0.046  0.6014  1.8132  2.8558
21520SOL     OW70395   7.236  10.455   6.877 -0.2672 -0.4086  0.1467
21520SOL    HW170396   7.323  10.493   6.863  0.0302  0.2043  3.0172
21520SOL    HW270397   7.185  10.526   6.917 -1.1022 -1.6558  1.3715
21521SOL     OW70398   9.889   4.563  10.298 -0.1421 -0.2304 -0.1157
21521SOL    HW170399   9.981   4.584  10.282 -1.3298  3.1359 -4.2944
21521SOL    HW270400   9.861   4.627  10.364  0.5227 -1.6516  1.6169
21522SOL     OW70401   7.528   2.702   6.665  0.1365 -0.1274  0.5060
21522SOL    HW170402   7.615   2.730   6.636 -0.5445  1.1038 -0.4194
21522SOL    HW270403   7.533   2.606   6.663  1.2887 -0.0813 -0.0814
21523SOL     OW70404   8.147   3.071   8.904  0.1090  0.2222  0.2201
21523SOL    HW170405   8.117   3.000   8.848  0.2260  0.4921 -0.1879
21523SOL    HW270406   8.191   3.027   8.977 -1.6720 -0.2034  1.0844
21524SOL     OW70407   5.531   1.195  10.463 -0.0305 -0.6567 -0.2773
21524SOL    HW170408   5.572   1.278  10.439 -0.4112 -0.7268 -1.2090
21524SOL    HW270409   5.446   1.196  10.420  0.3781 -1.9746 -1.2028
21525SOL     OW70410   9.672   5.398   9.799  0.2078 -0.1596  0.7722
21525SOL    HW170411   9.633   5.350   9.726  1.0091  0.9565 -0.4314
21525SOL    HW270412   9.597   5.427   9.851 -0.5504  0.9840 -0.8713
21526SOL     OW70413   0.234   1.985   9.568  0.4357  0.5378  0.2891
21526SOL    HW170414   0.173   2.058   9.576  1.6397  1.7687 -1.1626
21526SOL    HW270415   0.179   1.909   9.553 -0.7661  1.5158 -0.4106
21527SOL     OW70416   4.975   2.154   6.812  0.2010 -0.0919 -0.3198
21527SOL    HW170417   5.026   2.078   6.838  1.7623  0.2719 -2.1726
21527SOL    HW270418   5.019   2.228   6.854  0.2665  0.0616 -0.6558
21528SOL     OW70419   6.400   6.331   9.500 -0.1308 -0.2752  0.4954
21528SOL    HW170420   6.407   6.248   9.546  0.1971  0.6868  2.2522
21528SOL    HW270421   6.486   6.344   9.460 -0.1847 -0.7479  0.2092
21529SOL     OW70422   4.384   3.267   2.910  0.2672  0.1917  0.2787
21529SOL    HW170423   4.445   3.329   2.950 -0.9257  1.6120 -0.0516
21529SOL    HW270424   4.430   3.236   2.832  1.5539 -0.6521  1.3238
21530SOL     OW70425   6.872   6.512   0.057 -0.1310  0.2831 -0.1486
21530SOL    HW170426   6.810   6.584   0.050  0.9794  1.2777 -0.0627
21530SOL    HW270427   6.884   6.482  -0.034 -0.8318 -0.0123 -0.1481
21531SOL     OW70428   5.761   6.233   1.771 -0.8028 -0.2008 -0.0056
21531SOL    HW170429   5.700   6.229   1.845 -1.0106 -0.5510 -0.1979
21531SOL    HW270430   5.781   6.327   1.762 -1.7374 -0.0233 -0.2897
21532SOL     OW70431  10.418   2.450  10.296  0.7010  0.4529  0.0637
21532SOL    HW170432  10.424   2.530  10.348 -1.0217  1.6000 -1.3613
21532SOL    HW270433  10.426   2.379  10.359 -2.3510  1.7419  2.1274
21533SOL     OW70434  10.407   1.035   6.744  0.2962 -0.1034  0.1280
21533SOL    HW170435  10.485   1.052   6.797 -0.3331  2.0762  0.4745
21533SOL    HW270436  10.434   1.055   6.654  0.6278 -1.1667 -0.0155
21534SOL     OW70437   0.850   6.848   3.677  0.8801 -0.0003 -0.1960
21534SOL    HW170438   0.890   6.935   3.680 -0.2085  0.5037  0.1411
21534SOL    HW270439   0.912   6.795   3.627  2.1446  0.6473  0.6586
21535SOL     OW70440   9.119   7.382   2.806  0.1793  0.2766 -0.0785
21535SOL    HW170441   9.151   7.412   2.891 -1.8015  0.3301  0.7013
21535SOL    HW270442   9.111   7.287   2.816 -1.3829  0.4306  0.3040
21536SOL     OW70443   7.513  10.553   5.491  0.1731 -0.6832 -0.4737
21536SOL    HW170444   7.506  10.469   5.446  0.6783 -1.5342  0.9852
21536SOL    HW270445   7.479  10.617   5.428 -1.4514 -2.1238 -1.1414
21537SOL     OW70446   9.887   7.281   9.551 -0.1600 -0.6665  0.1625
21537SOL    HW170447   9.954   7.263   9.618  1.2485 -2.6909 -1.6751
21537SOL    HW270448   9.828   7.207   9.556 -1.3021  0.2398  0.5579
21538SOL     OW70449   2.454   7.557   1.163 -0.0946 -0.7012 -0.3535
21538SOL    HW170450   2.396   7.561   1.239  0.8884 -0.7093  0.4221
21538SOL    HW270451   2.441   7.640   1.118  0.5331  0.0119  0.7597
21539SOL     OW70452   3.229   1.262   5.744  0.1868  0.5282  0.3894
21539SOL    HW170453   3.289   1.225   5.808  1.0320 -0.7186 -1.0454
21539SOL    HW270454   3.264   1.234   5.659 -1.8903  0.5491 -0.5517
21540SOL     OW70455   7.513   3.520   9.275 -0.0114  0.3055 -0.5500
21540SOL    HW170456   7.503   3.425   9.272 -0.8445  0.3782 -0.3546
21540SOL    HW270457   7.504   3.542   9.368 -0.9211  0.6815 -0.7236
21541SOL     OW70458   3.435   5.447   1.857  0.0378 -0.4096 -0.2372
21541SOL    HW170459   3.352   5.494   1.849  0.8888  1.3142  0.5620
21541SOL    HW270460   3.425   5.370   1.800 -1.6506  0.3916 -1.0812
21542SOL     OW70461   7.656  10.172   8.659  0.7371  0.3840 -0.2903
21542SOL    HW170462   7.698  10.121   8.728 -0.2193  0.3638  0.2849
21542SOL    HW270463   7.612  10.243   8.705  1.2043  1.1539 -1.0013
21543SOL     OW70464   5.984   9.315   7.917  0.0330  0.7554 -0.2015
21543SOL    HW170465   5.994   9.290   8.009  0.1644 -0.6838 -0.5830
21543SOL    HW270466   6.067   9.357   7.895 -0.5645  2.5646  0.7273
21544SOL     OW70467   1.265   4.415   1.923  0.0938 -0.3541  0.0051
21544SOL    HW170468   1.307   4.431   2.008  0.9864 -0.6990 -0.3528
21544SOL    HW270469   1.224   4.329   1.932  0.6014 -0.6068 -0.0618
21545SOL     OW70470   9.172   9.903   0.791  0.2558  0.1228 -0.1036
21545SOL    HW170471   9.152   9.841   0.721  0.1887  0.0144  0.0118
21545SOL    HW270472   9.246   9.954   0.757 -0.6025  0.9390 -0.7857
21546SOL     OW70473   8.808   6.406   5.442  0.0761  0.1498 -0.7626
21546SOL    HW170474   8.815   6.501   5.453 -0.9181  0.1255  0.2512
21546SOL    HW270475   8.873   6.385   5.375  1.1216  1.3907 -0.1898
21547SOL     OW70476   6.673   2.901   3.311  0.3784 -0.0330 -0.2591
21547SOL    HW170477   6.683   2.926   3.219 -1.4103  0.9847 -0.2235
21547SOL    HW270478   6.581   2.877   3.319  0.8811 -1.7370  0.9188
21548SOL     OW70479   6.721   4.869   2.165 -0.7617 -0.0108 -0.0293
21548SOL    HW170480   6.692   4.778   2.167 -2.4782  0.4249 -1.6733
21548SOL    HW270481   6.782   4.873   2.091 -1.0730  0.2692 -0.2730
21549SOL     OW70482  10.240   2.293   2.017 -0.1232  0.0958 -0.6178
21549SOL    HW170483  10.241   2.199   2.038 -1.5708  0.3210  0.6622
21549SOL    HW270484  10.200   2.297   1.930 -0.7383 -0.4556 -0.3764
21550SOL     OW70485   0.719   0.266   6.534 -0.0716  0.2661 -0.6394
21550SOL    HW170486   0.779   0.316   6.590 -0.8474 -0.8682  1.3149
21550SOL    HW270487   0.769   0.188   6.509  0.1014  0.5320 -1.1464
21551SOL     OW70488   0.081   4.360   9.594  0.3231  0.1444  0.4826
21551SOL    HW170489   0.122   4.295   9.537 -3.4434 -0.9111 -1.3154
21551SOL    HW270490   0.078   4.440   9.542  0.9199  0.5259  1.0069
21552SOL     OW70491   1.699   8.241   5.593  0.3502  0.2903 -0.1119
21552SOL    HW170492   1.613   8.252   5.634 -0.6503 -0.9770 -1.7519
21552SOL    HW270493   1.719   8.148   5.603  1.1209  0.4051 -0.5145
21553SOL     OW70494   9.842   0.648   1.988 -0.0989 -0.1555  0.8685
21553SOL    HW170495   9.853   0.555   2.009  2.9718 -0.1461 -0.1838
21553SOL    HW270496   9.890   0.693   2.057  1.0216  0.4354 -0.2576
21554SOL     OW70497   5.667   5.354  10.585 -0.0199 -0.3541 -0.2094
21554SOL    HW170498   5.644   5.307  10.666  0.2092  1.1955  0.7970
21554SOL    HW270499   5.750   5.315  10.558  0.1942 -0.5010  0.6311
21555SOL     OW70500   5.564   9.241   0.273 -0.8035 -0.4917  0.4343
21555SOL    HW170501   5.583   9.264   0.182 -0.2897 -1.5165  0.2757
21555SOL    HW270502   5.620   9.299   0.324 -1.4894  0.4761  0.1341
21556SOL     OW70503   7.236   6.270   2.843  0.1277  0.2618  0.3634
21556SOL    HW170504   7.269   6.352   2.879 -0.3423  0.0958  1.1905
21556SOL    HW270505   7.181   6.297   2.768 -1.3738  0.8399  1.6184
21557SOL     OW70506   1.974   6.832  10.839  0.2279  0.0736  0.0329
21557SOL    HW170507   1.889   6.787  10.839  0.0886  0.0274 -3.8566
21557SOL    HW270508   2.028   6.780  10.780  1.9095  1.9042 -0.1320
21558SOL     OW70509   4.685   1.074   5.043  0.3792 -0.1695 -0.4973
21558SOL    HW170510   4.702   1.117   5.127 -1.9076  1.3556 -0.7429
21558SOL    HW270511   4.772   1.043   5.015  1.5847  1.3025  1.3202
21559SOL     OW70512   9.480   7.267   0.925  0.6117  0.2776 -0.6188
21559SOL    HW170513   9.425   7.316   0.863  1.0632  0.0211 -1.2300
21559SOL    HW270514   9.495   7.329   0.997 -0.6484  0.2772 -0.3358
21560SOL     OW70515   0.518  10.208  10.568 -0.2251 -0.7640 -0.1077
21560SOL    HW170516   0.442  10.181  10.518 -0.8788 -0.9184  0.9450
21560SOL    HW270517   0.584  10.141  10.549 -1.1645 -2.0151  0.8910
21561SOL     OW70518   9.389   7.974   9.855  0.0731  0.1508  0.2628
21561SOL    HW170519   9.325   8.032   9.815  0.1769 -0.7324 -1.2863
21561SOL    HW270520   9.474   8.007   9.823  0.3170  0.5772  1.3140
21562SOL     OW70521   6.847   1.170   8.073  0.2585 -0.2875  0.7363
21562SOL    HW170522   6.862   1.258   8.108 -0.1435 -0.2487  0.8132
21562SOL    HW270523   6.837   1.183   7.979 -0.4055 -0.1758  0.8214
21563SOL     OW70524   3.933   4.380   1.454  0.1006 -0.4444  0.0414
21563SOL    HW170525   3.858   4.324   1.478  0.1238 -0.6948 -0.4614
21563SOL    HW270526   3.946   4.363   1.361  2.4980 -2.4910  0.6428
21564SOL     OW70527   2.271   0.348   6.231 -0.4439 -0.0558 -0.2259
21564SOL    HW170528   2.337   0.384   6.291 -0.8411  0.1208  0.1141
21564SOL    HW270529   2.307   0.264   6.203  0.6758  0.7584 -1.3247
21565SOL     OW70530   8.040   3.193   4.123  0.0699  0.4631  0.0025
21565SOL    HW170531   8.101   3.121   4.105  2.4032  1.6300  2.4963
21565SOL    HW270532   8.045   3.248   4.046 -1.2043 -1.5587 -1.6437
21566SOL     OW70533   6.094   1.301   8.345 -0.5556 -0.1371  0.2537
21566SOL    HW170534   6.085   1.316   8.439 -0.5110  2.0177 -0.0327
21566SOL    HW270535   6.064   1.211   8.332 -0.2311 -0.5978  2.3623
21567SOL     OW70536   6.630   4.385   1.709  0.0087  0.5812 -0.5546
21567SOL    HW170537   6.668   4.298   1.719  1.6933  1.2289 -0.9498
21567SOL    HW270538   6.696   4.444   1.746 -0.9993  1.7076 -0.5020
21568SOL     OW70539   9.970   5.957   8.782 -0.4647  0.0523  0.0155
21568SOL    HW170540   9.916   5.922   8.711  0.8034  0.3597 -1.1566
21568SOL    HW270541   9.915   6.024   8.823 -1.7141 -1.0690  0.2073
21569SOL     OW70542   2.250   3.861   7.577 -0.5481  0.4363 -0.0485
21569SOL    HW170543   2.271   3.942   7.529  1.1045  0.0266 -0.1032
21569SOL    HW270544   2.262   3.792   7.513  0.0942  0.0091  0.5107
21570SOL     OW70545   0.966   9.124   4.932  0.0202 -0.0063 -0.6655
21570SOL    HW170546   0.940   9.051   4.987 -2.3016  1.4609  0.3213
21570SOL    HW270547   1.025   9.175   4.987  0.9968 -0.6635 -1.0697
21571SOL     OW70548   4.471   2.104   5.215 -0.3245  0.4574  0.0149
21571SOL    HW170549   4.518   2.047   5.155 -1.1517  0.2553 -0.4623
21571SOL    HW270550   4.539   2.157   5.257  0.2433  1.1722 -1.6962
21572SOL     OW70551   6.091   0.930   8.168 -0.4251  0.2679 -0.1839
21572SOL    HW170552   6.180   0.919   8.203 -0.2597  1.6722 -0.1185
21572SOL    HW270553   6.074   0.848   8.121  0.1694 -0.8086  1.3606
21573SOL     OW70554   7.410   0.282   9.695  0.6724 -0.9236  0.2453
21573SOL    HW170555   7.495   0.315   9.724  1.0953  1.3102 -2.9387
21573SOL    HW270556   7.412   0.293   9.600 -2.7626 -1.8780 -0.0559
21574SOL     OW70557   4.940   2.933   3.932  0.3392  0.5728 -0.7314
21574SOL    HW170558   4.999   2.858   3.925  0.2502  0.5800 -1.7400
21574SOL    HW270559   4.968   2.978   4.012 -1.3125 -1.9645  1.4646
21575SOL     OW70560   8.723   3.104   1.328 -0.3407 -0.3119  0.3899
21575SOL    HW170561   8.770   3.102   1.245  0.7916 -1.7914  1.0127
21575SOL    HW270562   8.772   3.165   1.383 -0.5154 -0.0879  0.3002
21576SOL     OW70563   3.124   1.292   2.840 -0.5502 -0.0285  0.1864
21576SOL    HW170564   3.154   1.231   2.773 -1.0536 -0.9677  0.7886
21576SOL    HW270565   3.035   1.315   2.814 -0.6526 -0.1897  0.3914
21577SOL     OW70566   5.944   9.256   0.300  0.2929  0.0526  0.1600
21577SOL    HW170567   5.938   9.167   0.335 -0.0742  0.4501  1.1315
21577SOL    HW270568   5.869   9.264   0.241 -1.4624  0.6911  2.3705
21578SOL     OW70569   1.377   6.539   2.213  0.5939  0.5862  0.4135
21578SOL    HW170570   1.411   6.627   2.199 -0.5154  1.0007  0.2323
21578SOL    HW270571   1.288   6.552   2.246  0.2121 -0.4583 -0.1381
21579SOL     OW70572   8.456   0.670   5.005 -0.0679  0.0511  0.0080
21579SOL    HW170573   8.386   0.611   4.976 -0.4875 -1.5169  3.6806
21579SOL    HW270574   8.535   0.637   4.961 -0.5917 -2.2312  0.6401
21580SOL     OW70575   7.036   5.996   5.404 -0.6210 -0.1902 -0.0022
21580SOL    HW170576   7.039   5.967   5.312 -0.6170  1.1211 -0.4426
21580SOL    HW270577   7.082   5.928   5.452  0.9619 -0.0424 -1.2271
21581SOL     OW70578   6.001   1.326   6.537 -0.3191  0.4704  0.0306
21581SOL    HW170579   6.000   1.377   6.618  0.3305  0.0846  0.2839
21581SOL    HW270580   5.935   1.258   6.549 -0.8623  0.9629 -0.1271
21582SOL     OW70581   2.833   9.067   3.363 -0.1958  0.3181 -0.6051
21582SOL    HW170582   2.826   8.988   3.416 -0.1553  1.0374  0.4931
21582SOL    HW270583   2.754   9.117   3.383  0.6068  1.3553  0.0630
21583SOL     OW70584   3.549   6.660   3.333  0.0931 -0.4525 -0.1634
21583SOL    HW170585   3.558   6.737   3.277  0.3056 -0.6049 -0.3450
21583SOL    HW270586   3.515   6.592   3.274 -0.8155 -0.2927  0.1711
21584SOL     OW70587   0.479   2.969   2.391 -0.0865  0.0580 -0.0713
21584SOL    HW170588   0.478   3.050   2.444 -0.4869  0.7206 -1.0704
21584SOL    HW270589   0.542   2.987   2.322  1.3964 -1.2819  0.8613
21585SOL     OW70590   5.051   6.824   6.791 -0.0189  0.7067  0.3963
21585SOL    HW170591   4.987   6.831   6.862  1.8375 -1.9808  2.5444
21585SOL    HW270592   5.124   6.776   6.829  1.0865 -0.9769 -3.3604
21586SOL     OW70593   7.478  10.516   6.787  0.6204  0.2362 -0.5603
21586SOL    HW170594   7.489  10.536   6.695  0.8063  1.5102 -0.2726
21586SOL    HW270595   7.533  10.438   6.801  0.6758  0.0989 -1.4818
21587SOL     OW70596   3.969   4.276   4.765 -0.7520  0.0155  0.2804
21587SOL    HW170597   4.063   4.269   4.753 -0.8200 -1.5140  0.5426
21587SOL    HW270598   3.958   4.321   4.849 -0.2409 -1.4857  1.1713
21588SOL     OW70599   9.359   6.713   0.067  0.3031  0.2107  0.1058
21588SOL    HW170600   9.410   6.655   0.011 -0.7196 -0.8023  0.1901
21588SOL    HW270601   9.425   6.766   0.113  1.1760  0.7607 -1.6992
21589SOL     OW70602   1.468  10.736   3.970  0.1532 -0.0366  0.1873
21589SOL    HW170603   1.433  10.790   3.899 -0.6902 -0.4672  0.2727
21589SOL    HW270604   1.438  10.779   4.050  1.8447  0.9581  0.3327
21590SOL     OW70605   5.704   8.553  10.713  0.5852 -0.0523  0.0525
21590SOL    HW170606   5.674   8.499  10.640 -0.1220  2.2783 -1.5014
21590SOL    HW270607   5.663   8.639  10.698  2.7414  1.3539  1.5917
21591SOL     OW70608   1.908   8.207   8.673  0.4051 -0.2056 -0.7611
21591SOL    HW170609   2.003   8.213   8.683  0.2922 -0.2859  0.5103
21591SOL    HW270610   1.882   8.295   8.644  0.7718  0.1275 -0.1205
21592SOL     OW70611   1.856   0.933   6.415 -0.3619 -0.1865 -0.3907
21592SOL    HW170612   1.888   1.009   6.463 -1.6230 -0.1294  0.3924
21592SOL    HW270613   1.819   0.969   6.334  0.1902 -0.1114 -0.6155
21593SOL     OW70614   4.745   8.085   4.655  0.4223 -0.2454  0.4750
21593SOL    HW170615   4.819   8.130   4.614  0.0984 -0.1258  0.0056
21593SOL    HW270616   4.683   8.071   4.583 -0.3753  0.4070  1.0197
21594SOL     OW70617   6.821   4.320   2.994 -0.0460  0.0074 -0.4506
21594SOL    HW170618   6.916   4.330   2.991  0.2125 -1.7287 -4.0182
21594SOL    HW270619   6.797   4.297   2.904 -3.9722  1.1386  0.1323
21595SOL     OW70620   2.120   1.980   4.701 -0.4925 -0.0198  0.8298
21595SOL    HW170621   2.146   2.028   4.622 -0.4137 -0.1814  0.7565
21595SOL    HW270622   2.032   1.947   4.681 -0.2642 -0.5081  0.6009
21596SOL     OW70623   5.517   7.939   4.321 -0.1534 -0.4072 -0.3504
21596SOL    HW170624   5.509   8.026   4.282  0.1469 -0.2593 -0.0886
21596SOL    HW270625   5.515   7.955   4.416 -0.8815 -0.7626 -0.3033
21597SOL     OW70626   5.149   5.429   0.360 -0.1531  0.2837 -0.5565
21597SOL    HW170627   5.241   5.414   0.339  0.3370  1.4837  0.5920
21597SOL    HW270628   5.143   5.415   0.455 -0.6302  2.4107 -0.2173
21598SOL     OW70629   4.453   7.185   8.805  0.0921 -0.2016 -0.0156
21598SOL    HW170630   4.502   7.146   8.877 -3.1951 -2.8485  1.0140
21598SOL    HW270631   4.494   7.148   8.726 -0.0621 -2.2573  0.7951
21599SOL     OW70632   3.164   5.434   5.141  0.2689 -0.0593  0.2554
21599SOL    HW170633   3.142   5.438   5.234  1.2748  1.9441  0.4531
21599SOL    HW270634   3.198   5.521   5.120  2.3468 -1.1830 -1.4147
21600SOL     OW70635   0.564   3.211   0.400 -0.0735 -0.0545  0.4054
21600SOL    HW170636   0.633   3.238   0.340  0.5370 -1.0139  0.6537
21600SOL    HW270637   0.570   3.274   0.473  0.1291  0.2379  0.1367
21601SOL     OW70638   1.817   3.213   0.734  0.0620  0.1951 -0.2688
21601SOL    HW170639   1.853   3.265   0.805  0.9855  0.7178 -1.0926
21601SOL    HW270640   1.728   3.247   0.722  0.1491  0.5826  0.1559
21602SOL     OW70641   9.964   7.353   5.620 -0.1987 -1.0117  0.7010
21602SOL    HW170642   9.961   7.443   5.587 -1.7258 -0.8300  1.2301
21602SOL    HW270643  10.045   7.316   5.584  0.7693  0.7561  0.9762
21603SOL     OW70644   9.332   3.209   5.707 -0.0365 -0.3065 -0.1921
21603SOL    HW170645   9.427   3.213   5.706 -0.0192 -0.3915  0.4602
21603SOL    HW270646   9.311   3.115   5.709 -0.1264 -0.2845 -0.0522
21604SOL     OW70647   3.478   4.557   6.887  0.3522  0.3927  0.0252
21604SOL    HW170648   3.477   4.631   6.826 -2.3215  0.5592  0.1568
21604SOL    HW270649   3.440   4.591   6.968  1.2014 -0.5661  0.8662
21605SOL     OW70650   6.198   5.721   0.489  0.3451 -0.1397 -0.1371
21605SOL    HW170651   6.174   5.814   0.484 -1.2371 -0.3236  2.3162
21605SOL    HW270652   6.176   5.686   0.402 -0.1995  1.5310 -0.7081
21606SOL     OW70653   4.638   8.399   9.198 -0.1169 -0.4592 -0.2943
21606SOL    HW170654   4.589   8.478   9.177  0.1278  0.2332  1.5187
21606SOL    HW270655   4.593   8.329   9.150 -0.2517  0.7595 -2.0466
21607SOL     OW70656   4.779  10.280   5.131  0.3836  0.5952  0.0163
21607SOL    HW170657   4.724  10.218   5.179  0.9873 -0.4489 -0.5960
21607SOL    HW270658   4.722  10.355   5.116 -1.0858 -0.6613 -1.0618
21608SOL     OW70659   8.486   9.330   0.804 -0.3027  0.1278  0.2819
21608SOL    HW170660   8.565   9.294   0.764  0.1666  0.9109  0.4924
21608SOL    HW270661   8.499   9.321   0.898 -0.9182 -0.6781  0.3026
21609SOL     OW70662   6.553   6.557   2.318 -0.3736 -0.1807 -0.1648
21609SOL    HW170663   6.525   6.466   2.330 -1.2459  0.1277  0.2620
21609SOL    HW270664   6.580   6.562   2.227 -2.1091 -0.4287 -0.7375
21610SOL     OW70665   2.334   3.281  10.314 -0.2082  0.7958 -0.5918
21610SOL    HW170666   2.264   3.345  10.300 -0.0209  0.8129 -1.5277
21610SOL    HW270667   2.395   3.324  10.373 -1.6010  0.2982  1.3264
21611SOL     OW70668   6.007   4.984  10.151  0.4572 -0.4406 -0.3360
21611SOL    HW170669   5.925   5.030  10.132  0.7142 -0.5514 -1.7961
21611SOL    HW270670   5.997   4.954  10.242 -1.0869 -0.3795 -0.4635
21612SOL     OW70671   6.221   5.307   5.923  0.6369 -0.1397  0.2849
21612SOL    HW170672   6.215   5.402   5.911 -1.8379 -0.2534  0.1701
21612SOL    HW270673   6.181   5.271   5.844  0.5988 -1.2579  0.8020
21613SOL     OW70674   7.417   9.332   7.095  0.5973  0.8626  0.3429
21613SOL    HW170675   7.347   9.382   7.053 -0.6012  0.6930  2.0594
21613SOL    HW270676   7.416   9.247   7.050  0.5729  1.2766 -0.4737
21614SOL     OW70677   5.883   5.928   7.906  0.1719  0.3213  0.0758
21614SOL    HW170678   5.793   5.960   7.914 -0.2577 -1.1535  2.5575
21614SOL    HW270679   5.928   5.966   7.981  1.5143  0.6820 -0.8972
21615SOL     OW70680   6.613   2.108   9.715  0.0873  0.4160  0.5589
21615SOL    HW170681   6.694   2.111   9.766  0.7452  1.5924 -0.4884
21615SOL    HW270682   6.634   2.155   9.634 -1.0402 -1.0103 -0.6232
21616SOL     OW70683   9.651   6.175   3.176 -0.4006 -0.0671  0.4693
21616SOL    HW170684   9.711   6.247   3.197 -0.2453  0.4488 -1.5344
21616SOL    HW270685   9.667   6.156   3.084 -1.9674 -1.2311  0.3859
21617SOL     OW70686   4.004   9.325   2.262  0.0399 -0.8176  0.0129
21617SOL    HW170687   3.995   9.359   2.173  1.3248 -0.9486 -0.1863
21617SOL    HW270688   4.050   9.395   2.309  0.3188 -1.1885  0.2945
21618SOL     OW70689   9.071   0.945   3.697  0.0410 -0.2549  0.4857
21618SOL    HW170690   9.036   1.032   3.681 -0.1334 -0.5350 -0.7304
21618SOL    HW270691   8.996   0.895   3.732  0.3813  0.3086  2.1150
21619SOL     OW70692   6.798  10.086   7.588 -0.6540  0.1812 -0.1145
21619SOL    HW170693   6.782  10.162   7.532 -1.4631  0.4778  0.5095
21619SOL    HW270694   6.889  10.097   7.617  0.1789 -0.5780 -2.2509
21620SOL     OW70695   8.146   1.534   9.912 -0.1403 -0.6126  0.3568
21620SOL    HW170696   8.237   1.504   9.917 -0.2603 -0.9622  0.5040
21620SOL    HW270697   8.139   1.602   9.979  0.4958  0.7278 -0.9077
21621SOL     OW70698   6.039   0.513   9.857 -0.0130  0.2218  0.6151
21621SOL    HW170699   6.031   0.600   9.897  3.1038  1.2805 -0.7616
21621SOL    HW270700   6.080   0.459   9.925 -0.3148  0.3111  0.8711
21622SOL     OW70701   9.249   5.980   4.847  0.3535 -0.8215  1.5965
21622SOL    HW170702   9.324   6.035   4.823  0.4839 -0.7931  2.0714
21622SOL    HW270703   9.211   6.022   4.924 -0.8290 -0.2055  0.7133
21623SOL     OW70704   6.669   8.240   9.764  0.3081  0.2734  0.0526
21623SOL    HW170705   6.752   8.229   9.718 -1.5112 -0.3962 -3.4193
21623SOL    HW270706   6.662   8.161   9.819  0.9209 -0.8975 -1.4682
21624SOL     OW70707  10.167   1.143   1.537  0.1468 -0.0215 -0.8017
21624SOL    HW170708  10.201   1.055   1.525 -0.6932 -0.6608  1.0639
21624SOL    HW270709  10.083   1.131   1.583  1.1370  1.7924  1.7451
21625SOL     OW70710   2.141   5.238   6.335  0.4972  0.2150 -0.2534
21625SOL    HW170711   2.081   5.167   6.312  1.1337  0.0504 -1.4417
21625SOL    HW270712   2.196   5.202   6.404  1.0844 -0.6104 -1.1253
21626SOL     OW70713   8.534  10.199   5.178 -0.1731  0.0676  0.3498
21626SOL    HW170714   8.625  10.212   5.204 -0.1912  0.0538  0.4177
21626SOL    HW270715   8.538  10.130   5.112 -0.0655  0.4847 -0.0907
21627SOL     OW70716   4.604   2.922   2.889  0.3266  0.0601 -0.0662
21627SOL    HW170717   4.673   2.869   2.849  1.8031  0.7553  1.4131
21627SOL    HW270718   4.650   3.000   2.920 -1.0436  0.3556  1.3259
21628SOL     OW70719   1.958   6.658   5.564  0.0218 -0.3496  0.1997
21628SOL    HW170720   1.919   6.695   5.643 -0.3749 -0.8058  0.2164
21628SOL    HW270721   1.918   6.572   5.554  1.5774 -1.1647  0.6434
21629SOL     OW70722   6.139   6.372   6.105  0.3685 -0.2239 -0.1245
21629SOL    HW170723   6.154   6.294   6.053 -0.0561  0.4515 -1.3135
21629SOL    HW270724   6.218   6.381   6.159  0.7379 -1.0592 -0.5097
21630SOL     OW70725   9.767   9.341   9.268 -0.0361  0.3584 -0.2141
21630SOL    HW170726   9.803   9.421   9.307 -0.8888  0.3179  0.6856
21630SOL    HW270727   9.844   9.292   9.239  0.5879  0.7164  0.7916
21631SOL     OW70728   4.222   1.247   6.324 -0.0217 -0.1517 -0.7080
21631SOL    HW170729   4.168   1.321   6.350  0.0281 -0.1236 -0.6845
21631SOL    HW270730   4.312   1.276   6.341 -0.0802 -1.6776  3.2790
21632SOL     OW70731   1.717   9.829   9.128 -0.0687 -0.5299  0.3407
21632SOL    HW170732   1.675   9.905   9.169  0.5580 -0.4142  0.7913
21632SOL    HW270733   1.790   9.865   9.079 -0.7344 -0.6858 -0.8016
21633SOL     OW70734   2.105   5.873   9.047 -0.4612  0.1933 -0.2653
21633SOL    HW170735   2.135   5.950   8.999 -1.7190  2.7354  2.6975
21633SOL    HW270736   2.179   5.850   9.104 -0.7926  0.5624  0.3296
21634SOL     OW70737   3.570   5.323   2.364  0.4668  0.3181 -0.1187
21634SOL    HW170738   3.637   5.263   2.396 -0.2813  0.1647  1.2330
21634SOL    HW270739   3.614   5.408   2.360  0.5277  0.4027  1.6312
21635SOL     OW70740   2.924   4.870   0.118  0.0644  0.7279 -0.3416
21635SOL    HW170741   2.965   4.916   0.192 -2.0767  2.8464 -0.3627
21635SOL    HW270742   2.839   4.841   0.152  0.7152 -2.0623 -0.7957
21636SOL     OW70743  10.251   8.496   1.097 -0.1871  0.2029 -0.2255
21636SOL    HW170744  10.314   8.562   1.125  1.3373 -0.9901 -0.7118
21636SOL    HW270745  10.182   8.546   1.053  0.3814  1.5463  0.3344
21637SOL     OW70746   1.499   2.022   2.858 -0.2562  0.2480 -0.1417
21637SOL    HW170747   1.582   2.022   2.811 -0.6684  0.4068 -0.8703
21637SOL    HW270748   1.513   1.962   2.932  0.4231  0.0930 -0.3941
21638SOL     OW70749   2.507   4.577   2.112  0.5556  0.5081  0.7471
21638SOL    HW170750   2.492   4.672   2.109  0.0757  0.4429  1.0827
21638SOL    HW270751   2.473   4.550   2.197  0.0520 -0.0764  0.3620
21639SOL     OW70752   1.213   3.820   0.178 -0.0501  0.3748  0.3951
21639SOL    HW170753   1.256   3.849   0.258 -0.1550 -1.5652  1.2051
21639SOL    HW270754   1.122   3.803   0.204 -0.3317  0.6383 -0.3711
21640SOL     OW70755   2.744   0.182   9.489  1.0214  0.6848  0.3617
21640SOL    HW170756   2.796   0.241   9.434  1.0730 -0.1674 -0.5379
21640SOL    HW270757   2.805   0.148   9.553  1.4528  0.1115 -0.3446
21641SOL     OW70758   4.258   5.990   2.292 -0.4577 -0.0140 -0.6191
21641SOL    HW170759   4.175   5.967   2.334 -0.0754  0.2585  0.3049
21641SOL    HW270760   4.238   5.989   2.198 -1.7710  1.0221 -0.3904
21642SOL     OW70761   6.895   2.503   9.560  0.2633 -0.2714  0.2376
21642SOL    HW170762   6.935   2.572   9.507 -2.4628  0.3090 -1.2450
21642SOL    HW270763   6.966   2.473   9.618  2.6585  0.9317 -1.8515
21643SOL     OW70764   7.605   3.254   9.545 -0.1631  0.0313  0.2330
21643SOL    HW170765   7.634   3.243   9.635 -1.1467  1.3575  0.7364
21643SOL    HW270766   7.573   3.168   9.519  0.2891 -0.4043  1.0866
21644SOL     OW70767   7.884   1.101   4.510 -0.8602  0.4203  0.3267
21644SOL    HW170768   7.883   1.116   4.605  1.0718  1.0498  0.2837
21644SOL    HW270769   7.866   1.008   4.500 -0.4854  0.2298  1.3511
21645SOL     OW70770   8.787   5.936   0.779  0.1598 -0.3577 -0.3798
21645SOL    HW170771   8.829   5.852   0.762 -0.6432 -0.4901 -1.8727
21645SOL    HW270772   8.825   5.996   0.714 -1.7050 -0.4347 -1.6324
21646SOL     OW70773   0.391   5.019   7.767 -0.5708  0.3811 -0.1798
21646SOL    HW170774   0.376   4.987   7.678 -1.0785 -2.3876  0.7900
21646SOL    HW270775   0.356   4.950   7.823  2.7080  0.4123  2.2029
21647SOL     OW70776   8.373  10.837   5.496  0.1473 -0.7048 -0.0560
21647SOL    HW170777   8.377  10.869   5.406  1.9674  0.3398  0.3375
21647SOL    HW270778   8.409  10.909   5.548  2.3660 -2.5492  1.1195
21648SOL     OW70779   0.112   9.683   6.886 -0.6197  0.6866  0.0281
21648SOL    HW170780   0.091   9.699   6.977  1.0039  0.6958  0.4333
21648SOL    HW270781   0.208   9.674   6.884 -0.5151  1.5722 -1.7937
21649SOL     OW70782   2.883   9.646  10.151 -0.2146  0.0325  0.6642
21649SOL    HW170783   2.829   9.589  10.096 -0.1537 -0.4373  1.0876
21649SOL    HW270784   2.847   9.734  10.136  0.0388 -0.0319 -0.4062
21650SOL     OW70785   9.684   7.379   5.420 -0.6072  0.3401  0.0722
21650SOL    HW170786   9.633   7.305   5.453  2.9237 -1.5664  1.9363
21650SOL    HW270787   9.696   7.361   5.327 -0.1477 -1.2808  0.4119
21651SOL     OW70788   5.095   0.902   5.398  0.1223  0.6598  0.4926
21651SOL    HW170789   5.025   0.848   5.436  1.3514 -1.0198  0.4857
21651SOL    HW270790   5.089   0.986   5.444 -2.4726  0.9276 -0.1778
21652SOL     OW70791  10.210   0.173   3.785  0.0919  0.3365 -0.3286
21652SOL    HW170792  10.246   0.088   3.759 -0.9800 -0.5193  0.9148
21652SOL    HW270793  10.153   0.154   3.859  1.9824  2.4905  1.8600
21653SOL     OW70794   4.265   8.889   5.631 -0.2532 -0.0492 -0.6173
21653SOL    HW170795   4.361   8.893   5.629 -0.1486 -0.1790  1.8462
21653SOL    HW270796   4.245   8.809   5.680 -1.5806  0.8386  0.3564
21654SOL     OW70797   4.455   4.660   6.085 -0.2156 -0.7258 -0.3096
21654SOL    HW170798   4.511   4.629   6.014 -1.5925 -1.0706 -1.2836
21654SOL    HW270799   4.374   4.609   6.076 -0.6314 -0.3726  1.1620
21655SOL     OW70800   7.481   9.469   2.549 -0.8124 -0.4903  0.2664
21655SOL    HW170801   7.445   9.382   2.566 -2.2054  0.0066 -0.0701
21655SOL    HW270802   7.458   9.520   2.626 -0.1903 -0.3413  0.3619
21656SOL     OW70803   9.352   1.956   0.218  0.3155  0.1393 -0.1593
21656SOL    HW170804   9.366   1.926   0.308 -1.1196  1.4329  0.5543
21656SOL    HW270805   9.310   1.882   0.174 -0.0388 -0.1004  0.5746
21657SOL     OW70806   3.923   6.639   8.792 -0.4678  0.1034 -0.1424
21657SOL    HW170807   3.886   6.566   8.743  0.0597  0.0108 -0.4097
21657SOL    HW270808   3.979   6.684   8.729 -2.1874  1.8353 -0.5369
21658SOL     OW70809   1.246   9.831   1.622  0.3832 -0.2161  0.5871
21658SOL    HW170810   1.277   9.745   1.652  1.1117  0.5711  2.2182
21658SOL    HW270811   1.176   9.854   1.684 -0.8969 -0.2818 -0.7760
21659SOL     OW70812   6.552   7.152   2.827  0.2576 -0.3003  0.6987
21659SOL    HW170813   6.507   7.067   2.829  0.8834 -0.6358  0.9532
21659SOL    HW270814   6.497   7.207   2.773 -1.7168  0.0241  2.9019
21660SOL     OW70815   7.181   9.282   5.440 -0.2683 -0.0061 -0.3004
21660SOL    HW170816   7.242   9.213   5.468 -0.2538 -0.3928 -1.2707
21660SOL    HW270817   7.206   9.301   5.350 -0.3955  1.1459 -0.1074
21661SOL     OW70818   5.771   3.204   4.490  0.1313  0.5708  0.3637
21661SOL    HW170819   5.777   3.206   4.394 -0.1944  2.5025  0.3558
21661SOL    HW270820   5.862   3.211   4.519  0.2854 -0.5637  0.2343
21662SOL     OW70821   2.317   6.027   2.884 -0.3429 -0.3496  0.1035
21662SOL    HW170822   2.319   6.112   2.839  0.6354 -0.9681 -1.0740
21662SOL    HW270823   2.345   5.964   2.818  0.4894 -1.3975  1.3987
21663SOL     OW70824  10.136  10.636   7.079  0.0096 -0.5251  0.1775
21663SOL    HW170825  10.131  10.612   7.171 -1.3869  0.7405  0.4687
21663SOL    HW270826  10.207  10.699   7.074  0.5449 -1.1172  0.2578
21664SOL     OW70827   3.890   9.089   4.853  0.4001  0.0953  0.1433
21664SOL    HW170828   3.919   9.149   4.785  1.6940  0.4480  0.9635
21664SOL    HW270829   3.932   9.121   4.933  1.0557 -1.8202  0.6374
21665SOL     OW70830   6.812   8.702   9.365  0.4291 -0.3640  0.0531
21665SOL    HW170831   6.881   8.752   9.321 -0.7079  0.6279 -0.6730
21665SOL    HW270832   6.820   8.614   9.329  0.7685 -0.0479 -0.6635
21666SOL     OW70833   9.717   5.430   2.669 -0.0081 -0.5664  0.2937
21666SOL    HW170834   9.696   5.481   2.591  0.9411 -0.4615  0.0850
21666SOL    HW270835   9.641   5.440   2.726 -0.9043 -1.0163 -0.7978
21667SOL     OW70836   2.817   5.596   7.037 -0.2513 -0.1446  0.2564
21667SOL    HW170837   2.785   5.685   7.021  0.8426  0.7325  2.4822
21667SOL    HW270838   2.768   5.567   7.113  2.1771  0.2051  2.0780
21668SOL     OW70839   5.264   3.083   1.567 -0.2711 -0.0732 -0.1357
21668SOL    HW170840   5.201   3.043   1.508  0.2026  1.8056 -2.0104
21668SOL    HW270841   5.340   3.025   1.564  0.3590  0.7876 -2.6870
21669SOL     OW70842   0.413   8.322   9.688  0.1144  0.2912  0.3094
21669SOL    HW170843   0.394   8.415   9.678 -1.9626  0.0940  1.8004
21669SOL    HW270844   0.500   8.311   9.649 -0.1808  2.5543 -1.1839
21670SOL     OW70845   5.372   2.239   4.601 -0.3973 -0.0480  0.1302
21670SOL    HW170846   5.455   2.205   4.567 -1.0202 -2.1023  0.4909
21670SOL    HW270847   5.388   2.253   4.694 -0.4906 -0.6404  0.2414
21671SOL     OW70848   0.259   2.742   1.078  0.1139  0.0630  0.2063
21671SOL    HW170849   0.271   2.679   1.150  1.0123 -0.5533 -0.4561
21671SOL    HW270850   0.346   2.750   1.039 -0.1985  0.9896 -0.3302
21672SOL     OW70851   7.622   7.844   0.102  0.0006 -0.2354 -0.1389
21672SOL    HW170852   7.706   7.802   0.123  0.4264 -0.3025 -1.8564
21672SOL    HW270853   7.570   7.775   0.062  0.2371  0.5208 -1.8073
21673SOL     OW70854   7.726   6.981  10.179 -0.0180  0.0830 -0.1184
21673SOL    HW170855   7.668   7.057  10.180 -0.7135 -0.4400  0.1321
21673SOL    HW270856   7.792   6.999  10.246  0.4934  0.9603 -0.8270
21674SOL     OW70857   4.283   9.262   1.774  0.2967 -0.2991 -0.3938
21674SOL    HW170858   4.333   9.331   1.730 -1.5569  1.4434  0.0966
21674SOL    HW270859   4.253   9.206   1.703  0.0072  0.6685 -1.0677
21675SOL     OW70860   9.959   4.702   4.181 -0.0185 -0.1372 -0.3687
21675SOL    HW170861   9.913   4.619   4.187 -1.1951  0.4214 -1.2098
21675SOL    HW270862  10.046   4.680   4.148 -0.0735 -1.0954  0.1016
21676SOL     OW70863   3.832   8.900   5.492 -0.0294  0.3262  0.4750
21676SOL    HW170864   3.815   8.968   5.427  0.0797 -0.9284 -0.9196
21676SOL    HW270865   3.809   8.819   5.448  1.2102 -0.6763  1.5853
21677SOL     OW70866   6.235   5.131   3.913  0.0490  0.1825 -0.2371
21677SOL    HW170867   6.236   5.038   3.892  0.0122  0.2820 -0.7049
21677SOL    HW270868   6.234   5.175   3.827  1.0622  0.6294 -0.0277
21678SOL     OW70869   1.973   7.521   4.163  0.3752  0.1130  0.2678
21678SOL    HW170870   2.048   7.462   4.166  1.0319  0.7952 -1.3309
21678SOL    HW270871   1.930   7.500   4.080  0.5072  1.6817 -0.2350
21679SOL     OW70872   1.456   5.138  10.080  0.0598  0.0548  0.4406
21679SOL    HW170873   1.504   5.187  10.146 -2.0553  1.5860  0.9456
21679SOL    HW270874   1.364   5.142  10.108 -0.6443 -1.0589 -1.4775
21680SOL     OW70875   8.237   0.456   7.779  0.3577 -0.3597 -0.3116
21680SOL    HW170876   8.179   0.517   7.825  1.4613  1.1434 -0.8120
21680SOL    HW270877   8.316   0.454   7.832  0.4137 -1.2333 -0.4114
21681SOL     OW70878   0.718  10.006   0.059 -0.6155 -0.3581  0.4557
21681SOL    HW170879   0.744   9.982  -0.030 -0.4721 -0.0859  0.4195
21681SOL    HW270880   0.680  10.094   0.049  0.3421  0.1103  0.8054
21682SOL     OW70881   2.683   1.141   0.647 -0.1092 -0.1937  0.0546
21682SOL    HW170882   2.744   1.199   0.601  1.3148 -1.5817  0.1065
21682SOL    HW270883   2.722   1.127   0.732 -1.2426 -0.0051  0.6311
21683SOL     OW70884   2.024   6.720   7.863  0.4338  0.1983  0.0718
21683SOL    HW170885   2.069   6.651   7.913  0.8310 -0.1403 -0.7381
21683SOL    HW270886   2.088   6.790   7.856 -0.0272  0.7397  1.0367
21684SOL     OW70887   5.760   0.820   0.153  0.1156  0.2691  0.7254
21684SOL    HW170888   5.690   0.827   0.218  0.1795  0.4507  0.7760
21684SOL    HW270889   5.757   0.904   0.106 -0.1982 -0.0198  0.2205
21685SOL     OW70890   7.442   5.219   5.811 -0.0155 -0.1231 -0.2399
21685SOL    HW170891   7.499   5.235   5.736  1.4745 -1.5127  0.5418
21685SOL    HW270892   7.480   5.272   5.881 -1.2930  1.0229 -0.3645
21686SOL     OW70893   1.629   0.428   8.384 -0.0709 -0.4087 -0.1903
21686SOL    HW170894   1.602   0.395   8.469  1.3072  1.0666  0.8829
21686SOL    HW270895   1.703   0.373   8.359 -1.8804 -2.3426 -1.5950
21687SOL     OW70896   7.789   4.995   5.577  0.2472 -0.2511 -0.3185
21687SOL    HW170897   7.735   4.960   5.648  0.8982 -0.9080 -0.1483
21687SOL    HW270898   7.763   4.944   5.500 -0.1632  0.1852 -0.4758
21688SOL     OW70899   6.327   4.201   3.463  0.2631 -0.4792  0.2499
21688SOL    HW170900   6.389   4.270   3.486 -1.3469  1.0640  0.1660
21688SOL    HW270901   6.373   4.148   3.398  1.4837  0.5991  0.2030
21689SOL     OW70902   3.076   2.622  10.805 -0.3048  0.2172  0.0794
21689SOL    HW170903   3.135   2.695  10.785  0.2824 -0.5853 -1.1845
21689SOL    HW270904   3.132   2.555  10.843 -0.3348 -0.6540 -1.3765
21690SOL     OW70905   0.593   5.137   2.276  0.5941  0.2428  0.2582
21690SOL    HW170906   0.518   5.185   2.241  0.4581 -0.6693 -0.7611
21690SOL    HW270907   0.651   5.204   2.311  0.2313  1.1310 -0.7907
21691SOL     OW70908   7.908   2.883   7.340  0.3600  0.2905 -0.1774
21691SOL    HW170909   7.943   2.819   7.402  0.8118  0.3324 -0.3878
21691SOL    HW270910   7.859   2.830   7.277  1.9053 -0.0178 -1.1669
21692SOL     OW70911   4.925   5.077   0.569 -0.6730 -0.2846 -0.5920
21692SOL    HW170912   4.936   5.061   0.663  0.5045  0.4143 -0.5952
21692SOL    HW270913   4.894   5.167   0.564 -2.3797 -0.8523 -0.8158
21693SOL     OW70914   1.489   4.237   9.799 -0.6547 -0.5202 -0.4735
21693SOL    HW170915   1.413   4.187   9.828  1.1093 -1.2576  3.4525
21693SOL    HW270916   1.552   4.171   9.770  0.1371 -0.3497  0.7581
21694SOL     OW70917   9.201   4.728   7.139 -0.1440  0.5507  0.2721
21694SOL    HW170918   9.191   4.635   7.118 -0.2746  0.6664 -0.1770
21694SOL    HW270919   9.285   4.753   7.102  0.0287  0.5415  0.6524
21695SOL     OW70920   5.250   0.548   3.128  0.4210 -0.0479  0.4700
21695SOL    HW170921   5.271   0.560   3.035  3.8868  2.7056  1.3831
21695SOL    HW270922   5.157   0.568   3.134 -0.0241 -0.7803 -2.4524
21696SOL     OW70923   0.682   8.236   3.712 -0.2333 -0.6532  0.1335
21696SOL    HW170924   0.634   8.253   3.793  0.8310  0.5215  0.5517
21696SOL    HW270925   0.667   8.143   3.695 -1.1906 -0.7263  1.1943
21697SOL     OW70926   6.125   6.156   5.948 -0.1661  0.2871  0.2180
21697SOL    HW170927   6.205   6.132   5.902  0.3413 -0.6437  1.5136
21697SOL    HW270928   6.074   6.205   5.884  0.9389 -0.0892 -0.9934
21698SOL     OW70929   3.850   5.424   1.901  0.5262 -0.0072  0.4585
21698SOL    HW170930   3.919   5.398   1.963  1.3761 -0.9332 -0.8123
21698SOL    HW270931   3.886   5.401   1.815 -0.6721  1.1278 -0.3744
21699SOL     OW70932   5.852   8.215  10.742 -0.5453 -0.5245  0.3481
21699SOL    HW170933   5.763   8.240  10.716 -0.4169  2.1869  2.1846
21699SOL    HW270934   5.839   8.154  10.815 -0.8707 -1.2581 -0.3088
21700SOL     OW70935   2.037   3.213   8.484  0.0006  0.1904 -0.4491
21700SOL    HW170936   2.087   3.264   8.419  0.5950  1.3371  0.8498
21700SOL    HW270937   2.001   3.280   8.543 -0.9177 -0.7975  0.1289
21701SOL     OW70938   1.589   7.405   3.743  0.0064  0.1980  0.1736
21701SOL    HW170939   1.601   7.385   3.650  0.1221 -1.7313  0.5645
21701SOL    HW270940   1.498   7.433   3.750  0.0576  0.5732 -0.5327
21702SOL     OW70941   3.945   9.354   6.750  0.1930 -0.0528 -0.2681
21702SOL    HW170942   4.021   9.409   6.765 -0.6411  1.4878 -1.4689
21702SOL    HW270943   3.963   9.274   6.800  2.5151  0.3090 -0.4436
21703SOL     OW70944   2.229   1.095   8.021 -0.5664 -0.1527 -0.0551
21703SOL    HW170945   2.276   1.065   8.099  1.3975 -0.2160 -1.1875
21703SOL    HW270946   2.206   1.015   7.974  1.2553 -0.0860 -1.1609
21704SOL     OW70947   9.075   2.144   4.248 -0.1857  0.2018  0.1943
21704SOL    HW170948   8.996   2.101   4.282  0.1590  0.0450  0.8207
21704SOL    HW270949   9.104   2.199   4.320  0.2734  0.2661 -0.0391
21705SOL     OW70950   9.156   8.922   2.658 -0.0001  0.4169 -0.1570
21705SOL    HW170951   9.115   8.846   2.700  1.9296 -0.4827  0.2435
21705SOL    HW270952   9.128   8.917   2.566 -1.5045  0.4032  0.2869
21706SOL     OW70953   5.484   4.245   4.489  0.1826  0.1511  0.1533
21706SOL    HW170954   5.476   4.195   4.570 -0.1460 -0.3520 -0.1859
21706SOL    HW270955   5.576   4.236   4.464  0.1727 -0.1058  0.2091
21707SOL     OW70956   0.382   3.849   1.747  0.1541  0.2251 -0.7218
21707SOL    HW170957   0.292   3.841   1.715 -0.2873  1.5341  0.1025
21707SOL    HW270958   0.393   3.778   1.809 -0.7127  0.7303  0.0276
21708SOL     OW70959   2.725   0.561   2.981  1.3525  0.3486 -0.2098
21708SOL    HW170960   2.658   0.503   2.944  1.2550  0.2485  0.1272
21708SOL    HW270961   2.733   0.631   2.916 -1.1102  1.8923  0.9818
21709SOL     OW70962   1.539   4.053   4.840  0.0419  0.5350 -0.0632
21709SOL    HW170963   1.601   4.112   4.882 -0.7140  1.9443 -0.8843
21709SOL    HW270964   1.581   3.967   4.845  3.1867  1.7357 -2.6106
21710SOL     OW70965   3.593   3.846   7.116  0.1736 -0.2400 -0.4907
21710SOL    HW170966   3.589   3.846   7.212  0.6743 -0.8633 -0.4584
21710SOL    HW270967   3.508   3.881   7.088  0.6738  1.6265  0.1864
21711SOL     OW70968   6.186   3.457   0.710 -0.0273 -0.4641 -0.3599
21711SOL    HW170969   6.239   3.384   0.742  0.6816 -1.2556 -3.1316
21711SOL    HW270970   6.182   3.517   0.784  1.7182 -2.0155  1.1042
21712SOL     OW70971   1.086   6.293   2.302 -0.4442  0.2497 -0.4433
21712SOL    HW170972   1.097   6.284   2.207  0.8406  0.2554 -0.3035
21712SOL    HW270973   1.162   6.248   2.339 -0.4134  1.1208  0.5656
21713SOL     OW70974   3.000   8.104   6.927  0.1634  0.2310 -0.3050
21713SOL    HW170975   2.987   8.101   7.022 -1.0799  0.2299 -0.4649
21713SOL    HW270976   3.001   8.012   6.900 -0.9102  0.2565 -0.4647
21714SOL     OW70977  10.161   7.071   0.329  0.3551  0.0762  0.6124
21714SOL    HW170978  10.224   7.107   0.393  0.7098  1.6510 -0.5491
21714SOL    HW270979  10.151   6.979   0.354  1.8697  0.1963  1.8267
21715SOL     OW70980   8.955   5.725   2.160  0.1055  0.2674  0.3425
21715SOL    HW170981   9.028   5.768   2.205 -0.1104  0.2597  0.7083
21715SOL    HW270982   8.981   5.633   2.156  0.8300  0.5105 -0.9649
21716SOL     OW70983  10.062   1.844   6.035  0.1317  0.1415 -0.0086
21716SOL    HW170984  10.150   1.859   5.999 -0.9954  2.5113 -2.0673
21716SOL    HW270985  10.035   1.760   5.997  1.2383 -0.3131  0.1538
21717SOL     OW70986   7.530   3.727   2.102 -0.1549 -0.2077  0.4349
21717SOL    HW170987   7.553   3.773   2.183  0.8562  0.1027 -0.0089
21717SOL    HW270988   7.543   3.635   2.122 -0.4054 -0.1653  0.7843
21718SOL     OW70989   3.624   0.770   1.555 -0.3829  0.0003 -0.3395
21718SOL    HW170990   3.543   0.733   1.520 -0.2696  0.8597 -1.5746
21718SOL    HW270991   3.692   0.707   1.532 -0.7480 -0.9965  1.1861
21719SOL     OW70992   0.940   1.510   8.046 -0.4606  0.5270 -0.1349
21719SOL    HW170993   0.886   1.462   8.108 -0.2558  2.0396  1.2960
21719SOL    HW270994   0.884   1.523   7.969 -0.7036 -1.4216 -0.3286
21720SOL     OW70995   9.611   9.093   8.998  0.1820 -0.4393  0.0383
21720SOL    HW170996   9.676   9.033   8.961  0.2877  0.0900 -0.6497
21720SOL    HW270997   9.661   9.149   9.057  0.2006 -0.5879  0.1640
21721SOL     OW70998   4.132   3.347   7.320 -0.1026  0.0953  0.0633
21721SOL    HW170999   4.065   3.297   7.368 -0.6892 -1.0526 -1.8455
21721SOL    HW271000   4.083   3.412   7.270 -0.4347 -2.8994 -4.0689
21722SOL     OW71001   1.088   3.029   8.941 -0.1979 -0.7806  0.0678
21722SOL    HW171002   1.047   3.100   8.989  1.8422  2.3406 -2.4359
21722SOL    HW271003   1.019   2.997   8.883 -1.0546 -0.7036  1.0088
21723SOL     OW71004   7.302   2.135   5.987  0.6323  0.2924  0.0435
21723SOL    HW171005   7.381   2.140   5.932  0.8948 -2.0634  0.1042
21723SOL    HW271006   7.283   2.042   5.993 -0.9064  0.6671  1.8692
21724SOL     OW71007   5.134   6.201  10.147  0.4069  0.6942  0.4800
21724SOL    HW171008   5.042   6.221  10.129  0.7859  1.6461 -0.5110
21724SOL    HW271009   5.139   6.197  10.243 -0.8422 -0.3456  0.5434
21725SOL     OW71010   6.009   1.789  10.432  0.5870 -0.4567 -0.2872
21725SOL    HW171011   6.035   1.810  10.521 -2.6384  0.5610  0.5323
21725SOL    HW271012   5.998   1.874  10.389 -1.4902 -0.7578 -0.4463
21726SOL     OW71013   8.261   6.200   0.578  0.1527  0.1499  0.0632
21726SOL    HW171014   8.282   6.278   0.526  0.2268 -0.9358 -1.6048
21726SOL    HW271015   8.331   6.139   0.556 -0.8234 -0.9750  0.0261
21727SOL     OW71016   2.042   4.875   7.372 -0.0328  0.5499 -0.0833
21727SOL    HW171017   2.129   4.901   7.403  0.2467 -0.2209 -0.2012
21727SOL    HW271018   2.001   4.956   7.344  0.7122  0.9011 -0.1728
21728SOL     OW71019   5.225   3.896   4.623  0.0439 -0.0895  0.3188
21728SOL    HW171020   5.185   3.817   4.588  1.4413 -0.6949  0.0386
21728SOL    HW271021   5.317   3.892   4.595  0.5521  0.7741  1.7352
21729SOL     OW71022   2.722   5.191   3.332 -0.5172 -0.5678  0.4859
21729SOL    HW171023   2.668   5.237   3.397  1.0782  0.4422  1.1554
21729SOL    HW271024   2.812   5.205   3.361  0.1766 -1.3628 -1.1387
21730SOL     OW71025   0.508   1.451   2.667 -0.0962  0.1463  0.3244
21730SOL    HW171026   0.558   1.507   2.607 -0.0318 -1.1785 -0.9102
21730SOL    HW271027   0.571   1.426   2.734  1.4063 -2.5839 -1.9277
21731SOL     OW71028   3.784   2.059   6.877  0.4440  0.2504  0.2598
21731SOL    HW171029   3.788   1.977   6.828 -3.1152 -0.1957  0.4784
21731SOL    HW271030   3.723   2.114   6.827  1.6080  2.2471  0.9162
21732SOL     OW71031  10.018   3.547   7.136 -0.3971  0.1361 -0.0532
21732SOL    HW171032  10.012   3.523   7.044 -1.1185 -1.0154  0.2626
21732SOL    HW271033   9.937   3.513   7.175  0.1515  0.0831  1.1011
21733SOL     OW71034   0.260   4.240   8.770  0.3395 -0.1839 -0.0791
21733SOL    HW171035   0.343   4.199   8.793  0.8333 -0.0840 -1.5912
21733SOL    HW271036   0.203   4.166   8.747  0.5158 -0.1539 -0.6085
21734SOL     OW71037   0.395   4.366   6.480  0.1047  0.1460 -0.1960
21734SOL    HW171038   0.411   4.401   6.567  1.1661 -2.1828  0.6293
21734SOL    HW271039   0.439   4.427   6.421  1.0860  0.6994  1.0729
21735SOL     OW71040   7.760  10.388   5.935 -0.3778 -0.3772  0.3621
21735SOL    HW171041   7.773  10.360   6.026 -0.6736  0.3095  0.6206
21735SOL    HW271042   7.680  10.440   5.937 -0.1159  0.0565 -0.1992
21736SOL     OW71043   2.143   8.054   3.548 -0.1779  0.4961  0.0417
21736SOL    HW171044   2.186   7.990   3.604 -0.9659  1.2084  1.5198
21736SOL    HW271045   2.079   8.096   3.604 -1.6076  0.6746 -1.6317
21737SOL     OW71046   1.979   2.569   6.563 -0.1961  0.0453  0.0067
21737SOL    HW171047   1.954   2.520   6.642  2.1437 -1.6390 -0.1840
21737SOL    HW271048   1.898   2.611   6.534 -2.2803 -3.1853  0.6004
21738SOL     OW71049   4.655   3.929   1.800  0.3161 -0.2825  0.7444
21738SOL    HW171050   4.590   3.875   1.757  0.7912  0.2250 -0.6663
21738SOL    HW271051   4.662   3.893   1.889  1.4014 -3.2287 -0.4344
21739SOL     OW71052   0.849   2.828   6.022 -0.7502 -0.1558  0.2539
21739SOL    HW171053   0.889   2.912   6.043 -1.8553  0.6649 -0.7917
21739SOL    HW271054   0.759   2.850   5.997 -0.1783 -1.2023 -3.2359
21740SOL     OW71055  10.513   1.353  10.021 -0.2302  0.1417 -0.1472
21740SOL    HW171056  10.431   1.401  10.005  0.5139  0.3686 -4.6874
21740SOL    HW271057  10.582   1.418  10.008  0.7063 -0.8296 -0.1787
21741SOL     OW71058   4.946   1.892   5.297 -0.7719 -0.7954 -0.5086
21741SOL    HW171059   4.931   1.986   5.288  0.5680 -0.6099 -1.0403
21741SOL    HW271060   4.895   1.866   5.373  0.0705  0.6592  0.5928
21742SOL     OW71061   6.561   7.201   7.132  0.4366 -0.2623 -0.2421
21742SOL    HW171062   6.551   7.253   7.212  0.0075 -0.6699 -0.0290
21742SOL    HW271063   6.473   7.168   7.113  0.6531 -0.6897 -0.5258
21743SOL     OW71064   5.311   4.580  10.775 -0.3075  0.2651  0.2640
21743SOL    HW171065   5.326   4.486  10.768  0.4325  0.0603  3.4138
21743SOL    HW271066   5.216   4.590  10.773 -0.3730 -0.3225 -1.6130
21744SOL     OW71067   9.323   7.337   9.049 -0.4203  0.4744 -0.9627
21744SOL    HW171068   9.283   7.327   9.135 -0.9083 -1.4294 -1.3650
21744SOL    HW271069   9.360   7.425   9.050  0.0974  0.3022  1.4049
21745SOL     OW71070   5.116   1.970   7.073  0.0624 -0.1197  0.3951
21745SOL    HW171071   5.127   1.876   7.059  0.1559 -0.4655  2.4730
21745SOL    HW271072   5.205   2.005   7.074  0.0401 -0.0352 -0.0920
21746SOL     OW71073   9.048   3.103   5.625 -0.3722 -0.6231 -0.3947
21746SOL    HW171074   9.010   3.190   5.615 -0.4767 -0.6586 -0.2983
21746SOL    HW271075   8.974   3.043   5.619 -0.1933 -0.7660 -1.4215
21747SOL     OW71076   4.092   8.603   1.674 -0.4056 -0.3649  0.1586
21747SOL    HW171077   4.140   8.678   1.710 -1.1113  0.4271 -0.4963
21747SOL    HW271078   4.132   8.527   1.715 -0.3989  0.4292  1.7019
21748SOL     OW71079  10.767   6.699   3.014 -0.1537  0.1470  0.0685
21748SOL    HW171080  10.763   6.629   2.949 -0.7452 -0.7894  1.0793
21748SOL    HW271081  10.694   6.757   2.991 -1.3056 -0.9850  0.7685
21749SOL     OW71082   4.671  10.907   9.095  0.4255 -0.4440 -0.4344
21749SOL    HW171083   4.670  10.939   9.005 -0.8466 -0.5829 -0.4868
21749SOL    HW271084   4.588  10.936   9.132  0.9583 -0.3350  0.7250
21750SOL     OW71085   8.801   9.724   2.582 -0.2452 -0.0071  0.8427
21750SOL    HW171086   8.799   9.706   2.488  2.2006  0.5159  0.6295
21750SOL    HW271087   8.712   9.754   2.602 -1.0427 -0.8779 -1.1256
21751SOL     OW71088   5.172   3.888   5.142  0.2273  0.2939  0.1474
21751SOL    HW171089   5.100   3.846   5.188  1.7817 -2.7240  0.1073
21751SOL    HW271090   5.148   3.883   5.050 -0.0617  0.4065  0.2185
21752SOL     OW71091  10.247   5.425   9.883 -0.0308  0.0485  0.0343
21752SOL    HW171092  10.296   5.417   9.802  0.0160  0.6935 -0.0036
21752SOL    HW271093  10.201   5.341   9.892 -0.1174  0.0124 -0.7051
21753SOL     OW71094   0.240   6.963   9.496 -0.3811  0.8271  0.0469
21753SOL    HW171095   0.230   6.868   9.496 -1.3949  0.9207 -0.0649
21753SOL    HW271096   0.298   6.981   9.570  0.2995  0.0867 -0.2876
21754SOL     OW71097   7.167   4.628   1.497  0.4317  0.3285 -0.2823
21754SOL    HW171098   7.138   4.582   1.419  0.7356 -1.1647  0.4468
21754SOL    HW271099   7.238   4.685   1.466  1.7214 -1.4929 -0.8619
21755SOL     OW71100   3.192   5.773   0.110 -0.5408  0.1421 -0.3097
21755SOL    HW171101   3.247   5.802   0.182 -1.2624 -0.7666  0.6356
21755SOL    HW271102   3.252   5.726   0.052 -0.2420 -0.5744  0.5485
21756SOL     OW71103   8.095   4.663   3.317  0.4253 -0.0607 -0.5489
21756SOL    HW171104   8.188   4.655   3.339  1.0692  2.1184 -2.0786
21756SOL    HW271105   8.089   4.631   3.226 -0.7203 -1.9017  0.1234
21757SOL     OW71106   6.225   4.599   0.913  0.1213 -0.0734 -0.0128
21757SOL    HW171107   6.278   4.662   0.963  0.9775  0.2482 -1.2900
21757SOL    HW271108   6.178   4.652   0.849 -1.2690 -0.4406  0.6538
21758SOL     OW71109   7.491   2.045   2.628 -0.8882  0.1043 -0.0119
21758SOL    HW171110   7.536   2.055   2.712 -0.8817 -0.7510  0.0964
21758SOL    HW271111   7.562   2.039   2.563 -0.8775  0.1415 -0.0035
21759SOL     OW71112  10.739  10.446   6.052  0.5225  0.0073 -0.5905
21759SOL    HW171113  10.704  10.471   5.966  0.6543 -1.4745 -1.0993
21759SOL    HW271114  10.815  10.392   6.032  0.7416 -0.0916  0.4751
21760SOL     OW71115  10.103   8.623   5.388  0.8450  0.5038  0.1590
21760SOL    HW171116  10.097   8.540   5.436 -0.0350  0.5196  0.0816
21760SOL    HW271117  10.045   8.612   5.313  1.0628  1.0368 -0.0912
21761SOL     OW71118   0.841   2.768   4.095 -0.9691 -0.3115  0.0430
21761SOL    HW171119   0.766   2.710   4.109 -1.8832  0.9909  0.7958
21761SOL    HW271120   0.908   2.734   4.154 -0.4027 -2.3329 -1.6318
21762SOL     OW71121   3.430   6.844   8.879  0.6043 -0.5592  0.7392
21762SOL    HW171122   3.433   6.750   8.867 -0.9309 -0.3393 -2.2884
21762SOL    HW271123   3.517   6.874   8.852 -0.2449 -0.8581 -2.7881
21763SOL     OW71124   8.665   0.021   2.184  0.0854  0.4148  0.1569
21763SOL    HW171125   8.638  -0.011   2.099 -1.5048 -1.0435  1.1685
21763SOL    HW271126   8.611   0.099   2.199 -0.8034 -0.2665  0.5195
21764SOL     OW71127   2.934   0.751   4.054 -0.3669  0.0940  0.0051
21764SOL    HW171128   2.992   0.815   4.012  0.2296 -0.1648  0.4059
21764SOL    HW271129   2.868   0.732   3.989 -0.3691  0.8796 -0.2379
21765SOL     OW71130  10.085   1.225   7.278 -0.0559 -0.0760  0.0469
21765SOL    HW171131  10.169   1.254   7.315  1.1847  1.3512 -3.4970
21765SOL    HW271132  10.019   1.266   7.334  1.6185  1.0943  1.2751
21766SOL     OW71133   7.956   1.655   6.436 -0.0081 -0.6855 -0.3356
21766SOL    HW171134   7.916   1.568   6.432 -0.6114 -0.3936 -0.8512
21766SOL    HW271135   8.050   1.639   6.435 -0.0689 -1.2824 -2.7783
21767SOL     OW71136   6.037   0.729   3.156  0.4972  0.3211 -0.2549
21767SOL    HW171137   6.083   0.811   3.177  0.1091  0.6911 -0.8104
21767SOL    HW271138   6.095   0.660   3.188  0.7959  0.8129  0.2988
21768SOL     OW71139   3.591   2.226  10.150  0.1692 -0.4101 -0.0498
21768SOL    HW171140   3.579   2.321  10.146  0.1157 -0.3689  0.8215
21768SOL    HW271141   3.565   2.195  10.064 -0.7983  0.2663 -0.0158
21769SOL     OW71142   0.392   6.802   8.552 -0.3598  0.3663 -0.4515
21769SOL    HW171143   0.414   6.857   8.627  0.5901  1.8379 -1.7532
21769SOL    HW271144   0.331   6.855   8.501 -0.1974 -0.1850 -1.2321
21770SOL     OW71145   7.250   6.651   3.671  0.4248 -0.3524 -0.0352
21770SOL    HW171146   7.185   6.697   3.618  0.8326 -1.1890 -1.3110
21770SOL    HW271147   7.199   6.590   3.724  0.1545 -1.1472 -1.1757
21771SOL     OW71148   2.778   4.633   1.105  0.4922  0.4380  0.1840
21771SOL    HW171149   2.725   4.695   1.156 -0.9976  0.1604 -0.9814
21771SOL    HW271150   2.842   4.688   1.060  1.3004  0.7684  1.6564
21772SOL     OW71151   4.364   8.379   4.364  0.4196  0.7853  0.3617
21772SOL    HW171152   4.372   8.396   4.270 -1.4994  0.1982  0.0555
21772SOL    HW271153   4.391   8.461   4.405 -0.7134  1.7960 -0.8039
21773SOL     OW71154   3.272   3.630   6.866 -0.4565 -0.3765 -0.2634
21773SOL    HW171155   3.206   3.640   6.798  0.1781 -0.7421 -0.9510
21773SOL    HW271156   3.355   3.625   6.819  0.2327  1.4983  0.6453
21774SOL     OW71157   5.617  10.705   9.250 -0.2697  0.4775  0.4366
21774SOL    HW171158   5.641  10.626   9.300  1.2720  0.2367 -0.6183
21774SOL    HW271159   5.538  10.680   9.203  0.7427 -0.8097 -0.6496
21775SOL     OW71160   8.376   3.585   9.536  0.2211  0.0448 -0.3104
21775SOL    HW171161   8.400   3.578   9.443  3.1410  0.5964  0.3009
21775SOL    HW271162   8.356   3.495   9.562  2.0930 -0.5972 -0.8910
21776SOL     OW71163   2.460   3.314   1.909  0.5125  0.2630  0.2216
21776SOL    HW171164   2.449   3.345   1.999  1.3270 -0.1078  0.4663
21776SOL    HW271165   2.493   3.390   1.862  1.0661  0.1922  0.4792
21777SOL     OW71166   4.628   0.077   6.405  0.7384 -0.6792 -0.2463
21777SOL    HW171167   4.595   0.081   6.495 -0.0335 -3.6456 -0.3009
21777SOL    HW271168   4.690   0.005   6.406  1.2489 -0.3011 -1.9705
21778SOL     OW71169   6.376   8.950   4.507  0.0334 -0.0951  0.2077
21778SOL    HW171170   6.402   8.942   4.599  2.1772  0.2031 -0.3145
21778SOL    HW271171   6.457   8.937   4.458 -1.1304 -0.6282 -1.6826
21779SOL     OW71172  10.735   6.762   6.056  0.5913 -0.2423 -0.1335
21779SOL    HW171173  10.747   6.783   5.963  1.2217  0.2665  0.0520
21779SOL    HW271174  10.660   6.703   6.058 -1.2521  1.9592 -0.6823
21780SOL     OW71175   2.034   7.042   4.097 -0.1516  0.6448  0.2067
21780SOL    HW171176   2.096   7.063   4.167 -1.0990 -0.5470  1.4694
21780SOL    HW271177   1.958   7.098   4.116  0.1651  1.4290 -0.7892
21781SOL     OW71178   1.350   1.336   9.909 -0.2026  0.1761 -0.3763
21781SOL    HW171179   1.405   1.393   9.854 -0.0253  0.6735  0.2948
21781SOL    HW271180   1.408   1.309   9.980  0.7271 -3.5220 -2.3168
21782SOL     OW71181   1.297   7.982   7.448  0.0754  0.2483 -0.4164
21782SOL    HW171182   1.292   7.894   7.486  1.1494 -0.4608 -1.8163
21782SOL    HW271183   1.210   7.998   7.412 -0.4064  0.1782  0.6783
21783SOL     OW71184   3.894   7.271   8.972 -0.3697 -0.1365  0.1549
21783SOL    HW171185   3.949   7.195   8.953 -0.4877 -0.2983  0.4559
21783SOL    HW271186   3.906   7.287   9.066  0.9353  1.2359 -0.2104
21784SOL     OW71187   8.252   1.258   3.113 -0.1679 -0.4488 -0.1340
21784SOL    HW171188   8.290   1.262   3.025  1.3511  0.6244  0.5192
21784SOL    HW271189   8.162   1.228   3.100  0.2552 -1.0262 -1.9683
21785SOL     OW71190   7.557   8.657   9.081  0.0076  0.5079 -0.2576
21785SOL    HW171191   7.644   8.617   9.078 -0.8480 -1.4515 -0.6271
21785SOL    HW271192   7.516   8.621   9.160 -1.0351  0.0535 -0.9733
21786SOL     OW71193   5.522  10.746   2.515 -0.1835 -0.0596  0.3046
21786SOL    HW171194   5.448  10.694   2.547  0.2833 -0.3984  0.8483
21786SOL    HW271195   5.575  10.763   2.593  1.1599 -1.1805 -0.3156
21787SOL     OW71196   3.921   2.182   3.416  0.2464 -0.0573 -0.2334
21787SOL    HW171197   3.845   2.168   3.360 -0.8874  0.2490  1.1836
21787SOL    HW271198   3.886   2.223   3.495  1.9654  0.6239  0.2262
21788SOL     OW71199   8.765   7.581   5.239  0.4701  0.8951 -0.4441
21788SOL    HW171200   8.752   7.540   5.325  0.3884  1.4892 -0.1668
21788SOL    HW271201   8.840   7.536   5.202 -0.6658 -0.6975 -0.8835
21789SOL     OW71202   3.569   3.251   3.030  0.2141  0.1513 -0.1700
21789SOL    HW171203   3.517   3.324   2.995  0.1633  0.0913 -0.2192
21789SOL    HW271204   3.632   3.231   2.961  0.7446  0.6629  0.1478
21790SOL     OW71205   3.822   2.463   0.715 -0.3002  0.6859  0.9322
21790SOL    HW171206   3.822   2.371   0.741  0.6478  1.4397  3.9942
21790SOL    HW271207   3.740   2.474   0.667 -0.1564 -1.8449 -0.0289
21791SOL     OW71208   4.093   9.762   1.047 -0.0536  0.2815  0.4552
21791SOL    HW171209   4.037   9.820   1.099 -1.0845  0.4734 -0.8159
21791SOL    HW271210   4.066   9.778   0.956  2.0038  0.2965 -0.1961
21792SOL     OW71211   1.762   7.862   2.681  0.3637  0.1842 -0.3262
21792SOL    HW171212   1.766   7.905   2.766  0.6792 -0.4317 -0.0277
21792SOL    HW271213   1.834   7.899   2.631 -0.6102  1.5297 -0.8041
21793SOL     OW71214  10.573   7.945   5.562  0.0006  0.0334 -0.0827
21793SOL    HW171215  10.553   7.902   5.479  1.3862  0.3187 -0.5945
21793SOL    HW271216  10.620   8.025   5.537  4.2619 -1.8327  0.9330
21794SOL     OW71217   6.645   8.232  10.515 -0.3514 -0.4992  0.8399
21794SOL    HW171218   6.709   8.172  10.552 -0.3561  0.1170  1.9040
21794SOL    HW271219   6.599   8.181  10.448  1.7758 -0.7229 -0.5448
21795SOL     OW71220   3.655   9.059   8.643  0.2928  0.1385 -0.1196
21795SOL    HW171221   3.671   9.148   8.610  0.8523 -0.0268 -0.3053
21795SOL    HW271222   3.741   9.028   8.670  0.0133 -0.1447  0.4676
21796SOL     OW71223   6.670  10.020   0.157 -0.6587 -0.3252  0.3897
21796SOL    HW171224   6.640  10.085   0.094 -0.2591 -0.0370  0.4944
21796SOL    HW271225   6.617   9.942   0.138 -0.2437 -0.3839 -0.5903
21797SOL     OW71226   2.792   8.615   5.024 -0.4140 -0.2146  0.1540
21797SOL    HW171227   2.777   8.648   4.935  0.0261  0.5166  0.3531
21797SOL    HW271228   2.706   8.621   5.066 -0.7997 -1.2767 -0.4489
21798SOL     OW71229   6.127   0.942   7.188  0.4862 -0.0039  0.0734
21798SOL    HW171230   6.044   0.945   7.141  0.3052 -1.1450  0.2836
21798SOL    HW271231   6.180   0.880   7.138  1.2384  0.7584 -0.0898
21799SOL     OW71232   2.850   9.997   1.535  0.3747 -0.0334  0.7861
21799SOL    HW171233   2.882  10.045   1.458  0.9930  0.0515  1.0944
21799SOL    HW271234   2.820  10.066   1.595 -0.0454 -0.0967  0.6506
21800SOL     OW71235   9.569   3.689   5.715 -0.5063 -0.4837 -0.1377
21800SOL    HW171236   9.649   3.655   5.676  0.6131  1.1598  0.6084
21800SOL    HW271237   9.563   3.645   5.800 -1.1314 -1.5690 -0.7230
21801SOL     OW71238   3.770   9.896   7.205 -0.1521  0.6760  0.0937
21801SOL    HW171239   3.680   9.902   7.173 -0.0750  0.9565 -0.0746
21801SOL    HW271240   3.808   9.824   7.156 -0.2898  0.5436  0.1787
21802SOL     OW71241   0.080   7.125   0.936  0.4811 -0.4286 -0.1487
21802SOL    HW171242   0.030   7.077   1.003 -0.6451  0.9675  0.0562
21802SOL    HW271243   0.123   7.195   0.985  2.5387 -1.4637 -0.3625
21803SOL     OW71244  10.220   5.287   7.389 -0.1931  0.3976  0.1681
21803SOL    HW171245  10.302   5.309   7.344 -0.6044 -0.1831 -0.9146
21803SOL    HW271246  10.242   5.211   7.443 -0.0748  0.0547 -0.3532
21804SOL     OW71247   1.573   8.657   2.708  0.0462  0.3270  0.7444
21804SOL    HW171248   1.522   8.579   2.687 -1.1780  1.4560 -0.7383
21804SOL    HW271249   1.604   8.689   2.623  0.6983  1.3340  1.3410
21805SOL     OW71250   0.082   6.948   7.145 -0.1873 -0.3712  0.4886
21805SOL    HW171251  -0.008   6.918   7.146  0.0731 -1.1612  0.8722
21805SOL    HW271252   0.134   6.872   7.171  0.7161 -0.3437 -1.0737
21806SOL     OW71253   0.491   6.727   6.868  0.9806  0.4287  0.4517
21806SOL    HW171254   0.460   6.798   6.812  0.2067  0.1061  0.4558
21806SOL    HW271255   0.428   6.725   6.940 -0.6158 -1.9823 -0.8769
21807SOL     OW71256   6.975  10.722   3.733  0.3359  0.1199 -0.2570
21807SOL    HW171257   7.069  10.721   3.753  0.1950  1.7424  0.6046
21807SOL    HW271258   6.960  10.640   3.686  1.4977 -1.9986  2.7539
21808SOL     OW71259   5.407   7.867   0.757  0.0661  0.0335 -0.2138
21808SOL    HW171260   5.452   7.831   0.680 -0.0875 -0.7150  0.0391
21808SOL    HW271261   5.476   7.909   0.808  0.4026 -0.6500 -0.0926
21809SOL     OW71262   8.850   8.554   9.219  0.1782 -0.6751 -0.0257
21809SOL    HW171263   8.798   8.474   9.228  0.4310 -0.9889 -1.1601
21809SOL    HW271264   8.795   8.614   9.170 -0.0378 -0.1052  0.8881
21810SOL     OW71265   8.660  10.875   9.678 -0.1714 -0.2909 -0.2516
21810SOL    HW171266   8.661  10.781   9.659  0.7948 -0.3423  0.0256
21810SOL    HW271267   8.752  10.899   9.685 -0.4179  0.6534 -0.1685
21811SOL     OW71268   2.555   4.418   1.897  0.2879  0.4207 -0.3379
21811SOL    HW171269   2.545   4.464   1.980  0.7059 -0.7348  0.3630
21811SOL    HW271270   2.480   4.358   1.893 -0.3108  1.1966 -1.2943
21812SOL     OW71271   3.576   4.749  10.747  0.0920 -0.6586 -0.0792
21812SOL    HW171272   3.486   4.754  10.717  0.4729 -0.2364 -1.2218
21812SOL    HW271273   3.592   4.834  10.788 -1.2154 -2.0937  3.8667
21813SOL     OW71274   2.786   8.987  10.588 -0.1339 -0.7847  0.2935
21813SOL    HW171275   2.872   9.017  10.618  0.6074 -1.1619 -1.3006
21813SOL    HW271276   2.727   9.004  10.661  1.2741 -0.3993  1.3852
21814SOL     OW71277   8.747   6.213   7.226 -0.1458  0.1789 -0.1201
21814SOL    HW171278   8.766   6.196   7.318 -1.1369 -0.4484 -0.0170
21814SOL    HW271279   8.816   6.168   7.178 -0.0279 -0.0827  0.2934
21815SOL     OW71280   2.508  10.861   7.006 -0.0041 -0.6745 -0.2036
21815SOL    HW171281   2.426  10.897   6.973 -0.1966 -0.3118  0.6300
21815SOL    HW271282   2.557  10.835   6.928 -0.8219 -0.6955 -0.7124
21816SOL     OW71283  10.163   7.336   5.425 -0.1855  0.4127  0.3713
21816SOL    HW171284  10.244   7.364   5.468 -0.2613  0.6025  0.3941
21816SOL    HW271285  10.190   7.318   5.334  0.0419 -0.3318  0.5861
21817SOL     OW71286   3.810   1.642   4.936 -0.3819  0.4511  0.1003
21817SOL    HW171287   3.880   1.591   4.977  0.7704  1.1772 -0.9039
21817SOL    HW271288   3.730   1.598   4.963  0.5328 -1.4293 -0.0860
21818SOL     OW71289   4.534   4.918   8.179  0.0267  0.5683  0.2021
21818SOL    HW171290   4.611   4.866   8.202  1.4130  1.7638 -1.4520
21818SOL    HW271291   4.541   4.996   8.235  0.1204  0.7573 -0.0725
21819SOL     OW71292   5.606   6.223   6.666  0.4790 -0.2746 -0.0264
21819SOL    HW171293   5.689   6.266   6.690  1.1073  0.3736 -2.9158
21819SOL    HW271294   5.607   6.223   6.570 -1.2227 -3.5402 -0.1690
21820SOL     OW71295   9.528   1.113   5.118  0.5952 -0.0907  0.0877
21820SOL    HW171296   9.519   1.166   5.197  2.4255  0.4138  0.0007
21820SOL    HW271297   9.568   1.031   5.148  0.1568 -0.3988 -0.1488
21821SOL     OW71298   1.731   7.208  10.811 -0.6300  0.5148  0.9857
21821SOL    HW171299   1.778   7.215  10.894  0.2864 -1.8386  0.7425
21821SOL    HW271300   1.799   7.188  10.746 -1.5414  0.5512 -0.0085
21822SOL     OW71301   6.851   2.261   4.388  0.2889 -0.0808  0.4900
21822SOL    HW171302   6.782   2.325   4.371 -0.3780 -1.1316 -0.9730
21822SOL    HW271303   6.880   2.280   4.477 -2.6840 -0.3193  1.6202
21823SOL     OW71304   1.246   5.950   8.803 -1.0993  0.7825 -0.3697
21823SOL    HW171305   1.307   5.990   8.741 -0.5835  0.3648 -0.1364
21823SOL    HW271306   1.191   6.023   8.833 -0.2541  1.3002 -0.0419
21824SOL     OW71307   3.608  10.788  10.499 -0.2461  0.4667  0.6249
21824SOL    HW171308   3.615  10.882  10.514 -0.7503  0.3857  1.4393
21824SOL    HW271309   3.515  10.773  10.483 -0.1486  0.1184  0.3538
21825SOL     OW71310   5.278   3.831  10.842  0.2399 -0.0639  0.1734
21825SOL    HW171311   5.275   3.898  10.910 -1.2324 -0.2287  0.3007
21825SOL    HW271312   5.258   3.749  10.888  0.0503 -0.2899 -0.3058
21826SOL     OW71313   0.839   0.590   9.612 -0.1212 -0.1284 -0.1478
21826SOL    HW171314   0.849   0.681   9.583 -0.7376  0.2470  0.7641
21826SOL    HW271315   0.744   0.577   9.616 -0.0449 -0.5006  0.6308
21827SOL     OW71316   6.946  10.501   5.398 -0.2198 -0.0573  0.1310
21827SOL    HW171317   6.878  10.481   5.333 -2.1688  0.3180  1.9241
21827SOL    HW271318   7.018  10.442   5.377 -2.0534 -2.2191 -0.4766
21828SOL     OW71319   8.523  10.010   7.825  0.2333 -0.0414  0.2503
21828SOL    HW171320   8.564  10.093   7.800  2.0380 -0.9047  0.2064
21828SOL    HW271321   8.431  10.033   7.840  0.8434  2.1175  1.0757
21829SOL     OW71322  10.757  10.554  10.170 -0.5151  0.1108  0.0788
21829SOL    HW171323  10.664  10.570  10.151 -0.9377 -0.5965  1.4109
21829SOL    HW271324  10.756  10.497  10.247  1.0123 -0.9361 -0.6394
21830SOL     OW71325   0.501   4.755   1.758  0.0245  0.2712  0.9193
21830SOL    HW171326   0.468   4.833   1.716 -0.8543 -1.1550 -1.1956
21830SOL    HW271327   0.574   4.786   1.812 -1.9892  2.8939  2.3762
21831SOL     OW71328   8.119   5.364   6.156  0.7132 -0.1168 -0.0198
21831SOL    HW171329   8.045   5.308   6.178  0.2697  0.8943  1.1810
21831SOL    HW271330   8.101   5.446   6.203  1.7386  0.7420 -1.0838
21832SOL     OW71331   6.042   7.237   4.616 -0.3202 -0.2953  0.6270
21832SOL    HW171332   5.953   7.273   4.607  0.3382  0.9518 -1.7778
21832SOL    HW271333   6.090   7.303   4.665 -0.2290 -0.0024  0.1487
21833SOL     OW71334  10.059   3.366   9.129  0.2852 -0.4965 -0.5036
21833SOL    HW171335  10.014   3.412   9.200 -0.2202 -2.9978  0.9229
21833SOL    HW271336  10.148   3.354   9.161  0.0844 -1.5399 -0.2982
21834SOL     OW71337   7.541   7.183   8.983 -0.1621 -0.6937 -0.1114
21834SOL    HW171338   7.613   7.209   8.925 -0.9521  0.7027 -0.5193
21834SOL    HW271339   7.579   7.189   9.071 -0.1897  1.7194 -0.1911
21835SOL     OW71340  10.159   6.335   2.520  0.4021 -0.3279  0.1841
21835SOL    HW171341  10.087   6.309   2.577 -0.8011  1.9198 -0.1885
21835SOL    HW271342  10.143   6.428   2.501  2.0639 -0.3791 -1.8851
21836SOL     OW71343   5.034   9.578   9.469  0.4402  0.7793  0.1502
21836SOL    HW171344   5.056   9.617   9.554  0.7797 -0.4717  0.6533
21836SOL    HW271345   4.948   9.537   9.483  1.1133 -0.6264  0.3182
21837SOL     OW71346   6.582   8.000   4.303  0.0753 -0.1809  0.0299
21837SOL    HW171347   6.588   8.055   4.225 -1.1139  0.9384  0.7016
21837SOL    HW271348   6.582   7.910   4.269 -0.8849  0.2952 -1.2964
21838SOL     OW71349   9.213   6.713   1.542  0.0466 -0.5317 -0.6561
21838SOL    HW171350   9.285   6.677   1.491 -1.3580 -1.2607 -2.2200
21838SOL    HW271351   9.179   6.639   1.591  0.9345  0.0180  0.8584
21839SOL     OW71352   0.506   5.209   3.699  0.3553 -0.1058  0.0984
21839SOL    HW171353   0.594   5.212   3.736  1.5129  0.4427 -2.5104
21839SOL    HW271354   0.482   5.301   3.686  0.2246 -0.2898 -1.0116
21840SOL     OW71355   2.156   0.322   1.661 -0.1034 -0.1757  0.7688
21840SOL    HW171356   2.183   0.240   1.619  0.3313 -0.0639  0.8264
21840SOL    HW271357   2.062   0.330   1.641 -0.0123 -0.3849  0.2580
21841SOL     OW71358   5.322   8.224   2.792 -0.4751  0.0859 -1.0596
21841SOL    HW171359   5.248   8.174   2.826  0.2940 -0.7563 -0.5875
21841SOL    HW271360   5.384   8.228   2.864 -0.0062  0.6859 -1.4852
21842SOL     OW71361   5.665   6.451   9.626 -0.0592  0.1547 -0.0161
21842SOL    HW171362   5.753   6.483   9.647 -0.1649 -0.1988  0.9951
21842SOL    HW271363   5.662   6.363   9.664 -1.1230  0.4671  0.6664
21843SOL     OW71364  10.444   8.264   8.946 -0.3579  0.0284  0.4515
21843SOL    HW171365  10.405   8.183   8.913  2.1383 -0.8632 -0.5309
21843SOL    HW271366  10.472   8.243   9.035  0.7763 -0.3845  0.0060
21844SOL     OW71367   6.360   4.627   8.581 -0.4591  0.0982  0.3931
21844SOL    HW171368   6.365   4.687   8.506  1.2442  2.2634  2.1134
21844SOL    HW271369   6.450   4.597   8.593 -1.0686 -1.8254  0.3853
21845SOL     OW71370   5.182   2.338   6.057 -0.6054 -0.3339  0.1675
21845SOL    HW171371   5.247   2.316   6.124 -1.2359 -1.1937  0.5118
21845SOL    HW271372   5.117   2.269   6.063 -0.7883 -0.3020 -1.1971
21846SOL     OW71373   7.034   8.827   6.023 -0.1133  0.0479  0.0317
21846SOL    HW171374   7.059   8.749   6.073 -2.4008  0.0329  1.3122
21846SOL    HW271375   7.049   8.900   6.082 -1.9716  0.1200  0.4818
21847SOL     OW71376   4.212   9.661   2.831  0.6329 -0.2475  0.1060
21847SOL    HW171377   4.270   9.672   2.907  0.0186  0.7044  0.4578
21847SOL    HW271378   4.163   9.743   2.827 -0.8693 -1.1266 -0.0249
21848SOL     OW71379   3.079   4.204   0.598 -0.5421 -0.1338 -0.1351
21848SOL    HW171380   3.098   4.185   0.690  1.1281 -1.8269 -0.7682
21848SOL    HW271381   3.135   4.279   0.577  1.1025 -1.3805 -0.4049
21849SOL     OW71382   6.876   3.804   3.194  0.4759  0.3636  0.4352
21849SOL    HW171383   6.969   3.784   3.188  0.3854 -0.2726  1.0550
21849SOL    HW271384   6.873   3.896   3.219  0.9323  0.4097  0.3287
21850SOL     OW71385   2.703   5.197   7.243 -0.2719 -0.6006 -0.6696
21850SOL    HW171386   2.662   5.273   7.201 -0.4953  0.1919  0.8714
21850SOL    HW271387   2.631   5.153   7.288 -0.0101 -1.2670 -0.9033
21851SOL     OW71388   6.731  10.316  10.134 -0.3769  0.7399 -0.1842
21851SOL    HW171389   6.812  10.323  10.083  0.8631  0.7580  1.7079
21851SOL    HW271390   6.678  10.253  10.085  1.7927 -1.2008 -0.2535
21852SOL     OW71391   0.850   9.936   3.973  0.0462 -0.0532 -0.1447
21852SOL    HW171392   0.756   9.919   3.960 -0.0559 -1.7286  2.1372
21852SOL    HW271393   0.853  10.021   4.016 -0.4527 -0.1419  0.0775
21853SOL     OW71394   3.147   3.709   1.602  0.0442  0.4265  0.0345
21853SOL    HW171395   3.170   3.732   1.692  0.6140  1.6252 -0.4005
21853SOL    HW271396   3.229   3.718   1.553 -0.2258 -0.3627 -0.5871
21854SOL     OW71397   9.049   8.660   6.789 -0.1711  0.2130  0.3996
21854SOL    HW171398   9.108   8.696   6.855  0.9178 -3.2430  1.5228
21854SOL    HW271399   8.965   8.652   6.834 -0.4928  1.4572  0.0590
21855SOL     OW71400   7.903   4.870   4.896 -0.9176  0.2711 -0.5111
21855SOL    HW171401   7.950   4.942   4.940 -0.0077 -0.5596 -0.0982
21855SOL    HW271402   7.971   4.821   4.850 -1.3138 -1.1128  0.3121
21856SOL     OW71403   4.315   0.515   2.454 -0.5185 -0.0065  0.2116
21856SOL    HW171404   4.388   0.573   2.434 -0.5266 -0.4315 -1.2124
21856SOL    HW271405   4.324   0.443   2.391 -1.1007 -1.0069  1.2433
21857SOL     OW71406   8.128   2.515   8.628  0.1153 -0.4450 -0.1912
21857SOL    HW171407   8.062   2.532   8.560  1.3926  0.9285 -1.1459
21857SOL    HW271408   8.076   2.495   8.706 -1.4791  1.1422 -0.7536
21858SOL     OW71409   2.578   5.009   5.624 -0.3802 -0.1617  0.4186
21858SOL    HW171410   2.526   5.039   5.699 -0.3673 -0.6007  0.6038
21858SOL    HW271411   2.561   4.915   5.618 -0.9545 -0.0088 -0.5816
21859SOL     OW71412   3.737   1.832  10.317  0.3079 -0.0834  0.1650
21859SOL    HW171413   3.792   1.908  10.295  0.8835 -0.7976 -0.9274
21859SOL    HW271414   3.795   1.757  10.305 -1.5720 -1.1409 -3.9686
21860SOL     OW71415   2.699   8.442   4.435 -0.4357  0.0623 -0.0898
21860SOL    HW171416   2.715   8.413   4.525 -0.9164 -1.4328 -0.4483
21860SOL    HW271417   2.775   8.495   4.413  0.4457 -0.8187  0.6997
21861SOL     OW71418   1.817   7.499   4.687  0.3644  0.3962  0.0038
21861SOL    HW171419   1.872   7.470   4.614 -1.4133 -1.3449 -0.7308
21861SOL    HW271420   1.853   7.455   4.764  1.0136  0.6303 -0.1574
21862SOL     OW71421   1.808   0.620   1.732 -0.3360  0.2884 -0.1215
21862SOL    HW171422   1.739   0.649   1.673 -0.6283  1.9620  0.9726
21862SOL    HW271423   1.787   0.528   1.750 -0.6672 -0.0317 -1.9602
21863SOL     OW71424  10.417   3.302   4.236  0.2498  0.5508  0.1083
21863SOL    HW171425  10.430   3.215   4.274  1.6704  1.0590  0.8736
21863SOL    HW271426  10.483   3.309   4.167 -1.5360  0.0896 -1.7595
21864SOL     OW71427   7.022   6.998   9.580 -0.3055 -0.5699 -0.1612
21864SOL    HW171428   6.932   6.965   9.578 -0.3058 -0.5594 -0.3220
21864SOL    HW271429   7.064   6.958   9.504 -0.2727 -0.2862 -0.2902
21865SOL     OW71430   8.869   1.851   8.411 -0.0340 -0.5185  0.1237
21865SOL    HW171431   8.809   1.876   8.341  0.8573 -0.4081 -0.6231
21865SOL    HW271432   8.956   1.861   8.372  0.5040  0.1674  1.4633
21866SOL     OW71433   8.683   0.729   5.316  0.5763 -0.2572 -0.3938
21866SOL    HW171434   8.614   0.784   5.352  0.5101 -0.5408 -0.0849
21866SOL    HW271435   8.640   0.644   5.300  0.7709 -0.3348 -0.5138
21867SOL     OW71436   3.280   8.668   9.136  0.3767  0.0496 -0.7665
21867SOL    HW171437   3.192   8.685   9.168  0.7251  0.9809 -0.2482
21867SOL    HW271438   3.336   8.724   9.190  1.1967  0.0769 -1.6212
21868SOL     OW71439  10.360   1.118   7.817 -0.0727 -0.1909 -0.1815
21868SOL    HW171440  10.320   1.132   7.731 -1.0938 -2.3596 -0.1339
21868SOL    HW271441  10.286   1.101   7.875  0.7445 -2.3529  0.3226
21869SOL     OW71442   8.724   9.539   6.322  0.3025 -0.0030  0.1733
21869SOL    HW171443   8.783   9.465   6.306  0.9836  0.8388 -1.3512
21869SOL    HW271444   8.659   9.504   6.384  1.1520 -1.5826  0.2335
21870SOL     OW71445   7.877   3.527   0.199 -0.1396  0.2863  0.0600
21870SOL    HW171446   7.834   3.492   0.121 -0.7571  1.9315 -0.3776
21870SOL    HW271447   7.961   3.560   0.167  0.4585 -0.7500  0.4805
21871SOL     OW71448   7.128   7.198  10.831  0.4446 -0.2575  0.1407
21871SOL    HW171449   7.215   7.234  10.849  0.0725  0.7518 -0.0408
21871SOL    HW271450   7.138   7.154  10.746  1.4833 -2.6390  1.3903
21872SOL     OW71451   1.867   4.594   5.485  0.0855  0.5187 -0.0278
21872SOL    HW171452   1.837   4.553   5.404 -0.4898  2.0416 -0.6388
21872SOL    HW271453   1.945   4.643   5.460 -0.4555  1.5105  0.1708
21873SOL     OW71454   3.401   5.675   4.024  0.0673  0.4386  0.8334
21873SOL    HW171455   3.468   5.611   3.998  0.2321  0.4564  1.2174
21873SOL    HW271456   3.374   5.648   4.111 -0.9176  0.0379  0.4198
21874SOL     OW71457  10.255   1.246  10.598  0.0711  0.5283 -0.2750
21874SOL    HW171458  10.267   1.320  10.538 -0.4107  0.3761 -0.5699
21874SOL    HW271459  10.255   1.169  10.541 -0.8582  0.4167 -0.1435
21875SOL     OW71460   2.374   7.668   4.259  0.7040 -0.1442  0.7666
21875SOL    HW171461   2.459   7.693   4.295 -0.1624  2.1872  1.3487
21875SOL    HW271462   2.311   7.697   4.325 -0.6241 -0.7048 -0.2229
21876SOL     OW71463   4.087   7.671   0.984  0.0082  0.0221  0.1129
21876SOL    HW171464   4.129   7.607   1.040  1.8501  1.4921  0.5294
21876SOL    HW271465   3.997   7.677   1.016  0.8193  0.3273  2.4783
21877SOL     OW71466   3.682   4.727   0.213  0.8102  0.0238  0.2208
21877SOL    HW171467   3.724   4.642   0.229  0.0734 -0.1359  1.3918
21877SOL    HW271468   3.592   4.706   0.190  0.3015  0.5256  1.6915
21878SOL     OW71469   0.183   2.521   4.573 -0.0928  0.1045  0.2255
21878SOL    HW171470   0.197   2.542   4.481 -0.1605  1.2029  0.4472
21878SOL    HW271471   0.109   2.577   4.599 -0.7927 -0.9878  0.6770
21879SOL     OW71472   7.483   5.367   6.813  0.5319 -0.1011 -0.1397
21879SOL    HW171473   7.500   5.351   6.906 -1.2988  1.2273  0.4936
21879SOL    HW271474   7.405   5.314   6.794 -1.9118  3.0224  0.3913
21880SOL     OW71475   4.885   0.507   0.773 -0.4072  0.5998 -0.2505
21880SOL    HW171476   4.936   0.532   0.850 -1.0715 -0.2611  0.4903
21880SOL    HW271477   4.800   0.548   0.786  0.2475  2.6099 -1.8194
21881SOL     OW71478   1.820   8.156   2.432 -0.3170  0.0301 -0.6280
21881SOL    HW171479   1.868   8.230   2.395 -0.4978  0.3737 -0.1915
21881SOL    HW271480   1.728   8.176   2.415 -0.3964  0.1642 -0.0542
21882SOL     OW71481   0.316  10.416   8.029 -0.1977  0.2987 -0.3082
21882SOL    HW171482   0.251  10.478   8.060 -1.1603 -0.5036 -0.6379
21882SOL    HW271483   0.288  10.394   7.940  1.4230  1.1197 -1.0683
21883SOL     OW71484   9.576   6.244   5.313  1.1423 -0.0512  0.4611
21883SOL    HW171485   9.482   6.254   5.326  1.5242  0.9963  3.0791
21883SOL    HW271486   9.596   6.301   5.240 -0.3360 -0.8715 -0.6410
21884SOL     OW71487   0.124   4.419   4.602  0.1379 -0.0951  0.4824
21884SOL    HW171488   0.156   4.488   4.659 -0.9926  1.5089 -0.7432
21884SOL    HW271489   0.042   4.391   4.642 -0.9237  1.3927 -0.5430
21885SOL     OW71490  10.340   1.858   9.462  0.0736  0.5644  0.0762
21885SOL    HW171491  10.399   1.924   9.498 -0.0016  0.6986 -0.0401
21885SOL    HW271492  10.272   1.910   9.418 -0.0489  0.4099  0.0845
21886SOL     OW71493   2.226   8.406   5.363 -0.4577  0.4483  0.1000
21886SOL    HW171494   2.317   8.380   5.373 -1.2822 -2.8805  0.0294
21886SOL    HW271495   2.210   8.403   5.269 -0.9256 -0.1612  0.1946
21887SOL     OW71496   1.111  10.594   8.372 -0.2736  0.1629  0.3583
21887SOL    HW171497   1.176  10.524   8.367  0.8970  1.2920 -1.9664
21887SOL    HW271498   1.160  10.670   8.403 -0.8625  0.6179  0.1894
21888SOL     OW71499   3.408   2.169   7.665 -0.0292  0.2788  0.6657
21888SOL    HW171500   3.502   2.185   7.660  0.3861 -2.1068 -1.0268
21888SOL    HW271501   3.372   2.210   7.586  0.5005 -3.2746 -1.6397
21889SOL     OW71502   7.482   3.676   1.498  0.2168 -0.6905 -0.0792
21889SOL    HW171503   7.526   3.652   1.579 -0.9925 -1.6212  0.3304
21889SOL    HW271504   7.394   3.704   1.525  0.0387 -0.3150 -0.9935
21890SOL     OW71505   1.905   4.928   9.276 -0.0753  0.0105 -0.2990
21890SOL    HW171506   1.944   5.014   9.260  0.4242 -0.1310  0.1537
21890SOL    HW271507   1.887   4.894   9.189 -1.7677  1.2438 -0.4788
21891SOL     OW71508   6.239   2.140   1.848 -0.1958  0.2444 -0.4836
21891SOL    HW171509   6.181   2.094   1.788  0.7424  0.4399 -1.5952
21891SOL    HW271510   6.206   2.120   1.935 -0.9804 -0.9096 -1.0276
21892SOL     OW71511   1.462   4.958   7.285 -0.2150 -0.3961 -0.0801
21892SOL    HW171512   1.507   4.985   7.365  2.0117 -0.7908 -1.1209
21892SOL    HW271513   1.420   4.875   7.308  0.8938 -0.8135  0.5558
21893SOL     OW71514   1.788  10.416   6.580  0.0551 -0.2325 -0.0687
21893SOL    HW171515   1.848  10.346   6.607  0.9968  0.4796 -0.2683
21893SOL    HW271516   1.843  10.494   6.573 -0.8817  0.4254 -0.3522
21894SOL     OW71517   5.516   7.302   8.879 -0.4283  0.0940  0.4438
21894SOL    HW171518   5.427   7.287   8.848 -0.6434 -0.6024  1.3577
21894SOL    HW271519   5.554   7.362   8.815 -1.5423  0.3818  0.0306
21895SOL     OW71520   4.316   4.350   0.452  0.4860  0.1845 -0.1047
21895SOL    HW171521   4.374   4.274   0.439  2.0562  1.4202 -0.6548
21895SOL    HW271522   4.247   4.339   0.387  0.6541 -0.7993 -0.1292
21896SOL     OW71523   0.252   6.435   8.921  0.3654  0.3829 -0.1672
21896SOL    HW171524   0.171   6.480   8.944 -0.9016 -0.9870 -1.7185
21896SOL    HW271525   0.284   6.481   8.844 -0.1514 -0.4285 -0.8817
21897SOL     OW71526   3.183   6.080   3.846  0.1179 -0.1546 -0.4941
21897SOL    HW171527   3.150   6.055   3.760 -2.9673  1.4417  0.0796
21897SOL    HW271528   3.104   6.097   3.898  1.8647 -0.5369  2.5288
21898SOL     OW71529   2.957   8.592   1.274  0.4160 -0.2661 -0.3481
21898SOL    HW171530   2.885   8.623   1.328 -0.7714 -0.5805 -1.7013
21898SOL    HW271531   3.036   8.620   1.320 -0.5765  0.9220  0.6756
21899SOL     OW71532   3.914   9.156   9.830  0.7895  0.2735 -0.7764
21899SOL    HW171533   3.978   9.190   9.892  0.2799 -0.2961  0.0762
21899SOL    HW271534   3.890   9.070   9.863 -1.6144  1.0997 -0.1203
21900SOL     OW71535   6.628   3.761   2.756  0.4799 -0.4455  0.5719
21900SOL    HW171536   6.613   3.678   2.801 -1.7861 -1.4251 -1.7325
21900SOL    HW271537   6.666   3.737   2.671  1.3631  1.0379  0.4940
21901SOL     OW71538   0.166   4.342   2.921  0.4211  0.2360  0.0237
21901SOL    HW171539   0.252   4.370   2.953 -0.7500  1.5012  2.3152
21901SOL    HW271540   0.104   4.386   2.978 -1.7393 -2.8129  0.2775
21902SOL     OW71541   5.499   5.119   0.953 -0.4622 -0.3819  0.5275
21902SOL    HW171542   5.558   5.184   0.916 -2.0157 -0.4194 -2.2895
21902SOL    HW271543   5.555   5.064   1.007  1.9084  0.1741 -1.2104
21903SOL     OW71544   5.209   7.203   0.194 -0.4641 -0.0909 -0.5785
21903SOL    HW171545   5.231   7.233   0.106  0.6182  1.2784  0.1106
21903SOL    HW271546   5.118   7.228   0.206 -0.9784 -1.3005 -1.6797
21904SOL     OW71547   1.717   7.481   7.820 -0.2211  0.0235  0.0384
21904SOL    HW171548   1.802   7.454   7.784 -0.1328 -1.0165  0.9982
21904SOL    HW271549   1.739   7.523   7.903 -0.6937 -0.9238  0.6514
21905SOL     OW71550   2.904   8.802   9.705  0.4575 -0.2641 -0.1821
21905SOL    HW171551   2.816   8.829   9.677  1.0386  2.0013 -0.0239
21905SOL    HW271552   2.890   8.722   9.755 -1.3040 -0.9420 -1.6426
21906SOL     OW71553   0.358   5.005   5.576 -0.4756 -0.0873 -0.5974
21906SOL    HW171554   0.385   5.004   5.484  0.5213  1.0128 -0.3345
21906SOL    HW271555   0.430   5.048   5.622 -2.0393  1.6522  0.3385
21907SOL     OW71556   0.365   2.514   3.954  0.2579 -0.0368 -0.7202
21907SOL    HW171557   0.417   2.468   3.888 -0.8600 -0.2022 -1.5164
21907SOL    HW271558   0.332   2.444   4.011  1.2683  0.1103  0.0746
21908SOL     OW71559   2.646   2.737   1.319  0.0641  0.2181  0.0892
21908SOL    HW171560   2.740   2.726   1.330 -0.2384 -0.7808  2.0404
21908SOL    HW271561   2.610   2.649   1.329 -1.1511  0.7071  0.2159
21909SOL     OW71562   2.406   9.074   0.782  0.3535  0.0055 -0.1473
21909SOL    HW171563   2.406   9.042   0.872 -1.2058  1.1243  0.2905
21909SOL    HW271564   2.490   9.045   0.747  0.8902 -0.6848  1.5757
21910SOL     OW71565   8.198   6.778   1.873  0.1601 -0.1493  0.0646
21910SOL    HW171566   8.263   6.754   1.806 -0.4333  0.1929 -0.6408
21910SOL    HW271567   8.179   6.870   1.856  0.0222 -0.0514  0.7331
21911SOL     OW71568   3.332   8.886   1.413  0.1235 -0.3919 -0.2078
21911SOL    HW171569   3.324   8.980   1.397  0.4208 -0.2309  0.5844
21911SOL    HW271570   3.420   8.875   1.447 -0.2726 -0.8221  0.6950
21912SOL     OW71571   9.991   0.017   8.210  0.5174  0.2311 -0.3323
21912SOL    HW171572   9.907   0.006   8.254  0.4347  1.1843 -0.2227
21912SOL    HW271573  10.045  -0.055   8.242 -1.2706 -2.4783 -2.9679
21913SOL     OW71574   3.828   6.068  10.400 -0.0975 -0.2399 -0.7095
21913SOL    HW171575   3.766   6.110  10.340 -0.0152  1.2629  0.2059
21913SOL    HW271576   3.799   6.096  10.487  1.6923  0.2745 -0.2477
21914SOL     OW71577   8.970   5.009   4.129 -0.0696  0.9008 -0.4184
21914SOL    HW171578   8.959   5.067   4.053  1.5103  1.3982 -0.3054
21914SOL    HW271579   8.884   4.968   4.140 -0.5169  1.3111 -2.0651
21915SOL     OW71580   0.043   7.349  10.290  0.7914  0.1598 -0.3170
21915SOL    HW171581   0.045   7.410  10.363  1.4874  0.3977 -0.5238
21915SOL    HW271582  -0.047   7.317  10.288  0.3252  1.4097 -0.4015
21916SOL     OW71583   3.757   2.611   9.566 -0.5322  0.3382 -0.0239
21916SOL    HW171584   3.776   2.525   9.603 -0.5948  0.3935  0.1408
21916SOL    HW271585   3.831   2.630   9.509 -0.2520  0.4145  0.3637
21917SOL     OW71586   3.423   2.410   7.859  0.4222  0.3383 -0.1085
21917SOL    HW171587   3.504   2.456   7.837 -0.5057  1.7168 -0.7526
21917SOL    HW271588   3.420   2.337   7.797  0.9741  0.5012 -0.3382
21918SOL     OW71589   3.667   1.685   8.995 -0.2346  0.3058  0.2927
21918SOL    HW171590   3.652   1.752   9.061 -1.0774  0.2795  0.1371
21918SOL    HW271591   3.654   1.731   8.912 -0.3238  0.0671  0.1741
21919SOL     OW71592   5.789   8.217   8.219 -0.7190  0.0305  0.3086
21919SOL    HW171593   5.840   8.169   8.154  1.0598 -1.3856  2.6386
21919SOL    HW271594   5.799   8.309   8.194  0.5468 -0.4152 -0.9515
21920SOL     OW71595   7.894  10.692   6.060 -0.1714  0.6071 -0.7114
21920SOL    HW171596   7.850  10.623   6.111 -2.0868  0.2542 -2.6911
21920SOL    HW271597   7.832  10.765   6.062  0.9197  1.5476 -0.3750
21921SOL     OW71598   1.421   7.055   8.529  0.4890 -0.1408 -0.5707
21921SOL    HW171599   1.478   7.132   8.540  0.8869 -0.3635 -1.0377
21921SOL    HW271600   1.471   6.996   8.472  0.2581 -0.8245 -0.0789
21922SOL     OW71601   6.838   9.751   6.700 -0.3817  0.5304 -0.0720
21922SOL    HW171602   6.919   9.785   6.738 -0.1206  1.2645 -1.2296
21922SOL    HW271603   6.834   9.792   6.614 -0.8938 -1.1576 -0.8794
21923SOL     OW71604  10.811   1.418   4.005 -0.1245  0.5475 -0.1279
21923SOL    HW171605  10.723   1.390   4.030  0.4475  0.4519  1.9831
21923SOL    HW271606  10.797   1.484   3.937 -1.8734  0.9944  0.6092
21924SOL     OW71607   6.064   5.434   6.217 -0.7090 -0.0555 -0.1564
21924SOL    HW171608   6.010   5.462   6.292  0.3307  0.7057  0.3302
21924SOL    HW271609   6.148   5.410   6.256  0.3720  1.7874 -1.2110
21925SOL     OW71610   2.226   1.998   1.652  0.4089  0.6834  0.0115
21925SOL    HW171611   2.262   1.955   1.731 -0.1578 -1.4602 -0.8176
21925SOL    HW271612   2.167   1.932   1.615 -0.9222  2.4370 -1.1040
21926SOL     OW71613   3.730   0.443   1.683  0.0844  0.0316 -0.6139
21926SOL    HW171614   3.800   0.482   1.734 -1.2068  1.0075  0.5071
21926SOL    HW271615   3.734   0.486   1.598  0.9915 -0.1295 -0.6626
21927SOL     OW71616   5.208  10.474   4.389  0.1288 -0.3244 -0.6869
21927SOL    HW171617   5.126  10.509   4.353  0.3487 -0.0475 -0.9134
21927SOL    HW271618   5.204  10.495   4.482  1.4845  2.7183 -1.2321
21928SOL     OW71619   3.094   4.433   4.146  0.0189 -0.3438  0.2920
21928SOL    HW171620   3.052   4.497   4.204  1.3963  0.5549  0.3305
21928SOL    HW271621   3.167   4.398   4.198  0.8377 -0.0482 -0.6325
21929SOL     OW71622   7.897   6.741   6.905  0.0952  0.4777  0.0279
21929SOL    HW171623   7.878   6.649   6.885 -1.1711  1.1451 -2.1682
21929SOL    HW271624   7.867   6.752   6.996  0.1461 -1.2281  0.2875
21930SOL     OW71625   0.601   9.679   1.132 -0.3886 -0.3821  0.0706
21930SOL    HW171626   0.677   9.688   1.074 -1.5877  0.2218 -1.4638
21930SOL    HW271627   0.526   9.673   1.073 -1.6830  0.3813  1.5718
21931SOL     OW71628   8.074   9.568   8.275  0.1103  0.1165  0.4225
21931SOL    HW171629   8.110   9.628   8.210  0.8323 -1.1676 -0.4066
21931SOL    HW271630   7.980   9.566   8.257  0.2773 -0.0949 -0.5024
21932SOL     OW71631   6.292   1.185  10.494 -0.4720 -0.5115  0.2480
21932SOL    HW171632   6.302   1.146  10.407 -0.9182 -0.7899  0.3181
21932SOL    HW271633   6.338   1.125  10.553  0.2583 -0.0602  0.1404
21933SOL     OW71634   8.798   0.025   7.190  0.0700 -0.9069 -0.1851
21933SOL    HW171635   8.852   0.008   7.112  0.8825 -0.4093  0.2559
21933SOL    HW271636   8.708   0.028   7.156  0.5227  0.9516 -1.4041
21934SOL     OW71637   4.993   0.529  10.721  0.0026  0.2811  0.3233
21934SOL    HW171638   4.953   0.583  10.653  0.3891  1.5539  1.0733
21934SOL    HW271639   4.950   0.444  10.713 -0.0222  0.4225 -1.4426
21935SOL     OW71640   0.258  10.240   0.236 -0.6810  0.0369 -0.0729
21935SOL    HW171641   0.166  10.229   0.260 -0.5822 -1.2561 -0.2209
21935SOL    HW271642   0.300  10.273   0.315 -0.8441 -1.6401  0.7368
21936SOL     OW71643   5.592   3.128   0.500 -0.3779  0.5045  0.6372
21936SOL    HW171644   5.662   3.118   0.563  0.8163  0.3380 -0.6740
21936SOL    HW271645   5.601   3.054   0.440 -2.2410 -0.0326  0.9358
21937SOL     OW71646   2.492   0.304   4.116  0.7111 -1.5999 -0.0016
21937SOL    HW171647   2.457   0.374   4.171  1.2205  0.4840 -2.1487
21937SOL    HW271648   2.587   0.310   4.128  0.9940  0.2010 -2.4132
21938SOL     OW71649   2.818   5.512   3.044 -0.0772  0.0704  0.7438
21938SOL    HW171650   2.795   5.441   2.984 -0.6798 -0.3727  1.4737
21938SOL    HW271651   2.908   5.534   3.023  0.3071 -1.3164  0.8852
21939SOL     OW71652   9.128   7.121   1.217  0.2430 -0.4452  0.6235
21939SOL    HW171653   9.169   7.178   1.282  1.2593 -0.1506 -0.2429
21939SOL    HW271654   9.116   7.178   1.141 -1.4502 -0.6310  0.7130
21940SOL     OW71655   2.197   0.464   1.162  0.4794 -0.7567  0.3888
21940SOL    HW171656   2.239   0.424   1.086  1.2385 -3.1950  2.0063
21940SOL    HW271657   2.113   0.419   1.169 -0.3866  0.7238  0.0099
21941SOL     OW71658   5.128   7.596   6.801 -0.2136  0.5821  0.3385
21941SOL    HW171659   5.217   7.560   6.802 -0.1172  0.7896 -0.2077
21941SOL    HW271660   5.082   7.550   6.872 -0.2155 -0.9237 -0.5836
21942SOL     OW71661   5.882   4.845   7.180 -0.0512  0.5005  0.0994
21942SOL    HW171662   5.930   4.770   7.215  0.6713  0.6240 -0.5977
21942SOL    HW271663   5.893   4.913   7.246  1.4990  0.8086 -0.4407
21943SOL     OW71664   7.853   3.489   9.840  0.7706  1.1557  0.3117
21943SOL    HW171665   7.773   3.465   9.887  0.0258  1.1835 -0.8969
21943SOL    HW271666   7.851   3.585   9.836  0.1104  1.1085 -0.9431
21944SOL     OW71667   6.527   3.759   9.606 -0.1456  0.0137 -0.1173
21944SOL    HW171668   6.578   3.826   9.561 -1.0849  0.5923 -0.3257
21944SOL    HW271669   6.465   3.727   9.541 -1.9968  1.3554  0.9215
21945SOL     OW71670   3.326   1.577   6.059  0.3843  0.2030 -0.9297
21945SOL    HW171671   3.354   1.514   6.125  0.5500 -0.5641 -1.7154
21945SOL    HW271672   3.407   1.602   6.014 -0.0055 -1.2259 -2.5162
21946SOL     OW71673   3.509   3.534   6.660  0.1465 -0.8404  0.0692
21946SOL    HW171674   3.444   3.464   6.652  0.0968 -0.6136 -2.2625
21946SOL    HW271675   3.585   3.503   6.610  0.1353  0.6916 -0.9942
21947SOL     OW71676   8.272   7.468   2.442  0.4370 -0.1437  0.7855
21947SOL    HW171677   8.330   7.467   2.366 -1.9289  0.9810 -1.1738
21947SOL    HW271678   8.296   7.547   2.490 -1.4059  2.0887 -1.7274
21948SOL     OW71679   7.937  10.905  10.484  0.2822 -0.0115  0.0740
21948SOL    HW171680   7.976  10.871  10.404  0.4987 -1.3809  0.7229
21948SOL    HW271681   7.843  10.887  10.475  0.2292  0.3512 -0.1091
21949SOL     OW71682   6.999   6.486   6.491 -0.0175 -0.5558  0.2437
21949SOL    HW171683   6.939   6.558   6.510 -1.0353 -0.7449 -1.9762
21949SOL    HW271684   7.032   6.504   6.403 -0.4726 -2.8645 -0.4804
21950SOL     OW71685   8.693   6.403   5.980  0.3710 -0.0231  0.1919
21950SOL    HW171686   8.640   6.403   6.060  0.4045 -1.1469  0.2334
21950SOL    HW271687   8.749   6.480   5.989 -0.6336  0.6921  0.5581
21951SOL     OW71688   4.119   8.610   8.845  0.4562  0.1583  0.3341
21951SOL    HW171689   4.044   8.559   8.815 -0.2973  1.2023  0.3616
21951SOL    HW271690   4.195   8.556   8.824 -0.3135 -1.0766  0.6019
21952SOL     OW71691   8.055  10.560   6.696 -0.2917  0.5291  0.5112
21952SOL    HW171692   8.041  10.472   6.732 -3.8382  0.0690 -1.4778
21952SOL    HW271693   8.035  10.619   6.768  0.4677 -0.3017  1.4167
21953SOL     OW71694   7.491   2.810  10.207 -0.3318  0.3886 -0.2667
21953SOL    HW171695   7.452   2.839  10.124 -0.7582 -0.4821 -0.3794
21953SOL    HW271696   7.428   2.748  10.242  0.5260 -0.3296  0.0142
21954SOL     OW71697  10.219   0.486   7.304  0.6274  0.3247  0.6769
21954SOL    HW171698  10.244   0.558   7.362 -0.4893  2.0121 -0.8121
21954SOL    HW271699  10.189   0.417   7.363  2.2716  0.8348  2.1855
21955SOL     OW71700   4.369   7.753   3.307 -0.2285 -0.0723 -0.0787
21955SOL    HW171701   4.359   7.684   3.241  0.6103  0.7062 -1.0480
21955SOL    HW271702   4.311   7.823   3.277  1.1571  0.8276 -0.7753
21956SOL     OW71703   9.423   7.876   3.405  0.7023 -0.4012  0.3761
21956SOL    HW171704   9.483   7.950   3.391  1.3820 -0.9287  0.4517
21956SOL    HW271705   9.356   7.887   3.338  1.9091 -0.8334 -0.9451
21957SOL     OW71706   8.682   0.041   6.884 -0.1193 -0.5871 -0.0743
21957SOL    HW171707   8.639  -0.014   6.950  0.7857  1.9453  2.8341
21957SOL    HW271708   8.775   0.023   6.896  0.0502 -0.2560 -0.8585
21958SOL     OW71709   1.443   3.442   7.360  0.7356 -0.3670 -0.3794
21958SOL    HW171710   1.504   3.513   7.381  1.4807 -1.3289  0.8876
21958SOL    HW271711   1.367   3.486   7.322  1.8427  0.9450 -1.1780
21959SOL     OW71712   4.544   4.468   5.233  0.2942  0.1730 -0.1239
21959SOL    HW171713   4.637   4.488   5.223  0.1509  0.5061 -0.8689
21959SOL    HW271714   4.512   4.458   5.143 -0.5494  0.8346  0.0863
21960SOL     OW71715   5.127  10.464   2.899  0.3961 -0.4673  0.4087
21960SOL    HW171716   5.155  10.398   2.963  0.7901  0.2004  0.9349
21960SOL    HW271717   5.052  10.506   2.940  0.8387  0.1739  0.5692
21961SOL     OW71718   9.138   9.135   3.813  0.2018 -0.2078  0.0906
21961SOL    HW171719   9.228   9.151   3.785  0.1726 -0.7078 -0.3005
21961SOL    HW271720   9.147   9.106   3.904  0.3425  0.8308  0.4231
21962SOL     OW71721   0.555   6.900   4.799 -1.0277 -0.0916 -0.0711
21962SOL    HW171722   0.526   6.951   4.724 -0.0255 -0.5432 -0.7888
21962SOL    HW271723   0.590   6.819   4.761 -1.1678 -0.6352  0.9318
21963SOL     OW71724   1.272   8.132   9.005  0.6038  0.1893 -0.2060
21963SOL    HW171725   1.318   8.085   8.936  1.6241 -0.0239  0.6040
21963SOL    HW271726   1.336   8.194   9.039  0.0994  0.3178  0.5233
21964SOL     OW71727   0.281   6.851   9.196 -0.2027  0.4800 -0.4326
21964SOL    HW171728   0.338   6.813   9.263  1.4374  1.5129 -1.1641
21964SOL    HW271729   0.276   6.944   9.218 -0.6138  0.6172 -1.0701
21965SOL     OW71730   5.347   2.280   3.775  0.3754 -0.3071 -0.2677
21965SOL    HW171731   5.330   2.371   3.751  1.8953  0.6735  2.0063
21965SOL    HW271732   5.300   2.269   3.858  1.2367 -1.2051  0.1122
21966SOL     OW71733   9.065   0.805   9.581  0.0565  0.3006  0.1349
21966SOL    HW171734   9.001   0.861   9.537  0.1343 -0.3152 -0.8020
21966SOL    HW271735   9.149   0.849   9.567 -0.1206  0.9512  1.0990
21967SOL     OW71736   9.532   8.150   6.681 -0.0009 -0.1989  0.4857
21967SOL    HW171737   9.620   8.164   6.645  0.6329 -0.1531  1.9680
21967SOL    HW271738   9.548   8.121   6.771 -1.5028 -0.7766  0.5876
21968SOL     OW71739  10.593   9.141   3.509  0.2875  0.1340 -0.6296
21968SOL    HW171740  10.585   9.046   3.509 -1.0646  0.1803  1.0566
21968SOL    HW271741  10.682   9.158   3.539 -0.0468 -0.6436  0.9182
21969SOL     OW71742   0.310   8.461   8.612  0.6053  0.4823 -0.7164
21969SOL    HW171743   0.353   8.514   8.678  1.3805  2.8744 -2.9424
21969SOL    HW271744   0.230   8.510   8.590 -1.5875 -2.1115  0.8938
21970SOL     OW71745  10.485   5.661   6.349  0.4772  0.0305 -0.0002
21970SOL    HW171746  10.403   5.710   6.338  0.8570  0.4237 -1.1819
21970SOL    HW271747  10.550   5.711   6.300  1.2550 -0.7197  0.2428
21971SOL     OW71748   7.056   4.507   0.121  0.3719 -0.5217 -0.2560
21971SOL    HW171749   7.009   4.487   0.202  0.2915  0.4685 -0.0331
21971SOL    HW271750   7.010   4.459   0.053  0.8912 -1.9555  0.3830
21972SOL     OW71751   8.980   3.183   1.931  0.0915 -0.5011 -0.1997
21972SOL    HW171752   8.968   3.258   1.873 -1.1057 -0.9785 -0.6123
21972SOL    HW271753   9.074   3.166   1.931  0.3138  0.6757 -0.5011
21973SOL     OW71754   2.598   1.599   4.724  0.4946 -0.0934 -0.0170
21973SOL    HW171755   2.543   1.606   4.646  1.3058  1.3610 -0.5006
21973SOL    HW271756   2.573   1.674   4.777  0.2202 -0.8653  0.9766
21974SOL     OW71757   5.498   7.846   6.943  0.4492 -0.0946  0.1664
21974SOL    HW171758   5.583   7.808   6.920  0.1707 -0.4122 -0.3495
21974SOL    HW271759   5.508   7.940   6.925  0.3318 -0.2931 -1.0138
21975SOL     OW71760   4.825  10.719   6.969  0.0056  0.2464 -0.1259
21975SOL    HW171761   4.775  10.799   6.952 -1.8593 -0.7538  0.3893
21975SOL    HW271762   4.793  10.688   7.053  0.7593 -0.9963 -0.2730
21976SOL     OW71763   2.701   2.032   0.256  0.3562 -0.2145  0.4624
21976SOL    HW171764   2.709   2.100   0.189 -0.5738  0.5303  1.0949
21976SOL    HW271765   2.609   2.037   0.284  0.9271  0.0223  2.3656
21977SOL     OW71766   2.287   9.567   8.860 -0.0703 -0.0249  0.0187
21977SOL    HW171767   2.269   9.506   8.789  0.5662 -0.1812 -0.0153
21977SOL    HW271768   2.234   9.534   8.933 -0.7325  0.1437 -0.3739
21978SOL     OW71769   5.802   7.939   0.511  0.2334 -0.2876 -0.3865
21978SOL    HW171770   5.770   7.986   0.434  0.0665  0.6347  0.2407
21978SOL    HW271771   5.854   7.867   0.474  1.8520  1.3070 -1.3689
21979SOL     OW71772   4.125   1.919   9.982 -0.7896  0.1124 -0.0320
21979SOL    HW171773   4.187   1.847   9.980 -0.0372  0.7148  0.7558
21979SOL    HW271774   4.044   1.883   9.945 -0.4853 -1.1706  0.5222
21980SOL     OW71775   8.349   1.322   3.748 -0.7022  0.2339  0.2829
21980SOL    HW171776   8.352   1.250   3.685  0.6928  0.3422  0.2050
21980SOL    HW271777   8.357   1.401   3.695  2.1962  0.2785  0.6620
21981SOL     OW71778   9.766   5.142   2.621  0.2447  0.0353  0.6029
21981SOL    HW171779   9.750   5.233   2.597  0.2860  0.2680  1.4446
21981SOL    HW271780   9.813   5.106   2.546  2.3681  1.3461  1.2114
21982SOL     OW71781   6.214   5.062   8.951  0.0834  0.5916  0.4843
21982SOL    HW171782   6.187   5.152   8.970 -0.5519  0.1307  1.9059
21982SOL    HW271783   6.293   5.072   8.898 -1.4177  1.9808 -1.6859
21983SOL     OW71784   4.659   7.032   5.491  0.2698 -0.4520  0.1624
21983SOL    HW171785   4.632   7.108   5.543 -0.7078 -2.0102  2.0541
21983SOL    HW271786   4.576   6.991   5.465  0.7672 -0.3696 -1.7036
21984SOL     OW71787   2.882   9.251   7.237  0.0383  0.4755 -0.5538
21984SOL    HW171788   2.872   9.261   7.143 -0.2247 -2.7000 -0.9528
21984SOL    HW271789   2.796   9.273   7.273 -0.1096  0.8580 -1.1315
21985SOL     OW71790   5.537   4.548   0.842 -0.2222 -0.0732  0.2091
21985SOL    HW171791   5.483   4.627   0.837  0.6160  0.6546  1.9982
21985SOL    HW271792   5.481   4.483   0.886 -0.8632 -0.4991 -1.1468
21986SOL     OW71793   7.707   0.410   9.998 -0.3409 -0.1280 -0.1436
21986SOL    HW171794   7.679   0.326  10.036 -0.6353  0.0103 -0.0529
21986SOL    HW271795   7.653   0.475  10.042  0.8768  0.2560  0.8353
21987SOL     OW71796   1.211   3.973   7.312  0.4558  0.3490  0.1624
21987SOL    HW171797   1.211   3.970   7.216  1.1298  1.2342  0.1188
21987SOL    HW271798   1.119   3.964   7.336  0.0648  1.8355 -0.6550
21988SOL     OW71799   6.539   5.209   2.316  0.0988  0.3555 -0.2361
21988SOL    HW171800   6.506   5.129   2.357  0.1458 -0.4961 -1.8136
21988SOL    HW271801   6.480   5.225   2.243 -0.2948  2.1557  0.4146
21989SOL     OW71802   5.174   2.471   5.705  0.0721  0.1353 -0.4577
21989SOL    HW171803   5.196   2.411   5.776  1.8491  3.4144  1.9835
21989SOL    HW271804   5.138   2.548   5.748  0.0553  1.8231 -3.2352
21990SOL     OW71805   3.002   5.330   8.604  0.1601  0.1884  0.0598
21990SOL    HW171806   2.973   5.398   8.665  0.5971  1.1241 -0.7435
21990SOL    HW271807   2.996   5.248   8.654  0.6572  0.9432  1.4027
21991SOL     OW71808   8.474   5.845   3.377 -0.1597  0.0125  0.0747
21991SOL    HW171809   8.413   5.780   3.414  1.7714 -2.2013 -0.3994
21991SOL    HW271810   8.533   5.866   3.450 -0.4296  0.8295  0.0632
21992SOL     OW71811   5.146   6.767   4.556  0.5322  0.3536  0.3673
21992SOL    HW171812   5.227   6.750   4.508 -0.1325 -2.0035 -0.0549
21992SOL    HW271813   5.173   6.769   4.648  1.3443  1.6551  0.1195
21993SOL     OW71814   6.479   2.332   9.884  0.1845  0.3654 -0.3832
21993SOL    HW171815   6.525   2.257   9.846 -0.9928 -1.4769  1.5946
21993SOL    HW271816   6.419   2.361   9.815 -0.3129 -1.4270 -0.7584
21994SOL     OW71817   7.172   2.642   1.801  0.1057 -0.5870  0.2370
21994SOL    HW171818   7.245   2.682   1.753 -1.1639  1.3770 -0.1859
21994SOL    HW271819   7.212   2.569   1.848  2.4274  0.6087  0.2850
21995SOL     OW71820   9.782   2.100   0.402 -0.0965  0.6335 -0.5086
21995SOL    HW171821   9.851   2.155   0.365  1.5121 -1.3813 -0.6640
21995SOL    HW271822   9.750   2.149   0.477  1.6580  1.5424 -0.3093
21996SOL     OW71823   6.001   6.777   4.721 -0.1605  0.2717 -0.5170
21996SOL    HW171824   6.042   6.858   4.750  0.2988  0.3892 -1.4723
21996SOL    HW271825   5.908   6.798   4.711 -0.6013 -0.1126  2.1019
21997SOL     OW71826   9.420   4.242  10.117 -1.0362 -0.5362 -0.2754
21997SOL    HW171827   9.483   4.281  10.178 -1.6504 -0.2857  0.2113
21997SOL    HW271828   9.459   4.159  10.093 -0.0557  0.0413 -0.7412
21998SOL     OW71829   0.386   2.897   6.572  0.6171 -0.2156 -0.5711
21998SOL    HW171830   0.352   2.972   6.620 -0.5053 -0.7056 -0.5808
21998SOL    HW271831   0.352   2.908   6.483 -0.8199 -1.5089 -0.2137
21999SOL     OW71832   8.152   3.275   8.238 -0.4386 -0.2191 -0.4050
21999SOL    HW171833   8.178   3.183   8.241 -0.4622 -0.1979  0.7441
21999SOL    HW271834   8.062   3.277   8.270 -0.8490  0.0772 -1.5252
22000SOL     OW71835   2.657   0.533   3.817  0.0602  0.0256  0.1450
22000SOL    HW171836   2.662   0.607   3.878  0.7568 -0.2619  0.4469
22000SOL    HW271837   2.745   0.527   3.781  1.4172 -3.3561  3.3516
22001SOL     OW71838   1.164   1.192   6.627 -0.1007  0.0010  0.6065
22001SOL    HW171839   1.095   1.255   6.606  2.3514  2.1574 -1.7284
22001SOL    HW271840   1.225   1.241   6.683  0.7890 -1.0252  0.5602
22002SOL     OW71841   6.003   6.558   9.311  0.0931 -0.3399 -0.5305
22002SOL    HW171842   6.096   6.559   9.288  0.0361  2.3584 -0.9523
22002SOL    HW271843   5.958   6.587   9.233 -0.8066  1.2947  0.5362
22003SOL     OW71844   7.078   5.479  10.052  0.2475 -0.4404 -0.3423
22003SOL    HW171845   7.104   5.554  10.105  0.9325 -0.5277 -0.5496
22003SOL    HW271846   6.982   5.483  10.050  0.0761 -1.3006  2.1575
22004SOL     OW71847   1.178   6.914   1.443 -0.0475  0.2448  0.2163
22004SOL    HW171848   1.142   6.945   1.360 -0.5517 -1.1840 -0.1415
22004SOL    HW271849   1.272   6.929   1.436 -0.2938  2.0567  0.2726
22005SOL     OW71850   3.960   4.485   3.574 -0.2075 -0.4621 -0.0860
22005SOL    HW171851   4.045   4.510   3.537  0.7636 -3.1869  0.0489
22005SOL    HW271852   3.897   4.541   3.530  1.5491  0.8583 -1.0526
22006SOL     OW71853   9.633   1.750   7.539 -0.9229 -0.3110  0.2554
22006SOL    HW171854   9.637   1.729   7.446 -0.9083  0.0798  0.1655
22006SOL    HW271855   9.547   1.720   7.568  0.2601 -3.4846  0.8787
22007SOL     OW71856   1.271   4.076   9.827 -0.4147 -0.0457  0.3719
22007SOL    HW171857   1.311   4.012   9.768 -0.3403  0.9041 -0.6408
22007SOL    HW271858   1.188   4.098   9.785  0.0385  1.3029  0.1328
22008SOL     OW71859   3.710   5.070   9.688 -0.6683  0.0735  0.4953
22008SOL    HW171860   3.722   5.007   9.617 -0.0043 -0.5173  1.1271
22008SOL    HW271861   3.788   5.124   9.686 -0.8250  0.3007  0.5315
22009SOL     OW71862  10.917   2.049   0.642 -0.2593  0.3010  0.1231
22009SOL    HW171863  10.879   2.096   0.717 -1.2048 -0.8416  0.3841
22009SOL    HW271864  10.865   1.969   0.635  1.3549 -0.7640 -0.2625
22010SOL     OW71865   7.391   7.569   7.802  0.9107 -0.9247  0.2258
22010SOL    HW171866   7.318   7.517   7.833 -2.2141  1.9978 -1.5798
22010SOL    HW271867   7.428   7.609   7.881 -0.6132 -1.0866  1.0446
22011SOL     OW71868  10.727   5.111   8.377  0.2596  0.1184  0.4567
22011SOL    HW171869  10.719   5.173   8.449  1.5681  1.4965 -0.4983
22011SOL    HW271870  10.693   5.159   8.301  2.3506  0.1648 -0.5257
22012SOL     OW71871   7.897   6.182   7.528 -0.3531  0.0045  0.1094
22012SOL    HW171872   7.976   6.234   7.516  1.0924 -2.1711 -0.3462
22012SOL    HW271873   7.825   6.245   7.516  1.2572  2.0180  0.4170
22013SOL     OW71874   6.344   9.648   2.792 -0.2186  0.2753  0.4046
22013SOL    HW171875   6.267   9.599   2.821  0.4873 -0.1452  1.6365
22013SOL    HW271876   6.416   9.584   2.794 -0.0687  0.2421 -2.2110
22014SOL     OW71877   1.536   7.755   2.415 -0.0006 -0.0833  0.2217
22014SOL    HW171878   1.623   7.716   2.422 -0.4870 -0.9802  2.0342
22014SOL    HW271879   1.507   7.735   2.326  0.8600 -1.5385  0.2404
22015SOL     OW71880   2.083   9.205   3.271 -0.1180 -0.1485 -0.2077
22015SOL    HW171881   2.168   9.241   3.297 -0.3311 -0.3311  0.8073
22015SOL    HW271882   2.031   9.280   3.243 -0.1134  0.1586  0.5988
22016SOL     OW71883   5.717   7.731   8.010 -0.3293  0.4013  0.1816
22016SOL    HW171884   5.644   7.692   7.962 -0.1671 -0.3548  0.5319
22016SOL    HW271885   5.737   7.811   7.962 -0.3222 -0.2149 -0.8801
22017SOL     OW71886   8.169   3.923   9.938 -0.2242  0.3778  0.1444
22017SOL    HW171887   8.103   3.918   9.869 -1.5377  1.1051  1.2999
22017SOL    HW271888   8.119   3.942  10.017  1.2551 -0.3370  1.2883
22018SOL     OW71889   4.865   0.648   4.862 -0.1917 -0.8813 -0.5429
22018SOL    HW171890   4.890   0.723   4.808 -0.4775 -1.1783 -1.0997
22018SOL    HW271891   4.923   0.577   4.835 -0.4481 -1.0801 -0.5857
22019SOL     OW71892   2.566   8.493   2.230 -0.2500  0.0315  0.3245
22019SOL    HW171893   2.547   8.417   2.176 -2.2526  1.4061 -1.0281
22019SOL    HW271894   2.659   8.510   2.215  0.3329 -2.3038  0.9562
22020SOL     OW71895   4.800   1.860   5.534  0.1977  0.0371  0.1826
22020SOL    HW171896   4.823   1.953   5.540  2.1875 -0.4087  0.3466
22020SOL    HW271897   4.789   1.832   5.625  0.4982 -0.0788  0.1847
22021SOL     OW71898   8.133   1.483   2.799 -0.6394 -0.3715 -0.3129
22021SOL    HW171899   8.131   1.390   2.819  2.1887 -0.5877 -0.6093
22021SOL    HW271900   8.152   1.525   2.883  2.6785 -0.5586 -0.8255
22022SOL     OW71901   4.747   8.334   8.878  0.1036  0.2392 -1.0629
22022SOL    HW171902   4.652   8.337   8.874 -0.0293  0.5814  1.2080
22022SOL    HW271903   4.767   8.283   8.957  1.6140  4.6716  1.8270
22023SOL     OW71904   8.707   1.816   5.989  0.1214  0.4762  0.1005
22023SOL    HW171905   8.729   1.858   6.071 -2.2996  1.8040  0.1366
22023SOL    HW271906   8.620   1.779   6.002  0.3263 -0.6613 -1.3787
22024SOL     OW71907   3.512  10.429   4.261 -0.2147 -0.2944 -0.2050
22024SOL    HW171908   3.440  10.488   4.237  1.4582  2.0542  0.1366
22024SOL    HW271909   3.542  10.463   4.346  2.1598 -0.2672 -0.9779
22025SOL     OW71910   6.121   4.698   9.764 -0.2203 -0.0307 -0.8171
22025SOL    HW171911   6.098   4.693   9.671 -0.8689 -1.8937 -0.6024
22025SOL    HW271912   6.207   4.656   9.770 -0.3156 -0.1888 -0.5377
22026SOL     OW71913   0.489   1.030   8.649  0.2015  0.3369  0.8088
22026SOL    HW171914   0.546   1.037   8.726  0.9296 -0.2692  0.3412
22026SOL    HW271915   0.540   0.979   8.586  0.1869  1.9583 -0.5855
22027SOL     OW71916  10.500   1.046   0.559  0.1032 -0.5204  0.1415
22027SOL    HW171917  10.465   1.019   0.645 -0.1827 -2.7380 -0.5955
22027SOL    HW271918  10.456   1.129   0.541 -0.6020 -0.5084  1.6952
22028SOL     OW71919   1.087   5.608   9.037 -0.0917 -0.2871  0.9172
22028SOL    HW171920   1.159   5.619   8.975 -2.1920  0.5261 -1.5558
22028SOL    HW271921   1.110   5.665   9.111  1.3319  0.6939 -0.2404
22029SOL     OW71922   8.168   1.866   4.496  0.0308  0.5259  0.7070
22029SOL    HW171923   8.107   1.930   4.533  1.3926  2.0225  0.4630
22029SOL    HW271924   8.183   1.804   4.568  1.6944  2.7043  2.3767
22030SOL     OW71925   7.649   6.048   7.639 -0.1318 -0.0012  0.0245
22030SOL    HW171926   7.739   6.080   7.650 -1.1920  2.7453  1.7211
22030SOL    HW271927   7.612   6.050   7.727 -2.9254  2.6457 -1.0307
22031SOL     OW71928   7.550   9.733   5.071  0.2718  0.4495 -0.9753
22031SOL    HW171929   7.513   9.731   5.160  1.2598  1.3170 -0.5257
22031SOL    HW271930   7.479   9.700   5.016 -0.2185 -0.5216  0.1714
22032SOL     OW71931  10.670   5.550   4.513  0.2815  0.4707 -0.1726
22032SOL    HW171932  10.589   5.500   4.508  0.4918  0.0016  0.7287
22032SOL    HW271933  10.729   5.494   4.564  1.8129 -0.0523 -2.3373
22033SOL     OW71934  10.159   1.761   6.749 -0.5776 -0.1292  0.0981
22033SOL    HW171935  10.078   1.811   6.758 -0.0503  0.6511  0.6316
22033SOL    HW271936  10.144   1.702   6.675 -0.7070  1.8063 -1.4809
22034SOL     OW71937   8.471   3.433   6.214 -0.3227  0.5466 -0.5182
22034SOL    HW171938   8.559   3.398   6.222 -0.8772 -0.7847 -0.0303
22034SOL    HW271939   8.484   3.524   6.186  1.1199 -0.3589 -3.0689
22035SOL     OW71940   3.360  10.702   7.624  0.1471  0.3533 -0.2468
22035SOL    HW171941   3.331  10.773   7.568  0.9720  0.5885 -0.3855
22035SOL    HW271942   3.319  10.623   7.587  1.5253  0.3386 -1.8537
22036SOL     OW71943   8.395   6.738   4.697  0.1698 -0.4741 -0.0695
22036SOL    HW171944   8.486   6.765   4.707  0.2752 -1.4048  2.1687
22036SOL    HW271945   8.376   6.751   4.604  1.4024  3.2504  0.0463
22037SOL     OW71946   6.970   9.846   3.945 -0.1833 -0.1463 -0.3542
22037SOL    HW171947   6.997   9.801   3.865  0.0378 -0.9764  0.1767
22037SOL    HW271948   7.047   9.896   3.972  0.5423 -1.7080  0.5972
22038SOL     OW71949   5.852   6.879   5.807 -0.3260 -0.4506 -0.6215
22038SOL    HW171950   5.808   6.878   5.722  0.2574  2.1430 -1.0599
22038SOL    HW271951   5.944   6.863   5.786 -0.2054  0.0369 -0.4864
22039SOL     OW71952   5.195   4.031  10.623 -0.7092  0.1237  0.1689
22039SOL    HW171953   5.114   4.082  10.626 -0.8881 -0.2225  1.4404
22039SOL    HW271954   5.184   3.962  10.688  0.9025  0.5113  0.9193
22040SOL     OW71955   0.579   0.795   1.186 -0.0385  0.0375 -0.3896
22040SOL    HW171956   0.574   0.740   1.264  0.5439 -0.3468 -0.6227
22040SOL    HW271957   0.529   0.748   1.119 -1.5904  0.9505  0.0760
22041SOL     OW71958   2.105   6.209   4.703  0.1540  0.0581  0.4147
22041SOL    HW171959   2.011   6.190   4.709 -0.2231  1.6853  0.0778
22041SOL    HW271960   2.144   6.155   4.771 -1.1093 -0.1418  1.0214
22042SOL     OW71961   2.161   5.297   8.529 -0.1996  0.7511  0.3530
22042SOL    HW171962   2.108   5.224   8.560  1.8868 -0.5376  1.0423
22042SOL    HW271963   2.157   5.361   8.600  0.0607  0.1810  0.8915
22043SOL     OW71964   3.040   3.412   2.051 -0.0124 -0.6172  1.0259
22043SOL    HW171965   3.003   3.407   1.962  1.0052 -0.1493  0.5608
22043SOL    HW271966   3.038   3.322   2.083  0.2298 -0.9035  0.2574
22044SOL     OW71967   2.886   0.045   3.797 -0.0273  0.8169  0.1649
22044SOL    HW171968   2.898   0.077   3.886  1.3599  2.7805 -0.6525
22044SOL    HW271969   2.935   0.107   3.742 -0.4608 -0.5792 -1.9268
22045SOL     OW71970   9.169   0.151  10.061  0.1863 -0.1214 -0.1503
22045SOL    HW171971   9.079   0.160  10.030  0.2240  2.0630  0.2531
22045SOL    HW271972   9.214   0.105   9.990 -1.0292 -0.4160 -0.7534
22046SOL     OW71973   5.756   8.799   8.368  0.0814  0.0865  0.0054
22046SOL    HW171974   5.773   8.859   8.441  1.3140 -0.4721  0.2104
22046SOL    HW271975   5.835   8.745   8.363 -0.5159 -0.7335 -0.9333
22047SOL     OW71976   1.271   9.045   4.383  0.1034 -0.4087 -0.2929
22047SOL    HW171977   1.203   9.023   4.320 -0.8588 -0.3588  0.6934
22047SOL    HW271978   1.223   9.083   4.457  1.2288 -0.1623  0.3283
22048SOL     OW71979   1.750   7.993   5.657  0.3541 -0.0654  0.2415
22048SOL    HW171980   1.670   8.011   5.706 -0.0852  1.7239 -1.0163
22048SOL    HW271981   1.764   7.899   5.666 -1.1200 -0.1853  1.6235
22049SOL     OW71982   5.312   4.060   6.146  0.2483  0.3677  0.0778
22049SOL    HW171983   5.309   4.115   6.224  0.2125  0.3848  0.0648
22049SOL    HW271984   5.330   4.122   6.075 -0.4646  0.4618 -0.0280
22050SOL     OW71985   1.402   8.017   1.294  0.6633 -0.2309 -0.0864
22050SOL    HW171986   1.365   8.067   1.367 -0.6291  0.7094 -1.3305
22050SOL    HW271987   1.455   8.080   1.245  0.2096 -0.4240 -0.8490
22051SOL     OW71988   4.997  10.668   9.006  0.0454 -0.1249 -0.7495
22051SOL    HW171989   4.909  10.670   8.969 -0.1145  1.1691 -0.3725
22051SOL    HW271990   5.031  10.757   8.991  0.4130  0.0982  1.1114
22052SOL     OW71991   6.791  10.791   8.854 -0.2170 -0.0746 -0.1528
22052SOL    HW171992   6.786  10.866   8.794  0.4912  0.4219  0.3943
22052SOL    HW271993   6.753  10.823   8.936  0.2073 -0.2647  0.1242
22053SOL     OW71994   4.677   8.896   7.183 -0.3208  0.0247  0.7354
22053SOL    HW171995   4.734   8.893   7.260 -0.3799 -0.9299  0.7494
22053SOL    HW271996   4.643   8.807   7.175 -0.8957  0.3014  0.0356
22054SOL     OW71997   0.611   2.349   2.792 -0.7231 -0.7646  0.6318
22054SOL    HW171998   0.547   2.314   2.854 -2.0858  1.2302  0.4267
22054SOL    HW271999   0.670   2.401   2.845 -0.8541 -0.4559  0.4743
22055SOL     OW72000   6.028   3.106   3.474 -0.2406  0.5624  0.2598
22055SOL    HW172001   6.002   3.015   3.491 -1.5284  0.7498 -0.5514
22055SOL    HW272002   6.006   3.120   3.382  4.3780  0.2741 -1.1128
22056SOL     OW72003   2.794   8.103   6.036  0.5033 -0.2506  0.0999
22056SOL    HW172004   2.832   8.149   5.961 -0.5879  1.9258  0.7871
22056SOL    HW272005   2.792   8.168   6.106 -1.9305 -1.0647  0.8944
22057SOL     OW72006   0.283  10.693   9.449  0.7488 -0.1632 -0.3476
22057SOL    HW172007   0.323  10.684   9.536 -0.9698 -1.8253  0.3560
22057SOL    HW272008   0.292  10.606   9.410 -1.1184 -0.2794 -0.5976
22058SOL     OW72009   4.553   1.539   4.729  0.1991 -0.0560 -0.3760
22058SOL    HW172010   4.522   1.466   4.784  0.0135  0.5218  0.3031
22058SOL    HW272011   4.594   1.497   4.654 -0.4260 -0.8601 -0.2783
22059SOL     OW72012   8.759   7.950   1.448 -0.0920  0.0063  0.5014
22059SOL    HW172013   8.817   7.906   1.386  0.8042  2.8575 -0.8681
22059SOL    HW272014   8.797   7.933   1.534  1.5790  0.0201 -0.1972
22060SOL     OW72015   4.419   8.499   7.454 -0.3658 -0.0805 -0.0137
22060SOL    HW172016   4.503   8.478   7.496 -0.0146 -0.1606 -0.7380
22060SOL    HW272017   4.353   8.481   7.521  0.0097 -2.2261 -0.1690
22061SOL     OW72018   2.734   5.292   2.874 -0.4558  0.2155 -0.2937
22061SOL    HW172019   2.667   5.262   2.813 -0.6784  0.8930 -0.3875
22061SOL    HW272020   2.814   5.248   2.845 -0.8262 -0.5061 -0.2493
22062SOL     OW72021   9.379   8.830   2.522 -0.2275  0.3052  0.4711
22062SOL    HW172022   9.387   8.795   2.610  0.3366  1.3925  0.8694
22062SOL    HW272023   9.313   8.899   2.530  1.0343  1.5534  0.4302
22063SOL     OW72024   5.105  10.005   6.642  0.3364  0.0886  0.0738
22063SOL    HW172025   5.094  10.057   6.722 -0.7096 -2.0512  1.4102
22063SOL    HW272026   5.015   9.981   6.617  0.7687 -0.7897 -0.6742
22064SOL     OW72027   2.037   2.552  10.158 -0.3478  0.8329 -0.0138
22064SOL    HW172028   1.952   2.554  10.114 -0.1473 -2.7363 -0.9084
22064SOL    HW272029   2.063   2.460  10.155  3.4959  1.7385  0.4238
22065SOL     OW72030   1.981   2.979   9.772 -0.1501  0.5300 -1.3107
22065SOL    HW172031   1.923   3.055   9.764  0.4766  1.3083  0.7208
22065SOL    HW272032   1.988   2.965   9.867  1.7828 -0.4650 -1.5568
22066SOL     OW72033   3.517   3.369   9.951 -0.9881 -0.6365 -0.2478
22066SOL    HW172034   3.518   3.444   9.891 -0.1227 -0.6201 -0.2311
22066SOL    HW272035   3.453   3.309   9.914 -2.2003  0.3907  0.0956
22067SOL     OW72036   4.511   2.095   5.525  0.2107 -0.2658  0.1817
22067SOL    HW172037   4.556   2.162   5.475  0.6643 -0.5502  0.1971
22067SOL    HW272038   4.551   2.013   5.496  1.7691 -0.3414  2.2528
22068SOL     OW72039   7.919  10.797   3.877  0.2808  0.1781  0.3303
22068SOL    HW172040   7.874  10.776   3.959 -1.1092  0.7133 -0.2670
22068SOL    HW272041   8.011  10.773   3.893  0.1083  0.5923  2.1494
22069SOL     OW72042   7.485   6.865   1.243  0.3737  0.1805 -0.3714
22069SOL    HW172043   7.397   6.899   1.223 -0.5035 -2.2296 -0.8799
22069SOL    HW272044   7.527   6.856   1.158  0.2842 -0.7648 -0.3200
22070SOL     OW72045   3.421   9.371   5.148 -0.4511  0.5277 -0.4823
22070SOL    HW172046   3.489   9.378   5.081  3.7118 -0.8405  3.1324
22070SOL    HW272047   3.396   9.279   5.148 -1.3243  0.7454 -0.8067
22071SOL     OW72048   2.474   7.367   6.423  0.1219 -0.5282 -0.4571
22071SOL    HW172049   2.510   7.376   6.335  1.2492 -0.3592  0.0153
22071SOL    HW272050   2.504   7.282   6.453  0.2070 -0.3454 -0.0209
22072SOL     OW72051   3.877  10.595   9.593 -0.1641  0.1518  0.5514
22072SOL    HW172052   3.928  10.608   9.512  0.7290  2.7117  1.4182
22072SOL    HW272053   3.932  10.539   9.647 -1.5991 -3.2354 -1.1965
22073SOL     OW72054   6.822   1.091   7.242 -0.0538  0.0989 -0.0932
22073SOL    HW172055   6.727   1.078   7.235  0.0885 -0.2760 -1.8432
22073SOL    HW272056   6.836   1.182   7.216 -0.0544  0.6764  1.7919
22074SOL     OW72057   4.325   3.890   6.213  0.0323 -0.4098 -0.0421
22074SOL    HW172058   4.381   3.813   6.224  0.6551 -0.1047 -0.9967
22074SOL    HW272059   4.319   3.927   6.301  0.1447 -1.2575  0.3345
22075SOL     OW72060   4.579   5.480   2.119 -0.1345  0.2405 -0.1829
22075SOL    HW172061   4.626   5.444   2.193  0.9946 -0.4043 -1.1730
22075SOL    HW272062   4.641   5.540   2.078 -0.5935  0.2959 -0.8129
22076SOL     OW72063   8.711   3.028   2.714 -0.1639 -0.4486  0.3042
22076SOL    HW172064   8.759   3.110   2.707 -0.7281 -0.1054  0.3259
22076SOL    HW272065   8.742   2.988   2.795  0.6321 -0.6039 -0.0758
22077SOL     OW72066   1.900   1.238   8.064  0.1279 -0.3849 -0.4030
22077SOL    HW172067   1.995   1.238   8.077  0.1019 -1.5587 -0.1104
22077SOL    HW272068   1.888   1.275   7.976  0.7494  1.0652  0.0986
22078SOL     OW72069   3.999   9.116   1.952 -0.1594 -0.0051 -0.2481
22078SOL    HW172070   3.919   9.118   2.005  0.8948  0.2322  1.3797
22078SOL    HW272071   3.992   9.193   1.895 -0.5866  0.6261  0.6463
22079SOL     OW72072   4.888   5.432   1.969 -0.3744  0.0272  0.0671
22079SOL    HW172073   4.931   5.410   2.051 -0.7173  1.1289  0.5632
22079SOL    HW272074   4.937   5.506   1.935 -0.3848 -0.2652 -0.6062
22080SOL     OW72075   0.929   3.259   4.034  0.2204  0.2500  0.1042
22080SOL    HW172076   1.020   3.245   4.060 -0.0870 -0.1483  0.9988
22080SOL    HW272077   0.885   3.287   4.114 -0.8899 -1.5898  0.1803
22081SOL     OW72078   2.360   1.287   5.480 -0.6171  0.4446 -0.9294
22081SOL    HW172079   2.326   1.358   5.426  0.9253  1.4045 -0.7222
22081SOL    HW272080   2.405   1.331   5.552 -0.3849 -0.7679 -0.3020
22082SOL     OW72081   3.940   2.777   0.941 -0.4764 -0.4967 -0.0284
22082SOL    HW172082   3.881   2.723   0.993 -1.7269  0.8674  0.0122
22082SOL    HW272083   4.028   2.753   0.972 -1.0485 -1.7388  0.6993
22083SOL     OW72084   9.175   3.516   5.015  0.4798 -0.3392 -0.3627
22083SOL    HW172085   9.266   3.537   4.991  0.7008  0.9258  1.3333
22083SOL    HW272086   9.175   3.421   5.026  2.0689 -0.2263  1.1883
22084SOL     OW72087   9.212   6.197   8.499 -0.1468  0.2571 -0.5291
22084SOL    HW172088   9.226   6.103   8.485 -0.2518  0.4941 -2.6099
22084SOL    HW272089   9.196   6.232   8.411 -2.4131  1.8726  0.4298
22085SOL     OW72090   6.332   4.924  10.318 -0.2970  0.1557  0.6352
22085SOL    HW172091   6.398   4.912  10.250 -0.6095 -1.0311  0.5063
22085SOL    HW272092   6.265   4.858  10.298 -0.0480 -0.7344  2.4778
22086SOL     OW72093   0.056   3.251   3.424  0.2720 -0.1098  0.2775
22086SOL    HW172094   0.055   3.214   3.513 -1.7876 -0.5426  0.1407
22086SOL    HW272095   0.108   3.331   3.432  3.0263 -1.8465  1.0644
22087SOL     OW72096   7.380   6.488   0.181  0.6245  0.0193  0.4529
22087SOL    HW172097   7.423   6.414   0.137  0.4540 -0.6615  1.3905
22087SOL    HW272098   7.299   6.501   0.132  0.6922 -0.3704  0.2282
22088SOL     OW72099   1.726   5.693   2.159  0.1260 -0.2036 -0.0703
22088SOL    HW172100   1.743   5.670   2.068 -0.9920  1.9976 -0.9295
22088SOL    HW272101   1.772   5.776   2.172 -0.4295 -0.0528  1.0855
22089SOL     OW72102   6.841   5.460   2.652 -0.0363  0.0579  0.3277
22089SOL    HW172103   6.787   5.440   2.576 -2.2899 -1.0969  2.1053
22089SOL    HW272104   6.864   5.374   2.688  1.2435  0.5750  0.8244
22090SOL     OW72105   1.092   6.944   0.331 -0.6477 -0.9000  0.3515
22090SOL    HW172106   1.001   6.934   0.359 -0.4678 -2.1899  0.5045
22090SOL    HW272107   1.142   6.891   0.393  0.3167  0.4904  0.8078
22091SOL     OW72108  10.908   9.976   8.625  0.4966 -0.5876 -0.4565
22091SOL    HW172109  10.895  10.068   8.602  0.2947 -0.1722  1.1605
22091SOL    HW272110  10.964   9.941   8.556  2.2775  1.2878 -0.0510
22092SOL     OW72111   9.852   4.676   6.269  0.3936 -0.1066 -0.4901
22092SOL    HW172112   9.758   4.688   6.282  0.5581  1.6627 -0.6527
22092SOL    HW272113   9.859   4.622   6.190 -0.5535  3.0357 -2.9526
22093SOL     OW72114   0.948   3.633   2.721 -0.1297 -0.1743 -0.3437
22093SOL    HW172115   0.883   3.691   2.681  2.4518  2.8378 -0.5777
22093SOL    HW272116   0.963   3.670   2.808  0.4898 -1.4961  0.1413
22094SOL     OW72117   4.737   6.189   6.681  0.5795 -0.2192 -0.5685
22094SOL    HW172118   4.740   6.108   6.629  3.3864 -0.7846  0.2845
22094SOL    HW272119   4.685   6.167   6.758 -0.3459 -0.5690 -1.2740
22095SOL     OW72120   4.889   0.538   9.700 -0.2934  0.2152 -0.5395
22095SOL    HW172121   4.949   0.464   9.703  0.4354  0.5458 -3.5698
22095SOL    HW272122   4.941   0.612   9.731  0.4693  0.2216 -1.7497
22096SOL     OW72123   8.189   0.244   8.711  0.0548  0.0580 -0.2649
22096SOL    HW172124   8.220   0.197   8.788  0.8790 -1.7597 -1.6208
22096SOL    HW272125   8.094   0.227   8.710  0.4554 -2.6085 -1.2777
22097SOL     OW72126   7.101   2.485   9.744  0.0918  0.1096 -0.2375
22097SOL    HW172127   7.117   2.567   9.791 -0.2162  0.5561 -0.9074
22097SOL    HW272128   7.179   2.474   9.690  1.2628 -1.3029  1.6132
22098SOL     OW72129   0.591   2.147   5.698  0.8063 -0.5118  0.0369
22098SOL    HW172130   0.558   2.065   5.736 -0.8099 -1.0821 -2.3979
22098SOL    HW272131   0.683   2.150   5.725  0.5094 -2.3170  1.5005
22099SOL     OW72132   2.879   4.821   2.004 -0.3444 -0.8001  0.0944
22099SOL    HW172133   2.878   4.752   1.937  0.0097  0.5410 -1.3472
22099SOL    HW272134   2.919   4.779   2.080 -1.8674 -2.7384 -0.0653
22100SOL     OW72135   1.326   6.144   1.009 -0.0713  0.2379  0.1837
22100SOL    HW172136   1.368   6.212   1.062 -0.1520  0.2212  0.2711
22100SOL    HW272137   1.232   6.157   1.025 -0.0746 -0.1048  0.4626
22101SOL     OW72138   3.359   2.491   4.898  0.5077 -0.0787 -0.2026
22101SOL    HW172139   3.308   2.411   4.900 -0.4266  0.5038  0.1439
22101SOL    HW272140   3.449   2.463   4.916  0.4348 -1.2019 -1.4884
22102SOL     OW72141  10.460   6.027   1.443  0.6332  0.0421  0.0479
22102SOL    HW172142  10.531   5.963   1.444  0.7739  0.2028  0.9707
22102SOL    HW272143  10.497   6.105   1.485 -0.5902 -0.4514  2.1986
22103SOL     OW72144   0.485   8.528   9.459 -0.5749  0.0635  0.1415
22103SOL    HW172145   0.560   8.584   9.479  0.0416 -0.7577  0.2163
22103SOL    HW272146   0.420   8.587   9.422 -0.2292  0.9477  0.9024
22104SOL     OW72147  10.576   6.297   4.477 -0.0556  0.4504 -0.1416
22104SOL    HW172148  10.594   6.259   4.391 -0.5454  0.6862 -0.3515
22104SOL    HW272149  10.571   6.222   4.536  1.0724  0.3370 -0.1645
22105SOL     OW72150   8.851   5.242   8.927 -0.3765  0.0104  0.1965
22105SOL    HW172151   8.794   5.291   8.867 -1.1662  0.6409  1.4214
22105SOL    HW272152   8.922   5.303   8.948  1.2271 -1.0162 -1.8899
22106SOL     OW72153  10.191   8.399   8.364  0.3460 -0.0537 -0.4653
22106SOL    HW172154  10.164   8.377   8.274 -1.0229 -1.3297  0.2043
22106SOL    HW272155  10.246   8.326   8.391  0.3092  0.0543 -0.0944
22107SOL     OW72156   3.167   8.312   1.840 -0.4916  0.3508 -0.2025
22107SOL    HW172157   3.228   8.252   1.882 -1.7850  0.0577  1.3704
22107SOL    HW272158   3.202   8.325   1.752  1.6265 -0.0412  0.5312
22108SOL     OW72159   4.350   0.085   3.199 -0.3155  0.3605  0.5425
22108SOL    HW172160   4.367   0.002   3.243 -1.6731 -0.3840 -0.2795
22108SOL    HW272161   4.260   0.077   3.167 -0.7347  2.4189  1.0562
22109SOL     OW72162   4.868   3.632   8.705  0.0085 -0.3006 -0.5262
22109SOL    HW172163   4.848   3.660   8.794 -1.7049  0.1461 -1.0157
22109SOL    HW272164   4.961   3.610   8.707 -0.3843 -2.2198  1.8680
22110SOL     OW72165   7.692   1.120   5.352  0.1057  0.4398  0.3763
22110SOL    HW172166   7.786   1.120   5.336  0.1582  1.9623  0.5726
22110SOL    HW272167   7.653   1.091   5.270  0.6993  1.0767 -0.1361
22111SOL     OW72168   0.507  10.491   8.321 -0.0263 -0.1382 -0.0268
22111SOL    HW172169   0.575  10.488   8.388 -0.1209 -2.0221  0.0357
22111SOL    HW272170   0.438  10.434   8.355 -0.2843 -0.7428 -1.4871
22112SOL     OW72171   4.325   5.902   9.862 -0.5487 -0.0666 -0.4790
22112SOL    HW172172   4.274   5.981   9.878 -1.9668 -1.1677  0.6532
22112SOL    HW272173   4.271   5.850   9.803 -0.4638 -0.9612  0.2108
22113SOL     OW72174   7.234   3.758   1.559  0.6865 -0.2670 -0.6527
22113SOL    HW172175   7.185   3.783   1.481 -0.1419  2.1898  0.5681
22113SOL    HW272176   7.221   3.830   1.620  1.4859 -2.0013  1.7091
22114SOL     OW72177   1.666  10.825   6.487  0.5551  0.1659  0.1067
22114SOL    HW172178   1.595  10.888   6.476  0.9116  0.4136 -0.8229
22114SOL    HW272179   1.709  10.821   6.402  0.3018 -1.6410  0.0101
22115SOL     OW72180   7.193   1.034   5.730 -0.4535  0.2014  0.7675
22115SOL    HW172181   7.270   1.082   5.699 -0.1698 -0.8355 -0.1858
22115SOL    HW272182   7.123   1.058   5.669 -1.1705  1.8544  2.1602
22116SOL     OW72183   7.476   2.066   4.767 -0.3501 -0.2051 -0.0032
22116SOL    HW172184   7.406   2.086   4.706 -1.1166  1.6938  1.4115
22116SOL    HW272185   7.444   1.991   4.817 -1.0590  0.1985  0.1527
22117SOL     OW72186   4.218   5.141   2.226  0.0103 -0.2347 -0.3245
22117SOL    HW172187   4.156   5.100   2.167  1.5438 -0.9366 -1.5192
22117SOL    HW272188   4.304   5.118   2.191  1.0199 -0.9788  2.3714
22118SOL     OW72189   9.347   5.552   5.744 -0.0136 -0.0912  0.3482
22118SOL    HW172190   9.344   5.607   5.822 -0.5210 -1.1360  1.0819
22118SOL    HW272191   9.390   5.471   5.773 -0.2821 -0.5262 -0.4332
22119SOL     OW72192   6.835   1.239   6.040 -0.1918  0.2363  0.0738
22119SOL    HW172193   6.903   1.226   5.973  0.9801 -1.1479  1.4555
22119SOL    HW272194   6.883   1.271   6.116 -1.2825  0.4244  0.6917
22120SOL     OW72195  10.403   5.441   9.612 -0.1748 -0.6409 -0.5846
22120SOL    HW172196  10.382   5.534   9.606 -0.5815 -0.7347 -0.6018
22120SOL    HW272197  10.475   5.429   9.550 -0.0259 -0.3093 -0.4755
22121SOL     OW72198   4.909   8.455   8.447  0.0136  0.6203 -0.0432
22121SOL    HW172199   5.004   8.457   8.437  0.2135 -1.2710  1.1242
22121SOL    HW272200   4.882   8.372   8.409 -0.8138 -0.1431  2.0735
22122SOL     OW72201   5.245   1.854   2.216  0.8351 -0.1927  0.1492
22122SOL    HW172202   5.156   1.890   2.221  0.9052  0.1794 -0.9332
22122SOL    HW272203   5.278   1.857   2.306 -0.3305 -0.5648  0.5995
22123SOL     OW72204   9.523   5.566   5.996 -0.3758  0.1107 -0.1955
22123SOL    HW172205   9.573   5.647   6.008  0.7656 -0.6980  0.7519
22123SOL    HW272206   9.579   5.511   5.941 -0.8246 -0.3098 -0.2356
22124SOL     OW72207   6.378   3.887   2.900  0.4153 -0.3454 -0.3823
22124SOL    HW172208   6.335   3.804   2.878  0.5030 -0.6822  0.6793
22124SOL    HW272209   6.307   3.944   2.930  0.6483 -0.8574  1.2410
22125SOL     OW72210   1.336   8.716   6.460 -0.4023  0.2411 -0.2758
22125SOL    HW172211   1.248   8.751   6.475  0.4513  1.9185  1.0967
22125SOL    HW272212   1.350   8.656   6.533 -0.7690 -0.8534 -1.0732
22126SOL     OW72213   7.462   1.477   0.147 -0.0732  0.2787 -0.4411
22126SOL    HW172214   7.400   1.485   0.074  0.3579 -0.7961 -0.9533
22126SOL    HW272215   7.431   1.400   0.196  0.3984  0.2045 -0.2507
22127SOL     OW72216   5.083   2.969   1.839 -0.3622  0.1919  0.3460
22127SOL    HW172217   5.125   2.954   1.924 -2.5259  1.8156  1.8137
22127SOL    HW272218   5.010   2.906   1.837 -1.5425  1.5114  0.6416
22128SOL     OW72219   2.972   2.939   8.818  0.2443 -0.5779 -0.5997
22128SOL    HW172220   2.961   2.971   8.729 -2.1447 -0.8337 -0.4655
22128SOL    HW272221   2.961   2.844   8.811 -2.1669 -0.4236  0.1758
22129SOL     OW72222   6.855   0.819   7.551 -0.0220  0.0644  0.0584
22129SOL    HW172223   6.882   0.741   7.599  0.0115 -0.2067 -0.3860
22129SOL    HW272224   6.937   0.864   7.529  0.0635 -0.5220 -0.9000
22130SOL     OW72225   5.514   3.851   8.641  0.2493  0.8760 -0.5531
22130SOL    HW172226   5.477   3.770   8.606  1.5521  0.3605 -0.8159
22130SOL    HW272227   5.540   3.830   8.731  0.1081  1.1606 -0.4428
22131SOL     OW72228   9.650  10.175   6.997 -0.0548 -0.2116  0.4457
22131SOL    HW172229   9.567  10.210   7.027 -0.3847 -1.9855  1.7538
22131SOL    HW272230   9.642  10.172   6.901 -0.6350  1.6145  0.4077
22132SOL     OW72231   3.544   4.330   4.293  0.5380  0.8191  0.4256
22132SOL    HW172232   3.590   4.346   4.376 -1.1282  1.2718  1.2885
22132SOL    HW272233   3.604   4.365   4.227  1.3125  1.7158  1.5400
22133SOL     OW72234   3.443   6.697   2.271  0.6247  0.0780  0.0682
22133SOL    HW172235   3.381   6.702   2.199  1.3299  1.1413 -0.5092
22133SOL    HW272236   3.468   6.788   2.287  1.5250 -0.2644  0.7237
22134SOL     OW72237   0.047   9.874   4.762  0.2542 -0.1046 -0.3975
22134SOL    HW172238   0.097   9.809   4.811  1.3960  1.5267  0.7070
22134SOL    HW272239   0.071   9.858   4.671  1.5809 -0.3817 -0.0216
22135SOL     OW72240  10.390   8.665   7.939 -0.6202  0.0171 -0.4631
22135SOL    HW172241  10.300   8.694   7.953 -0.6847 -0.0157 -0.8080
22135SOL    HW272242  10.414   8.701   7.854 -0.7739 -1.1035 -1.0035
22136SOL     OW72243   6.937   1.144   0.244  0.4124  0.1192  0.4996
22136SOL    HW172244   7.012   1.187   0.203 -0.5144  1.6723  0.3455
22136SOL    HW272245   6.881   1.118   0.171  0.1648  0.1895  0.6648
22137SOL     OW72246   2.032   9.192   8.141 -0.1051 -0.2974 -0.6911
22137SOL    HW172247   2.065   9.219   8.055 -2.1963 -0.1733 -1.4923
22137SOL    HW272248   2.025   9.273   8.191 -1.0636 -0.0577 -1.1980
22138SOL     OW72249   4.983  10.001   7.355 -0.3208 -0.0313  0.3840
22138SOL    HW172250   4.911  10.035   7.409 -0.1951 -0.3795  0.7848
22138SOL    HW272251   5.048   9.972   7.419 -0.2405 -0.6044  0.0477
22139SOL     OW72252   0.227  10.434   3.859  0.1093  0.1891  0.5234
22139SOL    HW172253   0.237  10.422   3.764  0.4279  0.9949  0.4405
22139SOL    HW272254   0.146  10.390   3.881  0.7150 -1.1786  0.1024
22140SOL     OW72255   4.545   1.073   1.737 -0.3580  0.1285  0.2054
22140SOL    HW172256   4.596   1.147   1.769 -1.8612  0.6416  1.5627
22140SOL    HW272257   4.458   1.086   1.775 -1.4583 -0.8279 -1.8047
22141SOL     OW72258   5.962   3.988   8.564  0.2927  1.0617  0.4291
22141SOL    HW172259   5.967   3.950   8.652 -0.1865  0.3151  0.1479
22141SOL    HW272260   5.909   4.066   8.574 -0.6910  0.3825  0.6193
22142SOL     OW72261   9.561   8.544   9.510  0.4743  0.7314  0.1717
22142SOL    HW172262   9.507   8.501   9.444  0.6065 -1.9889  1.6855
22142SOL    HW272263   9.639   8.574   9.463  0.4818 -0.9740 -0.9720
22143SOL     OW72264   1.991   5.110   8.871 -0.1094  0.3074  0.0338
22143SOL    HW172265   1.984   5.205   8.883 -0.8803  0.3267 -0.5349
22143SOL    HW272266   1.999   5.098   8.776 -2.9138 -0.3367 -0.2059
22144SOL     OW72267   3.941   9.916   6.731 -0.4803 -0.8064 -0.1037
22144SOL    HW172268   3.923  10.008   6.710  0.9204 -0.6395 -0.6692
22144SOL    HW272269   3.892   9.866   6.665  0.9154 -0.3732 -1.5273
22145SOL     OW72270  10.673   5.309   1.703 -0.4610  0.0272  0.2250
22145SOL    HW172271  10.606   5.279   1.764 -0.7017  1.0975  0.5063
22145SOL    HW272272  10.722   5.375   1.752 -0.1488  0.3225 -0.4728
22146SOL     OW72273   3.816   7.470   0.254  0.3738 -0.0291 -0.5218
22146SOL    HW172274   3.823   7.552   0.303 -0.6287  0.8759 -1.8151
22146SOL    HW272275   3.741   7.425   0.293  0.9098 -0.3375  0.1720
22147SOL     OW72276   8.705   8.814   5.763  0.2350 -0.0965 -0.0293
22147SOL    HW172277   8.706   8.905   5.791  0.8460  0.6123 -2.1792
22147SOL    HW272278   8.660   8.815   5.679  0.1448 -1.8040 -0.0311
22148SOL     OW72279   4.863   5.126   6.761 -0.3330  0.7812 -0.1347
22148SOL    HW172280   4.930   5.116   6.694 -1.5511  0.2737 -1.3241
22148SOL    HW272281   4.781   5.106   6.716 -1.1364 -0.2228  1.6751
22149SOL     OW72282   6.340   1.974   1.170 -0.7297  0.1631 -0.0558
22149SOL    HW172283   6.341   1.984   1.265  0.8780  0.7409 -0.1087
22149SOL    HW272284   6.249   1.953   1.149 -0.8366 -1.4378  1.7459
22150SOL     OW72285   5.903   7.834   6.566  0.2736 -0.3083  0.3013
22150SOL    HW172286   5.982   7.881   6.594  0.6991 -1.1077  0.4722
22150SOL    HW272287   5.862   7.893   6.502 -0.0033  0.9522  1.5929
22151SOL     OW72288   8.329  10.576   2.566 -0.1486 -0.0116 -0.1752
22151SOL    HW172289   8.269  10.510   2.532 -1.8090  0.4453  1.6643
22151SOL    HW272290   8.275  10.655   2.576  1.0862  0.7973  0.2942
22152SOL     OW72291   3.389   5.892   5.499 -0.1702 -0.4873  0.0965
22152SOL    HW172292   3.390   5.800   5.472 -0.2548 -0.5274  0.2296
22152SOL    HW272293   3.444   5.936   5.435  0.4752 -0.7518  0.4601
22153SOL     OW72294   7.561   9.096  10.541  0.2796  0.3078 -0.2176
22153SOL    HW172295   7.614   9.071  10.616  0.4771  0.7105 -0.2175
22153SOL    HW272296   7.499   9.160  10.575 -0.4120 -0.3792 -0.1557
22154SOL     OW72297   0.381   1.318   8.782 -0.5270 -0.1396  0.2973
22154SOL    HW172298   0.415   1.249   8.725  0.5083 -0.7068  1.5494
22154SOL    HW272299   0.286   1.306   8.781 -0.4240 -0.9467 -0.2724
22155SOL     OW72300   1.609  10.290   0.681  0.3214 -0.5835  0.0241
22155SOL    HW172301   1.527  10.338   0.668  1.3280  0.9223 -1.0647
22155SOL    HW272302   1.649  10.332   0.757  0.9109 -0.0966 -0.5456
22156SOL     OW72303   7.355   2.422   0.482 -0.0823  0.2806  0.4907
22156SOL    HW172304   7.360   2.517   0.488  1.5133  0.2520  0.2733
22156SOL    HW272305   7.304   2.405   0.403 -0.5105  0.9470  0.6210
22157SOL     OW72306   5.778   7.631  10.783  0.3255 -0.5121  0.1172
22157SOL    HW172307   5.795   7.563  10.848 -0.7911 -0.4763  0.4695
22157SOL    HW272308   5.785   7.586  10.699  1.2878 -0.6697  0.2775
22158SOL     OW72309   1.666   2.542   7.919  0.1313 -0.1747  0.1110
22158SOL    HW172310   1.603   2.541   7.991 -0.4243  0.9504 -0.3285
22158SOL    HW272311   1.669   2.634   7.891 -0.7407 -0.7850 -2.2124
22159SOL     OW72312   0.703   0.846   9.848  0.3627 -0.0514 -0.0508
22159SOL    HW172313   0.747   0.858   9.764  0.0418  0.6823 -0.1150
22159SOL    HW272314   0.625   0.794   9.827 -0.6301  1.5416 -0.5069
22160SOL     OW72315   3.426   2.156   2.731 -0.2369 -0.3775  0.4791
22160SOL    HW172316   3.362   2.228   2.733  0.5254  0.2885  1.8173
22160SOL    HW272317   3.492   2.185   2.668  0.5787  0.5694  1.7397
22161SOL     OW72318  10.141  10.353  10.421  0.6560 -0.2494  0.5393
22161SOL    HW172319  10.172  10.295  10.490 -1.9429 -0.2435  1.8007
22161SOL    HW272320  10.066  10.398  10.458  0.9454  1.9835 -1.3201
22162SOL     OW72321   3.679   9.930   0.970 -0.8044  0.1566 -0.5353
22162SOL    HW172322   3.584   9.918   0.965 -1.4053  4.1066 -2.1573
22162SOL    HW272323   3.693   9.971   1.056 -0.5083 -0.6302 -0.2019
22163SOL     OW72324   5.878   5.880   4.991  0.4139 -0.3099 -0.6521
22163SOL    HW172325   5.969   5.866   5.017  0.4212  0.6703 -0.1062
22163SOL    HW272326   5.830   5.808   5.032  0.3981  1.2750  2.3250
22164SOL     OW72327   7.031   8.351  10.668  0.4847 -0.1474 -0.1027
22164SOL    HW172328   6.996   8.426  10.620  0.5627 -0.3923 -0.5521
22164SOL    HW272329   6.964   8.331  10.733  0.4567  0.3011  0.0111
22165SOL     OW72330   8.198   7.580   7.307 -0.5980 -0.1055  0.2815
22165SOL    HW172331   8.158   7.499   7.340 -0.0014 -0.6713 -0.3514
22165SOL    HW272332   8.210   7.564   7.213  1.1457  0.0264  0.4577
22166SOL     OW72333  10.550   3.303  10.130  0.0886 -0.0905  0.2080
22166SOL    HW172334  10.587   3.223  10.168  0.9581 -0.6508 -1.6492
22166SOL    HW272335  10.598   3.374  10.172  0.7949 -0.6578  0.3964
22167SOL     OW72336   4.390   1.724   8.778 -0.2062 -0.2860 -0.2373
22167SOL    HW172337   4.462   1.728   8.841 -1.0192 -0.6128  0.7364
22167SOL    HW272338   4.312   1.745   8.830 -0.8662 -0.3398 -1.1900
22168SOL     OW72339   4.011   0.443   8.768  0.2759 -0.1883  0.2184
22168SOL    HW172340   4.008   0.434   8.673 -0.1062 -0.3295  0.2419
22168SOL    HW272341   3.947   0.379   8.800  0.3359 -0.0761  0.5680
22169SOL     OW72342   3.225   0.874   0.303  0.6249 -0.2175 -0.0240
22169SOL    HW172343   3.151   0.901   0.248 -0.1690 -1.1015  0.5634
22169SOL    HW272344   3.283   0.950   0.304 -0.9785  1.0806  0.6755
22170SOL     OW72345   0.863   3.162   9.983 -0.1222 -0.2038  0.3806
22170SOL    HW172346   0.773   3.154  10.013 -0.2549  0.3503  0.1602
22170SOL    HW272347   0.866   3.112   9.901  0.0251 -1.0173  0.8725
22171SOL     OW72348   5.229   4.257   6.400  0.5465  0.4232 -0.1341
22171SOL    HW172349   5.153   4.263   6.459  1.2126 -0.1928  0.8233
22171SOL    HW272350   5.305   4.261   6.458  1.2242 -0.6086 -0.9086
22172SOL     OW72351   9.974   0.493   5.040  0.0308  0.4882 -0.3610
22172SOL    HW172352   9.972   0.581   5.078  3.0051 -0.3943  2.3152
22172SOL    HW272353  10.063   0.486   5.003  0.0686 -1.5868  0.0394
22173SOL     OW72354   9.208   0.073   7.158  0.2904 -0.1674  0.0312
22173SOL    HW172355   9.195   0.062   7.064 -0.3119 -2.0538  0.3032
22173SOL    HW272356   9.245  -0.010   7.188 -2.1787 -0.7034  1.9067
22174SOL     OW72357   1.980   8.456   4.017 -0.2896  1.1563 -1.2239
22174SOL    HW172358   2.050   8.520   4.031  0.0202  0.3140  1.8908
22174SOL    HW272359   2.025   8.371   4.020 -1.4137  0.5592  1.6636
22175SOL     OW72360   1.060   8.974   0.716  0.7147 -0.3359  0.3265
22175SOL    HW172361   1.140   9.009   0.755  0.6088 -1.2553  1.4312
22175SOL    HW272362   1.008   9.051   0.694  1.6029  0.2520  0.2300
22176SOL     OW72363   1.811   6.345   9.529  0.4702 -0.0358 -0.1740
22176SOL    HW172364   1.768   6.303   9.455 -1.1907  0.3396  0.5297
22176SOL    HW272365   1.892   6.295   9.542  0.4526 -0.5293 -1.7786
22177SOL     OW72366   2.210   0.716   9.827  1.1193  0.5092  0.0195
22177SOL    HW172367   2.122   0.708   9.864  0.2918 -0.0778 -1.9448
22177SOL    HW272368   2.203   0.787   9.763  1.8985  0.0425 -0.6082
22178SOL     OW72369   9.562   1.769   6.782  0.1565 -0.3804  0.3725
22178SOL    HW172370   9.536   1.683   6.814 -1.4112 -0.8962 -2.0408
22178SOL    HW272371   9.585   1.755   6.691  0.7661  1.6257  0.1623
22179SOL     OW72372   0.853  10.250   2.911  0.0828  0.0143  0.4706
22179SOL    HW172373   0.943  10.232   2.884  0.3583  1.5075  0.2608
22179SOL    HW272374   0.827  10.324   2.856 -0.6681  0.6956  1.6884
22180SOL     OW72375   5.804   2.686   7.010  0.7879  0.1243  0.0259
22180SOL    HW172376   5.856   2.612   7.040  0.0573 -0.7017 -0.7063
22180SOL    HW272377   5.757   2.716   7.088  2.7652  1.2742  0.8452
22181SOL     OW72378  10.243   4.620   8.264 -0.3472 -0.3728 -0.1844
22181SOL    HW172379  10.162   4.573   8.243 -1.2502  0.6718  0.7974
22181SOL    HW272380  10.247   4.619   8.360  1.1029 -0.8605 -0.2196
22182SOL     OW72381   8.897   5.321   7.505 -0.3761  0.2440  0.1626
22182SOL    HW172382   8.804   5.301   7.504 -0.1363 -1.1111  1.4127
22182SOL    HW272383   8.908   5.380   7.580  0.1424 -2.0899  2.0784
22183SOL     OW72384   1.088   2.935   2.703 -0.0291  0.5680  0.6183
22183SOL    HW172385   1.126   2.996   2.766  0.8025  0.4599  0.2303
22183SOL    HW272386   1.090   2.850   2.748  0.1022  0.5774  0.6292
22184SOL     OW72387   5.747   8.447   4.285 -0.6975 -0.1859  0.2404
22184SOL    HW172388   5.656   8.418   4.286 -1.0937  1.0284  0.8389
22184SOL    HW272389   5.780   8.426   4.372 -0.2617 -1.0192 -0.1152
22185SOL     OW72390   1.026   0.792   2.747 -0.0379 -0.2582  0.3501
22185SOL    HW172391   1.068   0.813   2.664  0.2534  0.4380  0.6666
22185SOL    HW272392   0.933   0.811   2.733  0.0013 -0.2092  0.1639
22186SOL     OW72393   1.862   6.504   0.832 -0.6025 -0.2486  0.1452
22186SOL    HW172394   1.890   6.540   0.916  1.8607  1.5467 -1.3213
22186SOL    HW272395   1.791   6.444   0.854 -1.7380  1.9915  3.2520
22187SOL     OW72396   7.257   0.852   0.992 -1.2405 -0.0968  0.5067
22187SOL    HW172397   7.292   0.921   0.936 -2.8880 -0.3146 -0.8938
22187SOL    HW272398   7.332   0.795   1.009 -0.2750  1.0201  0.1259
22188SOL     OW72399   3.140   7.244   7.198 -0.3762  0.1119  0.5331
22188SOL    HW172400   3.190   7.210   7.273 -0.6273 -0.4562  0.4498
22188SOL    HW272401   3.050   7.252   7.232 -0.7832 -1.4263 -0.0593
22189SOL     OW72402  10.428   4.810   6.198 -0.2620  0.1673 -0.2233
22189SOL    HW172403  10.337   4.811   6.169 -0.3242 -1.4226 -0.1561
22189SOL    HW272404  10.423   4.809   6.293 -0.2849 -2.3333 -0.1910
22190SOL     OW72405   4.987   2.274   6.384  0.2884  0.3266 -0.0399
22190SOL    HW172406   5.027   2.193   6.414  0.7221  0.7227  0.4741
22190SOL    HW272407   4.948   2.252   6.299 -0.4797 -0.6668  0.5511
22191SOL     OW72408   0.054   5.233   0.313  0.1955  0.0559  0.2442
22191SOL    HW172409  -0.020   5.286   0.343 -0.1694 -0.1089 -0.3525
22191SOL    HW272410   0.041   5.148   0.356 -1.8050 -1.0714 -2.3233
22192SOL     OW72411   6.264   6.241   3.285  0.3435  0.1893  0.0519
22192SOL    HW172412   6.324   6.304   3.324  1.5578 -1.5082  1.0490
22192SOL    HW272413   6.204   6.217   3.356 -0.6889  0.8547 -0.5643
22193SOL     OW72414   7.865   9.348   5.557 -0.5738  0.5395  0.4815
22193SOL    HW172415   7.841   9.337   5.465  1.9103 -1.4054 -0.0475
22193SOL    HW272416   7.894   9.439   5.563 -1.3385  0.8682 -0.4986
22194SOL     OW72417   1.595   0.631   6.126 -0.3599  0.0443  0.4991
22194SOL    HW172418   1.638   0.618   6.041 -1.3685  0.6673 -0.1257
22194SOL    HW272419   1.667   0.639   6.188  0.3915 -1.6834 -0.0789
22195SOL     OW72420   1.471   4.567   5.670 -0.8955 -0.0245  0.0805
22195SOL    HW172421   1.496   4.475   5.660  0.2890  0.4305 -1.5929
22195SOL    HW272422   1.554   4.612   5.685 -1.1028  1.0643 -1.7593
22196SOL     OW72423   3.412   9.171   9.334 -0.5730  0.7650  0.3047
22196SOL    HW172424   3.447   9.179   9.423 -1.4267 -1.6327  0.9217
22196SOL    HW272425   3.490   9.178   9.278  0.5798 -1.3172  1.4846
22197SOL     OW72426   6.565   4.467   6.441  0.1518  0.2540 -0.1153
22197SOL    HW172427   6.592   4.460   6.533  0.0564  0.3678 -0.0781
22197SOL    HW272428   6.478   4.427   6.438  0.5617 -0.6376 -0.3476
22198SOL     OW72429   0.137   6.906   3.978  0.3736 -0.5211  0.3724
22198SOL    HW172430   0.188   6.864   4.048  0.2717 -1.8472 -0.3112
22198SOL    HW272431   0.180   6.990   3.965  0.4517 -0.2793  1.9676
22199SOL     OW72432   7.957   3.528   6.597 -0.1485 -0.3234 -0.0047
22199SOL    HW172433   7.922   3.617   6.599  0.5236  0.0012 -1.2035
22199SOL    HW272434   8.052   3.540   6.598 -0.0448 -1.1100  1.4370
22200SOL     OW72435   1.695   1.235  10.323  0.2589  0.3400  0.0435
22200SOL    HW172436   1.754   1.310  10.314 -0.8552  1.0576 -1.5091
22200SOL    HW272437   1.754   1.159  10.328  1.3517  1.1797  0.3556
22201SOL     OW72438  10.398   4.322   9.036  0.2351 -0.4322 -0.2841
22201SOL    HW172439  10.401   4.247   9.095 -0.3104  0.1445  0.5109
22201SOL    HW272440  10.312   4.363   9.054  1.0910  1.1938  0.3637
22202SOL     OW72441   1.859   7.009   9.567  0.8158  0.0255 -0.4950
22202SOL    HW172442   1.925   7.076   9.585  0.8359  0.0020 -0.4793
22202SOL    HW272443   1.854   6.958   9.648 -0.7166  1.2925  0.2594
22203SOL     OW72444   6.025  10.793   6.819 -0.1987 -0.1362  0.3049
22203SOL    HW172445   5.971  10.750   6.885 -0.9742  0.7136  0.2399
22203SOL    HW272446   6.053  10.723   6.761 -1.3486 -0.5695  0.2659
22204SOL     OW72447   8.822   2.362   3.818  0.0277 -0.0048  0.6822
22204SOL    HW172448   8.869   2.300   3.873  2.1493  1.3355  0.4878
22204SOL    HW272449   8.837   2.331   3.729 -1.1232 -0.6418  0.6895
22205SOL     OW72450   6.828   5.121   0.563 -0.0124  0.8514 -0.1210
22205SOL    HW172451   6.798   5.170   0.639 -1.2367 -1.4666  0.9967
22205SOL    HW272452   6.758   5.130   0.499  0.8178  2.4230 -0.8783
22206SOL     OW72453   6.070   5.538   4.545  0.1435  0.9314  0.2442
22206SOL    HW172454   6.108   5.466   4.494 -0.1052  0.5925  0.5305
22206SOL    HW272455   6.000   5.497   4.596 -1.0350  1.6544 -0.7339
22207SOL     OW72456   2.068   9.293   2.380  0.0317  0.2682  0.1975
22207SOL    HW172457   2.029   9.231   2.442  0.1902  1.1427  1.1991
22207SOL    HW272458   2.050   9.379   2.417 -0.9182  0.9070 -1.5812
22208SOL     OW72459  10.759   8.809   5.610  0.5297 -0.4529  0.6474
22208SOL    HW172460  10.849   8.830   5.587  0.0365 -2.2137 -4.0169
22208SOL    HW272461  10.766   8.731   5.665  2.0188 -2.4708 -2.1455
22209SOL     OW72462   5.845   9.806   6.475 -0.0462  0.5948  0.1440
22209SOL    HW172463   5.771   9.748   6.493 -1.4900  1.7109 -1.7033
22209SOL    HW272464   5.888   9.768   6.399  0.4910  0.6363  0.4256
22210SOL     OW72465   9.438  10.745  10.818  0.2089 -0.1003  0.0419
22210SOL    HW172466   9.492  10.734  10.896 -0.3991 -1.2133  0.3242
22210SOL    HW272467   9.348  10.750  10.850 -0.0148 -0.0960 -0.5578
22211SOL     OW72468   9.249   0.792   3.574 -0.4531  0.2954  0.2406
22211SOL    HW172469   9.228   0.783   3.481  0.4621  0.6669 -0.0117
22211SOL    HW272470   9.178   0.846   3.610 -0.4072  0.7960 -0.4088
22212SOL     OW72471   6.695   3.377   7.514  0.2037 -0.4878 -0.0420
22212SOL    HW172472   6.789   3.368   7.526  0.5377  1.1056 -1.2235
22212SOL    HW272473   6.666   3.430   7.588  0.2433 -0.8478  0.2355
22213SOL     OW72474   7.122   6.380   1.456 -0.5143  0.4420 -0.2523
22213SOL    HW172475   7.140   6.376   1.362  0.7625 -1.0172  0.0131
22213SOL    HW272476   7.047   6.322   1.469  1.3339 -1.9929  0.0173
22214SOL     OW72477   2.624   7.821   4.604  0.2463  0.0565  0.4089
22214SOL    HW172478   2.531   7.818   4.626  0.4912 -0.0689  1.5067
22214SOL    HW272479   2.668   7.806   4.688  1.2665  1.5312  0.1669
22215SOL     OW72480   8.617   3.196   5.610  0.3938  0.4655  0.0710
22215SOL    HW172481   8.595   3.215   5.701 -1.1221  1.7931 -0.5306
22215SOL    HW272482   8.677   3.121   5.615 -3.1173 -2.5195  1.9661
22216SOL     OW72483  10.501   7.708   0.466 -0.7350  0.2014  0.8788
22216SOL    HW172484  10.579   7.656   0.488 -0.2606  0.1852 -0.7681
22216SOL    HW272485  10.429   7.663   0.512 -0.4822 -2.4543 -1.0677
22217SOL     OW72486   4.101   3.299   9.548 -0.0719 -0.6015  0.0212
22217SOL    HW172487   4.098   3.387   9.510  0.4163 -0.9295 -0.7860
22217SOL    HW272488   4.018   3.291   9.595 -0.9795 -0.4175 -1.4997
22218SOL     OW72489   7.534  10.087   4.707 -0.3618  0.5744 -0.0165
22218SOL    HW172490   7.542   9.999   4.745 -1.7326  0.5144  0.1829
22218SOL    HW272491   7.584  10.083   4.626 -0.4876 -0.4223 -0.0578
22219SOL     OW72492   7.143   6.204   8.174  0.7101  1.1006  0.1614
22219SOL    HW172493   7.138   6.109   8.180 -0.8506  1.1466  0.1409
22219SOL    HW272494   7.057   6.230   8.141  1.1658  2.5110  0.0084
22220SOL     OW72495   5.835   2.866   3.796 -0.3450  0.9438 -0.1900
22220SOL    HW172496   5.868   2.944   3.842 -1.1839  0.9488  0.4399
22220SOL    HW272497   5.888   2.860   3.717  0.5577  1.4469  0.3643
22221SOL     OW72498   1.165   5.320   1.999  0.0643 -0.2360 -0.3763
22221SOL    HW172499   1.227   5.305   2.070  1.8020  0.4080 -1.7048
22221SOL    HW272500   1.167   5.240   1.947  0.9404  0.3450 -1.2592
22222SOL     OW72501   0.481   8.474  10.356  0.0385  0.6532 -0.6742
22222SOL    HW172502   0.573   8.502  10.363  0.8087 -1.3654 -1.8621
22222SOL    HW272503   0.474   8.438  10.268 -1.0397 -2.0438  0.4217
22223SOL     OW72504   9.553   3.773   6.651 -0.2205 -0.0886  0.2405
22223SOL    HW172505   9.644   3.744   6.661 -0.1738  0.2252  0.8041
22223SOL    HW272506   9.534   3.761   6.558  0.2012 -0.7214  0.2289
22224SOL     OW72507   0.919   6.721   4.616 -0.2822 -0.6860 -0.9161
22224SOL    HW172508   0.938   6.805   4.575 -0.9756 -0.9632 -1.8331
22224SOL    HW272509   0.924   6.658   4.545  2.4218 -1.7830  0.1255
22225SOL     OW72510   3.948   2.938   9.583 -0.0508 -0.2016 -0.2600
22225SOL    HW172511   3.906   3.024   9.583  0.7500  0.1921 -0.2803
22225SOL    HW272512   3.875   2.876   9.580 -0.6844  0.4446  0.9459
22226SOL     OW72513   4.431   0.205   2.683  0.7367 -0.5589 -0.1187
22226SOL    HW172514   4.451   0.235   2.772 -1.7518 -0.5541  0.5181
22226SOL    HW272515   4.443   0.110   2.687 -0.3734 -0.6905  0.5621
22227SOL     OW72516   2.842  10.750   8.147  0.2963  0.5415  0.0111
22227SOL    HW172517   2.760  10.718   8.184  1.1084 -0.8220  0.6797
22227SOL    HW272518   2.904  10.678   8.159  1.5278  1.4411 -0.7325
22228SOL     OW72519   3.992   1.422   7.948 -0.1666 -0.1854 -0.1327
22228SOL    HW172520   3.936   1.362   7.899 -2.0356  1.4777 -0.1652
22228SOL    HW272521   3.971   1.404   8.040  2.7868 -2.7790  0.2071
22229SOL     OW72522   8.125   2.453   4.914 -0.0047 -0.2254  0.0428
22229SOL    HW172523   8.199   2.513   4.928  1.9563 -1.7622 -2.6238
22229SOL    HW272524   8.104   2.462   4.821 -0.8661 -2.3059 -0.0296
22230SOL     OW72525   5.200   0.389   1.178 -0.2494  0.1602 -0.6886
22230SOL    HW172526   5.220   0.442   1.256 -0.4769  0.8964 -1.1171
22230SOL    HW272527   5.184   0.453   1.109 -1.5143 -0.4411 -0.9874
22231SOL     OW72528   8.457   0.823   9.236 -0.3860  0.0360 -0.5949
22231SOL    HW172529   8.488   0.772   9.161  1.3773 -0.2444  0.2788
22231SOL    HW272530   8.518   0.802   9.307  0.2174  3.0431 -0.0647
22232SOL     OW72531   7.242  10.644   3.900  0.1073  0.0902  0.0807
22232SOL    HW172532   7.174  10.585   3.933 -0.7000  2.0150  2.1713
22232SOL    HW272533   7.286  10.676   3.978  1.2341  1.4046 -1.0352
22233SOL     OW72534   6.761   0.148   6.492  0.5167  0.1711  0.4687
22233SOL    HW172535   6.688   0.179   6.546  0.4040  0.3443  0.2185
22233SOL    HW272536   6.793   0.070   6.538 -1.4711 -1.4488 -0.7140
22234SOL     OW72537   7.473   1.833   9.533 -0.3383 -0.0413 -0.6245
22234SOL    HW172538   7.504   1.742   9.535 -0.0388  0.0564  1.6465
22234SOL    HW272539   7.538   1.881   9.584 -0.7127  1.3984 -1.4521
22235SOL     OW72540   9.793   9.328   8.254 -0.3631 -0.4952 -0.6241
22235SOL    HW172541   9.865   9.374   8.297 -1.9214  0.0267  1.6196
22235SOL    HW272542   9.746   9.396   8.205 -0.4692 -0.4226 -0.4254
22236SOL     OW72543   8.579   5.138   2.149  0.2255 -0.6957  0.7461
22236SOL    HW172544   8.566   5.109   2.058  3.4758 -1.0062  0.2444
22236SOL    HW272545   8.648   5.080   2.182 -0.9886 -0.7012  3.5296
22237SOL     OW72546   8.032   1.521   1.552  0.9762  0.4359 -0.1667
22237SOL    HW172547   8.060   1.516   1.643  1.0281  2.0282 -0.0773
22237SOL    HW272548   8.019   1.614   1.535 -1.1582  0.0413 -1.1539
22238SOL     OW72549   7.010  10.485   3.990 -0.6255 -0.3736 -0.6137
22238SOL    HW172550   6.998  10.410   4.049  1.3018 -1.7353 -1.8198
22238SOL    HW272551   6.942  10.474   3.924 -0.5767 -0.8536 -0.5894
22239SOL     OW72552   6.691   3.754   0.050 -0.0533  1.0079 -0.6294
22239SOL    HW172553   6.625   3.776   0.116  1.6706 -0.1744  1.6180
22239SOL    HW272554   6.662   3.801  -0.028 -3.1631  1.0711  0.4119
22240SOL     OW72555   3.931   4.932   3.855 -0.1814 -0.2145 -0.7223
22240SOL    HW172556   4.009   4.941   3.909 -1.1228 -0.3510  0.7134
22240SOL    HW272557   3.934   4.842   3.823 -0.0858 -0.4310 -0.1238
22241SOL     OW72558   6.911   4.090   4.167  0.1860  0.0445 -0.0567
22241SOL    HW172559   6.868   4.007   4.146 -1.0593  0.6614 -0.0612
22241SOL    HW272560   6.897   4.145   4.090  0.4099  0.4735  0.2048
22242SOL     OW72561  10.577   2.087  10.141  0.4433  0.0150 -0.0979
22242SOL    HW172562  10.510   2.019  10.152  1.2174 -0.8940 -0.7393
22242SOL    HW272563  10.656   2.048  10.180  0.5243  1.2152  0.9788
22243SOL     OW72564   0.180   4.429   0.401  0.0707 -0.3313 -0.0504
22243SOL    HW172565   0.258   4.483   0.385  1.6282 -2.6200 -0.6975
22243SOL    HW272566   0.159   4.445   0.493  0.7645  0.9878 -0.0992
22244SOL     OW72567   8.291   5.107   4.172 -0.3669 -0.0436 -0.4863
22244SOL    HW172568   8.361   5.170   4.154 -1.5499  1.4186 -0.1811
22244SOL    HW272569   8.314   5.030   4.120  1.2043  0.5663 -0.7569
22245SOL     OW72570   3.816   7.313   0.039  0.4246 -0.4046  0.1028
22245SOL    HW172571   3.797   7.230   0.082 -0.1588  0.1428  0.9282
22245SOL    HW272572   3.805   7.379   0.107 -1.5388  0.5986 -1.0867
22246SOL     OW72573   9.095   1.899   1.536  0.3781 -0.1418  0.1999
22246SOL    HW172574   9.080   1.816   1.491  0.0613  0.1116 -0.1761
22246SOL    HW272575   9.032   1.959   1.496 -1.3045 -0.3754  2.3148
22247SOL     OW72576   6.081   1.432   7.827 -1.0398 -0.5020  0.1719
22247SOL    HW172577   6.068   1.518   7.867 -1.2484 -1.4220  2.1894
22247SOL    HW272578   5.992   1.400   7.810 -1.0160 -0.8993  0.7656
22248SOL     OW72579   4.562  10.559   8.037  0.2772  0.1039  0.0211
22248SOL    HW172580   4.592  10.525   7.953 -0.8740  1.2315 -0.8864
22248SOL    HW272581   4.496  10.496   8.067  0.3150 -0.0235 -0.1660
22249SOL     OW72582   1.866   1.835   8.396 -0.0118  0.0098 -0.1975
22249SOL    HW172583   1.804   1.770   8.428  0.1309  1.0201  2.3397
22249SOL    HW272584   1.949   1.813   8.439  0.9087 -0.0801 -1.9285
22250SOL     OW72585   4.867   2.438   1.938 -0.1462  0.0651  0.3684
22250SOL    HW172586   4.822   2.432   2.022 -1.9588  0.9610 -0.4846
22250SOL    HW272587   4.860   2.531   1.914  0.7133 -0.1004 -0.5758
22251SOL     OW72588   2.477   3.261   5.193  0.4224 -0.7465 -0.4366
22251SOL    HW172589   2.397   3.276   5.244  1.3431 -0.4239  0.9719
22251SOL    HW272590   2.540   3.323   5.229  0.7789  0.3971 -2.8490
22252SOL     OW72591   4.010  10.035   1.109  0.6087 -0.0589  0.1476
22252SOL    HW172592   3.945  10.033   1.039 -0.9834 -1.3585  1.5591
22252SOL    HW272593   4.084  10.083   1.073 -0.7900  0.7004 -1.8445
22253SOL     OW72594   5.989   4.401   4.237 -0.1499 -0.4182 -0.2232
22253SOL    HW172595   5.973   4.433   4.326  0.5195 -1.5082  0.3103
22253SOL    HW272596   6.081   4.421   4.220 -0.3013 -0.1258 -0.7194
22254SOL     OW72597   6.867   5.779   0.594  0.3923  0.2341  0.4569
22254SOL    HW172598   6.837   5.781   0.685 -0.2596  0.8224  0.2313
22254SOL    HW272599   6.790   5.802   0.543  1.2881  2.1869 -0.1128
22255SOL     OW72600   5.085   8.525   1.066  0.3698  0.0941  0.0885
22255SOL    HW172601   5.002   8.477   1.065  0.8481 -0.7424  0.4130
22255SOL    HW272602   5.062   8.611   1.029 -0.4482 -0.4382 -0.7052
22256SOL     OW72603   4.110   8.109   6.687 -0.5260 -0.0269 -0.1116
22256SOL    HW172604   4.134   8.080   6.599  0.9512  0.4931  0.0892
22256SOL    HW272605   4.045   8.178   6.673 -0.9170 -0.5111 -0.7498
22257SOL     OW72606   8.357   3.601   8.772  0.3233  0.4512  0.2782
22257SOL    HW172607   8.324   3.512   8.786  1.9951 -0.1717  0.4799
22257SOL    HW272608   8.348   3.643   8.857  2.0929 -0.4506  0.9631
22258SOL     OW72609  10.345  10.345   3.834  0.5230 -0.4911 -0.1234
22258SOL    HW172610  10.250  10.336   3.824  0.5137 -1.2653  0.5658
22258SOL    HW272611  10.382  10.286   3.768  0.5700  1.2968 -1.7644
22259SOL     OW72612   0.247   2.964   6.248  0.3778 -0.1143 -0.1233
22259SOL    HW172613   0.190   2.889   6.264 -0.0564  0.4933  1.4173
22259SOL    HW272614   0.188   3.038   6.236  0.8152  0.3375  0.4251
22260SOL     OW72615   8.843   8.529   5.122 -0.4295  0.5653 -0.1616
22260SOL    HW172616   8.776   8.558   5.060 -1.0273  0.0602  0.2384
22260SOL    HW272617   8.903   8.604   5.129 -1.0833  1.1172 -0.3299
22261SOL     OW72618   4.189  10.489   2.405 -0.3941 -0.8157 -0.7601
22261SOL    HW172619   4.248  10.492   2.480 -0.7145  2.0866 -0.5289
22261SOL    HW272620   4.246  10.475   2.330  0.4472  0.4363 -0.3818
22262SOL     OW72621   5.341   2.869   8.042  0.9097 -0.0901 -0.2970
22262SOL    HW172622   5.376   2.780   8.036  1.5646  0.0830  0.7839
22262SOL    HW272623   5.395   2.921   7.983  0.9586 -0.2835 -0.4212
22263SOL     OW72624   2.318   5.903  10.605  0.2025  0.2012 -0.2449
22263SOL    HW172625   2.378   5.967  10.643 -1.0988  0.9611  0.6082
22263SOL    HW272626   2.338   5.904  10.511  2.1460 -0.2842  0.1204
22264SOL     OW72627   6.324   9.498   4.174  0.1838  0.1177  0.4692
22264SOL    HW172628   6.358   9.427   4.228  0.2915  0.6648  1.1452
22264SOL    HW272629   6.280   9.556   4.236 -1.4534 -0.2508 -0.3027
22265SOL     OW72630   1.851  10.530   6.868 -0.3519  0.6325 -0.1773
22265SOL    HW172631   1.874  10.567   6.953 -0.1752  0.6685 -0.2411
22265SOL    HW272632   1.928  10.544   6.813  0.0640 -0.6108  0.0399
22266SOL     OW72633   7.240   1.865   0.426  0.0270 -0.2935  0.2174
22266SOL    HW172634   7.314   1.924   0.419 -0.5341  0.3275 -0.6143
22266SOL    HW272635   7.263   1.806   0.498  1.1279  0.1570  0.2481
22267SOL     OW72636   7.885  10.279   0.913  0.0181 -0.7248  0.0068
22267SOL    HW172637   7.795  10.248   0.922 -0.5194  0.6563 -0.3231
22267SOL    HW272638   7.906  10.264   0.821 -0.2494 -0.1113 -0.1578
22268SOL     OW72639   2.742   3.859   9.868  0.2688  0.0558  0.7228
22268SOL    HW172640   2.819   3.812   9.900  1.2294  0.5125 -0.8213
22268SOL    HW272641   2.774   3.946   9.847 -0.1987 -0.2733 -1.6974
22269SOL     OW72642   3.118  10.781   0.694  0.0135 -0.1969  0.0798
22269SOL    HW172643   3.118  10.841   0.769 -0.5331 -0.7915  0.5727
22269SOL    HW272644   3.189  10.813   0.638  1.5157 -0.6556  1.6104
22270SOL     OW72645   3.613   9.650  10.880  0.0082  0.0884 -0.2510
22270SOL    HW172646   3.701   9.654  10.918  1.1559 -2.5872 -2.2454
22270SOL    HW272647   3.618   9.708  10.804  0.2289 -0.3700 -0.5956
22271SOL     OW72648   4.998   9.246   9.985  0.0364 -0.5540 -0.1000
22271SOL    HW172649   4.938   9.227  10.058  1.0612 -1.2989  0.5748
22271SOL    HW272650   4.963   9.196   9.912 -0.1798 -0.9787  0.2880
22272SOL     OW72651   8.075   2.531   6.089  0.1367 -0.2727  0.1510
22272SOL    HW172652   8.105   2.622   6.083  0.8648 -0.4102  1.2779
22272SOL    HW272653   8.020   2.519   6.012  1.5337  0.5638 -1.0516
22273SOL     OW72654   8.954   1.526   3.716  0.1349  0.1702 -0.2610
22273SOL    HW172655   8.986   1.572   3.639  0.2683  3.3288  1.4959
22273SOL    HW272656   9.034   1.498   3.762  0.1165 -0.0576 -0.3701
22274SOL     OW72657   3.389   8.956   5.359 -0.3511  0.5489 -0.0310
22274SOL    HW172658   3.430   9.042   5.368 -2.8430  1.8162  0.0847
22274SOL    HW272659   3.442   8.899   5.414  0.3212  2.4124  1.3883
22275SOL     OW72660   0.123   1.847   1.186  0.2059 -0.2190 -0.1282
22275SOL    HW172661   0.153   1.771   1.136 -0.1517 -0.6339  0.2708
22275SOL    HW272662   0.201   1.901   1.197  1.1372 -1.8230  1.8909
22276SOL     OW72663   1.780  10.371   9.172  0.0274  0.1273 -0.0337
22276SOL    HW172664   1.707  10.371   9.234 -0.5802  0.6458 -0.7299
22276SOL    HW272665   1.827  10.452   9.189 -0.2835  0.3907 -0.4039
22277SOL     OW72666   9.906   7.624   8.387 -0.0894 -0.3901  1.0063
22277SOL    HW172667   9.961   7.568   8.442 -0.4067 -1.3896  0.3168
22277SOL    HW272668   9.922   7.713   8.421  1.4375 -0.7291  1.2518
22278SOL     OW72669   2.834   6.392   2.662  0.4927 -0.8657 -0.3103
22278SOL    HW172670   2.903   6.450   2.692  0.4132  0.5277 -2.5961
22278SOL    HW272671   2.877   6.307   2.648  1.3943 -0.4121 -0.3068
22279SOL     OW72672  10.342   5.282   2.098 -0.2014 -0.6813  0.3692
22279SOL    HW172673  10.393   5.280   2.179 -0.4489  0.0511  0.5438
22279SOL    HW272674  10.251   5.284   2.127 -0.2757  0.6471  0.1012
22280SOL     OW72675   4.288   2.956   4.982  0.4897 -0.0849 -0.4293
22280SOL    HW172676   4.337   2.994   4.909  1.7516 -1.6675 -0.4541
22280SOL    HW272677   4.260   3.032   5.034  0.2297  1.0259 -2.1087
22281SOL     OW72678   5.473   7.568   5.062  0.0809  0.0784  0.0950
22281SOL    HW172679   5.427   7.484   5.067  0.1893  0.0304  0.3006
22281SOL    HW272680   5.468   7.603   5.150 -0.6231  0.6416 -0.1664
22282SOL     OW72681   7.942   6.916   2.058  0.3562 -0.3103 -0.1304
22282SOL    HW172682   7.936   6.857   1.983 -0.6411 -0.1208 -0.2060
22282SOL    HW272683   7.890   6.992   2.034  0.6445  0.0811  0.4558
22283SOL     OW72684   2.311   0.449   8.115  0.0301  0.3332 -0.3650
22283SOL    HW172685   2.272   0.391   8.050  0.1896 -0.1756 -0.0124
22283SOL    HW272686   2.404   0.424   8.117 -0.2223 -0.5841  1.0200
22284SOL     OW72687  10.160   1.958   9.273 -0.0306  0.3186 -0.0524
22284SOL    HW172688  10.075   1.936   9.311 -0.6226  1.6674 -0.5314
22284SOL    HW272689  10.152   2.050   9.248  1.2500  0.2014 -0.9894
22285SOL     OW72690   6.856   1.077  10.180  0.3879 -0.4286 -0.1505
22285SOL    HW172691   6.813   1.118  10.105 -0.8533 -2.2446 -0.5058
22285SOL    HW272692   6.949   1.078  10.158  0.3630  1.7646 -0.3081
22286SOL     OW72693   0.867   6.245   1.789 -0.2457 -0.2439 -0.3878
22286SOL    HW172694   0.899   6.182   1.853 -0.7790 -1.1075 -0.9592
22286SOL    HW272695   0.823   6.193   1.722 -0.2681  0.6880 -1.1359
22287SOL     OW72696   3.079   5.573   7.369  0.1882 -0.3652 -0.2544
22287SOL    HW172697   2.996   5.548   7.411 -0.1245  2.4069  0.9780
22287SOL    HW272698   3.072   5.538   7.280 -2.7674  0.6263 -0.5312
22288SOL     OW72699   9.963   4.927  10.621  0.3473 -0.1124 -0.2301
22288SOL    HW172700   9.969   4.959  10.711  0.5155 -1.5728  0.3098
22288SOL    HW272701  10.042   4.960  10.578 -0.3921  1.7159 -0.2393
22289SOL     OW72702   3.226   5.468   1.503 -0.0746  0.1844  0.4801
22289SOL    HW172703   3.235   5.562   1.492 -0.8647  0.3513  1.1640
22289SOL    HW272704   3.140   5.447   1.468  0.7866 -0.5797 -1.3010
22290SOL     OW72705   9.109   0.215   9.675  0.6410 -0.3326  0.1383
22290SOL    HW172706   9.033   0.271   9.686  1.5433  1.1044 -0.6331
22290SOL    HW272707   9.181   0.275   9.654  1.4299 -1.8379 -1.8339
22291SOL     OW72708   4.503   8.318   0.937 -0.6440 -0.1897 -0.0514
22291SOL    HW172709   4.551   8.236   0.921  0.0536  0.3698 -0.9533
22291SOL    HW272710   4.571   8.383   0.954 -1.1212  0.4197 -0.4019
22292SOL     OW72711   0.886   2.319   1.952  0.0783 -0.1095 -0.3195
22292SOL    HW172712   0.791   2.317   1.955  0.0694  0.2525 -0.3437
22292SOL    HW272713   0.908   2.273   1.870 -0.0808 -0.0295 -0.4075
22293SOL     OW72714   7.208   9.188   6.934  0.2383 -0.0840  0.1656
22293SOL    HW172715   7.136   9.200   6.873  1.4174  2.8095 -0.8568
22293SOL    HW272716   7.274   9.140   6.884 -0.0717 -0.6900  0.3292
22294SOL     OW72717   7.988   2.761   0.925 -0.2633  0.1970  0.1770
22294SOL    HW172718   8.026   2.721   0.846 -2.1422  0.0957 -0.7161
22294SOL    HW272719   8.055   2.823   0.954  0.0900  0.9991 -2.0876
22295SOL     OW72720   9.553   4.608   9.135 -0.3951 -0.3842  0.1427
22295SOL    HW172721   9.486   4.619   9.203 -1.5151 -1.5751 -0.7273
22295SOL    HW272722   9.607   4.535   9.166  0.5334  0.5548  0.8277
22296SOL     OW72723   2.529   2.860   5.822  0.0550  0.4000  0.8697
22296SOL    HW172724   2.597   2.868   5.755  0.0639 -2.5173  0.3964
22296SOL    HW272725   2.576   2.865   5.905  0.8397 -1.1675  0.5475
22297SOL     OW72726   6.961   2.595  10.656  0.8327  0.1138  0.0154
22297SOL    HW172727   7.013   2.577  10.734  0.8335  0.1796  0.0306
22297SOL    HW272728   6.878   2.630  10.691  0.9118  0.3382 -0.0183
22298SOL     OW72729   2.447   2.749  10.393  0.5402 -0.0213  0.6410
22298SOL    HW172730   2.416   2.798  10.469 -0.5284  2.4657 -1.2621
22298SOL    HW272731   2.369   2.704  10.360  0.7307 -0.1364  0.3460
22299SOL     OW72732   5.760   8.639   6.382  0.1481 -0.0956 -0.9838
22299SOL    HW172733   5.741   8.632   6.288 -0.3570  0.4546 -0.9319
22299SOL    HW272734   5.765   8.549   6.413  2.0460 -0.3436 -1.8706
22300SOL     OW72735   7.821   0.859   2.071 -0.4888 -0.1413 -0.7365
22300SOL    HW172736   7.887   0.835   2.135  0.0227  0.0985 -1.1693
22300SOL    HW272737   7.848   0.814   1.991 -0.3849  0.6214 -1.1350
22301SOL     OW72738   1.413   3.950   1.542  0.3139  0.5020 -0.3938
22301SOL    HW172739   1.330   3.988   1.513 -0.3025 -0.3364  0.2009
22301SOL    HW272740   1.476   3.978   1.476 -0.9011 -0.7938 -2.2324
22302SOL     OW72741   2.609   9.334   7.317  0.0405  0.5943 -0.0533
22302SOL    HW172742   2.516   9.356   7.323 -0.6866 -0.5155 -4.1139
22302SOL    HW272743   2.653   9.419   7.306 -0.2497  1.2033  2.7745
22303SOL     OW72744   6.917   3.648   1.570 -0.5015 -0.1908  0.2424
22303SOL    HW172745   6.933   3.692   1.487 -0.2992 -0.1925  0.2810
22303SOL    HW272746   6.890   3.718   1.630  0.6150  0.0153  0.5266
22304SOL     OW72747   9.973   8.788   0.501 -0.3799  0.1039 -0.2373
22304SOL    HW172748  10.064   8.761   0.510 -0.3267  0.4023  0.1573
22304SOL    HW272749   9.955   8.783   0.407 -0.4275 -1.4241 -0.1660
22305SOL     OW72750   5.447  10.828  10.374  0.2184 -0.0023  0.4765
22305SOL    HW172751   5.497  10.901  10.339  0.4311 -0.6994 -0.7319
22305SOL    HW272752   5.362  10.834  10.330 -1.1306  1.6238  3.0750
22306SOL     OW72753   4.841   1.030   8.080  0.2598 -0.2090 -0.3818
22306SOL    HW172754   4.812   0.939   8.085 -2.8051  0.5974 -1.4342
22306SOL    HW272755   4.788   1.076   8.145  1.6759  0.8993  0.0547
22307SOL     OW72756   4.523   1.737   2.487 -0.6395 -0.3974 -0.0921
22307SOL    HW172757   4.471   1.770   2.560 -1.0721 -0.0517 -0.5478
22307SOL    HW272758   4.459   1.703   2.424 -0.4737  1.4059 -1.3368
22308SOL     OW72759   7.786   7.505   5.529  0.2535  0.4850  0.7517
22308SOL    HW172760   7.744   7.584   5.563 -0.5029 -0.5622  2.3926
22308SOL    HW272761   7.724   7.471   5.465 -0.6826 -0.1340  1.9336
22309SOL     OW72762   9.198   1.351   3.520  0.1397 -0.0610 -0.6224
22309SOL    HW172763   9.208   1.446   3.524  1.4060 -0.1515 -1.1939
22309SOL    HW272764   9.259   1.318   3.586 -0.7384 -0.4747  0.0074
22310SOL     OW72765  10.637   6.697   0.505  0.1026 -0.1133  0.4440
22310SOL    HW172766  10.697   6.646   0.560  0.4575 -0.4902 -0.2821
22310SOL    HW272767  10.562   6.639   0.491 -0.2554  0.2030  1.0099
22311SOL     OW72768   0.604   4.696   3.633  0.0250  1.0035 -0.1663
22311SOL    HW172769   0.522   4.685   3.585 -0.6605  3.5598  0.2669
22311SOL    HW272770   0.607   4.620   3.692 -1.2076  0.0303 -1.2910
22312SOL     OW72771   4.408   6.038   4.002  0.0540  0.0894 -0.4568
22312SOL    HW172772   4.350   6.083   3.940 -0.7275 -0.5342 -0.1895
22312SOL    HW272773   4.494   6.078   3.987 -0.0991 -0.0802 -1.9878
22313SOL     OW72774   5.384  10.082   9.176  0.0699 -0.0852  0.1062
22313SOL    HW172775   5.317  10.066   9.109 -0.1432  1.7040 -0.1550
22313SOL    HW272776   5.365  10.018   9.244 -1.7007  0.1373 -0.1213
22314SOL     OW72777   0.701   3.650   1.539 -0.3269 -0.4571 -0.9314
22314SOL    HW172778   0.783   3.606   1.517 -0.8322 -0.5725 -2.7218
22314SOL    HW272779   0.711   3.738   1.504 -0.5118 -0.0835 -0.0716
22315SOL     OW72780   9.982  10.188   9.888  0.4100  0.2500  0.7476
22315SOL    HW172781  10.010  10.122   9.950  1.5418 -0.9331 -0.9280
22315SOL    HW272782  10.057  10.246   9.878  0.1972  0.4988  0.5706
22316SOL     OW72783  10.527   9.202   5.754  0.2557  0.4401 -0.1882
22316SOL    HW172784  10.544   9.199   5.660  0.4926 -0.4323 -0.1284
22316SOL    HW272785  10.609   9.174   5.794 -0.4788 -1.3139  0.1927
22317SOL     OW72786   5.348   7.383   7.987  0.4673  0.5295 -0.2038
22317SOL    HW172787   5.270   7.346   8.030  0.9120 -0.3948 -0.1635
22317SOL    HW272788   5.343   7.477   8.005 -0.7435  0.5210 -0.3612
22318SOL     OW72789   2.798   7.901   4.011 -0.6534  0.4313 -0.2196
22318SOL    HW172790   2.793   7.989   4.048 -1.5587  0.4611 -0.4017
22318SOL    HW272791   2.818   7.845   4.086 -1.3113  0.6400  0.1193
22319SOL     OW72792   1.440   3.941   3.832 -0.1035 -0.6921  0.1283
22319SOL    HW172793   1.485   4.026   3.840  2.4746 -1.7153 -2.0535
22319SOL    HW272794   1.445   3.904   3.920 -2.5445  1.8615  1.5276
22320SOL     OW72795   6.741   3.841   5.864 -0.8746 -0.0672  0.0900
22320SOL    HW172796   6.742   3.855   5.959  0.4402  0.0530  0.0768
22320SOL    HW272797   6.650   3.855   5.839 -1.4051 -0.8364  1.4383
22321SOL     OW72798   6.911   8.240   1.010  0.0708  0.0723  0.2519
22321SOL    HW172799   6.816   8.240   1.025  0.0838  0.5310  0.3427
22321SOL    HW272800   6.928   8.325   0.970  0.5467  0.2681  0.8652
22322SOL     OW72801   3.782   0.054   2.611  0.3869  0.4189  0.5902
22322SOL    HW172802   3.854   0.101   2.568 -0.9633  0.5409 -1.6797
22322SOL    HW272803   3.826  -0.004   2.673  2.2034  4.3614  3.4940
22323SOL     OW72804   7.022   4.530   8.364 -0.7165 -0.5693  0.0050
22323SOL    HW172805   7.047   4.465   8.429 -0.6780 -1.2459 -0.6798
22323SOL    HW272806   7.066   4.502   8.284 -0.5280  0.4150 -0.2500
22324SOL     OW72807   1.032   8.946   7.091 -0.3098 -0.2314  0.6084
22324SOL    HW172808   1.118   8.970   7.126  0.4897 -2.7118  0.5028
22324SOL    HW272809   0.971   8.962   7.163  0.5208 -0.2497  1.3251
22325SOL     OW72810   7.712   3.087   2.534  0.1023  0.4336 -0.1130
22325SOL    HW172811   7.744   3.013   2.483 -0.1882 -0.0364  0.3715
22325SOL    HW272812   7.649   3.130   2.476  1.0302  0.9275 -0.7890
22326SOL     OW72813   4.488   2.571   6.527 -0.0836 -0.1599 -0.0510
22326SOL    HW172814   4.409   2.598   6.576  0.7073  0.1119  1.1131
22326SOL    HW272815   4.454   2.539   6.444 -1.2219  3.5195 -1.2212
22327SOL     OW72816   2.796   7.614   2.084 -0.2764  0.7389  0.4204
22327SOL    HW172817   2.851   7.634   2.009 -0.6079  0.7251  0.1708
22327SOL    HW272818   2.767   7.524   2.070  0.0896  0.5529  0.8364
22328SOL     OW72819   9.833   9.296   5.881  0.0029 -0.7859  0.0500
22328SOL    HW172820   9.830   9.253   5.795 -3.5215  0.0119 -0.3985
22328SOL    HW272821   9.742   9.297   5.910  1.0547 -1.1785  3.9626
22329SOL     OW72822   1.966   9.155   4.012  0.1967  0.3441  0.2406
22329SOL    HW172823   2.000   9.087   4.070  0.6452 -1.1474 -1.6889
22329SOL    HW272824   2.028   9.159   3.940 -1.8835 -0.0289 -1.6801
22330SOL     OW72825   5.757   1.160   3.361 -0.7710 -0.0390 -0.6774
22330SOL    HW172826   5.771   1.092   3.296  0.0513 -0.0769 -0.4715
22330SOL    HW272827   5.741   1.113   3.443 -0.2330  0.0026 -0.5411
22331SOL     OW72828   8.468   7.216   5.025 -0.8142  0.2982  0.1230
22331SOL    HW172829   8.412   7.181   4.956 -1.7500  0.9357  0.5322
22331SOL    HW272830   8.465   7.311   5.013  1.4627  0.3092 -0.7977
22332SOL     OW72831   9.826   0.696   5.832  0.2943 -0.1648  0.4645
22332SOL    HW172832   9.741   0.707   5.789 -0.0051  2.5059  1.5472
22332SOL    HW272833   9.818   0.613   5.879 -2.0804  0.4123  1.2177
22333SOL     OW72834  10.501   5.751   3.277  0.4172  0.0729 -0.1087
22333SOL    HW172835  10.585   5.756   3.323 -0.4736 -1.7583  1.9321
22333SOL    HW272836  10.474   5.659   3.288 -2.4340  0.8845  0.4792
22334SOL     OW72837   2.854   8.222   4.006 -0.2190  0.1998  0.0494
22334SOL    HW172838   2.907   8.302   4.008  1.3772 -0.7995 -0.4727
22334SOL    HW272839   2.802   8.231   3.926 -1.4920  1.5484  0.9676
22335SOL     OW72840   7.983  10.275  10.117 -0.5500 -0.3292 -0.3859
22335SOL    HW172841   7.956  10.366  10.107  1.3614  0.3306  0.1496
22335SOL    HW272842   8.024  10.252  10.034 -0.3165 -0.4588 -0.2347
22336SOL     OW72843   8.815   5.118   8.381  0.3834 -0.1936  0.1621
22336SOL    HW172844   8.778   5.134   8.468 -0.1849  0.0703 -0.1260
22336SOL    HW272845   8.740   5.096   8.327  0.5151  1.2415 -0.6455
22337SOL     OW72846   2.608   1.421   2.033  0.4081  0.2591  0.3380
22337SOL    HW172847   2.661   1.466   1.967 -0.7187  1.0696 -0.0568
22337SOL    HW272848   2.668   1.360   2.075  1.1257 -0.4626 -1.6018
22338SOL     OW72849   9.071   5.627   9.467  0.1549 -0.8195  0.0481
22338SOL    HW172850   9.072   5.683   9.389 -3.9800 -0.8753 -0.2541
22338SOL    HW272851   9.084   5.539   9.433 -2.7244 -0.9908 -0.9432
22339SOL     OW72852   1.125   5.023   9.060  0.0681 -0.3588 -0.0025
22339SOL    HW172853   1.088   5.055   9.143  0.2219  0.8532 -0.3807
22339SOL    HW272854   1.133   4.928   9.073 -0.4679 -0.2725  1.1469
22340SOL     OW72855   7.852   0.687   9.035 -0.1491  0.0200 -0.2116
22340SOL    HW172856   7.935   0.722   9.067 -0.3394  1.1469 -0.9216
22340SOL    HW272857   7.839   0.729   8.951 -1.6721  0.2006  0.0949
22341SOL     OW72858   7.020   1.591   3.913  0.0042 -0.5145 -0.8224
22341SOL    HW172859   6.943   1.542   3.941 -0.9988  1.4762  0.1372
22341SOL    HW272860   6.991   1.682   3.912  2.1228  0.2105 -1.2470
22342SOL     OW72861   2.769   6.927   8.189  0.1738 -0.2334  0.2831
22342SOL    HW172862   2.723   6.868   8.130 -0.8271  0.3431  0.4706
22342SOL    HW272863   2.850   6.881   8.210 -0.3222 -1.2864 -0.0288
22343SOL     OW72864   5.271   9.177   6.490 -0.2878 -0.3484  0.2354
22343SOL    HW172865   5.352   9.192   6.440  0.9189  0.5418  2.3246
22343SOL    HW272866   5.223   9.113   6.438  2.1176 -1.5233 -0.7151
22344SOL     OW72867   9.328   9.243   6.331  1.0930 -0.1654  0.1997
22344SOL    HW172868   9.239   9.222   6.359  1.3809 -0.3281  1.0125
22344SOL    HW272869   9.373   9.158   6.330  2.0090  0.2268  2.6031
22345SOL     OW72870   4.089   6.364   3.224  0.4226 -0.5248  0.3815
22345SOL    HW172871   4.185   6.358   3.229  0.4005 -1.0902  0.1937
22345SOL    HW272872   4.058   6.306   3.293  0.2096 -1.2264 -0.2926
22346SOL     OW72873   4.034   4.505  10.487 -0.1777  0.4509 -0.2155
22346SOL    HW172874   4.105   4.567  10.468 -0.4823  0.1560 -2.7431
22346SOL    HW272875   3.957   4.560  10.496  0.3393  0.8171  3.0287
22347SOL     OW72876   7.036   4.363   2.014 -0.1562 -0.3909 -0.2502
22347SOL    HW172877   6.970   4.300   2.042  0.4906 -0.9889 -0.0651
22347SOL    HW272878   7.106   4.355   2.079  0.3717 -0.1980 -0.7877
22348SOL     OW72879   1.792   2.827   8.410 -0.1522  0.2825 -0.1875
22348SOL    HW172880   1.858   2.830   8.480 -0.5414  0.4731  0.1777
22348SOL    HW272881   1.735   2.754   8.435  0.1249 -0.1233 -0.6999
22349SOL     OW72882   4.231   1.878   1.322  0.4104  0.3256 -0.3006
22349SOL    HW172883   4.205   1.970   1.327 -2.5908 -0.2881 -2.0252
22349SOL    HW272884   4.157   1.830   1.360  0.7138 -1.4592 -1.7888
22350SOL     OW72885   7.486   2.235  10.695 -0.3529  0.0671 -0.3612
22350SOL    HW172886   7.521   2.236  10.606  0.8271 -1.0604  0.0556
22350SOL    HW272887   7.450   2.147  10.706  0.4594 -0.1742  0.5917
22351SOL     OW72888   9.180   1.649   0.668  0.1260  0.1238  0.0325
22351SOL    HW172889   9.122   1.578   0.638 -1.7692 -0.3822  4.2083
22351SOL    HW272890   9.125   1.703   0.723  2.4979  2.7284  0.0537
22352SOL     OW72891  10.092   3.196   9.776 -0.0933  0.5352 -0.3780
22352SOL    HW172892  10.094   3.177   9.870  0.6745  0.9561 -0.2991
22352SOL    HW272893  10.001   3.185   9.751 -0.3320  0.5618  0.4513
22353SOL     OW72894   2.179   6.470   6.977  0.1057 -0.5396  0.0002
22353SOL    HW172895   2.108   6.484   7.040 -1.3012  0.0367 -1.6210
22353SOL    HW272896   2.259   6.477   7.028 -0.8105  3.2818  1.2093
22354SOL     OW72897   2.916   6.900   1.853 -0.1992  0.3172  0.1496
22354SOL    HW172898   2.959   6.814   1.857  2.0708  1.4068  1.9692
22354SOL    HW272899   2.836   6.885   1.803  1.0729 -2.4305 -1.2877
22355SOL     OW72900  10.574   7.693   2.983  0.0900  0.8857 -0.0027
22355SOL    HW172901  10.520   7.628   2.938 -0.9256  0.8308  1.2225
22355SOL    HW272902  10.663   7.678   2.950 -0.4807  0.3465 -1.3645
22356SOL     OW72903   5.008   2.426   7.931  0.9821  0.1147  0.1227
22356SOL    HW172904   4.922   2.468   7.926  1.2152  1.0535  2.6691
22356SOL    HW272905   5.065   2.483   7.880  0.3058 -0.0753 -0.9024
22357SOL     OW72906   8.376   1.279   5.524 -0.0372  0.1323 -0.2111
22357SOL    HW172907   8.388   1.190   5.490 -1.0282 -0.0188 -0.1908
22357SOL    HW272908   8.465   1.310   5.543  0.2533 -1.2928  0.9241
22358SOL     OW72909   0.019   6.664   6.187 -0.7159  0.1628  0.0465
22358SOL    HW172910  -0.053   6.722   6.161 -0.8295 -0.3553 -0.8054
22358SOL    HW272911  -0.015   6.576   6.176  0.1028 -0.0913 -0.5223
22359SOL     OW72912   9.038   5.843   9.069  0.1130  0.0723  0.2115
22359SOL    HW172913   8.969   5.788   9.107  0.3414 -0.5019 -0.1878
22359SOL    HW272914   9.113   5.829   9.126  0.3904 -0.6191 -0.3026
22360SOL     OW72915   2.886   5.729   1.992 -0.2648 -0.2221 -0.1576
22360SOL    HW172916   2.830   5.720   2.069 -1.5519 -0.8154 -1.1278
22360SOL    HW272917   2.929   5.643   1.983  0.2092 -0.0180  0.1379
22361SOL     OW72918   2.211   4.816   4.969  0.1806 -0.0331 -0.1458
22361SOL    HW172919   2.123   4.809   5.007 -0.4404 -0.0967 -1.5159
22361SOL    HW272920   2.268   4.832   5.043 -0.9417 -0.3877  0.8300
22362SOL     OW72921   4.130   8.890   6.290  0.1855  0.0246 -0.5845
22362SOL    HW172922   4.213   8.907   6.245 -0.1211  0.8454 -0.8626
22362SOL    HW272923   4.079   8.970   6.277  0.8217  1.1852  2.9345
22363SOL     OW72924   2.980   2.593   0.869  0.5774 -0.6962  0.2598
22363SOL    HW172925   2.982   2.547   0.953 -0.3090 -0.7931  0.2402
22363SOL    HW272926   2.895   2.637   0.868 -0.6565 -2.8720 -1.6947
22364SOL     OW72927  10.575   1.131   8.760  0.2618 -0.2659  0.0047
22364SOL    HW172928  10.493   1.150   8.715  0.0026  2.1569  1.3148
22364SOL    HW272929  10.558   1.048   8.805 -1.0039 -0.4573 -0.7624
22365SOL     OW72930   7.084   2.230   0.962 -0.3399 -0.4622  0.1690
22365SOL    HW172931   7.169   2.190   0.945 -0.8480 -1.9461  0.9119
22365SOL    HW272932   7.021   2.170   0.923 -1.0545  1.2080 -1.4314
22366SOL     OW72933   1.733   9.032   8.426  0.2124 -0.1692  0.1123
22366SOL    HW172934   1.745   9.124   8.450  0.3981 -0.4699  1.2498
22366SOL    HW272935   1.771   9.024   8.339 -0.5050  1.0014 -0.3244
22367SOL     OW72936   9.540  10.554   5.539 -0.0139 -1.0497  0.3650
22367SOL    HW172937   9.588  10.569   5.619 -2.3649  1.6149  1.4596
22367SOL    HW272938   9.507  10.640   5.514 -3.8199 -2.5066 -0.4117
22368SOL     OW72939   2.381   9.704   1.932 -0.2114  0.7374 -0.1288
22368SOL    HW172940   2.462   9.725   1.885  0.0069  1.1340  0.3977
22368SOL    HW272941   2.327   9.658   1.869  0.0821  1.2335 -0.7582
22369SOL     OW72942   0.046   0.859   0.168  0.7511 -0.2879 -0.3749
22369SOL    HW172943   0.085   0.855   0.081  2.2165 -0.9171  0.2882
22369SOL    HW272944   0.063   0.948   0.198 -1.5349  0.6003 -1.4818
22370SOL     OW72945  10.220   8.687  10.262 -0.8020  0.2337  0.1917
22370SOL    HW172946  10.209   8.759  10.325  2.0305  0.1141  0.9785
22370SOL    HW272947  10.234   8.610  10.317 -1.1594 -0.4393 -0.6444
22371SOL     OW72948  10.496   5.587   5.215 -0.0542 -0.3729  0.3172
22371SOL    HW172949  10.581   5.581   5.257 -0.2154  0.0377  0.7036
22371SOL    HW272950  10.447   5.651   5.267 -0.1838  0.3015 -0.6129
22372SOL     OW72951   5.113   1.696   7.027  0.1892 -0.0061  0.0781
22372SOL    HW172952   5.066   1.701   6.944  1.3219  1.3358 -0.5195
22372SOL    HW272953   5.137   1.604   7.036 -0.8108 -0.3483 -0.5695
22373SOL     OW72954   4.677   3.168   3.021 -0.0551  0.3276  0.0962
22373SOL    HW172955   4.757   3.215   3.045  1.7850 -2.0322 -1.0147
22373SOL    HW272956   4.667   3.101   3.089 -0.2279 -0.3423 -0.5752
22374SOL     OW72957   8.885   0.044   0.292  0.0712 -0.4931  0.2172
22374SOL    HW172958   8.822   0.090   0.347 -0.7012 -2.3786  1.0280
22374SOL    HW272959   8.965   0.040   0.346  0.8651  1.6763 -0.7104
22375SOL     OW72960   4.551   0.867   6.069  0.2096 -0.2925  0.3346
22375SOL    HW172961   4.583   0.933   6.130  0.7722 -0.7454  0.5446
22375SOL    HW272962   4.459   0.856   6.091 -0.6103  2.2623 -1.3954
22376SOL     OW72963   8.545   8.827   6.639  0.2348 -0.4581 -0.1734
22376SOL    HW172964   8.558   8.737   6.609  2.3826 -0.1084 -0.4713
22376SOL    HW272965   8.579   8.827   6.729 -1.3667 -0.3058  0.4681
22377SOL     OW72966   0.682   3.086   8.805 -0.0313  0.2505  0.1902
22377SOL    HW172967   0.699   3.079   8.711 -0.9108  0.7711 -0.0157
22377SOL    HW272968   0.608   3.146   8.812  1.7924  2.5458  1.3711
22378SOL     OW72969   0.938   1.656   7.354 -0.7652  0.1815  0.4501
22378SOL    HW172970   0.867   1.669   7.291  1.5702 -0.5276 -2.6412
22378SOL    HW272971   0.996   1.731   7.340  1.0184 -1.2183 -0.1483
22379SOL     OW72972   0.750   3.969   8.974  0.0499 -0.3950  0.2412
22379SOL    HW172973   0.767   4.051   8.928  1.4344 -0.4663  0.5666
22379SOL    HW272974   0.691   3.993   9.045 -0.2633  0.1500 -0.1993
22380SOL     OW72975   2.417   3.393   0.509 -0.2983 -0.2709  0.0419
22380SOL    HW172976   2.490   3.351   0.554 -1.5501 -2.8264 -0.1450
22380SOL    HW272977   2.346   3.393   0.573 -0.7615  0.2019 -0.4659
22381SOL     OW72978   5.080   7.447   4.629  0.4025 -0.1762 -0.3471
22381SOL    HW172979   4.985   7.459   4.633  0.4536  0.0713  2.0105
22381SOL    HW272980   5.092   7.353   4.614 -0.2227 -0.2063 -0.6772
22382SOL     OW72981   2.026   8.703   3.708  0.2191  0.6549 -0.0775
22382SOL    HW172982   2.060   8.715   3.796 -0.6772 -0.9985  0.5389
22382SOL    HW272983   1.955   8.640   3.718  1.0962 -0.7931 -2.1745
22383SOL     OW72984   0.737  10.921  10.913 -0.4954  0.5405 -0.0223
22383SOL    HW172985   0.684  11.000  10.909 -1.1875  0.1571  1.1975
22383SOL    HW272986   0.686  10.855  10.867  0.4551  0.9645 -1.7844
22384SOL     OW72987   5.294   4.998  10.280 -0.2406 -0.3682 -0.5123
22384SOL    HW172988   5.243   4.989  10.200 -0.4763  2.0478 -0.6965
22384SOL    HW272989   5.364   4.933  10.272  0.7179  0.8685 -3.4497
22385SOL     OW72990   0.144   0.011   1.672  0.0754 -0.2715  0.0902
22385SOL    HW172991   0.211   0.079   1.670 -0.7699  0.5651 -1.3810
22385SOL    HW272992   0.180  -0.059   1.616  0.1223 -0.2323  0.0712
22386SOL     OW72993   0.227   5.874   8.622 -0.3379 -0.5852  0.3212
22386SOL    HW172994   0.281   5.938   8.668 -0.1077 -0.7481  0.2813
22386SOL    HW272995   0.137   5.898   8.643 -0.2400 -0.5537  0.7138
22387SOL     OW72996   6.931   7.404   5.949 -0.6151 -0.3198  0.3726
22387SOL    HW172997   7.019   7.372   5.967 -0.7903 -0.2857  1.3410
22387SOL    HW272998   6.875   7.327   5.961 -0.7172 -0.3454 -0.2512
22388SOL     OW72999   1.158   2.021   1.138 -0.1997 -0.0518  0.1742
22388SOL    HW173000   1.250   2.044   1.152 -0.1247  0.0321 -0.4577
22388SOL    HW273001   1.118   2.101   1.105 -0.4809 -0.1230  0.3366
22389SOL     OW73002   8.050   8.603   1.446 -0.1649  0.0605  0.5284
22389SOL    HW173003   8.058   8.520   1.398 -2.7234  0.7603 -1.3044
22389SOL    HW273004   7.973   8.591   1.501  0.2516  0.7749  1.2720
22390SOL     OW73005   3.090   5.845   7.423 -0.3481  0.0180  0.6473
22390SOL    HW173006   3.157   5.836   7.491 -0.2807 -1.4247  0.4295
22390SOL    HW273007   3.093   5.762   7.375 -0.9908  0.6729 -0.5780
22391SOL     OW73008   8.770   0.609   8.284 -0.2568  0.4372  0.4136
22391SOL    HW173009   8.813   0.539   8.234  0.9947  0.3629  1.5310
22391SOL    HW273010   8.770   0.684   8.224  1.7229  0.5106  0.4389
22392SOL     OW73011   1.914   7.069  10.495  0.2617  0.2116  0.4962
22392SOL    HW173012   1.997   7.027  10.520 -1.3582 -2.1924  2.2083
22392SOL    HW273013   1.856   6.996  10.473 -1.4952  1.8192 -0.4452
22393SOL     OW73014   3.506   7.045   3.541  0.0922 -0.4770 -0.7129
22393SOL    HW173015   3.429   6.990   3.525 -0.0765 -0.7097  0.7410
22393SOL    HW273016   3.574   6.984   3.567  0.8383 -0.2807 -2.1137
22394SOL     OW73017   1.827   3.955   4.226  0.1769 -0.1384 -0.1981
22394SOL    HW173018   1.838   3.868   4.266 -1.2734  0.7646  2.4119
22394SOL    HW273019   1.864   4.016   4.290 -1.6976  1.3646 -0.4471
22395SOL     OW73020   1.966   0.542   9.497 -0.1136  0.0488  0.1003
22395SOL    HW173021   1.966   0.563   9.590 -1.9938 -0.4217  0.2453
22395SOL    HW273022   2.030   0.472   9.488 -1.3940 -1.3713  1.4376
22396SOL     OW73023   5.880   9.268   9.240 -0.2047  0.8525 -0.1821
22396SOL    HW173024   5.876   9.173   9.255 -0.7306  1.1086  1.5592
22396SOL    HW273025   5.918   9.303   9.320 -0.0072  2.1274 -0.8117
22397SOL     OW73026   3.209   1.579   3.845 -0.4692 -0.2541  0.4244
22397SOL    HW173027   3.304   1.580   3.835 -0.4039 -0.2182  1.0510
22397SOL    HW273028   3.188   1.661   3.889 -0.9113  0.2625 -0.7109
22398SOL     OW73029   8.054   9.117   4.870  0.8258 -0.2162  0.7266
22398SOL    HW173030   8.048   9.113   4.774 -1.8851 -0.2995  0.8329
22398SOL    HW273031   8.110   9.043   4.894  0.9591 -0.6255 -0.7460
22399SOL     OW73032  10.612   1.855   6.879 -0.4227 -0.4594 -0.4010
22399SOL    HW173033  10.669   1.931   6.889 -1.2046  0.2100 -0.8177
22399SOL    HW273034  10.657   1.784   6.924 -0.6379  0.7487  1.8429
22400SOL     OW73035   0.378   2.142   3.507 -0.2166 -0.4721  0.2710
22400SOL    HW173036   0.391   2.236   3.520  0.9365 -0.7664  1.4869
22400SOL    HW273037   0.354   2.110   3.594  0.9077 -1.5257  0.2062
22401SOL     OW73038   6.622   4.564   3.751  0.0119 -0.3193 -0.1074
22401SOL    HW173039   6.608   4.654   3.724 -1.0556 -0.9372 -1.7715
22401SOL    HW273040   6.533   4.531   3.769  0.2845 -1.3597 -0.6261
22402SOL     OW73041   5.963   7.330   4.060  0.0768  0.1674 -0.0218
22402SOL    HW173042   6.054   7.339   4.032  0.7830  0.2252  2.1283
22402SOL    HW273043   5.935   7.246   4.025  0.3688  0.9028 -2.1465
22403SOL     OW73044   8.356   9.595   9.682 -0.1731  0.0750 -0.0806
22403SOL    HW173045   8.319   9.509   9.704  0.3971 -0.5171 -1.3448
22403SOL    HW273046   8.316   9.655   9.745 -0.0062 -1.2289  1.3113
22404SOL     OW73047   6.162  10.313   8.181  0.1660 -0.5476 -0.1596
22404SOL    HW173048   6.094  10.251   8.156  2.3124 -3.1200 -0.1176
22404SOL    HW273049   6.172  10.301   8.276  1.5409 -1.2366 -0.3623
22405SOL     OW73050   7.359   4.834   6.340  0.9597  0.1099 -0.6867
22405SOL    HW173051   7.364   4.924   6.309  2.0775  1.0263  1.9231
22405SOL    HW273052   7.267   4.810   6.330  0.2278  2.2381  0.3897
22406SOL     OW73053   5.640   5.635   2.857 -0.2519 -0.4663  0.4187
22406SOL    HW173054   5.601   5.715   2.823  0.8006 -0.2415 -0.2970
22406SOL    HW273055   5.679   5.593   2.781  1.8586 -0.1196  1.2360
22407SOL     OW73056   5.456   7.678   5.796  0.3825 -0.1945 -0.0427
22407SOL    HW173057   5.407   7.693   5.877 -1.2808 -2.2937 -0.5603
22407SOL    HW273058   5.405   7.612   5.749  0.4902  1.9601 -3.5109
22408SOL     OW73059   7.417   5.567   2.793 -0.5521  0.1017 -0.0525
22408SOL    HW173060   7.393   5.575   2.701 -0.0778  1.1235 -0.0984
22408SOL    HW273061   7.503   5.526   2.792 -0.4407  0.3323 -0.0832
22409SOL     OW73062   6.338   5.606   0.152 -0.2004  0.3529 -0.4937
22409SOL    HW173063   6.342   5.669   0.080 -0.9931 -0.1272 -0.9707
22409SOL    HW273064   6.244   5.589   0.164  0.0172 -0.9497 -0.5561
22410SOL     OW73065   6.749   1.802  10.786 -0.0614  0.0533 -0.2573
22410SOL    HW173066   6.689   1.737  10.822 -0.0358  0.3136  0.2727
22410SOL    HW273067   6.706   1.834  10.707 -0.2435 -0.3346 -0.3181
22411SOL     OW73068   4.077   7.304   4.547  0.0987 -0.2039  0.4451
22411SOL    HW173069   4.003   7.251   4.576 -0.3408  0.7174  1.0908
22411SOL    HW273070   4.068   7.386   4.596  1.5450 -0.0592  0.5321
22412SOL     OW73071   7.700   1.345   4.377 -0.0844  0.1242 -0.2685
22412SOL    HW173072   7.751   1.276   4.421  0.2981 -0.5810 -1.7509
22412SOL    HW273073   7.668   1.303   4.297 -0.0659  1.6059 -1.0779
22413SOL     OW73074   3.800   1.514   8.781  0.0365 -0.4080  0.1786
22413SOL    HW173075   3.821   1.588   8.724  4.1200  1.8348  3.9607
22413SOL    HW273076   3.744   1.551   8.848  0.2140 -1.3598  0.8708
22414SOL     OW73077   6.637   2.554  10.429 -0.3797 -0.2197 -0.1688
22414SOL    HW173078   6.645   2.607  10.508  0.0282  0.3116 -0.5593
22414SOL    HW273079   6.679   2.606  10.361 -1.6846 -0.1845 -0.9688
22415SOL     OW73080   2.026  10.814  10.092 -0.6433  0.3362 -0.3899
22415SOL    HW173081   1.932  10.799  10.103 -0.5106  0.4470  1.0037
22415SOL    HW273082   2.038  10.907  10.111 -0.2073  0.2696 -0.3209
22416SOL     OW73083   4.510   1.811   6.416  0.1275 -0.3546  0.2836
22416SOL    HW173084   4.445   1.871   6.454  0.3809  1.0510 -1.3942
22416SOL    HW273085   4.594   1.851   6.436  0.2970 -0.0685 -0.9351
22417SOL     OW73086   4.892   7.065   8.810 -0.0050 -0.3515  0.0364
22417SOL    HW173087   4.855   7.095   8.892 -1.7999 -1.5359 -0.3009
22417SOL    HW273088   4.841   7.109   8.742  0.2931 -0.7200 -0.4399
22418SOL     OW73089   5.161   1.928  10.493 -0.5313 -0.1900  0.3099
22418SOL    HW173090   5.128   1.851  10.448 -1.7463 -0.3411  1.3990
22418SOL    HW273091   5.250   1.903  10.521  0.3764  0.0275 -2.1647
22419SOL     OW73092   2.989  10.443   4.848 -0.2751  0.3323 -0.0358
22419SOL    HW173093   2.922  10.391   4.892  0.2888 -0.5755 -0.2297
22419SOL    HW273094   3.020  10.504   4.915 -1.3038  0.7963  0.0477
22420SOL     OW73095   9.106   3.860   0.947 -0.3737 -0.4716  0.4402
22420SOL    HW173096   9.198   3.839   0.929 -0.6237 -1.9850  0.7537
22420SOL    HW273097   9.085   3.930   0.886  0.9280 -0.2446  0.2172
22421SOL     OW73098   6.478   2.194  10.810  0.2060 -0.4856 -0.4028
22421SOL    HW173099   6.442   2.108  10.788 -1.2999 -0.8153  2.7959
22421SOL    HW273100   6.523   2.180  10.893 -0.5336  1.9101  0.4589
22422SOL     OW73101  10.551   1.558   1.011 -0.4208  0.5230 -0.2380
22422SOL    HW173102  10.617   1.512   1.064  0.0794  1.3770 -0.1030
22422SOL    HW273103  10.474   1.563   1.068 -0.7880 -0.9207 -0.5735
22423SOL     OW73104   4.015   4.337   1.166 -0.4083  0.5002 -0.0103
22423SOL    HW173105   4.050   4.426   1.159  0.9257  0.1805  1.9221
22423SOL    HW273106   4.090   4.280   1.151 -1.2624 -0.3537 -1.3003
22424SOL     OW73107   6.024   9.330   9.848  0.1490  0.2824 -0.7220
22424SOL    HW173108   6.107   9.316   9.803  1.0355 -1.5733  1.2848
22424SOL    HW273109   6.046   9.384   9.923 -0.8379  1.3223 -1.1583
22425SOL     OW73110  10.745   6.185   9.029  0.6252  0.7482  0.3512
22425SOL    HW173111  10.795   6.106   9.049  0.8310  0.4674 -1.1511
22425SOL    HW273112  10.795   6.256   9.071  2.5938  0.5342 -1.4520
22426SOL     OW73113   5.412   7.895   2.510  0.2689 -0.1506 -0.4293
22426SOL    HW173114   5.325   7.925   2.483  0.1678  0.6285  0.6799
22426SOL    HW273115   5.462   7.892   2.429 -0.4850  0.5006 -0.9383
22427SOL     OW73116   9.026   0.140   8.760 -0.1900 -0.3338 -0.8626
22427SOL    HW173117   8.968   0.165   8.833 -0.1300 -0.1951 -0.8616
22427SOL    HW273118   9.028   0.217   8.704  1.7022  0.4872  0.2333
22428SOL     OW73119   9.459   7.141  10.242  0.2107 -0.1215  0.2185
22428SOL    HW173120   9.548   7.144  10.207  0.6051  1.8533  1.2289
22428SOL    HW273121   9.402   7.156  10.167  0.6432 -2.0396 -0.5503
22429SOL     OW73122   4.444   7.471   2.451 -0.2049 -0.1385 -0.0880
22429SOL    HW173123   4.537   7.451   2.463 -0.4015  0.5649  4.0242
22429SOL    HW273124   4.414   7.406   2.388  2.6306 -1.7604  0.0565
22430SOL     OW73125   7.029   0.467   7.975 -0.0634 -0.8487  0.4112
22430SOL    HW173126   7.081   0.427   7.905  0.9395  1.2654 -0.1248
22430SOL    HW273127   7.041   0.561   7.964 -2.1002 -0.3570  1.7850
22431SOL     OW73128   3.349   0.965   7.284 -0.5583 -0.5578  0.1726
22431SOL    HW173129   3.390   1.039   7.239 -1.5149  0.4377  0.8870
22431SOL    HW273130   3.260   0.961   7.247 -0.9970 -0.4039  1.1862
22432SOL     OW73131   1.225   3.379   2.695 -0.3775  0.1639 -0.0007
22432SOL    HW173132   1.250   3.314   2.629 -1.7861 -0.1248 -0.2785
22432SOL    HW273133   1.177   3.446   2.646 -1.1222  0.1323  0.6612
22433SOL     OW73134   1.965   4.879   7.709  0.3948  0.2663  0.0606
22433SOL    HW173135   1.912   4.811   7.667  1.6579  0.5167 -2.0470
22433SOL    HW273136   1.981   4.845   7.797 -0.5365 -1.3005 -0.3247
22434SOL     OW73137   5.336   2.775   3.463  0.5117  0.1223 -0.2390
22434SOL    HW173138   5.349   2.681   3.475 -0.8352 -0.2113 -1.1862
22434SOL    HW273139   5.296   2.805   3.544  2.1200  0.1496  0.5782
22435SOL     OW73140   9.860   4.027   4.995 -0.5632 -0.4764  0.5207
22435SOL    HW173141   9.826   3.991   5.077 -1.6167 -0.6963  0.0062
22435SOL    HW273142   9.788   4.015   4.932  0.5746 -1.2259 -0.6875
22436SOL     OW73143   8.802   6.627   8.253  0.5987  0.2696 -0.3217
22436SOL    HW173144   8.858   6.679   8.194 -1.0659  1.0561 -1.2975
22436SOL    HW273145   8.847   6.543   8.260  0.8656  0.1108 -2.8077
22437SOL     OW73146  10.162   1.970   1.374  0.0621  0.0827  0.0417
22437SOL    HW173147  10.117   1.893   1.338  0.2308  0.3145 -0.6855
22437SOL    HW273148  10.145   1.966   1.468  1.5514 -1.8495  0.3056
22438SOL     OW73149   1.631   5.514   7.857 -0.3433  0.1808  0.2215
22438SOL    HW173150   1.536   5.507   7.864 -0.6977 -0.1342 -3.1724
22438SOL    HW273151   1.663   5.424   7.870 -0.5114  0.2521  1.1568
22439SOL     OW73152   5.587   2.009   0.004  0.7691 -0.4458 -0.4543
22439SOL    HW173153   5.512   1.953   0.023  1.6112 -1.4890 -0.1011
22439SOL    HW273154   5.574   2.086   0.058 -0.0729 -0.5921 -0.4376
22440SOL     OW73155   2.177   7.421   5.871 -0.0312 -0.3431  0.0608
22440SOL    HW173156   2.093   7.379   5.851 -1.2279  1.6375  0.6431
22440SOL    HW273157   2.191   7.401   5.964 -0.1754 -0.1669  0.1214
22441SOL     OW73158   0.350   3.135   3.554  0.2572 -0.1971 -0.1464
22441SOL    HW173159   0.402   3.077   3.498  1.9296  0.8964  0.1875
22441SOL    HW273160   0.335   3.214   3.501  0.7410  0.3259  0.4723
22442SOL     OW73161   4.461  10.193   2.798  0.7424  0.4330 -0.2628
22442SOL    HW173162   4.507  10.130   2.853  0.2463 -0.6627 -1.0866
22442SOL    HW273163   4.426  10.257   2.861  1.9291  0.3575  0.5113
22443SOL     OW73164   1.857   4.558   0.650  0.3282  0.7792 -0.6684
22443SOL    HW173165   1.948   4.577   0.670  0.4508  0.0763 -0.5268
22443SOL    HW273166   1.852   4.462   0.651 -0.6540  0.8218  0.4635
22444SOL     OW73167   2.442   1.596   3.363 -0.4367 -0.2941  0.2799
22444SOL    HW173168   2.420   1.515   3.410  0.6818 -0.6598  0.2054
22444SOL    HW273169   2.385   1.595   3.286  0.0669 -1.4008 -0.1048
22445SOL     OW73170   1.359   8.495   6.295 -0.1550  0.3934 -0.0141
22445SOL    HW173171   1.368   8.587   6.318 -0.3974  0.6281 -0.8070
22445SOL    HW273172   1.408   8.448   6.362  2.0927  1.2478 -0.9656
22446SOL     OW73173   1.193   5.119   7.710  0.1271 -0.2069 -0.4904
22446SOL    HW173174   1.111   5.086   7.746 -0.8039  0.2205 -2.1542
22446SOL    HW273175   1.175   5.136   7.618  2.1570 -0.3171 -0.9643
22447SOL     OW73176   0.230   3.046   5.190  0.2665  0.4819  0.4078
22447SOL    HW173177   0.284   3.124   5.199  0.3804  0.6167 -1.0885
22447SOL    HW273178   0.142   3.074   5.212  0.4889  0.7585  0.9398
22448SOL     OW73179   9.272   0.907   7.486 -0.0764 -0.0698 -0.0568
22448SOL    HW173180   9.229   0.840   7.432  1.1647 -0.7800 -0.2109
22448SOL    HW273181   9.364   0.901   7.462  0.2324  0.8704  0.8322
22449SOL     OW73182   1.850   3.805   3.366  0.3241 -0.6126  0.0315
22449SOL    HW173183   1.892   3.720   3.385  0.7843 -0.2655  0.6069
22449SOL    HW273184   1.887   3.865   3.431 -1.7419 -0.4763  1.1618
22450SOL     OW73185   0.212   2.950   9.625  0.0961 -0.0193  0.6690
22450SOL    HW173186   0.120   2.924   9.615  0.2672 -0.6156  0.6116
22450SOL    HW273187   0.226   2.951   9.720  0.5281 -1.7316  0.6389
22451SOL     OW73188   3.398   2.918   3.718 -0.1563  0.4335  0.6113
22451SOL    HW173189   3.359   2.920   3.630 -1.3806 -0.3980  1.1160
22451SOL    HW273190   3.439   3.004   3.727 -1.4605  1.1720 -0.1378
22452SOL     OW73191   0.034   4.700   1.928  0.2144 -0.8445 -0.5713
22452SOL    HW173192  -0.023   4.637   1.973  0.8080 -0.8345  0.2050
22452SOL    HW273193   0.090   4.646   1.872  1.8466 -1.2114  1.3032
22453SOL     OW73194  10.072   9.809   7.219  0.5852  0.1212  0.0063
22453SOL    HW173195  10.003   9.858   7.265 -1.1908 -0.6314 -1.7290
22453SOL    HW273196  10.055   9.717   7.240  0.1328 -0.1869 -1.5643
22454SOL     OW73197  10.777   4.037  10.713 -0.2918 -0.4373  0.4584
22454SOL    HW173198  10.867   4.010  10.696 -0.3352  0.4298 -1.5203
22454SOL    HW273199  10.762   4.018  10.805  2.4528  0.8980  1.2674
22455SOL     OW73200   3.746   8.193   4.396 -0.1116  0.3202 -0.1521
22455SOL    HW173201   3.683   8.172   4.465 -1.1646  0.3920 -1.0807
22455SOL    HW273202   3.784   8.277   4.423 -2.0516  1.4203 -0.6999
22456SOL     OW73203   1.505   7.690   3.627  0.0211  0.4217  0.0544
22456SOL    HW173204   1.438   7.681   3.559  0.8913  3.6631 -1.4123
22456SOL    HW273205   1.587   7.671   3.583  0.5133  1.7476  0.3398
22457SOL     OW73206   0.144   4.879   7.078  0.6010 -0.3157 -0.1607
22457SOL    HW173207   0.205   4.841   7.015 -0.1408 -0.1910 -0.9629
22457SOL    HW273208   0.149   4.974   7.062 -1.3351 -0.4250 -1.6834
22458SOL     OW73209   7.215   6.419   5.986 -0.6663 -0.2719  0.0681
22458SOL    HW173210   7.137   6.364   5.999  0.8574 -2.5536  0.2986
22458SOL    HW273211   7.269   6.369   5.924  1.2861  0.4328  1.1116
22459SOL     OW73212   9.955   0.618   5.363 -0.0601 -0.1292  0.0136
22459SOL    HW173213   9.904   0.559   5.307 -1.8473  1.1742  0.1756
22459SOL    HW273214   9.896   0.692   5.380  1.6404  1.1017  0.8657
22460SOL     OW73215   6.010   2.177   0.687 -0.0088 -0.3429 -0.3766
22460SOL    HW173216   6.043   2.160   0.599 -0.8408  3.4516 -1.6143
22460SOL    HW273217   5.921   2.211   0.674  0.3277  1.6201  1.7455
22461SOL     OW73218   9.819   1.531   2.164 -0.2871 -0.3133  0.0606
22461SOL    HW173219   9.787   1.512   2.076  0.2923  0.8588 -0.4386
22461SOL    HW273220   9.807   1.626   2.173 -2.0451 -0.6509  1.9637
22462SOL     OW73221   1.342   1.704  10.170  0.3979  0.3775 -0.9970
22462SOL    HW173222   1.360   1.738  10.258 -0.7198  0.7693 -0.8950
22462SOL    HW273223   1.277   1.765  10.135 -0.5504 -0.8173 -1.3836
22463SOL     OW73224   6.666   5.805   0.379  0.3707 -0.3270 -0.3599
22463SOL    HW173225   6.636   5.720   0.346  1.2118 -0.5649 -0.5238
22463SOL    HW273226   6.695   5.852   0.301 -0.0172  0.0905 -0.2584
22464SOL     OW73227  10.825   0.859   8.900  0.2248 -0.0566 -0.0074
22464SOL    HW173228  10.825   0.794   8.971  2.8637  1.1399  1.2639
22464SOL    HW273229  10.733   0.875   8.881 -0.5175 -2.8244  0.8703
22465SOL     OW73230   0.852   0.134   3.264  0.1441  0.5239  0.1006
22465SOL    HW173231   0.917   0.203   3.253  0.7852  0.1415  1.3212
22465SOL    HW273232   0.823   0.114   3.175  2.0256  0.3889 -0.5254
22466SOL     OW73233  10.160   6.326   4.512  0.1356 -0.0125  0.1463
22466SOL    HW173234  10.194   6.265   4.447 -0.1164 -0.9944  0.9149
22466SOL    HW273235  10.067   6.304   4.519  0.3459 -0.5548  1.4960
22467SOL     OW73236   6.670   4.132   3.139 -0.3450 -0.2511 -0.3274
22467SOL    HW173237   6.722   4.197   3.093  0.2900  0.5152  1.3859
22467SOL    HW273238   6.699   4.048   3.104 -1.1624  0.3230 -2.5567
22468SOL     OW73239   6.843   8.592   8.548 -0.0995  0.1392  0.2055
22468SOL    HW173240   6.771   8.640   8.506 -0.3910  0.4767  1.0721
22468SOL    HW273241   6.852   8.633   8.634  1.6663  0.6252 -0.1769
22469SOL     OW73242   9.943   4.191   1.988  0.0856  0.0931  0.1178
22469SOL    HW173243   9.944   4.234   2.074  1.3809  0.1579  0.0831
22469SOL    HW273244   9.989   4.108   2.002  0.2306  0.0685 -0.4984
22470SOL     OW73245   0.421   4.446   9.304 -0.6631 -0.2645 -0.3376
22470SOL    HW173246   0.495   4.397   9.340 -0.2509 -0.5724 -1.5633
22470SOL    HW273247   0.399   4.400   9.222 -2.1610 -0.1266 -0.0387
22471SOL     OW73248   5.699   3.670   2.720 -0.3915  0.0288 -0.3413
22471SOL    HW173249   5.611   3.668   2.683 -0.2237 -1.4938 -0.7308
22471SOL    HW273250   5.691   3.724   2.799 -1.1720  1.7376 -1.5415
22472SOL     OW73251   4.157  10.424   3.913 -0.0007  0.3772  0.3230
22472SOL    HW173252   4.123  10.340   3.945 -0.4926  0.6021  0.4041
22472SOL    HW273253   4.167  10.411   3.818  1.4087 -0.2694  0.5391
22473SOL     OW73254   4.388   3.057   4.192 -0.0666 -0.3845  0.1440
22473SOL    HW173255   4.379   3.143   4.150  0.7198  0.0242  0.8034
22473SOL    HW273256   4.434   3.074   4.274 -0.6924 -1.3188  0.7119
22474SOL     OW73257   0.124   7.734  10.698 -0.6745  0.1151 -0.0796
22474SOL    HW173258   0.111   7.818  10.742  0.4004  0.1715  0.1764
22474SOL    HW273259   0.208   7.744  10.651 -0.3449 -0.9269  0.2464
22475SOL     OW73260   0.995   6.214   9.829 -0.5296 -0.6666 -0.5456
22475SOL    HW173261   0.905   6.181   9.832 -0.8670  0.1274 -1.4908
22475SOL    HW273262   1.049   6.134   9.829 -1.1496 -1.1435  1.3127
22476SOL     OW73263   9.229   9.463  10.330  0.3827  0.1026  0.0617
22476SOL    HW173264   9.221   9.558  10.341  1.7919  0.3109 -0.5634
22476SOL    HW273265   9.313   9.441  10.369 -1.0590 -1.3325  2.6167
22477SOL     OW73266   7.597   4.678   1.862  0.0318  0.2132  0.2437
22477SOL    HW173267   7.656   4.627   1.917 -1.9858 -0.5799  1.7862
22477SOL    HW273268   7.565   4.748   1.918 -0.5125  0.6025 -0.5352
22478SOL     OW73269   6.540   4.039   9.235 -0.1087  0.3731 -0.0435
22478SOL    HW173270   6.561   4.005   9.322  1.4212 -2.4345 -1.3722
22478SOL    HW273271   6.624   4.065   9.198 -0.4917 -0.0055 -1.2437
22479SOL     OW73272   0.219   4.486   4.032  0.4361  0.2732  0.2952
22479SOL    HW173273   0.130   4.503   4.002  0.2618 -0.8329  0.1252
22479SOL    HW273274   0.215   4.492   4.127 -0.2163 -1.3832  0.4062
22480SOL     OW73275   2.612  10.285   1.537 -0.3238  0.7568  0.0161
22480SOL    HW173276   2.677  10.244   1.594 -0.4739  2.3049  1.3829
22480SOL    HW273277   2.661  10.309   1.459 -0.0657 -1.2294 -0.4874
22481SOL     OW73278   2.991   3.907   7.544 -0.3571  0.5204  0.2346
22481SOL    HW173279   3.018   3.980   7.488  0.5995 -0.0759 -0.1040
22481SOL    HW273280   3.072   3.880   7.588 -0.6556 -0.4838  0.1844
22482SOL     OW73281   3.652   6.941   9.779 -0.5177  0.5426  0.2052
22482SOL    HW173282   3.600   7.014   9.745  0.1005 -0.2510 -2.7118
22482SOL    HW273283   3.743   6.967   9.762  0.0911  1.0163  3.3904
22483SOL     OW73284   9.891   6.681   8.910  0.5818  0.2846  0.3430
22483SOL    HW173285   9.893   6.658   8.817 -0.2345  1.6941 -0.0627
22483SOL    HW273286   9.804   6.653   8.939  0.7642  0.0221  0.6448
22484SOL     OW73287   4.151   7.933   0.631  0.1915  0.3518 -0.4046
22484SOL    HW173288   4.076   7.876   0.613  0.8408 -0.4330 -0.6679
22484SOL    HW273289   4.199   7.936   0.548  1.2069 -0.3018  0.1342
22485SOL     OW73290   8.797  10.223  10.244 -0.1860  0.5900 -0.4731
22485SOL    HW173291   8.704  10.244  10.233 -1.1023 -2.8984 -0.9097
22485SOL    HW273292   8.836  10.240  10.158 -1.0819 -0.4080 -1.1053
22486SOL     OW73293   4.901   7.497   0.211  0.9968  0.0364  0.2575
22486SOL    HW173294   4.946   7.556   0.272  0.2718  2.3097 -1.2845
22486SOL    HW273295   4.918   7.534   0.124 -3.3039  0.7690 -0.4937
22487SOL     OW73296   0.075   2.246   2.930 -0.4557 -0.5162 -0.0804
22487SOL    HW173297   0.092   2.152   2.922  0.8054 -0.5680  2.2636
22487SOL    HW273298  -0.013   2.252   2.966 -1.0142 -0.7189 -1.3646
22488SOL     OW73299   7.847   6.576   3.074 -0.0766  0.5806 -0.2668
22488SOL    HW173300   7.794   6.655   3.081 -0.8225  0.0256  0.4870
22488SOL    HW273301   7.906   6.580   3.150  0.7513  1.0371 -0.9256
22489SOL     OW73302   8.850  10.281   7.739  0.0259 -0.0913  0.2152
22489SOL    HW173303   8.942  10.285   7.712  0.3382 -0.2980  1.2204
22489SOL    HW273304   8.819  10.195   7.708 -0.0275  0.2349 -0.6829
22490SOL     OW73305   5.008   5.138   3.932  0.1391 -0.1413 -0.1807
22490SOL    HW173306   4.923   5.182   3.945  0.6787  0.1821  3.2179
22490SOL    HW273307   5.072   5.200   3.966  1.3172 -1.9876  1.1168
22491SOL     OW73308   2.814   4.087   0.698 -0.0801  0.6278 -0.1796
22491SOL    HW173309   2.838   4.007   0.651 -2.5549 -0.5859  0.4666
22491SOL    HW273310   2.858   4.157   0.650  1.7846 -1.0279 -1.0552
22492SOL     OW73311   2.419   8.681   2.112 -0.4039 -0.1525  0.3384
22492SOL    HW173312   2.469   8.622   2.169 -0.4383 -1.2358 -0.7107
22492SOL    HW273313   2.329   8.675   2.144  0.0864  2.0279  2.4246
22493SOL     OW73314   5.001   9.150   2.244  0.5651 -0.0931  0.1449
22493SOL    HW173315   4.936   9.101   2.296 -0.1843 -0.3769 -1.0357
22493SOL    HW273316   5.012   9.098   2.164  0.8375  0.9359 -0.5005
22494SOL     OW73317   4.656   0.329   9.565  0.0418 -0.0978  0.3592
22494SOL    HW173318   4.643   0.327   9.471  3.0723 -1.0111 -0.1479
22494SOL    HW273319   4.650   0.237   9.592  0.3128  0.0267  0.8549
22495SOL     OW73320   6.431   5.078   3.031 -0.1436  0.1920 -0.4127
22495SOL    HW173321   6.475   4.997   3.055 -0.0818 -0.2144 -1.7797
22495SOL    HW273322   6.339   5.054   3.023 -0.5310  0.8586  1.6580
22496SOL     OW73323   7.072   1.094   3.886 -0.3162 -0.6712  0.2356
22496SOL    HW173324   7.099   1.089   3.795 -1.2865 -0.1766 -0.0916
22496SOL    HW273325   7.080   1.186   3.909 -1.7856 -0.4839  0.0922
22497SOL     OW73326   0.502   2.209   0.933 -0.1751 -0.4376  0.1590
22497SOL    HW173327   0.431   2.147   0.945  0.6590 -1.4227  0.1549
22497SOL    HW273328   0.540   2.186   0.848 -0.8652  1.1451 -0.6179
22498SOL     OW73329   1.024   0.141   2.324 -0.2411 -0.4937  0.5659
22498SOL    HW173330   1.072   0.219   2.351 -0.5190 -0.4773  1.0361
22498SOL    HW273331   0.933   0.161   2.345 -0.3800 -0.7427  0.2064
22499SOL     OW73332   0.959   1.955   8.721 -0.5153  0.3773  0.0609
22499SOL    HW173333   1.020   1.890   8.757 -1.0026  0.3280  0.8221
22499SOL    HW273334   0.911   1.908   8.653  1.2513  0.7952 -1.5802
22500SOL     OW73335  10.634   7.721   9.142  0.3468  0.2340 -0.8961
22500SOL    HW173336  10.687   7.723   9.222  0.2817 -0.1138 -0.8416
22500SOL    HW273337  10.627   7.812   9.115  0.9450  0.2836 -0.8861
22501SOL     OW73338   5.655   9.385   3.829  0.4658  0.2086 -0.2205
22501SOL    HW173339   5.718   9.442   3.872  1.9052 -1.2345 -0.2956
22501SOL    HW273340   5.606   9.344   3.900  1.8933 -1.1250  0.0531
22502SOL     OW73341   4.388   2.638   9.581 -0.4140  0.4832 -0.3092
22502SOL    HW173342   4.305   2.685   9.570 -0.9333 -0.7711 -2.1699
22502SOL    HW273343   4.380   2.561   9.525  2.4804  0.9223 -1.4901
22503SOL     OW73344   4.142   5.160   6.367 -0.4918 -1.0790 -0.7953
22503SOL    HW173345   4.084   5.150   6.291 -0.6829 -1.4807 -0.6004
22503SOL    HW273346   4.229   5.172   6.329 -0.7693  0.0590 -1.0979
22504SOL     OW73347   2.441   3.512   3.562 -0.0782  0.2139 -0.5589
22504SOL    HW173348   2.476   3.585   3.511 -0.1582 -0.2498 -1.3070
22504SOL    HW273349   2.353   3.498   3.526 -0.4883  0.4498  0.3280
22505SOL     OW73350   0.379   8.671   2.610 -0.1864  0.2394  0.4649
22505SOL    HW173351   0.432   8.623   2.673  0.5920 -0.3306 -0.5902
22505SOL    HW273352   0.366   8.757   2.650  3.5870  1.3100 -0.2240
22506SOL     OW73353   3.901   3.647   4.131  0.1619 -0.5015  0.0207
22506SOL    HW173354   3.977   3.665   4.075 -0.1225 -1.5287 -0.7262
22506SOL    HW273355   3.910   3.709   4.203  2.1879 -1.1602  0.4037
22507SOL     OW73356   3.669   9.414   4.436 -0.3742  0.1901 -0.3208
22507SOL    HW173357   3.576   9.392   4.430 -0.5639  1.2400 -1.8242
22507SOL    HW273358   3.670   9.503   4.470  0.2639 -0.8687  2.7802
22508SOL     OW73359   3.327  10.538   2.246  0.3684  0.1389 -0.0498
22508SOL    HW173360   3.270  10.570   2.315 -1.9177 -0.7055 -1.4433
22508SOL    HW273361   3.331  10.610   2.183  0.1256 -0.1098 -0.3552
22509SOL     OW73362   3.108   1.419   1.976  0.1154 -0.3787 -0.2155
22509SOL    HW173363   3.042   1.467   2.026  0.1506 -1.0745  0.5231
22509SOL    HW273364   3.186   1.422   2.031  0.3502 -0.5814 -0.5350
22510SOL     OW73365   5.362   5.851   9.516 -0.1622 -0.2809 -0.1439
22510SOL    HW173366   5.363   5.852   9.611 -1.6877 -0.1227 -0.1044
22510SOL    HW273367   5.389   5.763   9.492 -1.1656 -0.7772  0.4867
22511SOL     OW73368  10.018   2.419   3.869 -0.0400 -0.2419 -0.0549
22511SOL    HW173369  10.075   2.478   3.820 -0.6086  1.7973  1.5992
22511SOL    HW273370  10.033   2.441   3.961 -3.0341  0.0273  0.4818
22512SOL     OW73371  10.576   4.023   4.144 -0.0670 -0.8536 -0.5553
22512SOL    HW173372  10.494   4.016   4.193 -0.9222  0.8403 -1.6615
22512SOL    HW273373  10.639   4.059   4.207 -0.0291 -2.4860  0.3999
22513SOL     OW73374   0.766   6.793   7.886  0.3033  0.0174  0.2288
22513SOL    HW173375   0.687   6.755   7.848 -0.5999  1.9104  0.0944
22513SOL    HW273376   0.837   6.738   7.852 -0.7440 -0.3193 -1.5790
22514SOL     OW73377  10.497  10.620  10.143 -0.2491 -0.0175  0.4452
22514SOL    HW173378  10.445  10.698  10.120 -0.0755 -0.4232 -1.4991
22514SOL    HW273379  10.453  10.584  10.220 -1.8720  0.5873 -0.1446
22515SOL     OW73380   8.610   1.843   5.011 -0.1534  0.0254 -0.7772
22515SOL    HW173381   8.517   1.868   5.015 -0.1458 -0.0904  0.6106
22515SOL    HW273382   8.621   1.807   4.923 -0.8595  2.1817 -1.8129
22516SOL     OW73383   3.016  10.392   3.628 -0.2218  0.0063 -0.1742
22516SOL    HW173384   3.107  10.374   3.654  0.4466  2.5239 -0.4970
22516SOL    HW273385   2.973  10.418   3.710 -0.9144 -1.8852  0.1161
22517SOL     OW73386   9.337   2.920   3.331  0.5683  0.0154 -0.4058
22517SOL    HW173387   9.409   2.963   3.377 -0.8874 -0.1848  2.2885
22517SOL    HW273388   9.292   2.991   3.286  1.1646  0.5011 -0.2515
22518SOL     OW73389   8.355  10.688   0.046 -0.2814  0.1458 -0.5238
22518SOL    HW173390   8.345  10.703   0.140 -0.5721  0.0144 -0.5321
22518SOL    HW273391   8.415  10.613   0.040 -2.1545 -1.4500 -0.3616
22519SOL     OW73392   9.399   9.160   3.762 -0.0276  0.1324 -0.1848
22519SOL    HW173393   9.429   9.071   3.781 -0.2212 -0.1703 -1.1902
22519SOL    HW273394   9.422   9.211   3.839  1.2456 -0.5226 -0.1030
22520SOL     OW73395   2.390   9.368   3.216  0.0703 -0.1348  0.0441
22520SOL    HW173396   2.398   9.386   3.310 -2.2596 -0.6501  0.4233
22520SOL    HW273397   2.480   9.359   3.185  0.9331 -2.1907  2.6813
22521SOL     OW73398   4.352   1.354   8.553  0.2663  0.1691 -0.4077
22521SOL    HW173399   4.406   1.420   8.509 -0.1636  1.8788  1.5105
22521SOL    HW273400   4.290   1.404   8.605 -1.6984 -1.7619 -0.7226
22522SOL     OW73401   2.362   5.328   0.747 -0.1993 -0.0908 -0.2899
22522SOL    HW173402   2.319   5.305   0.664 -1.7577  1.5967 -0.0101
22522SOL    HW273403   2.334   5.258   0.808 -0.3916 -0.4405 -0.7742
22523SOL     OW73404   1.354   6.230   6.287 -0.1930  0.0328 -0.2791
22523SOL    HW173405   1.383   6.299   6.228  1.1316 -0.2852 -0.0400
22523SOL    HW273406   1.267   6.257   6.316 -1.5114 -0.4526 -3.3906
22524SOL     OW73407   0.361   5.009   3.585 -0.6985 -0.7085  0.1146
22524SOL    HW173408   0.439   5.003   3.530 -1.2506 -0.3007 -0.7325
22524SOL    HW273409   0.383   5.075   3.651 -0.0164 -1.2407  0.4337
22525SOL     OW73410  10.709   2.233   7.594  0.8062 -0.0442 -0.5117
22525SOL    HW173411  10.634   2.174   7.584  0.1292  0.8134 -0.5393
22525SOL    HW273412  10.768   2.209   7.523  0.1936 -0.1852 -0.9790
22526SOL     OW73413   9.815   6.536   6.063 -0.1374 -0.2168  0.2010
22526SOL    HW173414   9.778   6.592   6.131 -0.3721 -0.5425  0.3439
22526SOL    HW273415   9.834   6.596   5.991 -0.9049 -0.0330  0.1440
22527SOL     OW73416   0.786  10.691   4.203  0.3811  0.0676  0.0130
22527SOL    HW173417   0.865  10.666   4.155 -1.0979 -0.2519 -2.4215
22527SOL    HW273418   0.726  10.723   4.136 -0.8298  2.3870  2.0220
22528SOL     OW73419   1.365   1.691   1.085 -0.0970 -0.2554  0.3432
22528SOL    HW173420   1.389   1.598   1.092 -0.6922 -0.4462 -0.0678
22528SOL    HW273421   1.274   1.690   1.057  0.1273  0.4528 -0.4584
22529SOL     OW73422   6.335  10.776   7.242 -0.4981  0.2083 -0.0443
22529SOL    HW173423   6.306  10.866   7.256 -2.2063 -0.3105 -0.0155
22529SOL    HW273424   6.261  10.723   7.272  0.7481 -1.2241  0.5583
22530SOL     OW73425   3.067   9.800   7.289 -0.2811 -0.0079 -0.7626
22530SOL    HW173426   3.017   9.760   7.360 -0.5646  0.1696 -0.8611
22530SOL    HW273427   3.110   9.876   7.329 -2.6019  1.7195 -1.3672
22531SOL     OW73428   7.941   8.543   8.104 -0.1516 -0.0138 -0.1478
22531SOL    HW173429   7.847   8.529   8.111 -0.0176 -0.6282  0.4663
22531SOL    HW273430   7.971   8.475   8.044  0.4108 -2.1799  2.4016
22532SOL     OW73431  10.025   1.878   2.015 -0.0508  0.0311 -0.0339
22532SOL    HW173432  10.036   1.796   1.966  0.5434  0.9842 -1.5743
22532SOL    HW273433  10.111   1.894   2.054 -0.5006 -0.6818  1.3024
22533SOL     OW73434   7.589   2.162   6.513 -0.0025 -0.1967  0.2411
22533SOL    HW173435   7.594   2.183   6.607 -3.6622 -2.0509  1.0780
22533SOL    HW273436   7.537   2.234   6.476  1.1270  0.3403 -0.3335
22534SOL     OW73437   0.885   1.636   3.492  0.2410 -0.0468 -0.1549
22534SOL    HW173438   0.818   1.573   3.465  0.1673  0.9882 -2.5942
22534SOL    HW273439   0.836   1.709   3.529  0.1251  0.0294 -0.4602
22535SOL     OW73440   3.207  10.429   6.520 -0.4537 -0.2596  0.2429
22535SOL    HW173441   3.164  10.350   6.486  2.3457 -2.0203  0.5115
22535SOL    HW273442   3.169  10.501   6.469 -2.0923 -1.9020 -0.9880
22536SOL     OW73443   1.857   9.138   6.968 -0.4339 -0.2695 -0.7247
22536SOL    HW173444   1.773   9.155   6.926  0.6244  2.1446 -2.0918
22536SOL    HW273445   1.856   9.193   7.047 -0.2332 -0.4592 -0.5887
22537SOL     OW73446   2.518   8.515   7.611 -0.3416  0.2076  0.2474
22537SOL    HW173447   2.490   8.434   7.568 -1.8723  0.0323  1.4797
22537SOL    HW273448   2.536   8.489   7.701  2.3409  0.6573 -0.0770
22538SOL     OW73449   4.130   2.584   3.866  0.6449  0.0034 -0.3969
22538SOL    HW173450   4.166   2.498   3.888  0.4229  0.0339  0.0944
22538SOL    HW273451   4.186   2.616   3.795  0.2825 -0.8600 -1.0917
22539SOL     OW73452   6.200   8.796   8.091 -0.1932  0.5068  0.4229
22539SOL    HW173453   6.254   8.727   8.052 -0.9194  0.6652 -0.9008
22539SOL    HW273454   6.121   8.798   8.038 -0.8250  1.3629  1.3588
22540SOL     OW73455  10.451   1.841   0.429  0.2518  0.4469 -0.5173
22540SOL    HW173456  10.367   1.834   0.384 -0.3768 -1.1072  0.8242
22540SOL    HW273457  10.434   1.898   0.504  0.2340 -0.3481  0.0892
22541SOL     OW73458   3.528   5.772   0.654  0.2083  0.2058  0.1451
22541SOL    HW173459   3.603   5.823   0.686  0.5462  0.2430 -0.6899
22541SOL    HW273460   3.466   5.838   0.624  0.5520  0.1349 -0.7297
22542SOL     OW73461   4.448   2.144  10.555 -0.0888 -0.1101 -0.1262
22542SOL    HW173462   4.394   2.079  10.600  1.2995 -0.9058  0.4355
22542SOL    HW273463   4.480   2.099  10.477 -1.0852  0.7125 -1.0424
22543SOL     OW73464   1.194   3.912   4.090 -0.4375  0.7550  0.0720
22543SOL    HW173465   1.144   3.867   4.158 -0.6471  2.0599  0.8056
22543SOL    HW273466   1.285   3.891   4.111 -0.5886 -1.5632 -1.2260
22544SOL     OW73467  10.140   5.145  10.159  0.3066  0.1743  0.1025
22544SOL    HW173468  10.207   5.105  10.104 -0.3415 -1.1276  0.2197
22544SOL    HW273469  10.058   5.130  10.111 -0.0674  0.4949  0.6249
22545SOL     OW73470   3.737   7.943   2.308  0.5748  0.7480 -0.0409
22545SOL    HW173471   3.822   7.901   2.301  0.2532  0.1517 -0.4640
22545SOL    HW273472   3.675   7.878   2.275 -0.2246  0.5783  1.6963
22546SOL     OW73473   5.202   5.609   2.376 -0.0553 -0.2173  0.3650
22546SOL    HW173474   5.255   5.628   2.299 -1.2286  0.1244 -0.3944
22546SOL    HW273475   5.185   5.694   2.415 -0.9793 -0.1931 -0.0603
22547SOL     OW73476   0.302   5.085   1.054  0.1820 -0.2421 -0.3279
22547SOL    HW173477   0.236   5.132   1.106 -0.4550  0.0549 -1.3714
22547SOL    HW273478   0.251   5.036   0.990  0.8408 -2.3677  0.7031
22548SOL     OW73479  10.421   7.389   1.827 -0.2755 -0.5192 -0.5449
22548SOL    HW173480  10.352   7.378   1.762 -1.5671 -0.1926  0.7222
22548SOL    HW273481  10.377   7.381   1.912  1.4346 -1.4501  0.3222
22549SOL     OW73482   0.102   3.388   2.593  0.3677  0.8642  0.3969
22549SOL    HW173483   0.154   3.449   2.645 -1.7241  2.0761  1.2092
22549SOL    HW273484   0.087   3.434   2.510 -0.1801  0.9398  0.5337
22550SOL     OW73485   8.211   7.495   4.295 -0.0857  0.1578  0.0441
22550SOL    HW173486   8.276   7.496   4.224 -1.5992  1.1717 -1.3961
22550SOL    HW273487   8.134   7.454   4.256 -0.8265  0.3905  1.2399
22551SOL     OW73488   0.373   0.545  10.686 -0.2533 -0.4133 -0.3423
22551SOL    HW173489   0.373   0.493  10.766  0.5563  1.0140  0.6253
22551SOL    HW273490   0.453   0.520  10.641  0.0097 -0.2004  0.0020
22552SOL     OW73491   1.369   4.606   9.326 -0.4324  0.8565  0.6309
22552SOL    HW173492   1.305   4.638   9.389 -2.0460 -2.3009  0.8028
22552SOL    HW273493   1.331   4.625   9.240 -0.5554  0.9399  0.7047
22553SOL     OW73494   4.117   9.010   7.987 -0.6342 -0.1140 -0.3107
22553SOL    HW173495   4.087   8.974   7.903 -0.6930 -1.5905  0.3143
22553SOL    HW273496   4.042   8.999   8.046 -0.9314  1.7780 -0.2570
22554SOL     OW73497   4.064   8.695   5.402  0.7149  0.1151 -0.0837
22554SOL    HW173498   4.025   8.609   5.420  2.4922 -0.7130  0.0969
22554SOL    HW273499   4.044   8.747   5.480 -0.2824 -0.1676 -0.1379
22555SOL     OW73500   2.276   8.307   5.656  0.0389  0.4993  0.3992
22555SOL    HW173501   2.266   8.233   5.716 -2.3128  0.9099  0.6136
22555SOL    HW273502   2.331   8.273   5.585  0.1506 -1.0148  1.1667
22556SOL     OW73503   4.276  10.093   9.059 -0.2787  0.7034  0.3056
22556SOL    HW173504   4.280  10.186   9.035  0.4008  0.6917  0.3731
22556SOL    HW273505   4.203  10.088   9.121 -1.6733  0.8411 -1.2354
22557SOL     OW73506   0.019   9.888   3.847 -0.0657  0.1610 -0.1218
22557SOL    HW173507   0.014   9.814   3.787 -0.4330  0.8002 -0.8915
22557SOL    HW273508   0.077   9.858   3.917 -0.3813 -0.9304 -0.3079
22558SOL     OW73509   1.425   2.686  10.110  0.5372 -0.0781 -0.8670
22558SOL    HW173510   1.390   2.767  10.146  0.5408  0.1635 -1.3933
22558SOL    HW273511   1.350   2.643  10.070  0.9278  0.7589 -2.5852
22559SOL     OW73512  10.843   6.395  10.763 -0.1861  0.1794 -0.1783
22559SOL    HW173513  10.787   6.322  10.787 -0.3879  0.6825  0.9381
22559SOL    HW273514  10.918   6.389  10.822  0.5306  0.0257 -1.0666
22560SOL     OW73515   2.666   1.228   9.714  0.1118 -0.5896  0.0785
22560SOL    HW173516   2.642   1.138   9.736  0.6480 -0.3958  1.5363
22560SOL    HW273517   2.643   1.279   9.791  0.3915  0.4307 -0.4956
22561SOL     OW73518   5.016  10.699  10.088 -0.2071 -0.0837  0.5136
22561SOL    HW173519   5.063  10.756  10.027  1.6820 -1.9905  0.0470
22561SOL    HW273520   4.928  10.693  10.053  0.5820 -0.3762 -1.5679
22562SOL     OW73521  10.279   5.604   1.875 -0.1167  0.3534 -0.0908
22562SOL    HW173522  10.281   5.522   1.827  0.3273 -0.1822  0.8190
22562SOL    HW273523  10.370   5.621   1.900 -0.2337  1.0037 -0.0735
22563SOL     OW73524   7.959   9.604   5.626  0.2077  0.1860  0.1122
22563SOL    HW173525   7.977   9.636   5.714 -0.1635  0.4489  0.0978
22563SOL    HW273526   8.044   9.602   5.583  0.3507  0.3373  0.3851
22564SOL     OW73527   1.710   4.193   9.204 -0.5879  0.3304 -0.0743
22564SOL    HW173528   1.726   4.247   9.126 -0.3508  0.2027 -0.1158
22564SOL    HW273529   1.717   4.253   9.277 -0.1816  0.3291 -0.1106
22565SOL     OW73530   0.320  10.814   5.347  0.2679 -0.1822 -0.1373
22565SOL    HW173531   0.255  10.883   5.361  0.0299 -0.2351 -0.9547
22565SOL    HW273532   0.298  10.746   5.411  0.4102  0.4224  0.5699
22566SOL     OW73533   0.689   7.986   8.773  0.0122 -0.0888  0.2780
22566SOL    HW173534   0.661   7.941   8.853  1.7514 -0.2270  0.8610
22566SOL    HW273535   0.635   7.950   8.704  0.7896 -2.5226  0.8467
22567SOL     OW73536   2.539   8.226   2.478 -0.1731  0.0315  0.1139
22567SOL    HW173537   2.540   8.140   2.520  0.1625 -1.0804 -2.0216
22567SOL    HW273538   2.631   8.255   2.479 -0.1830  0.0607  0.2219
22568SOL     OW73539   6.224   4.176   9.563  0.8290 -0.5814  0.0340
22568SOL    HW173540   6.186   4.234   9.629  1.2832  2.9200 -2.4468
22568SOL    HW273541   6.150   4.130   9.525 -0.4315  2.3670 -1.3600
22569SOL     OW73542   8.321   6.123   1.884 -0.4330  0.0665 -0.3094
22569SOL    HW173543   8.235   6.095   1.852 -0.7822 -0.2691  0.8738
22569SOL    HW273544   8.383   6.063   1.840 -0.9217 -0.5730 -0.1470
22570SOL     OW73545   2.156   5.082   4.991 -0.0071 -0.1769  0.5231
22570SOL    HW173546   2.159   5.098   4.896  0.3051 -2.3474  0.1163
22570SOL    HW273547   2.220   5.013   5.006  0.9387  1.0521  2.5692
22571SOL     OW73548   5.767   2.446   8.301 -0.0442  0.0354 -0.0422
22571SOL    HW173549   5.723   2.531   8.308 -1.3544 -0.5159 -0.9694
22571SOL    HW273550   5.696   2.385   8.279  1.2284 -0.8609 -1.9447
22572SOL     OW73551   4.855   9.818   5.086 -0.5784 -0.2148 -0.0467
22572SOL    HW173552   4.817   9.841   5.171 -0.3133  1.2270 -0.2950
22572SOL    HW273553   4.896   9.899   5.055 -1.1608 -0.5441 -1.8048
22573SOL     OW73554   4.999   5.610   9.354 -0.3477 -0.2472  0.7903
22573SOL    HW173555   5.003   5.689   9.408 -1.1596 -0.2839  0.9170
22573SOL    HW273556   4.908   5.581   9.361 -0.2839 -0.6603 -0.0184
22574SOL     OW73557  10.703   0.610   7.070 -0.3634  0.8772  0.7539
22574SOL    HW173558  10.713   0.521   7.104 -0.1113  1.5427  2.5397
22574SOL    HW273559  10.772   0.660   7.115 -0.3955  1.9441 -0.3419
22575SOL     OW73560   6.777   2.746   1.789  0.3298  0.5279  0.2017
22575SOL    HW173561   6.700   2.701   1.823  0.7309 -0.3320  0.0007
22575SOL    HW273562   6.743   2.823   1.745 -0.3298  0.7417  1.0523
22576SOL     OW73563   6.110   2.148   7.357 -0.3929  0.2684 -0.1627
22576SOL    HW173564   6.158   2.068   7.337  0.5297  0.4566  1.1789
22576SOL    HW273565   6.029   2.118   7.398 -0.2079  0.0100  0.0182
22577SOL     OW73566  10.050   4.916   3.023  0.3035  0.1779 -0.2881
22577SOL    HW173567  10.076   4.853   3.090  1.7127 -1.2623 -2.0926
22577SOL    HW273568  10.108   4.991   3.037 -1.9267  1.5779  2.3893
22578SOL     OW73569  10.362  10.759   4.851  0.2614  0.0304  0.3817
22578SOL    HW173570  10.427  10.732   4.785 -1.0473 -2.4433 -0.0050
22578SOL    HW273571  10.282  10.776   4.801  0.2014  1.7975  0.9975
22579SOL     OW73572   0.117   6.422   5.633 -0.1576  0.6921 -0.0243
22579SOL    HW173573   0.046   6.436   5.571 -1.1359 -1.6896  0.4459
22579SOL    HW273574   0.186   6.482   5.605 -1.7066  1.8653 -1.5178
22580SOL     OW73575   6.750   2.008   6.303  0.2643  0.1221  0.4766
22580SOL    HW173576   6.776   1.954   6.378  3.0924  0.0208 -0.4310
22580SOL    HW273577   6.833   2.032   6.262 -0.9474  3.8057 -0.1469
22581SOL     OW73578   9.495   4.046   3.317  0.6167  0.0776 -0.2988
22581SOL    HW173579   9.544   4.128   3.313  1.1026 -0.2002 -0.1087
22581SOL    HW273580   9.562   3.978   3.333  0.0535 -0.1567  1.2518
22582SOL     OW73581   7.486   1.807   0.902 -0.6666  0.2136  0.3422
22582SOL    HW173582   7.391   1.801   0.891 -0.5887 -1.6580  0.4093
22582SOL    HW273583   7.505   1.747   0.974  0.6846 -0.3329 -0.4397
22583SOL     OW73584  10.881   0.370   0.257  0.0604  0.0420  0.3173
22583SOL    HW173585  10.977   0.361   0.258 -0.0312 -1.1596 -0.1321
22583SOL    HW273586  10.853   0.327   0.338 -0.2306 -1.6673 -0.6533
22584SOL     OW73587   3.973   1.917   7.776 -0.1554  0.0738 -0.1924
22584SOL    HW173588   3.941   1.851   7.837  0.8571 -0.6168 -0.3853
22584SOL    HW273589   3.904   1.984   7.775 -1.3053 -1.0685 -0.1683
22585SOL     OW73590   6.077   5.236  10.907 -0.4575  0.5343 -0.3952
22585SOL    HW173591   6.138   5.184  10.959 -1.5771 -1.3009 -0.8122
22585SOL    HW273592   6.007   5.259  10.968 -0.6060  0.3998 -0.5115
22586SOL     OW73593   7.355   2.340   5.334  0.8256 -0.1065  0.0113
22586SOL    HW173594   7.437   2.308   5.296  0.6037  0.0202 -0.5906
22586SOL    HW273595   7.377   2.426   5.370  1.3867 -0.8255  1.4953
22587SOL     OW73596   0.357   3.386   1.198 -0.5205 -0.3711 -0.1685
22587SOL    HW173597   0.312   3.470   1.193 -0.9361 -0.5426  0.5129
22587SOL    HW273598   0.318   3.343   1.275  2.5634  0.5344  2.1085
22588SOL     OW73599   9.809  10.350   6.363  0.0364 -0.8188 -0.1821
22588SOL    HW173600   9.825  10.429   6.311  0.6049 -0.4878  0.4791
22588SOL    HW273601   9.718  10.358   6.390  0.8727  1.2261  2.4539
22589SOL     OW73602   3.029   2.462   4.453  0.1822  0.8043  0.2487
22589SOL    HW173603   2.982   2.470   4.370 -0.6226  0.9683  0.7134
22589SOL    HW273604   3.082   2.383   4.443 -2.1436 -0.9026  0.6507
22590SOL     OW73605   1.143   2.659   3.865  0.8307  0.2257 -0.2071
22590SOL    HW173606   1.152   2.645   3.960 -2.7749  1.4272  0.4738
22590SOL    HW273607   1.191   2.741   3.849 -0.0079  0.9812  0.9793
22591SOL     OW73608   4.416   4.141   4.753 -0.5035 -0.1687  0.1082
22591SOL    HW173609   4.348   4.207   4.743  0.1172  0.6377  1.1388
22591SOL    HW273610   4.499   4.188   4.739 -0.1193 -1.1113 -1.0237
22592SOL     OW73611   1.654   9.029   5.510 -0.3525  0.1520  0.2792
22592SOL    HW173612   1.673   9.111   5.557 -0.8951  0.9770 -0.9082
22592SOL    HW273613   1.731   8.975   5.526 -0.0376  0.8314  1.1931
22593SOL     OW73614   6.338   0.931   8.693  0.4963 -0.1378 -0.3124
22593SOL    HW173615   6.302   1.019   8.706  1.3111 -0.0954  2.3509
22593SOL    HW273616   6.273   0.886   8.639 -0.3892  1.7873 -0.9573
22594SOL     OW73617   2.996   9.625   4.306  0.4485 -0.5448  0.0223
22594SOL    HW173618   3.083   9.599   4.275  0.2330  0.3246 -1.4519
22594SOL    HW273619   2.935   9.583   4.245 -0.1071 -0.2578  0.3690
22595SOL     OW73620   1.454   0.045   6.902 -0.4778  0.0604 -0.0682
22595SOL    HW173621   1.473   0.138   6.913  0.0131  0.0159 -0.4793
22595SOL    HW273622   1.380   0.042   6.841  0.2773  0.1575 -1.0179
22596SOL     OW73623   3.574  10.637   4.904  0.3036  0.5803 -0.0134
22596SOL    HW173624   3.559  10.723   4.943  4.5915  0.8037  1.6353
22596SOL    HW273625   3.560  10.576   4.976  2.2516  0.4483  0.3041
22597SOL     OW73626   0.318   9.796   1.248 -0.1531 -0.5396 -0.1989
22597SOL    HW173627   0.300   9.885   1.218 -0.9461 -0.9070 -0.8540
22597SOL    HW273628   0.358   9.753   1.172 -0.3484 -0.9150 -0.0895
22598SOL     OW73629   2.997   5.737   9.533 -0.3054 -0.4738 -0.4564
22598SOL    HW173630   3.050   5.660   9.512  0.0896 -0.5281  0.6623
22598SOL    HW273631   3.003   5.745   9.628 -0.4320  0.8749 -0.5417
22599SOL     OW73632   4.031   5.507   7.746  0.2225 -0.4860  0.4297
22599SOL    HW173633   3.978   5.457   7.808 -0.4278 -1.6183 -0.9791
22599SOL    HW273634   4.096   5.445   7.714  0.2545 -0.0622 -0.3552
22600SOL     OW73635   2.126   7.900   0.953  0.1382 -0.1186  0.8548
22600SOL    HW173636   2.199   7.961   0.943  1.4211 -1.4557  1.5192
22600SOL    HW273637   2.058   7.950   0.997  1.2252  0.7841  1.5793
22601SOL     OW73638   3.043   9.646   9.874  0.4322 -0.4197 -0.0069
22601SOL    HW173639   3.027   9.653   9.968 -0.3242 -1.8925  0.0121
22601SOL    HW273640   2.962   9.610   9.839  0.4089  0.8528 -1.3632
22602SOL     OW73641  10.830   5.795   1.188 -0.4569  0.1067  0.4604
22602SOL    HW173642  10.891   5.862   1.157  0.1863  0.8911  3.1333
22602SOL    HW273643  10.839   5.723   1.125  1.9659  0.8687 -0.1767
22603SOL     OW73644   3.877   2.351   4.192 -0.2655  0.2906  0.1997
22603SOL    HW173645   3.931   2.284   4.234  0.3003  0.7325  0.1861
22603SOL    HW273646   3.834   2.305   4.119  0.1178 -0.0526  0.1861
22604SOL     OW73647   6.719   4.628   7.139  0.4273  0.1718  0.4779
22604SOL    HW173648   6.648   4.680   7.175  1.0439  0.0115  1.9867
22604SOL    HW273649   6.680   4.542   7.124 -0.0099  0.4304  0.0703
22605SOL     OW73650   2.636   7.815   9.808  0.4575  0.0022  0.0447
22605SOL    HW173651   2.567   7.881   9.810 -0.2079 -0.6084 -1.2513
22605SOL    HW273652   2.594   7.736   9.844  1.1946  0.2118  1.4314
22606SOL     OW73653   8.327   6.767   5.348 -0.0130  0.0242  0.3167
22606SOL    HW173654   8.304   6.847   5.395 -0.9587 -0.4809  0.7408
22606SOL    HW273655   8.305   6.696   5.408  1.3620 -0.5528  0.1808
22607SOL     OW73656   8.087   6.131   8.867  0.7110  0.2903 -0.1657
22607SOL    HW173657   8.044   6.053   8.833  0.7282  0.3869 -0.4072
22607SOL    HW273658   8.174   6.100   8.894  0.9831  0.3735 -0.9353
22608SOL     OW73659   8.835   9.798   5.777 -0.0483 -0.0231  0.1558
22608SOL    HW173660   8.801   9.860   5.712  1.6609 -0.0772 -0.8560
22608SOL    HW273661   8.912   9.760   5.735  0.0120 -1.4634  1.5029
22609SOL     OW73662   8.657   8.030   1.982  0.2704  0.3048 -0.4587
22609SOL    HW173663   8.696   7.955   2.028  2.2885  1.9145  0.6686
22609SOL    HW273664   8.625   7.995   1.900  0.0029 -2.0056  0.5616
22610SOL     OW73665   4.681   3.439   1.416 -0.0837 -0.1361 -0.3663
22610SOL    HW173666   4.708   3.426   1.325  0.7293 -0.3976 -0.1012
22610SOL    HW273667   4.645   3.355   1.443  1.4600 -0.6747  0.1249
22611SOL     OW73668   2.866   6.041   8.847 -0.7888  0.6431  0.3166
22611SOL    HW173669   2.772   6.036   8.862 -0.7561  0.8381  0.5882
22611SOL    HW273670   2.901   5.962   8.888 -1.0243 -0.4151 -1.3796
22612SOL     OW73671   5.747   0.686   4.204  0.0892  0.1432 -0.7141
22612SOL    HW173672   5.839   0.709   4.197 -0.1324  1.0094 -0.8762
22612SOL    HW273673   5.701   0.756   4.158 -0.7121  0.2984  0.2946
22613SOL     OW73674   7.616   8.698   6.491 -0.7018 -0.3977  0.1280
22613SOL    HW173675   7.600   8.684   6.584 -0.1394  1.7061  0.6130
22613SOL    HW273676   7.673   8.626   6.464  0.5926 -0.0921  1.8768
22614SOL     OW73677   4.480   3.464   4.709  0.1650 -0.3138  0.3634
22614SOL    HW173678   4.399   3.507   4.736 -0.5347 -0.6711 -1.0783
22614SOL    HW273679   4.505   3.411   4.785 -0.1352  0.9175  1.3547
22615SOL     OW73680   9.612   5.531   0.670  0.4743  0.0407  0.5008
22615SOL    HW173681   9.695   5.568   0.640  1.2563 -1.3525  0.8269
22615SOL    HW273682   9.626   5.436   0.668 -0.6325 -0.1987  1.8892
22616SOL     OW73683   7.728   5.046   6.255 -0.1447 -0.2787 -0.2540
22616SOL    HW173684   7.743   5.123   6.201 -0.5962 -0.5800 -0.8185
22616SOL    HW273685   7.633   5.044   6.270  0.1216  0.8934  2.2089
22617SOL     OW73686   2.284   8.340   7.399  0.2707  0.7279  0.2864
22617SOL    HW173687   2.221   8.332   7.328 -1.1176  1.0697  1.4140
22617SOL    HW273688   2.359   8.287   7.372 -0.0899  1.1032 -1.5350
22618SOL     OW73689   9.940   1.188   3.306 -0.2710  0.5433  0.6306
22618SOL    HW173690   9.953   1.176   3.212  1.7937  0.9213  0.8220
22618SOL    HW273691   9.897   1.108   3.335 -2.4085  1.0908 -0.8678
22619SOL     OW73692   6.635   3.287   9.332 -0.0425 -0.1397  0.2564
22619SOL    HW173693   6.558   3.245   9.370 -0.1400 -0.8157 -0.6513
22619SOL    HW273694   6.682   3.323   9.407 -1.0368 -0.0585  0.8568
22620SOL     OW73695   7.779   8.708   9.490 -0.3127  0.2624  0.4004
22620SOL    HW173696   7.807   8.727   9.401 -1.9091  0.3816 -0.1181
22620SOL    HW273697   7.858   8.680   9.536  0.4859 -0.0300 -1.1179
22621SOL     OW73698   5.154   9.235   0.491  0.2874  0.0187  0.1589
22621SOL    HW173699   5.109   9.256   0.410 -1.3134 -0.9053  0.7728
22621SOL    HW273700   5.232   9.186   0.463 -1.1011 -1.7654 -0.7819
22622SOL     OW73701   7.170   6.863   8.875 -0.1862  0.1134  0.2991
22622SOL    HW173702   7.223   6.930   8.832 -0.1144 -0.7356 -0.9736
22622SOL    HW273703   7.134   6.810   8.803  0.2375 -1.5788  1.2716
22623SOL     OW73704   9.661   5.290   7.225 -0.3468  0.0450 -0.1101
22623SOL    HW173705   9.646   5.220   7.289  0.8726  1.2461  1.5741
22623SOL    HW273706   9.673   5.369   7.278  2.0797  0.8710 -1.6977
22624SOL     OW73707   9.407   6.459   8.484 -0.7710  0.0300 -0.5204
22624SOL    HW173708   9.355   6.379   8.494  0.9833 -1.0649  0.1630
22624SOL    HW273709   9.399   6.503   8.569  0.5158 -0.8438  0.0752
22625SOL     OW73710   7.307   0.571   5.202  0.0875 -0.0740  0.0765
22625SOL    HW173711   7.374   0.571   5.271  0.1152 -0.2155  0.0498
22625SOL    HW273712   7.353   0.600   5.124  0.3032 -0.9115 -0.1188
22626SOL     OW73713  10.483   9.406   4.994  0.1586 -0.6074 -0.5895
22626SOL    HW173714  10.577   9.393   4.977  0.3724  0.5358 -0.3812
22626SOL    HW273715  10.468   9.497   4.971 -0.9390 -0.8123 -0.7116
22627SOL     OW73716   6.226   5.200   1.271 -0.5939  0.0964 -0.6763
22627SOL    HW173717   6.212   5.139   1.343 -0.0940 -0.9474 -1.4326
22627SOL    HW273718   6.170   5.275   1.291 -0.7797 -0.3543  0.5711
22628SOL     OW73719   0.430   3.633  10.215  0.0542  0.1161  0.5064
22628SOL    HW173720   0.364   3.574  10.179  0.2687  0.8215 -1.1112
22628SOL    HW273721   0.485   3.578  10.271 -1.9339 -0.4810  2.0073
22629SOL     OW73722   7.029   0.562   5.356  0.0227  0.5483  0.0860
22629SOL    HW173723   6.970   0.495   5.320 -0.2775  1.3790 -1.0262
22629SOL    HW273724   7.114   0.543   5.317  0.4304 -0.4045  1.3759
22630SOL     OW73725   8.320   0.375   8.083  0.7383  0.4826 -0.4084
22630SOL    HW173726   8.396   0.394   8.027 -0.7714  0.1384 -2.7028
22630SOL    HW273727   8.314   0.280   8.082 -0.8488  0.5510 -1.9449
22631SOL     OW73728   9.806   9.200  10.210 -0.5401 -0.2245  0.0781
22631SOL    HW173729   9.890   9.153  10.211 -1.2549 -1.5919  1.4980
22631SOL    HW273730   9.790   9.219  10.118 -0.5617 -3.5780 -0.7602
22632SOL     OW73731   2.077   6.909   7.099 -0.3410  0.8712 -0.0954
22632SOL    HW173732   1.988   6.874   7.102 -0.5596  1.3703 -0.5579
22632SOL    HW273733   2.079   6.962   7.019  0.4429  0.6722 -0.2172
22633SOL     OW73734   2.078   9.369   4.363  0.1471  0.7430 -0.3890
22633SOL    HW173735   2.083   9.292   4.420 -0.6047  2.8555  2.7545
22633SOL    HW273736   2.020   9.342   4.291  1.1996 -2.0726 -0.3097
22634SOL     OW73737   7.288   7.526   2.416  0.9256 -0.4414  0.1231
22634SOL    HW173738   7.205   7.478   2.422 -0.9882  2.4622 -0.7987
22634SOL    HW273739   7.290   7.582   2.493  2.6281 -1.2368  0.7039
22635SOL     OW73740   4.704   0.061   6.927  0.0204 -0.5551  0.1171
22635SOL    HW173741   4.664   0.147   6.943  0.5848 -0.6381  2.2824
22635SOL    HW273742   4.798   0.078   6.928  0.1338 -0.9276 -1.4220
22636SOL     OW73743   2.584   7.269  10.218  0.0868 -0.3919  0.5987
22636SOL    HW173744   2.670   7.229  10.208  0.0161 -0.3652 -0.1633
22636SOL    HW273745   2.553   7.282  10.128 -0.5503 -0.0571  0.8625
22637SOL     OW73746   5.394   9.226   3.665  0.3390 -0.1063 -0.0092
22637SOL    HW173747   5.411   9.132   3.676  0.2318  0.0219  1.3556
22637SOL    HW273748   5.417   9.265   3.749  0.8594  1.1702 -0.7266
22638SOL     OW73749   7.290   1.346   6.368  0.2108 -0.2552  0.0733
22638SOL    HW173750   7.216   1.365   6.426  0.8558  1.0049  0.5213
22638SOL    HW273751   7.262   1.380   6.283  1.1106  2.4310  0.7350
22639SOL     OW73752   7.005   1.086   5.539 -0.1493  0.2400 -0.1768
22639SOL    HW173753   7.026   1.034   5.461  0.0574  1.6055 -1.0550
22639SOL    HW273754   6.918   1.121   5.523  0.2485  1.2434 -0.1929
22640SOL     OW73755   9.656   9.430   3.969  0.0864  0.0470  0.1622
22640SOL    HW173756   9.665   9.394   3.881  0.4278  0.7121 -0.0802
22640SOL    HW273757   9.604   9.365   4.016  0.3637 -0.5719 -0.3733
22641SOL     OW73758   8.275   5.851   7.551  0.5719  0.1673  0.3073
22641SOL    HW173759   8.277   5.917   7.482  1.4681  0.6934  0.8111
22641SOL    HW273760   8.323   5.776   7.514  0.3690  0.1562  0.0723
22642SOL     OW73761   9.644  10.169   3.566  0.2341  0.4515  0.3240
22642SOL    HW173762   9.712  10.152   3.500  0.6199  1.7698  0.3612
22642SOL    HW273763   9.587  10.234   3.525 -1.1018 -0.7158  0.2494
22643SOL     OW73764   4.325   0.485   8.109 -0.0587  0.2671 -0.4246
22643SOL    HW173765   4.400   0.437   8.146  0.7458  1.6468 -0.2004
22643SOL    HW273766   4.282   0.525   8.184 -0.3602  0.3905 -0.6622
22644SOL     OW73767   3.553   6.607   2.529  0.0011  0.4977  0.8298
22644SOL    HW173768   3.533   6.622   2.436  2.1367  0.5091  0.3275
22644SOL    HW273769   3.494   6.666   2.576 -0.8135  0.8093 -0.5215
22645SOL     OW73770   8.971   0.670   5.354  0.7525  0.3540  0.4753
22645SOL    HW173771   9.034   0.633   5.416 -0.1054 -1.4781  0.3170
22645SOL    HW273772   8.887   0.666   5.400  0.3236  0.2655 -0.3143
22646SOL     OW73773   2.772  10.106   6.805  0.4331 -0.2250 -0.4750
22646SOL    HW173774   2.791  10.013   6.821  1.2339  0.2730  1.9421
22646SOL    HW273775   2.695  10.124   6.858  1.1868  0.7877  0.3318
22647SOL     OW73776   3.217  10.353   2.091 -0.8200 -0.4380  0.0066
22647SOL    HW173777   3.290  10.322   2.037  0.4403  0.6851  0.9769
22647SOL    HW273778   3.256  10.420   2.147 -2.6232  0.2171  0.5556
22648SOL     OW73779   3.552   4.728   2.041  0.0472 -0.1077  0.0325
22648SOL    HW173780   3.538   4.778   2.122  0.1261 -0.2304  0.1216
22648SOL    HW273781   3.612   4.658   2.066  0.4793  0.1521 -0.2428
22649SOL     OW73782   5.854   4.128   3.692  0.1180 -0.6237 -0.2122
22649SOL    HW173783   5.852   4.045   3.740  0.6949 -0.3364  0.3069
22649SOL    HW273784   5.940   4.130   3.650 -0.7227 -1.3279 -2.0948
22650SOL     OW73785   8.796   6.856   9.441  0.1180  0.1475  0.1310
22650SOL    HW173786   8.740   6.933   9.451 -1.4431 -0.7039 -1.5735
22650SOL    HW273787   8.832   6.842   9.529 -1.7927  1.1679  1.1526
22651SOL     OW73788   2.586   8.346   8.382  0.1356  0.1222 -0.1430
22651SOL    HW173789   2.521   8.304   8.325 -0.4873 -1.2579  1.4622
22651SOL    HW273790   2.655   8.280   8.392  0.5819  0.6198  0.1063
22652SOL     OW73791   3.989   7.001   8.991 -0.5641 -0.4687 -0.2764
22652SOL    HW173792   3.906   6.992   9.038 -1.1778  2.2498 -0.6991
22652SOL    HW273793   3.967   6.984   8.899 -0.6463  0.2047 -0.3824
22653SOL     OW73794   1.259   1.694   4.618 -0.1328  0.5225 -0.4270
22653SOL    HW173795   1.194   1.752   4.657 -0.4181 -0.0541 -0.0319
22653SOL    HW273796   1.323   1.679   4.688 -1.2289 -1.4114  0.2525
22654SOL     OW73797  10.186   2.808   8.945  0.1498  0.8354  0.4413
22654SOL    HW173798  10.271   2.764   8.937  0.5365  1.9003 -2.0576
22654SOL    HW273799  10.202   2.880   9.006  0.4215 -0.2696  1.7375
22655SOL     OW73800   6.592   0.099   1.543 -0.3643  0.1023 -0.0047
22655SOL    HW173801   6.671   0.047   1.553  0.3197  1.2131  0.6190
22655SOL    HW273802   6.567   0.088   1.451  0.0954 -0.8325 -0.0261
22656SOL     OW73803   3.117   1.767   8.103  0.3529  0.1500  0.0452
22656SOL    HW173804   3.110   1.833   8.171  2.7346 -0.0065  0.5295
22656SOL    HW273805   3.040   1.711   8.116 -0.3329  1.3185  1.2642
22657SOL     OW73806   4.239  10.413   3.370 -0.0594  0.3252 -0.1759
22657SOL    HW173807   4.241  10.391   3.277 -2.4195  1.5082 -0.5855
22657SOL    HW273808   4.194  10.340   3.412  1.0331 -0.2237  0.0729
22658SOL     OW73809   4.904   8.925   9.043 -0.0945 -0.3683 -0.1075
22658SOL    HW173810   4.845   8.852   9.062  0.5200 -0.6666  0.6781
22658SOL    HW273811   4.937   8.952   9.128  2.1832 -1.2990 -0.6235
22659SOL     OW73812   5.123   6.072   6.501 -0.0208 -0.4361  0.1155
22659SOL    HW173813   5.192   6.043   6.441 -1.4706  0.0727 -1.9111
22659SOL    HW273814   5.049   6.013   6.483 -0.9162  0.5500  0.4265
22660SOL     OW73815   4.608   2.071   6.256 -0.4762  0.2050  0.2143
22660SOL    HW173816   4.639   2.037   6.172  1.2013 -0.4506  1.0618
22660SOL    HW273817   4.554   2.146   6.233  0.2862  0.2794 -1.4293
22661SOL     OW73818   4.373   0.354   9.006  0.7236 -0.4076  0.0640
22661SOL    HW173819   4.406   0.340   8.917  1.0013  0.4306  0.0186
22661SOL    HW273820   4.369   0.267   9.045 -1.5162 -1.0642 -1.4842
22662SOL     OW73821   1.182   7.720   8.354  0.0104  0.5840 -0.2096
22662SOL    HW173822   1.206   7.648   8.297 -0.2908  0.3561 -0.0488
22662SOL    HW273823   1.097   7.696   8.390 -0.0793  1.0026 -0.1291
22663SOL     OW73824   4.919   3.093   1.430 -0.7861 -0.4618 -0.3205
22663SOL    HW173825   4.964   3.009   1.437 -1.9624 -1.1754 -1.1250
22663SOL    HW273826   4.888   3.111   1.518 -2.0778 -1.7662 -0.4796
22664SOL     OW73827   8.251   2.658   3.593 -0.4802  0.7614  0.0990
22664SOL    HW173828   8.275   2.699   3.676  0.4598  0.5620 -0.0656
22664SOL    HW273829   8.234   2.566   3.615  1.1580  0.3742 -0.1347
22665SOL     OW73830   9.471   3.665   5.197  0.2329 -0.1205  0.8831
22665SOL    HW173831   9.399   3.705   5.148 -0.4022 -1.7265  0.4504
22665SOL    HW273832   9.512   3.738   5.244  0.9299  1.5144 -2.0742
22666SOL     OW73833   5.126   9.231   1.928  0.6616  0.0001 -0.2722
22666SOL    HW173834   5.106   9.177   1.851 -1.0270  0.6298 -0.3072
22666SOL    HW273835   5.181   9.175   1.983  1.0386 -0.8269 -1.4543
22667SOL     OW73836   5.372   3.187   6.384 -0.2614  0.2196 -0.4635
22667SOL    HW173837   5.451   3.134   6.375 -0.6995 -0.5501  0.1255
22667SOL    HW273838   5.322   3.169   6.305 -0.9657 -1.2160  0.2753
22668SOL     OW73839   1.674   0.727   7.059  0.0800 -0.5241 -0.0455
22668SOL    HW173840   1.720   0.781   7.123 -0.8323  0.1476  0.0671
22668SOL    HW273841   1.736   0.658   7.036  0.3134 -0.9860  1.8167
22669SOL     OW73842   6.557   1.836   0.727 -0.2516  0.3406  0.4408
22669SOL    HW173843   6.530   1.907   0.786  0.5685  0.2753  0.9094
22669SOL    HW273844   6.556   1.875   0.640 -1.8917  0.3269  0.4153
22670SOL     OW73845   6.660   5.491   4.978 -0.5282  0.1429 -0.3099
22670SOL    HW173846   6.739   5.480   4.925 -1.1153 -2.8364 -0.7588
22670SOL    HW273847   6.597   5.533   4.919 -0.1444 -0.0881 -0.8945
22671SOL     OW73848   7.662   5.673   9.755 -0.6112 -0.5255 -0.2708
22671SOL    HW173849   7.617   5.643   9.834  0.7905 -0.2414  0.6784
22671SOL    HW273850   7.742   5.621   9.751  0.3849  0.9337 -0.2839
22672SOL     OW73851   8.334   5.082   8.562 -0.0027  0.7003 -0.1315
22672SOL    HW173852   8.249   5.047   8.535  0.5827 -0.5348 -0.4756
22672SOL    HW273853   8.374   5.011   8.613  2.2712 -0.2571 -2.9725
22673SOL     OW73854  10.792   6.186   2.376 -0.2667  0.3161 -0.0270
22673SOL    HW173855  10.843   6.257   2.336 -0.3771 -0.0633 -0.8413
22673SOL    HW273856  10.843   6.107   2.358 -0.6611  0.0551  0.0078
22674SOL     OW73857   1.700   9.289   4.375 -0.1671 -0.6288 -0.3895
22674SOL    HW173858   1.629   9.269   4.314 -1.4760 -0.8509  1.1346
22674SOL    HW273859   1.703   9.214   4.433 -0.5769  0.5753  1.2684
22675SOL     OW73860   3.712   5.820   2.549  0.0654  0.2184 -0.2784
22675SOL    HW173861   3.709   5.777   2.463  0.0001 -2.1831  0.8287
22675SOL    HW273862   3.682   5.752   2.610 -0.2237  1.9590  1.6203
22676SOL     OW73863   3.643   3.463   8.168 -0.5305 -0.1980 -0.1949
22676SOL    HW173864   3.574   3.483   8.105  0.1342  0.1146 -0.8395
22676SOL    HW273865   3.597   3.453   8.251 -1.3472  0.0395 -0.6058
22677SOL     OW73866   4.631   2.585   2.850  0.1769  0.4892 -0.2218
22677SOL    HW173867   4.649   2.552   2.938  1.7400  1.3155 -0.1909
22677SOL    HW273868   4.593   2.510   2.803 -0.3341 -0.0625  1.0348
22678SOL     OW73869   2.786   3.211   2.291  0.2099  0.0877 -0.0183
22678SOL    HW173870   2.852   3.256   2.343  0.5399 -1.1759  0.6928
22678SOL    HW273871   2.713   3.196   2.352 -0.1389  0.1926 -0.4060
22679SOL     OW73872   4.740   7.165   6.545 -0.1530  0.5363  0.5397
22679SOL    HW173873   4.758   7.073   6.525 -0.5004 -0.0256  2.5939
22679SOL    HW273874   4.797   7.214   6.485 -0.8027 -0.9645 -1.3728
22680SOL     OW73875   2.781   2.093   0.691  0.4084 -0.2571 -0.1066
22680SOL    HW173876   2.746   2.099   0.780  1.1820  1.7711  0.1132
22680SOL    HW273877   2.719   2.036   0.645 -0.6638 -0.3938  1.4205
22681SOL     OW73878   0.714   9.154   5.490 -0.1668 -0.4477  0.0733
22681SOL    HW173879   0.632   9.198   5.473 -0.0794 -0.1155  0.5114
22681SOL    HW273880   0.700   9.106   5.572  0.4777  0.6486  0.8536
22682SOL     OW73881   6.186   2.171  10.004 -0.1049 -0.4184  0.1763
22682SOL    HW173882   6.154   2.261  10.002 -0.6976 -0.5835  1.4329
22682SOL    HW273883   6.277   2.178  10.030 -0.3930 -0.2211  1.1754
22683SOL     OW73884  10.526   4.422  10.192 -0.0804  0.0197 -0.3279
22683SOL    HW173885  10.443   4.414  10.240  1.5927  1.5902  3.2548
22683SOL    HW273886  10.577   4.346  10.220  1.3230  1.5223  1.4539
22684SOL     OW73887   6.395   2.815   8.813  0.8403 -0.1458  0.0597
22684SOL    HW173888   6.473   2.771   8.847 -0.3736 -1.0399  1.8357
22684SOL    HW273889   6.336   2.743   8.791 -1.0027  0.4932  2.5585
22685SOL     OW73890   0.178   7.190   7.035 -0.4415  0.1538 -0.0117
22685SOL    HW173891   0.260   7.164   6.994 -0.0843 -0.5124  1.0674
22685SOL    HW273892   0.142   7.108   7.069 -0.9027  0.6284  0.6581
22686SOL     OW73893   0.190   0.271   6.142  0.4414  0.2867  0.3839
22686SOL    HW173894   0.252   0.343   6.153  1.8586 -0.8450  0.2583
22686SOL    HW273895   0.160   0.277   6.052  0.5380  0.7158  0.3787
22687SOL     OW73896   3.558   9.831   7.534  0.1821  0.2756 -0.6378
22687SOL    HW173897   3.490   9.773   7.500 -1.9914 -0.7320  4.5111
22687SOL    HW273898   3.519   9.918   7.531 -1.1450 -0.1862  1.5221
22688SOL     OW73899   3.422   9.791   2.817  0.4442 -0.5864 -1.3135
22688SOL    HW173900   3.511   9.827   2.812  1.6501 -2.4141  2.6212
22688SOL    HW273901   3.391   9.813   2.905 -0.6743 -4.5256 -0.4845
22689SOL     OW73902   4.383   6.012   4.272  0.0426 -0.4008  0.1201
22689SOL    HW173903   4.295   6.039   4.299  0.8488  1.2664  1.2684
22689SOL    HW273904   4.374   5.990   4.179 -1.1984  1.7452 -0.3419
22690SOL     OW73905   2.716   6.697  10.658  0.4018  0.2423  0.4131
22690SOL    HW173906   2.769   6.648  10.596 -0.7524 -0.6806  0.1156
22690SOL    HW273907   2.775   6.718  10.730  0.7539 -2.3627  0.9698
22691SOL     OW73908  10.480   6.789   7.810 -0.0770 -0.1266 -0.7170
22691SOL    HW173909  10.547   6.731   7.847  0.4535 -0.6530 -2.4244
22691SOL    HW273910  10.520   6.825   7.731 -0.7565  1.8769 -0.2061
22692SOL     OW73911   6.668   6.085   6.662  0.4111 -0.8116  0.3221
22692SOL    HW173912   6.650   6.091   6.756 -0.3992 -2.5035  0.3098
22692SOL    HW273913   6.602   6.024   6.629  0.1273  0.4227 -1.5198
22693SOL     OW73914  10.291   4.340   0.566  0.3700 -0.1972 -0.6591
22693SOL    HW173915  10.301   4.261   0.619  0.4242  1.2212  1.5963
22693SOL    HW273916  10.359   4.399   0.598 -1.0778  1.5556 -0.6644
22694SOL     OW73917   1.289   5.323   4.824  0.3876  0.2448 -0.2236
22694SOL    HW173918   1.279   5.369   4.908 -2.6289  1.0198 -0.8996
22694SOL    HW273919   1.368   5.270   4.836  1.4607  2.1789  2.2019
22695SOL     OW73920   7.547   7.450   0.187 -0.1854  0.1301 -1.0396
22695SOL    HW173921   7.483   7.521   0.192 -0.6679 -0.1987 -2.1276
22695SOL    HW273922   7.632   7.494   0.189  0.0474  0.3873  6.1082
22696SOL     OW73923   6.281   8.640   5.800  0.0383 -0.3353  0.1730
22696SOL    HW173924   6.367   8.627   5.839 -0.8236 -0.0806  2.2467
22696SOL    HW273925   6.260   8.731   5.817 -0.3978 -0.2211 -0.8923
22697SOL     OW73926   3.736   5.823   7.271 -0.2724 -0.1420  0.2521
22697SOL    HW173927   3.809   5.866   7.228 -0.1412  0.5727  1.1474
22697SOL    HW273928   3.703   5.761   7.207  1.1952 -0.5706 -0.1253
22698SOL     OW73929   7.348   6.862   7.316  0.2942 -0.3964 -0.0340
22698SOL    HW173930   7.278   6.799   7.334  0.2589 -0.2372  0.4051
22698SOL    HW273931   7.355   6.864   7.221 -0.6637 -0.0141 -0.1068
22699SOL     OW73932   7.183   0.298   6.567 -0.0443 -0.1880 -0.6064
22699SOL    HW173933   7.231   0.372   6.529 -1.0105  0.4348 -0.6515
22699SOL    HW273934   7.115   0.278   6.502 -0.1621 -0.7295 -0.3199
22700SOL     OW73935   4.505   4.047   3.218  0.9312 -0.4576 -0.5648
22700SOL    HW173936   4.450   4.040   3.141  0.4326 -3.7117 -0.0412
22700SOL    HW273937   4.459   4.108   3.276 -0.3381 -0.4844 -1.5236
22701SOL     OW73938   6.906   6.164   8.051  0.1781 -0.2815  0.1516
22701SOL    HW173939   6.823   6.120   8.070 -0.1459  0.2200 -0.0782
22701SOL    HW273940   6.905   6.178   7.956 -0.3856  1.4959  0.3839
22702SOL     OW73941  10.917   2.888   4.761  0.1622 -0.3537  0.1309
22702SOL    HW173942  10.842   2.876   4.819 -0.1268 -1.0279 -0.3532
22702SOL    HW273943  10.990   2.910   4.819 -0.2914 -0.2322  0.6619
22703SOL     OW73944   6.098   6.106   1.024 -0.7178  0.0545  0.1622
22703SOL    HW173945   6.077   6.069   0.938  1.5116 -0.2545 -0.3250
22703SOL    HW273946   6.028   6.075   1.081 -2.1383  0.0833 -1.4769
22704SOL     OW73947   6.420   9.049   5.370  0.3795  0.3284  0.0934
22704SOL    HW173948   6.329   9.079   5.376 -0.0090 -0.9733  1.1042
22704SOL    HW273949   6.459   9.106   5.303 -0.8996  1.5623  0.3316
22705SOL     OW73950   2.592   5.240   8.833 -0.3149  0.3652  0.3418
22705SOL    HW173951   2.501   5.236   8.862 -0.3171  1.3386  0.4848
22705SOL    HW273952   2.587   5.225   8.738 -0.7100  1.1739  0.2220
22706SOL     OW73953   7.253   1.493   6.125 -0.0771 -0.1808 -0.0769
22706SOL    HW173954   7.330   1.531   6.083  0.0925 -0.2144  0.2051
22706SOL    HW273955   7.191   1.567   6.132 -0.4356 -0.3665 -1.1524
22707SOL     OW73956   1.876   8.769   1.450  0.5664 -0.5747  0.0330
22707SOL    HW173957   1.898   8.850   1.496  1.0110  0.7099 -2.2763
22707SOL    HW273958   1.946   8.708   1.473  0.3331 -0.2632  1.6571
22708SOL     OW73959   2.379   4.387   9.752  0.4650  0.4292 -0.0550
22708SOL    HW173960   2.447   4.321   9.739 -0.2687 -0.1569 -1.0808
22708SOL    HW273961   2.300   4.337   9.770  0.1273  1.0676  0.2635
22709SOL     OW73962   0.632   9.073   3.338  0.1495 -0.5283  0.3404
22709SOL    HW173963   0.625   9.068   3.243 -0.4449 -2.1379  0.4284
22709SOL    HW273964   0.646   9.165   3.357 -0.4960 -0.0743 -1.2603
22710SOL     OW73965   4.735   6.878   6.507 -0.1775 -0.0970 -0.1252
22710SOL    HW173966   4.798   6.806   6.503 -0.6498 -0.4989 -0.4863
22710SOL    HW273967   4.680   6.858   6.583  0.3581  0.4512  0.4154
22711SOL     OW73968   4.392   8.130   1.890 -0.1919  0.0845 -0.0868
22711SOL    HW173969   4.396   8.209   1.835 -1.8934 -0.2047 -0.6873
22711SOL    HW273970   4.357   8.063   1.832  0.3661 -0.8825  0.6775
22712SOL     OW73971   2.037   0.080   1.254  0.3155  0.1896 -0.2365
22712SOL    HW173972   2.049   0.021   1.180 -1.6635 -1.0573  0.3418
22712SOL    HW273973   2.023   0.166   1.215  1.0472 -0.1173 -1.2038
22713SOL     OW73974   3.722   6.825   3.933 -0.2816 -0.7363 -0.4936
22713SOL    HW173975   3.817   6.815   3.933 -0.4086 -3.3943  1.6465
22713SOL    HW273976   3.707   6.919   3.941  2.0572 -0.0487 -2.8708
22714SOL     OW73977   3.713   5.819   8.448 -0.4906 -0.3006 -0.3893
22714SOL    HW173978   3.708   5.895   8.505 -0.6876 -1.7559  1.6130
22714SOL    HW273979   3.787   5.768   8.482 -0.3739 -1.0382 -1.6635
22715SOL     OW73980   3.713   9.015   9.388  0.6737  0.1807 -0.7614
22715SOL    HW173981   3.694   8.935   9.436 -0.7447  0.3147 -1.0766
22715SOL    HW273982   3.775   9.062   9.444 -0.8012  0.2479  0.8822
22716SOL     OW73983   6.879   5.677   0.112 -0.6224 -0.5149 -0.0198
22716SOL    HW173984   6.874   5.582   0.102  4.1945 -0.9668 -0.7705
22716SOL    HW273985   6.919   5.690   0.198  0.2109  0.6875 -0.5535
22717SOL     OW73986   0.646   3.888   8.053  0.0083 -0.2117 -0.5743
22717SOL    HW173987   0.691   3.937   7.985 -1.4182 -0.5043 -1.7901
22717SOL    HW273988   0.592   3.824   8.005 -1.8466  0.2636  0.7595
22718SOL     OW73989   5.122   1.817   7.956  0.4564  0.2155  0.2231
22718SOL    HW173990   5.031   1.849   7.960 -0.6460 -2.1754 -2.1203
22718SOL    HW273991   5.160   1.863   7.881  1.1282  0.9600  0.9972
22719SOL     OW73992   1.127   0.973   0.492 -0.2210  0.4975 -0.0112
22719SOL    HW173993   1.108   0.907   0.425 -0.4010 -0.1075  0.6201
22719SOL    HW273994   1.051   1.031   0.490 -0.6056  0.0142  0.2116
22720SOL     OW73995   0.178   9.456  10.380  0.0160  0.0469 -0.6129
22720SOL    HW173996   0.086   9.434  10.393 -0.5422  1.6734 -1.5618
22720SOL    HW273997   0.214   9.459  10.468 -0.6342 -1.3240 -0.2636
22721SOL     OW73998   4.834   5.146   7.539  0.0740 -0.2182 -0.0034
22721SOL    HW173999   4.930   5.142   7.539  0.1503  0.7486 -1.8685
22721SOL    HW274000   4.807   5.070   7.487 -0.1014  0.2623 -0.6257
22722SOL     OW74001   9.394   1.069   2.871  0.1806 -0.0520  0.3754
22722SOL    HW174002   9.310   1.112   2.880  0.0468 -0.7001  3.1461
22722SOL    HW274003   9.453   1.119   2.927  0.6218 -1.9094  1.6675
22723SOL     OW74004   4.554   4.661   6.773 -0.3279  0.0911 -0.2260
22723SOL    HW174005   4.616   4.734   6.773 -2.4475  1.9555 -0.3702
22723SOL    HW274006   4.595   4.596   6.832  1.5311  1.4046  0.0313
22724SOL     OW74007   2.421   6.595   2.965  0.0291  0.4950 -0.2898
22724SOL    HW174008   2.433   6.509   3.006  2.0592  1.2320  0.7897
22724SOL    HW274009   2.331   6.620   2.987  0.4110 -0.0132  2.1077
22725SOL     OW74010   6.873   3.436   6.413 -0.0515 -0.0594 -0.0208
22725SOL    HW174011   6.898   3.416   6.323 -2.7631 -0.8007 -0.7062
22725SOL    HW274012   6.872   3.532   6.417  0.3561 -0.0239 -0.6772
22726SOL     OW74013   1.614   1.800   0.815  0.2994 -0.0366 -0.8173
22726SOL    HW174014   1.560   1.779   0.739  1.0912 -0.2125 -1.3380
22726SOL    HW274015   1.627   1.715   0.859 -1.3321  0.2610  0.3278
22727SOL     OW74016   2.263   8.584   9.289  0.0438 -0.3785  0.3969
22727SOL    HW174017   2.292   8.505   9.244 -0.6748 -0.0597 -0.6723
22727SOL    HW274018   2.186   8.556   9.339  0.1246 -0.4735  0.4679
22728SOL     OW74019   6.065   9.972   9.297  0.1839  0.2670 -0.2485
22728SOL    HW174020   6.137   9.947   9.356  0.1486 -1.5630 -0.9215
22728SOL    HW274021   6.109  10.007   9.220  0.3054  0.3376 -0.1485
22729SOL     OW74022   0.207   3.719   7.282 -0.1610 -0.2148  0.0527
22729SOL    HW174023   0.253   3.701   7.200 -2.4173  1.7109 -1.7473
22729SOL    HW274024   0.277   3.724   7.348  1.7662 -1.2875 -1.7997
22730SOL     OW74025   8.681   8.916   8.467 -0.1884  0.1173  0.3436
22730SOL    HW174026   8.690   9.006   8.499  2.0127  0.0738 -0.0042
22730SOL    HW274027   8.670   8.925   8.373 -0.5792  0.0175  0.3758
22731SOL     OW74028  10.913   5.146   8.679  0.2302  0.0269 -0.6507
22731SOL    HW174029  10.869   5.064   8.699  0.2657  0.8048  3.5395
22731SOL    HW274030  10.992   5.145   8.733 -0.6573  3.4238  1.0289
22732SOL     OW74031   4.813   8.348   8.147  0.0634 -1.1131 -0.4698
22732SOL    HW174032   4.862   8.425   8.118  1.3958 -1.2733  1.2205
22732SOL    HW274033   4.747   8.335   8.078  2.1146 -0.6558 -2.6522
22733SOL     OW74034   4.392   6.505   8.583 -0.2639 -0.1092  0.2496
22733SOL    HW174035   4.396   6.596   8.554  1.7456 -0.0960  0.4325
22733SOL    HW274036   4.450   6.501   8.660 -1.7770 -1.1559  1.3984
22734SOL     OW74037   7.117   6.837   3.871  0.1969 -0.0298 -0.2690
22734SOL    HW174038   7.098   6.772   3.939  1.0762 -1.0990 -1.0160
22734SOL    HW274039   7.074   6.917   3.902  0.0414 -0.6585  1.2284
22735SOL     OW74040   9.413   4.489   5.880  0.1654  0.5975 -0.2899
22735SOL    HW174041   9.495   4.537   5.896 -0.4908  1.0797  2.0346
22735SOL    HW274042   9.434   4.398   5.903  0.1827  0.6283 -0.1828
22736SOL     OW74043   7.894   2.387   3.642 -0.7463  0.5203 -0.4704
22736SOL    HW174044   7.849   2.389   3.557 -1.0761 -2.2053 -0.4346
22736SOL    HW274045   7.848   2.320   3.692  0.7137  0.6566  1.1347
22737SOL     OW74046   2.434   2.172   5.192 -0.1343  0.3961 -0.3496
22737SOL    HW174047   2.505   2.130   5.241  0.8663  0.9221 -1.3293
22737SOL    HW274048   2.473   2.250   5.154 -0.5853 -0.4660 -2.7804
22738SOL     OW74049   6.259   7.396   8.737 -0.2241  0.5937  0.4064
22738SOL    HW174050   6.184   7.389   8.796 -0.0412 -0.9462  0.4946
22738SOL    HW274051   6.261   7.312   8.690  0.7596  1.0600 -0.4279
22739SOL     OW74052   3.300   0.652   1.224 -0.2936 -0.1581  0.1856
22739SOL    HW174053   3.371   0.712   1.202 -0.7676  0.4214  0.1917
22739SOL    HW274054   3.258   0.692   1.300 -1.3771  0.1730 -0.5573
22740SOL     OW74055   0.794   3.170   5.581  0.0526 -0.0383  0.0906
22740SOL    HW174056   0.784   3.250   5.633 -0.0382  1.5092 -2.1799
22740SOL    HW274057   0.887   3.147   5.590  0.3160  0.9355 -0.0538
22741SOL     OW74058   4.171   6.191   7.227  0.0449 -0.3523 -0.4181
22741SOL    HW174059   4.170   6.286   7.235  3.6169 -0.1396 -0.9818
22741SOL    HW274060   4.159   6.175   7.133 -0.7789 -0.5178 -0.2961
22742SOL     OW74061  10.247   8.855   8.700  0.5088  0.5014  0.2026
22742SOL    HW174062  10.183   8.895   8.641  1.3664 -0.0368 -1.1328
22742SOL    HW274063  10.291   8.789   8.646 -0.1645 -1.5772  2.0526
22743SOL     OW74064   5.438   7.467   9.177  0.0342  0.4958 -0.4792
22743SOL    HW174065   5.427   7.559   9.154  0.5868  0.6536 -0.1301
22743SOL    HW274066   5.416   7.420   9.096 -0.9966  0.8844 -0.4420
22744SOL     OW74067   2.596   6.025   8.895  0.2651  0.4090 -0.1141
22744SOL    HW174068   2.511   6.004   8.857  1.2941 -0.8275 -1.9262
22744SOL    HW274069   2.581   6.030   8.989 -1.4974 -1.4208 -0.2379
22745SOL     OW74070   6.614   9.824   6.087 -0.0176  0.1100 -0.2086
22745SOL    HW174071   6.596   9.832   6.181 -0.6223 -0.9949 -0.2103
22745SOL    HW274072   6.570   9.900   6.048  0.3222  0.6328  0.4005
22746SOL     OW74073   6.163  10.830   5.064  0.1745  0.3388 -0.0219
22746SOL    HW174074   6.115  10.796   5.140  1.8250 -0.1425  0.8344
22746SOL    HW274075   6.109  10.903   5.033 -1.7896 -0.9937  0.0728
22747SOL     OW74076   0.956   3.515   1.894  0.0059 -0.1773  0.3156
22747SOL    HW174077   0.912   3.581   1.840  0.9506  1.2493  1.2120
22747SOL    HW274078   0.918   3.528   1.981  1.3128  0.2720  0.8377
22748SOL     OW74079   9.657   6.599   3.500 -0.0713  0.0993  0.1634
22748SOL    HW174080   9.650   6.523   3.442 -1.6689  0.2397  0.1404
22748SOL    HW274081   9.679   6.672   3.442  0.8907 -0.2143  0.1104
22749SOL     OW74082   9.240   7.449   6.445  0.5154 -0.2370  0.7802
22749SOL    HW174083   9.291   7.512   6.394  0.5685 -1.4515 -0.7343
22749SOL    HW274084   9.235   7.488   6.532  0.2331  2.0419 -0.1664
22750SOL     OW74085   1.862   6.186   7.584  0.3103 -0.5090 -0.1510
22750SOL    HW174086   1.884   6.273   7.549 -0.0137 -0.2374  0.2986
22750SOL    HW274087   1.785   6.201   7.638  0.9558 -0.8419  0.9122
22751SOL     OW74088   1.574   8.076   0.572  0.6336 -0.4517  0.7064
22751SOL    HW174089   1.607   7.990   0.600 -2.1861 -2.3092 -1.2144
22751SOL    HW274090   1.489   8.085   0.615 -0.5736 -0.1814 -1.5860
22752SOL     OW74091   8.755   1.148   7.849 -0.3636 -0.0106 -0.2306
22752SOL    HW174092   8.675   1.151   7.900 -0.1462  0.6504  0.0850
22752SOL    HW274093   8.759   1.233   7.806  0.9444  0.5684  0.9712
22753SOL     OW74094   0.246   2.950   0.504  0.2336 -0.5852 -0.3354
22753SOL    HW174095   0.214   2.944   0.594 -0.8538  0.0386 -0.6634
22753SOL    HW274096   0.196   3.021   0.465  2.6594  1.0977 -0.6455
22754SOL     OW74097   7.126   3.142   6.220  0.0271 -0.6078 -0.3992
22754SOL    HW174098   7.186   3.108   6.286 -0.6453 -2.8457 -0.8219
22754SOL    HW274099   7.129   3.077   6.150 -0.9543  0.5552 -1.5747
22755SOL     OW74100   6.301   7.872   4.336 -0.4414  0.2520 -0.5702
22755SOL    HW174101   6.380   7.920   4.310 -1.6658  1.5511 -2.0520
22755SOL    HW274102   6.335   7.789   4.371  1.5780  0.7172 -1.2457
22756SOL     OW74103   6.653   0.816   7.945 -0.5210 -0.6054 -0.7506
22756SOL    HW174104   6.572   0.844   7.901  0.6190  1.9563 -1.4512
22756SOL    HW274105   6.655   0.868   8.026  0.1732 -1.0103 -0.5029
22757SOL     OW74106   3.585   0.077   4.089 -0.6216  0.4695  0.6593
22757SOL    HW174107   3.556   0.105   4.002  0.5306  1.9766  0.7083
22757SOL    HW274108   3.583  -0.018   4.086 -0.2054  0.4777 -1.1792
22758SOL     OW74109  10.811   5.897   4.153  0.2912 -0.1584 -0.3431
22758SOL    HW174110  10.884   5.842   4.180  0.8907  0.1126 -1.3740
22758SOL    HW274111  10.829   5.983   4.192  1.1563  0.2332 -1.5447
22759SOL     OW74112   0.424   3.724   3.466 -0.1977  0.1916  0.2857
22759SOL    HW174113   0.349   3.738   3.408  0.8526  1.9476 -0.7343
22759SOL    HW274114   0.395   3.758   3.551 -0.6478  0.5908 -0.0242
22760SOL     OW74115   0.376   3.459   4.491  0.0547 -0.5146  0.7493
22760SOL    HW174116   0.404   3.372   4.463  0.5632  0.0977 -0.7368
22760SOL    HW274117   0.301   3.443   4.548 -0.3611 -1.8844 -0.1425
22761SOL     OW74118   2.689   1.275   2.634 -0.2285 -0.2896  0.6522
22761SOL    HW174119   2.651   1.246   2.551  2.9325 -0.3941 -0.9299
22761SOL    HW274120   2.621   1.328   2.675 -2.2524 -1.0340 -1.5365
22762SOL     OW74121   7.542   8.643   7.725  0.3998 -0.4398 -0.4571
22762SOL    HW174122   7.486   8.591   7.782  0.6711 -1.1277 -0.8027
22762SOL    HW274123   7.613   8.672   7.782 -0.3810  0.5848  0.0236
22763SOL     OW74124   4.194   1.187   4.456  0.0996  0.6585 -0.5079
22763SOL    HW174125   4.205   1.280   4.436  2.5134  0.7947  1.0250
22763SOL    HW274126   4.180   1.184   4.551 -0.2367 -0.5422 -0.5721
22764SOL     OW74127   2.384   7.702   3.356 -0.5055  0.1217 -0.4134
22764SOL    HW174128   2.350   7.693   3.267  1.5775 -0.6979 -1.1911
22764SOL    HW274129   2.377   7.614   3.393 -1.5059  0.4921  0.3116
22765SOL     OW74130   1.560   0.696  10.158  0.7448 -0.1468 -0.1303
22765SOL    HW174131   1.553   0.717  10.252  0.9971 -1.2028  0.1455
22765SOL    HW274132   1.475   0.718  10.122  1.1314  1.7748  0.0048
22766SOL     OW74133   8.792   6.281   2.508 -0.5372 -0.3211  0.2068
22766SOL    HW174134   8.719   6.322   2.555 -0.1772 -0.2178  0.6790
22766SOL    HW274135   8.826   6.351   2.451 -1.0983 -0.5030 -0.3678
22767SOL     OW74136   5.338   2.018   3.978  0.5585  0.1859  0.1176
22767SOL    HW174137   5.425   2.032   4.013  0.7007  0.6538 -0.3973
22767SOL    HW274138   5.352   1.997   3.885  0.1124  0.5716 -0.0436
22768SOL     OW74139   7.503   7.203   6.127 -0.0227  0.4300 -0.1640
22768SOL    HW174140   7.490   7.116   6.090 -1.0368  0.6193 -0.2922
22768SOL    HW274141   7.498   7.262   6.052 -0.8635  0.7153  0.1036
22769SOL     OW74142   7.210   4.690   3.915  0.1881 -0.1311  0.2488
22769SOL    HW174143   7.167   4.722   3.994 -1.8144 -1.4476 -0.2322
22769SOL    HW274144   7.146   4.632   3.874  2.0980 -1.4752 -1.0410
22770SOL     OW74145   3.732   6.870  10.504 -0.1367  0.0449  0.4656
22770SOL    HW174146   3.757   6.895  10.416 -0.0481  0.1573  0.5228
22770SOL    HW274147   3.787   6.793  10.524  0.5325  0.5910  0.7785
22771SOL     OW74148   0.770   1.348   3.451  0.2256  0.0967 -0.3221
22771SOL    HW174149   0.742   1.346   3.359  1.8307  2.4882 -0.9807
22771SOL    HW274150   0.823   1.269   3.462 -0.4354 -0.5007 -1.2911
22772SOL     OW74151   7.487   2.401   3.185 -0.7279  0.0441 -0.5720
22772SOL    HW174152   7.453   2.312   3.179 -5.0265  1.4860 -2.1117
22772SOL    HW274153   7.565   2.401   3.131 -3.4111 -1.8776 -5.0350
22773SOL     OW74154  10.853   6.433   9.140  0.1529 -0.1922 -0.6732
22773SOL    HW174155  10.900   6.507   9.102  1.3090 -0.1908  0.6701
22773SOL    HW274156  10.762   6.463   9.145  0.8305  1.8429  1.3046
22774SOL     OW74157   0.417   9.910   8.667 -0.0794 -0.2117 -0.1893
22774SOL    HW174158   0.405   9.978   8.601 -1.1074  0.5846  0.7903
22774SOL    HW274159   0.468   9.842   8.622  0.7368  1.0662 -1.2579
22775SOL     OW74160   1.444   8.702   3.500  0.3024  0.1370  0.4367
22775SOL    HW174161   1.523   8.756   3.503 -0.6870  1.6388  0.4493
22775SOL    HW274162   1.372   8.764   3.515 -0.9145 -1.1074 -0.0747
22776SOL     OW74163   9.151   6.570   2.747  0.1347 -0.0015 -0.5985
22776SOL    HW174164   9.214   6.608   2.809 -1.0261  0.1644  0.5239
22776SOL    HW274165   9.171   6.476   2.747  0.7090  0.1181 -0.6477
22777SOL     OW74166   5.695   8.336   4.782 -0.4958  0.6821 -0.1041
22777SOL    HW174167   5.650   8.285   4.850 -0.2512  1.0975  0.3764
22777SOL    HW274168   5.706   8.422   4.821  0.3489  0.7055 -0.3825
22778SOL     OW74169   4.498   9.272   8.383 -0.3044  0.2107 -0.6581
22778SOL    HW174170   4.459   9.290   8.298 -1.0638  0.9378 -0.1722
22778SOL    HW274171   4.426   9.234   8.434 -0.0710  0.5233 -0.0947
22779SOL     OW74172   7.113   1.302   4.552  1.0352  0.1758  0.4431
22779SOL    HW174173   7.073   1.264   4.630 -1.1855  3.2352  0.9734
22779SOL    HW274174   7.184   1.357   4.586  1.9709 -0.7020 -0.0196
22780SOL     OW74175   5.092   4.204   7.517 -0.6999  0.3068 -0.2571
22780SOL    HW174176   5.187   4.212   7.504 -0.4860  0.3639  1.1629
22780SOL    HW274177   5.059   4.170   7.434  0.6605 -0.3796 -0.5463
22781SOL     OW74178   2.541   7.059   0.082  0.0526  0.5173 -0.1633
22781SOL    HW174179   2.483   7.054   0.158 -0.9938  0.6857 -0.9402
22781SOL    HW274180   2.596   7.136   0.100 -0.3618  0.7164  0.2993
22782SOL     OW74181  10.158   2.794   2.630  0.5730  0.1635  0.4201
22782SOL    HW174182  10.156   2.801   2.726  0.1036  2.9132  0.2909
22782SOL    HW274183  10.067   2.806   2.604  0.7294 -0.3664 -0.4018
22783SOL     OW74184   9.614   4.505   4.261 -0.2670 -0.0665  0.1813
22783SOL    HW174185   9.549   4.445   4.296 -0.4741 -1.3124 -2.1125
22783SOL    HW274186   9.695   4.453   4.257 -0.5406 -0.4260 -2.1894
22784SOL     OW74187   0.124   3.249   1.670  0.0397  0.1938 -0.8139
22784SOL    HW174188   0.103   3.156   1.675  2.3363 -0.3077  0.8043
22784SOL    HW274189   0.047   3.293   1.706 -0.4705 -1.1684 -0.1950
22785SOL     OW74190   6.501   3.103   3.346 -0.0270  0.3998  0.0523
22785SOL    HW174191   6.575   3.045   3.363 -0.8598 -0.5958  0.3415
22785SOL    HW274192   6.425   3.046   3.346 -0.9662  1.6057  1.1425
22786SOL     OW74193   9.903  10.604   5.714 -0.4476 -0.2410 -0.3253
22786SOL    HW174194   9.830  10.657   5.745  0.1053  1.3034 -1.4855
22786SOL    HW274195   9.866  10.517   5.701 -2.0135  0.4261 -0.6039
22787SOL     OW74196   0.723   0.690  10.876  0.5712  0.9627  0.2343
22787SOL    HW174197   0.790   0.626  10.852  0.8751  1.2801  0.2113
22787SOL    HW274198   0.675   0.650  10.948  0.3932  0.4772 -0.1530
22788SOL     OW74199   3.665   6.700   4.181 -0.2025  0.0710  0.4218
22788SOL    HW174200   3.646   6.727   4.091 -0.1269  3.2190  1.2313
22788SOL    HW274201   3.758   6.720   4.192  0.0106 -1.1209  0.9827
22789SOL     OW74202   2.428   0.613   6.278  0.1630 -0.3408  0.4445
22789SOL    HW174203   2.369   0.678   6.241 -0.3896 -0.8372  0.4328
22789SOL    HW274204   2.495   0.664   6.323  0.6613  0.2763 -0.9379
22790SOL     OW74205   1.513   9.079   8.063  0.5874  1.0325  0.4198
22790SOL    HW174206   1.504   8.984   8.067  0.8037  1.0414  1.8351
22790SOL    HW274207   1.597   9.094   8.020  1.2820  0.5249  1.5488
22791SOL     OW74208   7.067   2.170   9.349 -0.6942  0.0559 -0.2282
22791SOL    HW174209   7.150   2.146   9.310  0.3179 -0.9764  2.3505
22791SOL    HW274210   7.014   2.203   9.276  1.4647 -0.5416 -2.1546
22792SOL     OW74211  10.621   6.316   7.554  0.6247  0.1228 -0.1593
22792SOL    HW174212  10.613   6.225   7.583  0.4096  0.0996 -0.2856
22792SOL    HW274213  10.702   6.318   7.503  0.4115 -0.0928 -0.5069
22793SOL     OW74214   9.011   3.640   1.086  0.2365 -0.0808  0.0343
22793SOL    HW174215   9.050   3.719   1.048  0.9012 -0.5257 -0.2284
22793SOL    HW274216   8.994   3.583   1.011 -2.5349  0.7366 -0.0865
22794SOL     OW74217   2.011   9.444   6.264 -0.3956  0.3240 -0.2148
22794SOL    HW174218   1.951   9.443   6.190  0.4300 -0.8263 -0.9020
22794SOL    HW274219   1.954   9.444   6.341 -1.2722  0.2837 -0.8466
22795SOL     OW74220   3.512   7.038   8.180  0.4461  0.0770  0.0218
22795SOL    HW174221   3.453   7.022   8.254 -1.1565  0.9732 -1.0003
22795SOL    HW274222   3.595   6.998   8.207 -0.7215 -1.6268  1.3536
22796SOL     OW74223   4.526   3.492  10.721  0.6264  0.2315 -0.4562
22796SOL    HW174224   4.584   3.418  10.736 -2.5472 -2.3431  0.1508
22796SOL    HW274225   4.521   3.537  10.805  0.2134 -0.7495  0.0557
22797SOL     OW74226   0.537   4.326   9.683 -0.0878 -0.2745 -0.1230
22797SOL    HW174227   0.625   4.342   9.718 -0.0752 -1.3705  0.3876
22797SOL    HW274228   0.552   4.313   9.589  0.0350  1.4349 -0.3715
22798SOL     OW74229   3.441   1.596   1.202 -0.3417  0.0508  0.1791
22798SOL    HW174230   3.346   1.609   1.196 -0.6968 -2.2040  0.0534
22798SOL    HW274231   3.470   1.589   1.111  0.0946  1.5005  0.1897
22799SOL     OW74232   0.775   3.208   8.549 -0.3460  0.2353  0.4708
22799SOL    HW174233   0.862   3.170   8.544 -1.2529 -2.1188  0.9911
22799SOL    HW274234   0.770   3.269   8.476  2.1777  1.5502  1.2927
22800SOL     OW74235   8.635   6.634   1.620  0.0541  0.1687  0.1286
22800SOL    HW174236   8.612   6.727   1.625 -2.3407 -0.2440 -1.4640
22800SOL    HW274237   8.719   6.632   1.575  0.1718  1.5568  0.2446
22801SOL     OW74238   4.518   2.005   8.073 -0.4436  0.0768  0.3666
22801SOL    HW174239   4.566   2.082   8.103  1.0482  0.0639 -1.8246
22801SOL    HW274240   4.471   2.034   7.995 -1.1314 -0.8611  0.4048
22802SOL     OW74241   0.239  10.535   6.898  0.4013  0.1274  0.4299
22802SOL    HW174242   0.333  10.538   6.880  0.4999 -1.5654  0.5018
22802SOL    HW274243   0.199  10.527   6.811  0.2673  1.2827  0.3645
22803SOL     OW74244   1.628   2.886   4.575 -0.0310  0.1794  0.2182
22803SOL    HW174245   1.652   2.869   4.666 -1.2330  1.4066  0.8048
22803SOL    HW274246   1.533   2.877   4.574  0.0277 -0.4421 -1.0778
22804SOL     OW74247   9.952   9.123   4.006  0.4261  0.1040 -0.0639
22804SOL    HW174248   9.957   9.200   3.949  0.7211 -0.1477 -0.3866
22804SOL    HW274249   9.980   9.050   3.950  0.7310 -0.1477  0.4070
22805SOL     OW74250   3.206   9.356   4.740 -0.0537  1.1757 -0.0951
22805SOL    HW174251   3.165   9.304   4.672  0.0550  1.1569 -0.1466
22805SOL    HW274252   3.204   9.301   4.818  0.1991  1.0363 -0.1880
22806SOL     OW74253   8.425   1.406   7.907  0.1872  0.8062 -0.1970
22806SOL    HW174254   8.410   1.476   7.971 -1.7859 -0.7571  1.2065
22806SOL    HW274255   8.384   1.438   7.827 -0.8557  1.2269  0.4779
22807SOL     OW74256   5.441   6.109   1.021  0.4971 -0.1723 -0.1148
22807SOL    HW174257   5.375   6.040   1.024  0.5109 -0.4029 -2.6798
22807SOL    HW274258   5.400   6.184   1.065 -0.3756 -1.1487  0.7652
22808SOL     OW74259   2.483   0.160   1.837 -0.1276 -0.2117  0.3907
22808SOL    HW174260   2.441   0.235   1.796 -0.0489 -0.3917 -0.0281
22808SOL    HW274261   2.436   0.084   1.801  0.7466 -0.4317 -0.3238
22809SOL     OW74262   3.711   4.368   4.737 -0.3680 -0.7125  0.3716
22809SOL    HW174263   3.700   4.355   4.643  0.4341  1.1523 -0.0291
22809SOL    HW274264   3.784   4.311   4.760  0.5938  0.1168 -0.5158
22810SOL     OW74265   6.804   1.583   0.665  0.2831 -0.1699 -0.0164
22810SOL    HW174266   6.846   1.645   0.724  0.4226 -2.2410  2.2115
22810SOL    HW274267   6.872   1.518   0.647 -0.8206 -1.5017  0.5149
22811SOL     OW74268  10.065   9.530   5.888  0.1575 -0.3830 -0.5158
22811SOL    HW174269  10.073   9.441   5.854 -0.6153 -0.3909 -0.6984
22811SOL    HW274270  10.114   9.530   5.970 -0.4386 -1.1777 -0.1442
22812SOL     OW74271   6.275   1.128   7.305 -0.2568 -0.2217  0.4219
22812SOL    HW174272   6.214   1.070   7.259 -1.2842 -0.9314  2.5505
22812SOL    HW274273   6.238   1.137   7.393  0.9463  2.0783  0.7765
22813SOL     OW74274   4.769   2.848   2.336  0.5672  0.2279 -0.1959
22813SOL    HW174275   4.774   2.932   2.382  2.2170 -0.5510  1.1704
22813SOL    HW274276   4.676   2.831   2.327  0.1886  1.2373  1.3855
22814SOL     OW74277   3.625   0.748   8.034 -0.0271  0.7467 -0.0843
22814SOL    HW174278   3.609   0.669   7.982 -0.0028  1.3188 -0.9797
22814SOL    HW274279   3.706   0.784   7.998 -1.2475  2.4369 -1.2939
22815SOL     OW74280  10.751  10.887   7.813  0.0618  0.3890  0.1099
22815SOL    HW174281  10.707  10.906   7.730  1.3034  0.4272 -0.5549
22815SOL    HW274282  10.812  10.817   7.793  0.1246  0.1448  1.0880
22816SOL     OW74283   8.074   7.142   5.116 -0.2273 -0.1783  0.0972
22816SOL    HW174284   8.115   7.184   5.191  0.4195 -1.6907  0.6371
22816SOL    HW274285   8.132   7.068   5.095 -1.5725 -1.1317 -0.4457
22817SOL     OW74286   8.720   5.781  10.338  0.2294 -0.2944 -1.0597
22817SOL    HW174287   8.760   5.696  10.320 -0.6443 -0.9970  0.1785
22817SOL    HW274288   8.708   5.821  10.252  1.0834 -1.2156 -1.6228
22818SOL     OW74289   4.959   6.837   8.919 -0.4103 -0.1915  0.1448
22818SOL    HW174290   4.913   6.908   8.875 -2.3735 -1.6689 -0.3097
22818SOL    HW274291   5.037   6.822   8.865  0.1438  1.6556  0.3438
22819SOL     OW74292   8.600  10.008   4.970 -0.0005  0.2864  0.3890
22819SOL    HW174293   8.651  10.087   4.949  0.4623 -0.4554 -1.5212
22819SOL    HW274294   8.588   9.965   4.886  2.5353 -3.3584  1.6369
22820SOL     OW74295   3.437   9.298   9.990  0.4777  0.7168 -0.2210
22820SOL    HW174296   3.490   9.374  10.014  1.5109 -0.3786  1.1480
22820SOL    HW274297   3.399   9.268  10.073 -0.3276  0.0470 -0.8191
22821SOL     OW74298   4.028   4.738   1.358  0.4011 -0.0229 -0.6055
22821SOL    HW174299   4.108   4.753   1.408 -0.4880 -2.4060  1.7569
22821SOL    HW274300   4.054   4.678   1.288  0.4881 -2.3257  1.2567
22822SOL     OW74301   7.116   8.614   7.546 -0.4737  0.8157 -0.1936
22822SOL    HW174302   7.032   8.587   7.585 -0.0502  0.2001  0.3252
22822SOL    HW274303   7.127   8.555   7.471  0.9764 -1.3665  1.5708
22823SOL     OW74304   6.874   2.057  10.147  0.0779  0.5341  0.2122
22823SOL    HW174305   6.858   2.004  10.225 -0.0063 -0.3306 -0.3814
22823SOL    HW274306   6.795   2.111  10.137 -0.7779 -0.7829 -0.3867
22824SOL     OW74307   0.590   6.110   4.851 -0.2594 -0.5057 -0.2079
22824SOL    HW174308   0.587   6.054   4.774 -2.5279 -0.5970 -0.1095
22824SOL    HW274309   0.647   6.063   4.913  0.5230 -1.0577 -1.3146
22825SOL     OW74310  10.732   6.915   1.435  0.5898 -0.7840 -0.0407
22825SOL    HW174311  10.727   6.838   1.379  2.2942 -1.1114  0.1972
22825SOL    HW274312  10.687   6.889   1.515 -0.9131 -0.6832 -0.8225
22826SOL     OW74313   1.457   3.694   8.183  0.3775  0.4022  0.2585
22826SOL    HW174314   1.449   3.790   8.190 -0.3956  0.3631  0.0474
22826SOL    HW274315   1.516   3.681   8.109 -0.6258  0.7215 -0.6317
22827SOL     OW74316   9.624   8.746   1.116  0.0147  0.3586 -0.2568
22827SOL    HW174317   9.607   8.766   1.208  2.3662 -0.7661  0.5003
22827SOL    HW274318   9.537   8.734   1.077 -1.0526  1.6035  1.6105
22828SOL     OW74319   5.446   2.627   6.778  0.6875 -0.4044 -0.0854
22828SOL    HW174320   5.462   2.556   6.715  1.1291 -1.1224  0.8102
22828SOL    HW274321   5.517   2.689   6.762  1.1334 -0.8619  0.0887
22829SOL     OW74322   9.269   2.539  10.316  0.3053 -0.2947  0.0763
22829SOL    HW174323   9.353   2.556  10.272  1.0115 -1.2476  1.0025
22829SOL    HW274324   9.290   2.542  10.409  0.0998 -3.7826  0.3778
22830SOL     OW74325   3.795   9.910   5.710 -0.4870 -0.3360  0.8571
22830SOL    HW174326   3.883   9.930   5.741 -0.8036  0.9583  0.9863
22830SOL    HW274327   3.808   9.857   5.632  0.3811 -1.0873  1.4946
22831SOL     OW74328   0.834   7.307  10.459 -0.1715  0.4380 -0.4463
22831SOL    HW174329   0.896   7.295  10.387  1.6414  3.4808  0.3894
22831SOL    HW274330   0.750   7.321  10.415  0.6288  0.8875 -1.9414
22832SOL     OW74331  10.403   7.729  10.735 -0.3420  0.3132  0.6858
22832SOL    HW174332  10.373   7.820  10.742  0.9557  0.7077  1.3689
22832SOL    HW274333  10.387   7.706  10.643 -2.9183  0.3925  1.0542
22833SOL     OW74334   7.455   4.438   1.799 -0.6872 -0.7034 -0.0793
22833SOL    HW174335   7.383   4.495   1.770 -0.8483 -0.2053  1.2542
22833SOL    HW274336   7.527   4.498   1.817  0.1060 -1.2065 -1.4488
22834SOL     OW74337   6.769   1.077   8.317  0.0891 -1.2787 -0.5429
22834SOL    HW174338   6.827   1.143   8.353 -1.1880 -0.4603  0.0737
22834SOL    HW274339   6.779   1.085   8.222 -1.6049  1.3039 -0.5793
22835SOL     OW74340   7.639   7.949   7.924 -0.1191 -0.6809  0.5494
22835SOL    HW174341   7.734   7.960   7.918 -0.2196  0.8795  1.2433
22835SOL    HW274342   7.607   7.969   7.837  0.1057 -0.0036  0.6159
22836SOL     OW74343   7.597   0.470   5.838 -0.3249  0.4207  0.1757
22836SOL    HW174344   7.550   0.430   5.912 -0.0390  1.0678  0.7219
22836SOL    HW274345   7.536   0.532   5.800 -1.2031 -1.3203 -1.4243
22837SOL     OW74346   0.763   4.673   1.067 -0.8673 -0.0975  0.2472
22837SOL    HW174347   0.770   4.581   1.039 -0.7630  0.2011 -0.7551
22837SOL    HW274348   0.836   4.685   1.128  0.0984 -0.2578 -0.8496
22838SOL     OW74349  10.884   3.850   9.498  0.1703  0.2497 -0.1041
22838SOL    HW174350  10.817   3.802   9.546 -0.2579  0.5918 -0.3454
22838SOL    HW274351  10.915   3.788   9.432 -1.3000  0.6917 -1.2658
22839SOL     OW74352   2.083   1.615  10.235  0.1744  0.5791  0.0119
22839SOL    HW174353   2.166   1.659  10.254 -1.0384  2.7272  0.6209
22839SOL    HW274354   2.037   1.615  10.319  0.0433 -1.8215  0.0081
22840SOL     OW74355   3.075  10.162   4.141 -0.1144 -0.2132  0.5933
22840SOL    HW174356   3.101  10.228   4.205  1.5155  1.3997 -1.5496
22840SOL    HW274357   3.041  10.089   4.193  0.3128  1.3206  3.1875
22841SOL     OW74358   4.861   2.474   3.632 -0.6841 -0.5173 -0.6393
22841SOL    HW174359   4.892   2.500   3.718 -1.2228  0.6883 -0.7937
22841SOL    HW274360   4.793   2.537   3.610  0.3239  0.0251 -2.5004
22842SOL     OW74361   1.549   0.539   5.050 -0.0928 -0.2652  0.0665
22842SOL    HW174362   1.574   0.630   5.034  1.7270 -0.9017 -1.0032
22842SOL    HW274363   1.482   0.520   4.984 -0.1063  0.1310 -0.0341
22843SOL     OW74364   4.965   1.217   0.188 -0.1889 -0.0429  0.4234
22843SOL    HW174365   4.987   1.151   0.123 -2.5459 -0.4704 -0.0347
22843SOL    HW274366   5.019   1.195   0.264  1.3085 -0.5940 -0.7626
22844SOL     OW74367   9.918   9.796   3.296 -0.0496 -0.0019  0.3337
22844SOL    HW174368   9.875   9.875   3.264  0.1507 -0.1220 -0.2456
22844SOL    HW274369   9.942   9.816   3.387  0.8339  0.9344 -0.0869
22845SOL     OW74370   0.960   8.317   4.471  0.6024  0.0499 -0.2529
22845SOL    HW174371   0.915   8.269   4.401  1.8957 -0.1100 -1.0005
22845SOL    HW274372   0.893   8.376   4.506 -0.2181 -0.2626 -1.2465
22846SOL     OW74373   2.455   6.629   5.163  0.1836 -0.1718  0.9568
22846SOL    HW174374   2.368   6.670   5.163  0.3544  0.1899  1.0961
22846SOL    HW274375   2.462   6.587   5.249 -0.1842 -0.9194  0.6400
22847SOL     OW74376   8.290   2.774   3.836 -0.6004  0.5171  0.0390
22847SOL    HW174377   8.385   2.781   3.840 -0.5355 -0.0147 -0.5964
22847SOL    HW274378   8.259   2.858   3.871  0.0496 -0.3019  2.9158
22848SOL     OW74379   2.174   0.868   2.008  0.0486 -0.0645 -0.2570
22848SOL    HW174380   2.130   0.801   1.957  0.3108 -0.0250 -0.5408
22848SOL    HW274381   2.174   0.946   1.951  0.1432  0.0451 -0.1087
22849SOL     OW74382   0.532   2.961   9.361  0.0509  0.2400  0.4644
22849SOL    HW174383   0.477   2.892   9.399 -0.3520 -0.2469 -0.9341
22849SOL    HW274384   0.508   2.961   9.268  0.3479  2.0003  0.3703
22850SOL     OW74385   9.696   0.018   8.307 -0.2519  0.2772 -0.1913
22850SOL    HW174386   9.642   0.088   8.344  1.3192  1.8316 -0.6776
22850SOL    HW274387   9.649  -0.011   8.229  0.0480  2.3279 -1.2015
22851SOL     OW74388   1.548   2.330   1.898 -0.3013  0.1219 -0.0310
22851SOL    HW174389   1.572   2.336   1.806  1.0079  1.4312  0.3520
22851SOL    HW274390   1.501   2.412   1.916  1.0357  0.7213  0.8689
22852SOL     OW74391   6.060   2.994   1.896  0.1190  0.2509 -0.3316
22852SOL    HW174392   5.976   3.002   1.940  0.1849  1.3497 -0.3785
22852SOL    HW274393   6.041   3.006   1.803  0.2620  0.0128 -0.3937
22853SOL     OW74394   8.287   9.694   6.007  0.0023 -0.0186 -0.1315
22853SOL    HW174395   8.374   9.703   5.969  0.5204 -1.8371  0.4857
22853SOL    HW274396   8.254   9.611   5.971 -1.2302  0.3494  0.1025
22854SOL     OW74397   5.823   2.340   3.269 -0.0767 -0.3023  0.7959
22854SOL    HW174398   5.842   2.430   3.246 -2.4415 -0.4970 -2.5685
22854SOL    HW274399   5.754   2.346   3.335 -1.4074  0.4190 -0.6100
22855SOL     OW74400   0.300   8.178   0.697 -0.2509 -0.0445 -0.3657
22855SOL    HW174401   0.278   8.267   0.725  2.9003 -0.0937  2.7955
22855SOL    HW274402   0.228   8.124   0.730 -1.1359  1.0377 -0.4608
22856SOL     OW74403   5.551   3.266   7.935  0.6073 -0.1387  0.0482
22856SOL    HW174404   5.537   3.360   7.926  0.5829 -0.1376  0.0941
22856SOL    HW274405   5.602   3.257   8.015  1.1351 -0.1217 -0.2828
22857SOL     OW74406   7.256  10.820  10.023  1.0916  0.0956  0.8305
22857SOL    HW174407   7.328  10.831  10.085  1.2477 -0.7139  0.8055
22857SOL    HW274408   7.223  10.908  10.008  1.8246  0.4275  1.1487
22858SOL     OW74409   8.858  10.251   4.974 -0.8125 -0.0675 -0.2891
22858SOL    HW174410   8.953  10.252   4.980 -0.8344  1.3514  0.2541
22858SOL    HW274411   8.827  10.261   5.064 -1.4024  1.8625 -0.6406
22859SOL     OW74412   4.261  10.192   2.213 -0.0316 -0.2312  0.1276
22859SOL    HW174413   4.298  10.155   2.133  0.7479 -1.3490  0.9851
22859SOL    HW274414   4.292  10.282   2.214 -0.1470 -0.1648 -0.8757
22860SOL     OW74415   8.470   8.381   7.067 -0.4382 -0.5133 -0.2966
22860SOL    HW174416   8.545   8.441   7.068  0.3806 -1.4064 -2.0786
22860SOL    HW274417   8.396   8.436   7.040  0.0381 -0.0349 -0.6633
22861SOL     OW74418   5.603   2.542   0.377 -0.2200  0.5524  0.0759
22861SOL    HW174419   5.687   2.557   0.335 -0.0845 -1.6862 -0.5807
22861SOL    HW274420   5.539   2.583   0.319  0.1140 -1.0943 -1.5795
22862SOL     OW74421   7.422   3.986   7.070  0.0442 -0.1625 -0.2799
22862SOL    HW174422   7.462   3.900   7.051  0.6498 -0.4071  1.8277
22862SOL    HW274423   7.375   3.972   7.152 -0.6974  1.2924 -0.4408
22863SOL     OW74424   3.527   5.556   3.653  0.0558 -0.0026  0.0155
22863SOL    HW174425   3.577   5.607   3.588 -0.2272 -0.3424 -0.4781
22863SOL    HW274426   3.490   5.484   3.603 -1.2891  0.4771  0.2649
22864SOL     OW74427   7.284   5.349   7.475  0.4977  1.0745 -0.1231
22864SOL    HW174428   7.329   5.397   7.544 -0.4365  1.0239  0.5323
22864SOL    HW274429   7.352   5.296   7.434  1.0771  1.1686  0.6983
22865SOL     OW74430   9.688   7.279   8.899 -0.6081  0.3148 -0.0909
22865SOL    HW174431   9.768   7.260   8.947 -1.5759 -0.0248  1.4607
22865SOL    HW274432   9.667   7.370   8.922  0.0357  0.8656 -1.5784
22866SOL     OW74433   4.069   3.402   1.530  0.2725  0.1036 -0.5948
22866SOL    HW174434   3.997   3.465   1.523 -0.3751 -0.6814 -1.2235
22866SOL    HW274435   4.063   3.351   1.450 -0.6612 -2.2768  0.8953
22867SOL     OW74436   3.099   5.074   1.668  0.1206  0.0352  0.1792
22867SOL    HW174437   3.069   5.079   1.577 -1.1978  0.0863  0.6019
22867SOL    HW274438   3.164   5.144   1.676  0.2528  0.0204 -0.7225
22868SOL     OW74439  10.162   9.767   9.658  0.0864  0.3028  0.1936
22868SOL    HW174440  10.227   9.808   9.602 -0.6437 -0.7050 -1.4590
22868SOL    HW274441  10.089   9.830   9.659 -0.0952  0.1118 -0.4212
22869SOL     OW74442   4.495   0.700   7.266 -0.2098 -0.2724  0.1734
22869SOL    HW174443   4.572   0.749   7.295 -0.7272  1.1976 -0.8058
22869SOL    HW274444   4.518   0.668   7.179 -0.4779 -0.3166  0.1164
22870SOL     OW74445   9.473   3.554   6.452 -0.3711 -0.6612  0.3057
22870SOL    HW174446   9.429   3.547   6.368  0.5002 -2.0482 -0.0660
22870SOL    HW274447   9.410   3.521   6.516 -1.8810  2.3622  0.5966
22871SOL     OW74448   1.767   3.137   7.001  0.1410 -0.2103 -0.2229
22871SOL    HW174449   1.693   3.192   6.977 -2.3543 -3.3408 -0.3026
22871SOL    HW274450   1.734   3.081   7.071  2.5457 -1.5576 -0.0559
22872SOL     OW74451   8.449  10.645   9.342  0.2838 -0.2095 -0.6212
22872SOL    HW174452   8.476  10.730   9.378 -0.2651 -1.0094  1.8468
22872SOL    HW274453   8.429  10.663   9.250  0.5408  2.2445 -0.2568
22873SOL     OW74454   8.034   3.011   1.458  0.5045  0.0881  0.3970
22873SOL    HW174455   8.104   3.070   1.427  0.7809  1.6561  3.6153
22873SOL    HW274456   8.074   2.964   1.531 -1.0562 -0.9829  0.5945
22874SOL     OW74457   6.534   1.767   8.661 -0.0754 -0.0942 -0.4100
22874SOL    HW174458   6.618   1.809   8.680  0.3601 -0.8471 -0.6071
22874SOL    HW274459   6.557   1.694   8.603 -0.8776 -0.2612 -0.5232
22875SOL     OW74460   3.684   6.290   7.390  0.0647  0.1056 -0.6248
22875SOL    HW174461   3.753   6.237   7.429  0.8349  0.9137 -0.8537
22875SOL    HW274462   3.606   6.271   7.442  0.1242 -1.8016 -1.1524
22876SOL     OW74463   7.976   5.364   1.168  0.3389 -0.1675 -0.5862
22876SOL    HW174464   7.967   5.300   1.239  2.1556 -1.2558 -1.2548
22876SOL    HW274465   7.895   5.414   1.170 -0.4238 -1.3784  1.0713
22877SOL     OW74466   2.993   9.175   4.053  0.0733 -0.2200  0.1027
22877SOL    HW174467   2.974   9.123   4.131  0.2640  3.0706  2.5550
22877SOL    HW274468   2.907   9.192   4.014  0.0371 -2.5258 -0.9829
22878SOL     OW74469   8.587   8.585   2.272 -0.0179 -0.3956 -0.0186
22878SOL    HW174470   8.655   8.651   2.285  0.3494 -0.6180 -0.7989
22878SOL    HW274471   8.516   8.632   2.228 -0.1834 -0.2799  0.3635
22879SOL     OW74472   1.938   5.988   7.762  0.4806  0.0766  0.1194
22879SOL    HW174473   1.930   6.045   7.685  0.8937  0.8628  0.6469
22879SOL    HW274474   2.027   5.954   7.758  0.2896 -0.4087 -0.1007
22880SOL     OW74475   6.273   1.926   7.306 -0.2881  0.0662  0.6119
22880SOL    HW174476   6.368   1.942   7.312 -0.2775  1.0918 -1.3983
22880SOL    HW274477   6.265   1.831   7.301  0.8031  0.0115 -0.7515
22881SOL     OW74478   1.901   4.288   3.238 -0.1650  0.0107 -0.6438
22881SOL    HW174479   1.981   4.340   3.249 -0.8463  1.2628 -1.3741
22881SOL    HW274480   1.878   4.259   3.327  0.3538  0.7812 -0.2519
22882SOL     OW74481   5.811   4.203   2.799  0.0372 -0.4827  0.7440
22882SOL    HW174482   5.754   4.277   2.777  1.4070  0.7611  1.1720
22882SOL    HW274483   5.781   4.132   2.743 -1.2066  0.4587  0.1679
22883SOL     OW74484   8.780   3.682  10.654 -0.4354 -0.9263 -0.1525
22883SOL    HW174485   8.845   3.674  10.723 -0.6917 -1.2584  0.0472
22883SOL    HW274486   8.819   3.744  10.592  0.3304 -1.5704 -0.3306
22884SOL     OW74487   1.981   6.136   0.285 -0.1276  0.0697 -0.2953
22884SOL    HW174488   2.038   6.165   0.356 -0.1239  0.4655 -0.4602
22884SOL    HW274489   1.924   6.211   0.267  1.5445  0.9141 -2.4269
22885SOL     OW74490   5.941   4.829   5.091  0.4405 -0.1139 -0.2689
22885SOL    HW174491   5.883   4.760   5.060  0.9900  0.0890 -1.8902
22885SOL    HW274492   6.019   4.783   5.121  0.0175 -0.3008  0.5644
22886SOL     OW74493   6.712   3.958  10.375  0.1763 -0.0653 -0.2778
22886SOL    HW174494   6.758   4.036  10.407  0.0771 -0.3187  0.4814
22886SOL    HW274495   6.620   3.976  10.392  0.0981 -0.0805 -0.6818
22887SOL     OW74496   4.340   6.070   0.044 -0.4065  0.3854  0.6839
22887SOL    HW174497   4.355   5.987   0.089 -1.2209  0.5320  1.2554
22887SOL    HW274498   4.423   6.090   0.002 -0.7539 -1.7452 -1.2218
22888SOL     OW74499   8.354   0.473   8.358 -0.0217 -0.8078 -0.0925
22888SOL    HW174500   8.442   0.506   8.376 -0.3494 -0.1132  0.2718
22888SOL    HW274501   8.354   0.455   8.264 -0.5976  2.7808 -0.9369
22889SOL     OW74502   3.872   3.150   5.114  0.7844 -0.0848 -0.3183
22889SOL    HW174503   3.914   3.065   5.104  2.2522  0.8657 -3.1162
22889SOL    HW274504   3.787   3.139   5.072  1.0824 -0.0962 -0.9205
22890SOL     OW74505   6.161   3.601   3.358 -0.4982  0.7896  0.9292
22890SOL    HW174506   6.158   3.597   3.262  0.6488  1.1942  0.8615
22890SOL    HW274507   6.087   3.548   3.387 -0.2032 -0.2595 -0.1666
22891SOL     OW74508   8.346   4.157   1.428  0.4394  0.3672  0.5043
22891SOL    HW174509   8.428   4.143   1.382 -0.7361  0.7933 -1.8804
22891SOL    HW274510   8.329   4.251   1.419 -0.4617  0.2317  0.6650
22892SOL     OW74511   6.041   8.337   1.116  0.1573 -0.1446 -0.0603
22892SOL    HW174512   6.119   8.282   1.126  1.1320  1.2975  0.5622
22892SOL    HW274513   5.968   8.276   1.128  1.1922 -1.2478  0.9705
22893SOL     OW74514   9.152   3.134   3.240 -0.0083 -0.6851 -0.5115
22893SOL    HW174515   9.210   3.188   3.294 -1.1533  0.3194 -0.2299
22893SOL    HW274516   9.178   3.153   3.150  1.0836 -1.4128 -0.3662
22894SOL     OW74517   9.092   9.710   0.615  0.6350  0.3444  0.5009
22894SOL    HW174518   9.132   9.691   0.530 -2.4139  0.4757 -1.1194
22894SOL    HW274519   9.078   9.624   0.654 -2.0511 -0.1848 -1.3169
22895SOL     OW74520   5.096   6.009   0.780  0.2671 -0.2797 -0.2422
22895SOL    HW174521   5.127   5.983   0.867  1.8052  0.6662 -0.4776
22895SOL    HW274522   5.016   6.058   0.797  1.4142  1.3208  0.8138
22896SOL     OW74523   9.764   5.610   1.617 -0.1746 -0.3655 -0.0338
22896SOL    HW174524   9.721   5.586   1.534 -1.5475  0.8573  0.2845
22896SOL    HW274525   9.813   5.689   1.597  0.2260 -0.5750  0.1121
22897SOL     OW74526   0.022   7.327   0.327  0.3460  0.1332  0.1766
22897SOL    HW174527   0.090   7.276   0.370  0.3844 -0.3251 -0.4110
22897SOL    HW274528   0.042   7.417   0.350  0.7435 -0.0514  0.5803
22898SOL     OW74529   9.068   7.986   4.674  0.2069  0.3107 -0.4644
22898SOL    HW174530   9.045   7.896   4.699  3.0420 -0.0985  1.1796
22898SOL    HW274531   8.998   8.040   4.711 -0.5388 -1.0809  0.2294
22899SOL     OW74532   0.042   1.743   6.000 -0.5309  0.4039  0.4977
22899SOL    HW174533   0.115   1.734   5.939 -0.4645 -1.1045  0.7678
22899SOL    HW274534   0.058   1.827   6.044  0.1917  0.8178 -0.5244
22900SOL     OW74535   4.377   7.526   3.128  0.5748 -0.8279 -0.5904
22900SOL    HW174536   4.356   7.443   3.171 -2.1472 -0.6261 -1.3558
22900SOL    HW274537   4.347   7.515   3.038  0.4753  0.8735 -0.8085
22901SOL     OW74538   4.079  10.210   0.230 -0.0704 -0.3634 -0.4252
22901SOL    HW174539   4.074  10.141   0.296  2.2688  0.0117  0.2572
22901SOL    HW274540   4.015  10.275   0.257 -0.8212 -1.3055  0.1110
22902SOL     OW74541   7.356   2.110   4.535  0.3157 -0.3060 -0.0007
22902SOL    HW174542   7.443   2.084   4.502  0.2549 -1.6301  0.8047
22902SOL    HW274543   7.336   2.190   4.487  0.5737 -1.6816 -2.6139
22903SOL     OW74544   1.584   1.031   0.470 -0.2650  0.2667 -0.1341
22903SOL    HW174545   1.595   1.005   0.378  0.9635  0.7473 -0.1392
22903SOL    HW274546   1.493   1.058   0.476 -0.3373  0.3233 -1.2365
22904SOL     OW74547   2.217   4.032   1.259 -0.0046  0.5565 -0.6760
22904SOL    HW174548   2.287   3.997   1.205  0.3885 -0.8044  0.6378
22904SOL    HW274549   2.162   3.956   1.279 -0.3236  1.0778  0.5326
22905SOL     OW74550   3.601   0.517   0.137 -0.2802  0.3998  0.3171
22905SOL    HW174551   3.619   0.472   0.220  0.0951  1.2101  0.6795
22905SOL    HW274552   3.514   0.484   0.111  0.2249 -0.9778  0.2671
22906SOL     OW74553   0.523   1.243  10.715  0.2382  0.0255  0.4432
22906SOL    HW174554   0.570   1.246  10.798 -1.8178  0.4679  1.6587
22906SOL    HW274555   0.566   1.173  10.666  1.0974 -0.6928  2.1447
22907SOL     OW74556   4.124   7.990   5.140 -1.1235  0.4867 -0.7150
22907SOL    HW174557   4.188   8.041   5.091 -1.3880  1.3900 -0.1516
22907SOL    HW274558   4.040   8.033   5.121 -1.0475  1.8991  1.7585
22908SOL     OW74559   1.631   7.695   4.667 -0.5249  0.0870  0.2323
22908SOL    HW174560   1.631   7.703   4.572 -2.8964 -2.4549 -0.0975
22908SOL    HW274561   1.684   7.617   4.685  1.3242  1.4767  1.2192
22909SOL     OW74562   9.113  10.194   0.580  0.1845 -0.1373 -0.3586
22909SOL    HW174563   9.113  10.219   0.673 -1.1971  0.4031 -0.4862
22909SOL    HW274564   9.079  10.270   0.534 -0.6636 -0.9659 -1.1404
22910SOL     OW74565  10.428   7.380   5.522  0.8243 -0.3015  0.5108
22910SOL    HW174566  10.464   7.331   5.596 -1.6485 -2.0006  0.6970
22910SOL    HW274567  10.475   7.347   5.446  1.2787 -0.7621  0.9783
22911SOL     OW74568   3.214   6.938   2.769  0.3544  0.0435 -0.3010
22911SOL    HW174569   3.307   6.958   2.767 -0.0184  1.8905 -0.4061
22911SOL    HW274570   3.208   6.858   2.822  1.7880  1.1002  1.5827
22912SOL     OW74571   5.935   5.585   5.109 -0.0568  0.0161 -0.4890
22912SOL    HW174572   5.935   5.491   5.128 -1.2313  0.0999 -0.0074
22912SOL    HW274573   6.020   5.615   5.141  0.6794 -1.0121 -1.4004
22913SOL     OW74574   8.059   0.877   1.597  0.2779  0.2159 -0.3958
22913SOL    HW174575   8.104   0.929   1.664 -1.1664  0.6952  0.2608
22913SOL    HW274576   8.129   0.835   1.547  1.4221 -0.0526  1.3371
22914SOL     OW74577  10.084   0.506  10.843 -0.1051  0.2126  0.4530
22914SOL    HW174578  10.057   0.419  10.814  1.3835 -0.5145  1.1481
22914SOL    HW274579  10.087   0.500  10.938  0.0000  1.0307  0.5093
22915SOL     OW74580   5.752   0.676   9.526 -0.0050  0.0495 -0.0755
22915SOL    HW174581   5.762   0.617   9.601 -0.0701 -0.0836 -0.1704
22915SOL    HW274582   5.767   0.620   9.450 -1.4950 -0.1851 -0.2419
22916SOL     OW74583   2.369   2.172   8.058  0.2820 -0.8051 -0.1012
22916SOL    HW174584   2.315   2.223   7.997  1.0099 -1.2670 -1.1434
22916SOL    HW274585   2.404   2.238   8.119 -3.1451 -0.6825  2.0366
22917SOL     OW74586   1.621   2.173  10.107 -0.2967  1.0144 -0.7104
22917SOL    HW174587   1.593   2.152  10.196 -0.4980  0.8122 -0.8211
22917SOL    HW274588   1.603   2.093  10.057 -4.3012  2.4338 -1.9322
22918SOL     OW74589   8.729   3.385   1.628  0.3876  0.0759  0.4391
22918SOL    HW174590   8.815   3.372   1.668  1.3545  2.3748 -0.6758
22918SOL    HW274591   8.692   3.460   1.676  0.0602  0.6205 -0.6423
22919SOL     OW74592   6.806   9.347   8.631  0.1223  0.3118  0.0551
22919SOL    HW174593   6.776   9.294   8.558 -0.1071 -0.4600  0.7027
22919SOL    HW274594   6.901   9.337   8.631 -0.0331 -1.5462  1.2351
22920SOL     OW74595   9.847   5.091  10.299 -0.1121 -0.1232 -0.0744
22920SOL    HW174596   9.789   5.062  10.228 -1.4840 -0.6475  1.1994
22920SOL    HW274597   9.826   5.032  10.371 -0.7723  2.1070  1.6531
22921SOL     OW74598   6.762  10.742   0.517 -0.4994  0.3158 -0.1465
22921SOL    HW174599   6.765  10.738   0.612  1.7474  0.6412 -0.1548
22921SOL    HW274600   6.732  10.655   0.490 -1.4575  0.3291  0.8465
22922SOL     OW74601   2.606   3.737   8.288  0.0272 -0.3468  0.3069
22922SOL    HW174602   2.554   3.696   8.219  0.8388 -3.7111  1.4872
22922SOL    HW274603   2.546   3.745   8.362  0.2451 -0.8797  0.5489
22923SOL     OW74604   7.134   4.112   9.349  0.0078  0.0552 -0.0327
22923SOL    HW174605   7.187   4.186   9.320 -0.3193 -0.0597 -0.9579
22923SOL    HW274606   7.147   4.108   9.443  0.4281  0.9759 -0.0483
22924SOL     OW74607   3.786   2.541   9.101 -0.2621  0.4638 -0.0734
22924SOL    HW174608   3.762   2.573   9.014  0.1753  0.5531 -0.1640
22924SOL    HW274609   3.845   2.608   9.135 -0.8237  0.6774  0.4983
22925SOL     OW74610   0.760   7.080   8.197 -0.2388  0.1153 -0.4028
22925SOL    HW174611   0.749   7.064   8.104 -1.4246 -1.1789 -0.0716
22925SOL    HW274612   0.853   7.062   8.213  0.0945  0.8594 -1.4068
22926SOL     OW74613   2.970   5.531   0.715 -0.1218  0.0760  0.0960
22926SOL    HW174614   2.903   5.554   0.779 -1.2669 -1.2700 -0.5686
22926SOL    HW274615   2.925   5.532   0.631  1.0546  0.5564 -0.5553
22927SOL     OW74616   3.190   8.262   5.671  0.5630  0.2269  0.4568
22927SOL    HW174617   3.226   8.200   5.734  0.4765  1.2064  1.4893
22927SOL    HW274618   3.264   8.280   5.612  0.8756 -0.0942  0.7423
22928SOL     OW74619   6.629   9.840  10.766  0.1919 -0.0435 -0.4191
22928SOL    HW174620   6.537   9.867  10.771  0.3300  0.3037  0.3759
22928SOL    HW274621   6.668   9.873  10.847  1.1026  0.1109 -0.9089
22929SOL     OW74622   5.525   6.741   8.788  0.0174 -0.2263 -0.6249
22929SOL    HW174623   5.480   6.691   8.857  0.8889 -1.0581 -0.6354
22929SOL    HW274624   5.562   6.674   8.730  0.6885  0.4428 -0.9858
22930SOL     OW74625   8.994   7.892   5.852  0.0618  0.2395 -0.0751
22930SOL    HW174626   8.914   7.908   5.802 -0.3066 -0.5887  0.2242
22930SOL    HW274627   8.967   7.834   5.923  1.1453 -1.0418 -0.6635
22931SOL     OW74628   3.125   9.199   7.822 -0.7229  0.3305  0.2698
22931SOL    HW174629   3.122   9.133   7.752  0.7262 -0.4262  0.8933
22931SOL    HW274630   3.179   9.160   7.890  0.9462  2.4726  0.3056
22932SOL     OW74631  10.742   3.585   9.113  0.0694 -0.1384  0.0581
22932SOL    HW174632  10.686   3.571   9.037 -0.5749 -0.3607  0.5617
22932SOL    HW274633  10.796   3.661   9.090  0.9356 -1.0967 -1.2042
22933SOL     OW74634   6.136   5.301   9.001  0.4489  0.3781 -0.1434
22933SOL    HW174635   6.088   5.343   9.073 -2.1224  1.3141 -2.2398
22933SOL    HW274636   6.204   5.365   8.978  0.2862  0.7699  0.4159
22934SOL     OW74637   0.611   7.262   4.048  0.4315 -0.0620  0.3476
22934SOL    HW174638   0.598   7.167   4.050  0.2470 -0.1165 -1.6995
22934SOL    HW274639   0.705   7.274   4.058  0.5371 -0.4988 -0.1008
22935SOL     OW74640   4.722   0.363   6.649 -0.0009 -0.0328 -0.0485
22935SOL    HW174641   4.773   0.361   6.567  0.3266  0.5035  0.1356
22935SOL    HW274642   4.714   0.456   6.669  1.0578 -0.1970  1.2321
22936SOL     OW74643   6.286   3.416   0.314 -0.3078  0.6520  0.1157
22936SOL    HW174644   6.263   3.473   0.242 -0.2995  0.5372  0.0217
22936SOL    HW274645   6.219   3.431   0.380 -0.4169  0.6216  0.0104
22937SOL     OW74646   7.720   4.132   4.555 -0.0261 -0.0204 -0.2670
22937SOL    HW174647   7.716   4.226   4.535  2.6001  0.0923 -0.6243
22937SOL    HW274648   7.633   4.099   4.531 -1.5462  2.5134  1.2124
22938SOL     OW74649   7.267   3.356   1.222  0.1767 -0.3496 -0.2248
22938SOL    HW174650   7.177   3.387   1.209  0.0496 -1.0824 -1.2062
22938SOL    HW274651   7.296   3.400   1.302 -0.8022  0.4537 -0.2901
22939SOL     OW74652   6.937  10.823  10.219 -0.4552 -0.1959  0.2733
22939SOL    HW174653   6.926  10.741  10.171  1.3107 -0.2271 -0.1423
22939SOL    HW274654   6.888  10.887  10.169  0.8986 -0.3457 -1.3281
22940SOL     OW74655   0.639   6.547   7.063 -0.1571 -0.2877 -0.0187
22940SOL    HW174656   0.627   6.586   7.150  2.5476 -0.1517  0.4020
22940SOL    HW274657   0.560   6.570   7.015 -0.3906  2.3913  1.4346
22941SOL     OW74658   7.537   1.826   7.775  0.2566  0.4803 -0.0128
22941SOL    HW174659   7.628   1.804   7.798  0.6074  1.4542 -0.4261
22941SOL    HW274660   7.530   1.804   7.683 -0.3275 -0.7936  0.3116
22942SOL     OW74661   9.017   7.753   7.997  0.0163 -0.2852  0.1617
22942SOL    HW174662   9.035   7.702   8.075 -1.0275 -0.7382  0.1136
22942SOL    HW274663   8.992   7.689   7.931 -1.5209  0.2635  0.1598
22943SOL     OW74664   0.764   0.737  10.596 -1.0376  0.3325  0.2489
22943SOL    HW174665   0.728   0.731  10.684 -0.9327 -1.9180  0.2044
22943SOL    HW274666   0.702   0.690  10.541  0.6925 -1.5927 -0.2066
22944SOL     OW74667   4.235   7.958   6.880  0.0441  0.4224 -0.5377
22944SOL    HW174668   4.183   7.885   6.915  0.4654 -1.1041 -2.9136
22944SOL    HW274669   4.171   8.014   6.835 -0.0150  0.5146 -0.3422
22945SOL     OW74670   4.122   7.072  10.241 -0.4797  0.1231  0.6417
22945SOL    HW174671   4.055   7.135  10.265  0.1515  0.1621  2.3951
22945SOL    HW274672   4.091   7.034  10.158  0.5687  4.7995 -2.2479
22946SOL     OW74673   7.352   9.611   3.795  0.4645  0.4194  0.2181
22946SOL    HW174674   7.289   9.622   3.866  0.7560  0.2816  0.5015
22946SOL    HW274675   7.382   9.521   3.804  1.0025  0.6079  0.3354
22947SOL     OW74676   4.910  10.876   4.884  0.0217 -0.2260  0.1983
22947SOL    HW174677   4.929  10.960   4.926  1.3734 -0.0960 -0.6120
22947SOL    HW274678   4.816  10.877   4.870  0.1092  1.5356 -0.5464
22948SOL     OW74679   6.600   5.871   7.542  0.1142  0.8953 -0.0003
22948SOL    HW174680   6.522   5.832   7.580  1.2019 -1.0907  0.2940
22948SOL    HW274681   6.572   5.899   7.454 -1.1718  1.2225  0.4911
22949SOL     OW74682   2.000   2.180   2.666  0.1850  0.1620  0.1394
22949SOL    HW174683   1.932   2.241   2.640 -0.2602 -1.0859 -1.8616
22949SOL    HW274684   2.077   2.234   2.681 -0.8052  1.4262  0.8527
22950SOL     OW74685   7.090   8.535   9.568 -0.3769  0.7652  0.2016
22950SOL    HW174686   7.035   8.612   9.579 -1.3715  0.1351 -0.2319
22950SOL    HW274687   7.079   8.486   9.650  0.5481  1.2594  0.6275
22951SOL     OW74688   0.974  10.185   7.190 -0.6413 -0.3510  0.1927
22951SOL    HW174689   0.964  10.186   7.286  0.3430  1.2775  0.3097
22951SOL    HW274690   1.063  10.217   7.175 -0.9274 -0.2005 -1.2924
22952SOL     OW74691   7.723   5.918   1.155 -0.6327  0.1393 -0.0653
22952SOL    HW174692   7.638   5.936   1.194 -0.3214 -0.7647  1.1043
22952SOL    HW274693   7.778   5.991   1.184 -1.1450  1.0958 -1.3957
22953SOL     OW74694   7.693   1.027   9.091 -0.9024 -0.4369  0.3013
22953SOL    HW174695   7.678   1.066   9.177  0.5845  1.9380 -0.4324
22953SOL    HW274696   7.679   1.098   9.029  1.2334 -1.2106 -1.1890
22954SOL     OW74697   5.171   5.681  10.621 -0.2116  0.1322  0.0710
22954SOL    HW174698   5.193   5.755  10.564 -0.3920  0.9738  1.0688
22954SOL    HW274699   5.075   5.678  10.621 -0.2008 -1.0223 -1.0977
22955SOL     OW74700   5.267   7.821   4.231  0.1264 -0.5122  0.0429
22955SOL    HW174701   5.276   7.727   4.216 -0.1886 -0.6344  0.5689
22955SOL    HW274702   5.355   7.852   4.250  0.2139 -0.7223 -0.0242
22956SOL     OW74703   1.830   0.194   9.005  0.1228 -0.2332  0.4985
22956SOL    HW174704   1.734   0.191   9.004  0.1173 -0.4650 -1.1368
22956SOL    HW274705   1.856   0.109   8.968  0.9041  0.5372 -0.7901
22957SOL     OW74706   6.114   7.505   5.794 -0.3408 -0.3737 -0.2786
22957SOL    HW174707   6.197   7.530   5.754 -0.2558 -1.7436 -1.0349
22957SOL    HW274708   6.047   7.533   5.732 -0.4801  0.9261  0.4318
22958SOL     OW74709   5.170   2.366   0.589  0.1157 -0.3698 -0.3929
22958SOL    HW174710   5.131   2.365   0.677 -0.2126 -0.3097 -0.5381
22958SOL    HW274711   5.251   2.415   0.600 -0.4683  0.6085 -0.3479
22959SOL     OW74712   0.822  10.432  10.252  0.7696  0.1733 -0.1437
22959SOL    HW174713   0.884  10.486  10.302  0.8716  1.5320 -1.6560
22959SOL    HW274714   0.878  10.378  10.195  0.6420  1.5756 -1.6874
22960SOL     OW74715   4.530   5.616   5.021  0.4745 -0.1222 -0.1840
22960SOL    HW174716   4.573   5.688   4.977  0.3691 -0.3390 -0.6570
22960SOL    HW274717   4.466   5.584   4.956 -0.5645  0.3527  0.5833
22961SOL     OW74718   7.219   6.849   5.662 -0.2731  0.3708 -0.1769
22961SOL    HW174719   7.179   6.888   5.584 -0.1995  1.1770  0.1756
22961SOL    HW274720   7.227   6.922   5.723  1.4189  0.1656 -0.1113
22962SOL     OW74721   2.573   9.806   8.004 -0.1976 -0.4032 -0.2471
22962SOL    HW174722   2.488   9.803   7.959 -0.7707 -0.4240  0.7946
22962SOL    HW274723   2.574   9.728   8.059  0.2214 -0.0876  0.2067
22963SOL     OW74724   5.417   6.142   5.748 -0.4449  0.1503  0.6177
22963SOL    HW174725   5.427   6.201   5.823 -0.8409  1.1543 -0.1004
22963SOL    HW274726   5.467   6.183   5.678 -0.5689 -0.4705  0.1614
22964SOL     OW74727   8.522   5.242   8.400  0.5143 -0.9919  0.1150
22964SOL    HW174728   8.455   5.187   8.441  0.3153 -1.3660 -0.6751
22964SOL    HW274729   8.523   5.213   8.309  1.1378 -0.3810 -0.0803
22965SOL     OW74730   1.580   5.831   2.699 -0.0033  0.5091 -0.4522
22965SOL    HW174731   1.579   5.825   2.604 -1.2316  0.3227 -0.4442
22965SOL    HW274732   1.647   5.769   2.727  0.2143  0.4102 -1.1844
22966SOL     OW74733   6.413   5.181   7.307  0.1060 -0.1704  0.2528
22966SOL    HW174734   6.417   5.263   7.356 -1.0959 -0.5235  0.9820
22966SOL    HW274735   6.426   5.112   7.373 -0.6906 -0.6197 -0.0423
22967SOL     OW74736   7.101   8.555   9.077 -0.0500 -0.1890  0.8093
22967SOL    HW174737   7.007   8.570   9.063 -0.1397 -0.7305  0.8311
22967SOL    HW274738   7.105   8.495   9.151  0.3784  1.4673  2.1855
22968SOL     OW74739   5.673   7.497   5.285 -0.1465 -0.3230 -0.0809
22968SOL    HW174740   5.744   7.483   5.222 -0.8661 -0.3025 -0.9146
22968SOL    HW274741   5.651   7.590   5.277  0.5567 -0.0274  1.0909
22969SOL     OW74742   6.906   5.871   5.765 -0.3132 -0.1650 -0.5349
22969SOL    HW174743   6.892   5.961   5.793 -1.0780 -0.2610 -0.6035
22969SOL    HW274744   6.968   5.877   5.693 -0.3082  0.3000 -0.4917
22970SOL     OW74745   3.629   6.791   3.587  0.3938 -0.5241  0.2179
22970SOL    HW174746   3.601   6.777   3.677  0.7581  0.4848  0.4950
22970SOL    HW274747   3.558   6.754   3.534 -1.0696  1.1628  0.9088
22971SOL     OW74748   1.114   7.380   4.357  0.3263 -0.5949 -0.2835
22971SOL    HW174749   1.034   7.382   4.305  2.0162 -0.0096 -3.0266
22971SOL    HW274750   1.109   7.458   4.411 -0.4326  0.0561 -1.2680
22972SOL     OW74751   0.371   3.227   6.410  0.1152  0.5664  0.2842
22972SOL    HW174752   0.331   3.191   6.489 -1.5234  0.9425 -0.3345
22972SOL    HW274753   0.424   3.155   6.376 -1.9636 -0.8720 -0.1548
22973SOL     OW74754   3.054   4.702   6.553  0.8448 -0.1662  0.4807
22973SOL    HW174755   3.058   4.771   6.619 -0.4652 -1.4219  1.9476
22973SOL    HW274756   3.145   4.674   6.543  1.5107  2.1614 -0.6469
22974SOL     OW74757   3.356   9.252  10.382 -0.3281  0.9078  0.0453
22974SOL    HW174758   3.311   9.248  10.466  1.5949  1.0235  1.1423
22974SOL    HW274759   3.434   9.198  10.394 -0.5459  0.0611 -2.0341
22975SOL     OW74760  10.621   8.064   1.395 -0.1104  0.4338  0.1460
22975SOL    HW174761  10.670   8.041   1.316 -0.1090  1.4491 -0.1685
22975SOL    HW274762  10.577   7.983   1.421 -0.0939  0.0806 -0.8839
22976SOL     OW74763   8.589   2.661   0.279  0.3584 -0.0197 -0.0739
22976SOL    HW174764   8.653   2.605   0.236  0.4979  0.2167 -0.1779
22976SOL    HW274765   8.532   2.691   0.208  0.3298  0.0279 -0.0312
22977SOL     OW74766   2.968   4.443   8.660  0.1449 -0.0494 -0.6539
22977SOL    HW174767   2.888   4.475   8.703  0.3269  0.6587 -0.8422
22977SOL    HW274768   2.991   4.364   8.709 -1.6375 -1.2826 -1.6463
22978SOL     OW74769   6.796   3.442   9.532  0.2826 -0.1117  0.5886
22978SOL    HW174770   6.747   3.516   9.498  1.9969  1.1673  0.8151
22978SOL    HW274771   6.817   3.466   9.623  0.9180 -0.8221  0.6429
22979SOL     OW74772   5.300   8.397   9.799 -0.3219  0.1089  0.5817
22979SOL    HW174773   5.273   8.335   9.867 -1.9728  0.6763  0.4918
22979SOL    HW274774   5.322   8.477   9.847  0.3488 -0.0663  0.5778
22980SOL     OW74775   5.699   1.683   2.050 -0.6650  0.4809 -0.0383
22980SOL    HW174776   5.754   1.750   2.009 -1.5900  0.6754 -1.0085
22980SOL    HW274777   5.611   1.722   2.051 -1.0317 -0.3459  0.2598
22981SOL     OW74778   6.874   6.233   2.767 -0.2303 -0.1781  0.2166
22981SOL    HW174779   6.821   6.250   2.689 -0.1760 -1.4344 -0.1259
22981SOL    HW274780   6.936   6.165   2.739  1.1449  0.7782  0.7874
22982SOL     OW74781   0.900   4.782   8.957  0.3684 -0.1395  0.0909
22982SOL    HW174782   0.908   4.802   9.050  1.9849 -1.0084  0.1763
22982SOL    HW274783   0.927   4.691   8.949  1.5879  0.2887 -1.3703
22983SOL     OW74784   2.098   5.884   2.241  0.2246 -0.2645  0.1167
22983SOL    HW174785   2.114   5.806   2.188 -0.1201  0.3910 -0.9792
22983SOL    HW274786   2.007   5.877   2.268  0.2892 -0.4034  0.3013
22984SOL     OW74787  10.192   9.038   5.653  0.0167  0.5058 -0.1220
22984SOL    HW174788  10.216   9.057   5.563 -0.0731 -0.3562 -0.3395
22984SOL    HW274789  10.180   8.943   5.655 -1.6787  0.6997  0.3769
22985SOL     OW74790   9.013   6.994   4.870  0.2153  0.3359 -0.2733
22985SOL    HW174791   8.951   7.064   4.849  0.2902  0.1637 -1.1158
22985SOL    HW274792   9.099   7.030   4.846  0.2389 -0.0818 -0.8531
22986SOL     OW74793   9.866   3.001   9.710  0.2504 -0.2047 -0.0296
22986SOL    HW174794   9.880   3.082   9.660  0.6696 -1.2623 -1.7372
22986SOL    HW274795   9.799   2.954   9.660  0.5484 -1.2237  0.5094
22987SOL     OW74796   0.435   1.326   7.192  0.3248  0.4531 -0.4209
22987SOL    HW174797   0.495   1.371   7.252 -0.2804  3.1313 -1.6736
22987SOL    HW274798   0.358   1.382   7.188  0.5392  0.7295 -4.0139
22988SOL     OW74799   8.690   8.915   5.167  0.3864 -0.2870  0.4357
22988SOL    HW174800   8.762   8.914   5.105 -0.1686  0.7918 -0.2546
22988SOL    HW274801   8.726   8.956   5.246  0.4137  0.7036 -0.0780
22989SOL     OW74802   0.047   5.337   1.588 -0.0955 -0.1323  0.4362
22989SOL    HW174803   0.001   5.364   1.668  1.8459  1.5470  1.0779
22989SOL    HW274804   0.059   5.419   1.539 -0.2505 -0.9733 -1.0682
22990SOL     OW74805   1.832   9.926   2.492 -0.0042 -0.3370 -0.2501
22990SOL    HW174806   1.922   9.956   2.477 -0.3029  0.3234 -0.8015
22990SOL    HW274807   1.782  10.007   2.502 -0.4037 -0.7127  0.9306
22991SOL     OW74808   9.903   9.632   2.919 -0.0453  0.3277  0.4749
22991SOL    HW174809   9.833   9.692   2.948  0.3310  0.6473  0.7392
22991SOL    HW274810   9.917   9.655   2.827  0.6829  1.2439  0.7985
22992SOL     OW74811   9.256   9.818  10.674  0.0356  0.3001 -1.2318
22992SOL    HW174812   9.204   9.830  10.594  0.9869  0.1480 -1.8949
22992SOL    HW274813   9.268   9.723  10.681 -2.2707  0.0747  0.5891
22993SOL     OW74814   9.586   1.011   5.865 -0.1288  0.0874  0.9573
22993SOL    HW174815   9.562   0.928   5.908  1.3771 -0.5739  0.5771
22993SOL    HW274816   9.545   1.078   5.920 -1.5919 -0.8969  1.1378
22994SOL     OW74817   5.872   5.162   1.735 -0.5152 -0.1465 -0.3207
22994SOL    HW174818   5.950   5.173   1.681 -0.6379  0.6406 -0.3578
22994SOL    HW274819   5.895   5.093   1.798  1.4440  2.2315  1.8077
22995SOL     OW74820   5.546   7.508   7.408 -0.3343 -0.2196  0.2357
22995SOL    HW174821   5.552   7.432   7.467  1.1228  0.2035  0.6922
22995SOL    HW274822   5.531   7.470   7.322  0.6416 -1.0713  0.4084
22996SOL     OW74823   6.784   1.854   9.923 -0.5920  0.3525 -0.3500
22996SOL    HW174824   6.710   1.813   9.968 -0.2589 -0.3733 -0.4443
22996SOL    HW274825   6.861   1.824   9.970 -0.2796  0.1054 -1.0048
22997SOL     OW74826   3.883   9.888   1.575 -0.4963 -0.1675  0.7705
22997SOL    HW174827   3.819   9.928   1.516 -0.3831 -0.5523  0.3815
22997SOL    HW274828   3.928   9.962   1.615  0.7612  0.1386 -1.0754
22998SOL     OW74829   1.177   9.362   8.331  0.8923  0.2167 -0.7305
22998SOL    HW174830   1.256   9.353   8.279  0.5878 -0.4050 -1.0873
22998SOL    HW274831   1.149   9.453   8.317  1.0924  0.2004 -1.2400
22999SOL     OW74832   0.067   2.108   3.525 -0.1230  0.7188 -1.0129
22999SOL    HW174833   0.119   2.179   3.488  0.3182  1.0682  0.2458
22999SOL    HW274834   0.127   2.061   3.583 -1.2751  1.4052  0.8483
23000SOL     OW74835  10.773   8.444   7.298 -0.3384 -0.0964  0.2098
23000SOL    HW174836  10.790   8.372   7.358  1.0028  0.4349  0.5229
23000SOL    HW274837  10.704   8.413   7.241  0.6296 -1.8748 -0.0692
23001SOL     OW74838   9.993   2.763   4.733 -0.0046  0.1045  0.2887
23001SOL    HW174839  10.012   2.777   4.826  0.8088  0.9636  0.0074
23001SOL    HW274840  10.006   2.669   4.720  2.0365  0.2990  0.5976
23002SOL     OW74841   0.747   4.483   2.269  0.4229 -0.1990 -0.3830
23002SOL    HW174842   0.753   4.420   2.340  4.5211  1.2353  0.8174
23002SOL    HW274843   0.670   4.535   2.289  1.5930  0.3441  3.2794
23003SOL     OW74844   2.973   5.489   7.753  0.2825 -1.1555  0.3563
23003SOL    HW174845   2.946   5.410   7.799  0.5767 -1.2182  0.4197
23003SOL    HW274846   3.032   5.533   7.814 -2.6767  0.9914  1.9423
23004SOL     OW74847   2.889   4.397   2.914 -0.0636  0.0620  0.3602
23004SOL    HW174848   2.900   4.412   3.008 -1.2746  0.2436  0.4891
23004SOL    HW274849   2.956   4.452   2.873 -0.1075  0.6770  1.0867
23005SOL     OW74850   2.786  10.830   0.664  0.2892 -1.3393  0.2582
23005SOL    HW174851   2.837  10.764   0.617 -0.8610 -0.0368 -3.1202
23005SOL    HW274852   2.842  10.907   0.664 -0.5090 -0.7343 -0.9162
23006SOL     OW74853   4.405   5.772   0.994 -0.0021  0.3258 -0.6941
23006SOL    HW174854   4.450   5.837   0.941 -0.5377  1.6238  0.4032
23006SOL    HW274855   4.465   5.754   1.066 -0.6383  1.0285  0.0220
23007SOL     OW74856   9.428   4.156  10.730 -0.2597 -0.1306 -0.4091
23007SOL    HW174857   9.401   4.176  10.820  0.6853  0.8408 -0.3191
23007SOL    HW274858   9.440   4.061  10.729 -1.6717 -0.3411  0.0805
23008SOL     OW74859  10.818   8.039  10.521 -0.1432  0.4209 -0.2616
23008SOL    HW174860  10.906   8.065  10.549  0.3103 -0.1953 -1.0801
23008SOL    HW274861  10.785   7.984  10.592 -0.3510  1.6250  0.5951
23009SOL     OW74862   7.384  10.332   8.602  0.7938 -0.1800 -0.1415
23009SOL    HW174863   7.319  10.334   8.672 -0.7738 -0.5816 -1.5195
23009SOL    HW274864   7.454  10.390   8.632  0.4228 -0.7263  1.9461
23010SOL     OW74865   4.539   8.225   7.551  0.0703 -0.0786  0.0017
23010SOL    HW174866   4.468   8.275   7.591  0.9451  0.5495  0.8237
23010SOL    HW274867   4.593   8.198   7.625  1.6573  0.9878 -0.7081
23011SOL     OW74868   3.795   2.025   2.956  0.2372 -0.4826 -0.0668
23011SOL    HW174869   3.727   2.005   3.020  0.1025 -0.9414 -0.3439
23011SOL    HW274870   3.819   2.116   2.973 -0.6650 -0.2149 -0.1712
23012SOL     OW74871   8.899   7.619   0.439  0.4871  0.1906  0.3732
23012SOL    HW174872   8.832   7.566   0.483 -1.8647  1.3995 -1.4819
23012SOL    HW274873   8.918   7.690   0.501 -2.3484  1.5568 -0.1346
23013SOL     OW74874   1.104   7.890   7.809 -0.1878  0.5210  0.0052
23013SOL    HW174875   1.183   7.908   7.860 -0.7446 -0.0588  1.1233
23013SOL    HW274876   1.069   7.977   7.788 -1.6575  0.9263  3.4150
23014SOL     OW74877   7.370   9.782  10.759  0.5787 -0.2797 -0.0541
23014SOL    HW174878   7.447   9.836  10.739 -0.1141  1.9348  2.5852
23014SOL    HW274879   7.393   9.737  10.840 -0.3636 -0.7381 -0.0324
23015SOL     OW74880   5.236   2.815   0.691 -0.6898  0.8357  0.0870
23015SOL    HW174881   5.208   2.826   0.782  2.8986  0.2725  1.4297
23015SOL    HW274882   5.227   2.722   0.674 -2.5482  1.1168 -0.6393
23016SOL     OW74883   2.721   1.748  10.095  0.2622 -0.8913  0.7971
23016SOL    HW174884   2.805   1.733  10.052  0.1378  0.3496  0.0657
23016SOL    HW274885   2.743   1.795  10.175  0.2587 -0.3459  0.4836
23017SOL     OW74886   0.251   0.881   2.998 -0.5259  0.1530 -0.2192
23017SOL    HW174887   0.217   0.835   2.921  0.5258 -1.5307  0.2698
23017SOL    HW274888   0.197   0.848   3.071 -2.2423  2.5310 -0.2907
23018SOL     OW74889   7.890   4.990   9.315 -0.2003  0.2605  0.2249
23018SOL    HW174890   7.982   4.965   9.324 -0.0638  0.9257  0.7956
23018SOL    HW274891   7.878   5.060   9.379 -0.7628  1.0815 -0.7482
23019SOL     OW74892   1.056  10.776   7.315 -1.0063  0.1099 -0.9280
23019SOL    HW174893   1.024  10.698   7.270 -0.8389 -0.4910 -0.0318
23019SOL    HW274894   1.151  10.766   7.314 -1.0382 -0.7349  0.9378
23020SOL     OW74895   8.653   1.640   0.098 -0.1305  0.4224 -0.9179
23020SOL    HW174896   8.579   1.604   0.050 -0.1545 -0.9706  0.1040
23020SOL    HW274897   8.632   1.624   0.190  0.5846  1.7143 -0.5036
23021SOL     OW74898   3.768   5.971   1.636 -0.4213 -0.3993 -0.1799
23021SOL    HW174899   3.850   6.002   1.674 -0.0016 -1.3150 -0.3093
23021SOL    HW274900   3.707   5.966   1.710 -1.1182  2.4884 -0.4019
23022SOL     OW74901   2.578   9.755   3.920 -0.1795  0.3651 -0.2865
23022SOL    HW174902   2.572   9.684   3.856  0.8668  0.4544 -0.5024
23022SOL    HW274903   2.670   9.781   3.919 -0.5632  1.8118 -0.3015
23023SOL     OW74904   5.133   7.980   4.046 -0.4717 -0.5883  0.0313
23023SOL    HW174905   5.124   8.024   4.131 -0.3644 -0.6128  0.0549
23023SOL    HW274906   5.216   7.934   4.051 -0.2857 -0.2898 -0.2221
23024SOL     OW74907   9.792   5.601   6.221  0.2068  0.2815  0.1937
23024SOL    HW174908   9.852   5.593   6.147  1.5852  1.8786  1.0595
23024SOL    HW274909   9.787   5.695   6.238 -1.1421  0.0451  1.2973
23025SOL     OW74910   7.535   7.743   9.088 -0.0091  0.4386  0.9563
23025SOL    HW174911   7.503   7.833   9.078 -0.7673  0.1261  0.4812
23025SOL    HW274912   7.456   7.689   9.082  0.4895 -0.2871  0.8440
23026SOL     OW74913   3.062   5.954   4.392  0.0663 -0.3379  0.2957
23026SOL    HW174914   3.070   5.889   4.461 -2.5257  0.6506  1.6647
23026SOL    HW274915   2.989   5.923   4.338  1.9372 -1.0026 -1.9794
23027SOL     OW74916   4.051   3.545   0.408 -0.6726  0.3138  0.0252
23027SOL    HW174917   3.964   3.520   0.439 -0.1843 -2.6894 -0.7735
23027SOL    HW274918   4.059   3.504   0.322  1.3886  0.8553 -0.0882
23028SOL     OW74919   7.353   7.473   4.219 -0.8449  0.5169 -0.2998
23028SOL    HW174920   7.327   7.423   4.141 -1.5711  0.8339 -0.2727
23028SOL    HW274921   7.303   7.434   4.290  0.7917 -0.6249  0.2686
23029SOL     OW74922   8.032   3.425   8.020 -0.1068 -0.0116  0.3050
23029SOL    HW174923   8.072   3.364   7.958  0.3922  0.4041  0.2038
23029SOL    HW274924   8.044   3.384   8.106  0.3426  0.0053  0.2512
23030SOL     OW74925  10.034   0.198   0.047 -0.0789 -0.1660  0.5845
23030SOL    HW174926  10.126   0.203   0.072 -0.1582  1.9679  0.7003
23030SOL    HW274927  10.035   0.173  -0.046  0.6675  0.3634  0.4395
23031SOL     OW74928   5.800   2.539   4.114 -0.1430 -0.2079  0.2626
23031SOL    HW174929   5.884   2.527   4.158 -0.6207 -1.1355  0.9509
23031SOL    HW274930   5.791   2.462   4.058 -0.1115  0.3564 -0.5439
23032SOL     OW74931   2.358   4.056   8.202  0.5571  0.0474  0.4817
23032SOL    HW174932   2.357   4.063   8.106  2.3833  2.0955  0.5372
23032SOL    HW274933   2.328   4.142   8.232 -0.1332 -0.6204  1.7888
23033SOL     OW74934  10.026   6.932   3.905 -0.0904 -0.2817 -0.0554
23033SOL    HW174935  10.113   6.952   3.941 -0.4049  2.0421 -0.3944
23033SOL    HW274936   9.969   6.927   3.981 -0.0131  0.2973  0.0441
23034SOL     OW74937   4.177   5.533   2.479  0.0561 -0.5520  0.7515
23034SOL    HW174938   4.222   5.593   2.420  0.2082  0.4756  1.8676
23034SOL    HW274939   4.228   5.452   2.475  1.2557  0.1749  1.0157
23035SOL     OW74940   3.176   4.079   5.164 -0.4034 -0.0337 -0.1683
23035SOL    HW174941   3.248   4.079   5.227  0.6574  0.6743 -1.3307
23035SOL    HW274942   3.141   3.990   5.167  1.6108 -0.8911 -0.7660
23036SOL     OW74943   5.703   9.207   8.343 -0.1469  0.1499 -0.0408
23036SOL    HW174944   5.756   9.286   8.345 -0.3194  0.2730 -0.3192
23036SOL    HW274945   5.627   9.230   8.290 -0.1162 -0.2553 -0.2668
23037SOL     OW74946   4.622   0.880   5.344 -0.2119  0.2044  0.6213
23037SOL    HW174947   4.661   0.961   5.312 -0.9735  0.5166  0.4601
23037SOL    HW274948   4.567   0.850   5.271  0.4907 -0.7623  0.4615
23038SOL     OW74949   9.314   2.150   4.990  0.2130 -0.2277 -0.1732
23038SOL    HW174950   9.293   2.081   5.053  0.6795 -0.0227  0.2117
23038SOL    HW274951   9.400   2.126   4.956  0.1887 -0.0645 -0.3521
23039SOL     OW74952   2.017   0.542   6.469 -0.3223  0.3386 -0.3010
23039SOL    HW174953   1.993   0.467   6.522 -0.1854  1.3921  1.3023
23039SOL    HW274954   2.027   0.506   6.380 -1.3727 -1.2945  0.1989
23040SOL     OW74955   8.280   0.772   1.460  0.7438  0.3876  0.3949
23040SOL    HW174956   8.369   0.797   1.483  0.8392  2.1543 -1.6209
23040SOL    HW274957   8.283   0.752   1.367 -0.8142 -0.3303  0.4607
23041SOL     OW74958   7.841   7.774   5.332  0.8105 -0.1191  0.7218
23041SOL    HW174959   7.811   7.758   5.243  2.2977 -0.0596  0.1739
23041SOL    HW274960   7.873   7.689   5.362 -0.4221 -0.3289  1.5284
23042SOL     OW74961   7.081   0.590   9.707  0.2398  0.0589 -0.3195
23042SOL    HW174962   7.153   0.575   9.646  0.2859  1.5317 -0.6707
23042SOL    HW274963   7.123   0.616   9.788  0.1252  0.3697 -0.3579
23043SOL     OW74964   7.619   2.440   6.629  0.0479  0.2921 -0.1766
23043SOL    HW174965   7.706   2.467   6.599 -0.3174  1.4741 -0.2233
23043SOL    HW274966   7.577   2.407   6.549  0.5621 -0.6475 -0.0816
23044SOL     OW74967   0.145   5.598   7.713 -0.1737 -0.0070  0.2769
23044SOL    HW174968   0.067   5.635   7.754  1.1962  2.9757  0.4326
23044SOL    HW274969   0.141   5.627   7.622  0.0321 -1.1245 -0.1066
23045SOL     OW74970   6.171   4.739   2.222  0.1170  0.1025  0.0119
23045SOL    HW174971   6.239   4.694   2.272  1.1291  2.8459  1.3411
23045SOL    HW274972   6.090   4.691   2.243  1.1353 -1.2664  1.0371
23046SOL     OW74973   7.337   9.762   9.049  0.1846  0.1986 -0.5827
23046SOL    HW174974   7.343   9.858   9.043 -0.7589  0.4516  1.6357
23046SOL    HW274975   7.418   9.736   9.091 -0.4611  0.2978  0.7875
23047SOL     OW74976   0.203  10.728   1.892  0.0824 -0.3262  0.4321
23047SOL    HW174977   0.226  10.820   1.881 -4.0281  0.9552  0.8381
23047SOL    HW274978   0.220  10.709   1.984  0.9053  0.0051  0.3574
23048SOL     OW74979   8.988   3.345   8.093 -0.1093  0.3383 -0.7748
23048SOL    HW174980   9.055   3.331   8.160  0.1351 -2.4133 -1.4839
23048SOL    HW274981   8.912   3.379   8.142 -0.3617 -2.6987  1.1935
23049SOL     OW74982   4.751  10.484   3.544  0.1466 -0.1427 -0.1737
23049SOL    HW174983   4.774  10.460   3.634 -0.1082  0.0013 -0.0693
23049SOL    HW274984   4.655  10.479   3.542  0.0339  1.4016  0.0137
23050SOL     OW74985   2.321   9.064   1.455  0.7809 -0.2546 -0.0450
23050SOL    HW174986   2.366   9.121   1.394  1.1414 -0.1558  0.3081
23050SOL    HW274987   2.389   9.033   1.515  0.1483  1.2449  1.5556
23051SOL     OW74988  10.463  10.602   7.085 -0.6568 -0.0999  0.0460
23051SOL    HW174989  10.413  10.522   7.102  0.2680 -0.7555 -0.2352
23051SOL    HW274990  10.510  10.584   7.004  0.2238  0.4125  0.4316
23052SOL     OW74991   6.009   5.884   8.360  0.1040  0.0078 -0.6979
23052SOL    HW174992   5.947   5.845   8.422 -0.7876  0.6351 -1.1635
23052SOL    HW274993   6.060   5.945   8.413 -0.9748  0.8999 -0.6460
23053SOL     OW74994   7.356   4.861   0.828  0.0668 -0.5567 -0.3980
23053SOL    HW174995   7.295   4.813   0.771  0.7276 -0.2295 -1.4098
23053SOL    HW274996   7.318   4.949   0.835  1.0324  0.0370 -2.0789
23054SOL     OW74997   9.698   9.776   3.044  0.2469  0.1561  0.4919
23054SOL    HW174998   9.603   9.782   3.035  0.3817  0.0401 -1.2306
23054SOL    HW274999   9.714   9.685   3.067  0.0943 -0.6282 -2.2186
23055SOL     OW75000   7.234   1.984   2.706 -0.3553  0.4474  0.0197
23055SOL    HW175001   7.198   2.053   2.652  1.2627  2.5295  1.4452
23055SOL    HW275002   7.329   1.989   2.690 -0.1888 -1.4492  0.1922
23056SOL     OW75003   2.715  10.308   4.810 -0.6878 -0.4480  0.5606
23056SOL    HW175004   2.749  10.330   4.897  2.4499  0.8442 -0.8349
23056SOL    HW275005   2.673  10.389   4.780  2.3954  0.7875 -0.8285
23057SOL     OW75006  10.312   7.483  10.074 -0.3926 -0.4107  0.4909
23057SOL    HW175007  10.294   7.462   9.983  1.1735  0.3521 -0.0289
23057SOL    HW275008  10.384   7.425  10.099 -0.2984 -0.0872  1.0019
23058SOL     OW75009   7.407   7.507   5.267  0.3464 -0.0302 -0.6789
23058SOL    HW175010   7.441   7.531   5.181  0.8587  0.6199 -0.3095
23058SOL    HW275011   7.312   7.517   5.260  0.2395 -1.4911 -1.6164
23059SOL     OW75012   1.162   7.496   0.578  0.2506  0.2196  0.3305
23059SOL    HW175013   1.243   7.545   0.595 -0.2368  1.6261 -1.1825
23059SOL    HW275014   1.142   7.514   0.487 -0.9145 -1.4436  0.2210
23060SOL     OW75015   1.417  10.818   1.103 -0.1255  0.1241  0.3176
23060SOL    HW175016   1.355  10.854   1.166  0.4925  0.7240  0.5892
23060SOL    HW275017   1.393  10.725   1.097 -0.5592  0.1866  0.9880
23061SOL     OW75018   5.868   2.899   8.159 -0.6221 -0.8593 -0.2024
23061SOL    HW175019   5.920   2.979   8.149 -1.4562  0.1488  2.5426
23061SOL    HW275020   5.923   2.842   8.213 -1.3546 -0.7408  0.6967
23062SOL     OW75021   8.527   4.248   1.783 -0.0302 -0.0235  0.3250
23062SOL    HW175022   8.507   4.259   1.690  2.6217 -0.4286 -0.3906
23062SOL    HW275023   8.582   4.323   1.805  0.6518 -0.7351  1.1393
23063SOL     OW75024   1.959   0.747   5.022 -0.6384  0.0192  0.2362
23063SOL    HW175025   2.009   0.790   5.091  0.6958  1.2992 -1.4531
23063SOL    HW275026   1.903   0.816   4.987 -0.9107 -0.4784 -0.3218
23064SOL     OW75027   0.807   7.308   7.872 -0.2620 -0.0076  0.4672
23064SOL    HW175028   0.873   7.243   7.899 -0.4225 -0.4506 -0.1808
23064SOL    HW275029   0.855   7.391   7.870  0.9802 -0.6957 -2.4488
23065SOL     OW75030  10.088   3.976   8.766  0.1903  0.2861 -0.2018
23065SOL    HW175031  10.081   3.884   8.791  0.0330 -0.1296 -1.6772
23065SOL    HW275032  10.156   3.977   8.699  0.8257  1.3987  0.4446
23066SOL     OW75033  10.453   8.674   9.984 -0.1470 -0.2865 -0.3537
23066SOL    HW175034  10.500   8.620  10.047  1.3920  0.6377 -0.6538
23066SOL    HW275035  10.478   8.639   9.898 -0.0666  0.1736 -0.5187
23067SOL     OW75036   4.687   8.208   6.510  0.6020 -0.6370  0.0954
23067SOL    HW175037   4.753   8.235   6.445 -0.2883  0.0661 -0.5407
23067SOL    HW275038   4.701   8.114   6.521  1.5694 -0.5359 -0.1882
23068SOL     OW75039   0.829   1.914   2.970 -0.2231  0.6645  0.3415
23068SOL    HW175040   0.774   1.985   2.935  1.9346  2.6128  0.6604
23068SOL    HW275041   0.855   1.945   3.057  1.9770  0.2005 -0.1030
23069SOL     OW75042   7.753  10.130   5.149  0.4691 -0.7780  0.5824
23069SOL    HW175043   7.814  10.198   5.179 -0.2462 -0.3160  1.0385
23069SOL    HW275044   7.675  10.144   5.202 -1.7826  1.5218 -2.8784
23070SOL     OW75045   8.239   6.555   5.506 -0.3017  0.6861  0.1390
23070SOL    HW175046   8.180   6.558   5.580  0.5367 -0.1380  0.8756
23070SOL    HW275047   8.197   6.495   5.444 -0.3196  0.2239  0.5908
23071SOL     OW75048   1.044   9.893   8.341 -0.2262  0.3795  0.1237
23071SOL    HW175049   0.950   9.910   8.345 -0.2576  0.0105  2.7333
23071SOL    HW275050   1.084   9.980   8.344 -0.5040  0.4882  1.6209
23072SOL     OW75051  10.090   2.135   0.696 -0.4043  0.1890  0.5542
23072SOL    HW175052  10.031   2.059   0.694 -1.3470  0.9201 -0.5232
23072SOL    HW275053  10.115   2.149   0.605  1.7131 -0.2717  1.0179
23073SOL     OW75054  10.255   3.494   7.591  0.4331 -0.2401  0.6486
23073SOL    HW175055  10.188   3.562   7.587  0.9820  0.3434  0.9863
23073SOL    HW275056  10.295   3.495   7.504  0.6364  0.0902  0.7410
23074SOL     OW75057   1.349   2.728   2.170  0.0943  0.1345  0.5011
23074SOL    HW175058   1.377   2.809   2.213 -2.7162 -0.0465  2.9776
23074SOL    HW275059   1.368   2.659   2.233  0.1343 -0.8121 -0.5273
23075SOL     OW75060   6.927   9.706   7.839 -0.0077 -0.0449  0.9236
23075SOL    HW175061   6.914   9.780   7.898 -1.5152  0.8910 -0.4976
23075SOL    HW275062   6.915   9.629   7.894  0.2496  0.7683  2.1628
23076SOL     OW75063  10.417   0.336   3.888  0.2656  0.1909  0.5850
23076SOL    HW175064  10.419   0.393   3.811 -1.0760 -0.9198 -0.3246
23076SOL    HW275065  10.357   0.265   3.864 -1.4490  0.6087  3.1953
23077SOL     OW75066   5.037   1.625   2.569 -0.2934 -0.1548  0.0592
23077SOL    HW175067   4.950   1.601   2.601  0.2967  0.8058  2.6053
23077SOL    HW275068   5.050   1.715   2.599  1.7024 -0.3918  0.0173
23078SOL     OW75069   6.393   5.507   3.844  0.4198  0.3452 -0.3611
23078SOL    HW175070   6.302   5.537   3.856  0.6968  0.7773  0.8629
23078SOL    HW275071   6.434   5.524   3.929  1.2913 -1.1160 -0.4680
23079SOL     OW75072   5.399   5.584   2.991 -0.0612  0.3117 -0.1498
23079SOL    HW175073   5.326   5.600   2.931 -1.3806 -1.2648  0.9292
23079SOL    HW275074   5.477   5.589   2.937 -1.1797 -0.6458 -1.9388
23080SOL     OW75075   2.040  10.154   5.235  0.7461  0.5319  0.1047
23080SOL    HW175076   2.130  10.182   5.220  0.8107  0.0471 -0.4948
23080SOL    HW275077   2.003  10.146   5.147  0.3872 -0.1119  0.3078
23081SOL     OW75078   0.394   9.317   9.264 -0.0462 -0.3671 -0.3325
23081SOL    HW175079   0.420   9.233   9.302  2.0304  0.4525  0.1782
23081SOL    HW275080   0.309   9.336   9.304 -0.8379 -2.4687 -0.8954
23082SOL     OW75081  10.454   7.520   9.044 -0.0518  0.5128 -0.5712
23082SOL    HW175082  10.470   7.451   9.109 -0.6130 -0.7006 -1.6732
23082SOL    HW275083  10.493   7.598   9.082 -0.6652 -0.0838  1.3721
23083SOL     OW75084   9.465  10.222   7.583 -0.2904  0.3343 -0.4641
23083SOL    HW175085   9.459  10.234   7.678  0.4785  2.9825 -0.6744
23083SOL    HW275086   9.559  10.226   7.564 -0.3450 -1.3202 -1.2531
23084SOL     OW75087   5.923   8.861  10.280  0.2130  0.1418  0.1014
23084SOL    HW175088   5.975   8.791  10.240 -0.7153 -1.4490  1.5427
23084SOL    HW275089   5.901   8.919  10.207 -1.2604 -2.5030 -1.7724
23085SOL     OW75090   7.525   3.925   5.188  0.0516 -0.1546  0.3660
23085SOL    HW175091   7.537   4.001   5.244  1.7738  1.5928 -2.1725
23085SOL    HW275092   7.441   3.940   5.145 -0.3282 -0.4841  0.9847
23086SOL     OW75093   0.056   0.786   1.265  0.4781  0.7540  0.0032
23086SOL    HW175094   0.130   0.725   1.269  0.7288  1.0623  0.0789
23086SOL    HW275095   0.003   0.763   1.341  0.6621  0.7425  0.1296
23087SOL     OW75096   4.263   1.517  10.897  0.0622 -1.2652  0.2860
23087SOL    HW175097   4.233   1.518  10.806 -1.8000 -1.5008  0.8450
23087SOL    HW275098   4.358   1.508  10.891  0.4042  2.0301 -1.6834
23088SOL     OW75099  10.376   9.104   8.962  0.2638  0.4101  0.2478
23088SOL    HW175100  10.447   9.053   8.925 -1.1993 -1.7738  0.2528
23088SOL    HW275101  10.337   9.150   8.888 -1.0389 -1.9109 -0.6113
23089SOL     OW75102   9.894   1.121   3.759 -0.3396 -0.5682  0.5227
23089SOL    HW175103   9.820   1.176   3.736 -1.7051 -0.7584  3.8577
23089SOL    HW275104   9.857   1.033   3.768  0.5814 -0.9324  0.9104
23090SOL     OW75105   3.833   8.421   4.114  0.1010  0.1798  0.4430
23090SOL    HW175106   3.898   8.351   4.122  0.3980 -0.3679 -4.1644
23090SOL    HW275107   3.749   8.375   4.119  0.2156 -0.0031  0.7179
23091SOL     OW75108   2.966   3.745   7.108 -0.1087 -0.0634  0.4441
23091SOL    HW175109   3.028   3.818   7.102 -0.1724 -0.0662 -0.5260
23091SOL    HW275110   2.963   3.709   7.019 -1.5900  0.0042  0.4363
23092SOL     OW75111   2.686   7.375   6.108 -0.4936 -0.4516 -0.2993
23092SOL    HW175112   2.681   7.285   6.073 -2.9461  0.3243 -2.2702
23092SOL    HW275113   2.775   7.382   6.141  0.0333 -3.3798 -0.7357
23093SOL     OW75114   3.884   3.033   6.974  0.2753 -0.3735 -0.0344
23093SOL    HW175115   3.875   3.027   7.069  0.6720 -1.2915 -0.0477
23093SOL    HW275116   3.895   3.127   6.957 -1.4399 -0.0252  0.6577
23094SOL     OW75117  10.469   0.579   0.041 -0.4211 -0.1877  0.3462
23094SOL    HW175118  10.466   0.531   0.124  0.1341 -1.1023 -0.1438
23094SOL    HW275119  10.541   0.539  -0.007 -0.8014  0.2576 -0.6205
23095SOL     OW75120   2.793   3.520   3.084  0.2825  0.1375  0.0674
23095SOL    HW175121   2.774   3.430   3.057 -1.4407 -0.9848  4.2519
23095SOL    HW275122   2.888   3.522   3.096  0.2476 -1.4600  0.8399
23096SOL     OW75123   5.016   5.372   5.805  0.7995 -0.2830 -0.2287
23096SOL    HW175124   4.965   5.333   5.734  1.1205 -0.6649 -0.2569
23096SOL    HW275125   4.955   5.377   5.878  1.3400 -3.1486  0.5615
23097SOL     OW75126   2.881   9.210   2.424 -0.0719  0.1734 -0.1642
23097SOL    HW175127   2.828   9.157   2.365  2.0271 -0.3012 -1.7639
23097SOL    HW275128   2.833   9.210   2.506 -1.3504 -2.2171 -0.8054
23098SOL     OW75129   2.774   6.733   7.708  0.2610  0.6669  0.2545
23098SOL    HW175130   2.697   6.701   7.662  0.1340 -0.6263  1.3122
23098SOL    HW275131   2.753   6.720   7.801  1.8491  0.0220  0.5520
23099SOL     OW75132   4.633   9.114   0.250  0.1190 -0.1167 -0.2308
23099SOL    HW175133   4.582   9.049   0.298  0.4082 -0.1704  0.0020
23099SOL    HW275134   4.579   9.134   0.173  0.1840 -0.8814 -0.4809
23100SOL     OW75135   7.497  10.901   4.589  0.1155  0.2714  0.0324
23100SOL    HW175136   7.430  10.852   4.542  0.1509  1.8231 -1.7211
23100SOL    HW275137   7.570  10.839   4.597 -0.9610 -0.9667  0.7211
23101SOL     OW75138   5.659   1.602   1.333 -0.1572  0.0328  0.3472
23101SOL    HW175139   5.587   1.630   1.276  1.9452  2.0235 -1.5323
23101SOL    HW275140   5.670   1.675   1.394 -0.4620 -0.8020  1.4349
23102SOL     OW75141   5.139   0.491   5.302 -0.0942 -0.3053 -0.1268
23102SOL    HW175142   5.230   0.504   5.277 -0.2205 -0.0904 -0.4786
23102SOL    HW275143   5.090   0.552   5.246 -0.2275  1.6786  1.9953
23103SOL     OW75144   4.836   7.820   2.179 -0.1446 -0.0112  0.3205
23103SOL    HW175145   4.788   7.813   2.261 -1.5434 -1.3753 -0.5569
23103SOL    HW275146   4.917   7.772   2.195  0.0004  0.4968  1.1666
23104SOL     OW75147   0.178   2.267   3.752 -0.5316 -0.3599  0.1983
23104SOL    HW175148   0.266   2.300   3.735 -0.2859 -0.9425  0.2933
23104SOL    HW275149   0.120   2.330   3.710 -0.1853  1.1811  1.9085
23105SOL     OW75150   9.306   4.190   9.107 -0.4141 -0.2079 -0.3832
23105SOL    HW175151   9.380   4.247   9.084 -1.5232  2.0090  1.1827
23105SOL    HW275152   9.311   4.182   9.202 -1.0024 -1.8081 -0.4613
23106SOL     OW75153   1.525   8.959   8.606 -0.0105  0.2544  0.0203
23106SOL    HW175154   1.588   8.978   8.537  1.3690  2.5134  1.7149
23106SOL    HW275155   1.470   9.037   8.610 -1.8886 -0.9976 -0.3192
23107SOL     OW75156  10.856   4.077   9.997  0.0387  0.2073  0.0416
23107SOL    HW175157  10.887   4.077   9.907 -0.9029 -0.6594 -0.2960
23107SOL    HW275158  10.906   4.008  10.040  0.3542  0.4974  0.1549
23108SOL     OW75159   5.374  10.782   6.391 -0.5763 -0.0412  0.3195
23108SOL    HW175160   5.312  10.714   6.416 -1.0759  0.8012  1.5016
23108SOL    HW275161   5.354  10.801   6.300 -1.0316 -0.8465  0.2468
23109SOL     OW75162   0.998   8.481   9.182  0.3533 -0.3332 -0.4088
23109SOL    HW175163   0.966   8.455   9.268  0.4696  0.6116 -0.0623
23109SOL    HW275164   0.936   8.547   9.152 -0.6882 -1.8846 -1.8445
23110SOL     OW75165   3.749  10.852   8.343  0.4310  0.0207  0.0172
23110SOL    HW175166   3.690  10.927   8.334 -0.8469 -1.0889 -1.3180
23110SOL    HW275167   3.703  10.791   8.400  0.0992 -0.9870 -1.2821
23111SOL     OW75168   4.169   8.384   3.337  0.7486 -0.6466 -0.5589
23111SOL    HW175169   4.255   8.384   3.294  0.4953 -0.4414 -1.0764
23111SOL    HW275170   4.126   8.305   3.304  0.7264 -0.7345 -0.3211
23112SOL     OW75171   7.535   2.245  10.424 -0.0876  0.2924 -0.2588
23112SOL    HW175172   7.583   2.163  10.437 -0.0557  0.3518 -0.0089
23112SOL    HW275173   7.520   2.248  10.329 -0.4745 -0.2194 -0.2159
23113SOL     OW75174   1.483   8.165   3.471  0.2431  0.5466 -0.3902
23113SOL    HW175175   1.431   8.193   3.396 -1.3666 -0.2537  0.3951
23113SOL    HW275176   1.513   8.077   3.448 -0.3296  0.2629 -0.0694
23114SOL     OW75177  10.435   4.346   7.190 -0.0309 -0.2433 -0.4021
23114SOL    HW175178  10.496   4.372   7.258 -0.3514  1.2586 -0.6420
23114SOL    HW275179  10.465   4.260   7.161  0.6282 -0.5023  1.0027
23115SOL     OW75180   1.816   9.947  10.081  0.1249 -0.3126 -0.4607
23115SOL    HW175181   1.770  10.015  10.129 -0.4004  0.8733 -2.5248
23115SOL    HW275182   1.899   9.988  10.056  0.9410 -1.3395  0.4527
23116SOL     OW75183  10.595   3.842   5.890 -0.0193  0.0647 -0.0883
23116SOL    HW175184  10.655   3.876   5.824  0.8686 -0.9873  0.1476
23116SOL    HW275185  10.631   3.873   5.973  0.7951 -1.3824  0.1288
23117SOL     OW75186   5.861   0.342   5.897  0.1632  0.5461  0.1921
23117SOL    HW175187   5.887   0.381   5.813 -0.3251 -1.5528 -1.0098
23117SOL    HW275188   5.942   0.305   5.932 -0.0738 -1.0089 -0.7772
23118SOL     OW75189   1.928   4.731   4.181 -0.4277  0.0635 -0.4034
23118SOL    HW175190   2.011   4.714   4.225 -0.2257  1.6817 -0.1178
23118SOL    HW275191   1.877   4.651   4.195  1.8598 -1.9461 -2.5152
23119SOL     OW75192   8.948   6.027  10.257 -0.6596 -0.4034  0.1853
23119SOL    HW175193   8.878   6.016  10.321 -1.5425  1.4482 -0.3907
23119SOL    HW275194   8.906   6.072  10.183  0.3579 -2.3078 -1.6545
23120SOL     OW75195  10.757  10.136   5.588  0.2562 -0.0504  0.3954
23120SOL    HW175196  10.836  10.153   5.640  0.1040 -1.6530  1.2052
23120SOL    HW275197  10.774  10.052   5.545  0.5221  1.3755 -2.5107
23121SOL     OW75198   0.440   5.415   1.285 -0.0427  0.2835  0.4772
23121SOL    HW175199   0.400   5.376   1.208  2.6211 -1.1163 -0.3292
23121SOL    HW275200   0.402   5.369   1.359 -0.5779 -0.3353 -0.1749
23122SOL     OW75201   2.083  10.287   6.085 -0.5508  0.1503  0.0316
23122SOL    HW175202   1.994  10.275   6.053  0.0969  0.0118 -1.8414
23122SOL    HW275203   2.138  10.242   6.021  1.0624  2.4844 -0.3696
23123SOL     OW75204  10.909  10.332   5.294  0.1041 -0.5868  0.2975
23123SOL    HW175205  10.892  10.242   5.321 -0.9901 -0.0387  1.5757
23123SOL    HW275206  10.860  10.342   5.212  1.6024 -1.6128 -0.7740
23124SOL     OW75207   8.627   1.795   9.051 -0.0898  0.1106  0.8197
23124SOL    HW175208   8.621   1.860   9.121  2.1108  0.5040  0.6910
23124SOL    HW275209   8.655   1.845   8.974  0.5792 -0.8050  0.4505
23125SOL     OW75210   2.982   9.773   9.529 -0.0550  0.2241 -0.1524
23125SOL    HW175211   3.057   9.782   9.587  0.0832 -1.3672 -0.0453
23125SOL    HW275212   2.927   9.849   9.548  0.4775  0.2664  1.3313
23126SOL     OW75213   5.859   6.395   6.701  0.3334 -0.5360 -0.0876
23126SOL    HW175214   5.935   6.368   6.753 -0.6218 -0.0294  1.6263
23126SOL    HW275215   5.895   6.455   6.636  1.3896 -0.1133  0.8439
23127SOL     OW75216   3.276   6.633   5.494 -0.7650 -0.5020  0.8714
23127SOL    HW175217   3.198   6.664   5.448  0.1100  0.2197 -0.1586
23127SOL    HW275218   3.292   6.699   5.561 -0.9093 -0.5493  0.9549
23128SOL     OW75219   8.017   7.878   4.961  0.2050  0.3561  0.5624
23128SOL    HW175220   7.991   7.950   5.019 -0.9725 -0.6959  1.4207
23128SOL    HW275221   8.064   7.817   5.019  0.7481  0.1946 -0.0407
23129SOL     OW75222   3.914   6.869   4.233 -0.2813 -0.4978  0.0252
23129SOL    HW175223   3.980   6.814   4.191  0.3191 -0.1453  0.5016
23129SOL    HW275224   3.855   6.894   4.162  0.6077 -0.0728 -0.5676
23130SOL     OW75225   6.682   1.021   2.550 -0.5153 -0.6369 -0.3422
23130SOL    HW175226   6.613   0.956   2.539  0.9524 -2.2873 -0.3045
23130SOL    HW275227   6.763   0.971   2.543  0.7068  0.6596  2.6496
23131SOL     OW75228   1.089   0.130   5.462 -0.2170  0.2101 -0.0154
23131SOL    HW175229   1.115   0.124   5.554 -1.0174  1.5995  0.3231
23131SOL    HW275230   1.169   0.158   5.416  0.3468 -1.0683  0.1321
23132SOL     OW75231   3.434   2.514   0.869  0.2363 -0.0929 -0.6568
23132SOL    HW175232   3.378   2.591   0.881 -0.4109 -0.3787 -1.7128
23132SOL    HW275233   3.480   2.505   0.952 -2.5460 -0.8635  0.9258
23133SOL     OW75234   8.800   0.208   8.921 -0.3639 -0.8375  0.3856
23133SOL    HW175235   8.748   0.191   9.000 -0.6598 -2.3287 -0.1012
23133SOL    HW275236   8.764   0.149   8.855 -0.0137  0.2681 -0.8388
23134SOL     OW75237   4.389   5.384  10.698  0.1769  0.6971 -0.0989
23134SOL    HW175238   4.338   5.415  10.773  0.3882  0.3531  0.1881
23134SOL    HW275239   4.421   5.464  10.656  0.3439  0.8855  0.3781
23135SOL     OW75240   0.616  10.358   1.689 -0.3638 -0.3757  0.4303
23135SOL    HW175241   0.659  10.443   1.687  0.7971 -0.9377  0.1857
23135SOL    HW275242   0.609  10.337   1.782  0.2068 -0.4157  0.4693
23136SOL     OW75243   5.510   3.080   5.102  0.0232  0.1140  0.0318
23136SOL    HW175244   5.432   3.081   5.157  0.2621 -1.8486  0.4861
23136SOL    HW275245   5.581   3.108   5.159 -0.1793  0.9259 -0.1061
23137SOL     OW75246   3.049   4.974   0.337 -0.8490  0.1377 -0.2525
23137SOL    HW175247   3.002   5.017   0.409 -0.5221  0.7832 -0.4081
23137SOL    HW275248   3.087   4.896   0.377 -1.0333  0.2606  0.1717
23138SOL     OW75249   4.765   8.157   2.189 -0.2778  0.1288  0.1791
23138SOL    HW175250   4.676   8.185   2.166 -0.0670  1.6118  1.0759
23138SOL    HW275251   4.756   8.120   2.277 -0.2291 -1.0191 -0.2799
23139SOL     OW75252   3.826  10.773   6.412 -0.2916 -0.0539  0.1633
23139SOL    HW175253   3.904  10.724   6.438  0.0843  0.3054 -0.2752
23139SOL    HW275254   3.854  10.864   6.414 -0.9034  0.1224  0.6814
23140SOL     OW75255   4.035   7.863   1.594 -0.3826  0.3543  0.2134
23140SOL    HW175256   4.048   7.858   1.500  0.3047  0.8838  0.2793
23140SOL    HW275257   4.029   7.957   1.613 -1.5225  0.2298  0.5666
23141SOL     OW75258   3.894  10.885   5.955  0.2390  0.2825  0.3598
23141SOL    HW175259   3.835  10.938   6.008 -0.4534 -0.0939 -0.0096
23141SOL    HW275260   3.938  10.828   6.017 -1.0147 -0.5819  0.4898
23142SOL     OW75261   5.094   3.265   4.123 -0.2395  0.0669  0.2043
23142SOL    HW175262   5.078   3.203   4.194 -0.4063 -0.5051 -0.3170
23142SOL    HW275263   5.101   3.210   4.045 -1.1423  0.7531 -0.3878
23143SOL     OW75264   5.076   7.285   5.666  0.0437 -0.2792 -0.0489
23143SOL    HW175265   5.075   7.200   5.711  1.5517 -0.5064 -0.3855
23143SOL    HW275266   5.044   7.266   5.578 -1.4288 -0.1249  0.4338
23144SOL     OW75267   8.296   3.241   8.606  0.0893  0.0097 -0.2276
23144SOL    HW175268   8.233   3.171   8.624  0.1560  0.4913  2.0708
23144SOL    HW275269   8.345   3.251   8.687  1.5416  1.2887 -1.2089
23145SOL     OW75270   3.543   2.227   4.902 -0.2468  0.2328 -0.4307
23145SOL    HW175271   3.635   2.202   4.893 -0.1408 -0.2149  1.4430
23145SOL    HW275272   3.494   2.150   4.872 -0.0719  0.9395 -2.6666
23146SOL     OW75273   1.604   2.908   2.445 -0.2357  0.3402  0.1873
23146SOL    HW175274   1.542   2.901   2.518  0.9617  1.5065  1.3616
23146SOL    HW275275   1.552   2.947   2.374 -1.4585 -0.9586  0.2988
23147SOL     OW75276   2.550   0.268   9.672 -0.1781  0.1265 -0.0035
23147SOL    HW175277   2.591   0.284   9.587 -0.6625  0.5051 -0.1740
23147SOL    HW275278   2.585   0.337   9.729 -0.1827  0.1399 -0.0165
23148SOL     OW75279   5.813   8.480   5.613 -0.1812 -0.7929 -0.3782
23148SOL    HW175280   5.899   8.458   5.576 -0.2035  1.0035 -1.5766
23148SOL    HW275281   5.783   8.555   5.563 -1.5177 -0.0308  1.4511
23149SOL     OW75282   9.121   0.482   1.311 -0.1392 -0.3591 -0.6816
23149SOL    HW175283   9.132   0.563   1.359  0.5961  0.0317 -1.4865
23149SOL    HW275284   9.129   0.413   1.377  1.9314  0.1121 -0.3818
23150SOL     OW75285   7.951   3.133   8.555  0.0355  0.1118  0.3316
23150SOL    HW175286   7.885   3.124   8.623 -0.3462 -0.8001 -0.1353
23150SOL    HW275287   7.913   3.193   8.491 -1.1804 -1.8083 -0.8550
23151SOL     OW75288  10.033   0.002   0.819 -0.2457 -0.3487  0.7199
23151SOL    HW175289  10.040  -0.035   0.731  1.0881  0.4845  0.4398
23151SOL    HW275290  10.015   0.095   0.805  1.3600  0.0801  1.2490
23152SOL     OW75291   2.327   5.892   2.401 -0.0350  0.3645  0.6180
23152SOL    HW175292   2.326   5.988   2.400  1.2843  0.4161 -0.8002
23152SOL    HW275293   2.248   5.867   2.354  0.7114  0.8473 -0.9760
23153SOL     OW75294   0.036   1.038   6.095  0.3110  0.0549  0.0006
23153SOL    HW175295   0.063   1.122   6.133  2.5084  0.2577 -1.7699
23153SOL    HW275296   0.114   0.984   6.099 -0.8857 -1.7093  0.4644
23154SOL     OW75297   7.937   6.318   4.893  0.2085  0.2567  0.3554
23154SOL    HW175298   7.910   6.392   4.946  0.4752  1.4979 -1.1512
23154SOL    HW275299   8.015   6.349   4.847  0.7945 -1.2452  0.2789
23155SOL     OW75300   5.839   6.610   2.072  0.6505 -0.2792 -0.2903
23155SOL    HW175301   5.840   6.607   2.168 -1.0316  0.2873 -0.2237
23155SOL    HW275302   5.871   6.524   2.045 -0.0219 -0.8954  0.8003
23156SOL     OW75303   2.945   5.762   8.930 -0.1721 -0.1733 -0.0155
23156SOL    HW175304   3.005   5.701   8.888 -0.4904  0.2527 -1.1414
23156SOL    HW275305   2.976   5.769   9.020 -0.8642 -2.9349  0.5331
23157SOL     OW75306   2.553   4.326   3.245  0.0557 -0.2822 -0.2709
23157SOL    HW175307   2.569   4.414   3.211 -1.5539  0.1838  0.1191
23157SOL    HW275308   2.530   4.274   3.168  0.3436 -0.2104 -0.4081
23158SOL     OW75309   7.106   6.213   0.998 -0.3568  0.0619 -0.0678
23158SOL    HW175310   7.134   6.140   1.054  0.0379  0.0036 -0.3308
23158SOL    HW275311   7.016   6.191   0.973  0.7951 -2.1299 -2.9100
23159SOL     OW75312   1.284   2.615   7.153  0.0484  0.0910 -0.0962
23159SOL    HW175313   1.293   2.666   7.072  0.3948 -0.1075 -0.1847
23159SOL    HW275314   1.372   2.579   7.168  0.1728  0.7158  0.7612
23160SOL     OW75315   0.507   5.139   7.205 -0.3097 -0.0645 -0.1758
23160SOL    HW175316   0.525   5.152   7.299  0.0647 -0.9794 -0.1086
23160SOL    HW275317   0.530   5.223   7.165  1.1555 -0.1785  0.3413
23161SOL     OW75318   6.193   6.826   7.823  0.2785  0.2874  0.0589
23161SOL    HW175319   6.137   6.750   7.811 -0.7714  0.8807  1.0485
23161SOL    HW275320   6.152   6.876   7.893  0.4887  2.1727 -1.0863
23162SOL     OW75321   0.082   6.466  10.257 -0.0085  0.5352  0.4741
23162SOL    HW175322   0.053   6.375  10.255 -3.3378  1.4695 -0.2840
23162SOL    HW275323   0.115   6.479  10.346 -0.7445 -1.0654  1.0041
23163SOL     OW75324   2.409   4.770   1.561  0.1140  0.0084  0.4574
23163SOL    HW175325   2.497   4.803   1.581  0.2258 -1.1617  2.0508
23163SOL    HW275326   2.393   4.798   1.471  2.0052  0.4790  0.2261
23164SOL     OW75327   1.213   3.682   9.230  0.3887  0.4453 -0.1812
23164SOL    HW175328   1.168   3.646   9.306  1.2043  1.3366  0.7454
23164SOL    HW275329   1.241   3.605   9.180 -0.8199 -0.1381  0.0075
23165SOL     OW75330   9.016   3.142   4.633 -0.1056  0.3941 -0.6410
23165SOL    HW175331   9.041   3.150   4.541  0.0119  2.0322 -0.4965
23165SOL    HW275332   9.090   3.181   4.681  0.3965 -1.5288  0.2529
23166SOL     OW75333   9.502   5.020   6.654 -0.2501 -0.1640  0.3882
23166SOL    HW175334   9.504   5.018   6.749 -1.2927 -2.6895  0.4558
23166SOL    HW275335   9.593   5.027   6.627  0.1140 -0.1566  1.5849
23167SOL     OW75336   6.684   9.667  10.259  0.0106  0.1670  0.2451
23167SOL    HW175337   6.733   9.624  10.329  1.0302  0.8860 -0.0090
23167SOL    HW275338   6.669   9.756  10.292 -0.4950  0.1724  0.0124
23168SOL     OW75339   4.265   9.877   3.286 -0.0936  0.3399  0.4505
23168SOL    HW175340   4.295   9.808   3.345 -1.0350 -1.2431 -0.8296
23168SOL    HW275341   4.343   9.900   3.235 -0.3595 -1.8800 -1.0719
23169SOL     OW75342   9.312   0.382   0.001  0.3621 -0.4108  0.2228
23169SOL    HW175343   9.312   0.336  -0.083  3.2503 -2.2337  1.0467
23169SOL    HW275344   9.230   0.356   0.042  1.5200 -4.6927  0.3841
23170SOL     OW75345   1.244   2.481  10.440  0.3781 -0.3439  0.8022
23170SOL    HW175346   1.217   2.451  10.527  0.5514 -0.5481  0.7842
23170SOL    HW275347   1.334   2.511  10.452 -0.3284  1.8103  1.2282
23171SOL     OW75348   7.256   2.249   9.145  1.0307  0.2353  0.1952
23171SOL    HW175349   7.204   2.251   9.066  1.1034 -0.5932  0.1186
23171SOL    HW275350   7.269   2.341   9.168 -1.2541  0.4681  0.7570
23172SOL     OW75351   8.594   8.677  10.439  0.1478  0.5828 -0.1294
23172SOL    HW175352   8.637   8.760  10.419 -0.1377  0.2063 -2.6072
23172SOL    HW275353   8.615   8.621  10.365 -2.1293 -0.5836  0.0371
23173SOL     OW75354   3.562  10.020   9.559  0.3155 -0.4646 -0.6171
23173SOL    HW175355   3.550   9.934   9.520  0.8081 -0.2301 -1.3027
23173SOL    HW275356   3.650  10.016   9.598 -1.2101 -1.7049  3.1308
23174SOL     OW75357   1.124   1.090   7.276  1.0091  0.6538 -0.2679
23174SOL    HW175358   1.055   1.115   7.214  0.1337 -0.8192  0.0599
23174SOL    HW275359   1.189   1.045   7.222  1.5962  1.7996 -0.5344
23175SOL     OW75360   2.749   7.637  10.201 -0.3148 -0.3536 -0.0822
23175SOL    HW175361   2.740   7.708  10.264  2.9320  0.1376 -0.0072
23175SOL    HW275362   2.677   7.577  10.223  0.7419 -0.3764  4.3848
23176SOL     OW75363   5.095   9.852   8.781  0.0095 -0.1431  0.0077
23176SOL    HW175364   5.049   9.769   8.775 -0.9715  0.4859 -2.0194
23176SOL    HW275365   5.187   9.831   8.761  0.1100 -0.9699  1.2669
23177SOL     OW75366   3.194   6.384   0.751  0.1419 -0.1093  0.2618
23177SOL    HW175367   3.132   6.456   0.760  0.5310  0.1018  1.4262
23177SOL    HW275368   3.274   6.424   0.715 -0.2491 -0.3120 -0.8686
23178SOL     OW75369   1.169   0.045   9.768 -0.2734 -0.2819  0.6695
23178SOL    HW175370   1.186   0.138   9.751  0.9661 -0.3460  1.4589
23178SOL    HW275371   1.165   0.038   9.863  1.5887 -1.3333  0.7190
23179SOL     OW75372   3.800   7.903   9.415  0.2461 -0.3498 -0.4090
23179SOL    HW175373   3.870   7.888   9.351 -0.3483  0.3542 -1.2467
23179SOL    HW275374   3.748   7.823   9.413 -1.2059  0.5203 -2.6914
23180SOL     OW75375   6.733   1.505   3.955  0.1515 -0.0803  0.5107
23180SOL    HW175376   6.750   1.434   4.017  0.0606 -0.4225  0.1507
23180SOL    HW275377   6.699   1.460   3.877  3.0971  0.0190 -0.9539
23181SOL     OW75378   1.226   3.541   8.863 -0.4026  0.4353  0.1403
23181SOL    HW175379   1.255   3.461   8.818 -1.2646  0.5004 -0.5711
23181SOL    HW275380   1.182   3.509   8.942  0.0261  0.2521  0.3061
23182SOL     OW75381   4.616   4.850   6.227  0.1810  0.5023  0.5887
23182SOL    HW175382   4.686   4.785   6.228 -1.0623 -0.9221  2.5352
23182SOL    HW275383   4.542   4.806   6.186 -0.3679  1.0564  0.9579
23183SOL     OW75384   7.555   0.268   5.635 -0.5056  0.4993  0.7353
23183SOL    HW175385   7.564   0.304   5.547  1.4266  1.2073  1.1639
23183SOL    HW275386   7.586   0.338   5.693 -2.1400  0.2097  2.0389
23184SOL     OW75387   0.156   1.206  10.425  0.6021 -0.1739 -0.0638
23184SOL    HW175388   0.203   1.134  10.383  1.0661 -0.4155  0.8587
23184SOL    HW275389   0.224   1.272  10.443  0.4455 -0.1633  0.5025
23185SOL     OW75390   5.613   3.405   4.013  0.4759  0.2223 -0.4419
23185SOL    HW175391   5.526   3.399   4.052  0.8408 -0.0208  0.3571
23185SOL    HW275392   5.671   3.367   4.079  1.5294  2.6782  0.1598
23186SOL     OW75393   5.746   2.274   9.645  0.0406  0.2656 -0.2487
23186SOL    HW175394   5.709   2.361   9.661 -1.8935 -0.3516 -1.0593
23186SOL    HW275395   5.718   2.222   9.721 -1.9788 -0.5304 -1.4555
23187SOL     OW75396   3.908   1.474  10.057  0.6084  0.1247 -0.8039
23187SOL    HW175397   3.923   1.492   9.964  2.2032  0.0614 -0.5836
23187SOL    HW275398   3.871   1.386  10.059  1.6329 -0.3340 -1.3273
23188SOL     OW75399   9.401   5.038   4.656 -0.3631 -0.2082  0.3111
23188SOL    HW175400   9.387   5.044   4.561  2.8008  1.1927 -0.1775
23188SOL    HW275401   9.370   5.122   4.690 -1.3611 -0.6541  0.5524
23189SOL     OW75402   5.104   6.488   8.736  0.1531  0.0089  0.2400
23189SOL    HW175403   5.037   6.488   8.668 -0.2470  0.1124  0.6293
23189SOL    HW275404   5.167   6.421   8.708 -0.3819 -0.4532  0.1349
23190SOL     OW75405   1.005   1.394   8.886  0.4163  0.2471 -0.5482
23190SOL    HW175406   1.055   1.435   8.957 -0.5747  0.2157  0.1891
23190SOL    HW275407   0.965   1.468   8.840 -0.2899  0.2108 -0.0293
23191SOL     OW75408   5.339   7.620   0.455 -0.0883  0.3224 -0.3012
23191SOL    HW175409   5.417   7.660   0.494 -0.6480  2.3128 -1.0794
23191SOL    HW275410   5.286   7.593   0.529 -0.2546  2.2440  0.3338
23192SOL     OW75411   7.496   1.953  10.633 -0.2916 -0.3800 -0.2300
23192SOL    HW175412   7.460   1.917  10.552  0.1450 -1.6608  0.1295
23192SOL    HW275413   7.550   1.883  10.669  2.1591  1.2483 -0.4656
23193SOL     OW75414   5.764   9.403   8.646  0.2407  0.1950 -0.2940
23193SOL    HW175415   5.832   9.346   8.608 -0.0931  0.6780 -1.6758
23193SOL    HW275416   5.757   9.374   8.737 -0.5075 -2.5751 -1.1241
23194SOL     OW75417   2.178   0.267   0.492 -0.0487 -0.3093 -0.1199
23194SOL    HW175418   2.257   0.216   0.472 -0.9102 -1.8551  0.2138
23194SOL    HW275419   2.115   0.240   0.425 -1.8375 -2.8954  2.3806
23195SOL     OW75420   1.051   7.468   9.546  0.0566 -0.0801 -0.9379
23195SOL    HW175421   0.981   7.435   9.604  1.1422 -1.0667 -0.1453
23195SOL    HW275422   1.026   7.439   9.459 -1.3920  1.0609 -0.9457
23196SOL     OW75423   3.266   9.716   3.578 -0.3561  0.2707 -0.0636
23196SOL    HW175424   3.262   9.621   3.569  0.4876  0.1749  0.4174
23196SOL    HW275425   3.191   9.749   3.528 -0.6999 -0.6478 -0.1655
23197SOL     OW75426   3.120   9.632  10.740 -0.1855  0.0898 -0.4558
23197SOL    HW175427   3.071   9.558  10.776  0.9193  0.0923  1.1781
23197SOL    HW275428   3.211   9.603  10.741  0.0346  0.6441 -1.9982
23198SOL     OW75429   5.005   3.585   5.967  0.1344 -0.1867  0.6272
23198SOL    HW175430   5.072   3.647   5.997  2.3484 -1.8126 -0.6408
23198SOL    HW275431   5.044   3.499   5.982 -1.5054 -1.1933 -0.5749
23199SOL     OW75432  10.072   6.604   2.473 -0.6447 -0.4756  0.3078
23199SOL    HW175433  10.131   6.644   2.408  0.5324 -1.6356  0.6158
23199SOL    HW275434  10.053   6.674   2.534 -1.7535  0.6441 -1.2398
23200SOL     OW75435   6.788   7.802   4.577  0.1551 -0.0084  0.9699
23200SOL    HW175436   6.797   7.744   4.653 -0.3424 -0.4423  0.6978
23200SOL    HW275437   6.749   7.882   4.613 -0.0379 -0.1946  1.1780
23201SOL     OW75438  10.238   2.403  10.719 -0.0033  0.2511 -0.4469
23201SOL    HW175439  10.250   2.317  10.678 -1.1512 -0.0359 -0.1950
23201SOL    HW275440  10.327   2.430  10.744  0.7413  0.3544 -2.9232
23202SOL     OW75441   0.418   8.662   8.446  0.9995  0.1437 -0.0377
23202SOL    HW175442   0.403   8.610   8.524  1.3316 -0.3547 -0.2999
23202SOL    HW275443   0.369   8.618   8.377  0.7246  0.5686 -0.1198
23203SOL     OW75444   4.327   1.104  10.373  0.2374 -0.6052  0.1207
23203SOL    HW175445   4.280   1.025  10.345  0.6517 -1.1921  1.0191
23203SOL    HW275446   4.276   1.136  10.448  1.1232 -1.1199  0.9623
23204SOL     OW75447   5.746   1.385   9.032  0.2683  0.2189 -0.2032
23204SOL    HW175448   5.666   1.417   9.074 -0.4290 -0.7773 -0.7535
23204SOL    HW275449   5.817   1.418   9.088 -0.4872  1.5279  0.0183
23205SOL     OW75450   8.220   2.140   6.289 -0.3827 -0.0401  0.4946
23205SOL    HW175451   8.149   2.203   6.288  0.3929  0.9105 -2.0497
23205SOL    HW275452   8.295   2.189   6.324 -0.3458 -0.2633  0.7307
23206SOL     OW75453   3.057   5.497   9.429  0.0780  0.1234  0.0842
23206SOL    HW175454   2.986   5.524   9.370  0.3943  0.6953 -0.0424
23206SOL    HW275455   3.074   5.406   9.405 -0.0750  0.2263 -0.4357
23207SOL     OW75456   0.353   9.375  10.602  0.4484 -0.1023 -0.3461
23207SOL    HW175457   0.341   9.356  10.695 -1.9207 -0.8608 -0.7208
23207SOL    HW275458   0.447   9.378  10.589  0.8492 -1.7215  1.7335
23208SOL     OW75459   9.800   0.559   8.506 -0.4397  0.0556  0.0662
23208SOL    HW175460   9.817   0.525   8.593  3.1740 -1.1487 -0.9363
23208SOL    HW275461   9.796   0.482   8.450  0.2880  0.9099 -1.2259
23209SOL     OW75462   0.840   9.549  10.599  0.3130  0.2872 -0.2648
23209SOL    HW175463   0.931   9.555  10.570  0.2924 -0.0938 -0.4142
23209SOL    HW275464   0.833   9.463  10.640  0.1069  0.4522  0.0543
23210SOL     OW75465  10.426   6.558   0.799 -0.5479  0.4718  0.0566
23210SOL    HW175466  10.406   6.647   0.769  1.0269  0.5670 -0.8272
23210SOL    HW275467  10.380   6.501   0.738  0.8439  0.6853 -1.2336
23211SOL     OW75468   1.747   5.631  10.904 -0.1121 -0.1743  0.0045
23211SOL    HW175469   1.775   5.583  10.982  0.9733  0.6771  0.1733
23211SOL    HW275470   1.657   5.657  10.922 -0.4964 -1.5895  0.1705
23212SOL     OW75471   5.805   3.872   6.335 -0.0204 -0.0141  0.2622
23212SOL    HW175472   5.721   3.888   6.293  0.4710  1.0016 -0.3665
23212SOL    HW275473   5.828   3.955   6.377  1.6897  0.4637 -1.4626
23213SOL     OW75474   1.882   5.291   1.050  0.4829 -0.3477 -0.6094
23213SOL    HW175475   1.870   5.199   1.074 -2.2418  0.2331  0.7333
23213SOL    HW275476   1.809   5.309   0.990 -1.4260  1.7321  2.0487
23214SOL     OW75477   5.439   1.230   5.442 -0.1938 -0.0195  0.1119
23214SOL    HW175478   5.393   1.308   5.410 -0.8215 -0.1140  0.7406
23214SOL    HW275479   5.381   1.194   5.510 -1.5395 -2.8409 -2.2826
23215SOL     OW75480   1.357   2.450   1.210  0.2681  1.0252  0.3446
23215SOL    HW175481   1.280   2.498   1.238  0.1952  0.6351  0.8208
23215SOL    HW275482   1.340   2.359   1.236  0.6312  0.8323 -0.0695
23216SOL     OW75483   3.549   4.751   9.111 -1.0554  0.0842  0.1808
23216SOL    HW175484   3.547   4.696   9.032 -1.1390  0.7095 -0.2624
23216SOL    HW275485   3.457   4.771   9.128 -0.9692  0.8716 -0.2295
23217SOL     OW75486   1.630   1.920   0.415  0.7862  0.1043 -0.4617
23217SOL    HW175487   1.668   1.994   0.367  0.4452  0.2011 -0.5822
23217SOL    HW275488   1.537   1.941   0.424  0.4943 -0.7520 -1.3306
23218SOL     OW75489   3.272   0.307  10.128 -0.0082 -0.2512  0.6421
23218SOL    HW175490   3.331   0.382  10.120 -0.5804  0.2093  0.6767
23218SOL    HW275491   3.296   0.266  10.211  1.6788 -1.3245 -0.3199
23219SOL     OW75492   6.845   0.995   2.911  0.3065 -0.1518  0.2306
23219SOL    HW175493   6.900   1.044   2.850  0.2179 -0.4104 -0.0602
23219SOL    HW275494   6.786   0.944   2.855 -0.6118  0.5487  0.5415
23220SOL     OW75495   2.160   2.077   2.059  0.0759  0.4299  0.3339
23220SOL    HW175496   2.149   1.993   2.015 -0.2485 -0.7573  2.5238
23220SOL    HW275497   2.087   2.130   2.029 -0.4209 -0.5003 -0.1506
23221SOL     OW75498   1.159   6.612   5.662  0.2307 -0.1019  0.4355
23221SOL    HW175499   1.080   6.621   5.715  1.1088 -0.0212  1.7790
23221SOL    HW275500   1.232   6.624   5.724  1.3344 -2.2528 -0.3044
23222SOL     OW75501   3.654   4.506   2.697 -0.5125 -0.7715  0.8263
23222SOL    HW175502   3.582   4.493   2.634  1.4667 -0.2268 -1.7327
23222SOL    HW275503   3.717   4.560   2.649  1.4150 -0.8610  3.1277
23223SOL     OW75504   8.957   4.450   9.921  0.4551 -0.2580 -0.0979
23223SOL    HW175505   8.956   4.378   9.983 -2.4180 -0.7488 -0.5954
23223SOL    HW275506   9.024   4.426   9.856 -0.9597 -2.9161 -0.6954
23224SOL     OW75507   6.102   8.628   9.862  0.0683  0.1363 -0.2000
23224SOL    HW175508   6.169   8.593   9.921 -0.4764 -0.5055  0.0549
23224SOL    HW275509   6.062   8.699   9.911  0.9493  0.9200 -0.5853
23225SOL     OW75510   2.316   0.892   0.819 -0.3087  0.2238 -0.1335
23225SOL    HW175511   2.406   0.877   0.790 -0.0312 -0.1419  0.8963
23225SOL    HW275512   2.307   0.840   0.899 -0.9400  1.4922  0.6578
23226SOL     OW75513   2.719   1.410   5.328  0.8767 -0.2267  0.1751
23226SOL    HW175514   2.778   1.454   5.389 -0.8011  1.4044  0.7288
23226SOL    HW275515   2.672   1.481   5.285  0.1710 -1.4352 -1.1249
23227SOL     OW75516   6.380  10.838   4.492 -0.1021  0.2209 -0.2399
23227SOL    HW175517   6.415  10.791   4.567 -1.9996  0.3612  0.7775
23227SOL    HW275518   6.288  10.813   4.488 -0.0099  0.0531 -2.6652
23228SOL     OW75519   0.687   5.066   4.750  0.3627  0.0781  0.6268
23228SOL    HW175520   0.646   5.124   4.815 -1.0543  0.6400 -0.7125
23228SOL    HW275521   0.654   5.097   4.666  2.8905 -0.0410 -0.4803
23229SOL     OW75522   0.080   7.583   5.176  0.5840  0.1520  0.2711
23229SOL    HW175523   0.161   7.572   5.126 -0.9511 -4.7402 -1.7501
23229SOL    HW275524   0.096   7.538   5.258  0.1537 -0.1225  0.2033
23230SOL     OW75525   5.171   4.269   1.122 -0.1053 -0.2543 -0.3709
23230SOL    HW175526   5.116   4.210   1.173 -0.4537  0.5417  0.2114
23230SOL    HW275527   5.115   4.298   1.050 -1.2827  2.1455  1.3227
23231SOL     OW75528   6.499   5.440   2.563 -0.0258  0.0830 -0.4962
23231SOL    HW175529   6.409   5.429   2.533 -0.8062  0.5784  1.4805
23231SOL    HW275530   6.517   5.363   2.616 -0.0897  0.9351  0.8390
23232SOL     OW75531   2.565  10.634   9.642  0.2243  0.1241  0.5016
23232SOL    HW175532   2.470  10.620   9.641  0.2632 -0.1680 -0.4299
23232SOL    HW275533   2.576  10.725   9.671 -0.2959 -0.0629  1.3285
23233SOL     OW75534  10.891   5.137   1.441  0.4790  0.0973  0.5227
23233SOL    HW175535  10.919   5.151   1.351 -2.8615  0.7386 -0.5530
23233SOL    HW275536  10.927   5.211   1.490  0.1460  1.2127 -0.8646
23234SOL     OW75537   1.999   8.411   2.457  0.3765 -0.5040  0.0639
23234SOL    HW175538   1.945   8.476   2.412 -0.8877 -0.9059  0.9363
23234SOL    HW275539   1.954   8.397   2.540  1.5514 -1.2672  0.5944
23235SOL     OW75540   1.384  10.578   8.583 -0.0195  0.2633 -0.2397
23235SOL    HW175541   1.370  10.552   8.492  0.2753 -0.4086 -0.0994
23235SOL    HW275542   1.457  10.524   8.613  0.0206  0.6245  0.3367
23236SOL     OW75543   8.262   9.996   0.146  0.6152 -0.0690  0.0736
23236SOL    HW175544   8.329  10.065   0.147  0.6175 -0.0689 -0.0385
23236SOL    HW275545   8.241   9.981   0.238  1.0973 -0.3817  0.1387
23237SOL     OW75546   6.586   4.149   0.172 -0.6374 -0.0776 -0.3549
23237SOL    HW175547   6.601   4.178   0.083  0.2264  1.6816  0.3217
23237SOL    HW275548   6.493   4.123   0.174  0.0418 -3.2155 -2.5089
23238SOL     OW75549   6.249   5.046   5.986 -0.3360 -0.3191 -0.2946
23238SOL    HW175550   6.277   5.036   6.077  0.3892 -0.7975 -0.5613
23238SOL    HW275551   6.238   5.141   5.974 -1.5420 -0.3315  0.6036
23239SOL     OW75552   7.976   5.328   2.837  0.1777  0.2098 -0.6078
23239SOL    HW175553   8.059   5.326   2.884 -1.1007  0.1627  1.7657
23239SOL    HW275554   7.972   5.415   2.798  0.6532  0.7820  0.5941
23240SOL     OW75555   7.669   9.672   7.788 -0.0618 -0.2632 -0.3646
23240SOL    HW175556   7.649   9.737   7.720 -1.8491 -0.9257 -0.5385
23240SOL    HW275557   7.589   9.620   7.794  0.0332 -0.2196  2.2820
23241SOL     OW75558   9.729  10.370   5.187  0.1652 -1.0936  0.4379
23241SOL    HW175559   9.687  10.381   5.273 -0.4774  1.8539 -0.1610
23241SOL    HW275560   9.800  10.433   5.187  0.3879 -1.3239 -1.0792
23242SOL     OW75561   2.726   3.153   1.875  0.6521  0.0106  0.1567
23242SOL    HW175562   2.744   3.077   1.819  0.6831  0.2261 -0.1283
23242SOL    HW275563   2.712   3.225   1.814 -1.9832 -0.2820  0.2681
23243SOL     OW75564   1.090   7.171   9.032  0.3681 -1.0584 -0.1336
23243SOL    HW175565   1.132   7.183   9.117  2.0216 -0.6777 -0.9686
23243SOL    HW275566   1.021   7.106   9.048  0.5499 -0.8908  1.5060
23244SOL     OW75567   5.367   0.001   3.811  0.1451 -0.4808  0.6990
23244SOL    HW175568   5.405  -0.086   3.821  0.6343 -0.2043  1.2885
23244SOL    HW275569   5.424   0.058   3.862  0.3998  0.3529 -0.4693
23245SOL     OW75570   0.067   8.410   5.068 -0.4820  0.5480 -0.4433
23245SOL    HW175571   0.110   8.331   5.035 -1.4942  0.0504 -0.6168
23245SOL    HW275572   0.003   8.432   5.000 -2.5156 -0.4115  1.0809
23246SOL     OW75573   7.170   2.627   8.923 -0.3878 -0.4486 -0.1390
23246SOL    HW175574   7.203   2.630   8.834  0.5865  0.5124  0.2301
23246SOL    HW275575   7.239   2.585   8.974  0.5006  1.8614  0.6970
23247SOL     OW75576   5.309   0.069   1.592  0.0499  0.1334 -0.4082
23247SOL    HW175577   5.244   0.035   1.653 -0.4861  1.4359 -0.2268
23247SOL    HW275578   5.258   0.109   1.522  0.5965  2.0550  0.2294
23248SOL     OW75579   9.274   6.725   7.181 -0.4998 -0.0525  0.2145
23248SOL    HW175580   9.288   6.815   7.212 -0.8464  0.1920 -0.3102
23248SOL    HW275581   9.323   6.720   7.099 -0.5934 -0.2961  0.1722
23249SOL     OW75582   0.231   6.549   4.573  0.1454 -0.1264  0.1660
23249SOL    HW175583   0.199   6.461   4.552  0.2492  0.4406 -2.7309
23249SOL    HW275584   0.326   6.538   4.582 -0.0332 -0.5996  1.7755
23250SOL     OW75585   6.853   7.472   1.336 -0.8014 -0.4889 -0.0911
23250SOL    HW175586   6.791   7.412   1.292 -1.5872  0.3961 -0.2201
23250SOL    HW275587   6.932   7.420   1.347 -1.0570 -1.1762 -1.3015
23251SOL     OW75588   2.103   2.983   3.111  0.3847  0.3392 -0.3484
23251SOL    HW175589   2.093   3.078   3.099 -1.8257  0.0081 -1.6559
23251SOL    HW275590   2.122   2.973   3.204 -2.1529  1.9335  0.4288
23252SOL     OW75591   4.945   3.377   3.721  0.0729  0.4472  0.1993
23252SOL    HW175592   4.884   3.304   3.715 -0.9961  1.2806  0.7462
23252SOL    HW275593   5.010   3.359   3.653 -0.9892 -0.2490 -0.6631
23253SOL     OW75594   5.000   8.686   0.453 -0.8407  0.2984  0.0838
23253SOL    HW175595   5.057   8.691   0.376  0.5816 -2.0975  0.8810
23253SOL    HW275596   4.989   8.777   0.481 -0.6763  1.1651 -2.3730
23254SOL     OW75597   4.626   8.602   5.586  0.6310 -0.3005  0.0927
23254SOL    HW175598   4.710   8.563   5.609  0.1448 -0.7852  1.0913
23254SOL    HW275599   4.571   8.588   5.662 -0.2594  0.3273 -0.4136
23255SOL     OW75600   9.296  10.532   6.399  0.2604 -0.3565 -0.5305
23255SOL    HW175601   9.214  10.580   6.389 -1.4049 -2.1069  2.9153
23255SOL    HW275602   9.306  10.484   6.317 -1.6359  0.6937 -1.4322
23256SOL     OW75603   8.692   5.020   9.986 -0.4952  0.5492 -0.4985
23256SOL    HW175604   8.599   4.999   9.998 -0.3716  1.1726  2.3047
23256SOL    HW275605   8.693   5.089   9.919 -2.0919  0.7454 -0.3611
23257SOL     OW75606   6.096   9.870  10.299  0.7349 -0.3906 -0.0906
23257SOL    HW175607   6.094   9.914  10.384  1.3427 -1.1270  0.3184
23257SOL    HW275608   6.042   9.792  10.311 -0.2643  0.1721 -0.7831
23258SOL     OW75609   8.962   7.204   9.075 -0.2134 -0.4786 -0.0055
23258SOL    HW175610   9.055   7.192   9.095  0.4128 -0.5507 -2.6346
23258SOL    HW275611   8.930   7.117   9.053 -0.0503 -0.0357 -2.1966
23259SOL     OW75612  10.096   4.806   1.019  0.1512 -0.0823 -0.0539
23259SOL    HW175613  10.155   4.875   0.989  1.4073 -1.6203 -1.2734
23259SOL    HW275614  10.147   4.756   1.083 -1.0857  0.6572  1.5853
23260SOL     OW75615   1.574   9.780   6.546  0.0361 -0.2330 -0.3020
23260SOL    HW175616   1.568   9.852   6.609 -1.6131 -1.1150  0.5823
23260SOL    HW275617   1.615   9.820   6.469  0.0483  1.4147  0.5188
23261SOL     OW75618   4.445   7.886   9.496 -0.2090 -0.4418 -0.2079
23261SOL    HW175619   4.450   7.901   9.591  4.9836  0.7788 -0.3820
23261SOL    HW275620   4.433   7.973   9.459 -0.2677 -0.6739 -0.7411
23262SOL     OW75621   1.485   7.800   1.475  0.1316 -0.1664 -0.4275
23262SOL    HW175622   1.430   7.844   1.411  0.3585  0.7046 -0.0523
23262SOL    HW275623   1.435   7.804   1.557  0.6335  0.4336 -0.1351
23263SOL     OW75624  10.145   5.716   8.344 -0.1116 -0.1697  0.2846
23263SOL    HW175625  10.054   5.739   8.366 -0.5258 -0.0795 -1.3478
23263SOL    HW275626  10.193   5.724   8.426 -1.5126  0.1612  1.1017
23264SOL     OW75627   9.554   1.589   3.490 -0.5635 -0.4060  0.4009
23264SOL    HW175628   9.611   1.528   3.443 -0.5329 -0.6904  0.8096
23264SOL    HW275629   9.613   1.636   3.549 -0.6505 -0.2387  0.3570
23265SOL     OW75630   2.730   7.912   7.923 -0.4834  0.1106  0.5285
23265SOL    HW175631   2.791   7.906   7.850 -0.2306  0.7389  0.6815
23265SOL    HW275632   2.646   7.936   7.883 -0.5429 -0.3553  0.3629
23266SOL     OW75633   9.710   4.924  10.865  0.5509 -0.9741  0.1751
23266SOL    HW175634   9.756   4.853  10.820  0.0671 -1.3692  0.3027
23266SOL    HW275635   9.620   4.894  10.871 -0.4274  0.9862 -2.7034
23267SOL     OW75636   6.177   3.571   3.748 -0.1219  0.1790 -0.3200
23267SOL    HW175637   6.210   3.487   3.780  1.4197  0.8560 -0.0748
23267SOL    HW275638   6.158   3.621   3.827  0.9647  0.8065 -0.4370
23268SOL     OW75639   8.338   7.445   5.892 -0.2273 -0.5615 -0.0506
23268SOL    HW175640   8.264   7.460   5.833 -0.5879 -0.4044  0.4368
23268SOL    HW275641   8.300   7.405   5.970  0.4692 -2.2785 -0.5537
23269SOL     OW75642   0.702   0.947   8.487 -0.3068 -0.1779 -0.1612
23269SOL    HW175643   0.768   1.017   8.492 -0.2702 -0.1263 -1.2390
23269SOL    HW275644   0.752   0.866   8.497  0.1244 -0.2069 -2.1279
23270SOL     OW75645   5.305   6.736   6.851 -0.6259  0.4100 -0.4366
23270SOL    HW175646   5.278   6.649   6.822 -2.6124  0.5557  0.7365
23270SOL    HW275647   5.367   6.766   6.785 -0.5246 -1.5507 -1.2991
23271SOL     OW75648   1.935   4.843   5.720  0.2133 -0.0091 -0.0849
23271SOL    HW175649   1.866   4.892   5.674  0.4630  0.1539 -0.2923
23271SOL    HW275650   1.981   4.909   5.772  0.4518 -0.0482 -0.2427
23272SOL     OW75651   7.636   5.181   1.112 -0.0651 -0.7530 -0.0894
23272SOL    HW175652   7.574   5.111   1.133 -0.2591 -0.3382  0.7529
23272SOL    HW275653   7.721   5.137   1.109 -0.1513 -0.9862  0.7045
23273SOL     OW75654   5.426  10.788   7.585 -0.1439  0.2179 -0.0922
23273SOL    HW175655   5.332  10.789   7.567  0.2293  0.2227 -2.3517
23273SOL    HW275656   5.434  10.738   7.667 -2.3133  2.9284  1.9743
23274SOL     OW75657   2.509   5.254   7.849  0.2119  0.3696 -0.2421
23274SOL    HW175658   2.572   5.322   7.876 -2.2182  2.1333  1.4050
23274SOL    HW275659   2.484   5.280   7.760 -1.2496  2.1980  0.6346
23275SOL     OW75660   9.268   1.886   2.805  0.5375  0.0126  0.1152
23275SOL    HW175661   9.321   1.810   2.830  1.1445  0.1960 -0.5667
23275SOL    HW275662   9.277   1.890   2.710 -0.6953  0.0629 -0.0118
23276SOL     OW75663   6.733   4.018   6.627  0.4194 -0.4120  0.0204
23276SOL    HW175664   6.738   3.929   6.663  1.3815 -0.4956 -0.3025
23276SOL    HW275665   6.804   4.066   6.671  1.5828 -0.4908 -1.6667
23277SOL     OW75666   9.935   7.520   5.167  0.5057  0.6614 -0.3950
23277SOL    HW175667   9.956   7.571   5.088 -1.1960  1.2169 -0.5351
23277SOL    HW275668   9.884   7.447   5.134  1.5573 -0.2811 -0.0031
23278SOL     OW75669   0.140   6.470   2.837  0.0065 -0.0029  0.0804
23278SOL    HW175670   0.151   6.481   2.932  1.0293  1.6129 -0.1907
23278SOL    HW275671   0.074   6.536   2.814 -1.0816 -1.1439 -0.2050
23279SOL     OW75672   7.607  10.569   2.912 -0.0398 -0.2756  0.4649
23279SOL    HW175673   7.617  10.644   2.972 -0.2341  0.3081 -0.2223
23279SOL    HW275674   7.579  10.608   2.829 -2.9132 -1.3422  0.8177
23280SOL     OW75675   1.679   4.965  10.575 -0.2150 -0.5602  0.0043
23280SOL    HW175676   1.760   4.915  10.568  0.1558 -0.0276  0.3619
23280SOL    HW275677   1.670   5.008  10.490  0.2078 -0.1423  0.1644
23281SOL     OW75678   1.427  10.120   5.078  0.8826 -0.7350 -0.2040
23281SOL    HW175679   1.474  10.045   5.114  0.2883 -0.2860  1.6399
23281SOL    HW275680   1.366  10.082   5.014 -0.2199 -2.0120  1.5093
23282SOL     OW75681   4.953   9.420   3.576  0.1993 -0.0638  0.4095
23282SOL    HW175682   5.043   9.387   3.567 -0.3065 -1.3447 -0.3618
23282SOL    HW275683   4.927   9.442   3.486  0.1600  1.5510  0.7884
23283SOL     OW75684   5.753   5.415   7.605  0.2227 -0.4612  0.0289
23283SOL    HW175685   5.680   5.374   7.651 -1.4108  0.7056 -1.3630
23283SOL    HW275686   5.727   5.507   7.597  1.5230 -0.1603 -1.1317
23284SOL     OW75687   6.479   0.436   8.486 -0.0057  0.4406 -0.1528
23284SOL    HW175688   6.520   0.402   8.407 -0.0522  1.4578 -0.6293
23284SOL    HW275689   6.423   0.507   8.456 -0.1373  0.7527  0.7792
23285SOL     OW75690   9.448   9.852   0.032  0.6090 -0.1399  0.3386
23285SOL    HW175691   9.393   9.846   0.111  0.4639 -0.1541  0.2358
23285SOL    HW275692   9.457   9.761   0.003 -0.3102 -0.0265 -0.3335
23286SOL     OW75693   8.689   3.501   8.841 -0.4380 -0.3385  0.3141
23286SOL    HW175694   8.753   3.526   8.908 -0.2030 -1.3349  0.4772
23286SOL    HW275695   8.741   3.483   8.763 -0.5260 -0.9841  0.3973
23287SOL     OW75696   3.084   1.117   8.169  0.8216  0.3761  0.4710
23287SOL    HW175697   3.158   1.155   8.121  1.7554 -0.8838  0.8599
23287SOL    HW275698   3.112   1.028   8.190 -1.9130 -1.1830 -1.8050
23288SOL     OW75699  10.670   1.322   6.227 -0.2778  0.3482 -0.6807
23288SOL    HW175700  10.610   1.385   6.266  0.6725  2.2662 -2.1579
23288SOL    HW275701  10.755   1.366   6.228  1.2684 -2.3710  1.5832
23289SOL     OW75702   0.480   6.163   4.417  0.0777 -0.1475  0.4569
23289SOL    HW175703   0.489   6.185   4.510  0.1281  0.9071  0.2094
23289SOL    HW275704   0.554   6.207   4.375  0.2483 -0.8966 -0.0486
23290SOL     OW75705  10.539   2.850   3.061 -0.3390 -0.0434  0.1174
23290SOL    HW175706  10.492   2.869   3.143  2.1924 -2.1884  2.2962
23290SOL    HW275707  10.628   2.880   3.078  0.0918  0.1587 -2.2353
23291SOL     OW75708   6.736   2.689   4.707  0.2005 -0.4064  0.7076
23291SOL    HW175709   6.697   2.679   4.620  1.3099 -0.5494  0.2148
23291SOL    HW275710   6.790   2.611   4.718  0.8388  0.0829  1.1076
23292SOL     OW75711   3.996   2.166   9.018 -0.1780  0.1269 -0.1746
23292SOL    HW175712   3.945   2.206   8.948  0.7543 -0.4673 -1.2352
23292SOL    HW275713   4.087   2.182   8.993  0.1696 -0.2572  0.8108
23293SOL     OW75714   3.288   9.046   4.051 -0.1713 -0.2537 -0.1370
23293SOL    HW175715   3.242   9.128   4.032  1.7215  0.7231 -0.7185
23293SOL    HW275716   3.310   9.010   3.965 -0.9808 -1.4171  0.1104
23294SOL     OW75717   3.974   8.234   0.471  0.0309  0.0770  0.7105
23294SOL    HW175718   3.949   8.188   0.551  0.3262 -0.3068  0.5869
23294SOL    HW275719   3.988   8.324   0.499 -2.2923  0.5094  0.6261
23295SOL     OW75720   1.922   2.502   5.248  0.2685 -0.2899  0.2155
23295SOL    HW175721   2.018   2.501   5.252  0.3919  1.2092 -1.1794
23295SOL    HW275722   1.901   2.442   5.176  0.1935 -0.3410  0.2810
23296SOL     OW75723   1.515   6.127   2.648 -0.1366 -0.4670  0.3690
23296SOL    HW175724   1.547   6.038   2.630  0.2777 -0.0037 -1.3602
23296SOL    HW275725   1.462   6.117   2.727 -0.1605 -2.2696  0.1802
23297SOL     OW75726   6.418   0.391   9.301  0.1037 -0.2672  0.0837
23297SOL    HW175727   6.486   0.363   9.240 -1.4704 -0.3840 -1.7133
23297SOL    HW275728   6.374   0.311   9.327  0.2468 -0.1325  0.7711
23298SOL     OW75729   7.643   2.073   6.808  0.4491  0.0417 -0.2969
23298SOL    HW175730   7.717   2.029   6.766  1.5045 -0.7606  2.2176
23298SOL    HW275731   7.580   2.002   6.825 -0.6364  0.6008 -1.7721
23299SOL     OW75732   1.369   9.125   9.233  0.1785  0.4679  0.2760
23299SOL    HW175733   1.353   9.116   9.327 -0.8474  2.0281  0.2899
23299SOL    HW275734   1.286   9.157   9.198  0.8055  0.7154 -1.0393
23300SOL     OW75735   9.943   7.155  10.529 -0.4902 -0.3798  0.0474
23300SOL    HW175736   9.960   7.136  10.621 -0.3165  0.8914  0.2862
23300SOL    HW275737  10.029   7.168  10.491 -0.5967 -0.2348 -0.1459
23301SOL     OW75738   3.426   1.760   3.461 -0.0705  0.0071 -0.2328
23301SOL    HW175739   3.489   1.688   3.451  0.0671  0.1953 -0.7674
23301SOL    HW275740   3.378   1.739   3.540  0.1006 -0.5786 -0.2787
23302SOL     OW75741   2.924   0.535   9.778  0.5610 -0.0722  0.6476
23302SOL    HW175742   2.840   0.575   9.754 -0.0341 -1.2059  0.7799
23302SOL    HW275743   2.966   0.517   9.694  1.6919  2.4841  0.5739
23303SOL     OW75744   3.823   2.219   1.109  0.1931  0.1938  0.4519
23303SOL    HW175745   3.769   2.151   1.068 -0.1537  1.6291 -1.6098
23303SOL    HW275746   3.908   2.212   1.066  0.0260  1.2990 -0.0988
23304SOL     OW75747   1.797   9.787   4.619  0.1929  0.8610  0.2291
23304SOL    HW175748   1.780   9.728   4.545 -1.4981  1.9351 -0.2951
23304SOL    HW275749   1.860   9.739   4.673  1.2416 -0.0882 -1.7246
23305SOL     OW75750   2.662   2.700   3.501  0.4465  0.0948 -0.2207
23305SOL    HW175751   2.616   2.740   3.575  0.3065  2.0350 -1.2742
23305SOL    HW275752   2.594   2.652   3.454 -0.0948  1.1716 -0.5859
23306SOL     OW75753  10.532   1.413   1.383 -0.3069 -0.2318  0.5446
23306SOL    HW175754  10.467   1.353   1.421 -1.7426  0.9431  0.0566
23306SOL    HW275755  10.603   1.356   1.354 -0.4431 -1.4380  2.3826
23307SOL     OW75756   7.177  10.752   5.214  0.2794 -0.7302 -0.2956
23307SOL    HW175757   7.119  10.712   5.150 -0.6252 -1.8966  1.1933
23307SOL    HW275758   7.118  10.789   5.280  1.2055 -0.7360  0.5597
23308SOL     OW75759   4.200   5.951   9.108 -0.5051 -0.1275  0.4926
23308SOL    HW175760   4.146   6.015   9.061  1.1240  0.9265 -0.0208
23308SOL    HW275761   4.258   5.915   9.042  0.7534  0.2107  1.3685
23309SOL     OW75762   9.628   3.925  10.532 -0.3507 -0.2663  0.2824
23309SOL    HW175763   9.677   3.848  10.503 -0.6135 -0.0309 -0.8258
23309SOL    HW275764   9.612   3.909  10.625 -0.1779 -1.4288  0.1310
23310SOL     OW75765   8.894   4.066  10.754  0.5416  0.1102 -0.7509
23310SOL    HW175766   8.880   3.986  10.703 -2.6483  0.0852 -0.0816
23310SOL    HW275767   8.965   4.044  10.815 -0.5589 -2.4325 -0.2440
23311SOL     OW75768   1.979   7.510   9.658  0.1942  0.3802 -0.3579
23311SOL    HW175769   1.998   7.593   9.702 -4.7130  2.7707 -2.0818
23311SOL    HW275770   1.909   7.471   9.711 -1.6715  0.4127 -2.6410
23312SOL     OW75771  10.047   9.329   8.953 -1.5986  0.4680  0.2382
23312SOL    HW175772  10.017   9.411   8.991 -0.5337  0.2132  1.7173
23312SOL    HW275773  10.044   9.266   9.025  0.2864 -0.0810 -0.0936
23313SOL     OW75774   3.762   4.687   9.254 -0.6813 -0.3112 -0.2745
23313SOL    HW175775   3.741   4.695   9.347 -0.5426 -2.1025 -0.0545
23313SOL    HW275776   3.690   4.733   9.210  0.1879  2.1667  0.7087
23314SOL     OW75777  10.045   8.947   8.517 -0.1879  1.2169  0.3969
23314SOL    HW175778  10.038   8.931   8.423 -2.2641 -0.1749  0.7198
23314SOL    HW275779   9.969   9.002   8.538 -0.5921  0.2740  1.4814
23315SOL     OW75780   8.497   5.435   4.378  0.0116 -0.5677  0.3327
23315SOL    HW175781   8.535   5.454   4.463  2.5570 -0.4706 -0.7214
23315SOL    HW275782   8.512   5.341   4.365 -1.7023 -0.9072  0.5588
23316SOL     OW75783   4.684   5.565   3.306 -0.1095  0.3319 -0.1183
23316SOL    HW175784   4.628   5.587   3.231  0.0430 -2.3233 -1.1149
23316SOL    HW275785   4.675   5.640   3.365 -3.2225  0.8732 -1.0762
23317SOL     OW75786   7.539   4.148   9.309  0.2526 -0.0378 -0.0614
23317SOL    HW175787   7.513   4.240   9.317 -0.3802 -0.2961  1.2154
23317SOL    HW275788   7.505   4.120   9.224 -2.1266  0.1484  0.7622
23318SOL     OW75789   9.508   0.128   7.920  0.6569  0.0882 -0.6309
23318SOL    HW175790   9.512   0.034   7.901 -1.0249 -0.1099 -0.1267
23318SOL    HW275791   9.417   0.152   7.903  0.6553  1.2686  0.9007
23319SOL     OW75792   4.058   0.234   6.907 -0.6797  0.3013 -0.3593
23319SOL    HW175793   4.021   0.255   6.993 -1.1135  2.2598 -0.9637
23319SOL    HW275794   4.132   0.295   6.898  0.5841 -1.2078 -0.6046
23320SOL     OW75795   2.644   8.555  10.135 -0.0320  0.1160  0.1714
23320SOL    HW175796   2.656   8.512  10.220 -2.3378  1.1534  1.0952
23320SOL    HW275797   2.702   8.631  10.139 -0.2002  0.2202  0.8743
23321SOL     OW75798   7.171  10.133   4.139  0.0714 -0.2990  0.2493
23321SOL    HW175799   7.210  10.093   4.061  0.1899 -1.9136  1.1050
23321SOL    HW275800   7.242  10.182   4.179  1.0077 -2.2845  1.1738
23322SOL     OW75801   2.692   3.199   3.303  0.6743  0.5514 -0.2640
23322SOL    HW175802   2.715   3.259   3.375  0.8924  1.6127 -1.1844
23322SOL    HW275803   2.612   3.236   3.266  1.4029  0.9079 -1.5307
23323SOL     OW75804  10.375   4.106   4.342  0.2372 -0.2123  0.0325
23323SOL    HW175805  10.345   4.016   4.350  0.3039 -0.3865 -1.4395
23323SOL    HW275806  10.295   4.158   4.349 -0.0231 -0.4922 -0.7407
23324SOL     OW75807   3.579   8.507   5.673  0.0807 -0.3076 -0.3862
23324SOL    HW175808   3.575   8.557   5.755 -0.5554  1.5925 -1.5261
23324SOL    HW275809   3.536   8.562   5.609  0.9121 -1.5858 -2.1255
23325SOL     OW75810   7.435   4.911   4.180 -0.0518 -0.0831 -0.2081
23325SOL    HW175811   7.392   4.996   4.175  0.3285  0.1514  0.4258
23325SOL    HW275812   7.406   4.873   4.263  0.4247 -0.2129 -0.0963
23326SOL     OW75813   3.343   1.420   7.709  0.0182 -0.3252  0.1406
23326SOL    HW175814   3.253   1.447   7.691 -0.3888 -0.4962  1.7599
23326SOL    HW275815   3.368   1.472   7.786  1.0812 -0.7225  0.0757
23327SOL     OW75816   3.620   1.436   7.496  0.0626  0.1795 -0.1247
23327SOL    HW175817   3.706   1.397   7.512  0.1935 -0.0005 -1.2145
23327SOL    HW275818   3.601   1.416   7.404 -1.6316 -0.7674  0.3861
23328SOL     OW75819   4.099   9.686   9.505  0.2338  0.0445  0.0234
23328SOL    HW175820   4.175   9.636   9.474  0.9188  1.3262 -0.4168
23328SOL    HW275821   4.067   9.732   9.428 -2.4256 -2.1502 -0.3516
23329SOL     OW75822   7.692   9.365   8.391 -0.0122  0.8971 -0.1813
23329SOL    HW175823   7.734   9.428   8.331 -0.8874  0.0049 -1.8011
23329SOL    HW275824   7.757   9.352   8.460  0.8547  2.3414 -0.6600
23330SOL     OW75825   2.609   0.370   6.255  0.4379 -0.3071 -0.4351
23330SOL    HW175826   2.587   0.449   6.206  2.0766  1.2240  1.1248
23330SOL    HW275827   2.668   0.322   6.198 -1.1882 -0.8675 -1.7212
23331SOL     OW75828   7.468   1.248   9.830  0.3533 -0.1027  0.1495
23331SOL    HW175829   7.463   1.153   9.841 -2.2439 -0.0910 -0.3535
23331SOL    HW275830   7.405   1.283   9.893  0.5871  1.2243 -0.3246
23332SOL     OW75831   6.719   1.454   5.494 -0.3187  0.0419  0.7477
23332SOL    HW175832   6.787   1.494   5.548 -0.7591  0.0957  1.2719
23332SOL    HW275833   6.757   1.371   5.465  0.4794  0.6684 -0.0746
23333SOL     OW75834   6.221   5.263   0.327  0.1088  0.4893  0.8102
23333SOL    HW175835   6.226   5.204   0.251 -1.9536 -0.0008  0.9863
23333SOL    HW275836   6.248   5.209   0.401  0.4107  0.4412  0.6659
23334SOL     OW75837   9.169   6.128   6.162  0.5165 -0.1585  0.6906
23334SOL    HW175838   9.089   6.179   6.176  1.6146  1.3960  1.5166
23334SOL    HW275839   9.176   6.120   6.067 -0.0195  0.7129  0.5656
23335SOL     OW75840   9.354   7.908   5.655  0.0514  0.0493 -0.0040
23335SOL    HW175841   9.423   7.860   5.611 -0.5235 -0.3298 -0.5182
23335SOL    HW275842   9.273   7.863   5.629 -0.6449  2.0803 -1.6347
23336SOL     OW75843   8.575   3.228   9.196 -0.1749  0.4501 -0.2157
23336SOL    HW175844   8.559   3.319   9.170  0.2651  0.7439  0.4988
23336SOL    HW275845   8.574   3.179   9.114 -0.0392  1.1586 -0.6518
23337SOL     OW75846   8.865   1.090   6.967 -0.0625 -0.3953 -0.0260
23337SOL    HW175847   8.790   1.148   6.982  0.5405  0.4547 -0.2270
23337SOL    HW275848   8.940   1.149   6.961  0.5130 -1.1766 -0.6615
23338SOL     OW75849  10.914   2.160  10.022 -0.5439  0.1066  0.4049
23338SOL    HW175850  10.982   2.222   9.996  0.2189 -0.4997  0.9012
23338SOL    HW275851  10.919   2.091   9.956  1.2863 -1.3589  1.9707
23339SOL     OW75852  10.611   5.331   2.244  0.5154 -0.1226  0.1871
23339SOL    HW175853  10.561   5.412   2.251 -0.7933 -0.8714 -0.2469
23339SOL    HW275854  10.688   5.354   2.193  0.2152  0.8703  0.1788
23340SOL     OW75855   0.052   5.483   3.456  0.8946  0.0404 -0.1913
23340SOL    HW175856   0.017   5.413   3.401 -1.0708 -0.0603  1.1089
23340SOL    HW275857  -0.024   5.535   3.481  2.1597  1.9876 -0.1775
23341SOL     OW75858   1.557  10.882   7.166 -0.0437 -0.1691  0.2713
23341SOL    HW175859   1.504  10.894   7.087  1.0977  1.0026 -0.3474
23341SOL    HW275860   1.583  10.970   7.191 -0.6833 -0.4846  2.2125
23342SOL     OW75861   5.987   3.095   2.988 -0.0684  0.0155 -0.2349
23342SOL    HW175862   5.994   3.183   2.950  0.2982  0.7895  1.5035
23342SOL    HW275863   5.929   3.048   2.929 -0.5949  1.5607 -1.0134
23343SOL     OW75864   4.666  10.532   6.814 -0.6006  0.0250  0.4651
23343SOL    HW175865   4.619  10.475   6.875 -0.0626  0.9891  1.7959
23343SOL    HW275866   4.749  10.551   6.857 -0.1277  0.5788 -0.6572
23344SOL     OW75867   4.015   0.450   1.367 -0.0796 -0.1890  0.1247
23344SOL    HW175868   3.987   0.367   1.406  0.2124 -0.0286  0.6941
23344SOL    HW275869   4.095   0.473   1.416 -1.1598  1.3469  1.2584
23345SOL     OW75870   7.791   4.879   9.748 -0.6431  0.3512  0.5081
23345SOL    HW175871   7.830   4.888   9.835 -0.4324  0.5533  0.3940
23345SOL    HW275872   7.854   4.919   9.689 -1.3109  1.2493  0.3843
23346SOL     OW75873   2.015   1.799   1.567 -0.0305  0.0338  0.3578
23346SOL    HW175874   1.937   1.759   1.606  0.3173 -0.3003  0.7076
23346SOL    HW275875   2.022   1.759   1.481 -0.3842  0.2464  0.2258
23347SOL     OW75876   4.061   3.493   8.415  0.4492  0.1574  0.0145
23347SOL    HW175877   4.123   3.431   8.378 -3.4129 -3.5506 -0.9943
23347SOL    HW275878   4.049   3.464   8.506 -0.9912 -0.3198 -0.3014
23348SOL     OW75879   0.311   9.631   8.990 -0.5325  0.1941 -0.2713
23348SOL    HW175880   0.379   9.697   8.985  0.0156 -0.3989 -0.8904
23348SOL    HW275881   0.332   9.580   9.068  1.9496 -2.2912 -2.3576
23349SOL     OW75882   2.336   5.507   9.576  0.0546 -0.1938 -0.0763
23349SOL    HW175883   2.353   5.494   9.669 -0.5668 -0.9405 -0.0549
23349SOL    HW275884   2.330   5.418   9.541  1.3860  0.0552 -1.0461
23350SOL     OW75885   7.535   4.993   9.750 -0.1957 -0.6276  0.1684
23350SOL    HW175886   7.476   4.968   9.679 -1.3779 -0.5276  1.0937
23350SOL    HW275887   7.618   4.951   9.727 -0.4859 -0.4306 -1.3677
23351SOL     OW75888   5.458   6.217   0.600  0.2532  0.1888 -0.5165
23351SOL    HW175889   5.494   6.176   0.679  2.2807  2.7086  0.0373
23351SOL    HW275890   5.449   6.146   0.537  0.3854 -1.5865  1.3847
23352SOL     OW75891   9.019   3.225  10.419 -0.0243 -0.0391 -0.5065
23352SOL    HW175892   8.963   3.275  10.478 -0.7792 -0.6425 -0.7041
23352SOL    HW275893   9.021   3.137  10.457  1.1188  0.0713 -0.2799
23353SOL     OW75894   8.949   6.594  10.354  0.0989 -0.2651  0.8627
23353SOL    HW175895   8.944   6.615  10.260  1.5273 -2.1376  0.2992
23353SOL    HW275896   8.876   6.533  10.368 -1.0867  1.2300  1.3705
23354SOL     OW75897  10.202   0.975   7.462  0.0630  0.0115 -0.0887
23354SOL    HW175898  10.290   0.988   7.427 -0.3908  0.1518 -1.2221
23354SOL    HW275899  10.185   1.053   7.514  0.3998  0.2385 -0.3112
23355SOL     OW75900   2.164   7.165   3.372 -0.0967  0.5037 -0.4090
23355SOL    HW175901   2.149   7.079   3.410 -0.7195  0.5301 -0.5910
23355SOL    HW275902   2.233   7.151   3.307 -0.5628  0.0332 -0.8124
23356SOL     OW75903   0.357   1.525   5.468  0.0903  0.0401  0.2156
23356SOL    HW175904   0.383   1.486   5.384 -1.7730 -0.8516  0.0223
23356SOL    HW275905   0.381   1.618   5.458 -1.4979  0.3119 -1.9758
23357SOL     OW75906   5.054   0.585   1.012 -0.1442 -0.4578 -0.7292
23357SOL    HW175907   5.117   0.633   1.067 -0.6301 -0.5263 -0.1076
23357SOL    HW275908   4.969   0.618   1.040 -0.3591  0.4637 -2.3413
23358SOL     OW75909   4.897   7.611   8.452  0.0431  0.0060  0.3645
23358SOL    HW175910   4.912   7.704   8.433  1.0214 -0.2503 -0.2244
23358SOL    HW275911   4.868   7.609   8.543  0.1144  0.8822  0.4138
23359SOL     OW75912   6.994   9.053   5.418  0.2572 -0.0269  0.2592
23359SOL    HW175913   7.018   9.140   5.449  0.2309  0.2921 -0.6106
23359SOL    HW275914   6.904   9.062   5.387  0.1827 -0.4133  0.3569
23360SOL     OW75915   7.977   5.361   8.467  0.2921 -0.5253 -0.0082
23360SOL    HW175916   7.929   5.281   8.487  0.9795 -1.0032 -0.2444
23360SOL    HW275917   7.943   5.426   8.529  0.5665 -1.3067  0.9889
23361SOL     OW75918   0.973   6.705   3.480 -0.0363 -0.0501 -0.2802
23361SOL    HW175919   0.945   6.737   3.395  1.7974 -0.0321 -0.9291
23361SOL    HW275920   1.003   6.616   3.464  3.8148  1.1101 -0.5547
23362SOL     OW75921   6.201   3.833   1.851 -0.2141  0.1978 -0.6103
23362SOL    HW175922   6.197   3.754   1.797 -0.7222 -0.1627 -0.0577
23362SOL    HW275923   6.113   3.841   1.888  0.4261 -0.2583  1.1171
23363SOL     OW75924   3.547   7.943   0.117  0.4959 -0.0164  0.3742
23363SOL    HW175925   3.526   7.993   0.196  0.4856  0.1662  0.2548
23363SOL    HW275926   3.534   7.852   0.143 -0.2590  0.0797  0.3664
23364SOL     OW75927   6.480   3.113   9.523 -0.2704 -0.7286  0.0887
23364SOL    HW175928   6.423   3.178   9.564  0.7314  0.0726  0.2466
23364SOL    HW275929   6.421   3.057   9.473 -1.2510 -0.2684  0.7098
23365SOL     OW75930   0.960   4.794   6.961 -0.3480  0.2440 -0.2937
23365SOL    HW175931   0.895   4.725   6.973  0.0559  0.0033  0.5261
23365SOL    HW275932   0.999   4.806   7.047  1.4873 -0.4048 -0.9919
23366SOL     OW75933   9.045   0.973   7.144  0.3214  0.3925 -0.1279
23366SOL    HW175934   8.976   1.009   7.088  0.4513 -0.1220 -0.6322
23366SOL    HW275935   9.113   0.944   7.083  0.3455 -0.4231  0.2725
23367SOL     OW75936   1.819   4.241   7.389  0.6933  0.8359 -0.2327
23367SOL    HW175937   1.733   4.254   7.347  0.4426  1.9505  0.5584
23367SOL    HW275938   1.879   4.226   7.317 -0.2930 -0.7961 -0.7577
23368SOL     OW75939   2.297   7.017   3.026  0.0191  0.3345 -0.2596
23368SOL    HW175940   2.270   6.931   3.056  1.5305  0.4482  1.5861
23368SOL    HW275941   2.316   7.006   2.933 -1.4721 -0.8737 -0.4515
23369SOL     OW75942   1.147   2.922   4.044 -0.3632 -0.4764  0.0883
23369SOL    HW175943   1.203   2.907   3.968  0.9428  0.1976  0.8765
23369SOL    HW275944   1.152   2.840   4.093 -0.0819 -0.4290  0.1415
23370SOL     OW75945   0.068   4.383   5.039 -0.2798  0.0226  0.3656
23370SOL    HW175946   0.113   4.463   5.067  0.0116 -0.0210  0.0309
23370SOL    HW275947  -0.025   4.405   5.046 -0.2036  0.3109  0.5051
23371SOL     OW75948   5.750   3.727   4.395 -0.4745  0.1794 -0.5423
23371SOL    HW175949   5.814   3.715   4.325 -0.1882  1.1753 -0.4562
23371SOL    HW275950   5.789   3.791   4.453 -1.6873  1.0619 -0.6688
23372SOL     OW75951   9.537   4.927   8.900 -0.2121  0.9504  0.4568
23372SOL    HW175952   9.453   4.897   8.936 -1.6985 -0.4509 -3.6342
23372SOL    HW275953   9.522   5.019   8.878 -0.6573  0.7525 -0.0959
23373SOL     OW75954   0.517   7.914   5.180  0.1688 -0.6315 -0.5111
23373SOL    HW175955   0.422   7.917   5.175 -0.1052  1.4650  2.9425
23373SOL    HW275956   0.536   7.853   5.251  1.3524 -0.5718 -0.7491
23374SOL     OW75957   0.034   7.141   9.413  0.0272  0.4920 -1.0865
23374SOL    HW175958   0.114   7.093   9.433 -1.2804 -1.3955 -0.0897
23374SOL    HW275959   0.036   7.216   9.472  0.7244  0.0630 -0.5520
23375SOL     OW75960   8.695   7.663   2.790 -0.0208  0.1311 -0.5804
23375SOL    HW175961   8.754   7.589   2.780  0.5197  0.4350  0.2591
23375SOL    HW275962   8.732   7.731   2.734 -0.4444 -0.1901 -1.2497
23376SOL     OW75963   7.186   3.608   5.739 -0.1211  0.2287  0.2264
23376SOL    HW175964   7.203   3.699   5.715 -0.8796 -0.3236 -2.7011
23376SOL    HW275965   7.109   3.613   5.796  0.6182  1.4795  1.1793
23377SOL     OW75966   6.634   3.198   6.393 -0.2945  0.1419 -0.2677
23377SOL    HW175967   6.620   3.290   6.414 -2.0518 -0.1669  0.0132
23377SOL    HW275968   6.628   3.153   6.477 -1.6487 -0.4551 -0.6612
23378SOL     OW75969   9.725   4.777   2.765 -0.5283  0.0839  0.8209
23378SOL    HW175970   9.716   4.693   2.809 -1.0868  0.0440  0.6388
23378SOL    HW275971   9.672   4.768   2.686  0.2834  0.2314  0.2541
23379SOL     OW75972   8.014   5.816   9.115  0.0584  0.3595 -0.4921
23379SOL    HW175973   7.957   5.797   9.189  1.0338  1.0115  0.4421
23379SOL    HW275974   8.100   5.783   9.141  0.3083  0.1133 -1.5574
23380SOL     OW75975   5.215   1.115   7.965 -0.0337 -0.1259 -0.1663
23380SOL    HW175976   5.132   1.132   7.920 -0.7142 -0.1805  1.0390
23380SOL    HW275977   5.279   1.167   7.917 -0.8175  0.1618 -0.9237
23381SOL     OW75978   4.592   2.301   0.208 -0.0619  0.0211 -0.2235
23381SOL    HW175979   4.593   2.314   0.113  0.8742 -1.0886 -0.3814
23381SOL    HW275980   4.627   2.383   0.243  1.0553 -0.1136 -0.9400
23382SOL     OW75981   3.711   5.963   4.902  0.4272  0.2721  0.4621
23382SOL    HW175982   3.747   5.984   4.988 -1.5111  0.2485  1.3389
23382SOL    HW275983   3.670   6.045   4.873  1.6186  0.4760 -0.7843
23383SOL     OW75984   2.127   5.772   2.717 -0.2316  0.6663 -0.4839
23383SOL    HW175985   2.154   5.710   2.649 -0.9878 -0.3313  0.1004
23383SOL    HW275986   2.111   5.854   2.670 -1.9112 -0.3081 -1.7210
23384SOL     OW75987   0.574   2.073   9.587 -1.1066 -0.0644 -0.1269
23384SOL    HW175988   0.557   2.111   9.673 -2.4779 -2.6979  0.8788
23384SOL    HW275989   0.534   2.135   9.526 -1.7952  0.9285  1.2519
23385SOL     OW75990   6.818   7.977   9.255 -0.0935  0.1868  0.0637
23385SOL    HW175991   6.816   7.888   9.292 -0.4402  0.8737  1.7847
23385SOL    HW275992   6.911   7.995   9.241  0.0441 -0.1424  0.5136
23386SOL     OW75993   2.182  10.034   4.914 -0.0411 -0.3136  0.4399
23386SOL    HW175994   2.183  10.062   4.822 -0.8502  0.7850  0.7418
23386SOL    HW275995   2.195   9.939   4.911  0.2290 -0.2512 -0.7869
23387SOL     OW75996   5.783   3.859   5.230  0.2775 -0.3480 -0.1740
23387SOL    HW175997   5.703   3.810   5.209  0.1289 -0.2272  0.1090
23387SOL    HW275998   5.830   3.802   5.291  0.2600 -0.2834 -0.0999
23388SOL     OW75999   8.788   8.347   5.736 -0.0575  0.3128  0.1181
23388SOL    HW176000   8.829   8.381   5.657 -1.9919  1.5770 -0.4111
23388SOL    HW276001   8.707   8.396   5.744 -0.4012 -0.4956  2.3513
23389SOL     OW76002   6.105   6.275   1.570 -0.2726  0.8724  0.1126
23389SOL    HW176003   6.090   6.181   1.576 -1.0742  0.8681 -1.3643
23389SOL    HW276004   6.186   6.290   1.619  0.6810 -0.8259 -0.8294
23390SOL     OW76005  10.206   6.690   7.729 -0.6957  0.7176 -0.9236
23390SOL    HW176006  10.292   6.724   7.756 -0.8231  1.2606 -1.2003
23390SOL    HW276007  10.220   6.595   7.720 -1.0319  0.1759  2.6591
23391SOL     OW76008   1.302   0.402   8.478 -0.2970  0.6495 -0.1921
23391SOL    HW176009   1.380   0.358   8.512 -1.6999 -2.0139 -0.1749
23391SOL    HW276010   1.231   0.376   8.538 -1.6858  0.7620 -1.7164
23392SOL     OW76011   4.443   6.072   4.533  0.2344 -0.3478  0.0194
23392SOL    HW176012   4.445   6.039   4.443 -2.0767 -1.1768  0.1863
23392SOL    HW276013   4.381   6.145   4.531  0.5118 -0.0730  0.8514
23393SOL     OW76014   4.695   5.109   7.777 -0.6217  0.9416 -0.2329
23393SOL    HW176015   4.750   5.103   7.699 -0.6219  1.0790 -0.2439
23393SOL    HW276016   4.754   5.092   7.850 -0.4802  1.4797 -0.2163
23394SOL     OW76017   4.424   7.191   9.222 -0.1716 -0.0987 -0.1773
23394SOL    HW176018   4.462   7.120   9.273 -0.7133 -1.6371 -1.7817
23394SOL    HW276019   4.489   7.209   9.154  0.3539  1.6096  0.7256
23395SOL     OW76020   7.329  10.871   4.991  0.2820 -0.0743 -0.4528
23395SOL    HW176021   7.272  10.819   5.048 -1.5177  0.0653 -2.0409
23395SOL    HW276022   7.387  10.807   4.949  0.8990 -0.2911  0.6813
23396SOL     OW76023   1.031   7.336  10.246  0.6054  0.3755  0.3165
23396SOL    HW176024   1.103   7.313  10.305  0.7472 -0.0709 -0.0275
23396SOL    HW276025   1.073   7.380  10.172  0.4653  0.6091  0.3749
23397SOL     OW76026   5.964   3.913   4.207  0.3174  0.0509  0.2313
23397SOL    HW176027   5.965   3.945   4.298  0.3523 -0.6049  0.4681
23397SOL    HW276028   5.890   3.959   4.167  1.3909  1.7270  0.0730
23398SOL     OW76029   3.751   8.240   7.104  0.0628  0.4923 -0.0869
23398SOL    HW176030   3.776   8.328   7.131 -1.9082  1.1225 -0.1844
23398SOL    HW276031   3.814   8.183   7.147  1.3559  1.9345  0.0089
23399SOL     OW76032   1.228   8.422   7.985 -0.0147 -0.0162 -0.4750
23399SOL    HW176033   1.139   8.431   7.952 -0.7493 -1.7109  0.8952
23399SOL    HW276034   1.218   8.403   8.079  1.6529 -1.9537 -0.5997
23400SOL     OW76035   7.110   6.260   2.239  0.3683 -0.4973  0.4960
23400SOL    HW176036   7.111   6.326   2.170  0.6086  0.6393  1.5460
23400SOL    HW276037   7.126   6.177   2.194 -1.8286 -0.1238 -1.1191
23401SOL     OW76038   0.369   3.573   7.692 -0.6649 -0.3063 -0.5189
23401SOL    HW176039   0.308   3.636   7.730  0.9924  1.5751 -0.7711
23401SOL    HW276040   0.334   3.488   7.716 -3.2198  0.6668 -0.4475
23402SOL     OW76041   2.121   3.655   5.932  0.2986  0.0379 -0.4493
23402SOL    HW176042   2.172   3.702   5.998  1.4260 -1.2782 -0.3586
23402SOL    HW276043   2.059   3.603   5.983  0.0192  0.3133 -0.5027
23403SOL     OW76044   7.043   4.201   9.946 -0.4489 -0.4082  0.4488
23403SOL    HW176045   7.105   4.187   9.874 -1.6160 -0.8179 -0.5204
23403SOL    HW276046   7.070   4.284   9.985 -0.0811  0.0780 -0.7907
23404SOL     OW76047   4.982   6.188   3.284  0.3186  0.1330  0.0302
23404SOL    HW176048   5.050   6.221   3.226 -0.2520 -0.8151 -1.2285
23404SOL    HW276049   4.930   6.266   3.306  1.5751  0.8003  0.7368
23405SOL     OW76050   5.381   9.918  10.595  0.4178  0.4867 -0.6797
23405SOL    HW176051   5.449   9.984  10.610 -0.4542  1.4193 -0.7009
23405SOL    HW276052   5.306   9.969  10.564 -1.3530 -0.0789  2.3251
23406SOL     OW76053   3.168   7.988   4.998  0.2851  0.3274  0.5193
23406SOL    HW176054   3.185   7.898   4.972 -0.3329  0.6851 -1.3123
23406SOL    HW276055   3.159   8.036   4.915 -2.8119  1.3925  1.3145
23407SOL     OW76056  10.798   3.651   2.974  0.7855  0.1726  0.2067
23407SOL    HW176057  10.881   3.697   2.966  0.9119  0.3373  2.1265
23407SOL    HW276058  10.781   3.647   3.068 -0.8322 -0.8433 -0.0857
23408SOL     OW76059   7.000   5.827   7.391 -0.4658 -0.1243 -0.5232
23408SOL    HW176060   6.988   5.920   7.373  0.6036 -0.1744 -1.6376
23408SOL    HW276061   7.023   5.789   7.307  2.0787 -0.8720  0.3975
23409SOL     OW76062   4.042   7.012   6.120 -0.7971  0.2225 -0.1523
23409SOL    HW176063   4.115   7.074   6.127  0.3723 -1.0261 -0.8655
23409SOL    HW276064   4.031   6.999   6.026 -0.4233 -1.3186  0.0024
23410SOL     OW76065   8.462   7.157   7.470 -0.2024 -0.7928 -0.2214
23410SOL    HW176066   8.551   7.124   7.459  0.1315  0.3633 -1.2391
23410SOL    HW276067   8.406   7.087   7.437  0.3352 -1.4426  0.2311
23411SOL     OW76068   1.726   3.617   5.615 -0.0921  0.5312 -0.5118
23411SOL    HW176069   1.672   3.594   5.539  0.2617 -1.9522 -0.1041
23411SOL    HW276070   1.675   3.590   5.691  2.0007 -3.1349 -0.1404
23412SOL     OW76071   9.120   7.797   9.132  1.0308  1.3666 -0.1817
23412SOL    HW176072   9.047   7.735   9.144 -0.1382  2.4982 -1.0878
23412SOL    HW276073   9.185   7.748   9.083 -0.3354  1.1225 -1.8672
23413SOL     OW76074   6.710   9.527   9.464 -0.1621  1.1390 -0.1447
23413SOL    HW176075   6.646   9.457   9.459 -0.1924  1.1306  0.3124
23413SOL    HW276076   6.781   9.491   9.517 -1.0141  2.0843  1.7163
23414SOL     OW76077   4.947  10.290  10.371  0.0760 -0.3135 -0.0557
23414SOL    HW176078   4.997  10.365  10.338 -0.9702  0.5843  0.3557
23414SOL    HW276079   4.862  10.296  10.328 -0.2926 -0.8140  0.5726
23415SOL     OW76080   7.040   6.878   5.441 -0.3761 -0.0591  0.2065
23415SOL    HW176081   6.951   6.885   5.476 -0.2798  2.8162  0.0798
23415SOL    HW276082   7.028   6.856   5.349 -0.9732  0.4728  0.1517
23416SOL     OW76083   5.120   5.130   3.643  0.2958  0.0537  0.2515
23416SOL    HW176084   5.050   5.138   3.708  0.4634 -0.5303  0.5151
23416SOL    HW276085   5.077   5.146   3.559 -0.4629 -1.6038  0.2780
23417SOL     OW76086   0.857   0.150   1.383 -0.4130 -0.0415 -0.1707
23417SOL    HW176087   0.859   0.168   1.289  2.7731 -0.0912 -0.2174
23417SOL    HW276088   0.867   0.236   1.424 -0.5449 -0.1490  0.0885
23418SOL     OW76089   3.965   4.948   7.762  0.0962  0.1945 -0.3664
23418SOL    HW176090   3.923   4.867   7.731  0.8374 -0.3180 -0.0418
23418SOL    HW276091   3.952   5.010   7.690  0.4895 -0.5408 -1.0840
23419SOL     OW76092   6.115   0.066   7.890 -0.3474 -0.2740 -0.4088
23419SOL    HW176093   6.066  -0.015   7.879 -0.1874 -0.5893  0.9960
23419SOL    HW276094   6.199   0.038   7.925  0.2616  0.3972 -1.2903
23420SOL     OW76095   5.771   6.738   6.364  0.0844 -0.0791 -0.5178
23420SOL    HW176096   5.698   6.763   6.420 -1.9131 -0.7535 -2.6562
23420SOL    HW276097   5.806   6.821   6.331  0.3929  0.2525  0.6037
23421SOL     OW76098   3.182   5.281   5.585  0.0948 -0.3811  0.3423
23421SOL    HW176099   3.097   5.237   5.596  0.4476 -0.6297  2.6069
23421SOL    HW276100   3.234   5.220   5.533 -0.3440 -1.3984  1.0562
23422SOL     OW76101   0.194   5.023   9.115 -0.5616 -0.5393 -0.3619
23422SOL    HW176102   0.269   5.037   9.172 -0.3898  1.0695 -0.9062
23422SOL    HW276103   0.118   5.023   9.173 -0.2502 -0.8209  0.0471
23423SOL     OW76104   4.472   7.571   3.643 -0.1622  0.7111 -0.4346
23423SOL    HW176105   4.457   7.602   3.733 -0.5118  0.6596 -0.4736
23423SOL    HW276106   4.440   7.481   3.644 -3.4198  1.7173 -1.4797
23424SOL     OW76107  10.188   7.520   9.308  0.3058  0.1831 -0.3631
23424SOL    HW176108  10.101   7.485   9.328  1.3668 -1.4189  1.8121
23424SOL    HW276109  10.241   7.443   9.288  1.7143  0.9309  0.3761
23425SOL     OW76110   6.981   9.449  10.670 -0.3302 -0.0658 -0.4943
23425SOL    HW176111   6.913   9.467  10.735 -1.2013 -0.9968 -1.1234
23425SOL    HW276112   7.060   9.489  10.706 -1.3032  1.4494  0.0238
23426SOL     OW76113   1.496   3.536   5.757  0.3864  0.1502  0.0852
23426SOL    HW176114   1.460   3.451   5.731 -1.9750  0.2825  2.4696
23426SOL    HW276115   1.474   3.543   5.850  3.4226  1.9907  0.8142
23427SOL     OW76116   6.939   9.791   7.430 -0.3854 -0.0815 -0.5115
23427SOL    HW176117   6.913   9.729   7.498 -1.1431  0.6037 -0.1623
23427SOL    HW276118   6.912   9.876   7.464  0.0420  0.3655 -1.2787
23428SOL     OW76119   7.870   1.111   0.575  0.0282 -0.3763 -0.1185
23428SOL    HW176120   7.818   1.124   0.496  0.1959  1.7482  0.0591
23428SOL    HW276121   7.832   1.033   0.616 -1.5531 -0.1995 -1.1398
23429SOL     OW76122   6.329   8.244   7.136  0.4393  0.5128  0.1929
23429SOL    HW176123   6.321   8.241   7.231  1.7359 -0.1020  0.3032
23429SOL    HW276124   6.335   8.153   7.109 -1.8492  0.5602 -0.7084
23430SOL     OW76125   6.439   6.899   3.521  0.2638  0.1920  0.3205
23430SOL    HW176126   6.419   6.869   3.432  0.8302 -1.0043  0.5852
23430SOL    HW276127   6.439   6.995   3.514  1.4141  0.1169 -1.2316
23431SOL     OW76128   6.602   6.320   1.683 -0.0114 -0.3755 -0.2433
23431SOL    HW176129   6.550   6.241   1.672  1.8342 -1.4956 -1.5052
23431SOL    HW276130   6.648   6.307   1.766 -3.1468  1.5859  2.0363
23432SOL     OW76131   5.351   3.243   0.601 -0.2353  0.0791  0.2761
23432SOL    HW176132   5.437   3.213   0.571 -0.5044  0.4790 -0.9243
23432SOL    HW276133   5.349   3.219   0.694  0.5749 -1.2882 -0.0316
23433SOL     OW76134   4.072  10.246   2.517 -0.4291 -0.0151 -0.1804
23433SOL    HW176135   4.101  10.326   2.473 -0.2656 -0.1253 -0.2696
23433SOL    HW276136   3.988  10.226   2.477 -0.6370  0.3077  0.0844
23434SOL     OW76137   1.555  10.638   5.412  0.4778  0.6436 -0.7025
23434SOL    HW176138   1.492  10.664   5.345  1.2227  2.6769 -0.6680
23434SOL    HW276139   1.631  10.607   5.363  0.0372 -0.4270 -0.7456
23435SOL     OW76140   2.179   6.764   3.100  0.3028 -0.0387  0.7035
23435SOL    HW176141   2.087   6.781   3.122  0.5313  1.0723  0.8313
23435SOL    HW276142   2.214   6.719   3.177  0.2544  0.9056  1.2860
23436SOL     OW76143   5.023   2.973   0.241  0.4172 -0.9813 -0.4448
23436SOL    HW176144   4.989   2.964   0.152 -2.2080  0.5024  0.2922
23436SOL    HW276145   5.018   3.067   0.258 -2.0351 -1.4396  2.2115
23437SOL     OW76146   8.316   3.245   0.327 -0.5733  0.6828 -0.0383
23437SOL    HW176147   8.400   3.217   0.363 -1.2915  1.1233  2.1592
23437SOL    HW276148   8.330   3.249   0.232  2.3755  2.3377  0.3348
23438SOL     OW76149   9.766   5.831   6.341 -0.4943 -0.0132  0.5647
23438SOL    HW176150   9.736   5.915   6.307 -1.4714 -0.7702 -0.5407
23438SOL    HW276151   9.850   5.850   6.382 -0.3909  1.3906 -0.2401
23439SOL     OW76152   6.336   9.737   9.106  0.0596  0.1347 -0.3482
23439SOL    HW176153   6.387   9.817   9.112  0.0012  0.1412  0.1259
23439SOL    HW276154   6.246   9.766   9.095  0.2451  0.1253 -2.2517
23440SOL     OW76155   0.312   1.784   6.678 -0.1083  0.0854  0.3973
23440SOL    HW176156   0.360   1.867   6.668  0.1778 -0.1830 -0.5111
23440SOL    HW276157   0.238   1.792   6.617 -0.0238 -0.3686  0.2343
23441SOL     OW76158   9.233   5.442   8.907  0.0407  0.0017 -0.4458
23441SOL    HW176159   9.293   5.474   8.975  2.1410 -1.6855 -1.3916
23441SOL    HW276160   9.248   5.499   8.832  0.1664 -0.1767 -0.5567
23442SOL     OW76161   4.672   5.484   6.891  0.0291 -0.4337  0.0095
23442SOL    HW176162   4.658   5.515   6.980  1.6702 -0.9290  0.4666
23442SOL    HW276163   4.760   5.514   6.868 -0.9238  1.0628 -2.0574
23443SOL     OW76164   1.107   1.268   1.617 -0.0670  0.2933  0.3557
23443SOL    HW176165   1.080   1.200   1.678 -0.0804  0.7195  0.8341
23443SOL    HW276166   1.202   1.276   1.629  0.1581 -0.5503 -0.6522
23444SOL     OW76167   4.999   2.436  10.649  0.1822  0.3519  0.0745
23444SOL    HW176168   5.069   2.501  10.645  1.3143 -0.8937 -2.3869
23444SOL    HW276169   5.045   2.353  10.662 -1.2342 -0.0614  3.4215
23445SOL     OW76170   5.735   2.986   5.641  0.4579 -0.3813  0.1147
23445SOL    HW176171   5.747   3.070   5.596 -0.0956  0.0768  0.8045
23445SOL    HW276172   5.770   2.921   5.579  2.3843  0.4729  0.2151
23446SOL     OW76173   0.782   7.583  10.532 -0.2390 -0.1936  0.1310
23446SOL    HW176174   0.717   7.653  10.525  0.3276  0.2099 -1.4902
23446SOL    HW276175   0.821   7.577  10.445  0.9253 -1.3805  0.6930
23447SOL     OW76176   0.692   5.943   1.392 -0.1251  0.3422  0.2953
23447SOL    HW176177   0.627   5.902   1.450 -0.6529  1.9593  0.9029
23447SOL    HW276178   0.728   5.871   1.341 -0.2108 -1.0402  2.0935
23448SOL     OW76179   6.399   2.429   6.713 -0.0927  0.1053  0.3335
23448SOL    HW176180   6.460   2.398   6.647 -0.7048 -1.0111  0.2705
23448SOL    HW276181   6.373   2.351   6.762 -1.5086  0.5256  0.3093
23449SOL     OW76182   2.679   0.550   9.491 -0.2991  0.0738 -0.6496
23449SOL    HW176183   2.667   0.618   9.556 -2.3792 -0.4674 -0.4040
23449SOL    HW276184   2.723   0.593   9.418  1.3941  0.8607  0.7681
23450SOL     OW76185   1.965   5.867   7.168  0.5076  0.6727  0.0722
23450SOL    HW176186   1.931   5.920   7.240 -0.0242  1.6917 -0.8958
23450SOL    HW276187   1.892   5.811   7.142  1.2376 -0.9989  1.4618
23451SOL     OW76188  10.197   8.224   1.027 -0.1688  0.3345 -0.2132
23451SOL    HW176189  10.237   8.306   1.056  2.2117 -0.7417 -0.2473
23451SOL    HW276190  10.235   8.157   1.083 -0.6247 -0.9785 -1.4145
23452SOL     OW76191   7.160   9.089   7.177 -0.3055  0.0164 -0.9937
23452SOL    HW176192   7.187   9.119   7.090  1.7711  0.9706 -0.0939
23452SOL    HW276193   7.080   9.139   7.196 -0.5486  0.0975 -2.1699
23453SOL     OW76194   1.855   1.931   0.044 -0.4358  0.6154  0.3846
23453SOL    HW176195   1.949   1.944   0.029 -0.3654 -0.5068 -0.2679
23453SOL    HW276196   1.851   1.853   0.100 -1.0127 -0.1190 -0.6557
23454SOL     OW76197   6.080   3.058  10.511 -0.3317 -0.4375  0.3375
23454SOL    HW176198   6.070   2.977  10.561 -0.4884 -0.7188 -0.1412
23454SOL    HW276199   6.095   3.125  10.577  0.3170 -0.9358  0.7042
23455SOL     OW76200   7.039   3.592   7.043  0.8980  0.6346  0.8726
23455SOL    HW176201   7.132   3.573   7.032  0.6639 -0.9293  1.3417
23455SOL    HW276202   7.006   3.607   6.955  0.7732 -3.0267  0.1768
23456SOL     OW76203   1.626   1.349  10.875  0.5369 -0.5078 -0.3654
23456SOL    HW176204   1.530   1.353  10.874  0.4433 -1.9794 -2.5491
23456SOL    HW276205   1.653   1.441  10.875 -0.9303 -0.0151 -2.2186
23457SOL     OW76206   1.132   7.549   1.221 -0.0222 -0.2776  0.0459
23457SOL    HW176207   1.226   7.557   1.237  0.0839 -0.0800 -0.6496
23457SOL    HW276208   1.108   7.632   1.180 -0.3349 -0.6556 -0.5443
23458SOL     OW76209  10.183  10.674   7.924 -0.6895  0.4320 -0.3121
23458SOL    HW176210  10.132  10.644   8.000  1.1802 -2.4204 -0.0016
23458SOL    HW276211  10.245  10.737   7.961  1.3242 -2.1349  1.0595
23459SOL     OW76212   1.639   2.845   7.800 -0.6026  0.2751  0.0114
23459SOL    HW176213   1.606   2.910   7.861  1.0378  0.8418  0.3486
23459SOL    HW276214   1.700   2.894   7.744  0.4174 -0.8774  0.0698
23460SOL     OW76215   9.495   1.423   8.724  0.0446  0.3392 -0.3971
23460SOL    HW176216   9.407   1.385   8.720  0.0906 -0.1594  1.9558
23460SOL    HW276217   9.552   1.358   8.684 -0.3343 -0.5126  0.4277
23461SOL     OW76218   9.736   6.221   1.831 -0.3133  0.2556  0.6515
23461SOL    HW176219   9.826   6.190   1.844 -0.7633 -0.5473  2.1102
23461SOL    HW276220   9.696   6.155   1.774 -0.4286 -0.2896  1.3470
23462SOL     OW76221   8.172   3.583   0.164  0.1258 -0.5490  0.1230
23462SOL    HW176222   8.177   3.545   0.251 -0.0476 -1.2095 -0.1494
23462SOL    HW276223   8.258   3.566   0.125  0.2144 -0.2261  0.1751
23463SOL     OW76224   3.688   3.067   8.450  0.0435 -0.3807 -0.9749
23463SOL    HW176225   3.732   3.097   8.530 -0.3166  0.2050 -0.9916
23463SOL    HW276226   3.691   2.971   8.455 -0.4606 -0.3607  0.0252
23464SOL     OW76227   3.453   7.538   6.224 -0.3439  0.0455 -0.2410
23464SOL    HW176228   3.468   7.453   6.184  0.8260 -0.1466  0.5649
23464SOL    HW276229   3.473   7.601   6.156  0.8111 -0.2913 -0.2287
23465SOL     OW76230   2.177   4.539   3.006  0.4014  0.0137 -0.7758
23465SOL    HW176231   2.157   4.628   2.979  1.9806  0.3220 -1.0180
23465SOL    HW276232   2.171   4.542   3.102  1.8419  0.7693 -0.6842
23466SOL     OW76233   0.117   6.099   3.438 -0.1402 -0.2992 -0.0802
23466SOL    HW176234   0.158   6.177   3.473  1.3978 -0.0208 -2.3123
23466SOL    HW276235   0.023   6.118   3.441  0.1621  1.3181  0.0994
23467SOL     OW76236   8.446   3.497   0.125 -0.4382  0.2773  0.3766
23467SOL    HW176237   8.494   3.526   0.202  0.4376  0.1164 -0.1001
23467SOL    HW276238   8.490   3.540   0.052 -1.2808  0.4631 -0.0456
23468SOL     OW76239  10.798   7.799   1.306  0.2955  0.1409  0.4310
23468SOL    HW176240  10.807   7.728   1.369  2.5003  0.7196  0.8511
23468SOL    HW276241  10.704   7.804   1.289 -0.2993 -0.5485  3.0452
23469SOL     OW76242   9.192   4.999   6.843 -0.2117 -0.0392 -0.3283
23469SOL    HW176243   9.147   5.018   6.925  0.7706 -0.8855  0.4354
23469SOL    HW276244   9.285   5.007   6.864  0.0495  0.9891 -1.6944
23470SOL     OW76245   8.578   6.497   2.255 -0.3641 -0.2760  0.7226
23470SOL    HW176246   8.541   6.530   2.337 -0.2366  2.2591 -0.1542
23470SOL    HW276247   8.672   6.508   2.264 -0.3491  0.0149  0.2423
23471SOL     OW76248   0.051  10.137   6.679  0.6352  0.3818 -0.5392
23471SOL    HW176249   0.114  10.113   6.746  0.0973 -1.8389 -0.7490
23471SOL    HW276250   0.102  10.141   6.598  0.4810 -2.0487 -0.8228
23472SOL     OW76251   4.007   1.727  10.652  0.3362  0.3930  0.8354
23472SOL    HW176252   3.914   1.709  10.639  0.5106 -0.8211  1.1913
23472SOL    HW276253   4.030   1.787  10.581 -0.0978 -1.3784 -0.8685
23473SOL     OW76254   0.875   4.052  10.533  0.3245 -0.0393 -0.3052
23473SOL    HW176255   0.822   3.989  10.484 -1.6064  1.1304  0.1476
23473SOL    HW276256   0.880   4.129  10.477 -0.5633  0.7301  0.6118
23474SOL     OW76257   2.464   2.026  10.900  0.9931 -0.3080  0.1161
23474SOL    HW176258   2.460   1.965  10.975 -0.4392  2.0809  2.1345
23474SOL    HW276259   2.379   2.017  10.858  1.0663 -0.2179 -0.0516
23475SOL     OW76260   0.218   9.240   4.771  0.3958 -0.7518 -0.2935
23475SOL    HW176261   0.194   9.282   4.854  0.7035  1.0903 -1.0787
23475SOL    HW276262   0.154   9.170   4.760 -1.9205  1.2195 -0.1958
23476SOL     OW76263   2.967   2.710   1.634  0.5341  0.8628 -0.3606
23476SOL    HW176264   2.925   2.642   1.688 -0.7292  0.9716 -1.1751
23476SOL    HW276265   3.048   2.732   1.682  1.4407 -1.8118 -0.5036
23477SOL     OW76266   9.443   4.910   4.157 -0.2344 -0.3371 -0.8503
23477SOL    HW176267   9.460   5.004   4.171 -0.2709  0.1425 -3.5761
23477SOL    HW276268   9.353   4.898   4.189  0.4529  0.0463  1.3936
23478SOL     OW76269   2.792  10.575   4.034 -0.1931  0.1598 -0.2786
23478SOL    HW176270   2.824  10.645   4.091  0.5865 -1.2988  1.1475
23478SOL    HW276271   2.711  10.545   4.075  0.3977 -0.9298  0.1355
23479SOL     OW76272   1.596   5.123   5.411 -0.4010 -0.2451  0.3206
23479SOL    HW176273   1.569   5.206   5.451  1.2772 -0.1362  1.3353
23479SOL    HW276274   1.517   5.069   5.413 -0.5492 -0.1134  3.5733
23480SOL     OW76275   0.711   8.864   6.837 -0.5072  0.0515 -0.2497
23480SOL    HW176276   0.806   8.855   6.832 -0.4655 -1.5789  1.9334
23480SOL    HW276277   0.678   8.793   6.783 -0.5825  1.7591 -2.5698
23481SOL     OW76278   6.218   8.558  10.466 -0.2677  0.2088  0.3376
23481SOL    HW176279   6.282   8.487  10.471 -1.7441 -1.7087 -3.9914
23481SOL    HW276280   6.146   8.531  10.523  0.1240 -0.6651  0.4262
23482SOL     OW76281   2.254   8.798   8.605  0.0196 -0.5707  0.2297
23482SOL    HW176282   2.326   8.861   8.605 -0.3159 -0.1430  1.7865
23482SOL    HW276283   2.185   8.840   8.555  0.2499 -0.2339  0.1909
23483SOL     OW76284   8.915   5.489   7.254  0.0680 -0.0735  0.5925
23483SOL    HW176285   8.988   5.484   7.315  0.3075 -0.5375  0.2759
23483SOL    HW276286   8.884   5.399   7.245  0.7707 -0.2109 -0.8223
23484SOL     OW76287   4.921  10.684   6.226 -0.0727 -0.1402  0.4142
23484SOL    HW176288   4.880  10.729   6.300  2.5316  0.2508  1.7740
23484SOL    HW276289   4.902  10.591   6.240 -1.3132  0.1071  0.4123
23485SOL     OW76290   8.751   6.280  10.593  0.1773 -0.3203  0.2109
23485SOL    HW176291   8.689   6.222  10.550  0.8146 -0.6034 -0.3460
23485SOL    HW276292   8.828   6.280  10.536 -0.0842  1.6937 -0.2391
23486SOL     OW76293   1.445   5.390  10.601 -0.0976  0.0560 -0.0915
23486SOL    HW176294   1.466   5.299  10.620 -0.9115 -0.4702 -1.5460
23486SOL    HW276295   1.515   5.440  10.644  1.3346 -1.3496 -0.6671
23487SOL     OW76296   9.140   6.240   9.593  0.5866  0.4954 -0.0958
23487SOL    HW176297   9.232   6.261   9.579  1.3137 -1.4412  1.2775
23487SOL    HW276298   9.124   6.164   9.537  0.4219 -0.3969  1.1162
23488SOL     OW76299   1.879   1.037  10.586  0.6191 -0.2660 -0.2150
23488SOL    HW176300   1.836   1.115  10.622  0.7813 -0.3244  0.1101
23488SOL    HW276301   1.807   0.975  10.572  0.3442  0.3241 -1.5072
23489SOL     OW76302   1.862   5.894   2.542 -0.4434  0.3719 -0.0535
23489SOL    HW176303   1.945   5.942   2.540 -0.6377  0.9456 -4.8886
23489SOL    HW276304   1.798   5.956   2.509 -1.7996 -1.5452 -1.1820
23490SOL     OW76305   7.684   9.192   9.648  0.4264 -0.3460 -0.3355
23490SOL    HW176306   7.608   9.133   9.647 -0.5635  0.8281  0.8438
23490SOL    HW276307   7.750   9.148   9.595 -1.8785 -0.2927 -3.5583
23491SOL     OW76308   0.158  10.098   3.732 -0.2609  0.1481 -0.1677
23491SOL    HW176309   0.242  10.082   3.776  0.3561  0.4137 -1.2334
23491SOL    HW276310   0.104  10.023   3.757  0.8966 -0.9871 -0.9362
23492SOL     OW76311   3.015   0.537   5.732 -0.7060  0.6960  0.7883
23492SOL    HW176312   2.934   0.564   5.775 -1.2131 -2.0020  1.7381
23492SOL    HW276313   2.987   0.491   5.653  0.0530  1.7086 -0.1142
23493SOL     OW76314   6.608   6.300   9.855  0.1862 -0.0098 -0.5620
23493SOL    HW176315   6.514   6.319   9.855  0.4537  1.3717 -0.0586
23493SOL    HW276316   6.613   6.207   9.833 -1.3879 -0.5313  1.0363
23494SOL     OW76317   1.129   7.012   2.377  0.4116  0.5898 -0.1541
23494SOL    HW176318   1.112   6.996   2.469  0.0972 -0.3572 -0.3699
23494SOL    HW276319   1.182   6.938   2.348  1.1060  1.2282 -0.5796
23495SOL     OW76320   2.391   3.883   2.928 -0.2329  0.5217  0.3820
23495SOL    HW176321   2.353   3.834   3.001  2.5643  0.4813  1.9404
23495SOL    HW276322   2.379   3.825   2.852 -0.8808 -0.5953  1.2992
23496SOL     OW76323   5.024   3.370   2.303 -0.4358  0.1173 -0.1757
23496SOL    HW176324   4.992   3.453   2.339  0.5212 -0.0368  1.1209
23496SOL    HW276325   5.083   3.396   2.233 -0.7831  0.5059 -0.3282
23497SOL     OW76326   4.588   7.512   7.949 -0.1306  0.0496  0.0004
23497SOL    HW176327   4.599   7.575   8.021 -2.1208  1.5341 -0.8919
23497SOL    HW276328   4.578   7.427   7.992 -1.6646  0.9462  1.5679
23498SOL     OW76329   3.703   3.903   3.024  0.2614  0.2839  0.0300
23498SOL    HW176330   3.665   3.990   3.033 -3.2040 -1.0392 -0.3059
23498SOL    HW276331   3.706   3.887   2.930  0.0708 -0.2669  0.1114
23499SOL     OW76332   7.682   2.652   9.127 -0.3497 -0.2639 -0.0223
23499SOL    HW176333   7.752   2.593   9.100 -0.5360 -0.8295  0.7249
23499SOL    HW276334   7.696   2.666   9.220 -1.2140 -0.3582  0.1285
23500SOL     OW76335   5.692   2.024   1.061  0.5162 -0.0384 -0.0545
23500SOL    HW176336   5.755   2.038   0.990 -0.7714  2.7905 -0.7997
23500SOL    HW276337   5.696   2.105   1.112  0.1206 -1.3080  2.1019
23501SOL     OW76338   4.567   8.464  10.772 -1.1653  0.3680  0.2251
23501SOL    HW176339   4.623   8.456  10.695 -0.3279  1.8623  0.6466
23501SOL    HW276340   4.540   8.374  10.791 -0.4932 -0.1578 -1.1392
23502SOL     OW76341   1.724   8.394   2.994  0.7959  0.0838 -0.3241
23502SOL    HW176342   1.651   8.456   2.987  0.0765 -0.6392  0.3504
23502SOL    HW276343   1.715   8.358   3.083  1.3322 -0.7969 -0.6148
23503SOL     OW76344   4.280   2.753   9.048  0.1994 -0.2610  0.1349
23503SOL    HW176345   4.301   2.685   8.984  2.5169  0.2289  0.3145
23503SOL    HW276346   4.262   2.831   8.995 -1.5054 -0.7068 -0.0200
23504SOL     OW76347  10.287   3.726   9.363  0.1368  0.4240 -0.5884
23504SOL    HW176348  10.331   3.656   9.314  0.2299 -0.2290  0.3921
23504SOL    HW276349  10.284   3.800   9.302  1.6440  0.1441 -1.0433
23505SOL     OW76350   4.939   4.023   2.196 -0.1598 -0.2664  0.1622
23505SOL    HW176351   4.935   4.039   2.102  0.4667  1.0346  0.3327
23505SOL    HW276352   4.848   4.024   2.224 -0.3090  0.0726 -0.3199
23506SOL     OW76353   6.140   5.542  10.566 -0.2743 -0.0384 -0.0061
23506SOL    HW176354   6.116   5.451  10.580 -1.2092  0.2830  0.5064
23506SOL    HW276355   6.073   5.577  10.507  0.0240  0.3477 -0.1281
23507SOL     OW76356  10.562   5.430   6.996 -0.6019 -0.8764  0.2059
23507SOL    HW176357  10.559   5.516   6.954  1.6189  0.1652  1.9874
23507SOL    HW276358  10.478   5.390   6.974 -1.4144  1.4475 -1.2680
23508SOL     OW76359   4.645   7.047   5.949  0.2898  0.1232 -0.2511
23508SOL    HW176360   4.740   7.041   5.953  0.4848  2.1143 -1.3121
23508SOL    HW276361   4.617   7.036   6.040  1.6407  0.9590  0.2920
23509SOL     OW76362   8.825   4.240   0.032  0.0211  0.0886 -0.4867
23509SOL    HW176363   8.845   4.171  -0.033  1.2305 -0.0846  0.0362
23509SOL    HW276364   8.768   4.197   0.095  0.2891 -0.2690 -0.4829
23510SOL     OW76365   2.886   5.831   7.607 -0.5765  0.1541 -0.0552
23510SOL    HW176366   2.960   5.851   7.550  0.0346 -1.3696  0.1548
23510SOL    HW276367   2.859   5.742   7.582 -0.9101 -0.1738  1.3454
23511SOL     OW76368   0.688   3.589   4.932  0.8737  0.0821 -0.4464
23511SOL    HW176369   0.595   3.606   4.924  0.3693 -1.6526  1.0545
23511SOL    HW276370   0.724   3.667   4.974  0.1891  0.9000 -1.3429
23512SOL     OW76371   9.514   6.276   4.256  0.1691 -0.2766  0.3556
23512SOL    HW176372   9.454   6.345   4.285 -0.9299 -1.7774  1.8542
23512SOL    HW276373   9.496   6.267   4.163 -0.7292  0.4761  0.4354
23513SOL     OW76374   2.350  10.749   5.512 -0.4974  0.4348 -0.3543
23513SOL    HW176375   2.378  10.715   5.427  1.3697  0.2139  0.3108
23513SOL    HW276376   2.257  10.729   5.516 -0.3020 -0.9057 -1.7163
23514SOL     OW76377   8.170   9.408   6.200 -0.0997 -0.0255  0.2149
23514SOL    HW176378   8.235   9.338   6.199 -0.0966 -0.0265  0.5541
23514SOL    HW276379   8.111   9.386   6.128  2.2637  1.8706 -2.5708
23515SOL     OW76380  10.295   4.662   7.302 -0.4458 -0.3142  0.2851
23515SOL    HW176381  10.297   4.575   7.261 -2.2143  0.6188 -2.0380
23515SOL    HW276382  10.231   4.653   7.373 -0.9684 -0.8131 -0.2371
23516SOL     OW76383   2.966   9.143  10.764  0.0098 -0.2047  0.3386
23516SOL    HW176384   2.989   9.082  10.834  2.4887 -1.0143 -1.0660
23516SOL    HW276385   2.967   9.229  10.806 -1.0656 -0.8686  1.8023
23517SOL     OW76386  10.814   0.752   0.715 -0.2354  0.5946 -0.1146
23517SOL    HW176387  10.836   0.771   0.806  0.5585 -0.9814  0.0648
23517SOL    HW276388  10.826   0.835   0.669  0.5334  1.1265  1.0086
23518SOL     OW76389   5.199   0.357   3.945  0.5405  0.6840  0.3352
23518SOL    HW176390   5.124   0.302   3.965  0.8623  0.2231  0.2989
23518SOL    HW276391   5.275   0.302   3.966  0.8838  1.8930  2.5403
23519SOL     OW76392   4.347  10.307   4.663 -0.5554  0.3593  0.2052
23519SOL    HW176393   4.426  10.326   4.613 -0.7885 -0.5919 -0.5539
23519SOL    HW276394   4.379  10.276   4.748 -0.1329  0.5131  0.1054
23520SOL     OW76395   5.052   9.655   6.261  0.0950  0.0996 -0.2253
23520SOL    HW176396   4.988   9.679   6.194 -0.7803  0.2101  0.6268
23520SOL    HW276397   5.110   9.593   6.217  1.0040  1.9467 -1.7856
23521SOL     OW76398   7.861  10.538   9.314  0.0136 -0.6646 -0.0311
23521SOL    HW176399   7.840  10.560   9.223 -2.1440 -0.7623  0.4052
23521SOL    HW276400   7.914  10.612   9.344  0.7659 -0.6289 -1.3417
23522SOL     OW76401   1.758   7.473  10.320 -0.0498 -0.4362  0.4114
23522SOL    HW176402   1.704   7.417  10.375  1.5045 -2.5931 -0.1242
23522SOL    HW276403   1.834   7.419  10.297  1.3875  1.7828 -0.4492
23523SOL     OW76404   3.903   8.752   8.135  0.2244  0.3835 -0.3718
23523SOL    HW176405   3.904   8.696   8.058 -1.2825 -0.3132  0.0760
23523SOL    HW276406   3.990   8.742   8.173  0.1913 -1.1601 -0.6512
23524SOL     OW76407   6.087   6.697   1.646 -0.5577  0.3110  0.3144
23524SOL    HW176408   5.995   6.693   1.623 -0.2606  2.8968 -1.8659
23524SOL    HW276409   6.133   6.675   1.564  0.7250  0.4668  0.9647
23525SOL     OW76410   6.517  10.447   4.113  0.3231 -0.1760  0.1349
23525SOL    HW176411   6.522  10.509   4.041  0.3358  0.2582  0.5091
23525SOL    HW276412   6.500  10.500   4.191  0.3917 -0.6291  0.4684
23526SOL     OW76413   7.875   0.138   1.328  0.0274  0.2667 -0.0362
23526SOL    HW176414   7.825   0.115   1.407  0.1175  0.9590  0.2288
23526SOL    HW276415   7.924   0.058   1.308  1.7749  0.7257  1.9623
23527SOL     OW76416   4.936   7.177   7.272 -0.0666  0.0981  0.7021
23527SOL    HW176417   4.923   7.271   7.285 -0.4514 -0.0417  1.3511
23527SOL    HW276418   5.016   7.172   7.219 -0.7289  0.8262 -0.4197
23528SOL     OW76419   6.542   5.851   1.410 -0.6197  0.0554 -0.2398
23528SOL    HW176420   6.627   5.848   1.454  0.4412 -0.1689 -2.1809
23528SOL    HW276421   6.531   5.943   1.385 -0.3979 -0.1195 -0.9891
23529SOL     OW76422  10.126   3.263   2.785  0.5545 -0.0711 -0.1665
23529SOL    HW176423  10.143   3.172   2.808  0.6487  0.1368  0.6182
23529SOL    HW276424  10.123   3.309   2.869 -0.3333  0.5095 -0.4914
23530SOL     OW76425   1.351   9.549   1.977 -0.4354 -0.0127  0.3579
23530SOL    HW176426   1.403   9.629   1.966 -0.3978 -0.1836 -0.9021
23530SOL    HW276427   1.273   9.578   2.024  0.4699  0.3726  1.6767
23531SOL     OW76428  10.328   5.630   2.615  0.3652  0.0513  0.7241
23531SOL    HW176429  10.326   5.550   2.564 -1.3666 -0.8134  2.0192
23531SOL    HW276430  10.237   5.660   2.616  1.1048  2.5707 -0.4862
23532SOL     OW76431   8.202  10.186   4.860  0.0770  0.1183  0.2537
23532SOL    HW176432   8.124  10.130   4.864 -0.0560  0.1416 -1.4524
23532SOL    HW276433   8.256  10.156   4.934 -0.5256 -1.4621  0.1018
23533SOL     OW76434   1.929   4.827   3.305  0.5136  0.1519  0.2241
23533SOL    HW176435   1.888   4.801   3.388 -1.7109  1.9035 -0.2324
23533SOL    HW276436   1.966   4.914   3.323  0.0129  0.5432 -0.6171
23534SOL     OW76437   3.665   0.463   6.219  0.0939  0.6617  0.7301
23534SOL    HW176438   3.593   0.525   6.229  0.8096  1.8144 -0.7321
23534SOL    HW276439   3.622   0.378   6.209 -0.9811  1.0900  1.5020
23535SOL     OW76440   8.094   6.207   2.430  0.3244 -0.6400  0.2279
23535SOL    HW176441   8.131   6.251   2.507 -0.3834 -1.0285  0.7985
23535SOL    HW276442   8.057   6.279   2.378 -0.5104 -0.5098  0.9821
23536SOL     OW76443   9.574   6.131   0.277 -0.5238 -0.1283 -0.3209
23536SOL    HW176444   9.514   6.175   0.337 -1.3276 -1.4552 -0.1163
23536SOL    HW276445   9.559   6.175   0.193 -0.6483  0.5899  0.0723
23537SOL     OW76446   6.792   1.916   7.412 -0.4214  0.2048 -0.3317
23537SOL    HW176447   6.810   2.009   7.429  1.2906 -0.3985  1.6036
23537SOL    HW276448   6.854   1.892   7.344 -0.4820  0.3357 -0.4356
23538SOL     OW76449   7.155   4.328   0.556  0.0999  0.0327  0.1590
23538SOL    HW176450   7.202   4.411   0.561  0.9166 -0.3342 -0.9165
23538SOL    HW276451   7.212   4.271   0.504  0.1082 -1.5905  1.8558
23539SOL     OW76452   5.161   8.617   6.088 -0.3959 -0.4347  0.1113
23539SOL    HW176453   5.169   8.523   6.070 -2.4143 -0.9383  1.5096
23539SOL    HW276454   5.078   8.625   6.136 -0.8476  2.2116 -0.9543
23540SOL     OW76455   9.407   0.806   7.166 -0.3122  0.2242  0.5046
23540SOL    HW176456   9.424   0.858   7.244  0.6293  0.0118  0.4501
23540SOL    HW276457   9.459   0.726   7.178 -1.9876 -0.8951  0.7520
23541SOL     OW76458   5.867   0.326   8.656 -0.3942 -0.0016  0.0858
23541SOL    HW176459   5.923   0.262   8.699 -0.2442 -0.5332 -0.8749
23541SOL    HW276460   5.819   0.276   8.590 -1.3736  0.6051  0.3090
23542SOL     OW76461   1.529   5.893   4.843 -0.6885 -0.2355 -0.0113
23542SOL    HW176462   1.580   5.823   4.802  3.2775  3.1027 -1.4474
23542SOL    HW276463   1.479   5.931   4.771  0.7325  1.1657 -0.3006
23543SOL     OW76464   3.957   3.690   1.214  0.2472 -0.1066  0.3608
23543SOL    HW176465   3.950   3.660   1.124  0.0238 -0.6098  0.5460
23543SOL    HW276466   4.037   3.650   1.247  1.7012  2.0349 -0.3550
23544SOL     OW76467   4.320   6.472  10.832 -0.2839 -0.5505  0.3364
23544SOL    HW176468   4.319   6.486  10.926 -0.9488 -1.6449  0.5125
23544SOL    HW276469   4.255   6.533  10.797 -2.4789 -2.3749  0.9790
23545SOL     OW76470   4.526   0.477   4.209 -0.0362  0.0186 -0.1956
23545SOL    HW176471   4.464   0.467   4.281 -0.5009  1.1550 -0.4272
23545SOL    HW276472   4.476   0.515   4.138  0.3716 -1.2731 -1.2253
23546SOL     OW76473   7.009   6.557   7.905 -0.8384  0.0190 -0.3433
23546SOL    HW176474   6.954   6.525   7.977 -0.2705  1.2361  0.6770
23546SOL    HW276475   6.985   6.649   7.896  2.1576  1.1168  1.3244
23547SOL     OW76476   5.229   7.346   6.712 -0.1348  0.0244  0.4966
23547SOL    HW176477   5.224   7.250   6.707 -0.0827  0.0390  0.1768
23547SOL    HW276478   5.156   7.377   6.660  1.3588  0.1913 -1.6252
23548SOL     OW76479   1.867  10.228   1.081 -0.2456 -0.8889  0.0161
23548SOL    HW176480   1.943  10.280   1.055 -0.7720 -0.0161  0.1775
23548SOL    HW276481   1.828  10.200   0.998 -0.6072 -0.0531 -0.1067
23549SOL     OW76482   1.232   3.088   3.383 -0.0237  0.0318  0.3390
23549SOL    HW176483   1.271   3.081   3.296 -0.8548  1.0982 -0.1493
23549SOL    HW276484   1.139   3.103   3.367 -0.3032 -0.4155  1.4287
23550SOL     OW76485  10.094   7.713   9.493  0.3314  0.6887 -0.1261
23550SOL    HW176486  10.037   7.747   9.425 -1.8149 -0.0416  1.2141
23550SOL    HW276487  10.136   7.636   9.453 -1.9291 -0.5392 -0.2847
23551SOL     OW76488   2.621   4.776   6.251 -0.4056  0.0811  0.2277
23551SOL    HW176489   2.568   4.823   6.316 -0.6583 -0.0936  0.1511
23551SOL    HW276490   2.603   4.684   6.269  0.4810 -0.0062  0.7110
23552SOL     OW76491   8.596   1.784  10.541  0.5233 -0.1679  0.2254
23552SOL    HW176492   8.511   1.743  10.559  0.8851 -0.6793  0.8066
23552SOL    HW276493   8.660   1.721  10.573  1.0761  1.6063  2.9381
23553SOL     OW76494   9.079   1.917   0.853  0.1177 -0.0421  0.2116
23553SOL    HW176495   9.162   1.947   0.816  0.6065 -0.8227  0.6465
23553SOL    HW276496   9.053   1.987   0.912 -0.2015  0.7974 -0.8803
23554SOL     OW76497   2.565   1.528   2.300 -0.3514 -0.1781 -0.3904
23554SOL    HW176498   2.504   1.602   2.305  3.3939  3.1893  1.9619
23554SOL    HW276499   2.620   1.547   2.224  0.3106 -0.8564 -0.0945
23555SOL     OW76500   7.673   6.012   2.669  0.0334 -0.3929 -0.0157
23555SOL    HW176501   7.700   5.921   2.673 -1.7390 -1.1425 -2.6945
23555SOL    HW276502   7.702   6.042   2.583  2.5411  2.3613  1.5953
23556SOL     OW76503   0.583   5.702   4.265 -0.0753 -0.1505 -0.3609
23556SOL    HW176504   0.500   5.663   4.239 -0.5124  1.3954 -1.3979
23556SOL    HW276505   0.570   5.796   4.253  1.5866  0.1701  0.1573
23557SOL     OW76506   1.843   4.632   7.412  0.5782 -0.6324  0.8495
23557SOL    HW176507   1.781   4.662   7.479  0.7659  0.4799  0.5368
23557SOL    HW276508   1.893   4.710   7.388  1.3640 -1.2835  0.3051
23558SOL     OW76509   1.896   4.283   8.936 -0.0155  0.1390  0.1917
23558SOL    HW176510   1.926   4.327   9.016 -0.7730  1.7666 -0.3656
23558SOL    HW276511   1.809   4.320   8.920 -0.3449 -0.9962 -0.7801
23559SOL     OW76512   0.157   8.244   8.183 -0.1720 -0.2417  0.2514
23559SOL    HW176513   0.116   8.260   8.098  0.3142  2.2734  0.4178
23559SOL    HW276514   0.247   8.276   8.173 -0.2143  0.4464  1.8093
23560SOL     OW76515   0.756   3.643   9.610 -0.0999 -0.3685 -0.2164
23560SOL    HW176516   0.691   3.600   9.555  1.4520  0.1398 -2.5928
23560SOL    HW276517   0.724   3.733   9.618 -0.7986 -0.6715  0.5355
23561SOL     OW76518   2.148   8.461  10.065 -0.0544 -0.1416 -0.0243
23561SOL    HW176519   2.108   8.479   9.980  1.5918 -2.0264 -1.2830
23561SOL    HW276520   2.082   8.412  10.114  0.2712 -2.3051 -1.6612
23562SOL     OW76521   4.655   2.431   2.348 -0.0961  0.3176  0.2893
23562SOL    HW176522   4.679   2.499   2.285 -0.7680 -1.2536 -1.8037
23562SOL    HW276523   4.701   2.353   2.317 -1.3127 -0.7727  1.0952
23563SOL     OW76524   9.434   9.906   2.978  0.0746  0.5965 -0.0490
23563SOL    HW176525   9.441   9.944   2.891 -2.0643  1.2343  0.0078
23563SOL    HW276526   9.442   9.981   3.037 -0.6493  0.4779  0.2064
23564SOL     OW76527   1.919   6.549   2.560  0.0039 -0.2394  0.0335
23564SOL    HW176528   1.971   6.629   2.550 -0.7933  0.5499  1.6442
23564SOL    HW276529   1.905   6.543   2.655 -0.4281 -2.0000 -0.1226
23565SOL     OW76530   0.173   6.692   9.588  0.5786 -0.0389  0.0949
23565SOL    HW176531   0.263   6.679   9.558  0.4065 -0.2277 -0.3600
23565SOL    HW276532   0.164   6.630   9.661  0.5890 -0.5712 -0.3452
23566SOL     OW76533   5.595   9.562   0.113  0.2133  0.5866 -0.3237
23566SOL    HW176534   5.619   9.635   0.056 -0.9772 -0.2077 -1.9545
23566SOL    HW276535   5.573   9.490   0.052  1.0080 -1.0274  1.2023
23567SOL     OW76536   3.936   8.911  10.629 -0.1882  0.3926  0.1397
23567SOL    HW176537   3.938   9.000  10.663 -0.5192  0.1032  0.9384
23567SOL    HW276538   3.999   8.863  10.682  0.1607  0.1947 -0.4413
23568SOL     OW76539   2.946   0.717   8.803  0.6964 -0.1224  0.4674
23568SOL    HW176540   3.014   0.654   8.782  1.3189  0.7619 -0.2666
23568SOL    HW276541   2.936   0.712   8.898  0.8221 -1.2216  0.4245
23569SOL     OW76542   3.146   4.016   4.018  0.2895  0.5816 -0.2456
23569SOL    HW176543   3.176   3.926   4.003  1.4645  0.4662  2.2222
23569SOL    HW276544   3.210   4.071   3.973  0.5887  0.2017 -0.2898
23570SOL     OW76545   4.611   0.182   3.451 -0.2397  0.3674  0.7098
23570SOL    HW176546   4.663   0.209   3.527  3.1884 -3.3585  0.0511
23570SOL    HW276547   4.623   0.253   3.388  2.4313  0.6432  1.3798
23571SOL     OW76548   4.047   5.989   6.190  0.0511 -0.3487  0.4447
23571SOL    HW176549   4.053   5.897   6.215 -0.7167 -0.2979  0.8630
23571SOL    HW276550   4.137   6.021   6.192  0.2353 -0.8873  1.0789
23572SOL     OW76551   3.153   5.702   6.236  0.5075 -0.3004  0.0928
23572SOL    HW176552   3.150   5.796   6.257 -1.1265 -0.1437 -0.6893
23572SOL    HW276553   3.199   5.699   6.152  0.2394 -0.1535 -0.0612
23573SOL     OW76554   5.354   2.490   0.917  0.0499  0.4658  0.1005
23573SOL    HW176555   5.371   2.455   0.830 -1.5946 -1.0809  0.3240
23573SOL    HW276556   5.390   2.425   0.977  1.1974  1.5300  0.6043
23574SOL     OW76557   8.875   1.686   9.448  0.3559  0.2875  0.4271
23574SOL    HW176558   8.847   1.662   9.536 -0.9447 -1.2096 -0.3375
23574SOL    HW276559   8.942   1.622   9.425 -1.2569 -1.1414 -0.6310
23575SOL     OW76560   8.837   6.180  10.066 -0.1812  0.2844 -0.2557
23575SOL    HW176561   8.897   6.220  10.003  0.5779  0.8581  0.7948
23575SOL    HW276562   8.764   6.242  10.071 -0.5501 -0.0707 -1.0132
23576SOL     OW76563   3.661   9.969   2.686 -0.5195  0.3171 -0.2294
23576SOL    HW176564   3.707  10.041   2.729 -1.2970  1.9223 -1.9518
23576SOL    HW276565   3.730   9.911   2.656  0.2345  1.2407 -0.3368
23577SOL     OW76566   1.168   8.430   1.481 -0.2256 -0.6939 -0.2918
23577SOL    HW176567   1.093   8.396   1.431 -0.9204  0.8967 -0.3909
23577SOL    HW276568   1.237   8.439   1.416 -0.6823  0.0091 -0.6988
23578SOL     OW76569   0.824   0.544   8.728 -0.0040  0.1868 -0.4147
23578SOL    HW176570   0.740   0.499   8.714  0.3007 -0.1927 -1.1215
23578SOL    HW276571   0.830   0.557   8.822 -0.8830  0.2647 -0.3648
23579SOL     OW76572   0.841  10.666   5.494  0.1492  0.1125  0.2725
23579SOL    HW176573   0.925  10.680   5.539 -0.3526 -0.8756  1.5921
23579SOL    HW276574   0.834  10.571   5.485  0.1069  0.2735 -1.7348
23580SOL     OW76575   1.708   3.338  10.607 -0.4436 -0.6006 -0.0198
23580SOL    HW176576   1.634   3.293  10.648 -1.1473  0.3922 -0.1649
23580SOL    HW276577   1.745   3.391  10.678 -0.6833 -0.0969 -0.2687
23581SOL     OW76578   2.983  10.299   1.873 -0.0891  0.1271  0.1080
23581SOL    HW176579   3.027  10.251   1.804  0.0029 -0.9955  0.9221
23581SOL    HW276580   3.044  10.298   1.947 -0.3390  0.9769  0.3455
23582SOL     OW76581   0.255   8.039   9.674  0.5476  0.1290 -0.2515
23582SOL    HW176582   0.328   8.085   9.714 -0.3584  3.4845 -2.0971
23582SOL    HW276583   0.295   7.971   9.620  2.1065  0.2707  0.6783
23583SOL     OW76584   3.270   6.318   8.597  0.1810 -0.0975  0.0936
23583SOL    HW176585   3.181   6.283   8.601 -0.0460  0.5151  0.3616
23583SOL    HW276586   3.321   6.258   8.653  0.0714 -0.8135 -0.5503
23584SOL     OW76587   5.726   9.804   6.152 -0.3619 -0.0093 -0.3026
23584SOL    HW176588   5.817   9.778   6.141 -0.0988  1.0678 -0.7902
23584SOL    HW276589   5.727   9.865   6.225 -0.9731 -1.3171  0.8382
23585SOL     OW76590   8.448   4.763   6.679 -0.3121  0.3215 -0.1125
23585SOL    HW176591   8.430   4.680   6.635  2.6358 -1.1727  1.1781
23585SOL    HW276592   8.383   4.768   6.749 -1.0331 -0.4895 -0.7117
23586SOL     OW76593  10.812   1.823  10.136  0.4772 -0.4056  0.0029
23586SOL    HW176594  10.858   1.742  10.158  1.9615  0.1672 -0.8786
23586SOL    HW276595  10.872   1.871  10.080  0.3071  2.0100  1.7026
23587SOL     OW76596   0.936   6.675   7.629  0.4962  0.1784  0.2657
23587SOL    HW176597   1.002   6.611   7.655  0.2071  0.0562  0.7196
23587SOL    HW276598   0.898   6.641   7.548  1.2824  0.4678 -0.2343
23588SOL     OW76599   3.551   9.698   4.055 -0.8105 -0.0779  0.1858
23588SOL    HW176600   3.645   9.681   4.065 -1.2328 -1.7851  1.7818
23588SOL    HW276601   3.538   9.705   3.960  0.4977 -2.7281 -0.2842
23589SOL     OW76602   9.696   6.543   8.525  0.0178  0.0841 -0.5512
23589SOL    HW176603   9.614   6.500   8.500 -0.5840  0.8281  0.0885
23589SOL    HW276604   9.681   6.636   8.505  0.1427  0.4470  0.9694
23590SOL     OW76605   6.732  10.432   6.310  0.1323  0.0796  0.6104
23590SOL    HW176606   6.700  10.502   6.253 -1.5282  0.4254  1.8874
23590SOL    HW276607   6.824  10.452   6.323  0.7066 -0.2384 -2.2289
23591SOL     OW76608   7.839   7.817   6.465  0.2623 -0.2591  0.0808
23591SOL    HW176609   7.925   7.807   6.506  1.3978  2.2039 -1.4387
23591SOL    HW276610   7.790   7.740   6.492  2.7719 -1.4990  1.4275
23592SOL     OW76611   8.355   3.524   9.889 -0.6750  0.4161  0.2193
23592SOL    HW176612   8.282   3.474   9.852  1.6046 -1.9352 -1.4050
23592SOL    HW276613   8.374   3.591   9.824 -0.0706 -0.3304 -0.3899
23593SOL     OW76614   4.938   9.448   0.593 -0.2409  0.3220 -0.1276
23593SOL    HW176615   4.916   9.355   0.595 -0.4797  0.3569 -0.7541
23593SOL    HW276616   4.950   9.468   0.500 -0.0416  0.8832  0.0104
23594SOL     OW76617   6.216   7.164   5.011  0.5348 -0.0313 -0.3309
23594SOL    HW176618   6.130   7.142   4.975  0.7266 -0.5918 -0.4532
23594SOL    HW276619   6.276   7.157   4.937  0.4022  2.4496 -0.7741
23595SOL     OW76620   5.767   8.965   7.228  0.5873  0.3173 -0.4663
23595SOL    HW176621   5.846   8.963   7.282  0.6107  0.1498 -0.5076
23595SOL    HW276622   5.722   9.046   7.254  0.1695 -0.1852  0.4071
23596SOL     OW76623   5.167   4.632   9.017  0.2317  0.3788  0.1377
23596SOL    HW176624   5.262   4.634   9.033  0.0993  0.8728  0.9176
23596SOL    HW276625   5.131   4.594   9.097 -0.1462 -0.9396 -0.6359
23597SOL     OW76626   4.548   3.711   9.085 -0.6447 -0.3836 -0.4274
23597SOL    HW176627   4.467   3.762   9.077 -0.3515 -0.0678 -1.5070
23597SOL    HW276628   4.519   3.621   9.093 -1.1029 -0.5158 -2.8941
23598SOL     OW76629   7.146   0.885   9.660  0.0484  0.4594  0.1049
23598SOL    HW176630   7.175   0.802   9.699 -0.3138  0.7531  1.0058
23598SOL    HW276631   7.129   0.862   9.568  2.2740  0.0870 -0.2770
23599SOL     OW76632   7.683   2.800   0.378 -0.5881  0.3289  0.1362
23599SOL    HW176633   7.759   2.818   0.323  1.6039  0.5529  3.0179
23599SOL    HW276634   7.608   2.822   0.323  1.4609  2.2454 -2.1150
23600SOL     OW76635   1.695   2.012   1.540 -0.4629  0.3411 -0.1865
23600SOL    HW176636   1.636   1.940   1.561 -0.5090  0.7159  1.0501
23600SOL    HW276637   1.637   2.082   1.508 -0.5534  0.2901 -0.1323
23601SOL     OW76638   6.181  10.155   1.017  0.2850  0.4592 -0.2634
23601SOL    HW176639   6.088  10.140   1.029  0.4609 -1.2392 -0.8229
23601SOL    HW276640   6.186  10.242   0.976 -1.2104 -0.3440 -2.3356
23602SOL     OW76641   7.723   7.717   0.729 -0.1592 -0.2817 -0.2636
23602SOL    HW176642   7.760   7.803   0.748 -2.0314  0.3756  0.6841
23602SOL    HW276643   7.749   7.698   0.639 -0.5997  1.7940 -0.8684
23603SOL     OW76644   6.247   5.237   4.164  0.0576 -0.2178  0.2830
23603SOL    HW176645   6.227   5.184   4.087  0.2767  0.8111 -0.4999
23603SOL    HW276646   6.343   5.238   4.168  0.1097 -2.6462  2.2774
23604SOL     OW76647   1.342   1.739   4.889  0.0689 -0.0700 -0.5395
23604SOL    HW176648   1.424   1.789   4.887  0.5073 -0.7398  0.3982
23604SOL    HW276649   1.276   1.801   4.857  0.7634  0.8131 -0.3036
23605SOL     OW76650   9.714   9.880   6.923  0.2144  0.0521 -0.2371
23605SOL    HW176651   9.703   9.965   6.968 -0.3040  0.4265 -1.0483
23605SOL    HW276652   9.733   9.904   6.832 -1.7402 -0.6846 -0.8908
23606SOL     OW76653   0.423   6.826   3.813  0.0918 -0.0643 -0.2502
23606SOL    HW176654   0.429   6.764   3.886  0.9868  0.4188  0.0967
23606SOL    HW276655   0.389   6.773   3.740 -2.1357 -0.2344  0.8559
23607SOL     OW76656   7.877  10.706   4.824  0.5833 -0.7714  0.1557
23607SOL    HW176657   7.811  10.717   4.892 -0.1123  0.9916 -0.7308
23607SOL    HW276658   7.958  10.739   4.863  0.2761 -0.1412  0.2758
23608SOL     OW76659   1.103   5.117   2.711 -0.2334 -0.5885  0.5256
23608SOL    HW176660   1.117   5.154   2.798 -1.0433 -2.3158  1.4383
23608SOL    HW276661   1.022   5.068   2.718 -1.6519  1.1675 -1.9149
23609SOL     OW76662   2.763   9.557   2.827  0.1070  0.0197  0.5948
23609SOL    HW176663   2.703   9.484   2.847 -0.7792  0.7693  0.7253
23609SOL    HW276664   2.710   9.619   2.778  1.3901 -0.2982 -1.3090
23610SOL     OW76665   7.930   7.133   1.243  0.5256 -0.1648 -0.1663
23610SOL    HW176666   7.918   7.206   1.304  0.5125  0.5934 -1.0523
23610SOL    HW276667   7.847   7.085   1.246  0.5902 -0.2444  0.5378
23611SOL     OW76668   5.392   3.378   0.164  0.1580 -0.1679  0.0475
23611SOL    HW176669   5.477   3.370   0.121 -0.6397 -1.3041 -1.4031
23611SOL    HW276670   5.359   3.463   0.138 -0.0559 -0.6012 -1.1235
23612SOL     OW76671   0.168   1.006   2.121  0.6224 -0.1557  0.0486
23612SOL    HW176672   0.177   1.079   2.060  1.6752  0.7173  1.2171
23612SOL    HW276673   0.076   0.979   2.112  0.0198  1.7492  0.0887
23613SOL     OW76674   0.081   6.665   9.072  0.4219  0.8669  0.6317
23613SOL    HW176675   0.072   6.706   8.986  2.4958 -1.0359 -0.6036
23613SOL    HW276676   0.101   6.737   9.132 -2.5487  2.4467 -0.0747
23614SOL     OW76677   5.030   8.770   5.201  0.0930 -0.1993  0.1451
23614SOL    HW176678   4.982   8.703   5.251 -1.0414  1.2107  1.0396
23614SOL    HW276679   5.075   8.821   5.268  1.0337 -0.1256 -0.5372
23615SOL     OW76680   5.094   7.994   2.072  0.2959 -0.3990  0.1278
23615SOL    HW176681   5.082   7.908   2.032  0.0345 -0.6237  0.6703
23615SOL    HW276682   5.188   7.999   2.089  0.3000 -0.6221  0.1814
23616SOL     OW76683   5.128   2.873   7.378  0.0136  0.6392 -0.3439
23616SOL    HW176684   5.118   2.893   7.285 -2.5314 -0.8133 -0.4870
23616SOL    HW276685   5.113   2.957   7.422  2.3204  1.5761 -1.2007
23617SOL     OW76686   8.508   3.209   1.181  0.4162  0.1639  0.0717
23617SOL    HW176687   8.492   3.303   1.190 -1.2639 -0.1470  0.5774
23617SOL    HW276688   8.578   3.191   1.244  0.3100  0.9573  0.4294
23618SOL     OW76689  10.563   1.247  10.453  0.8860 -0.0538  0.4050
23618SOL    HW176690  10.652   1.229  10.421  0.3735 -0.7640 -0.6822
23618SOL    HW276691  10.523   1.160  10.463 -1.0889  0.2302 -3.3008
23619SOL     OW76692   2.891  10.293   6.663  0.0975 -0.0681 -0.2912
23619SOL    HW176693   2.858  10.230   6.727 -1.1163 -0.8621 -1.6345
23619SOL    HW276694   2.812  10.326   6.618  0.4038  3.9745  1.6270
23620SOL     OW76695   5.608   9.507   7.126  0.4654 -0.3380  0.0414
23620SOL    HW176696   5.569   9.547   7.048  2.9299 -0.5150 -1.3801
23620SOL    HW276697   5.696   9.482   7.098  1.8442  0.5500  3.1732
23621SOL     OW76698   0.295   0.299   3.710 -0.2497  0.5164 -0.1270
23621SOL    HW176699   0.334   0.340   3.788  0.1884 -0.4386  0.1712
23621SOL    HW276700   0.210   0.341   3.701 -0.6949  0.0259  1.4145
23622SOL     OW76701   6.212   7.144   9.869 -0.4095  0.1249 -0.6342
23622SOL    HW176702   6.202   7.150   9.964  1.1707 -0.7164 -0.3673
23622SOL    HW276703   6.167   7.063   9.845  2.5555 -1.9241  0.0810
23623SOL     OW76704   7.973  10.757   3.192 -0.0080 -0.6406 -0.2769
23623SOL    HW176705   7.997  10.666   3.208 -0.5798 -0.6885  0.3422
23623SOL    HW276706   8.047  10.808   3.227  0.5285 -0.8656 -1.0439
23624SOL     OW76707  10.125   1.437   1.156 -0.1558 -0.6319  0.2436
23624SOL    HW176708  10.119   1.405   1.066 -1.6959 -1.8421  0.7144
23624SOL    HW276709  10.106   1.360   1.210  1.6567 -0.1602  1.6602
23625SOL     OW76710   0.819   6.280  10.856  0.4543  0.6424  0.0564
23625SOL    HW176711   0.772   6.361  10.835 -1.2139 -0.3752 -0.3592
23625SOL    HW276712   0.815   6.228  10.776  1.0498 -0.0571  0.4668
23626SOL     OW76713   4.017   7.705   6.289 -0.4637  0.5085 -0.2970
23626SOL    HW176714   4.010   7.675   6.380 -1.6462 -0.7592 -0.7793
23626SOL    HW276715   3.932   7.745   6.270 -0.3055  0.5703 -0.9056
23627SOL     OW76716   9.287   0.845   8.180  0.1075 -0.0870 -0.1159
23627SOL    HW176717   9.205   0.801   8.158  0.3825 -0.2695 -0.8277
23627SOL    HW276718   9.319   0.879   8.096 -0.1565  1.5932  0.4203
23628SOL     OW76719   4.024   7.217   7.468 -0.0424  0.0114 -0.2695
23628SOL    HW176720   3.955   7.176   7.416 -0.3137 -0.6241  0.5653
23628SOL    HW276721   4.105   7.181   7.434 -0.1144  0.6746 -1.1815
23629SOL     OW76722   7.547   1.112   7.035  0.1699  0.2480 -0.0754
23629SOL    HW176723   7.642   1.115   7.045  0.0868  1.6901  0.5109
23629SOL    HW276724   7.516   1.070   7.115  0.2990 -0.1814 -0.2464
23630SOL     OW76725   9.709   3.909   6.189  0.0385 -0.1716  0.1637
23630SOL    HW176726   9.733   3.963   6.265 -0.2113  1.0288 -0.5754
23630SOL    HW276727   9.743   3.822   6.210  2.4680  0.7630  0.4325
23631SOL     OW76728   4.034   3.110   2.888  0.0858  0.2273  0.3867
23631SOL    HW176729   4.009   3.067   2.806  1.7211 -0.2423  0.0827
23631SOL    HW276730   3.960   3.096   2.947 -0.9383  0.1977 -0.8620
23632SOL     OW76731   7.808   6.332   1.205 -0.8388 -0.1294 -0.3838
23632SOL    HW176732   7.720   6.347   1.172 -0.3052  0.9078 -1.4019
23632SOL    HW276733   7.866   6.358   1.133  0.3177  0.1740  0.6148
23633SOL     OW76734   7.732   8.234   5.530  0.1576 -0.0239 -0.0664
23633SOL    HW176735   7.683   8.314   5.550  0.5788 -0.3559  2.7173
23633SOL    HW276736   7.824   8.257   5.545  0.2509 -1.0800  1.1771
23634SOL     OW76737   9.619   2.719   9.065  0.0491 -0.6515  0.6333
23634SOL    HW176738   9.527   2.692   9.071 -0.4089  0.5726 -0.3810
23634SOL    HW276739   9.615   2.815   9.060  1.2505 -0.6430 -1.1359
23635SOL     OW76740   5.378   8.103   8.424 -0.0471 -0.7668  0.0461
23635SOL    HW176741   5.399   8.193   8.400 -2.0571 -0.6684 -1.5289
23635SOL    HW276742   5.419   8.092   8.510  1.7367  1.0450 -0.4748
23636SOL     OW76743   1.045   4.501   4.764 -0.5957 -0.6051 -0.1140
23636SOL    HW176744   1.019   4.439   4.832 -0.6859  1.0748  1.4660
23636SOL    HW276745   0.993   4.580   4.782  0.6341  0.4737 -1.0709
23637SOL     OW76746   4.983   6.064   4.654 -0.2529  0.4406  0.2545
23637SOL    HW176747   4.985   6.077   4.749 -0.3615 -0.1606  0.3472
23637SOL    HW276748   5.033   6.137   4.618 -0.6491  0.9622  0.7435
23638SOL     OW76749   3.409   8.671   3.510 -0.2438  0.0499  0.3349
23638SOL    HW176750   3.470   8.641   3.443 -3.1305 -2.8601 -1.2564
23638SOL    HW276751   3.342   8.719   3.463 -1.3918 -0.4827  1.3581
23639SOL     OW76752   4.651   2.943   4.659  0.8452 -0.4873 -0.1686
23639SOL    HW176753   4.587   2.882   4.621  0.4674 -0.4754  0.4361
23639SOL    HW276754   4.633   2.941   4.753 -0.8315  2.3847 -0.2895
23640SOL     OW76755   7.027   3.051   7.442 -0.1417  0.3901  0.5558
23640SOL    HW176756   7.017   3.105   7.363  1.8693  0.4659  0.2948
23640SOL    HW276757   7.039   2.963   7.408 -1.7503  0.0070  0.9166
23641SOL     OW76758   6.281   1.035   3.849  0.4345 -0.0547 -0.6370
23641SOL    HW176759   6.205   0.990   3.814  1.4117 -0.2060 -2.7261
23641SOL    HW276760   6.336   0.965   3.885  0.1327 -0.0741 -0.2103
23642SOL     OW76761   1.866   6.102   4.700 -0.1733 -0.2020 -0.3993
23642SOL    HW176762   1.848   6.038   4.769 -1.5668 -2.3817 -2.5996
23642SOL    HW276763   1.793   6.093   4.639  2.2652 -0.4574 -3.5680
23643SOL     OW76764   2.117   3.967   3.874  0.2747 -0.5832  0.2381
23643SOL    HW176765   2.082   3.915   3.801  0.2765 -0.5013  0.1786
23643SOL    HW276766   2.040   4.012   3.911 -0.2879 -2.9773  2.2507
23644SOL     OW76767   9.071   6.925   0.347 -0.3704  0.3553  0.3572
23644SOL    HW176768   9.163   6.939   0.325  0.7026 -2.0194  2.7357
23644SOL    HW276769   9.028   6.914   0.262  1.5789  1.1833 -0.8211
23645SOL     OW76770   9.368   9.198   9.013  0.1192  0.0654  0.3175
23645SOL    HW176771   9.457   9.164   9.007 -1.1304 -3.4876 -0.9578
23645SOL    HW276772   9.344   9.182   9.105  0.3202 -0.3714  0.2989
23646SOL     OW76773  10.632   3.774   4.024  0.3502 -0.5297  0.1074
23646SOL    HW176774  10.638   3.852   4.079 -1.6955 -1.6464  2.0802
23646SOL    HW276775  10.544   3.739   4.041  1.2115 -3.3144 -0.6253
23647SOL     OW76776   5.248   3.997   0.112 -0.1084 -0.1532  0.3472
23647SOL    HW176777   5.159   4.033   0.108  0.7803  2.0991 -1.0942
23647SOL    HW276778   5.296   4.059   0.167  0.5344 -1.5646  1.4479
23648SOL     OW76779   1.848   7.980   3.941  0.2664 -0.1406 -0.5984
23648SOL    HW176780   1.785   8.052   3.935 -0.6210 -0.7904  0.5318
23648SOL    HW276781   1.804   7.914   3.994  1.2985 -1.2777 -1.0991
23649SOL     OW76782   6.764   4.504   5.954 -0.3613  0.3537 -0.5591
23649SOL    HW176783   6.699   4.493   6.024 -0.8691 -1.7496 -1.2753
23649SOL    HW276784   6.716   4.484   5.874  0.7163  0.6945 -1.3144
23650SOL     OW76785   8.991   7.100   1.664 -0.0859  0.2222  0.1430
23650SOL    HW176786   8.990   7.022   1.720 -0.3864  0.2751  0.2179
23650SOL    HW276787   8.957   7.069   1.580  3.9675 -0.7733 -1.3184
23651SOL     OW76788   9.164   3.634   0.247  0.0542  0.1083  0.6828
23651SOL    HW176789   9.134   3.700   0.309  1.3591  0.7456  0.6645
23651SOL    HW276790   9.203   3.565   0.302 -2.8138 -1.5529  0.8291
23652SOL     OW76791   7.447   7.741   4.241  0.7128 -0.7654  0.2845
23652SOL    HW176792   7.376   7.677   4.245  0.5590 -0.6439 -0.3796
23652SOL    HW276793   7.418   7.806   4.176 -0.2250  1.3312  2.6367
23653SOL     OW76794   5.063   1.739   7.290  0.4427  0.0646  0.0246
23653SOL    HW176795   5.079   1.759   7.197  0.9338  3.5087  0.6904
23653SOL    HW276796   5.149   1.716   7.325  0.4748 -0.0670 -0.1378
23654SOL     OW76797   1.156   8.209   9.252 -0.1996  0.0984  0.2771
23654SOL    HW176798   1.134   8.300   9.229 -1.1482 -0.0169  0.6755
23654SOL    HW276799   1.171   8.166   9.168 -3.3175 -0.2376 -0.2096
23655SOL     OW76800  10.185   7.657   4.909  0.0476 -0.1109  0.1830
23655SOL    HW176801  10.133   7.578   4.898  0.1195 -0.0948 -0.2886
23655SOL    HW276802  10.240   7.661   4.831  0.3882  0.1469  0.4337
23656SOL     OW76803   1.178  10.787   0.645 -0.0692 -0.5963 -0.0287
23656SOL    HW176804   1.127  10.867   0.634 -1.0641 -0.6315  3.1888
23656SOL    HW276805   1.268  10.812   0.624 -0.5352  1.0881 -0.1032
23657SOL     OW76806   2.285  10.031  10.828  0.1871  0.1809  0.2973
23657SOL    HW176807   2.222  10.031  10.756  0.0606  0.2201  0.4065
23657SOL    HW276808   2.249  10.094  10.891  0.7987  0.8778 -0.0384
23658SOL     OW76809  10.787   2.294  10.727 -0.4549 -0.1633 -0.1309
23658SOL    HW176810  10.828   2.269  10.644  1.1709  2.0127 -0.0729
23658SOL    HW276811  10.773   2.388  10.720 -1.0090 -0.0559  1.7661
23659SOL     OW76812   0.527   9.144   6.238  0.4523  0.2894  0.4687
23659SOL    HW176813   0.598   9.166   6.177 -0.2780  0.0351 -0.4981
23659SOL    HW276814   0.529   9.049   6.244 -0.7607  0.1591 -0.7766
23660SOL     OW76815   9.783   5.311  10.406 -0.2265 -0.5650  0.1051
23660SOL    HW176816   9.815   5.247  10.343  2.8958  0.1896  0.7496
23660SOL    HW276817   9.769   5.261  10.486 -2.2556 -1.1562 -0.5510
23661SOL     OW76818   0.130   1.265   6.229  0.3905  0.2889  1.0305
23661SOL    HW176819   0.071   1.339   6.221 -0.0115 -0.0681  0.5624
23661SOL    HW276820   0.150   1.259   6.322 -0.1643  0.5340  1.1700
23662SOL     OW76821   8.999   2.164   2.411 -0.0886  0.0241  0.3110
23662SOL    HW176822   8.948   2.170   2.330 -0.7433  0.9125  0.7791
23662SOL    HW276823   8.953   2.221   2.473  0.5117 -0.4991  1.2583
23663SOL     OW76824   3.711   0.870  10.722  0.2121  0.0663  0.8156
23663SOL    HW176825   3.804   0.844  10.721  0.9530  2.3400 -1.0304
23663SOL    HW276826   3.681   0.852  10.633 -0.3548  1.6669  0.6513
23664SOL     OW76827   8.337  10.778   8.027 -0.6635 -0.2689 -0.0150
23664SOL    HW176828   8.289  10.745   7.951 -1.8147  1.6598 -0.1929
23664SOL    HW276829   8.324  10.711   8.094 -0.3342 -1.6049 -1.2225
23665SOL     OW76830   2.648   4.843   2.495  0.1344  0.4035  0.0743
23665SOL    HW176831   2.733   4.884   2.476  0.0600  1.8050  2.3491
23665SOL    HW276832   2.587   4.917   2.498 -0.5960 -0.2324  1.2574
23666SOL     OW76833   8.143   3.551   2.565  0.0848 -0.0467 -0.2474
23666SOL    HW176834   8.114   3.642   2.560  0.9087  0.3255  1.1568
23666SOL    HW276835   8.234   3.552   2.533  0.0684 -0.3956 -0.3180
23667SOL     OW76836   2.147  10.044   0.853 -0.5414 -0.5498 -0.1669
23667SOL    HW176837   2.086   9.983   0.893 -0.0289 -1.1053 -0.2134
23667SOL    HW276838   2.159  10.113   0.919 -0.9645 -0.6015 -0.0340
23668SOL     OW76839   0.099   9.147   5.188 -0.3017  0.3696 -0.1778
23668SOL    HW176840   0.145   9.134   5.271 -1.1324  0.4062  0.2927
23668SOL    HW276841   0.063   9.061   5.167  0.1955  0.2750 -0.6914
23669SOL     OW76842   7.757   8.011   7.245  0.5797 -0.1398  0.6263
23669SOL    HW176843   7.758   7.971   7.158  1.5495  0.1524  0.4895
23669SOL    HW276844   7.740   7.938   7.305  2.5280 -0.8325  0.4020
23670SOL     OW76845   6.388   9.592   5.067 -0.2208  0.5135 -0.2506
23670SOL    HW176846   6.320   9.535   5.032  1.9732 -2.1506 -0.5450
23670SOL    HW276847   6.371   9.595   5.161  0.3848 -1.9573  0.0152
23671SOL     OW76848   3.091   4.767   8.717 -0.2501  0.3684 -0.4031
23671SOL    HW176849   3.119   4.692   8.665  0.3945 -0.4782  1.1000
23671SOL    HW276850   3.141   4.760   8.798 -1.0053  1.8018  0.2243
23672SOL     OW76851   2.229   0.115   3.354  0.3072 -0.3209 -0.1864
23672SOL    HW176852   2.144   0.073   3.372  1.0088 -1.4425  0.6813
23672SOL    HW276853   2.232   0.189   3.416 -0.5392  0.4867 -1.0746
23673SOL     OW76854   9.586   2.751   1.575 -0.1407 -0.0551  0.3642
23673SOL    HW176855   9.626   2.687   1.634 -1.6280 -0.7422  0.6788
23673SOL    HW276856   9.509   2.782   1.623  0.9498  2.5944  0.5558
23674SOL     OW76857   3.541   5.142   3.376  0.0426  0.0110 -0.0424
23674SOL    HW176858   3.491   5.202   3.432 -0.3570  0.6776 -1.0786
23674SOL    HW276859   3.592   5.090   3.437 -1.8778 -0.6712  1.0681
23675SOL     OW76860   0.090   6.559   8.395 -0.1525  0.1447  0.1352
23675SOL    HW176861   0.065   6.648   8.372  0.4229  0.7215  1.6740
23675SOL    HW276862   0.183   6.554   8.372 -0.5028 -0.5518 -1.2905
23676SOL     OW76863   5.353  10.718   0.850  0.6938  0.7266 -0.5442
23676SOL    HW176864   5.319  10.656   0.785 -1.5647 -0.9649  2.0344
23676SOL    HW276865   5.401  10.783   0.798  0.2160 -1.2315 -3.7225
23677SOL     OW76866   7.695   1.647   9.646  0.5679  0.2436  0.1116
23677SOL    HW176867   7.733   1.668   9.731 -1.2491  1.2043  0.7420
23677SOL    HW276868   7.625   1.585   9.666 -1.0468  1.8106 -0.4015
23678SOL     OW76869   2.916   7.910   2.093 -0.3807 -0.4286  0.3078
23678SOL    HW176870   2.865   7.989   2.073  0.5118  0.1681  0.3122
23678SOL    HW276871   3.001   7.943   2.122 -1.1774 -1.2271  4.1872
23679SOL     OW76872   8.945   0.090   5.795  0.3818 -0.1810  0.1224
23679SOL    HW176873   8.855   0.084   5.764 -0.4074 -0.9426  2.3085
23679SOL    HW276874   8.995   0.033   5.737 -0.7803 -0.6971 -0.4085
23680SOL     OW76875   5.720   9.529   4.068  0.4051 -0.5467  0.0684
23680SOL    HW176876   5.675   9.613   4.071  1.9555  0.4071 -1.3990
23680SOL    HW276877   5.812   9.551   4.076  0.7747 -2.2310  0.7854
23681SOL     OW76878   6.628   1.156   1.901  0.0859  0.0006  0.1824
23681SOL    HW176879   6.534   1.150   1.916  0.1662 -0.4679  0.5160
23681SOL    HW276880   6.647   1.250   1.907  0.1417 -0.0940  3.4290
23682SOL     OW76881   8.021   7.132   7.591  0.2582 -0.0691 -0.4529
23682SOL    HW176882   8.065   7.152   7.508  0.2674  0.7895 -0.2559
23682SOL    HW276883   8.071   7.060   7.628 -1.0792 -2.0224 -2.2254
23683SOL     OW76884   5.763   4.591   5.101 -0.4029 -0.4441 -0.0551
23683SOL    HW176885   5.817   4.514   5.120  2.4896  1.3382 -0.4645
23683SOL    HW276886   5.742   4.626   5.188 -0.9282 -1.1351  0.1093
23684SOL     OW76887   3.020   0.949   9.210  0.0721  0.1054  0.1342
23684SOL    HW176888   3.105   0.911   9.235  0.2306  0.8973  0.8445
23684SOL    HW276889   3.043   1.034   9.170 -0.1962 -0.9074 -2.3947
23685SOL     OW76890   0.298   2.763   9.457 -0.2258  0.2464 -0.5546
23685SOL    HW176891   0.244   2.762   9.378 -1.7665  0.6395  0.4431
23685SOL    HW276892   0.252   2.822   9.517 -0.1218 -1.4434  1.3024
23686SOL     OW76893   7.025   3.005   8.762 -0.1550 -0.6144 -0.3363
23686SOL    HW176894   6.999   3.039   8.676  1.7446  1.6655 -0.1082
23686SOL    HW276895   7.119   2.992   8.755  0.1106  0.0707  1.5225
23687SOL     OW76896   0.257   7.023  10.921  0.1399  0.2296 -0.1636
23687SOL    HW176897   0.340   6.992  10.957  0.4412 -0.1581 -1.1629
23687SOL    HW276898   0.237   6.962  10.851 -1.6902 -0.4768  0.9075
23688SOL     OW76899   7.387   5.106   6.854 -0.2524 -0.1288 -0.6353
23688SOL    HW176900   7.454   5.042   6.831 -0.5739 -0.2443 -1.2952
23688SOL    HW276901   7.346   5.071   6.933 -2.3312 -2.2837 -2.4954
23689SOL     OW76902   5.952   1.407   5.342  0.3554 -0.2252 -0.2246
23689SOL    HW176903   5.918   1.494   5.319 -0.3680 -0.4114  0.1412
23689SOL    HW276904   6.011   1.385   5.270 -0.1298  0.1932 -0.7560
23690SOL     OW76905   2.170   4.492   6.733  0.5149  0.3844  0.0367
23690SOL    HW176906   2.138   4.512   6.821  0.7401  2.1799 -0.2688
23690SOL    HW276907   2.094   4.453   6.689 -0.5577  2.2844  0.0968
23691SOL     OW76908   9.423   2.956   0.503 -0.8368 -0.3396  0.8554
23691SOL    HW176909   9.328   2.966   0.489 -0.7276  0.5407  0.6534
23691SOL    HW276910   9.437   2.862   0.509 -1.5392 -0.5483 -0.4863
23692SOL     OW76911   4.906   6.539   2.933  0.2752  0.0949 -0.3371
23692SOL    HW176912   4.956   6.620   2.917  1.0870 -0.6214 -1.5806
23692SOL    HW276913   4.963   6.486   2.989 -0.7465  0.8197  1.4654
23693SOL     OW76914   2.745   0.067   8.850  0.1721  0.2014  0.2148
23693SOL    HW176915   2.658   0.079   8.887  0.0786 -1.9056  0.8304
23693SOL    HW276916   2.772   0.154   8.822 -2.6763  0.6877 -1.2819
23694SOL     OW76917   7.509   6.104   9.393 -0.2061 -0.5057  0.3138
23694SOL    HW176918   7.514   6.175   9.457  0.3019  0.6731 -0.9780
23694SOL    HW276919   7.595   6.102   9.352 -0.6700 -0.9022 -0.6831
23695SOL     OW76920   3.487   5.993   1.303  0.2825 -0.8143 -0.0437
23695SOL    HW176921   3.443   5.941   1.370 -0.2980 -0.1277  0.1058
23695SOL    HW276922   3.581   5.980   1.321  0.1846  0.9860  2.1966
23696SOL     OW76923   0.128   7.285   1.838  0.2604 -0.3994 -0.4540
23696SOL    HW176924   0.101   7.329   1.919  1.0742 -0.5071 -0.1195
23696SOL    HW276925   0.070   7.322   1.771 -1.5031 -1.4284  0.4104
23697SOL     OW76926   1.697   5.301   8.357 -0.3269  0.0612  0.4104
23697SOL    HW176927   1.657   5.378   8.398 -0.0346 -0.0282  0.8636
23697SOL    HW276928   1.767   5.336   8.303 -0.7890  0.1889 -0.1204
23698SOL     OW76929  10.208   6.446   5.793  0.4170  0.3025  0.1992
23698SOL    HW176930  10.194   6.356   5.762  0.3661  1.0808 -2.2195
23698SOL    HW276931  10.134   6.462   5.852  0.1113 -1.0397  0.2276
23699SOL     OW76932   7.593   0.591   4.056 -0.5346  0.3864  0.7194
23699SOL    HW176933   7.628   0.558   4.139  2.2622 -1.3595 -0.9932
23699SOL    HW276934   7.536   0.521   4.025 -0.5835  0.4776  0.6054
23700SOL     OW76935   8.896   0.598   9.608 -0.0571  0.2505 -0.7136
23700SOL    HW176936   8.964   0.664   9.596 -0.2285  0.7344  0.8341
23700SOL    HW276937   8.943   0.522   9.644 -0.3804  0.7072  0.6885
23701SOL     OW76938   5.392  10.018   6.599  0.3649 -0.1573 -0.5581
23701SOL    HW176939   5.448  10.062   6.664 -1.2083  0.2319  0.5888
23701SOL    HW276940   5.306  10.057   6.612 -0.1477 -0.5508 -2.4689
23702SOL     OW76941   8.569  10.541   4.040 -0.2212 -0.0454  0.5670
23702SOL    HW176942   8.590  10.483   4.114  2.2213  0.8303  0.6494
23702SOL    HW276943   8.558  10.627   4.080 -0.6815  0.1130  0.0976
23703SOL     OW76944   3.948   9.295   1.717 -0.1743 -0.2120 -0.3861
23703SOL    HW176945   3.866   9.254   1.691  0.3882 -0.9397 -1.0661
23703SOL    HW276946   3.993   9.315   1.634 -0.4784  1.9357 -0.1013
23704SOL     OW76947   1.590   9.236   8.859 -0.6992  0.3474  1.0452
23704SOL    HW176948   1.596   9.319   8.907 -0.3548  0.7048  0.3979
23704SOL    HW276949   1.500   9.235   8.825 -1.0865 -0.1105  2.0368
23705SOL     OW76950   3.340   5.541   4.366 -0.2064  1.0337  0.2829
23705SOL    HW176951   3.345   5.445   4.363 -1.5295  0.9214  0.9751
23705SOL    HW276952   3.248   5.561   4.349  0.0804  2.1987  0.0096
23706SOL     OW76953   0.585   7.395   8.518  0.2383 -0.4031 -0.0888
23706SOL    HW176954   0.566   7.324   8.457  0.6866 -1.6790  1.1848
23706SOL    HW276955   0.517   7.388   8.585  1.3259 -0.8448  1.0184
23707SOL     OW76956   7.904   2.851   0.245  0.2186 -0.3431 -0.0176
23707SOL    HW176957   7.955   2.833   0.166 -2.1429 -0.0675 -1.7211
23707SOL    HW276958   7.956   2.914   0.294  2.2376 -1.3252 -0.7846
23708SOL     OW76959   0.088   7.699   9.058 -0.5449 -0.1423 -0.2780
23708SOL    HW176960   0.084   7.747   9.141 -0.1425 -0.7155  0.0771
23708SOL    HW276961   0.180   7.703   9.033 -0.1803 -2.0681  0.5656
23709SOL     OW76962   2.570   9.685   2.673  0.2927 -0.3476  0.1054
23709SOL    HW176963   2.533   9.657   2.590  1.1713 -0.6269 -0.2041
23709SOL    HW276964   2.533   9.772   2.687 -0.3228 -0.5395 -0.2806
23710SOL     OW76965   8.629   0.909   5.609  0.5776 -0.5361  0.0392
23710SOL    HW176966   8.644   0.862   5.691 -0.2668 -0.5310  0.2083
23710SOL    HW276967   8.644   0.845   5.541 -3.1569 -1.9311  0.3023
23711SOL     OW76968   4.585   3.375   3.574 -0.1605 -0.0087 -0.4557
23711SOL    HW176969   4.644   3.446   3.599 -2.1845  1.0782  1.6502
23711SOL    HW276970   4.505   3.391   3.626 -1.4371 -2.6944 -1.4130
23712SOL     OW76971   3.582   9.617   1.602  0.5042  0.6493  0.5540
23712SOL    HW176972   3.650   9.645   1.664  1.2034  0.4953 -0.1324
23712SOL    HW276973   3.513   9.683   1.611 -0.3807 -0.4633  3.0022
23713SOL     OW76974   8.417   4.549   6.185  0.0404 -0.3088  0.4487
23713SOL    HW176975   8.408   4.522   6.276  1.0338  1.2794  1.0750
23713SOL    HW276976   8.372   4.634   6.180 -0.2435 -0.5079 -0.6111
23714SOL     OW76977   4.442   5.532   2.719 -0.1023  0.1588  0.0991
23714SOL    HW176978   4.537   5.524   2.711 -0.0993  0.7544 -0.5789
23714SOL    HW276979   4.410   5.518   2.630 -0.5847  0.7582  0.1740
23715SOL     OW76980   2.426   5.339   6.462  0.5036 -0.5579  0.6522
23715SOL    HW176981   2.379   5.420   6.480 -0.2868 -0.7756 -0.3361
23715SOL    HW276982   2.364   5.270   6.485  0.0432 -0.8484 -1.2610
23716SOL     OW76983   6.859   0.343   5.284  0.1218  0.7260  0.0683
23716SOL    HW176984   6.780   0.381   5.245  0.0031  2.0325  1.4600
23716SOL    HW276985   6.905   0.302   5.211 -0.7375  1.8935 -1.1802
23717SOL     OW76986  10.673   9.605   4.140  0.1637 -0.5191  0.2676
23717SOL    HW176987  10.656   9.699   4.129  0.7929 -0.3546  0.6339
23717SOL    HW276988  10.587   9.564   4.134 -0.1540  0.1125  0.4201
23718SOL     OW76989   2.126   8.589   6.010  1.1267 -0.1630 -0.2289
23718SOL    HW176990   2.199   8.583   5.949  0.9853 -1.4736 -0.3096
23718SOL    HW276991   2.162   8.633   6.087  2.0957 -1.0381 -0.1540
23719SOL     OW76992   8.327   3.667   1.677  0.7069 -0.1936  0.3263
23719SOL    HW176993   8.312   3.762   1.677  0.4171 -0.2002 -1.3981
23719SOL    HW276994   8.241   3.629   1.658  1.1552 -0.6879 -0.7966
23720SOL     OW76995   7.287   1.784  10.696  0.1889 -0.2174 -0.0985
23720SOL    HW176996   7.343   1.836  10.753 -0.9573  0.4607  0.4403
23720SOL    HW276997   7.217   1.843  10.669 -1.2296 -1.4631  0.6447
23721SOL     OW76998  10.495   1.069   6.481  0.2191 -0.1710  0.1061
23721SOL    HW176999  10.588   1.068   6.506  0.5468 -2.6979 -0.9264
23721SOL    HW277000  10.496   1.097   6.390 -0.0043 -0.4837  0.0082
23722SOL     OW77001   3.270   5.913   3.187 -0.1198  0.2124  0.4138
23722SOL    HW177002   3.266   5.882   3.277  0.6007 -1.8879 -0.2261
23722SOL    HW277003   3.347   5.970   3.184  0.4877 -0.5787  0.8785
23723SOL     OW77004  10.727  10.085   6.974  0.1760 -0.3782  0.0477
23723SOL    HW177005  10.744  10.165   6.924 -0.4156 -0.3484 -0.1103
23723SOL    HW277006  10.804  10.076   7.030  0.2458  0.3130  0.0814
23724SOL     OW77007   6.376   7.868   3.924 -0.2680  0.0606 -0.0358
23724SOL    HW177008   6.454   7.894   3.974 -0.3273  1.1824 -0.5033
23724SOL    HW277009   6.305   7.871   3.988 -0.3895  1.7460 -0.2168
23725SOL     OW77010  10.193   7.575   3.058 -0.0922 -0.1068  0.3925
23725SOL    HW177011  10.261   7.541   3.116 -0.3601 -1.7035 -0.1578
23725SOL    HW277012  10.130   7.617   3.116  0.0943 -0.8896  1.1852
23726SOL     OW77013   6.799   1.186   9.943  0.1214  0.0267 -0.0642
23726SOL    HW177014   6.810   1.279   9.921  1.1385 -0.0977 -0.1341
23726SOL    HW277015   6.884   1.147   9.922  0.6201 -0.4257  2.4816
23727SOL     OW77016   6.992   6.560   9.091 -0.5917 -0.0131 -0.2887
23727SOL    HW177017   7.084   6.578   9.111 -0.4727 -0.6842 -0.1944
23727SOL    HW277018   6.945   6.639   9.119  0.1058  0.9111 -1.6302
23728SOL     OW77019   7.357   5.315   8.083 -0.2871 -0.1520 -0.5356
23728SOL    HW177020   7.382   5.308   8.175 -1.5534  1.1201 -0.0747
23728SOL    HW277021   7.441   5.314   8.036  0.3377 -1.6271  0.5443
23729SOL     OW77022   4.960   6.408  10.636  0.1151 -0.1943 -0.0638
23729SOL    HW177023   4.904   6.332  10.621  0.2827 -0.6879  1.6232
23729SOL    HW277024   4.985   6.401  10.728  0.6133  1.5980 -0.0386
23730SOL     OW77025   4.802   7.845   9.562  0.1486  0.3770  0.4037
23730SOL    HW177026   4.813   7.933   9.598  1.8878 -0.7827  3.0726
23730SOL    HW277027   4.727   7.810   9.610  0.2271  0.0057  0.2524
23731SOL     OW77028   7.523   9.027   3.553  0.4326 -1.0574  0.4497
23731SOL    HW177029   7.570   9.027   3.637 -1.8068 -1.4181  1.7976
23731SOL    HW277030   7.432   9.041   3.577 -0.0313  1.0849 -2.1651
23732SOL     OW77031   1.276   7.123   5.300  0.2895 -0.1128 -0.7717
23732SOL    HW177032   1.200   7.066   5.290  1.2498 -1.4522 -0.6055
23732SOL    HW277033   1.329   7.081   5.368 -0.2834  2.4317  1.4276
23733SOL     OW77034   7.836   9.326   8.836  0.3937  0.0611 -0.0423
23733SOL    HW177035   7.839   9.241   8.793  0.7665 -0.8862  1.7422
23733SOL    HW277036   7.800   9.308   8.923  1.0930  1.6090  0.6183
23734SOL     OW77037   9.110   2.625   0.447  0.1228  0.4628 -0.3609
23734SOL    HW177038   9.046   2.556   0.431  0.2891  0.6332 -1.9069
23734SOL    HW277039   9.186   2.579   0.483  0.0994 -0.1253 -1.0356
23735SOL     OW77040   1.172  10.830   3.525 -0.5558 -0.2955  0.2680
23735SOL    HW177041   1.111  10.777   3.474  0.6115 -1.8945  0.4744
23735SOL    HW277042   1.127  10.846   3.608 -1.0390 -0.7107  0.0913
23736SOL     OW77043   7.139   7.652   7.582 -0.4407  0.2087 -0.3593
23736SOL    HW177044   7.174   7.595   7.514 -1.3095  0.6307 -1.1811
23736SOL    HW277045   7.122   7.594   7.656  1.5167 -0.0826 -0.0768
23737SOL     OW77046   0.106  10.640   0.970  0.8166 -0.0359  0.1078
23737SOL    HW177047   0.085  10.733   0.981  0.2864 -0.2272  0.7751
23737SOL    HW277048   0.021  10.598   0.958  0.9869 -0.5292  0.5804
23738SOL     OW77049  10.068   1.880   9.920  0.3140  0.3900  0.3871
23738SOL    HW177050  10.078   1.811   9.854  1.4512  0.9630 -0.0692
23738SOL    HW277051  10.081   1.962   9.872  0.6898  0.8383  1.2240
23739SOL     OW77052   6.985   1.451   6.704  0.2214  0.1389  0.0226
23739SOL    HW177053   7.013   1.400   6.780 -0.1460  0.2329  0.2225
23739SOL    HW277054   6.953   1.534   6.741 -0.2340  0.0699 -0.2078
23740SOL     OW77055   7.239  10.629   9.004 -0.3211 -0.0527  0.0402
23740SOL    HW177056   7.268  10.575   9.077 -1.5885  1.0499  1.4414
23740SOL    HW277057   7.272  10.717   9.025 -0.9078  0.3238 -0.5881
23741SOL     OW77058   5.302   6.282   9.305 -0.5341 -0.4769  0.5242
23741SOL    HW177059   5.219   6.317   9.272  1.0006  1.1725 -1.9657
23741SOL    HW277060   5.340   6.354   9.355  0.4515 -0.2884 -0.4508
23742SOL     OW77061   7.391   0.803   9.032 -0.6028  0.1395 -0.2755
23742SOL    HW177062   7.363   0.863   9.101  0.0500  0.6741 -0.4618
23742SOL    HW277063   7.403   0.858   8.955  1.6191  0.0993 -0.0334
23743SOL     OW77064   1.410   6.895   6.919 -0.1521  0.2971 -0.1547
23743SOL    HW177065   1.330   6.849   6.942  1.4949 -1.9526  1.6369
23743SOL    HW277066   1.454   6.838   6.855 -0.5350  2.1735 -2.2138
23744SOL     OW77067   9.412   4.338   7.449 -0.1104  0.0672 -0.0257
23744SOL    HW177068   9.388   4.266   7.508 -0.8338  0.5117  0.2409
23744SOL    HW277069   9.458   4.295   7.377  2.4824 -0.3107  1.6981
23745SOL     OW77070  10.495   4.677   2.680  0.2410  0.2447 -0.0610
23745SOL    HW177071  10.508   4.770   2.700 -0.8216 -0.0466  2.3226
23745SOL    HW277072  10.525   4.668   2.589  2.2633  2.4915  0.2574
23746SOL     OW77073  10.055   5.901   7.873  0.4299  0.1572  0.0696
23746SOL    HW177074  10.113   5.927   7.945  0.7710 -0.0713 -0.1209
23746SOL    HW277075  10.051   5.806   7.878  0.9837  0.0957 -0.6217
23747SOL     OW77076   6.954   8.370  10.230  0.0193 -0.6776  0.4381
23747SOL    HW177077   7.037   8.378  10.277 -0.3959 -0.2119  1.1219
23747SOL    HW277078   6.951   8.279  10.201  0.7770 -0.6917  0.3868
23748SOL     OW77079   9.568   6.744   6.416 -0.1535 -0.4952  0.1199
23748SOL    HW177080   9.559   6.678   6.347  0.4234  1.4629 -1.9851
23748SOL    HW277081   9.482   6.784   6.422 -0.6940 -1.8272  1.8957
23749SOL     OW77082   4.709   6.701   9.265  0.8517  0.3020 -0.0080
23749SOL    HW177083   4.736   6.669   9.350 -0.9755  0.4776  0.6876
23749SOL    HW277084   4.628   6.749   9.282  0.7621  0.8532 -1.7589
23750SOL     OW77085   1.966   5.864   0.232 -0.2781 -0.0072 -0.7449
23750SOL    HW177086   2.004   5.951   0.218  1.5480 -0.5759  0.3406
23750SOL    HW277087   1.986   5.816   0.152  0.3173  0.0475 -0.6359
23751SOL     OW77088   0.848   3.464   5.574  0.0442 -0.2054  1.0977
23751SOL    HW177089   0.779   3.507   5.523  0.1488  0.9839  1.9277
23751SOL    HW277090   0.926   3.515   5.557  0.7097 -1.4262  0.3313
23752SOL     OW77091   1.792   9.836   7.376 -0.1512  0.0885  0.1190
23752SOL    HW177092   1.821   9.783   7.451  0.4694  0.2402 -0.0042
23752SOL    HW277093   1.832   9.922   7.390  0.5165 -0.0721 -0.7179
23753SOL     OW77094   7.479   9.292   7.538  0.2278 -0.0752 -0.3748
23753SOL    HW177095   7.390   9.286   7.504 -0.3860 -0.6844  1.2062
23753SOL    HW277096   7.526   9.220   7.495 -0.4978 -0.7824 -0.0202
23754SOL     OW77097   1.516  10.338   6.621  0.7666  0.3238 -0.7598
23754SOL    HW177098   1.494  10.271   6.557  0.8602 -2.3239  1.7425
23754SOL    HW277099   1.611  10.346   6.616  0.9310 -0.8948 -0.1225
23755SOL     OW77100   5.414   9.444   4.018  0.2292 -0.3075 -0.0321
23755SOL    HW177101   5.474   9.497   4.071 -0.7114  0.2547  0.5068
23755SOL    HW277102   5.344   9.421   4.078 -0.2505 -0.7004 -0.7312
23756SOL     OW77103   2.901   6.477  10.175  0.2884 -0.0936 -0.0210
23756SOL    HW177104   2.848   6.555  10.189  0.4024 -0.2113  1.2536
23756SOL    HW277105   2.865   6.412  10.236  0.2218 -1.0290 -1.0244
23757SOL     OW77106   1.300   0.110   9.319 -0.2991 -0.1153  0.6548
23757SOL    HW177107   1.372   0.082   9.375  0.0310  1.0715  0.8337
23757SOL    HW277108   1.310   0.204   9.310 -1.1294 -0.0910 -0.3112
23758SOL     OW77109   8.140   1.840   3.817 -0.1980 -0.6555 -0.5780
23758SOL    HW177110   8.050   1.837   3.786  0.0569  0.2125 -1.4208
23758SOL    HW277111   8.190   1.877   3.745  0.4735  1.1166  0.7286
23759SOL     OW77112   1.220   0.123   5.779 -0.1317  0.0663 -0.1756
23759SOL    HW177113   1.156   0.131   5.849 -0.3449  0.3658 -0.3997
23759SOL    HW277114   1.241   0.213   5.755  0.6436 -0.0335  0.1379
23760SOL     OW77115   1.827   4.156   0.894  0.4161  0.1944 -0.2906
23760SOL    HW177116   1.755   4.207   0.931  0.2173  0.5367 -1.1372
23760SOL    HW277117   1.835   4.080   0.953  0.5924  1.0838  0.8731
23761SOL     OW77118   6.245   7.216   7.052 -0.8010 -0.1656 -0.1657
23761SOL    HW177119   6.248   7.305   7.018 -0.6451  0.3229  1.0719
23761SOL    HW277120   6.286   7.163   6.984  0.3816  0.8986 -0.3287
23762SOL     OW77121   5.063   3.060   9.298  0.1575 -0.1151 -0.2391
23762SOL    HW177122   5.057   3.010   9.380 -2.5712 -0.8623 -0.7733
23762SOL    HW277123   5.001   3.132   9.310  0.4179  0.3025 -1.3193
23763SOL     OW77124   4.451   5.076   0.194 -0.3737  0.6978 -0.2960
23763SOL    HW177125   4.425   5.164   0.222 -0.1748  0.6160  0.1541
23763SOL    HW277126   4.447   5.023   0.274  2.3935  0.9392  0.0990
23764SOL     OW77127   3.976   4.865   9.461  0.0242 -0.4205 -1.0112
23764SOL    HW177128   3.898   4.811   9.474  1.1131 -1.7944  0.2721
23764SOL    HW277129   4.045   4.803   9.442  0.9898  0.6928 -1.2452
23765SOL     OW77130   8.416   4.504   2.979  0.0426  0.4261 -0.2007
23765SOL    HW177131   8.469   4.565   3.031 -0.2487  0.4651  0.0610
23765SOL    HW277132   8.454   4.506   2.892 -0.7076  1.9184 -0.5167
23766SOL     OW77133   8.289   6.722   2.131  0.6835  0.1513 -0.1277
23766SOL    HW177134   8.358   6.788   2.140  0.3434  0.7238 -1.4846
23766SOL    HW277135   8.244   6.745   2.050 -0.4532 -0.8292  0.1982
23767SOL     OW77136   4.936   8.566   2.235 -0.3338  0.1852 -0.1537
23767SOL    HW177137   4.875   8.555   2.308  0.5586 -2.3909  0.3433
23767SOL    HW277138   4.972   8.654   2.247 -2.0077  0.7736  1.0361
23768SOL     OW77139   0.458   8.291   5.081  0.2441 -0.3673  0.4800
23768SOL    HW177140   0.549   8.264   5.078  0.6761  1.0177  0.6248
23768SOL    HW277141   0.442   8.331   4.996 -0.3159 -0.8327  0.3574
23769SOL     OW77142   1.890   3.444   6.712 -0.2884  0.0309 -0.5558
23769SOL    HW177143   1.943   3.458   6.790 -0.3507 -0.0021 -0.5083
23769SOL    HW277144   1.855   3.530   6.690 -2.5024 -0.3759  1.0315
23770SOL     OW77145   5.545   4.329   7.617  0.1670  0.2482  0.2904
23770SOL    HW177146   5.597   4.250   7.602  1.0245  0.4471  2.0043
23770SOL    HW277147   5.607   4.401   7.609 -0.3634  0.6728 -0.0780
23771SOL     OW77148   3.571   9.771   9.913  0.5074  0.2998 -0.2657
23771SOL    HW177149   3.538   9.825   9.985 -1.0444  0.5615 -1.1403
23771SOL    HW277150   3.498   9.765   9.851  1.1673 -1.4937 -0.9431
23772SOL     OW77151   3.976   2.857   8.770 -0.8277 -0.3052  0.5419
23772SOL    HW177152   3.979   2.763   8.787 -1.0084 -0.2785  0.7268
23772SOL    HW277153   3.907   2.867   8.704 -1.6372 -0.1824  1.3813
23773SOL     OW77154   9.894   8.864   0.985  0.0068  0.2738 -0.4559
23773SOL    HW177155   9.881   8.844   0.892 -1.6702  2.5758 -0.8182
23773SOL    HW277156   9.809   8.848   1.025  0.1428  1.2843  0.2689
23774SOL     OW77157   2.584   0.052   3.098 -0.5486 -0.3178  0.3147
23774SOL    HW177158   2.588  -0.025   3.041  0.8614 -0.4169  0.5097
23774SOL    HW277159   2.497   0.089   3.082 -0.2938 -0.4913 -1.7278
23775SOL     OW77160   0.222   9.163   6.507 -0.2014 -0.6954 -0.2993
23775SOL    HW177161   0.134   9.200   6.507  0.5814  1.2683 -0.5003
23775SOL    HW277162   0.225   9.110   6.427 -1.2150 -0.8459 -0.2531
23776SOL     OW77163   9.542   9.310   5.942  0.5379 -0.1694  0.4113
23776SOL    HW177164   9.522   9.221   5.970 -0.7893  0.0407  0.1955
23776SOL    HW277165   9.552   9.304   5.847  0.6562 -0.1205  0.4198
23777SOL     OW77166   7.942   8.655   9.750 -0.0659  0.4441 -0.8312
23777SOL    HW177167   8.019   8.648   9.806 -0.3772 -0.0131 -0.4562
23777SOL    HW277168   7.886   8.583   9.777 -0.4501  0.5340 -1.3778
23778SOL     OW77169   4.884   2.456   1.214 -0.0618 -0.0220 -0.2694
23778SOL    HW177170   4.952   2.417   1.159 -0.1075  1.2073 -1.2231
23778SOL    HW277171   4.810   2.470   1.155 -1.2352 -1.4277  0.7677
23779SOL     OW77172   8.849  10.327   5.790 -0.2017 -0.4506  0.1850
23779SOL    HW177173   8.797  10.400   5.757 -1.2590 -1.5082 -0.5473
23779SOL    HW277174   8.867  10.350   5.882  0.0375  1.0064 -0.2095
23780SOL     OW77175   0.631   1.583  10.712 -0.2867  0.7369 -0.2315
23780SOL    HW177176   0.598   1.541  10.632 -0.2738  1.0834 -0.4204
23780SOL    HW277177   0.693   1.520  10.748 -2.0519 -0.5227  0.8187
23781SOL     OW77178   4.228   7.017   9.157 -0.0629  0.5415  0.1276
23781SOL    HW177179   4.283   7.094   9.139 -1.5754  1.8011  0.6422
23781SOL    HW277180   4.176   7.006   9.078  0.0591  0.1075  0.1052
23782SOL     OW77181   0.311   3.758   6.573 -0.2917  0.2712  0.5601
23782SOL    HW177182   0.380   3.791   6.631 -0.7849 -2.1243  2.7322
23782SOL    HW277183   0.232   3.803   6.601 -0.3421 -0.1360  1.1007
23783SOL     OW77184   6.204   7.994   7.569 -0.3593  0.0296  0.2182
23783SOL    HW177185   6.210   7.944   7.650 -0.9351 -3.1304 -1.5172
23783SOL    HW277186   6.110   8.001   7.552 -0.2523 -1.5487 -1.3169
23784SOL     OW77187   9.554   8.960   6.863  0.0887  0.7762 -0.2743
23784SOL    HW177188   9.640   8.957   6.905  0.1842  2.2874 -0.3276
23784SOL    HW277189   9.495   8.991   6.932 -0.0687  1.5645 -0.7603
23785SOL     OW77190   4.464   0.900   2.823  0.7184  0.5434 -0.2950
23785SOL    HW177191   4.455   0.806   2.838 -0.6810  0.5896 -0.7283
23785SOL    HW277192   4.422   0.941   2.899  0.0751  0.8100 -0.7938
23786SOL     OW77193   1.085   8.158   7.794 -0.4631 -0.7581  0.4131
23786SOL    HW177194   1.170   8.192   7.766 -1.3962  0.3099 -1.3754
23786SOL    HW277195   1.046   8.230   7.844 -0.3426 -1.2401  1.2200
23787SOL     OW77196   1.622   7.226   7.145  0.3121  0.1284 -0.5157
23787SOL    HW177197   1.632   7.318   7.119  0.1137  0.5940  0.9516
23787SOL    HW277198   1.551   7.226   7.209  0.2019 -1.0772 -0.6087
23788SOL     OW77199   0.413   8.518   3.668 -0.2662  0.0171 -0.1773
23788SOL    HW177200   0.364   8.510   3.587  0.3738 -0.2606 -0.5424
23788SOL    HW277201   0.505   8.513   3.642 -0.0164  1.0330  0.4349
23789SOL     OW77202   4.228   0.870   7.846  0.2820 -0.3743  0.6047
23789SOL    HW177203   4.140   0.832   7.852  1.2926 -3.0509 -0.0436
23789SOL    HW277204   4.274   0.814   7.783  2.7139  0.4078  1.5757
23790SOL     OW77205   2.392   6.260   4.462 -0.0200 -0.3668  0.1006
23790SOL    HW177206   2.355   6.339   4.501  1.0067 -0.7354  1.9302
23790SOL    HW277207   2.396   6.197   4.534 -1.5473 -2.4073 -1.4719
23791SOL     OW77208   8.313   2.203  10.869  0.4869 -0.2438  0.1337
23791SOL    HW177209   8.405   2.207  10.843  0.1462  0.6399 -0.9997
23791SOL    HW277210   8.304   2.267  10.940  0.6901 -0.1608  0.0827
23792SOL     OW77211   1.242   6.061   9.131  0.6389  0.8443  0.0937
23792SOL    HW177212   1.271   6.142   9.089  0.9962  0.3831 -0.5597
23792SOL    HW277213   1.316   6.001   9.121  0.3151  0.3839  0.4322
23793SOL     OW77214   1.151   2.652   4.147 -0.2720 -0.7216 -0.3426
23793SOL    HW177215   1.082   2.602   4.189  0.0560  0.2408  1.4259
23793SOL    HW277216   1.232   2.612   4.178 -0.0205  0.2244  0.2589
23794SOL     OW77217   9.565   6.237   6.820 -0.1970  0.0375  0.7067
23794SOL    HW177218   9.579   6.195   6.735 -0.6735 -0.3123  0.7903
23794SOL    HW277219   9.573   6.330   6.804 -0.6161 -0.0083  0.2028
23795SOL     OW77220   7.418   2.616   0.877 -0.3980  0.2106 -0.2426
23795SOL    HW177221   7.396   2.530   0.840  0.5410 -0.3772  0.5198
23795SOL    HW277222   7.361   2.625   0.953  1.8086 -1.3273  1.7539
23796SOL     OW77223   4.538   5.687   6.045 -0.3454 -0.2523  0.2508
23796SOL    HW177224   4.509   5.626   5.977 -0.5933 -0.1489  0.2634
23796SOL    HW277225   4.504   5.772   6.017  0.5483 -0.0024 -0.1042
23797SOL     OW77226   5.648   3.066   8.601 -0.1924 -0.5203 -0.2346
23797SOL    HW177227   5.725   3.109   8.638 -2.2828  1.5973  2.0695
23797SOL    HW277228   5.651   3.089   8.508  1.6461 -0.0175 -0.0977
23798SOL     OW77229   6.061   0.728   7.998 -0.4044  0.3525  0.6550
23798SOL    HW177230   6.087   0.636   8.005 -0.2421  0.3092 -0.3662
23798SOL    HW277231   6.065   0.747   7.905  0.0344  1.5360  0.8970
23799SOL     OW77232   9.697   7.408   2.639  0.0135 -0.1449  0.0921
23799SOL    HW177233   9.779   7.360   2.628  0.3483  0.4050  0.1110
23799SOL    HW277234   9.717   7.475   2.705 -0.6769 -0.5077  0.6849
23800SOL     OW77235   9.193   3.905   5.443  0.4091  0.1224  0.6981
23800SOL    HW177236   9.223   3.833   5.498  0.4847  1.2178  2.1603
23800SOL    HW277237   9.143   3.863   5.373 -0.4875 -1.2980  2.1166
23801SOL     OW77238   7.946   5.928   6.995  0.2568  0.3804 -0.6295
23801SOL    HW177239   7.907   5.956   7.077 -0.5652 -0.6439 -0.6411
23801SOL    HW277240   8.016   5.867   7.021  0.6083  0.7584 -0.6719
23802SOL     OW77241   1.919   9.715   5.839 -0.6923 -0.3465 -0.2106
23802SOL    HW177242   1.983   9.784   5.854 -2.8854  1.7257  0.3863
23802SOL    HW277243   1.908   9.712   5.744 -1.5662  1.1779 -0.1864
23803SOL     OW77244  10.083   8.427   5.940 -0.6294  0.2153 -0.2051
23803SOL    HW177245  10.057   8.371   6.012 -0.7552 -0.0653 -0.4667
23803SOL    HW277246  10.046   8.513   5.961 -1.0183  0.0335 -0.1417
23804SOL     OW77247   8.596   4.952   7.024  0.2835  0.0598 -0.5170
23804SOL    HW177248   8.682   4.917   7.000  0.3525  0.3734 -0.7353
23804SOL    HW277249   8.590   4.941   7.119  0.2150 -0.7405 -0.6093
23805SOL     OW77250   7.741   3.942   8.212 -0.0681  0.2121 -0.0699
23805SOL    HW177251   7.824   3.978   8.180 -0.9498  0.7968 -1.8295
23805SOL    HW277252   7.747   3.949   8.307  0.5739  3.3617 -0.2311
23806SOL     OW77253   6.098   0.397   2.985  0.2969  0.1597 -0.3999
23806SOL    HW177254   6.160   0.360   3.048 -0.5135  0.5086  0.6281
23806SOL    HW277255   6.051   0.465   3.034  0.7372  1.5668 -1.8169
23807SOL     OW77256   3.083   0.546  10.179 -0.5220  0.3141  0.5135
23807SOL    HW177257   3.117   0.635  10.190 -1.4682  0.9101 -1.0223
23807SOL    HW277258   3.130   0.494  10.244  0.8275  1.7279  0.7259
23808SOL     OW77259   5.894   5.315   5.153 -0.0351  0.0135 -0.1171
23808SOL    HW177260   5.831   5.312   5.225 -0.1594 -1.2608 -0.2704
23808SOL    HW277261   5.936   5.229   5.153 -0.6375 -0.3179 -2.1001
23809SOL     OW77262   9.973   8.084   0.931 -0.1033 -0.0396 -0.2444
23809SOL    HW177263   9.937   8.065   1.018 -2.9705  2.9494 -0.5937
23809SOL    HW277264  10.056   8.129   0.948  0.7547 -1.8854  0.7760
23810SOL     OW77265   0.239   4.668   3.134 -0.7730  0.1553 -0.2262
23810SOL    HW177266   0.326   4.665   3.094 -0.9624 -0.8635 -0.5959
23810SOL    HW277267   0.187   4.721   3.075 -0.8372 -0.6586 -0.9235
23811SOL     OW77268   8.618   9.566   7.248  0.2883  0.5809  0.3586
23811SOL    HW177269   8.599   9.586   7.157  1.9493  1.5424  0.1975
23811SOL    HW277270   8.537   9.527   7.281 -0.1577 -0.3193 -1.6557
23812SOL     OW77271   7.810   3.540   0.570  0.1346 -0.2181  0.2467
23812SOL    HW177272   7.733   3.547   0.626 -1.1015  0.7969 -1.4765
23812SOL    HW277273   7.783   3.480   0.500  0.3241  1.3864 -1.2433
23813SOL     OW77274   4.336   2.686   9.298  0.1843  0.1122 -0.5224
23813SOL    HW177275   4.317   2.710   9.207  2.0460  1.9517 -0.5132
23813SOL    HW277276   4.280   2.743   9.351 -0.1106 -0.1928 -0.5025
23814SOL     OW77277  10.681   5.118   7.188  0.4318 -0.1121 -0.2805
23814SOL    HW177278  10.603   5.094   7.139  0.3792  1.6857 -1.1403
23814SOL    HW277279  10.746   5.139   7.121  0.5195  1.8939  0.3526
23815SOL     OW77280   7.551   4.769   0.485  0.4872 -0.0759  0.3997
23815SOL    HW177281   7.472   4.715   0.491 -0.4235  1.2872  1.6161
23815SOL    HW277282   7.545   4.812   0.400 -0.3507  0.3714  0.6743
23816SOL     OW77283   9.788   9.557   5.772 -0.6695 -0.3411  0.0861
23816SOL    HW177284   9.763   9.626   5.834  1.5300  0.7470 -0.1202
23816SOL    HW277285   9.830   9.490   5.826 -1.0568 -0.6116  0.0560
23817SOL     OW77286   9.255   4.476  10.125 -0.3797 -0.7108 -0.0933
23817SOL    HW177287   9.164   4.450  10.139 -0.7880 -0.1073 -1.4095
23817SOL    HW277288   9.298   4.395  10.098 -0.5102 -1.0112  0.5790
23818SOL     OW77289  10.132   6.772   0.179  0.6786 -0.2874 -0.4705
23818SOL    HW177290  10.182   6.690   0.169  0.2829 -0.3603 -2.3868
23818SOL    HW277291  10.182   6.836   0.128  1.2030  0.8187  1.3431
23819SOL     OW77292   7.593   7.986   9.465  0.1372 -0.9052 -1.0020
23819SOL    HW177293   7.499   7.989   9.485  0.4202  0.4984  0.3391
23819SOL    HW277294   7.604   8.046   9.391  0.1490  0.1948 -0.1485
23820SOL     OW77295   0.513   3.782   0.999 -0.5055 -0.3438 -0.3947
23820SOL    HW177296   0.508   3.777   1.094  0.2144 -1.4570 -0.4093
23820SOL    HW277297   0.603   3.757   0.977 -0.2009  1.3680 -1.2873
23821SOL     OW77298   9.762   2.845   3.366 -0.7435 -0.0908  0.0733
23821SOL    HW177299   9.679   2.872   3.326 -0.2310  0.6492 -0.5188
23821SOL    HW277300   9.766   2.751   3.351  0.0064  0.2980 -2.8477
23822SOL     OW77301   2.326   9.750   1.037 -0.0316 -0.2129 -0.4452
23822SOL    HW177302   2.288   9.663   1.047  0.8487 -0.5707 -0.1933
23822SOL    HW277303   2.262   9.808   1.079  1.6284 -1.2516  4.1584
23823SOL     OW77304   4.135   4.967   4.632  0.3892  0.0936  0.9132
23823SOL    HW177305   4.093   4.891   4.592 -1.1529  0.9378  0.8462
23823SOL    HW277306   4.079   4.989   4.706  0.6706  1.2903  0.7924
23824SOL     OW77307   4.826   3.083   8.658  0.3599 -0.8727 -0.3688
23824SOL    HW177308   4.808   3.174   8.679 -2.3693 -1.5720  0.7331
23824SOL    HW277309   4.879   3.087   8.578  0.9251  1.6418  0.0363
23825SOL     OW77310   9.564   1.352   2.652  0.0902 -0.3955  0.2120
23825SOL    HW177311   9.641   1.360   2.708  0.9108  0.9983 -1.0320
23825SOL    HW277312   9.567   1.430   2.596 -1.5109 -0.9768 -0.7475
23826SOL     OW77313  10.402   0.005   7.529  0.1697 -0.3242 -0.1658
23826SOL    HW177314  10.351  -0.068   7.566  0.6955 -0.8738 -0.5147
23826SOL    HW277315  10.378   0.006   7.436 -0.0097  0.1016 -0.1190
23827SOL     OW77316   9.485   2.972   0.822  0.4236  0.4366 -0.3341
23827SOL    HW177317   9.412   2.923   0.785  0.6920  0.4300 -0.8649
23827SOL    HW277318   9.465   2.979   0.915  0.2267 -0.4061 -0.3081
23828SOL     OW77319   0.092   7.863   8.256  0.5098  0.4068  0.0535
23828SOL    HW177320   0.068   7.816   8.336  0.2150  0.2528 -0.1228
23828SOL    HW277321   0.097   7.795   8.189  1.6872  0.3982  0.1275
23829SOL     OW77322   6.906   7.212   8.187 -0.0937  0.5031 -0.2979
23829SOL    HW177323   6.971   7.275   8.157 -0.0586  0.2830 -0.6984
23829SOL    HW277324   6.905   7.144   8.119  1.5574 -1.1491  1.2097
23830SOL     OW77325   5.474   6.361   4.126  0.3793 -0.3226 -0.4643
23830SOL    HW177326   5.481   6.352   4.031  1.2516  2.1241 -0.7233
23830SOL    HW277327   5.557   6.402   4.152  0.0734 -0.7555  1.3438
23831SOL     OW77328   5.784  10.782   4.822 -0.3853 -0.1488  0.4921
23831SOL    HW177329   5.790  10.803   4.915  1.4832  0.6057  0.2227
23831SOL    HW277330   5.711  10.835   4.790  0.5710  1.5644  1.0305
23832SOL     OW77331   3.179  10.482   0.992  0.7589 -0.7150 -0.4639
23832SOL    HW177332   3.176  10.398   1.039  0.6294 -0.6701 -0.3906
23832SOL    HW277333   3.126  10.468   0.914 -0.4906 -0.2657  0.2638
23833SOL     OW77334   1.861   5.762   5.835  0.7068  0.3148 -0.3214
23833SOL    HW177335   1.815   5.787   5.915 -0.1943  1.5408 -1.1994
23833SOL    HW277336   1.954   5.764   5.859  0.4366  0.4354  0.7462
23834SOL     OW77337   5.385   2.241   5.621 -0.4537  0.0921  0.3100
23834SOL    HW177338   5.336   2.234   5.539  0.1126  0.4470 -0.0642
23834SOL    HW277339   5.358   2.163   5.671  1.4122 -1.8159 -1.4379
23835SOL     OW77340   2.110   5.234   2.563  0.3388  0.4186 -0.1737
23835SOL    HW177341   2.054   5.172   2.517  1.7471 -0.9583 -0.1235
23835SOL    HW277342   2.145   5.291   2.494 -1.5754  1.7619 -0.1305
23836SOL     OW77343  10.874   4.795   7.644 -0.4394 -0.3986  0.3783
23836SOL    HW177344  10.924   4.737   7.586 -0.1231  0.9379 -0.7315
23836SOL    HW277345  10.820   4.848   7.585 -1.1509  0.0561  1.4038
23837SOL     OW77346  10.230   6.382   0.698  0.3350 -0.4240  0.9896
23837SOL    HW177347  10.163   6.423   0.753 -0.2159 -2.5248  2.0041
23837SOL    HW277348  10.180   6.328   0.636  1.0597 -1.3539  1.1933
23838SOL     OW77349   1.713   2.228  10.627 -0.8446 -0.0765 -0.6385
23838SOL    HW177350   1.654   2.267  10.691 -1.3912 -0.1168 -1.1058
23838SOL    HW277351   1.795   2.277  10.637 -1.4796  1.1517 -1.1359
23839SOL     OW77352   6.083   8.397   5.568  0.8480  1.1547  0.2992
23839SOL    HW177353   6.149   8.455   5.606  1.2227  0.1413  1.2810
23839SOL    HW277354   6.113   8.309   5.591  0.2861  0.5593 -1.1151
23840SOL     OW77355   0.737   0.042   9.499  0.3938  0.2439 -0.5523
23840SOL    HW177356   0.810   0.043   9.561 -0.5254  1.9576  0.5745
23840SOL    HW277357   0.659   0.033   9.554 -0.2836 -2.2655 -1.7644
23841SOL     OW77358   9.840   1.116   7.412  0.0449  0.6464  0.2032
23841SOL    HW177359   9.867   1.033   7.451 -0.5086  1.0664  1.5534
23841SOL    HW277360   9.878   1.183   7.469  1.5150  1.3932 -1.5477
23842SOL     OW77361   8.950   9.759   2.796 -0.5061  0.0377 -0.1368
23842SOL    HW177362   8.900   9.752   2.714  0.8245 -1.6298 -0.8590
23842SOL    HW277363   8.911   9.693   2.854 -0.0603 -0.2792 -0.1959
23843SOL     OW77364   3.173   0.562   5.339 -0.3901  0.3038 -0.3162
23843SOL    HW177365   3.129   0.633   5.384  0.1561 -0.1170  0.9347
23843SOL    HW277366   3.258   0.598   5.315  0.7204 -0.4383  2.1214
23844SOL     OW77367   2.960   7.716   0.383  0.5263  0.7939 -0.0117
23844SOL    HW177368   2.988   7.760   0.464  1.0946  2.7013 -1.1751
23844SOL    HW277369   2.941   7.788   0.323  0.4909 -0.5792 -1.7084
23845SOL     OW77370  10.620   2.241   2.372  0.7009  0.7278  0.4815
23845SOL    HW177371  10.598   2.314   2.430  0.2448  0.1826  1.0110
23845SOL    HW277372  10.715   2.248   2.359  0.7508  1.0747  0.9955
23846SOL     OW77373   3.694   7.219   7.570 -0.0040  0.0422  0.0730
23846SOL    HW177374   3.740   7.270   7.503 -1.5242 -0.6724 -1.5855
23846SOL    HW277375   3.614   7.268   7.586 -0.2400 -0.4615  0.4332
23847SOL     OW77376   4.171   7.937   8.047  0.1319 -0.3017 -0.6182
23847SOL    HW177377   4.140   8.013   8.097  1.4927 -0.2300  0.1799
23847SOL    HW277378   4.126   7.862   8.086  1.4026 -0.2874  1.0003
23848SOL     OW77379   3.252   8.332   4.206  0.4299 -0.2112  0.4909
23848SOL    HW177380   3.276   8.240   4.194  0.3058 -0.4801  2.0904
23848SOL    HW277381   3.307   8.379   4.143  0.6946 -1.3386 -0.1647
23849SOL     OW77382   9.682   7.529   0.363  0.4624  0.1961  0.5027
23849SOL    HW177383   9.606   7.492   0.318  3.0087 -2.8502 -1.7249
23849SOL    HW277384   9.676   7.494   0.452 -0.4154 -0.5611  0.1663
23850SOL     OW77385  10.329   6.397   8.243  0.3884  0.1744 -0.0004
23850SOL    HW177386  10.304   6.368   8.331 -1.3959  0.1171 -0.4814
23850SOL    HW277387  10.332   6.493   8.249 -2.1126  0.3524 -0.3737
23851SOL     OW77388   6.119  10.503   3.766  0.2052 -0.0899  0.2829
23851SOL    HW177389   6.177  10.561   3.717  0.4893 -1.8513 -1.6300
23851SOL    HW277390   6.176  10.430   3.792 -0.1588  0.3710  2.5050
23852SOL     OW77391  10.335  10.764   6.754  0.3561  0.3765 -0.5124
23852SOL    HW177392  10.362  10.753   6.663 -0.4104  2.4592 -1.0350
23852SOL    HW277393  10.250  10.720   6.759  0.8656 -0.6430 -0.5026
23853SOL     OW77394   3.095   0.022   0.902 -0.0825  0.0478  0.0174
23853SOL    HW177395   3.011  -0.007   0.938  1.2503 -4.6751 -0.0227
23853SOL    HW277396   3.157   0.012   0.974  1.1131 -0.9895 -1.0902
23854SOL     OW77397  10.251   2.111   5.482  0.0898 -0.0448 -0.0670
23854SOL    HW177398  10.222   2.192   5.524 -0.4460 -0.3808  0.2125
23854SOL    HW277399  10.296   2.063   5.551  0.5874  0.0986 -0.2852
23855SOL     OW77400   0.363   3.258   5.336 -0.1025 -0.4055 -0.1477
23855SOL    HW177401   0.299   3.271   5.407 -1.1892  1.8676 -1.4357
23855SOL    HW277402   0.395   3.346   5.316  3.2096 -1.3838  0.1277
23856SOL     OW77403  10.699   7.505   8.698 -0.4948  0.1357 -0.1297
23856SOL    HW177404  10.727   7.567   8.765 -0.5538  0.5234 -0.4603
23856SOL    HW277405  10.642   7.444   8.744  1.7481 -1.3571  0.8065
23857SOL     OW77406   8.028  10.394   1.507 -0.2133  0.4187  0.0396
23857SOL    HW177407   8.026  10.418   1.599  0.9469 -3.2266  1.1689
23857SOL    HW277408   7.936  10.377   1.485 -0.4397  0.7976  0.6774
23858SOL     OW77409   6.110   1.103   4.174 -0.1645  0.6606 -0.1211
23858SOL    HW177410   6.120   1.189   4.134 -0.4158 -0.0141 -1.7118
23858SOL    HW277411   6.015   1.090   4.178 -0.1081  0.0310 -0.8380
23859SOL     OW77412   9.052   4.621   1.837  0.3246 -0.3435  0.5665
23859SOL    HW177413   9.097   4.537   1.840 -0.6917 -0.8944  0.8401
23859SOL    HW277414   8.959   4.598   1.841  0.0454  0.8046  0.9821
23860SOL     OW77415   8.947   0.421   7.606  0.1183  0.2402  0.0027
23860SOL    HW177416   8.936   0.495   7.547 -0.1060  0.9872  0.9441
23860SOL    HW277417   9.029   0.379   7.579 -1.1874 -0.9496 -2.4066
23861SOL     OW77418   9.396   2.371   2.643  0.1072  0.0283  0.0474
23861SOL    HW177419   9.349   2.312   2.584  1.2089  0.2821 -1.1040
23861SOL    HW277420   9.484   2.333   2.650  0.6804  1.2595 -0.3316
23862SOL     OW77421   0.741   9.856   8.390 -0.7814  0.1415  0.0013
23862SOL    HW177422   0.657   9.810   8.391 -0.0592 -1.2451 -0.9201
23862SOL    HW277423   0.754   9.884   8.481 -1.7878 -0.4553  0.3446
23863SOL     OW77424   8.775   5.689   8.272 -0.2284  0.2405 -0.6165
23863SOL    HW177425   8.768   5.733   8.356 -2.2588  1.6984 -1.4660
23863SOL    HW277426   8.736   5.603   8.287 -1.6678  0.9148 -0.2975
23864SOL     OW77427  10.201   3.440   5.185 -0.2512 -0.7080 -0.1152
23864SOL    HW177428  10.164   3.503   5.122 -0.0733  0.1938  0.6528
23864SOL    HW277429  10.265   3.491   5.234  0.1227 -1.5845  0.3261
23865SOL     OW77430   5.378   4.096   2.707 -0.8731  0.5555 -0.1058
23865SOL    HW177431   5.317   4.036   2.751 -0.2718 -0.2361 -0.3087
23865SOL    HW277432   5.442   4.117   2.775 -1.4342  1.4973  0.1475
23866SOL     OW77433   2.771   4.341   4.970  0.3821  0.1929  0.3196
23866SOL    HW177434   2.804   4.424   5.003 -0.3392 -0.0378  1.6909
23866SOL    HW277435   2.826   4.322   4.893  1.3041  1.3589  0.6607
23867SOL     OW77436   2.134   5.766   8.588  0.0688 -0.1110  0.2227
23867SOL    HW177437   2.080   5.840   8.614 -0.8330 -0.3764 -0.8259
23867SOL    HW277438   2.171   5.792   8.503  0.3329 -0.5584  0.1983
23868SOL     OW77439   5.081   4.748  10.525  0.0434 -0.1423  0.8450
23868SOL    HW177440   5.030   4.687  10.578  0.8644 -0.7530  0.9478
23868SOL    HW277441   5.120   4.808  10.588 -0.0718 -0.0285  0.8105
23869SOL     OW77442   9.163  10.856   9.414 -0.1209 -0.2554 -0.2659
23869SOL    HW177443   9.191  10.813   9.495 -2.2461  0.9239  1.1714
23869SOL    HW277444   9.117  10.787   9.366  0.6125 -0.7966 -0.2205
23870SOL     OW77445   5.509   6.538   7.872 -0.3779 -0.2487 -0.3665
23870SOL    HW177446   5.433   6.521   7.928  0.1742 -0.5146  0.3252
23870SOL    HW277447   5.473   6.581   7.794 -1.0648  1.0493  0.6245
23871SOL     OW77448   2.657   7.252   5.249 -0.5255  0.2165  0.3676
23871SOL    HW177449   2.602   7.185   5.207  0.6584  0.7810 -2.3112
23871SOL    HW277450   2.616   7.267   5.334 -2.9397 -1.2796 -0.4233
23872SOL     OW77451   8.890   8.129   0.480 -0.0943 -0.0268 -0.0992
23872SOL    HW177452   8.905   8.205   0.536 -2.8335  0.9754 -0.6102
23872SOL    HW277453   8.910   8.159   0.392 -0.5872 -0.1041 -0.2359
23873SOL     OW77454   3.127   2.887   0.013  0.2851 -0.0425  0.4683
23873SOL    HW177455   3.043   2.929   0.031  0.4662  0.3084  0.4936
23873SOL    HW277456   3.111   2.833  -0.065 -0.0255 -0.1635  0.6166
23874SOL     OW77457   7.425   6.839   2.842 -0.0136  0.1224  0.1880
23874SOL    HW177458   7.440   6.776   2.772 -0.0035 -1.3209  1.4248
23874SOL    HW277459   7.507   6.888   2.849  0.2866 -0.3168 -0.2348
23875SOL     OW77460   2.246   3.353   1.301  0.0820 -0.3117 -0.0100
23875SOL    HW177461   2.263   3.269   1.258 -0.0034 -1.0897  1.4294
23875SOL    HW277462   2.333   3.385   1.326 -0.0371 -1.2350  1.7136
23876SOL     OW77463   8.204   6.786   5.858 -0.3999  0.4592 -0.1443
23876SOL    HW177464   8.179   6.709   5.909  2.1035 -0.4639 -0.1757
23876SOL    HW277465   8.274   6.826   5.909  0.3862  0.9939 -1.5926
23877SOL     OW77466   1.519   2.997   1.939  0.7568  0.3440 -0.2956
23877SOL    HW177467   1.499   3.073   1.994  1.2536  0.0842  0.2557
23877SOL    HW277468   1.435   2.975   1.898 -0.0112 -0.3889  1.5524
23878SOL     OW77469   6.406   0.517   6.838 -0.0911  0.5703  0.1650
23878SOL    HW177470   6.375   0.535   6.750 -2.9414  0.8485  1.0976
23878SOL    HW277471   6.372   0.429   6.858  1.2864  0.1261  0.6935
23879SOL     OW77472   5.840   3.404   6.848  0.1496  0.0354 -0.0007
23879SOL    HW177473   5.879   3.453   6.777  0.1087 -0.8673 -0.6664
23879SOL    HW277474   5.863   3.453   6.927 -0.0064  1.1709 -0.6474
23880SOL     OW77475   1.765   6.747   7.922  0.4649  0.4006  0.2997
23880SOL    HW177476   1.860   6.741   7.914  0.5559  0.4295  1.2178
23880SOL    HW277477   1.738   6.661   7.954  0.4159  0.9726  1.8979
23881SOL     OW77478   3.467   7.632   7.201 -0.2015 -1.0034  0.1487
23881SOL    HW177479   3.424   7.637   7.115 -2.5404  0.0904  1.2972
23881SOL    HW277480   3.560   7.639   7.181 -0.7510  1.4281 -2.1895
23882SOL     OW77481   6.730   5.584   3.183  0.4070  0.4678  0.1996
23882SOL    HW177482   6.712   5.599   3.091 -1.6158  4.1108  0.9866
23882SOL    HW277483   6.672   5.511   3.207  0.3293  0.0397 -1.2188
23883SOL     OW77484   4.645   7.341   0.335 -0.3460  0.3906 -0.1707
23883SOL    HW177485   4.593   7.403   0.283 -0.7310  1.4132  1.3450
23883SOL    HW277486   4.655   7.265   0.279 -1.7238  0.9849 -1.2949
23884SOL     OW77487  10.246   7.827  10.305 -0.4551 -0.0071  0.3369
23884SOL    HW177488  10.197   7.899  10.345  0.2772 -0.4625  2.1641
23884SOL    HW277489  10.331   7.865  10.284 -0.4077 -0.0859  0.3859
23885SOL     OW77490   7.944   1.275   9.099  0.0708 -0.6272 -0.4344
23885SOL    HW177491   7.883   1.273   9.172 -0.6269 -1.3606 -1.0227
23885SOL    HW277492   7.968   1.368   9.091 -0.1453 -0.4858  0.4643
23886SOL     OW77493   5.311   0.511   7.547  0.1354  0.4759  0.3864
23886SOL    HW177494   5.369   0.445   7.508  0.1523 -0.0164  1.2138
23886SOL    HW277495   5.225   0.471   7.546  0.1658  0.3837  1.0012
23887SOL     OW77496   7.585   3.580   5.719  0.1720  0.3358  0.0719
23887SOL    HW177497   7.521   3.512   5.700  0.1080  0.5588 -0.5479
23887SOL    HW277498   7.659   3.534   5.757  0.1062 -0.0755 -0.2859
23888SOL     OW77499   0.599   5.072   6.538 -0.0014  0.0293  0.2427
23888SOL    HW177500   0.626   5.163   6.530 -0.2328  0.0634 -0.2025
23888SOL    HW277501   0.674   5.021   6.507 -0.1374  0.0965 -0.2083
23889SOL     OW77502   6.376   5.955   0.030 -0.1439  0.1140  0.7530
23889SOL    HW177503   6.317   5.889  -0.007  1.9793 -0.6414 -1.5194
23889SOL    HW277504   6.352   6.036  -0.015  0.7934 -0.2966 -0.5523
23890SOL     OW77505   4.802   7.740   0.950  0.4877  0.0846 -0.2463
23890SOL    HW177506   4.776   7.769   1.038  0.9569 -0.4796  0.0902
23890SOL    HW277507   4.726   7.691   0.918  0.3281  0.2574 -0.1348
23891SOL     OW77508   7.762   7.645   0.448  0.0084 -0.4664 -0.2453
23891SOL    HW177509   7.693   7.696   0.405  0.1455  0.2305  0.3576
23891SOL    HW277510   7.775   7.570   0.389 -0.0227  0.3058 -1.2750
23892SOL     OW77511   3.764   0.089   6.157  0.1504 -0.7040 -0.4392
23892SOL    HW177512   3.788   0.164   6.211  0.8936  0.3916 -2.1894
23892SOL    HW277513   3.698   0.042   6.208  0.8175  0.2507  1.3879
23893SOL     OW77514   4.388  10.183   0.724  0.1709  0.9401  0.2930
23893SOL    HW177515   4.387  10.246   0.652  1.4606 -0.6290 -1.1653
23893SOL    HW277516   4.453  10.218   0.785  0.5306  1.2584 -0.2617
23894SOL     OW77517   5.142   7.860   6.734  0.0203  0.3797  0.1317
23894SOL    HW177518   5.157   7.769   6.759 -0.5647 -0.0199 -0.8968
23894SOL    HW277519   5.229   7.901   6.736  0.1901 -0.0198  1.2451
23895SOL     OW77520   0.373  10.391   8.770  0.1473  0.2140 -0.0810
23895SOL    HW177521   0.375  10.483   8.743  1.5446  0.3354  0.3400
23895SOL    HW277522   0.282  10.366   8.762 -0.8981  2.5220  2.8001
23896SOL     OW77523   8.488   2.404  10.607  0.1068 -0.0350 -0.1284
23896SOL    HW177524   8.498   2.310  10.593  0.0434 -0.1629  0.6639
23896SOL    HW277525   8.567   2.430  10.654  0.6259  0.5110 -1.2607
23897SOL     OW77526   5.100   0.230   1.709 -0.4880  0.3459 -0.6244
23897SOL    HW177527   5.050   0.159   1.750  0.4369 -0.2525 -0.5127
23897SOL    HW277528   5.128   0.284   1.782 -0.0264  0.0569 -0.5854
23898SOL     OW77529   1.638   6.005   1.976 -0.2860  0.4024  0.1427
23898SOL    HW177530   1.549   5.974   1.957 -0.1593  1.2831 -2.2121
23898SOL    HW277531   1.693   5.961   1.911  0.9493  0.2601  1.2403
23899SOL     OW77532   7.029   7.509   4.732  0.0219 -0.2419  0.8384
23899SOL    HW177533   7.043   7.433   4.789  0.2371 -0.4072  0.5638
23899SOL    HW277534   6.935   7.526   4.739  0.1189  0.0149  1.5926
23900SOL     OW77535   1.247   7.878   5.258 -0.1581 -0.4267 -0.0272
23900SOL    HW177536   1.243   7.787   5.289 -1.1964 -0.6326 -0.7403
23900SOL    HW277537   1.165   7.917   5.286  0.8110  0.6899  1.3871
23901SOL     OW77538   3.655   8.336   9.551 -0.4936 -0.3462 -0.3617
23901SOL    HW177539   3.663   8.260   9.609 -1.8599 -0.8236 -0.7716
23901SOL    HW277540   3.745   8.352   9.521  0.2452 -0.1454  1.7672
23902SOL     OW77541   7.402   7.728   5.070  0.2295  0.8094 -0.0414
23902SOL    HW177542   7.491   7.723   5.107  0.9879 -0.4558 -1.8863
23902SOL    HW277543   7.397   7.816   5.032  0.7620  0.8355 -0.0692
23903SOL     OW77544   5.733   4.711   5.361 -0.5056 -0.5115  0.2000
23903SOL    HW177545   5.653   4.762   5.374 -0.0441  0.1179  0.7021
23903SOL    HW277546   5.802   4.766   5.399  0.0063 -1.5490  0.8186
23904SOL     OW77547   9.119   1.286   5.441  0.2119  0.3576  0.8360
23904SOL    HW177548   9.173   1.215   5.474 -0.4295  0.1806  1.5438
23904SOL    HW277549   9.097   1.338   5.519 -1.9334 -0.4705  0.8618
23905SOL     OW77550   2.975   3.213   4.525 -0.3723 -0.2326 -0.2937
23905SOL    HW177551   2.934   3.267   4.593  0.9732  0.1836  0.2193
23905SOL    HW277552   2.996   3.275   4.455 -0.5293 -0.4203 -0.5062
23906SOL     OW77553   9.548   8.637   5.321  0.0873 -0.3856 -0.0130
23906SOL    HW177554   9.483   8.570   5.301 -0.9393  0.7742 -0.7178
23906SOL    HW277555   9.621   8.589   5.360 -0.7934 -1.8421 -0.0877
23907SOL     OW77556  10.726   5.675   8.536  0.0348 -0.5178 -0.7695
23907SOL    HW177557  10.742   5.616   8.610  1.2965 -0.4300 -0.9532
23907SOL    HW277558  10.756   5.626   8.460 -1.9567 -0.9080 -1.3531
23908SOL     OW77559   1.674   1.799   7.309 -0.0735  0.0921 -0.1402
23908SOL    HW177560   1.626   1.859   7.366 -0.7682  0.2242 -0.8488
23908SOL    HW277561   1.766   1.808   7.337 -0.0785  1.8765 -0.5719
23909SOL     OW77562   6.299   1.344   4.874 -0.3518  0.1114  0.5304
23909SOL    HW177563   6.343   1.353   4.789 -0.5356 -3.3759 -0.0795
23909SOL    HW277564   6.368   1.313   4.933 -0.6716  0.5968  1.1704
23910SOL     OW77565   2.471   5.135   2.160  0.1924 -0.2228  0.2992
23910SOL    HW177566   2.524   5.202   2.203  0.0603 -0.7606  1.3442
23910SOL    HW277567   2.531   5.062   2.146 -0.1351 -0.6657  1.0852
23911SOL     OW77568   9.112   1.802   3.879  0.2830 -0.6227 -0.5762
23911SOL    HW177569   9.137   1.875   3.935 -1.2236 -1.3373  1.1116
23911SOL    HW277570   9.172   1.731   3.903  1.8800  0.0278 -2.3560
23912SOL     OW77571   8.214   4.169   0.154  0.2381 -0.3353  0.2170
23912SOL    HW177572   8.144   4.124   0.202 -0.2226 -3.0349 -2.6424
23912SOL    HW277573   8.169   4.238   0.106  0.2899  0.6624  1.5476
23913SOL     OW77574   0.389   4.644   8.572 -0.0074  0.4388 -0.2710
23913SOL    HW177575   0.481   4.669   8.568 -0.0002  0.2706 -2.7152
23913SOL    HW277576   0.350   4.708   8.632  1.6228  0.6725  0.6022
23914SOL     OW77577   8.770   7.213   1.779 -0.5387  0.5757  0.3618
23914SOL    HW177578   8.804   7.176   1.861  0.4411  2.0044  0.6328
23914SOL    HW277579   8.833   7.185   1.713 -1.7186 -1.1964 -0.0809
23915SOL     OW77580   3.437   4.616   2.951 -0.2015 -0.1843  0.5074
23915SOL    HW177581   3.483   4.608   2.867 -0.5765  1.8397  0.0513
23915SOL    HW277582   3.408   4.527   2.971  0.5510 -0.8409 -1.1217
23916SOL     OW77583   7.020   9.882   8.559  0.0443  0.1319 -0.0763
23916SOL    HW177584   6.985   9.794   8.566 -0.2028  0.3068  0.9563
23916SOL    HW277585   7.065   9.898   8.642  4.6754 -0.9212 -2.0479
23917SOL     OW77586   8.665   6.778   4.619  0.1497 -0.1075 -0.2211
23917SOL    HW177587   8.644   6.870   4.603  2.2819  0.2599 -1.2509
23917SOL    HW277588   8.756   6.768   4.590 -1.1053 -3.4369 -3.8301
23918SOL     OW77589   4.776   8.592   2.010  0.1099  0.1517  0.3225
23918SOL    HW177590   4.840   8.571   2.079 -0.5991 -1.1849  0.6084
23918SOL    HW277591   4.697   8.546   2.037 -1.1826  2.2322  0.2502
23919SOL     OW77592   9.207   3.442   2.689  0.1152  0.0573 -0.1602
23919SOL    HW177593   9.285   3.449   2.743 -0.4588  1.6293  0.5116
23919SOL    HW277594   9.135   3.434   2.751 -0.4649  0.9232 -0.6932
23920SOL     OW77595   7.811   3.843   5.075 -0.8538  0.4562 -0.5104
23920SOL    HW177596   7.742   3.909   5.074 -0.2860  1.0814 -0.0381
23920SOL    HW277597   7.874   3.873   5.010  0.3479  1.4717  1.0266
23921SOL     OW77598   0.468   1.437   0.439 -0.1955 -0.0882  0.6406
23921SOL    HW177599   0.457   1.422   0.533  1.7175  0.2298  0.9455
23921SOL    HW277600   0.411   1.512   0.421 -1.2664 -0.7085  1.3421
23922SOL     OW77601   3.565   7.964   5.101 -0.5807 -0.3832 -0.1246
23922SOL    HW177602   3.626   7.969   5.027 -1.2295 -0.7193 -0.6942
23922SOL    HW277603   3.539   8.055   5.117  0.7084 -0.1304  0.6851
23923SOL     OW77604   0.403   5.324   3.076 -0.4511  0.0444 -0.5715
23923SOL    HW177605   0.423   5.231   3.089 -0.7689  0.0804  0.2357
23923SOL    HW277606   0.316   5.335   3.115  0.7411  1.2634  1.9667
23924SOL     OW77607   5.551   6.686   4.680 -0.0840 -0.1025 -0.0499
23924SOL    HW177608   5.642   6.686   4.653  0.9148 -2.1152  2.8105
23924SOL    HW277609   5.506   6.631   4.616  1.3892 -1.6908  0.2174
23925SOL     OW77610   7.771   5.147   4.705 -0.3389  0.1141  0.1456
23925SOL    HW177611   7.742   5.056   4.708  0.8699 -0.3201 -0.5404
23925SOL    HW277612   7.690   5.199   4.705 -1.0343 -0.9336  0.9874
23926SOL     OW77613   9.117   8.641   6.265  0.1258 -0.6141 -0.3763
23926SOL    HW177614   9.030   8.640   6.225  0.0329  1.7787 -0.3761
23926SOL    HW277615   9.177   8.625   6.192 -0.2505 -0.6164 -0.6925
23927SOL     OW77616   2.210   3.566   0.165  0.6814  0.1197  0.6306
23927SOL    HW177617   2.215   3.504   0.238  1.5087 -1.2155 -0.5090
23927SOL    HW277618   2.138   3.625   0.188 -0.7582 -1.8172  1.3579
23928SOL     OW77619   5.769   1.672   3.631  0.8836  0.6873 -0.3610
23928SOL    HW177620   5.805   1.667   3.542  0.6166  1.3092 -0.5100
23928SOL    HW277621   5.765   1.581   3.660 -0.0205  0.3741 -1.3999
23929SOL     OW77622   9.797   7.041   9.628  0.3477 -0.1171  0.0870
23929SOL    HW177623   9.758   6.978   9.568  0.7796  0.1295 -0.4696
23929SOL    HW277624   9.866   6.992   9.673 -0.3189 -0.4408  0.7690
23930SOL     OW77625   7.379   1.762   9.119 -0.0700  0.0349  0.0748
23930SOL    HW177626   7.452   1.721   9.072 -1.3111  0.0554 -2.0080
23930SOL    HW277627   7.386   1.855   9.098  0.6182  0.3878  1.7778
23931SOL     OW77628   9.969   5.840  10.299 -0.1899 -0.0703  0.7492
23931SOL    HW177629   9.979   5.886  10.217 -1.1901 -1.0021  0.0753
23931SOL    HW277630  10.037   5.772  10.297  0.2186  0.3209  1.0094
23932SOL     OW77631   0.869   3.232   2.596 -0.1245 -0.0195 -0.2350
23932SOL    HW177632   0.948   3.252   2.546 -0.4594 -0.9933 -1.2072
23932SOL    HW277633   0.885   3.268   2.683  1.9607 -1.3794  0.0141
23933SOL     OW77634  10.523   6.064   4.958 -0.0883  0.0359 -0.6662
23933SOL    HW177635  10.465   6.108   5.020 -1.6997 -1.1893 -1.2424
23933SOL    HW277636  10.470   5.993   4.921  1.4259 -0.4284 -2.0735
23934SOL     OW77637   4.015   6.080   6.491  0.3046 -0.1244 -0.3204
23934SOL    HW177638   3.954   6.048   6.425 -2.0380 -0.5488  1.9037
23934SOL    HW277639   4.060   6.002   6.523  2.0864  0.1824 -1.9235
23935SOL     OW77640   8.546   4.571   1.581 -0.4860  0.3185  0.0990
23935SOL    HW177641   8.604   4.622   1.524 -1.1502 -0.1333 -0.9930
23935SOL    HW277642   8.605   4.535   1.648  0.3018  0.8742 -0.2760
23936SOL     OW77643   5.653   5.909   8.889 -0.1607  0.2227  0.6912
23936SOL    HW177644   5.693   5.831   8.926  0.7435  1.3631  2.2366
23936SOL    HW277645   5.559   5.896   8.899 -0.0718 -1.1312 -0.0941
23937SOL     OW77646   5.147   6.642   0.519 -0.1303  0.1350 -0.0824
23937SOL    HW177647   5.211   6.572   0.532  0.0218 -0.1950 -2.3481
23937SOL    HW277648   5.063   6.598   0.523 -0.1226  0.1507  0.3424
23938SOL     OW77649   7.453   9.158   4.317  0.1338 -0.4236  0.6038
23938SOL    HW177650   7.377   9.106   4.343 -1.1239  1.1572  0.1987
23938SOL    HW277651   7.427   9.199   4.235  2.1796 -1.3714 -0.6030
23939SOL     OW77652  10.191   7.188  10.395 -0.0624  0.2242  0.0619
23939SOL    HW177653  10.276   7.219  10.425 -0.7201  0.3123  1.9554
23939SOL    HW277654  10.158   7.257  10.338  0.2346  1.1537  1.0026
23940SOL     OW77655   3.056   1.447   0.737 -0.3112  0.5648  0.5047
23940SOL    HW177656   3.127   1.404   0.688 -2.0635  1.2235 -2.9046
23940SOL    HW277657   3.098   1.523   0.777  1.3349 -0.2672  0.4667
23941SOL     OW77658   9.414   2.011   1.325 -0.0216  0.5066  0.1144
23941SOL    HW177659   9.373   2.097   1.337  1.3614  1.0412  1.2064
23941SOL    HW277660   9.476   2.023   1.253 -0.2908  0.2339 -0.1704
23942SOL     OW77661   0.493   3.196   5.056 -0.3655  0.2439  0.6967
23942SOL    HW177662   0.582   3.209   5.022 -0.5712  2.7583  0.9715
23942SOL    HW277663   0.505   3.191   5.151 -0.5734  1.2099  0.7752
23943SOL     OW77664  10.165   0.322   9.076  0.1481 -0.2284  0.0191
23943SOL    HW177665  10.187   0.403   9.123 -0.4813  0.2163 -0.4372
23943SOL    HW277666  10.200   0.252   9.131  1.6734  0.3940 -0.1052
23944SOL     OW77667   6.982   6.627   7.595  0.6864  0.0406  0.5071
23944SOL    HW177668   7.015   6.538   7.605 -2.0867 -1.0544  0.9082
23944SOL    HW277669   6.887   6.617   7.595  0.2843  2.9022 -0.5760
23945SOL     OW77670   4.353   3.183   4.842  0.5925 -0.3949 -0.0401
23945SOL    HW177671   4.306   3.243   4.899  0.6531  2.3868 -2.6603
23945SOL    HW277672   4.444   3.190   4.870  0.5105  0.2951  0.0690
23946SOL     OW77673   7.820   8.150   6.982 -0.2957 -0.1921 -0.0306
23946SOL    HW177674   7.847   8.146   6.890 -2.5008  1.2770 -0.8380
23946SOL    HW277675   7.772   8.068   6.996 -1.6484  0.4308 -0.8373
23947SOL     OW77676   2.689   9.849  10.061 -0.8511  0.9577 -0.0942
23947SOL    HW177677   2.630   9.786  10.021 -0.2752  0.7544 -0.6508
23947SOL    HW277678   2.732   9.892   9.987  1.3410 -0.4797  0.2261
23948SOL     OW77679   4.338   4.006   5.470 -0.8963 -0.0637  0.3703
23948SOL    HW177680   4.405   3.982   5.406 -0.9810  0.3588  0.1230
23948SOL    HW277681   4.331   3.929   5.527 -0.3910 -0.2105  0.2402
23949SOL     OW77682   2.841   5.643  10.493  0.1099  0.0092  0.3127
23949SOL    HW177683   2.792   5.619  10.572 -2.2841 -1.6322 -1.5130
23949SOL    HW277684   2.825   5.737  10.482 -1.2697 -0.1594  0.7025
23950SOL     OW77685   1.112   8.226   3.815  0.2482  0.0977 -0.3325
23950SOL    HW177686   1.049   8.195   3.750 -0.1330  0.3817 -0.0953
23950SOL    HW277687   1.194   8.182   3.790  0.1694  0.4004 -1.1580
23951SOL     OW77688   4.061   2.191   0.960 -0.3761  0.3106 -0.6231
23951SOL    HW177689   4.049   2.183   0.866  0.1970  1.3121 -0.7952
23951SOL    HW277690   4.150   2.160   0.976 -0.9790 -1.2781 -0.1925
23952SOL     OW77691   3.643   1.388   1.192 -0.4235 -0.4050  0.2304
23952SOL    HW177692   3.573   1.452   1.203 -0.3485 -0.2302 -0.2869
23952SOL    HW277693   3.602   1.304   1.210 -0.8249 -0.3251 -0.3124
23953SOL     OW77694   7.583   3.410   8.815 -0.2840  0.5880 -0.5441
23953SOL    HW177695   7.555   3.321   8.838  0.5808  0.4664  0.1270
23953SOL    HW277696   7.502   3.459   8.805 -0.7700 -0.2410 -0.7566
23954SOL     OW77697   2.454   7.036  10.454  0.3496 -0.1007  0.7022
23954SOL    HW177698   2.538   6.998  10.479 -0.3960 -0.8429  2.2125
23954SOL    HW277699   2.423   7.078  10.534 -0.8341 -0.0571  0.2324
23955SOL     OW77700   0.620   0.483   1.629 -0.4134  0.7140  0.2467
23955SOL    HW177701   0.622   0.408   1.688  2.3211 -0.9541 -1.7086
23955SOL    HW277702   0.692   0.539   1.659 -0.7237  1.2071  0.0800
23956SOL     OW77703   6.944   4.900  10.485 -0.3725  0.2590  0.1272
23956SOL    HW177704   6.918   4.830  10.544  0.4080 -0.2629 -0.1285
23956SOL    HW277705   6.882   4.893  10.412  0.8200 -1.4270 -0.8135
23957SOL     OW77706   6.533   8.909   4.284  0.4232  0.4294 -0.0941
23957SOL    HW177707   6.546   8.973   4.214 -0.6116  1.7061  0.8387
23957SOL    HW277708   6.457   8.858   4.257  1.1222 -0.3080 -0.7363
23958SOL     OW77709   7.827  10.757   7.669  0.3610 -0.3799  0.0078
23958SOL    HW177710   7.783  10.827   7.621  1.9024 -0.4056 -1.5084
23958SOL    HW277711   7.866  10.802   7.745 -0.5665 -0.0314  0.3040
23959SOL     OW77712   0.314   0.225   1.653  0.2312  0.0545  0.3068
23959SOL    HW177713   0.341   0.316   1.670 -1.2642  0.1723  2.5783
23959SOL    HW277714   0.384   0.173   1.691  1.2480  0.2103 -1.2799
23960SOL     OW77715   3.992   4.981   2.995  0.0310 -0.3361  0.4831
23960SOL    HW177716   3.899   4.960   2.989 -0.0057 -0.2774  0.8400
23960SOL    HW277717   4.028   4.916   3.055 -0.4796  1.8271  3.3369
23961SOL     OW77718  10.621   0.397   4.443  0.1331  0.2412 -0.2992
23961SOL    HW177719  10.559   0.348   4.389  0.6872 -3.9653  2.4430
23961SOL    HW277720  10.705   0.388   4.397  0.2934 -1.8596  0.3281
23962SOL     OW77721   4.912  10.123   2.173  0.4915  0.0218 -0.6488
23962SOL    HW177722   4.953  10.201   2.136  1.2155  0.1606  0.4020
23962SOL    HW277723   4.954  10.050   2.127 -0.4795  0.2284 -1.9291
23963SOL     OW77724   5.848   3.270   0.175 -0.0169  0.2709  0.3720
23963SOL    HW177725   5.911   3.218   0.126 -1.4371 -0.4207 -0.8114
23963SOL    HW277726   5.877   3.360   0.164  0.8821 -0.0501  0.0517
23964SOL     OW77727   7.662   5.715   6.466 -0.4898  0.0441 -0.1570
23964SOL    HW177728   7.625   5.706   6.378  0.1693 -0.8481 -0.3545
23964SOL    HW277729   7.720   5.791   6.459 -2.5831  1.7886  0.2875
23965SOL     OW77730   3.288   6.361   0.079 -0.1103  0.5319  0.5520
23965SOL    HW177731   3.272   6.334   0.170  2.8380 -0.4618  0.8736
23965SOL    HW277732   3.352   6.298   0.046 -0.3107  1.5089 -1.9063
23966SOL     OW77733   3.442   7.059   7.906  0.4999  0.3318 -0.2073
23966SOL    HW177734   3.526   7.043   7.862  0.5932  1.0804 -0.3297
23966SOL    HW277735   3.463   7.055   7.999  0.2797 -1.3723 -0.2070
23967SOL     OW77736   0.408   7.975   1.793 -0.3426 -0.0908  0.6535
23967SOL    HW177737   0.447   7.951   1.708 -0.2563  1.4178  0.2275
23967SOL    HW277738   0.318   8.000   1.772 -1.3867 -2.8566  1.5309
23968SOL     OW77739   2.992   6.241   8.163 -0.7158 -0.0346 -0.0757
23968SOL    HW177740   2.934   6.293   8.108 -1.1405  0.0284  0.4299
23968SOL    HW277741   2.961   6.151   8.153 -1.0110  0.0207  0.3266
23969SOL     OW77742   3.432  10.396   4.759 -0.0353  0.3760  0.3715
23969SOL    HW177743   3.463  10.464   4.818 -1.4980 -0.5085  2.2693
23969SOL    HW277744   3.424  10.318   4.814  0.7507 -1.1421 -1.5324
23970SOL     OW77745   4.676   2.864   0.190 -0.7899  0.3160 -0.4306
23970SOL    HW177746   4.732   2.836   0.262 -0.3481  2.8705  0.3074
23970SOL    HW277747   4.710   2.816   0.114  1.1692  0.3370  0.3593
23971SOL     OW77748   7.148   6.977   3.198  0.1463  0.5146 -0.6051
23971SOL    HW177749   7.165   6.937   3.112  0.2132  1.0505 -0.8454
23971SOL    HW277750   7.071   7.032   3.184 -0.3476 -0.0410 -0.1103
23972SOL     OW77751   5.737   1.405   6.241 -0.2175 -0.3600  0.0519
23972SOL    HW177752   5.725   1.461   6.318  0.9959 -1.1990  0.8964
23972SOL    HW277753   5.650   1.372   6.221 -0.6721  0.4769  0.5868
23973SOL     OW77754   3.336   5.722   7.804  0.1648 -0.4138  0.1097
23973SOL    HW177755   3.380   5.671   7.872 -0.9623 -0.0027  1.1777
23973SOL    HW277756   3.245   5.728   7.832  0.1473  1.7509 -0.2233
23974SOL     OW77757   2.282   1.304   7.102  0.3829 -0.0413  0.1035
23974SOL    HW177758   2.342   1.250   7.154  0.9703  1.8271  1.4869
23974SOL    HW277759   2.275   1.385   7.151 -2.8346  0.0658 -0.3492
23975SOL     OW77760   7.263   2.519   8.400  0.2128  0.0138  0.8169
23975SOL    HW177761   7.205   2.462   8.350 -1.3982  1.5942  0.7690
23975SOL    HW277762   7.287   2.588   8.338  2.2843 -0.6514  0.8080
23976SOL     OW77763  10.173   7.717  10.073 -0.0932 -0.0639 -0.3924
23976SOL    HW177764  10.180   7.745  10.164  2.6468  0.9863 -0.8242
23976SOL    HW277765  10.227   7.638  10.069  0.1688  0.1457 -1.1608
23977SOL     OW77766   4.130   7.177   4.062  0.3808  0.1115  0.2286
23977SOL    HW177767   4.195   7.219   4.119  1.5939  2.0706 -2.4096
23977SOL    HW277768   4.074   7.249   4.033 -0.9141 -1.0316 -0.2156
23978SOL     OW77769   1.870   6.710   6.683 -0.1029 -0.3725  0.1499
23978SOL    HW177770   1.779   6.696   6.708 -0.1677  0.5654  0.4748
23978SOL    HW277771   1.909   6.623   6.688 -0.8135 -0.6782  0.6878
23979SOL     OW77772   8.726   6.197   9.449  0.2116  0.1463 -0.3523
23979SOL    HW177773   8.692   6.108   9.450  0.4269  0.0631  0.1886
23979SOL    HW277774   8.745   6.216   9.541  0.1817  0.7435 -0.4661
23980SOL     OW77775   0.280   5.282   9.953  0.0429 -0.1764 -0.4239
23980SOL    HW177776   0.355   5.243   9.908  0.7985  1.2430 -0.4376
23980SOL    HW277777   0.317   5.352  10.007 -1.3300  1.0459 -0.9855
23981SOL     OW77778   9.994   7.720   1.464 -0.4165  0.4443  0.3709
23981SOL    HW177779   9.939   7.666   1.520  0.5647  0.2691  1.2028
23981SOL    HW277780  10.022   7.661   1.394 -0.7058  0.3352  0.3472
23982SOL     OW77781  10.584   4.221   5.824  0.0766 -0.4440  0.1332
23982SOL    HW177782  10.661   4.167   5.841 -0.1045 -1.4320 -1.9383
23982SOL    HW277783  10.510   4.161   5.832 -0.4221  0.2490  0.9941
23983SOL     OW77784   8.535   3.040   2.323 -0.5568 -0.2208  0.7985
23983SOL    HW177785   8.593   3.047   2.247  0.3453 -2.1359  1.2540
23983SOL    HW277786   8.524   3.130   2.353  0.4275  0.3981 -0.5868
23984SOL     OW77787   0.676   6.551   1.839 -0.3492  0.4432  0.2725
23984SOL    HW177788   0.655   6.506   1.758  1.5510  0.3189 -0.1802
23984SOL    HW277789   0.700   6.640   1.812 -0.2739  0.5764  0.7580
23985SOL     OW77790   4.138   1.756   4.360  0.2469 -0.0540  0.2409
23985SOL    HW177791   4.106   1.821   4.423  1.4234 -0.3179  1.1319
23985SOL    HW277792   4.229   1.780   4.346  1.0645 -2.1845  1.5181
23986SOL     OW77793   1.572   3.485   8.871 -0.2004 -0.0008 -0.4954
23986SOL    HW177794   1.568   3.398   8.910 -0.7169  0.3465  0.2557
23986SOL    HW277795   1.530   3.475   8.786 -2.2933 -0.0350  0.4842
23987SOL     OW77796   3.248   0.257   5.692  0.2945 -0.2847  0.1320
23987SOL    HW177797   3.261   0.328   5.754  2.3262  0.6906 -1.2791
23987SOL    HW277798   3.270   0.178   5.742 -0.0141  0.2580  1.1583
23988SOL     OW77799   2.260   1.870   4.939 -0.0938  0.0908 -0.1164
23988SOL    HW177800   2.206   1.911   4.871  0.6887  1.1085 -0.1432
23988SOL    HW277801   2.240   1.777   4.932  0.0359  0.1606 -1.7861
23989SOL     OW77802   5.086   6.796   5.584  0.1206 -0.0965 -0.4169
23989SOL    HW177803   5.117   6.733   5.648  1.9631  1.5515  0.4201
23989SOL    HW277804   5.122   6.767   5.501  0.9586 -0.1564 -0.0348
23990SOL     OW77805   4.358   6.952  10.144  0.1518 -0.1355  1.0673
23990SOL    HW177806   4.281   6.985  10.191  0.7215  1.5542  0.8755
23990SOL    HW277807   4.427   6.950  10.210  0.0842 -1.1888  1.1229
23991SOL     OW77808   9.972   5.879   3.025  0.1060 -0.3388  0.2536
23991SOL    HW177809  10.066   5.867   3.015  0.2684  0.4836  0.7340
23991SOL    HW277810   9.936   5.854   2.939  0.7006 -1.0939  0.2043
23992SOL     OW77811   7.760   2.546   9.376  0.1161  0.2600  0.7856
23992SOL    HW177812   7.793   2.457   9.393 -2.2673 -0.5935  1.4622
23992SOL    HW277813   7.774   2.593   9.458  0.2441  0.1015  0.8538
23993SOL     OW77814   3.764   4.157   1.453 -0.3733 -0.2263  0.0996
23993SOL    HW177815   3.691   4.174   1.394 -1.6076 -1.9601  1.0391
23993SOL    HW277816   3.821   4.098   1.405 -0.8186 -0.7633  0.2223
23994SOL     OW77817   9.092   1.881   2.210 -0.0237  0.1348  0.6013
23994SOL    HW177818   9.005   1.908   2.181  0.5653  1.4797  0.0068
23994SOL    HW277819   9.093   1.786   2.197 -1.7345 -0.0535  1.5785
23995SOL     OW77820   0.978   5.568  10.245 -0.2568 -0.0891 -0.6243
23995SOL    HW177821   0.900   5.621  10.260 -0.8946 -0.8300 -1.2246
23995SOL    HW277822   1.016   5.557  10.332  0.2869  1.8992 -0.5648
23996SOL     OW77823   1.121   2.381   1.384  0.3300 -0.2772 -0.2236
23996SOL    HW177824   1.046   2.324   1.369 -0.2200 -0.1075  1.5609
23996SOL    HW277825   1.091   2.468   1.358  0.1561 -0.3333 -0.2123
23997SOL     OW77826   4.834   1.268   6.313 -0.5471  1.1912  0.1027
23997SOL    HW177827   4.808   1.320   6.389  0.8375  0.9901  0.7247
23997SOL    HW277828   4.928   1.283   6.304 -0.0010 -1.4973  0.5454
23998SOL     OW77829   6.965   3.040   6.760  0.0420 -0.0457 -0.2154
23998SOL    HW177830   7.047   3.039   6.810  0.6252  1.7445 -1.0326
23998SOL    HW277831   6.982   3.101   6.688 -1.7000 -0.4034 -0.9799
23999SOL     OW77832   7.101   7.102   0.673  0.4804  0.6825  1.0710
23999SOL    HW177833   7.118   7.126   0.581  0.4231  0.0928  0.9060
23999SOL    HW277834   7.103   7.186   0.719  0.1564  1.0264  0.4766
24000SOL     OW77835   0.176   0.806   5.903  0.4151  0.0816 -0.0853
24000SOL    HW177836   0.104   0.862   5.876  1.2489  1.1685 -0.1251
24000SOL    HW277837   0.137   0.744   5.964 -0.4754  0.8775  0.1801
24001SOL     OW77838   5.637   3.948   9.160 -0.4977  0.0995 -0.2949
24001SOL    HW177839   5.721   3.918   9.194 -0.3591  1.3239  0.5291
24001SOL    HW277840   5.601   4.001   9.231 -1.7001  0.0721 -0.8632
24002SOL     OW77841   3.526   0.954   0.855 -0.1442 -0.1444  0.4945
24002SOL    HW177842   3.618   0.940   0.874 -0.4181 -0.3481  1.7854
24002SOL    HW277843   3.524   1.035   0.803  0.7015  0.3208  1.1574
24003SOL     OW77844   2.887   4.799   8.080 -0.5340 -0.4821  0.3132
24003SOL    HW177845   2.865   4.889   8.056  0.0588 -0.5093 -0.3966
24003SOL    HW277846   2.938   4.807   8.160 -0.2748 -0.1675  0.1180
24004SOL     OW77847   2.118   1.905   2.685  0.3128 -0.2625 -0.0628
24004SOL    HW177848   2.080   1.938   2.766 -0.5851 -1.3503 -0.0200
24004SOL    HW277849   2.098   1.973   2.620 -1.9073 -0.8802 -0.0825
24005SOL     OW77850   7.488   3.896   7.795 -0.1947 -0.7859  0.8908
24005SOL    HW177851   7.579   3.900   7.768 -0.8390 -0.1895 -1.3410
24005SOL    HW277852   7.469   3.803   7.801 -0.5290 -1.1025 -2.8768
24006SOL     OW77853   9.525   6.681   0.666 -0.3137  0.3048  0.4571
24006SOL    HW177854   9.462   6.613   0.688 -0.2644 -0.5701 -1.8441
24006SOL    HW277855   9.606   6.632   0.645 -0.1973  1.0468 -0.9429
24007SOL     OW77856   2.481   7.022   4.148 -0.0879 -0.0815  0.4382
24007SOL    HW177857   2.492   6.927   4.149 -0.7782 -0.2035 -0.9447
24007SOL    HW277858   2.569   7.057   4.162  0.3164 -0.9304  0.0884
24008SOL     OW77859   4.718   3.586   4.172 -0.2967 -0.0489 -0.5231
24008SOL    HW177860   4.711   3.505   4.122  1.5977 -0.1939 -0.6297
24008SOL    HW277861   4.631   3.597   4.211 -0.8510 -1.6656 -1.1880
24009SOL     OW77862   3.244   2.671   4.422  0.3355  0.0283 -0.6142
24009SOL    HW177863   3.254   2.685   4.517  0.7093 -1.0436 -0.4793
24009SOL    HW277864   3.169   2.613   4.415 -0.0128  0.5232 -1.0204
24010SOL     OW77865   7.250   4.482  10.138 -0.0323  0.1265 -0.5128
24010SOL    HW177866   7.269   4.576  10.142  0.4583  0.0447 -0.8436
24010SOL    HW277867   7.321   4.446  10.085  0.1283 -0.5275  0.1275
24011SOL     OW77868   3.893   1.699   8.568  0.1165 -0.6427  0.2359
24011SOL    HW177869   3.942   1.781   8.564  0.0385 -0.5598  0.8632
24011SOL    HW277870   3.932   1.644   8.501 -1.4839  0.8070 -2.0397
24012SOL     OW77871   1.717   7.827  10.063 -0.0227 -0.1364  0.4751
24012SOL    HW177872   1.755   7.742  10.040 -1.6241 -0.7201 -0.1632
24012SOL    HW277873   1.641   7.806  10.118 -3.1151  0.4688 -3.1635
24013SOL     OW77874   8.615   1.767   0.585  0.7073  0.0563 -0.3436
24013SOL    HW177875   8.591   1.704   0.653 -0.7199 -0.0932 -0.9377
24013SOL    HW277876   8.697   1.805   0.615 -0.0861  0.3090  1.7049
24014SOL     OW77877   0.309   1.862  10.831 -0.8883  0.3027 -0.1210
24014SOL    HW177878   0.235   1.805  10.853  0.2578 -1.9809 -1.7296
24014SOL    HW277879   0.385   1.816  10.865 -0.0215  1.6527 -0.1714
24015SOL     OW77880   0.733   7.970   0.042  0.1264 -0.2762 -0.6596
24015SOL    HW177881   0.648   7.983   0.084 -0.2499 -1.9277 -0.8314
24015SOL    HW277882   0.797   7.997   0.109 -0.4957 -1.6625  0.5673
24016SOL     OW77883   8.545   5.175   9.015 -0.4213 -0.5309 -0.2486
24016SOL    HW177884   8.532   5.269   9.025 -2.0377 -0.7361 -0.0873
24016SOL    HW277885   8.579   5.165   8.926  0.4291  0.2408 -0.0242
24017SOL     OW77886   8.082  10.916   6.018 -0.0509 -0.1982  0.0984
24017SOL    HW177887   8.008  10.855   6.025 -0.2317  0.0587  0.4839
24017SOL    HW277888   8.081  10.964   6.101  0.9762 -0.6763  0.4175
24018SOL     OW77889   2.670   9.870   5.647 -0.3660 -0.7634 -0.0283
24018SOL    HW177890   2.629   9.853   5.732 -2.2489 -0.9110 -0.9052
24018SOL    HW277891   2.681   9.965   5.644 -1.0401 -0.6762  0.0821
24019SOL     OW77892   5.600  10.461   7.524  0.5533 -0.2817 -0.0622
24019SOL    HW177893   5.665  10.501   7.467 -0.3243 -1.5149 -2.0747
24019SOL    HW277894   5.633  10.372   7.539  0.0992 -0.4181  0.1573
24020SOL     OW77895   6.477   5.705   8.091 -0.1347  0.2866 -0.2650
24020SOL    HW177896   6.446   5.773   8.032 -2.3893  0.4814  1.0067
24020SOL    HW277897   6.469   5.744   8.178 -0.9006 -1.3629  0.4431
24021SOL     OW77898   6.493   3.198   6.974  0.0055 -0.2447  0.5393
24021SOL    HW177899   6.463   3.136   7.041 -2.2650  3.1309  2.9607
24021SOL    HW277900   6.441   3.176   6.897  0.9376 -2.7152  0.5170
24022SOL     OW77901   1.667   4.477   8.617 -0.3259 -0.4420  0.0071
24022SOL    HW177902   1.661   4.545   8.684 -0.7742 -1.4509  1.0093
24022SOL    HW277903   1.586   4.427   8.625  1.4484 -3.3135  1.7588
24023SOL     OW77904   1.239   3.316   1.486  0.0416 -0.5652  0.0035
24023SOL    HW177905   1.262   3.403   1.518  0.3615 -0.5650 -0.2214
24023SOL    HW277906   1.143   3.315   1.487  0.0464 -0.5842  0.9997
24024SOL     OW77907   3.561   1.093   0.089 -0.6167  0.3557 -0.5922
24024SOL    HW177908   3.587   1.173   0.134  1.5371  0.4347 -1.8607
24024SOL    HW277909   3.473   1.112   0.056 -0.8103  1.5706  0.5296
24025SOL     OW77910   6.063  10.792   2.520  0.3425 -0.1748  0.1957
24025SOL    HW177911   6.104  10.828   2.599  2.5970  1.0661 -1.4074
24025SOL    HW277912   6.133  10.741   2.478 -1.3842 -2.4876 -0.0644
24026SOL     OW77913   9.809   3.163   8.247  0.3566 -0.0235 -0.4656
24026SOL    HW177914   9.763   3.080   8.254  0.9335 -0.3718 -0.7273
24026SOL    HW277915   9.824   3.174   8.153 -1.1766  1.1952 -0.6129
24027SOL     OW77916   7.524   7.687  10.708 -0.2603 -0.9249 -0.1399
24027SOL    HW177917   7.504   7.698  10.614 -1.9780  0.3997  0.3215
24027SOL    HW277918   7.447   7.721  10.752  0.7221 -1.1012  1.7923
24028SOL     OW77919   3.325  10.725   0.933  0.0491 -0.3075 -0.1889
24028SOL    HW177920   3.254  10.687   0.985  1.2977 -0.7469  1.2915
24028SOL    HW277921   3.304  10.701   0.843 -1.9168 -0.0034  0.1407
24029SOL     OW77922   3.412   4.334   8.428  0.0230  0.0992 -0.0163
24029SOL    HW177923   3.329   4.295   8.455 -0.7056  2.2556  1.0028
24029SOL    HW277924   3.387   4.403   8.366  1.0883  0.5033 -0.0102
24030SOL     OW77925   0.629   0.374   5.380 -0.2628  1.0082 -0.1541
24030SOL    HW177926   0.675   0.451   5.345  0.6838  0.7546  0.4797
24030SOL    HW277927   0.679   0.300   5.347  0.1227  0.7407  0.9766
24031SOL     OW77928   5.031   6.410   8.106  0.4558 -0.2293  0.7024
24031SOL    HW177929   4.948   6.456   8.111  0.1728 -0.7841  1.3521
24031SOL    HW277930   5.057   6.397   8.198  2.5241  2.1323  0.5569
24032SOL     OW77931   4.329   4.063   7.319 -0.0987 -0.0937 -0.0896
24032SOL    HW177932   4.414   4.047   7.360 -0.9199  0.0341  1.7686
24032SOL    HW277933   4.347   4.061   7.225  2.1579  1.0645  0.2455
24033SOL     OW77934   1.679   3.871  10.188  0.1243  0.6938 -0.0875
24033SOL    HW177935   1.674   3.804  10.120  1.0564  1.3962 -0.8723
24033SOL    HW277936   1.766   3.860  10.226 -0.0638  0.8787  0.4043
24034SOL     OW77937   2.225   3.127   0.579 -0.1582 -0.4879 -0.5916
24034SOL    HW177938   2.277   3.120   0.499  1.1891  0.7236  0.1465
24034SOL    HW277939   2.285   3.105   0.649 -0.3276  1.8844  0.3660
24035SOL     OW77940   0.599   9.487   0.053  0.0865 -0.0971  0.1187
24035SOL    HW177941   0.637   9.560   0.004 -0.2752 -0.6698 -1.0516
24035SOL    HW277942   0.671   9.454   0.107  0.7125  0.0716 -0.5979
24036SOL     OW77943   9.533   3.639   9.013  0.2532 -0.3896  0.4597
24036SOL    HW177944   9.562   3.552   9.039  0.6227 -0.6495 -0.7683
24036SOL    HW277945   9.614   3.689   8.999  0.1782 -0.8661 -2.1355
24037SOL     OW77946   4.560   9.911   8.843 -0.1715 -0.5608 -0.1592
24037SOL    HW177947   4.543   9.943   8.932  0.0771 -1.8448  0.3761
24037SOL    HW277948   4.654   9.896   8.841 -0.4765 -2.8582  0.2098
24038SOL     OW77949   2.487   9.965   2.752 -0.6985 -0.2579 -0.4617
24038SOL    HW177950   2.475  10.060   2.750  0.1711 -0.0585  1.5765
24038SOL    HW277951   2.581   9.952   2.758 -0.5806 -1.3843 -3.0780
24039SOL     OW77952   5.692   7.595   9.373 -0.5029  0.2479 -0.5704
24039SOL    HW177953   5.652   7.535   9.310  0.4862  2.0554 -3.0661
24039SOL    HW277954   5.767   7.547   9.407  0.1031 -0.0882 -2.2986
24040SOL     OW77955   8.858   0.156   7.417 -0.0406  0.2635  0.2445
24040SOL    HW177956   8.952   0.165   7.433  0.1042 -2.2285  1.2834
24040SOL    HW277957   8.851   0.095   7.343 -0.8495  1.0089 -0.3175
24041SOL     OW77958   1.164   9.131   9.683  0.0149  0.1539  0.3392
24041SOL    HW177959   1.075   9.157   9.658 -0.7668  0.3481  3.0283
24041SOL    HW277960   1.204   9.211   9.716 -0.7081 -0.8226  4.0102
24042SOL     OW77961   6.091   0.627   9.625 -0.5660 -0.0536  0.2181
24042SOL    HW177962   6.031   0.701   9.627 -0.7363 -0.0814 -1.7871
24042SOL    HW277963   6.077   0.582   9.709 -1.9170  1.0256  0.6027
24043SOL     OW77964   8.952   7.521   1.265 -0.1493 -0.0605  0.1174
24043SOL    HW177965   8.925   7.452   1.326 -1.3007 -0.1588 -0.4878
24043SOL    HW277966   9.047   7.512   1.260  0.0075  0.0002  1.9594
24044SOL     OW77967   7.857   7.131   9.040 -0.0118 -0.3989  0.5925
24044SOL    HW177968   7.911   7.201   9.005  0.2185 -1.1263 -0.5518
24044SOL    HW277969   7.835   7.160   9.129  0.6582  0.7810  0.3951
24045SOL     OW77970   1.785   9.914   4.162 -0.4005  0.0451  0.2318
24045SOL    HW177971   1.736   9.919   4.080 -0.3610  0.2472  0.2186
24045SOL    HW277972   1.771   9.824   4.193 -1.5226  0.3527  0.6876
24046SOL     OW77973   6.903   2.938   7.793  0.1355  0.0105 -0.0649
24046SOL    HW177974   6.827   2.889   7.826  0.5093 -0.4579  0.1096
24046SOL    HW277975   6.876   3.029   7.799  0.0259 -0.0783  1.1501
24047SOL     OW77976   7.486   4.784   5.367  0.7406  0.4430 -0.4479
24047SOL    HW177977   7.415   4.840   5.398 -0.8264 -1.7666  0.1883
24047SOL    HW277978   7.529   4.752   5.447  0.4606 -0.6327 -0.7061
24048SOL     OW77979   2.658   7.851  10.397  0.4167  0.1037 -0.7293
24048SOL    HW177980   2.678   7.930  10.447  0.9045 -0.4033 -0.1134
24048SOL    HW277981   2.659   7.780  10.461 -0.6711 -0.3264 -1.1617
24049SOL     OW77982   4.319   4.495   0.689  0.1365 -0.1491 -0.0776
24049SOL    HW177983   4.296   4.439   0.615  0.7462  0.9111 -1.0757
24049SOL    HW277984   4.372   4.565   0.652 -0.4259  0.9890  1.1798
24050SOL     OW77985   8.227   4.025   4.656 -0.0109 -0.1114 -0.2967
24050SOL    HW177986   8.239   4.115   4.626 -1.8063 -0.1748 -1.3336
24050SOL    HW277987   8.132   4.013   4.658  0.1108 -1.2415  2.1586
24051SOL     OW77988   8.248   8.929   4.778  0.1020  0.7390  0.2381
24051SOL    HW177989   8.252   8.833   4.777  1.2731  0.7799 -0.8684
24051SOL    HW277990   8.295   8.954   4.857 -0.1406  0.4100  0.4892
24052SOL     OW77991   2.567   6.589   1.220 -0.4098 -0.0438 -0.0695
24052SOL    HW177992   2.535   6.664   1.270 -1.2216  0.7054 -1.6478
24052SOL    HW277993   2.492   6.529   1.215 -0.1117 -0.4468  0.2171
24053SOL     OW77994   3.388   2.991   2.483 -0.3090  0.1060  0.0424
24053SOL    HW177995   3.314   3.000   2.542  0.1207  1.3569  0.4316
24053SOL    HW277996   3.463   2.974   2.540 -0.4134 -2.1566 -0.4129
24054SOL     OW77997   1.191   7.843   2.401 -0.0980 -0.0839  0.2528
24054SOL    HW177998   1.173   7.822   2.309  0.6061  0.1312  0.0563
24054SOL    HW277999   1.129   7.914   2.421  1.6511  1.9400 -0.9677
24055SOL     OW78000   9.668   1.857   0.383  0.3130 -0.4470  0.1571
24055SOL    HW178001   9.695   1.948   0.369 -0.4069  0.0529  1.8787
24055SOL    HW278002   9.627   1.856   0.469 -0.5379 -2.2300 -0.2177
24056SOL     OW78003   5.810   7.383   0.571 -0.3618  0.0278 -0.7643
24056SOL    HW178004   5.906   7.379   0.564 -0.3123 -0.2053 -0.0677
24056SOL    HW278005   5.782   7.433   0.494  0.4858  2.1260  0.2163
24057SOL     OW78006   1.127   3.204   9.856  0.0399  0.0915  0.2390
24057SOL    HW178007   1.159   3.115   9.845 -0.4617 -0.1871  0.9377
24057SOL    HW278008   1.062   3.198   9.926  1.3824  1.3348  1.6780
24058SOL     OW78009  10.416   1.527   9.015  0.3421 -0.6152  0.6194
24058SOL    HW178010  10.497   1.494   9.052  0.0864 -0.3336  1.4484
24058SOL    HW278011  10.394   1.603   9.068 -1.3061 -1.6263  1.4666
24059SOL     OW78012   7.087   3.800   0.658 -0.3647  0.0594 -0.1766
24059SOL    HW178013   7.014   3.844   0.702 -0.7715 -1.6500  0.9486
24059SOL    HW278014   7.131   3.752   0.727  0.6551 -0.5155 -1.1957
24060SOL     OW78015   9.639   3.321   3.954 -0.4420  1.0928 -0.1817
24060SOL    HW178016   9.714   3.374   3.980  1.7672 -0.6955 -2.3507
24060SOL    HW278017   9.600   3.369   3.881 -0.2664  1.1624 -0.2312
24061SOL     OW78018   6.578   0.731   6.568 -0.4359  0.3442 -0.0706
24061SOL    HW178019   6.654   0.721   6.624  1.2705 -0.1436 -2.3269
24061SOL    HW278020   6.562   0.826   6.565  0.4281  0.4992  0.0301
24062SOL     OW78021   3.694   2.895   4.424 -0.2273 -0.0514 -0.0364
24062SOL    HW178022   3.692   2.874   4.518  1.3706  0.1093  0.0617
24062SOL    HW278023   3.604   2.922   4.404 -0.6895 -0.4429  1.3627
24063SOL     OW78024   2.935   9.164   1.769 -0.4808  0.1239 -0.5147
24063SOL    HW178025   2.865   9.099   1.782  0.6199 -0.8853  0.6680
24063SOL    HW278026   2.892   9.248   1.783 -1.5734 -0.4403 -0.3296
24064SOL     OW78027   5.196   3.398   5.370 -0.0153  0.1380 -0.4332
24064SOL    HW178028   5.214   3.468   5.433  0.7419  0.8570 -1.4106
24064SOL    HW278029   5.191   3.443   5.285 -0.8004 -0.8324 -0.9202
24065SOL     OW78030   1.827  10.151   0.449 -0.0018  0.0771  0.1881
24065SOL    HW178031   1.821  10.238   0.409  1.0029  0.0296 -0.0962
24065SOL    HW278032   1.916  10.121   0.427 -1.1298 -2.0641 -1.8865
24066SOL     OW78033   7.140  10.610   5.862  0.4816 -0.6005 -0.3586
24066SOL    HW178034   7.201  10.677   5.832  1.7100 -0.4570  2.2030
24066SOL    HW278035   7.083  10.656   5.924 -0.5727 -1.3318 -0.7485
24067SOL     OW78036   9.463   1.997   3.565  0.4862 -0.5780 -0.8069
24067SOL    HW178037   9.531   2.021   3.502 -0.5729  1.2435 -1.3485
24067SOL    HW278038   9.387   1.973   3.511  0.2273 -1.0933 -0.2241
24068SOL     OW78039   3.292   0.665   7.914  0.4647 -0.1726 -0.1548
24068SOL    HW178040   3.275   0.584   7.963 -0.9693  0.0653 -0.2106
24068SOL    HW278041   3.280   0.735   7.979 -1.2649  0.1362 -0.7629
24069SOL     OW78042   5.987   4.198  10.614  0.0293 -0.3688 -0.0375
24069SOL    HW178043   6.022   4.279  10.577  2.1740 -1.3361 -0.2963
24069SOL    HW278044   5.957   4.148  10.538 -0.9920  0.0144  0.0950
24070SOL     OW78045   1.155   4.427  10.604  0.1902  0.2745  0.3900
24070SOL    HW178046   1.218   4.450  10.672  0.8904 -0.3088 -0.0546
24070SOL    HW278047   1.205   4.377  10.540 -0.3747  1.0957 -0.7270
24071SOL     OW78048   7.350  10.913   0.759 -0.1221 -0.0256  0.1192
24071SOL    HW178049   7.259  10.940   0.746 -0.3233 -1.0449 -0.6357
24071SOL    HW278050   7.351  10.873   0.846 -0.6990 -1.2151 -0.4047
24072SOL     OW78051   6.765   2.187   8.686  0.2622  0.3272  0.2180
24072SOL    HW178052   6.701   2.218   8.622 -0.2474 -0.0773  0.5257
24072SOL    HW278053   6.752   2.243   8.763 -0.0730 -0.0750  0.4621
24073SOL     OW78054   3.315   5.622   6.004 -0.0856  0.2164 -0.3188
24073SOL    HW178055   3.404   5.587   6.005 -0.1856 -0.0519  0.8408
24073SOL    HW278056   3.264   5.558   5.955  0.3219  0.2842 -0.8344
24074SOL     OW78057   1.509   7.478   6.460  0.2614  0.8022 -0.1442
24074SOL    HW178058   1.472   7.402   6.505  0.6779  1.4010  1.2669
24074SOL    HW278059   1.563   7.521   6.526  3.2362  0.1998 -1.9927
24075SOL     OW78060  10.186   2.699   8.299 -0.0388  0.0042 -0.2707
24075SOL    HW178061  10.119   2.631   8.308 -0.2604  0.2032 -0.4100
24075SOL    HW278062  10.250   2.661   8.238  1.2915 -1.2045  1.7476
24076SOL     OW78063   1.987   0.073   1.901  0.0150 -0.0967 -0.3220
24076SOL    HW178064   1.980   0.070   1.806  1.1556 -1.3627 -0.4037
24076SOL    HW278065   2.013   0.163   1.920  1.0678 -0.1506 -1.3496
24077SOL     OW78066   6.567   6.638   7.004 -0.3868 -0.5387 -0.3230
24077SOL    HW178067   6.647   6.647   7.056 -2.9934 -1.6539  4.5469
24077SOL    HW278068   6.528   6.726   7.006  0.1575 -0.2268 -1.8667
24078SOL     OW78069   6.774   3.745   6.140  0.7543  0.3220  0.3017
24078SOL    HW178070   6.840   3.754   6.209  0.2438  0.8043  0.7396
24078SOL    HW278071   6.698   3.707   6.184  0.2342  1.1420  0.1407
24079SOL     OW78072   5.220   5.138   0.967  0.0283 -0.3602  0.0431
24079SOL    HW178073   5.219   5.233   0.979 -0.7247 -0.4040  0.3782
24079SOL    HW278074   5.311   5.117   0.947  0.0891  0.5087 -0.6499
24080SOL     OW78075   9.839   7.953   2.201  0.5359 -0.3342 -0.0052
24080SOL    HW178076   9.807   7.871   2.238  0.3176 -0.8929 -1.3868
24080SOL    HW278077   9.817   7.948   2.108  0.4292  1.3405 -0.0976
24081SOL     OW78078   9.148   3.986   3.219 -0.1584  0.7407 -0.5120
24081SOL    HW178079   9.122   3.897   3.196  0.7824  0.6196 -1.1443
24081SOL    HW278080   9.077   4.040   3.184 -0.0250  0.3451 -1.4306
24082SOL     OW78081  10.640   6.985   5.228 -0.2499  0.0388  0.0752
24082SOL    HW178082  10.632   6.891   5.247 -0.2577 -0.0417 -0.3023
24082SOL    HW278083  10.614   7.028   5.309 -1.3972 -0.2713 -0.1039
24083SOL     OW78084   8.046   4.980   9.695 -0.0461  0.2460  0.0612
24083SOL    HW178085   8.123   4.943   9.739  1.6411  1.4945 -1.7045
24083SOL    HW278086   8.044   5.071   9.724  0.6513  0.8828 -1.7454
24084SOL     OW78087   7.935   4.109   9.303  0.1443 -0.3053 -0.0889
24084SOL    HW178088   7.929   4.204   9.306  0.4330 -0.2961  0.2576
24084SOL    HW278089   7.937   4.087   9.210 -1.9661 -0.1039 -0.2412
24085SOL     OW78090   1.249   8.168   2.494 -1.0197  0.7113 -0.2656
24085SOL    HW178091   1.319   8.172   2.560  0.3952  2.4676 -1.7761
24085SOL    HW278092   1.170   8.146   2.545  0.6306 -1.8345  1.4329
24086SOL     OW78093   2.634   4.760   5.356  0.0255 -0.5285 -0.0238
24086SOL    HW178094   2.710   4.702   5.356  1.7340  1.5786  0.6190
24086SOL    HW278095   2.588   4.740   5.437  0.2499 -1.3893 -0.1004
24087SOL     OW78096  10.104   0.802   7.970  0.0004  0.1988 -0.5085
24087SOL    HW178097  10.114   0.896   7.961  0.6181  0.2471  0.4189
24087SOL    HW278098  10.174   0.765   7.916 -0.8020  0.2350 -1.5860
24088SOL     OW78099   9.459   7.287   6.116 -0.2657 -0.0056 -0.2247
24088SOL    HW178100   9.489   7.238   6.193  0.7192  1.6506  0.5045
24088SOL    HW278101   9.539   7.307   6.067 -0.6841  0.5320 -0.7072
24089SOL     OW78102   9.687   7.966   5.888 -0.3781 -0.4000 -0.3491
24089SOL    HW178103   9.734   8.021   5.950  0.8722 -0.6507 -1.0498
24089SOL    HW278104   9.709   7.876   5.912  1.8045 -0.4996 -2.3219
24090SOL     OW78105   0.796   3.605   2.113 -0.1108 -0.1158  0.1688
24090SOL    HW178106   0.725   3.642   2.060 -0.0364  1.7622  1.3054
24090SOL    HW278107   0.757   3.531   2.157 -0.8122 -0.2918 -0.7175
24091SOL     OW78108   0.803   4.918   0.362 -0.2595 -0.6049  0.2070
24091SOL    HW178109   0.742   4.977   0.407 -0.1447 -0.6442  0.4126
24091SOL    HW278110   0.890   4.951   0.385 -0.1738 -1.4300  1.0961
24092SOL     OW78111  10.114   1.477   5.227 -0.7404  0.0950 -0.6973
24092SOL    HW178112  10.069   1.560   5.242 -0.1876  0.8928 -2.9217
24092SOL    HW278113  10.066   1.436   5.155  0.7186 -0.0620 -1.6345
24093SOL     OW78114   4.474   5.800  10.887 -0.8197  0.3048  0.2365
24093SOL    HW178115   4.531   5.732  10.849  0.3867  0.1425  2.2232
24093SOL    HW278116   4.493   5.878  10.834  2.0549  0.5172  1.3731
24094SOL     OW78117   1.919   9.937   8.970  0.2215 -0.1965  0.6732
24094SOL    HW178118   1.915   9.915   8.877  0.7038 -0.2420  0.6613
24094SOL    HW278119   1.904  10.032   8.973 -0.3868 -0.2840  0.6039
24095SOL     OW78120   3.704   0.571   2.317 -0.5697  0.0339  0.0825
24095SOL    HW178121   3.684   0.478   2.308 -1.1285  0.1159  0.4747
24095SOL    HW278122   3.643   0.603   2.383 -0.9537  0.8566 -0.6480
24096SOL     OW78123   3.581   5.020  10.814  0.5221 -0.0458  0.0136
24096SOL    HW178124   3.648   5.036  10.880 -0.7988 -0.0349  1.3919
24096SOL    HW278125   3.625   5.039  10.731  1.9188  0.9830  0.9351
24097SOL     OW78126   0.582   9.455   3.577 -0.6625 -0.1680  0.0720
24097SOL    HW178127   0.646   9.395   3.537 -0.6548  1.0683 -1.8987
24097SOL    HW278128   0.603   9.453   3.671  2.4196  0.2948 -0.4941
24098SOL     OW78129   0.328   3.911   3.156  0.1927  0.3163  0.1257
24098SOL    HW178130   0.279   3.975   3.207 -0.4633  0.1658 -0.3111
24098SOL    HW278131   0.420   3.931   3.175 -0.0362 -0.2803  2.0427
24099SOL     OW78132   0.394   6.096   1.439 -0.0183 -0.0758 -0.1576
24099SOL    HW178133   0.439   6.018   1.473  0.8699 -0.0883 -1.2857
24099SOL    HW278134   0.324   6.113   1.503 -1.0234 -2.5027 -0.4958
24100SOL     OW78135  10.514   3.746   0.418 -0.2138  0.2049  0.0006
24100SOL    HW178136  10.592   3.791   0.452  1.0280 -2.1977  0.5782
24100SOL    HW278137  10.548   3.685   0.352 -2.0998  1.7092 -2.5314
24101SOL     OW78138   2.114   4.217   7.801 -0.0223  0.1540  0.7419
24101SOL    HW178139   2.075   4.133   7.827  1.4251 -0.6367  0.5011
24101SOL    HW278140   2.109   4.216   7.705  0.0055  0.3526  0.7389
24102SOL     OW78141   6.628   1.459  10.335 -0.4311 -0.3177  0.1157
24102SOL    HW178142   6.673   1.377  10.359 -1.0535 -0.4074  1.0303
24102SOL    HW278143   6.608   1.500  10.419  1.6745  1.8086 -0.3220
24103SOL     OW78144   0.555   2.496   7.027  0.1629 -0.0935  0.2993
24103SOL    HW178145   0.534   2.561   6.960  0.5470 -0.1672  0.1081
24103SOL    HW278146   0.471   2.480   7.071 -0.1450 -0.2208 -0.3201
24104SOL     OW78147   2.402   6.595   3.794  0.4397  0.5053  0.1832
24104SOL    HW178148   2.331   6.606   3.858  0.8600 -0.1704  0.7777
24104SOL    HW278149   2.479   6.576   3.847  0.6462 -0.8059 -0.5423
24105SOL     OW78150   3.329   9.838   3.796  0.5855 -0.3574  0.2810
24105SOL    HW178151   3.422   9.818   3.786  0.6608  0.8643 -1.8300
24105SOL    HW278152   3.286   9.792   3.724 -0.4323 -0.5963  1.0057
24106SOL     OW78153   2.393   2.460   2.804 -0.1679  0.2322  0.8029
24106SOL    HW178154   2.386   2.539   2.858  2.9434  1.4868 -0.3739
24106SOL    HW278155   2.417   2.390   2.865  1.5004  1.2293  1.3754
24107SOL     OW78156  10.697   4.806   2.237 -0.0218  0.1487  0.3753
24107SOL    HW178157  10.646   4.791   2.157 -0.9912  1.4887  0.7138
24107SOL    HW278158  10.775   4.853   2.206  0.4938 -0.9278  0.0010
24108SOL     OW78159   6.113   8.106   9.377 -0.1927  0.4679 -0.6117
24108SOL    HW178160   6.186   8.162   9.353  0.0485  0.0496 -0.8678
24108SOL    HW278161   6.099   8.122   9.470  1.3423 -0.7195 -0.1370
24109SOL     OW78162   4.123   9.784   8.789  0.2228 -0.2076  0.7433
24109SOL    HW178163   4.108   9.873   8.758  1.9662  0.2706  1.1765
24109SOL    HW278164   4.211   9.763   8.759 -0.0897 -1.7385  0.8078
24110SOL     OW78165   6.420   6.903   4.956 -0.0591  0.2424  0.0590
24110SOL    HW178166   6.490   6.958   4.992 -0.9963  0.1475  2.1127
24110SOL    HW278167   6.371   6.961   4.898  0.4920  0.8446  0.1871
24111SOL     OW78168   3.853   4.053   3.247 -0.8609  0.6308  0.0430
24111SOL    HW178169   3.918   4.071   3.315 -0.9003 -1.1656  0.6194
24111SOL    HW278170   3.769   4.049   3.294 -0.7169 -2.0723  0.2301
24112SOL     OW78171   3.439  10.336   7.903  0.1416 -0.3167 -0.1804
24112SOL    HW178172   3.437  10.278   7.827  1.8158 -0.3604 -0.2277
24112SOL    HW278173   3.468  10.281   7.975  0.7676  0.2222 -0.0074
24113SOL     OW78174   6.371   0.472   5.230 -0.4232 -0.1921 -0.2757
24113SOL    HW178175   6.355   0.378   5.229 -0.2992 -0.2192  0.0801
24113SOL    HW278176   6.341   0.503   5.144  0.0244 -0.6344 -0.5919
24114SOL     OW78177   3.957   2.820   4.291 -0.0602 -0.1992 -0.1241
24114SOL    HW178178   3.864   2.805   4.273  0.3476 -0.9406 -1.8659
24114SOL    HW278179   3.971   2.913   4.270 -0.1862 -0.3772 -1.0415
24115SOL     OW78180   1.262   5.696   4.411 -0.3820  0.1760 -0.5716
24115SOL    HW178181   1.314   5.658   4.482 -0.2370 -1.3639 -1.4587
24115SOL    HW278182   1.179   5.648   4.413 -1.4440  1.9146  0.1778
24116SOL     OW78183   0.475   9.666   2.008  1.1363 -0.2145  0.3433
24116SOL    HW178184   0.565   9.673   2.040  2.7434 -1.2747 -3.3963
24116SOL    HW278185   0.457   9.750   1.968  0.4554 -0.0529  0.9675
24117SOL     OW78186   6.878   0.818   4.927 -0.4007 -0.0333  0.5697
24117SOL    HW178187   6.920   0.799   5.011 -0.2262  1.1637  0.7794
24117SOL    HW278188   6.826   0.741   4.908  0.3590 -0.7410  1.2800
24118SOL     OW78189   0.144   0.066   1.280 -0.0001 -0.1038  0.0947
24118SOL    HW178190   0.102   0.121   1.347 -1.2746 -0.7797 -0.1087
24118SOL    HW278191   0.199   0.126   1.230 -0.6874  0.8264  0.4233
24119SOL     OW78192   1.158   5.332   6.115 -0.2446  0.5138 -0.2809
24119SOL    HW178193   1.138   5.289   6.032 -1.0537  0.1020  0.1069
24119SOL    HW278194   1.189   5.262   6.172  1.2980  0.9722 -0.5349
24120SOL     OW78195   1.201   9.523   5.861  0.0215 -0.2374 -0.0905
24120SOL    HW178196   1.278   9.468   5.847 -0.1301 -0.4411 -0.1337
24120SOL    HW278197   1.235   9.612   5.868  0.2672 -0.3385 -0.0306
24121SOL     OW78198   1.327   5.184   3.940 -0.0998 -0.1470 -0.1667
24121SOL    HW178199   1.331   5.126   4.015  0.5126  0.5308  0.3420
24121SOL    HW278200   1.397   5.248   3.955 -2.0135  1.9564  0.3132
24122SOL     OW78201  10.608   8.934   4.925 -0.1580  0.0974 -0.2655
24122SOL    HW178202  10.548   9.008   4.936 -1.0959 -0.6557 -0.1561
24122SOL    HW278203  10.554   8.857   4.940  0.7300 -0.6290 -0.6750
24123SOL     OW78204   5.261   4.097   3.096 -0.2918 -0.6103 -0.1029
24123SOL    HW178205   5.203   4.054   3.032 -1.9260  2.0196 -0.5360
24123SOL    HW278206   5.249   4.046   3.176  0.3368 -2.8270 -1.3280
24124SOL     OW78207   4.976   7.513   0.785  0.0964 -0.2973  0.2153
24124SOL    HW178208   4.947   7.425   0.808  0.4442 -0.3030  0.6409
24124SOL    HW278209   4.917   7.571   0.834 -1.6815 -0.2175 -1.8437
24125SOL     OW78210   0.934   3.615   8.784  0.1095 -0.5732  0.1870
24125SOL    HW178211   0.902   3.540   8.835 -0.1919 -0.2130  0.5378
24125SOL    HW278212   1.014   3.642   8.829 -0.5028  0.1535  0.8833
24126SOL     OW78213   3.592   7.854   6.036  0.1285 -0.0996 -0.0469
24126SOL    HW178214   3.507   7.826   6.004 -0.6899  2.1412  0.0034
24126SOL    HW278215   3.655   7.811   5.979 -1.1553  0.6675 -2.1320
24127SOL     OW78216   4.410   7.671   0.610  0.1411 -0.6353  0.4962
24127SOL    HW178217   4.434   7.686   0.519 -0.8256 -2.1143 -0.0414
24127SOL    HW278218   4.492   7.683   0.659  0.4682  1.1396 -0.4135
24128SOL     OW78219   1.821   8.652   8.867  0.6653 -0.2364  0.2472
24128SOL    HW178220   1.862   8.678   8.950 -0.5591  0.5593  0.6204
24128SOL    HW278221   1.758   8.721   8.848  0.6197 -0.6308 -1.1445
24129SOL     OW78222   2.702   1.964  10.736  0.2070 -0.2516 -0.0610
24129SOL    HW178223   2.617   2.004  10.750 -0.0129 -0.2607 -1.3199
24129SOL    HW278224   2.753   2.029  10.689  0.7507 -0.4279  0.2645
24130SOL     OW78225   3.175   3.829   0.518  0.7932  0.2510 -0.3751
24130SOL    HW178226   3.180   3.922   0.537 -0.0371  0.2078  0.1374
24130SOL    HW278227   3.246   3.790   0.569  1.7816  0.7019 -1.3819
24131SOL     OW78228   5.114   0.365   4.865 -0.6453 -0.0771 -0.3279
24131SOL    HW178229   5.113   0.311   4.786 -0.3438  0.2830 -0.5847
24131SOL    HW278230   5.140   0.452   4.834 -0.0379 -0.0483  0.2379
24132SOL     OW78231  10.400   3.002   2.879  0.1354 -0.1810 -0.4723
24132SOL    HW178232  10.338   2.934   2.851 -0.2745 -0.8199  1.7618
24132SOL    HW278233  10.446   2.963   2.954 -0.4813  2.1279  1.2526
24133SOL     OW78234   8.159   4.108   8.241  0.2457  0.6189 -0.2299
24133SOL    HW178235   8.190   4.178   8.299  1.8911  0.5854 -1.0059
24133SOL    HW278236   8.223   4.038   8.253 -0.7693 -0.3432 -0.2825
24134SOL     OW78237   6.213   2.772   5.783 -0.0256  0.2166  0.3203
24134SOL    HW178238   6.200   2.853   5.832  0.7334  1.8106 -1.9296
24134SOL    HW278239   6.305   2.749   5.798  0.5974  1.4514 -1.2701
24135SOL     OW78240   2.976   0.843   5.016  0.1718  0.4205  0.4285
24135SOL    HW178241   2.961   0.826   4.923 -0.4775 -1.9704  0.9074
24135SOL    HW278242   3.070   0.859   5.023  0.4137 -0.5288 -0.4851
24136SOL     OW78243   7.428   2.657   6.362  0.4802 -0.2710  0.0173
24136SOL    HW178244   7.354   2.697   6.408 -0.3889  0.5624 -1.9698
24136SOL    HW278245   7.489   2.729   6.346  1.0374 -0.6614  0.3810
24137SOL     OW78246   3.589   0.950   6.874 -0.0804  0.3197 -0.3103
24137SOL    HW178247   3.679   0.926   6.893  0.0579  0.1386 -1.1625
24137SOL    HW278248   3.563   1.005   6.948  0.0171 -1.3643  1.0534
24138SOL     OW78249   1.469   0.402  10.332  0.3178 -0.4291 -0.0171
24138SOL    HW178250   1.435   0.396  10.243 -0.9481 -0.5690  0.4499
24138SOL    HW278251   1.408   0.461  10.377  1.6209  0.5805  0.4542
24139SOL     OW78252   3.759   2.836   8.618 -0.1584  0.2883 -0.5721
24139SOL    HW178253   3.671   2.857   8.648 -0.9591  1.0200 -3.1723
24139SOL    HW278254   3.762   2.740   8.618 -0.2497  0.2497  1.2705
24140SOL     OW78255   8.777   6.644   5.244  0.4260  0.3223 -0.5439
24140SOL    HW178256   8.763   6.700   5.320 -0.4444 -1.2435  0.5148
24140SOL    HW278257   8.689   6.617   5.218  0.8212 -2.9360  0.9143
24141SOL     OW78258   1.405   9.939   7.833 -0.3693  0.4265 -0.5660
24141SOL    HW178259   1.317   9.974   7.847 -0.7854 -0.1581 -1.5988
24141SOL    HW278260   1.393   9.845   7.829  0.6022  0.1873  1.2127
24142SOL     OW78261   0.698   3.886   9.328 -0.2556  0.6851  0.0766
24142SOL    HW178262   0.708   3.794   9.304 -2.2982  0.6685 -0.9181
24142SOL    HW278263   0.676   3.885   9.421  2.1645  0.3847  0.7184
24143SOL     OW78264   2.220   5.781   9.515  0.0601 -0.2937 -0.2622
24143SOL    HW178265   2.265   5.709   9.559  2.3392  0.3664 -1.3728
24143SOL    HW278266   2.162   5.739   9.452 -0.5703 -1.1785  0.8931
24144SOL     OW78267  10.443   7.673   2.344  0.2398  0.0699  0.0114
24144SOL    HW178268  10.464   7.691   2.252 -1.1382  2.7093  0.1027
24144SOL    HW278269  10.348   7.673   2.348  0.2713 -0.4532  1.3831
24145SOL     OW78270   3.272   2.314   6.340  0.3876 -0.5013  0.0450
24145SOL    HW178271   3.271   2.330   6.434 -0.5407  2.5069 -0.3568
24145SOL    HW278272   3.365   2.309   6.318  0.6196 -0.8185  1.0423
24146SOL     OW78273   4.004   1.429   1.453 -0.0375 -0.2989  0.3499
24146SOL    HW178274   4.040   1.414   1.540  1.3741  0.0116 -0.1555
24146SOL    HW278275   4.078   1.420   1.394 -1.3249 -2.4570 -1.0617
24147SOL     OW78276   4.545   3.258   0.550 -0.8696  0.1231  0.1966
24147SOL    HW178277   4.536   3.316   0.626 -0.8315 -1.9784  1.8790
24147SOL    HW278278   4.613   3.195   0.575 -1.6410 -1.3030 -1.1291
24148SOL     OW78279   9.230   3.658   7.127 -0.1030  0.0754 -0.1473
24148SOL    HW178280   9.170   3.726   7.096 -0.7204 -0.2151  0.3855
24148SOL    HW278281   9.244   3.679   7.219  1.4732  0.7540 -0.5225
24149SOL     OW78282  10.243   0.976   9.248  0.8082  0.0679 -0.1169
24149SOL    HW178283  10.227   0.922   9.325 -1.1686  0.5873 -0.1097
24149SOL    HW278284  10.295   1.050   9.280 -0.7394  0.7341  0.9315
24150SOL     OW78285   2.653  10.228   8.718 -0.1687 -0.4200 -0.0701
24150SOL    HW178286   2.646  10.299   8.782  0.1281 -0.6981  0.2784
24150SOL    HW278287   2.574  10.235   8.665 -0.9805 -0.8769  1.0354
24151SOL     OW78288   0.549   7.890   8.574 -0.4897 -0.6062  0.6428
24151SOL    HW178289   0.511   7.944   8.504 -0.1120 -0.9197  0.1929
24151SOL    HW278290   0.512   7.803   8.560  1.3788 -1.2644 -0.6324
24152SOL     OW78291   6.385   0.528   9.526 -0.4103  0.8755 -1.0654
24152SOL    HW178292   6.396   0.497   9.436  1.2356  0.7377 -0.8522
24152SOL    HW278293   6.468   0.573   9.546  0.0722 -0.7763  1.0143
24153SOL     OW78294   1.946   6.071   6.784 -0.2024  0.3102 -0.1451
24153SOL    HW178295   1.967   6.042   6.873 -0.8801  1.2742  0.3365
24153SOL    HW278296   1.906   6.157   6.795  0.0178  0.5966 -1.4127
24154SOL     OW78297   7.956   5.066   0.799 -0.3606 -0.3912 -0.0859
24154SOL    HW178298   7.861   5.061   0.808 -0.6618  0.4440 -2.2766
24154SOL    HW278299   7.980   5.150   0.837 -0.3654 -0.9467  1.1869
24155SOL     OW78300   0.946   7.740   0.621  0.4280 -0.0493 -0.1270
24155SOL    HW178301   0.889   7.691   0.681 -0.1931 -1.0677 -1.4987
24155SOL    HW278302   0.893   7.815   0.595 -0.4689 -1.1328 -1.6060
24156SOL     OW78303   5.119   6.599   2.343  0.3636 -0.2415  0.1962
24156SOL    HW178304   5.062   6.651   2.286  1.0274  0.3162  0.0314
24156SOL    HW278305   5.119   6.512   2.303  0.2300 -0.0517 -0.2284
24157SOL     OW78306   2.484   2.589   2.531 -0.4424 -0.5183  0.0114
24157SOL    HW178307   2.468   2.554   2.619 -0.7421 -0.1279  0.1165
24157SOL    HW278308   2.508   2.680   2.546 -0.6076 -0.4191 -0.3245
24158SOL     OW78309   5.115   1.666  10.372 -0.5611  0.0507 -0.6195
24158SOL    HW178310   5.084   1.609  10.442 -2.0958  0.8190 -0.6421
24158SOL    HW278311   5.137   1.606  10.300  0.7707 -0.7201  0.3800
24159SOL     OW78312   4.287   5.078   9.706  1.1381 -1.0647 -0.6307
24159SOL    HW178313   4.304   4.989   9.737  1.4184 -1.0382 -0.7020
24159SOL    HW278314   4.373   5.120   9.709  0.6993 -0.1990  1.2612
24160SOL     OW78315   7.327   3.468   5.398  0.2923  0.3386  0.1165
24160SOL    HW178316   7.332   3.435   5.487 -1.7466  0.6712  0.3815
24160SOL    HW278317   7.341   3.390   5.343 -0.5318 -0.2632  0.7392
24161SOL     OW78318   3.694   4.776   4.912 -0.3497 -0.1415  0.8218
24161SOL    HW178319   3.600   4.766   4.923 -0.5732  1.0109  0.1303
24161SOL    HW278320   3.710   4.869   4.925  0.6924 -0.3152  0.8944
24162SOL     OW78321   1.199   9.605   3.416 -0.1400  1.1420  0.0151
24162SOL    HW178322   1.105   9.614   3.427 -0.1419  1.1679 -0.0217
24162SOL    HW278323   1.211   9.518   3.378 -0.0568  0.5989  1.2255
24163SOL     OW78324   3.627   8.179   4.652 -0.6929  0.1118 -0.1883
24163SOL    HW178325   3.661   8.096   4.684 -1.4355 -0.2046 -0.1974
24163SOL    HW278326   3.678   8.245   4.699 -0.0850 -0.3426 -0.1984
24164SOL     OW78327   9.178   7.458   5.145 -0.0018 -0.3808  0.4795
24164SOL    HW178328   9.179   7.551   5.167  1.0938 -0.1748 -0.3968
24164SOL    HW278329   9.085   7.438   5.131 -0.0144  1.6249 -3.5300
24165SOL     OW78330   7.834   7.695   0.154  0.1290  0.2881  0.6702
24165SOL    HW178331   7.915   7.746   0.149  0.8348 -0.7081  1.3249
24165SOL    HW278332   7.864   7.604   0.154 -1.0914 -0.1455 -0.5170
24166SOL     OW78333   3.000   5.791   5.733 -0.7138 -0.1654  0.0466
24166SOL    HW178334   2.973   5.880   5.755  1.5475  1.0260 -1.5870
24166SOL    HW278335   2.970   5.779   5.643  0.1593 -0.5585 -0.1942
24167SOL     OW78336   1.063   4.401   2.393  0.0589 -0.1087 -0.0195
24167SOL    HW178337   0.977   4.361   2.381 -0.5349  1.5811 -1.8986
24167SOL    HW278338   1.049   4.468   2.461 -0.6468  1.4463 -1.6159
24168SOL     OW78339   6.445   5.858   4.966 -0.2270  0.5126 -0.2327
24168SOL    HW178340   6.471   5.816   5.048 -1.0006  0.8455  0.1902
24168SOL    HW278341   6.498   5.938   4.963  0.2209  0.2125 -0.3413
24169SOL     OW78342   2.074   4.268  10.078  0.5929  0.2324  0.1721
24169SOL    HW178343   2.023   4.215  10.140 -0.1677 -2.1886 -2.3392
24169SOL    HW278344   2.038   4.356  10.087 -0.3975 -0.3086  2.1622
24170SOL     OW78345   9.528   6.488   7.497  0.6457  0.0034 -0.2737
24170SOL    HW178346   9.539   6.395   7.520 -1.1055  0.1550  1.3785
24170SOL    HW278347   9.505   6.487   7.404  0.3643 -1.2466 -0.2062
24171SOL     OW78348   3.197   8.712   4.338  0.0376  0.4017 -0.0879
24171SOL    HW178349   3.208   8.740   4.247 -0.6857 -0.9381 -0.6167
24171SOL    HW278350   3.270   8.652   4.354 -0.2959 -0.0028 -0.0598
24172SOL     OW78351   6.063   6.043   6.176 -0.3171 -0.1145 -0.0382
24172SOL    HW178352   6.090   6.088   6.096  1.1545  0.4691  0.7529
24172SOL    HW278353   6.031   6.113   6.233 -0.7517 -0.4478  0.1391
24173SOL     OW78354   0.748   4.575   2.899 -0.5274 -0.1970 -0.0756
24173SOL    HW178355   0.685   4.631   2.945 -0.3617  0.1075 -0.2126
24173SOL    HW278356   0.825   4.574   2.956 -0.1072  0.6503 -0.6010
24174SOL     OW78357   6.249  10.854   9.764  0.2507  0.4716 -0.3205
24174SOL    HW178358   6.268  10.911   9.689  1.0388 -0.7924 -1.1101
24174SOL    HW278359   6.334  10.837   9.803 -0.1043  0.7228  0.5809
24175SOL     OW78360   5.891   8.978   9.304  0.2214 -0.6621  0.0481
24175SOL    HW178361   5.934   8.948   9.384 -0.0654  0.4652  0.6417
24175SOL    HW278362   5.835   8.904   9.278 -1.2853 -0.3184  2.0688
24176SOL     OW78363   7.468   5.842   7.537 -0.1566  0.1563  0.5481
24176SOL    HW178364   7.539   5.901   7.564 -1.6499  2.1007  0.3957
24176SOL    HW278365   7.431   5.810   7.619  0.9575 -1.0255  0.6301
24177SOL     OW78366   3.321   7.270   8.971  0.1514  0.1504 -0.3253
24177SOL    HW178367   3.415   7.274   8.990 -0.1724  0.5762  1.3927
24177SOL    HW278368   3.284   7.344   9.020 -1.1137 -0.1937 -0.7352
24178SOL     OW78369  10.926   4.572   6.270  0.3890 -0.3706  0.2660
24178SOL    HW178370  10.969   4.498   6.226  0.5952 -0.0031 -0.1513
24178SOL    HW278371  10.855   4.531   6.320 -0.0399 -0.7778 -0.6366
24179SOL     OW78372   8.905   8.989   4.509  0.3007  0.1316 -0.0526
24179SOL    HW178373   8.857   9.072   4.518 -0.0239 -0.1706  1.1540
24179SOL    HW278374   8.946   8.976   4.595  3.7372  1.0830 -1.3997
24180SOL     OW78375   1.933   2.999   4.915 -0.1474 -0.6278  0.3793
24180SOL    HW178376   1.901   2.965   4.831  2.3610 -1.9514 -0.1098
24180SOL    HW278377   1.976   3.082   4.892  2.7901 -2.1779 -0.1936
24181SOL     OW78378   7.759   4.720   2.215  0.5520  0.0301  0.3453
24181SOL    HW178379   7.746   4.632   2.252  0.5836  0.1099  0.5477
24181SOL    HW278380   7.766   4.777   2.291  0.9740  0.1475  0.2185
24182SOL     OW78381   2.812   0.263   9.123  0.3108 -0.1871 -0.8966
24182SOL    HW178382   2.865   0.292   9.049 -0.7328  4.6649 -0.1370
24182SOL    HW278383   2.722   0.261   9.090  0.1822 -1.1887 -0.5078
24183SOL     OW78384   3.921   4.317   5.396  0.2650 -0.1612 -0.1433
24183SOL    HW178385   3.993   4.278   5.446  0.8527  0.4952 -0.4518
24183SOL    HW278386   3.854   4.249   5.393 -0.2364  0.0943  2.4006
24184SOL     OW78387   9.141   5.457   8.287  0.5817 -0.5786 -0.1341
24184SOL    HW178388   9.210   5.523   8.277 -0.1945  0.3845  0.7123
24184SOL    HW278389   9.099   5.478   8.371 -0.5996 -1.2654 -0.5295
24185SOL     OW78390   2.945   9.593   7.428  0.5157 -0.3097 -0.5807
24185SOL    HW178391   2.980   9.561   7.345  0.0949  1.0355 -1.3008
24185SOL    HW278392   3.023   9.603   7.484  0.7293 -1.8412 -0.5726
24186SOL     OW78393   2.678   9.585   0.583  0.8776 -0.6659  0.3987
24186SOL    HW178394   2.707   9.501   0.547  1.4518 -1.3149  2.2417
24186SOL    HW278395   2.710   9.584   0.673 -0.7931  0.6876  1.0547
24187SOL     OW78396   3.438   0.703   5.258  0.0585 -0.2641  0.0195
24187SOL    HW178397   3.478   0.633   5.206 -1.6388  0.1333 -1.9276
24187SOL    HW278398   3.481   0.783   5.226 -1.1404  0.0035 -0.9955
24188SOL     OW78399   4.074   4.128   6.319  0.3251 -0.6359 -0.0894
24188SOL    HW178400   4.060   4.041   6.357  0.8765  0.1049  1.9509
24188SOL    HW278401   4.161   4.154   6.350 -0.6161  1.4223  1.0816
24189SOL     OW78402   4.560   7.179   7.798 -0.4943 -0.1182 -0.5196
24189SOL    HW178403   4.584   7.233   7.874 -0.6223  1.8634 -1.8256
24189SOL    HW278404   4.630   7.114   7.792  0.3317  0.6603  0.3911
24190SOL     OW78405   7.229   9.085   9.134 -0.1330 -0.2524  0.8896
24190SOL    HW178406   7.235   9.002   9.087  0.5799  0.2795 -0.0037
24190SOL    HW278407   7.171   9.139   9.080 -0.8346 -0.2612  1.6222
24191SOL     OW78408   3.929   3.340   4.249 -0.1254  0.8484  0.5907
24191SOL    HW178409   3.968   3.310   4.167 -0.8242  1.1166  0.1496
24191SOL    HW278410   4.003   3.349   4.309  0.2887 -0.2050  0.2630
24192SOL     OW78411   8.540  10.670  10.097  0.0495 -0.3826 -0.8247
24192SOL    HW178412   8.542  10.616  10.018  1.7117 -2.6202  0.6148
24192SOL    HW278413   8.633  10.683  10.119 -0.2576  3.1684 -1.0634
24193SOL     OW78414  10.607   4.100   6.754 -0.7725 -0.1097 -0.0220
24193SOL    HW178415  10.618   4.015   6.712 -0.3578  0.9605 -2.1662
24193SOL    HW278416  10.690   4.145   6.740 -1.1250  0.8080  0.7414
24194SOL     OW78417   0.277   1.129  10.846 -0.4403 -0.1148 -0.2320
24194SOL    HW178418   0.348   1.187  10.819 -0.6060 -1.0748 -3.0887
24194SOL    HW278419   0.254   1.158  10.934  1.4677  2.1653 -0.3927
24195SOL     OW78420   5.181   1.787   5.970  0.0645 -0.2346 -0.2288
24195SOL    HW178421   5.256   1.832   5.931  0.3247 -1.1717 -0.8259
24195SOL    HW278422   5.212   1.761   6.057 -0.2627  1.1686  0.3425
24196SOL     OW78423   9.805   9.429   7.485  0.2402 -0.4566  0.1584
24196SOL    HW178424   9.843   9.487   7.551  0.8598 -0.9035  0.1967
24196SOL    HW278425   9.716   9.463   7.471  1.0402  1.3463 -0.8258
24197SOL     OW78426   1.939   5.037   1.154  0.4587  0.2727 -0.3278
24197SOL    HW178427   2.023   4.993   1.158  0.4470  0.2776  2.8898
24197SOL    HW278428   1.878   4.970   1.123  1.2156 -0.5863 -0.0049
24198SOL     OW78429   6.599   7.604   5.824  0.1508 -0.4153  0.2854
24198SOL    HW178430   6.609   7.595   5.729  0.4546  0.0683  0.2667
24198SOL    HW278431   6.527   7.545   5.846  0.0708 -0.5247 -0.2462
24199SOL     OW78432   6.626   4.990   0.378  0.0638  0.3066 -0.1582
24199SOL    HW178433   6.573   4.925   0.423  0.1067  0.2959 -0.1225
24199SOL    HW278434   6.664   4.944   0.303 -2.2822  1.0163 -1.9142
24200SOL     OW78435   8.117   4.381   3.402  0.6418 -0.2622 -0.1977
24200SOL    HW178436   8.039   4.434   3.384 -0.4819 -1.5004  0.7055
24200SOL    HW278437   8.173   4.392   3.326 -0.7759  0.0745 -1.2270
24201SOL     OW78438   4.692   3.169   3.321 -0.5302  0.1115 -0.1046
24201SOL    HW178439   4.688   3.073   3.316  0.6225 -0.0328  1.2038
24201SOL    HW278440   4.647   3.190   3.404  0.0092  0.6276  0.0616
24202SOL     OW78441   6.525   5.672   8.565 -0.0039  0.3585  0.1265
24202SOL    HW178442   6.560   5.653   8.652  0.5693 -4.2578 -0.8169
24202SOL    HW278443   6.430   5.667   8.575 -0.0670  2.2372  0.8125
24203SOL     OW78444   7.996   2.262   2.301 -0.2661  0.5842 -0.5125
24203SOL    HW178445   7.915   2.274   2.250 -1.1725 -0.6262  0.5615
24203SOL    HW278446   7.994   2.332   2.366 -0.4023  0.6249 -0.5595
24204SOL     OW78447  10.152   9.916  10.901  0.6784 -0.5537  0.0256
24204SOL    HW178448  10.196   9.936  10.983  1.0728 -4.5157  0.9565
24204SOL    HW278449  10.086   9.850  10.924 -0.7439 -0.1633 -2.5218
24205SOL     OW78450   2.733   9.191   0.030  0.0704  0.4019  0.1170
24205SOL    HW178451   2.722   9.280   0.062 -0.2021  0.8193 -1.1009
24205SOL    HW278452   2.645   9.165   0.000 -0.1555 -0.7746  1.6632
24206SOL     OW78453   7.372   7.281   4.616  0.7234 -0.1782 -0.0714
24206SOL    HW178454   7.299   7.311   4.562  0.3927  1.8564  1.3565
24206SOL    HW278455   7.443   7.342   4.597  1.4056 -0.9305 -0.0004
24207SOL     OW78456   2.309   1.775   1.133 -0.3223  0.4055 -0.7423
24207SOL    HW178457   2.370   1.755   1.061  0.1847  1.1619 -0.5428
24207SOL    HW278458   2.238   1.712   1.123 -0.0227  0.1912 -1.6246
24208SOL     OW78459   7.581   7.887   8.627  0.7192  0.8001 -0.5399
24208SOL    HW178460   7.612   7.866   8.539  2.1490  0.0212  0.0956
24208SOL    HW278461   7.662   7.898   8.678 -0.0693  0.3616  0.8521
24209SOL     OW78462   5.925   0.114   2.930  0.7023 -0.2746 -0.2348
24209SOL    HW178463   6.020   0.106   2.924  0.7655 -1.1316  1.4024
24209SOL    HW278464   5.907   0.115   3.024 -0.8774  0.3596 -0.5139
24210SOL     OW78465   7.650  10.833   5.290  0.0632 -0.2531  0.5794
24210SOL    HW178466   7.599  10.757   5.260  1.5699 -0.8779 -0.5133
24210SOL    HW278467   7.605  10.908   5.252 -1.8286 -0.4712  2.1926
24211SOL     OW78468   9.606   7.232   7.178 -0.8293 -0.2912 -0.3242
24211SOL    HW178469   9.628   7.180   7.256  1.8688  2.7206  1.1665
24211SOL    HW278470   9.524   7.276   7.201  0.2114  0.9935  1.2054
24212SOL     OW78471   1.117   7.936   6.200  0.6025  0.1923  0.0985
24212SOL    HW178472   1.108   8.031   6.197 -3.0680 -0.0201 -3.3559
24212SOL    HW278473   1.077   7.910   6.283  0.7266  1.5966  0.6140
24213SOL     OW78474   9.705   9.620   3.632 -0.1958  0.6228 -0.2315
24213SOL    HW178475   9.693   9.715   3.638 -2.3618  0.3310  2.4949
24213SOL    HW278476   9.767   9.600   3.701 -0.7867 -0.0356  0.1221
24214SOL     OW78477   3.763   9.031   4.206 -0.1824 -0.1392 -0.3035
24214SOL    HW178478   3.732   9.044   4.295 -1.2319 -2.1134 -0.3159
24214SOL    HW278479   3.832   8.965   4.213 -0.2267 -0.2610 -0.9069
24215SOL     OW78480  10.496   5.371  10.541  0.0695  0.2569  0.3157
24215SOL    HW178481  10.567   5.384  10.603  0.9960 -1.6273 -0.2596
24215SOL    HW278482  10.522   5.420  10.463  0.6959 -0.3107  0.1586
24216SOL     OW78483  10.132   8.696   4.463  0.0977  0.2383 -0.0792
24216SOL    HW178484  10.167   8.626   4.518 -0.1908  1.3427  1.6061
24216SOL    HW278485  10.042   8.708   4.493  1.0549  3.4233  2.0216
24217SOL     OW78486   6.630   9.980  10.131 -0.2292 -0.4549  0.0535
24217SOL    HW178487   6.609  10.046  10.065 -0.9558  1.2821  1.9150
24217SOL    HW278488   6.657  10.030  10.208  4.0768 -2.4033  0.1419
24218SOL     OW78489   9.797   6.191   0.433  0.6254  0.2629 -0.3249
24218SOL    HW178490   9.774   6.137   0.508  0.0641 -0.3858 -0.9480
24218SOL    HW278491   9.743   6.157   0.361  0.1751  1.7349 -0.7095
24219SOL     OW78492   1.295   5.637   8.862 -0.8927  0.0649 -0.8889
24219SOL    HW178493   1.363   5.598   8.807 -0.0843  0.6201 -0.2914
24219SOL    HW278494   1.307   5.731   8.852 -0.4720  0.1854  0.5439
24220SOL     OW78495   7.209   2.921   6.063 -0.4107 -0.4688 -0.1304
24220SOL    HW178496   7.246   2.854   6.006  0.4690 -0.1201  0.0108
24220SOL    HW278497   7.117   2.898   6.071 -0.2706 -1.2465 -0.6609
24221SOL     OW78498   6.168   1.793  10.678  0.1437  0.0567 -0.2917
24221SOL    HW178499   6.131   1.706  10.696  1.4795 -0.0766  2.3421
24221SOL    HW278500   6.113   1.853  10.730  0.2402  0.5699 -0.7784
24222SOL     OW78501   3.157  10.433   0.402 -0.1572  0.4618  0.6016
24222SOL    HW178502   3.080  10.484   0.428 -0.6397  0.2233 -0.3251
24222SOL    HW278503   3.214  10.436   0.478 -0.3805  2.0009  0.7366
24223SOL     OW78504   9.732   1.576  10.068 -0.3676  1.0746 -0.4986
24223SOL    HW178505   9.752   1.645  10.131  1.4243  0.5014 -0.3801
24223SOL    HW278506   9.813   1.566  10.017 -0.2519 -1.5037  0.0740
24224SOL     OW78507   6.524   7.256   8.152  0.5204 -0.0248 -0.2536
24224SOL    HW178508   6.607   7.302   8.169  0.4302  0.6432 -1.4969
24224SOL    HW278509   6.466   7.325   8.120 -0.7787 -0.3363  1.3154
24225SOL     OW78510   5.278   9.298   8.614  0.0971  0.2358 -0.1241
24225SOL    HW178511   5.249   9.330   8.700  0.5142 -0.1400  0.1634
24225SOL    HW278512   5.361   9.344   8.598  0.1501  0.1132 -0.2044
24226SOL     OW78513   7.403   3.986   6.180 -0.0667  0.0925  0.2286
24226SOL    HW178514   7.433   3.978   6.270 -0.1136  1.5318  0.4006
24226SOL    HW278515   7.388   3.896   6.151  1.2450 -0.4662  1.1986
24227SOL     OW78516   0.237   1.849   1.776  0.1867 -0.6278  0.2209
24227SOL    HW178517   0.196   1.923   1.819  0.7056 -0.9100  1.2314
24227SOL    HW278518   0.225   1.776   1.836  1.1062 -0.9864 -0.0096
24228SOL     OW78519   7.882   0.711   7.897 -0.6391  0.0380  0.3710
24228SOL    HW178520   7.837   0.756   7.968  0.5809  2.4677 -0.3145
24228SOL    HW278521   7.833   0.629   7.886 -1.7959  0.3063  2.9303
24229SOL     OW78522   8.352   2.977   1.217  0.3997  0.2728  0.4854
24229SOL    HW178523   8.407   3.056   1.209  2.0169 -0.8450  0.0313
24229SOL    HW278524   8.414   2.904   1.213 -1.2011 -1.0982 -0.6363
24230SOL     OW78525   4.491   1.622   9.021  0.2996 -0.0227 -0.6748
24230SOL    HW178526   4.416   1.608   9.078 -0.6729 -0.0307 -1.9275
24230SOL    HW278527   4.549   1.680   9.072 -0.0528 -0.8345  0.7098
24231SOL     OW78528   7.293  10.923  10.484  0.2386 -0.6349 -0.2926
24231SOL    HW178529   7.239  10.986  10.437  0.8661 -0.4676 -0.8083
24231SOL    HW278530   7.291  10.952  10.575  0.8173  0.3516 -0.5821
24232SOL     OW78531   2.030   1.884   8.755 -0.7540  0.2708  0.1397
24232SOL    HW178532   2.074   1.844   8.831 -0.0513  1.2719  0.2767
24232SOL    HW278533   1.949   1.921   8.791 -0.5777  0.4616  0.3432
24233SOL     OW78534   7.180   1.873   7.364 -0.8206 -0.1767  0.4860
24233SOL    HW178535   7.171   1.795   7.419 -1.5707  0.5248  1.4035
24233SOL    HW278536   7.228   1.935   7.419 -0.0957 -0.0272 -0.2923
24234SOL     OW78537   3.044   8.301   2.834  0.4880  0.1428  0.4661
24234SOL    HW178538   2.958   8.303   2.876 -0.0395  1.5321 -0.5817
24234SOL    HW278539   3.025   8.296   2.740  1.5499  0.2819  0.2294
24235SOL     OW78540   5.922   3.530   0.091  0.3865  0.5387  0.4350
24235SOL    HW178541   5.879   3.602   0.044 -1.8167  0.3634  1.9896
24235SOL    HW278542   5.970   3.574   0.161  0.4680  0.6057  0.3361
24236SOL     OW78543   8.850   2.610   3.902 -0.5290 -0.2324 -0.2154
24236SOL    HW178544   8.845   2.518   3.874 -1.9660 -0.5019  0.8071
24236SOL    HW278545   8.840   2.660   3.821 -0.4953 -0.9829 -0.6935
24237SOL     OW78546   1.398   3.838   2.023 -0.2343  0.2802 -0.2257
24237SOL    HW178547   1.442   3.757   1.997  0.5996  0.8295 -0.5626
24237SOL    HW278548   1.314   3.809   2.059 -0.4780 -0.6598 -1.4644
24238SOL     OW78549   2.159   8.890   5.819  0.8012  0.1580 -0.4523
24238SOL    HW178550   2.229   8.837   5.857  0.1157 -1.2030 -0.9736
24238SOL    HW278551   2.102   8.825   5.777 -0.9825  1.1681  0.3150
24239SOL     OW78552   5.815   3.638   9.889 -0.5706  0.3679 -0.2582
24239SOL    HW178553   5.875   3.698   9.933 -1.0316  0.4993  0.1937
24239SOL    HW278554   5.731   3.682   9.891 -0.7166  0.1238 -0.7738
24240SOL     OW78555   8.102  10.853   5.647 -0.2083 -0.3507 -0.5395
24240SOL    HW178556   8.174  10.848   5.584  2.8102  2.0981  2.3756
24240SOL    HW278557   8.117  10.780   5.707  1.8872  1.8174  1.7997
24241SOL     OW78558   3.961  10.352   4.416  0.4516 -0.6273 -0.3165
24241SOL    HW178559   3.938  10.401   4.495  2.2169 -0.2809  0.0313
24241SOL    HW278560   3.894  10.284   4.408 -0.5235  0.1992  0.6932
24242SOL     OW78561   7.675   5.218   5.633  0.0794 -0.3489 -0.2802
24242SOL    HW178562   7.730   5.253   5.702  0.3987  0.9938 -1.1765
24242SOL    HW278563   7.719   5.138   5.605  1.0791  0.2141 -0.3580
24243SOL     OW78564   5.572   8.555   9.691  0.4173 -0.4212  0.0847
24243SOL    HW178565   5.547   8.473   9.648 -1.4633  0.0555  0.2086
24243SOL    HW278566   5.532   8.623   9.638  0.0747  0.3001  1.2440
24244SOL     OW78567   7.597   1.230   3.403  0.3437 -1.2109 -0.7355
24244SOL    HW178568   7.521   1.274   3.364  0.8553  0.0138 -0.3863
24244SOL    HW278569   7.657   1.301   3.425  0.4986 -1.9410  1.4057
24245SOL     OW78570   2.635   1.868   4.011  0.0155 -0.0735  0.2013
24245SOL    HW178571   2.705   1.868   4.076  0.3165 -1.1944 -0.0959
24245SOL    HW278572   2.681   1.872   3.927 -0.3486  0.8031  0.0314
24246SOL     OW78573   1.505   7.640   4.387 -0.2792 -0.2105 -0.7659
24246SOL    HW178574   1.446   7.618   4.459 -1.0713  1.4660 -0.8500
24246SOL    HW278575   1.447   7.673   4.318  0.7535  2.0845 -0.6151
24247SOL     OW78576   5.074  10.490  10.745 -0.5178  0.1317 -0.4669
24247SOL    HW178577   5.001  10.549  10.727  0.0996  0.9245 -0.3975
24247SOL    HW278578   5.142  10.546  10.783  0.6087 -0.3476 -1.7031
24248SOL     OW78579   6.693   4.584   8.295 -0.1841  0.6352  0.0399
24248SOL    HW178580   6.762   4.519   8.285 -1.4269 -0.6239 -0.8623
24248SOL    HW278581   6.673   4.585   8.388 -0.7507 -0.9749 -0.0447
24249SOL     OW78582   3.639   7.640  10.917  0.3546 -0.2192 -0.3467
24249SOL    HW178583   3.700   7.602  10.980 -0.1195 -1.0094 -0.3597
24249SOL    HW278584   3.557   7.651  10.966  0.1846 -0.1949 -0.6336
24250SOL     OW78585   7.347   7.964   4.936  0.3551  0.6820 -0.1927
24250SOL    HW178586   7.267   8.016   4.945  0.4590  0.6696  0.9404
24250SOL    HW278587   7.399   8.011   4.871 -1.0709  0.0333 -1.8993
24251SOL     OW78588   2.296   6.064   7.384 -0.1699 -0.0552 -0.1625
24251SOL    HW178589   2.244   6.143   7.400 -0.2285  0.0327 -0.7542
24251SOL    HW278590   2.381   6.084   7.424 -0.6554 -0.3075  1.0485
24252SOL     OW78591   1.656   5.616   8.262  0.0636 -0.7924  0.0888
24252SOL    HW178592   1.571   5.659   8.249 -0.9454 -2.9711 -0.9651
24252SOL    HW278593   1.656   5.590   8.354 -1.5550 -2.9198 -0.4338
24253SOL     OW78594  10.273   1.265   9.250 -0.1532  0.1351 -0.0975
24253SOL    HW178595  10.240   1.267   9.160  0.3694  0.4856 -0.2872
24253SOL    HW278596  10.368   1.259   9.240 -0.0956  0.1243  0.4332
24254SOL     OW78597   2.288   4.246   3.312 -0.0268 -0.1139 -0.8251
24254SOL    HW178598   2.380   4.256   3.290  0.6491 -2.8230  0.3257
24254SOL    HW278599   2.273   4.310   3.382  1.3184 -0.3988 -0.2387
24255SOL     OW78600   7.462  10.682   4.807  0.1786 -0.2151 -0.0086
24255SOL    HW178601   7.491  10.685   4.716  2.4669  1.8665  0.6849
24255SOL    HW278602   7.480  10.592   4.835  2.5052 -0.0323 -0.7341
24256SOL     OW78603   6.342   6.973   2.584 -0.3765  0.1373 -0.3483
24256SOL    HW178604   6.377   6.944   2.669 -0.7922 -0.1423 -0.2667
24256SOL    HW278605   6.253   7.002   2.604  0.0199  1.4864 -0.4341
24257SOL     OW78606   7.676   1.571   6.848  0.2359 -0.4432  0.2097
24257SOL    HW178607   7.747   1.624   6.813  0.0208  0.5552  1.2374
24257SOL    HW278608   7.646   1.519   6.773  1.3418 -0.1152 -0.4855
24258SOL     OW78609   4.424  10.769   8.495  0.1940  0.1388  0.0547
24258SOL    HW178610   4.491  10.702   8.481 -0.1311 -0.0258 -0.7656
24258SOL    HW278611   4.341  10.725   8.476 -0.0876  0.5430  0.3320
24259SOL     OW78612  10.376  10.429   8.452  0.3767 -0.2735  0.5012
24259SOL    HW178613  10.300  10.421   8.509  0.2310 -0.4033  0.2890
24259SOL    HW278614  10.449  10.398   8.505  0.1306 -1.0873  0.3749
24260SOL     OW78615   2.385  10.453   5.042 -0.6709  0.7638 -0.1589
24260SOL    HW178616   2.480  10.455   5.053 -0.6590  0.8432 -0.2737
24260SOL    HW278617   2.355  10.538   5.072 -0.6218  1.0406 -0.8711
24261SOL     OW78618   8.341   1.994   2.371  0.6761  0.1267 -0.2951
24261SOL    HW178619   8.289   1.916   2.391 -1.3512  1.7311  1.0853
24261SOL    HW278620   8.317   2.016   2.281  1.1962 -0.7394 -0.6656
24262SOL     OW78621   1.626  10.426   0.921 -0.2288  0.0185 -0.0921
24262SOL    HW178622   1.554  10.482   0.948 -1.6676 -2.3152  1.2554
24262SOL    HW278623   1.705  10.480   0.934 -1.5456  1.9108  0.4629
24263SOL     OW78624   9.572   0.023  10.016 -0.1972 -0.0002 -0.6667
24263SOL    HW178625   9.525  -0.060  10.011 -0.7115  0.3461 -1.8244
24263SOL    HW278626   9.589   0.035  10.110 -1.4689 -0.6501 -0.3323
24264SOL     OW78627  10.237  10.667   6.256  0.4585 -0.6109  0.0201
24264SOL    HW178628  10.295  10.621   6.196 -1.2433  0.4170 -2.5929
24264SOL    HW278629  10.149  10.639   6.230 -0.5199  2.5172 -0.3708
24265SOL     OW78630   4.888   3.344   5.103 -0.2805 -0.4443  0.0726
24265SOL    HW178631   4.972   3.297   5.105  0.3189  0.5547  2.5658
24265SOL    HW278632   4.896   3.404   5.029  1.0327 -0.7212 -0.0328
24266SOL     OW78633   5.323   4.506   7.320  0.3949 -0.4548  0.1320
24266SOL    HW178634   5.284   4.492   7.406  1.3702 -1.6495  0.4085
24266SOL    HW278635   5.290   4.435   7.266 -0.2404  0.3104 -0.5243
24267SOL     OW78636   9.066   7.889   7.038 -0.8929  0.0498 -0.0880
24267SOL    HW178637   9.100   7.800   7.047  0.8615  0.4529 -1.9763
24267SOL    HW278638   9.066   7.924   7.127  0.2420 -1.2119  0.4385
24268SOL     OW78639   4.260   1.016   1.448 -0.0303  0.0219  0.0279
24268SOL    HW178640   4.254   1.103   1.486  0.1260 -0.0724  0.2743
24268SOL    HW278641   4.177   0.974   1.470 -0.6587  0.5652 -1.2546
24269SOL     OW78642   9.904   1.152   7.920  0.2794 -0.0164  0.9439
24269SOL    HW178643   9.817   1.173   7.953 -0.6240 -0.4895 -0.9900
24269SOL    HW278644   9.960   1.149   7.998 -1.3724  0.5417  2.1921
24270SOL     OW78645   4.571   3.055   6.957  0.4912  0.3058 -0.4760
24270SOL    HW178646   4.655   3.074   6.914  0.9287 -2.4283 -0.9981
24270SOL    HW278647   4.546   2.968   6.925 -2.5818  1.0135 -0.3169
24271SOL     OW78648   3.936   4.913   1.608  0.2259 -0.1531 -0.1741
24271SOL    HW178649   3.874   4.985   1.613  1.3442  0.7887  0.9644
24271SOL    HW278650   3.888   4.836   1.639 -1.2726 -0.1658 -2.3258
24272SOL     OW78651   2.331   5.635   0.592  0.6185  0.0239  0.5550
24272SOL    HW178652   2.280   5.556   0.610 -0.4089  0.8366  1.3848
24272SOL    HW278653   2.395   5.639   0.663  1.4348 -0.6402 -0.1170
24273SOL     OW78654   1.534   3.583   9.497 -0.2432 -0.2998  0.4553
24273SOL    HW178655   1.500   3.502   9.458 -1.2056 -0.1623  0.9633
24273SOL    HW278656   1.506   3.652   9.437  1.5034 -0.4239 -0.5412
24274SOL     OW78657   8.750   4.923   2.144  0.4831  0.0452  0.3791
24274SOL    HW178658   8.795   4.932   2.228  0.0736  2.8804  0.3787
24274SOL    HW278659   8.751   4.829   2.127 -1.0247 -0.9105  4.4074
24275SOL     OW78660   4.616   3.912   9.749 -0.0857  0.2253 -0.2736
24275SOL    HW178661   4.633   3.977   9.816  0.9034  0.5203 -0.7971
24275SOL    HW278662   4.569   3.960   9.681 -0.1664  0.1710 -0.2565
24276SOL     OW78663   2.331   8.570  10.809  0.1956 -0.3631 -0.0664
24276SOL    HW178664   2.324   8.665  10.810 -0.2303 -0.3886  1.1560
24276SOL    HW278665   2.390   8.551  10.736  0.6132  0.8584 -0.0721
24277SOL     OW78666  10.049   6.382   9.762 -0.0967 -0.1111  0.1699
24277SOL    HW178667  10.040   6.294   9.726  0.0620 -0.8004  1.7463
24277SOL    HW278668  10.020   6.375   9.853 -0.7778  1.6378  0.1321
24278SOL     OW78669   5.821   5.788   0.257  0.4267 -0.2432  0.8215
24278SOL    HW178670   5.786   5.852   0.196 -0.0854 -1.0346  0.2523
24278SOL    HW278671   5.831   5.836   0.340  0.3604  0.6315  0.3311
24279SOL     OW78672  10.142  10.780   1.025  0.0946  0.1019  0.4369
24279SOL    HW178673  10.204  10.842   1.064  1.2642 -0.8437  0.1351
24279SOL    HW278674  10.100  10.830   0.955  2.4135  0.0667 -1.1052
24280SOL     OW78675   8.210   4.341   8.378  0.6650  0.0299  0.4680
24280SOL    HW178676   8.302   4.340   8.405  0.3810  2.0997  1.6602
24280SOL    HW278677   8.193   4.430   8.349 -1.3875  0.1737  1.8689
24281SOL     OW78678   7.035   7.507   4.175  0.2535  0.1506  0.0260
24281SOL    HW178679   7.075   7.420   4.175  0.1066  0.0689 -0.8920
24281SOL    HW278680   7.053   7.542   4.262  0.4474 -0.7377  0.3509
24282SOL     OW78681   7.232   9.035   4.435 -0.3300 -0.5329 -0.0670
24282SOL    HW178682   7.148   8.998   4.462 -1.1449  0.7417 -0.7222
24282SOL    HW278683   7.293   9.010   4.504 -1.7988  0.6071  1.7682
24283SOL     OW78684   3.105  10.457  10.184 -1.0424  0.4437 -0.3845
24283SOL    HW178685   3.147  10.425  10.104 -2.0635 -0.3000 -0.6399
24283SOL    HW278686   3.161  10.428  10.255 -0.5385  0.4403 -0.7817
24284SOL     OW78687   7.080   6.758   7.385 -0.0383 -0.0756 -0.1744
24284SOL    HW178688   7.044   6.719   7.464 -1.7413  1.5457 -0.0734
24284SOL    HW278689   7.068   6.691   7.318 -1.3290 -0.3926  0.3403
24285SOL     OW78690   8.850   5.674   9.221  0.1992  0.1038 -0.3985
24285SOL    HW178691   8.785   5.676   9.291  0.3689  1.3798 -0.2499
24285SOL    HW278692   8.800   5.658   9.141 -0.4345  1.8520 -0.3893
24286SOL     OW78693   7.916   0.774   6.340  0.5126  0.2209 -0.1132
24286SOL    HW178694   7.838   0.767   6.394  0.0659 -0.2621 -0.8020
24286SOL    HW278695   7.940   0.683   6.320  1.9348  0.3000  1.0281
24287SOL     OW78696   3.028   6.534   7.810 -0.5444  0.2680  0.2387
24287SOL    HW178697   2.982   6.511   7.729 -0.3915  0.4146  0.1108
24287SOL    HW278698   3.061   6.622   7.795 -0.5442  0.3106  0.4747
24288SOL     OW78699   0.842   3.116   8.119  0.4268  0.2364  0.2513
24288SOL    HW178700   0.861   3.022   8.116  1.4347  0.4142  0.6695
24288SOL    HW278701   0.902   3.154   8.055 -0.3895  0.5471 -0.3491
24289SOL     OW78702   5.909   9.859   1.572 -0.5456 -0.1608 -0.1944
24289SOL    HW178703   5.884   9.778   1.615 -1.8472  0.4062  0.1452
24289SOL    HW278704   5.845   9.923   1.601 -0.1558  0.7538 -1.2708
24290SOL     OW78705   2.423   2.926   7.668 -0.4773 -0.0706  0.3856
24290SOL    HW178706   2.348   2.981   7.645 -0.7631 -0.4988  0.2807
24290SOL    HW278707   2.433   2.939   7.762 -2.4333 -2.1082  0.9544
24291SOL     OW78708   5.438   0.584   8.886  0.0363  0.4346 -0.6857
24291SOL    HW178709   5.460   0.583   8.793  0.7255 -0.6618 -0.5253
24291SOL    HW278710   5.516   0.619   8.929 -0.3441  1.1050 -0.5266
24292SOL     OW78711  10.623   0.868   3.213  0.1553 -0.0667 -0.2229
24292SOL    HW178712  10.664   0.826   3.289 -1.1467 -1.1678 -0.0832
24292SOL    HW278713  10.645   0.811   3.139 -0.5181 -0.2803 -0.2647
24293SOL     OW78714   8.115   4.653   6.891 -0.4152 -0.4107 -0.0646
24293SOL    HW178715   8.101   4.599   6.813  0.1381 -0.5807 -0.0571
24293SOL    HW278716   8.191   4.612   6.934  0.8280  1.0973 -0.7270
24294SOL     OW78717   4.605   6.369   7.655  0.2535 -0.1922 -0.3567
24294SOL    HW178718   4.559   6.301   7.606  0.7475 -0.2753 -0.7124
24294SOL    HW278719   4.600   6.446   7.600 -1.3156  0.4067  0.5572
24295SOL     OW78720   9.039   4.004   6.498 -0.0013  0.2559 -0.7877
24295SOL    HW178721   9.104   3.986   6.430 -0.0854  0.0986 -0.8262
24295SOL    HW278722   8.993   4.082   6.467  0.7856  0.9381 -0.3182
24296SOL     OW78723  10.206   5.671   9.445 -0.7871 -0.0426  0.1102
24296SOL    HW178724  10.230   5.762   9.460 -1.4023  0.1215  0.1371
24296SOL    HW278725  10.175   5.669   9.354  3.8364 -1.2231 -1.7264
24297SOL     OW78726   2.258   5.777   0.911 -0.3765  0.2279  0.0924
24297SOL    HW178727   2.175   5.759   0.866 -0.3836 -0.6343  0.4343
24297SOL    HW278728   2.317   5.708   0.881 -0.1595  0.0903  0.8276
24298SOL     OW78729   7.638   0.030  10.106  0.0557  0.3124  0.2108
24298SOL    HW178730   7.709  -0.028  10.136 -0.4655 -0.2304  0.4247
24298SOL    HW278731   7.559  -0.008  10.144 -0.4709  0.3662 -0.7813
24299SOL     OW78732   4.705   2.835   7.871 -0.1315 -0.7541  0.2723
24299SOL    HW178733   4.688   2.869   7.959  0.6369  0.2670  0.0403
24299SOL    HW278734   4.688   2.909   7.813  1.4888 -0.7509 -0.2548
24300SOL     OW78735   0.507   7.846   1.552  0.0619 -0.7585  0.4484
24300SOL    HW178736   0.416   7.821   1.535 -0.2977  0.4216  0.5354
24300SOL    HW278737   0.544   7.771   1.599 -0.7656 -1.3916  0.1103
24301SOL     OW78738   7.300   9.017   8.297  0.2886  0.3396  0.1379
24301SOL    HW178739   7.299   8.938   8.350  0.7130  2.0691  2.9524
24301SOL    HW278740   7.388   9.053   8.308  0.0163  1.3484 -0.8099
24302SOL     OW78741   6.597   3.514   3.339 -0.3024  0.5329 -0.5457
24302SOL    HW178742   6.600   3.495   3.433  0.4551  0.4984 -0.5701
24302SOL    HW278743   6.539   3.448   3.302  1.2736 -0.9768 -0.4454
24303SOL     OW78744   0.279   9.908   9.778 -0.6917  0.4694  0.1843
24303SOL    HW178745   0.194   9.950   9.769 -0.5122  0.4855 -1.9709
24303SOL    HW278746   0.259   9.814   9.778 -0.8215  0.4898  1.3669
24304SOL     OW78747   5.853   5.026   5.631  0.1692 -0.2966 -0.1489
24304SOL    HW178748   5.782   5.072   5.586  0.1528  1.1226  1.2279
24304SOL    HW278749   5.810   4.972   5.697  0.3344  0.7522  0.8525
24305SOL     OW78750   6.152   9.916   4.944  0.2521  0.5841 -0.5071
24305SOL    HW178751   6.221   9.946   5.004  0.2994 -0.8076  0.1673
24305SOL    HW278752   6.200   9.877   4.871  0.1739  0.9402 -0.7535
24306SOL     OW78753   9.270   8.675   9.016 -0.2894  0.7555  0.2207
24306SOL    HW178754   9.253   8.715   8.930  1.5742  0.8425 -0.1467
24306SOL    HW278755   9.328   8.736   9.060  2.1215 -1.1282 -0.1036
24307SOL     OW78756   0.763   6.068  10.656 -0.1242  0.4002  0.2285
24307SOL    HW178757   0.669   6.052  10.660  0.0920 -1.3808 -1.1016
24307SOL    HW278758   0.782   6.080  10.563  1.2581 -1.4202  0.2305
24308SOL     OW78759   1.116   3.882   2.024 -0.2880  0.2466  0.0894
24308SOL    HW178760   1.056   3.897   1.951  0.3430 -1.4542 -0.8095
24308SOL    HW278761   1.075   3.813   2.076 -1.5314  2.5018  2.3357
24309SOL     OW78762   1.295   8.869   5.732 -0.3578  0.0283  0.0082
24309SOL    HW178763   1.228   8.897   5.795 -0.6883  0.3879 -0.5004
24309SOL    HW278764   1.247   8.814   5.670 -0.0324 -0.3135  0.0539
24310SOL     OW78765   9.862   8.286   7.616  0.3758 -0.4912 -0.2076
24310SOL    HW178766   9.768   8.278   7.631  0.6239  0.2059  2.1011
24310SOL    HW278767   9.894   8.196   7.610 -0.2119 -0.7872  0.8113
24311SOL     OW78768   1.441   2.545   1.498 -0.1873 -0.1335  0.1632
24311SOL    HW178769   1.518   2.494   1.522 -2.7541 -3.3178  2.5172
24311SOL    HW278770   1.420   2.517   1.409  2.4523  2.5333 -1.5066
24312SOL     OW78771   0.812   8.936   8.488  0.4836 -0.1757  0.2682
24312SOL    HW178772   0.878   8.870   8.505  0.2879 -0.1016  1.3929
24312SOL    HW278773   0.799   8.934   8.393  0.2830 -1.9359  0.3050
24313SOL     OW78774   8.417   7.410   1.988 -0.3747 -0.2095  0.1485
24313SOL    HW178775   8.423   7.314   1.991 -0.1780 -0.2782 -1.7398
24313SOL    HW278776   8.337   7.427   1.939 -0.2249  0.6121  0.1795
24314SOL     OW78777   2.481   5.956   0.633  0.3504  0.3327 -0.0252
24314SOL    HW178778   2.550   5.913   0.582 -0.4745 -0.5688 -0.3998
24314SOL    HW278779   2.508   5.945   0.724  0.7849  0.1416 -0.1742
24315SOL     OW78780   0.123   6.548   9.813 -0.0354 -0.0911 -0.6014
24315SOL    HW178781   0.037   6.560   9.853 -0.0679 -0.0172 -0.6933
24315SOL    HW278782   0.156   6.466   9.851  0.7353  0.9211  1.0375
24316SOL     OW78783   6.603   7.605   2.552  0.6020  0.2086  0.3692
24316SOL    HW178784   6.671   7.539   2.538  1.8451  1.3921  0.6039
24316SOL    HW278785   6.643   7.668   2.612  0.2256  2.2312 -1.3664
24317SOL     OW78786   0.669   6.287   7.592  0.1261 -0.0865  0.5666
24317SOL    HW178787   0.612   6.357   7.624  0.2222 -0.6016  1.9056
24317SOL    HW278788   0.623   6.207   7.615  0.4381 -0.4941 -0.1828
24318SOL     OW78789   7.922   4.921   8.248 -0.2146  0.3595  0.2601
24318SOL    HW178790   7.964   4.853   8.195 -1.9208 -1.3692  1.0038
24318SOL    HW278791   7.881   4.979   8.184  2.1295  1.4014 -0.4295
24319SOL     OW78792   0.277   3.134   8.463  0.1028  0.5511  0.0168
24319SOL    HW178793   0.263   3.075   8.537 -0.1002  1.6748  0.9091
24319SOL    HW278794   0.369   3.123   8.441 -0.2148 -0.9873 -0.6430
24320SOL     OW78795   1.133   2.767   0.466  0.2297 -0.4406  0.0682
24320SOL    HW178796   1.063   2.818   0.426  0.7923  0.4246  0.1668
24320SOL    HW278797   1.213   2.800   0.426  0.7662  0.0884  1.5007
24321SOL     OW78798   5.351   3.028   3.913 -0.3431  0.6633 -0.0684
24321SOL    HW178799   5.412   3.000   3.981  0.2806  1.2534 -0.3746
24321SOL    HW278800   5.396   3.011   3.831 -1.3127 -0.5624 -0.3819
24322SOL     OW78801   8.727   7.086   5.762 -0.1536  1.3699 -0.6559
24322SOL    HW178802   8.661   7.152   5.779 -0.2271  1.8140 -2.4690
24322SOL    HW278803   8.702   7.011   5.816 -2.0722  1.5755 -1.2078
24323SOL     OW78804   9.435   4.945   4.906 -0.2151 -0.3149 -0.3875
24323SOL    HW178805   9.432   5.006   4.832  0.2141  0.1398 -0.0329
24323SOL    HW278806   9.403   4.862   4.869  1.0706 -0.3961 -1.3842
24324SOL     OW78807   9.871   4.585   9.889 -0.6332  0.2085  0.3276
24324SOL    HW178808   9.823   4.516   9.842  1.1625 -1.1929  0.4311
24324SOL    HW278809   9.900   4.543   9.970  1.5563  0.6397 -0.1668
24325SOL     OW78810   0.871   4.801   6.128 -0.1486  0.1577 -0.1010
24325SOL    HW178811   0.963   4.789   6.104 -0.3378  1.5595 -1.7345
24325SOL    HW278812   0.832   4.714   6.120  0.9514 -0.3842  0.2704
24326SOL     OW78813  10.695  10.016   6.657  0.7346 -0.5043  0.3774
24326SOL    HW178814  10.781  10.046   6.688  0.2903  0.2841  0.8835
24326SOL    HW278815  10.648   9.991   6.737 -0.6083  2.0364  0.4677
24327SOL     OW78816   3.007   0.746   4.549  0.5570  0.0393 -0.6641
24327SOL    HW178817   2.983   0.838   4.563 -1.8876 -0.6040 -0.0447
24327SOL    HW278818   3.094   0.738   4.588  1.0289  2.1597 -1.1261
24328SOL     OW78819   1.069   3.214   3.201 -0.5318  0.0925 -0.1108
24328SOL    HW178820   1.113   3.211   3.116 -1.0995 -0.4596 -0.3958
24328SOL    HW278821   1.015   3.292   3.196 -1.7136 -0.7328 -0.8636
24329SOL     OW78822   5.877  10.691   7.000  0.1318 -0.5664  0.2790
24329SOL    HW178823   5.932  10.687   7.079  1.6088 -0.8387 -0.7205
24329SOL    HW278824   5.815  10.619   7.010  0.2982 -0.5957  1.1925
24330SOL     OW78825   3.723   9.332  10.506 -0.2353  0.4143 -0.5117
24330SOL    HW178826   3.747   9.363  10.419  2.2875 -0.6010 -0.2550
24330SOL    HW278827   3.712   9.411  10.558 -1.0551  1.0015 -1.5400
24331SOL     OW78828   3.570   9.435   6.991 -0.1002 -0.0131 -0.6943
24331SOL    HW178829   3.588   9.344   7.014 -1.5805 -0.1403  0.0501
24331SOL    HW278830   3.476   9.438   6.975 -0.1685  1.4953 -0.1876
24332SOL     OW78831   2.814   5.043   9.130 -0.3585  0.2854 -0.9158
24332SOL    HW178832   2.875   4.990   9.078  0.4594  0.8760 -0.5810
24332SOL    HW278833   2.727   5.009   9.107 -0.0228  0.4988 -2.6247
24333SOL     OW78834   7.041   1.340   9.590  0.0791 -0.3367 -0.0395
24333SOL    HW178835   6.997   1.315   9.509  0.2834 -0.7914 -0.0155
24333SOL    HW278836   6.977   1.393   9.637  0.1990  0.5094 -0.8005
24334SOL     OW78837   2.365   3.934   5.252  0.2105  0.3008  0.0378
24334SOL    HW178838   2.308   3.860   5.269 -0.2629  0.2811 -1.5249
24334SOL    HW278839   2.418   3.942   5.332  0.5623 -1.9636  0.0868
24335SOL     OW78840   8.826   3.855   8.944 -0.2708 -0.1868  0.0034
24335SOL    HW178841   8.881   3.886   8.871 -0.6201  0.3490 -0.0355
24335SOL    HW278842   8.884   3.857   9.020  0.3260 -1.4906 -0.3902
24336SOL     OW78843   4.525   1.198   6.143  0.3162  0.2870  0.0477
24336SOL    HW178844   4.516   1.200   6.238 -0.1974 -1.4816  0.0699
24336SOL    HW278845   4.574   1.118   6.125 -0.3222  0.1531 -1.2098
24337SOL     OW78846   1.264   4.079   8.360 -0.0339  0.1842  0.8097
24337SOL    HW178847   1.291   4.039   8.442 -1.7868 -1.9689  0.4291
24337SOL    HW278848   1.169   4.092   8.370 -0.0643  1.0724 -0.4039
24338SOL     OW78849   6.531   0.032   5.848 -0.0008 -0.3749 -0.3820
24338SOL    HW178850   6.568  -0.053   5.825  0.4579 -0.7275  1.5084
24338SOL    HW278851   6.540   0.037   5.943 -1.1804  1.2562 -0.3230
24339SOL     OW78852   7.380   3.716   7.495 -0.1071  0.3072  0.4028
24339SOL    HW178853   7.338   3.793   7.534 -0.0517  1.4561 -1.6481
24339SOL    HW278854   7.473   3.740   7.489  0.1099 -0.4065  0.7885
24340SOL     OW78855   6.269   8.125   9.051 -0.3443 -0.4924  0.1133
24340SOL    HW178856   6.199   8.061   9.066  2.1778 -3.1696  1.6286
24340SOL    HW278857   6.303   8.103   8.964  0.6100 -1.4496  0.6877
24341SOL     OW78858   4.983   2.144   0.205 -0.5739 -0.0813  0.5560
24341SOL    HW178859   5.044   2.176   0.271 -1.1127  0.9934  0.5520
24341SOL    HW278860   5.038   2.098   0.141  0.1867  0.5920  0.7143
24342SOL     OW78861   0.965  10.262   7.878  0.0464 -0.3485 -0.5293
24342SOL    HW178862   0.931  10.350   7.863  0.8330 -0.0052 -0.3618
24342SOL    HW278863   0.889  10.205   7.866 -0.6182  0.4012  0.0028
24343SOL     OW78864   9.170   7.140   5.149 -0.4140  0.3376  0.0457
24343SOL    HW178865   9.182   7.074   5.081 -1.7487  0.7459 -0.6057
24343SOL    HW278866   9.077   7.139   5.169 -0.0405  0.0841  2.0456
24344SOL     OW78867   1.755   6.245   8.794  0.6869  0.3819 -0.5429
24344SOL    HW178868   1.703   6.325   8.796  2.6308  1.7411  2.7798
24344SOL    HW278869   1.731   6.198   8.874  1.9694 -0.7016 -0.7517
24345SOL     OW78870   0.344   8.174  10.417 -0.3548  0.5441 -0.1526
24345SOL    HW178871   0.402   8.249  10.406 -0.5346  0.6716 -0.2422
24345SOL    HW278872   0.370   8.113  10.347  0.9455 -0.2391  0.9487
24346SOL     OW78873   2.154   5.138   5.251 -0.3404 -0.4003 -0.3655
24346SOL    HW178874   2.099   5.212   5.272  0.1145  0.6129 -2.5274
24346SOL    HW278875   2.146   5.127   5.157 -0.7700 -3.4422 -0.0850
24347SOL     OW78876   7.430   0.674   8.612  0.0863 -0.1583  0.1681
24347SOL    HW178877   7.390   0.760   8.600 -0.0173 -0.0213  1.3743
24347SOL    HW278878   7.502   0.672   8.548  0.3655  0.9935  0.4249
24348SOL     OW78879   8.043   4.915   8.694  0.1858 -0.6858  0.4831
24348SOL    HW178880   8.046   4.999   8.741  0.1553 -1.5051  2.0237
24348SOL    HW278881   8.104   4.859   8.741  1.7664 -0.9712 -1.7560
24349SOL     OW78882   4.393   2.856   8.667 -0.3409 -0.0685 -0.2997
24349SOL    HW178883   4.471   2.904   8.696 -0.3851 -0.6287  0.8084
24349SOL    HW278884   4.426   2.783   8.616  0.0721 -1.6288  2.0291
24350SOL     OW78885   6.463   6.216   9.184  0.5800 -0.2636 -0.4415
24350SOL    HW178886   6.536   6.205   9.123 -0.2502  0.5106 -1.6109
24350SOL    HW278887   6.493   6.283   9.246  1.5104 -1.2172  0.1760
24351SOL     OW78888   1.582   8.938   1.996 -0.3565  0.4301 -0.2931
24351SOL    HW178889   1.539   8.986   1.925 -1.0393  1.5876  0.8600
24351SOL    HW278890   1.513   8.921   2.059  0.6185  1.2162  1.0283
24352SOL     OW78891   9.180   2.991  10.289  0.1941  0.1001 -0.0093
24352SOL    HW178892   9.160   3.054  10.220 -3.0670 -0.9397 -0.1825
24352SOL    HW278893   9.222   2.918  10.244 -0.7237 -0.0044 -0.7415
24353SOL     OW78894   2.268   2.762   0.989  0.8024  0.3370  0.5520
24353SOL    HW178895   2.230   2.675   0.976  1.6921  0.2921 -2.6489
24353SOL    HW278896   2.193   2.821   0.983  0.6167 -0.0102 -1.7300
24354SOL     OW78897   8.958   2.939   5.112 -0.2576  0.0289  0.0316
24354SOL    HW178898   8.942   2.890   5.032  1.0577 -0.9430  0.3193
24354SOL    HW278899   9.033   2.995   5.092 -2.1344  2.4951 -0.4901
24355SOL     OW78900   7.436   9.977   9.648 -0.1515  0.8135 -0.2018
24355SOL    HW178901   7.372   9.906   9.641  0.5167  0.0439  1.0659
24355SOL    HW278902   7.419  10.017   9.733  0.7507  0.8801 -0.0398
24356SOL     OW78903   9.795   4.457   4.543 -0.0740  0.3341  0.3627
24356SOL    HW178904   9.786   4.540   4.494 -2.2554  0.4802  0.9087
24356SOL    HW278905   9.741   4.395   4.494  1.0222 -0.6387  0.3362
24357SOL     OW78906   1.476   2.659   9.300 -0.4095  0.2979 -0.4209
24357SOL    HW178907   1.459   2.709   9.379  0.2525 -0.7872  0.4426
24357SOL    HW278908   1.571   2.650   9.297 -0.2874  1.5854 -2.1707
24358SOL     OW78909  10.744   3.174   2.872 -0.4927  0.8943 -0.3586
24358SOL    HW178910  10.771   3.254   2.916  0.7183 -0.7570  2.1267
24358SOL    HW278911  10.660   3.152   2.912 -0.5556  0.6371 -0.6264
24359SOL     OW78912   6.588   7.482   9.020  0.0242  0.5837 -0.5869
24359SOL    HW178913   6.676   7.471   9.057 -0.0739  1.0983 -0.1875
24359SOL    HW278914   6.602   7.521   8.934  0.0894  3.3554  0.5975
24360SOL     OW78915   4.637   1.969   5.035  0.1331  0.5024  0.1600
24360SOL    HW178916   4.681   2.011   4.961 -0.9420  0.9320 -0.2597
24360SOL    HW278917   4.697   1.900   5.063 -0.1070 -0.7695 -2.1782
24361SOL     OW78918   6.628   4.337   9.670 -0.0465  0.7786 -0.1746
24361SOL    HW178919   6.704   4.385   9.637 -2.0418  3.8172 -0.7653
24361SOL    HW278920   6.630   4.350   9.764  0.7773 -0.2440 -0.0251
24362SOL     OW78921   9.754   7.538   0.072  0.4046 -0.1037 -0.3974
24362SOL    HW178922   9.672   7.567   0.031 -0.5594 -1.1318  0.7305
24362SOL    HW278923   9.799   7.619   0.094  0.9339  0.5038 -3.3406
24363SOL     OW78924   0.235   3.699   2.675  0.0759  0.1888  0.1585
24363SOL    HW178925   0.227   3.769   2.741  1.6433  0.0258  0.5610
24363SOL    HW278926   0.310   3.648   2.704  1.3094  0.5498 -2.1666
24364SOL     OW78927   9.079  10.690   6.973 -0.2433 -0.0485  0.5674
24364SOL    HW178928   9.098  10.672   6.881  0.5508 -3.2644  1.2412
24364SOL    HW278929   9.165  10.705   7.013 -0.1324 -2.3310  1.3584
24365SOL     OW78930   8.294   2.687   2.219 -0.1691  0.2358 -0.7277
24365SOL    HW178931   8.389   2.694   2.209  0.3562  0.3473  2.9688
24365SOL    HW278932   8.278   2.593   2.226 -0.1076  0.2691 -0.0417
24366SOL     OW78933   0.470   0.717   6.156 -0.3824 -0.4853 -1.0646
24366SOL    HW178934   0.477   0.771   6.078  0.3064 -1.7436 -1.9149
24366SOL    HW278935   0.532   0.645   6.142  0.0504 -0.5499  0.8194
24367SOL     OW78936   3.898  10.461  10.109 -0.2075 -0.2024  0.3284
24367SOL    HW178937   3.931  10.532  10.053  1.6708 -0.2829  1.2264
24367SOL    HW278938   3.823  10.426  10.063 -1.6316  2.7824  0.1527
24368SOL     OW78939   4.507   8.754   9.590  0.0445  0.3330  0.3825
24368SOL    HW178940   4.489   8.764   9.683  1.6253  0.2769  0.7142
24368SOL    HW278941   4.427   8.784   9.546 -0.6697  0.4596  1.7452
24369SOL     OW78942   0.481   5.723   9.016 -0.0182  0.4367 -0.5770
24369SOL    HW178943   0.550   5.682   8.964 -0.5244 -1.1313 -0.0831
24369SOL    HW278944   0.401   5.711   8.964 -0.2660  0.2670 -0.1637
24370SOL     OW78945  10.826   0.953   9.711  0.3007 -0.1418  0.7387
24370SOL    HW178946  10.852   1.033   9.666 -1.2466  1.3383  2.3043
24370SOL    HW278947  10.891   0.941   9.780  0.3697 -0.0487  0.6896
24371SOL     OW78948   8.167   5.619   0.303 -0.7852  0.5487  0.0125
24371SOL    HW178949   8.205   5.556   0.364 -0.7929  2.0677  1.6743
24371SOL    HW278950   8.231   5.625   0.232 -0.6115 -1.0063  0.0074
24372SOL     OW78951   0.648   3.555   3.847  0.0846 -0.0626 -0.0261
24372SOL    HW178952   0.638   3.617   3.919 -0.0261 -1.8481  1.5510
24372SOL    HW278953   0.562   3.554   3.804 -0.0656  0.4669  0.2552
24373SOL     OW78954   3.874   0.711   6.539  0.0364  0.7926 -0.0132
24373SOL    HW178955   3.943   0.745   6.482  0.8424  0.9165  1.0094
24373SOL    HW278956   3.874   0.617   6.523  1.7016  0.5226  1.2576
24374SOL     OW78957   2.776   9.281   4.681  0.1801 -0.6514 -0.2423
24374SOL    HW178958   2.701   9.238   4.639  0.0880 -0.5338 -0.1990
24374SOL    HW278959   2.852   9.233   4.648  0.1017 -0.6278 -0.4637
24375SOL     OW78960  10.824   2.554   6.300  0.0417 -0.2986  0.1705
24375SOL    HW178961  10.834   2.461   6.283  0.4854  0.1132 -2.1228
24375SOL    HW278962  10.730   2.566   6.316 -0.2944 -0.9065 -1.2335
24376SOL     OW78963   4.517   2.999   5.514  0.0238  0.0245  0.2441
24376SOL    HW178964   4.598   2.970   5.471 -0.6452 -0.9073 -0.4346
24376SOL    HW278965   4.508   3.090   5.488  1.8328  0.7527  1.8803
24377SOL     OW78966   3.699   9.333   8.549 -0.2120  0.4973 -0.3022
24377SOL    HW178967   3.617   9.335   8.500 -0.1394  1.3844 -0.3867
24377SOL    HW278968   3.700   9.414   8.599  0.4431  0.3189 -0.0148
24378SOL     OW78969   5.714   7.150   0.420  0.1098  0.0772  0.1245
24378SOL    HW178970   5.719   7.243   0.444  1.8953  0.0582 -0.0267
24378SOL    HW278971   5.795   7.113   0.454 -0.2627 -1.2891 -0.4367
24379SOL     OW78972  10.346   7.001   7.394  0.4439  0.7127 -0.4224
24379SOL    HW178973  10.331   7.031   7.484 -0.5803  0.1243 -0.3670
24379SOL    HW278974  10.351   7.081   7.342  1.2226  1.0655  0.1743
24380SOL     OW78975  10.296   9.364   1.034 -0.2806  0.6956  0.1152
24380SOL    HW178976  10.374   9.321   0.999  0.3091 -0.6142  2.7164
24380SOL    HW278977  10.224   9.328   0.984  0.3983 -1.9683  0.8672
24381SOL     OW78978   5.986   6.021   9.051  0.0791  0.0085  0.2277
24381SOL    HW178979   5.988   5.939   9.100 -0.7413  0.4628  1.0648
24381SOL    HW278980   6.014   6.087   9.115 -2.3385  0.8115  0.5547
24382SOL     OW78981   3.630   5.997   8.642 -0.0496 -0.2417 -0.2502
24382SOL    HW178982   3.551   6.014   8.591  0.8690 -0.6630 -1.8780
24382SOL    HW278983   3.598   5.978   8.731 -1.8107 -1.1530 -1.0416
24383SOL     OW78984   0.308   2.493   4.974 -0.2307  0.2919  0.0871
24383SOL    HW178985   0.380   2.496   4.911 -0.5425 -3.1146 -0.6115
24383SOL    HW278986   0.352   2.484   5.059  0.1701  0.6371 -0.0780
24384SOL     OW78987  10.259   6.543   0.192 -0.2730 -0.3725  0.2600
24384SOL    HW178988  10.304   6.479   0.135 -1.0766 -2.2444  1.6249
24384SOL    HW278989  10.171   6.507   0.203 -0.5607  0.6735  1.5885
24385SOL     OW78990   1.995   6.735  10.448 -0.8160 -0.1891 -0.2808
24385SOL    HW178991   1.998   6.640  10.438  0.9161 -0.0145 -1.9741
24385SOL    HW278992   2.053   6.754  10.522 -1.9807 -0.4691  0.7476
24386SOL     OW78993   2.296   9.754   7.049  0.0345 -0.9143  0.1519
24386SOL    HW178994   2.384   9.757   7.012  0.3779  0.3255  1.0061
24386SOL    HW278995   2.239   9.740   6.974  0.7183  1.2054 -0.8404
24387SOL     OW78996   2.958   3.571   9.670 -0.2450 -0.4944 -0.9962
24387SOL    HW178997   3.052   3.572   9.691 -0.0372 -0.4444 -1.8912
24387SOL    HW278998   2.930   3.483   9.693  0.1770 -0.7274 -1.3459
24388SOL     OW78999   3.929   7.964   1.085  0.5690  0.1654 -0.5381
24388SOL    HW179000   3.973   7.972   1.000  0.1689  0.2307 -0.7441
24388SOL    HW279001   3.876   8.044   1.092  0.4377  0.0606 -0.3227
24389SOL     OW79002   8.766   6.576   3.140  0.6248 -0.0137 -0.2423
24389SOL    HW179003   8.753   6.597   3.048 -1.7201  0.0725  0.0394
24389SOL    HW279004   8.786   6.659   3.182 -0.4231  0.3230 -0.3820
24390SOL     OW79005   3.447   0.433   2.656  0.1374 -0.8633  0.2040
24390SOL    HW179006   3.508   0.383   2.711  1.8705  1.1477  0.2476
24390SOL    HW279007   3.498   0.508   2.626 -1.5321 -0.5410 -2.1078
24391SOL     OW79008   9.191   4.231   8.197  0.1565  0.1936  0.4173
24391SOL    HW179009   9.152   4.268   8.118  0.4489 -1.5614 -0.5691
24391SOL    HW279010   9.211   4.308   8.251  0.5771  1.4664 -1.4678
24392SOL     OW79011   2.286   7.397   3.393 -0.0844  0.4313  0.1915
24392SOL    HW179012   2.234   7.318   3.408  1.7212 -0.9367 -0.2992
24392SOL    HW279013   2.256   7.431   3.309  0.7023 -1.1317 -0.7677
24393SOL     OW79014   1.188   3.454  10.374  0.1194 -0.0059  0.3229
24393SOL    HW179015   1.129   3.438  10.447  0.4193 -0.8916  0.3888
24393SOL    HW279016   1.187   3.372  10.324  0.0387  0.5363 -0.5755
24394SOL     OW79017   9.904   9.298   7.270  0.0324  0.3625 -0.5008
24394SOL    HW179018   9.988   9.302   7.316 -0.0801 -0.1816 -0.2348
24394SOL    HW279019   9.840   9.325   7.335  0.0898  1.7795 -0.9974
24395SOL     OW79020   3.684   9.263   6.190 -0.2710  0.3739 -0.2968
24395SOL    HW179021   3.610   9.211   6.159  0.1681 -0.6400  0.2902
24395SOL    HW279022   3.687   9.245   6.284 -0.8660  2.4555  0.1770
24396SOL     OW79023   0.294   7.616   2.080  0.0687  0.5904  0.9605
24396SOL    HW179024   0.386   7.621   2.054  0.3462 -0.1840  1.7352
24396SOL    HW279025   0.278   7.697   2.129  0.3569  0.6983  0.8769
24397SOL     OW79026   3.377   5.410   0.224 -0.3217 -0.1450  0.3184
24397SOL    HW179027   3.430   5.342   0.265 -0.4814 -1.0860 -0.9569
24397SOL    HW279028   3.438   5.483   0.211  0.2623 -0.6189  0.3326
24398SOL     OW79029   2.042   9.317   2.940 -0.3938 -0.3567  0.1128
24398SOL    HW179030   2.069   9.244   2.884 -1.9295 -1.1335  0.3369
24398SOL    HW279031   2.124   9.359   2.965  0.4534 -1.2308 -1.0499
24399SOL     OW79032   3.567   2.859   9.000  0.0690  0.2481 -0.5206
24399SOL    HW179033   3.658   2.887   9.010  0.2050 -0.0852 -0.7917
24399SOL    HW279034   3.573   2.766   8.975 -0.2908  0.5925 -1.9486
24400SOL     OW79035  10.911   5.077   9.290 -0.0082 -0.5475 -0.0554
24400SOL    HW179036  10.903   5.102   9.382  0.0879 -0.9916  0.0763
24400SOL    HW279037  10.850   5.004   9.280  0.2174 -0.7095 -0.2617
24401SOL     OW79038   8.563   0.760   8.641 -0.2155  0.3079  0.3010
24401SOL    HW179039   8.596   0.849   8.624  1.5632 -0.0922  1.3715
24401SOL    HW279040   8.477   0.774   8.680  0.0798  1.5629  0.5646
24402SOL     OW79041   2.948   7.420   6.163  0.0123 -0.3451 -0.1251
24402SOL    HW179042   2.929   7.510   6.190 -0.7398 -0.2850 -0.8269
24402SOL    HW279043   3.018   7.392   6.223  1.5801  1.3158 -1.0633
24403SOL     OW79044   5.206   1.388   5.397  0.2590  0.2764 -0.1614
24403SOL    HW179045   5.206   1.467   5.451 -0.7771 -0.1934  0.5610
24403SOL    HW279046   5.182   1.419   5.309 -0.3501  0.7449  0.1577
24404SOL     OW79047   3.709   0.397   4.557 -0.1448 -0.4657  0.3475
24404SOL    HW179048   3.740   0.448   4.631 -0.8615  1.6735 -0.7542
24404SOL    HW279049   3.641   0.451   4.517 -1.4503 -2.6046 -0.5006
24405SOL     OW79050   8.226   3.203   6.776  0.0301 -0.5993 -0.1082
24405SOL    HW179051   8.259   3.120   6.810 -0.6211 -0.8065  0.0359
24405SOL    HW279052   8.182   3.243   6.851  0.2224 -0.1864 -0.2146
24406SOL     OW79053   3.443   5.692   9.134 -0.5097  0.9435  0.0702
24406SOL    HW179054   3.537   5.678   9.143 -0.6284 -1.6748 -1.4862
24406SOL    HW279055   3.403   5.629   9.194 -1.3127  2.2070  0.9094
24407SOL     OW79056   2.466   8.865   4.953 -0.6953  0.3696  0.1810
24407SOL    HW179057   2.483   8.776   4.983 -2.1393 -1.0234 -2.7697
24407SOL    HW279058   2.541   8.886   4.897 -0.3555  1.0489  0.8713
24408SOL     OW79059   1.447   1.091   6.910 -0.3452 -0.1808  0.1129
24408SOL    HW179060   1.409   1.175   6.882  3.2128  2.2309  1.8015
24408SOL    HW279061   1.460   1.043   6.828 -3.3936  0.3396 -0.8339
24409SOL     OW79062   1.206   4.534   5.782 -0.3281  0.5430  0.2223
24409SOL    HW179063   1.296   4.547   5.754 -0.2052  0.4054  0.5452
24409SOL    HW279064   1.201   4.440   5.802 -0.7341  0.4088 -0.4584
24410SOL     OW79065  10.569   0.971  10.263 -0.6103  0.3164  0.1970
24410SOL    HW179066  10.652   0.939  10.227  0.8945  0.5639  3.1434
24410SOL    HW279067  10.583   1.065  10.275 -0.2363 -0.0167  3.0778
24411SOL     OW79068   9.737   1.336   3.402  0.6056 -0.3240 -0.0184
24411SOL    HW179069   9.806   1.270   3.397 -0.7346 -1.7405 -0.6280
24411SOL    HW279070   9.696   1.336   3.316  1.4321  2.3488 -0.5017
24412SOL     OW79071   6.717   6.016   8.447 -0.0624  0.2260 -0.4057
24412SOL    HW179072   6.713   5.957   8.371  0.7404 -1.2921  0.6760
24412SOL    HW279073   6.703   6.103   8.410  0.8450 -0.4018 -2.4017
24413SOL     OW79074   5.110   0.325   4.578 -0.2606  0.1944 -0.0108
24413SOL    HW179075   5.096   0.419   4.572 -1.8788  0.0299  0.6355
24413SOL    HW279076   5.026   0.287   4.551 -0.0149 -1.0226  0.8597
24414SOL     OW79077   8.996  10.590   7.968  0.1493  0.1995  0.3874
24414SOL    HW179078   8.914  10.543   7.987  0.5039  0.1547  1.9701
24414SOL    HW279079   8.979  10.636   7.886 -0.9796 -0.9164 -0.0313
24415SOL     OW79080   1.788   0.519  10.745  0.0402  0.0639 -0.0195
24415SOL    HW179081   1.873   0.556  10.719  0.7578 -0.8339  0.9362
24415SOL    HW279082   1.761   0.466  10.670 -1.3557  2.9670 -1.7116
24416SOL     OW79083   4.809   4.582   5.146  0.6555  0.0508  0.1316
24416SOL    HW179084   4.844   4.651   5.202  0.0706 -0.2467  0.8798
24416SOL    HW279085   4.834   4.501   5.190 -0.2706 -0.1770  0.2419
24417SOL     OW79086   1.723   8.834   5.777 -0.0773  0.1082 -0.5558
24417SOL    HW179087   1.768   8.913   5.808  1.8755 -0.1718 -2.4554
24417SOL    HW279088   1.665   8.810   5.849  1.5048  1.5536  1.3051
24418SOL     OW79089   4.824   0.763   1.194 -0.5340 -0.0376  0.7318
24418SOL    HW179090   4.737   0.727   1.212 -0.8991  0.5813  0.2451
24418SOL    HW279091   4.815   0.807   1.110  0.8779 -2.0214 -0.5657
24419SOL     OW79092   4.529   6.348   5.992 -0.2857 -0.2527  0.1358
24419SOL    HW179093   4.522   6.322   6.084 -1.7534 -0.0186  0.1200
24419SOL    HW279094   4.476   6.427   5.985  0.8282  0.4487 -0.6683
24420SOL     OW79095   2.645   2.699   0.302 -0.2076 -0.1523 -0.2007
24420SOL    HW179096   2.614   2.626   0.248  1.5531 -0.6868 -0.5517
24420SOL    HW279097   2.713   2.661   0.357 -0.6565  0.8153  1.0549
24421SOL     OW79098   1.259   9.754   4.374  0.6848 -0.1057  0.3959
24421SOL    HW179099   1.304   9.677   4.338  1.2328  0.8735 -1.1245
24421SOL    HW279100   1.183   9.766   4.316 -0.0811 -0.1901  1.3525
24422SOL     OW79101  10.174   1.085   3.721 -0.3964  0.0038 -0.2085
24422SOL    HW179102  10.084   1.117   3.731  0.2127  1.3093  1.7088
24422SOL    HW279103  10.222   1.127   3.793  1.7371 -0.7219 -1.1394
24423SOL     OW79104   9.853   3.593  10.843 -0.5107  0.3380 -0.3131
24423SOL    HW179105   9.864   3.554  10.929 -0.0045  0.8798 -0.1186
24423SOL    HW279106   9.768   3.636  10.846  0.8202  3.1906  1.1210
24424SOL     OW79107  10.843   9.827   6.527  0.4515 -0.3561  0.1141
24424SOL    HW179108  10.786   9.885   6.577 -0.5418  0.9102 -2.3094
24424SOL    HW279109  10.928   9.871   6.527  0.1127  0.3085 -0.3911
24425SOL     OW79110   6.263   6.683   9.156 -0.1796 -0.0127  0.3445
24425SOL    HW179111   6.292   6.745   9.224 -0.4341  0.3980  0.0845
24425SOL    HW279112   6.268   6.733   9.075  0.6295 -0.6594 -0.0288
24426SOL     OW79113   3.637   7.154   8.703 -0.0566 -0.2812 -0.1242
24426SOL    HW179114   3.603   7.133   8.616  0.4023 -1.1321 -0.1055
24426SOL    HW279115   3.728   7.125   8.702 -0.4045 -1.5301  1.0630
24427SOL     OW79116   8.881   6.204   7.468  0.4875  0.0163  0.0568
24427SOL    HW179117   8.791   6.192   7.500 -0.5719 -1.2672 -3.0070
24427SOL    HW279118   8.936   6.185   7.544 -1.7888 -0.9700  1.5805
24428SOL     OW79119   7.826   7.937   8.739 -0.0242  0.3021  0.4140
24428SOL    HW179120   7.850   7.847   8.761 -1.8561 -0.0597  1.0680
24428SOL    HW279121   7.890   7.990   8.785 -0.3107 -0.6234  1.9340
24429SOL     OW79122   1.154   7.639  10.543  0.4351  0.4452 -0.0801
24429SOL    HW179123   1.149   7.717  10.487 -0.5113  1.5660  1.4999
24429SOL    HW279124   1.110   7.665  10.624  0.6417 -1.5519  0.7133
24430SOL     OW79125   2.482   8.753   4.448 -0.7811 -0.0475 -0.3149
24430SOL    HW179126   2.563   8.801   4.432  0.6380 -2.4891 -0.8903
24430SOL    HW279127   2.419   8.821   4.475  1.8167  1.7603  1.7060
24431SOL     OW79128  10.249   3.857   2.493 -0.4371  0.1907  0.1894
24431SOL    HW179129  10.202   3.794   2.438 -3.1615 -0.5046  3.0059
24431SOL    HW279130  10.281   3.804   2.567  0.8164  1.4579  0.5815
24432SOL     OW79131   6.431   8.347   8.768  0.0259 -0.3212 -0.0267
24432SOL    HW179132   6.516   8.311   8.743  0.9727 -0.8365  3.4192
24432SOL    HW279133   6.376   8.270   8.782 -0.0269 -0.1558  0.7273
24433SOL     OW79134   4.899   5.766  10.872  0.1037  0.1089  0.1590
24433SOL    HW179135   4.839   5.819  10.924  0.9295 -0.6924  2.0486
24433SOL    HW279136   4.865   5.677  10.879 -0.7981  0.1926 -2.2875
24434SOL     OW79137   9.372   2.999   2.113 -0.5971  0.3135  0.0236
24434SOL    HW179138   9.336   3.082   2.082  0.2751  0.6957  0.0240
24434SOL    HW279139   9.295   2.943   2.125 -1.4520  1.8161  2.1884
24435SOL     OW79140   2.281   4.346   4.305 -0.1320  0.5264 -0.3390
24435SOL    HW179141   2.220   4.366   4.376 -0.7350 -0.6546 -0.4956
24435SOL    HW279142   2.337   4.277   4.339  0.1687  0.5864 -0.7004
24436SOL     OW79143   5.600   5.905   3.662  0.3880  0.0648 -0.8811
24436SOL    HW179144   5.547   5.918   3.584  0.4047 -0.4674 -0.9793
24436SOL    HW279145   5.665   5.840   3.637 -0.5817 -1.2999  0.0415
24437SOL     OW79146   9.400   9.715   4.811  0.0393  0.4195 -0.0121
24437SOL    HW179147   9.479   9.767   4.826  0.3719  0.3379 -1.3875
24437SOL    HW279148   9.340   9.774   4.765  0.5580 -0.4650 -1.9117
24438SOL     OW79149   3.026   7.995   1.245 -0.4851 -0.1994 -0.3036
24438SOL    HW179150   3.122   7.988   1.249 -0.3061  1.2884 -1.2336
24438SOL    HW279151   3.005   8.075   1.292 -1.0771  0.4729 -1.6451
24439SOL     OW79152   0.637   9.132   0.683  0.0348  0.7255 -0.4540
24439SOL    HW179153   0.680   9.100   0.762  0.3565 -0.5694 -1.1249
24439SOL    HW279154   0.543   9.128   0.703  0.0756 -0.4134 -0.4129
24440SOL     OW79155   3.023   3.383   0.663 -0.5927  0.3532  0.2756
24440SOL    HW179156   3.109   3.359   0.696 -0.8977 -0.5513  0.4713
24440SOL    HW279157   2.963   3.361   0.734 -1.1032 -0.1904 -0.3004
24441SOL     OW79158   7.805   2.516   8.789  0.1292  0.1103 -0.4951
24441SOL    HW179159   7.786   2.543   8.699  4.5544  0.3452 -1.5739
24441SOL    HW279160   7.857   2.436   8.779 -0.4447 -0.6570  2.0017
24442SOL     OW79161   0.462   4.281   3.725  0.0830  0.0042 -0.0421
24442SOL    HW179162   0.381   4.326   3.703  0.2961  0.7422  0.6525
24442SOL    HW279163   0.469   4.289   3.820 -0.8619 -3.1644  0.4434
24443SOL     OW79164   1.379   3.076   8.264 -0.2678  0.1183 -0.4426
24443SOL    HW179165   1.367   2.982   8.255 -0.5387 -0.2527  2.5785
24443SOL    HW279166   1.290   3.112   8.262 -0.1800  0.2921 -1.3763
24444SOL     OW79167   6.611   4.178  10.784  0.3407  0.3318 -0.3523
24444SOL    HW179168   6.705   4.163  10.774  0.1416 -0.2450 -1.5455
24444SOL    HW279169   6.601   4.273  10.785  0.7648  0.4507 -2.3582
24445SOL     OW79170   4.612   6.295  10.092  0.2083  0.7559 -0.3432
24445SOL    HW179171   4.594   6.384  10.062 -1.2717  0.3082 -0.8699
24445SOL    HW279172   4.590   6.239  10.018 -0.1006 -0.1319  0.3891
24446SOL     OW79173   3.994   2.186   1.998  0.0036 -0.7286 -0.1818
24446SOL    HW179174   3.947   2.105   1.980  0.4225 -0.5961 -1.9877
24446SOL    HW279175   3.949   2.252   1.946  2.0475 -0.5627 -1.8543
24447SOL     OW79176   9.398   4.939  10.259 -1.0250 -0.1030 -0.3685
24447SOL    HW179177   9.356   4.853  10.245  0.0212 -0.9200  1.2232
24447SOL    HW279178   9.378   4.960  10.350  0.9796  0.0269  0.0910
24448SOL     OW79179   0.148   1.060   2.411 -0.0876 -0.6022 -0.1323
24448SOL    HW179180   0.222   1.119   2.423 -0.5291  0.1139 -0.8219
24448SOL    HW279181   0.161   1.024   2.323 -0.7784 -0.1547 -0.4187
24449SOL     OW79182   8.435   9.000   3.720  0.8203 -0.3247 -0.3052
24449SOL    HW179183   8.372   8.983   3.650  0.6521 -2.5527  0.3035
24449SOL    HW279184   8.388   9.056   3.782 -0.4820 -1.6702 -0.0294
24450SOL     OW79185   8.940   0.990   8.021  0.1988 -0.0773 -0.6725
24450SOL    HW179186   8.880   1.050   7.979 -0.2805 -0.3090 -0.3262
24450SOL    HW279187   8.886   0.916   8.047  0.3292  0.3751  1.0037
24451SOL     OW79188   4.764   5.903   2.364  0.1630 -0.0822  0.2988
24451SOL    HW179189   4.813   5.972   2.318 -0.4007  0.5346  0.5948
24451SOL    HW279190   4.731   5.947   2.443  0.5842 -0.9535  0.9774
24452SOL     OW79191   4.722   2.814   8.306  0.2976 -0.1598 -0.2427
24452SOL    HW179192   4.760   2.753   8.369  0.0290 -0.2721 -0.1873
24452SOL    HW279193   4.643   2.847   8.350 -0.6182 -1.2208 -1.0336
24453SOL     OW79194  10.365  10.499  10.345 -0.2683 -0.4166  0.3263
24453SOL    HW179195  10.391  10.407  10.336 -0.5778 -0.3381 -1.7281
24453SOL    HW279196  10.279  10.495  10.387 -0.4606 -1.0980 -0.1091
24454SOL     OW79197   4.586   4.656   4.591 -0.0241 -0.1999 -0.6291
24454SOL    HW179198   4.624   4.666   4.504 -1.1643  0.4962 -1.0707
24454SOL    HW279199   4.504   4.705   4.587 -0.6842 -1.1608  0.4755
24455SOL     OW79200   9.716   9.974   7.267 -0.6683 -0.4468  0.3635
24455SOL    HW179201   9.788  10.017   7.315 -0.6758 -0.1597  0.1234
24455SOL    HW279202   9.638   9.999   7.316 -0.5899 -0.8944  0.7205
24456SOL     OW79203   4.543   4.138  10.700  0.1495 -0.3518  0.1001
24456SOL    HW179204   4.549   4.161  10.608  1.2715 -2.3904 -0.4004
24456SOL    HW279205   4.488   4.060  10.702  0.3971 -0.5163  1.1242
24457SOL     OW79206   6.573   0.148   8.881 -1.0077  0.0661  0.3599
24457SOL    HW179207   6.494   0.166   8.932 -0.5302  1.0688  0.7686
24457SOL    HW279208   6.592   0.231   8.837 -0.2809 -0.2222  0.1231
24458SOL     OW79209   4.718   5.641   2.378 -0.3814 -0.1732 -0.1169
24458SOL    HW179210   4.795   5.593   2.408  0.4084  0.2220 -1.4279
24458SOL    HW279211   4.749   5.730   2.364 -1.2468  0.1506  0.0204
24459SOL     OW79212   2.016   8.631   6.488  0.1331 -0.0467  0.0122
24459SOL    HW179213   1.995   8.723   6.504 -2.9215 -0.7983  0.9565
24459SOL    HW279214   1.993   8.617   6.396  0.2549  0.0519 -0.0336
24460SOL     OW79215   7.188   5.246   2.807 -0.9862  0.3535 -0.5459
24460SOL    HW179216   7.157   5.292   2.884 -1.0479 -0.0195 -0.3446
24460SOL    HW279217   7.263   5.195   2.839  0.2289  1.7055 -1.1422
24461SOL     OW79218   9.878   6.543  10.488  0.1855  0.0285  0.5548
24461SOL    HW179219   9.859   6.592  10.568 -2.1975 -0.8575  0.5949
24461SOL    HW279220   9.866   6.607  10.418 -1.2158 -0.0244  0.7166
24462SOL     OW79221   8.115   0.192   5.506 -0.5187 -0.4385 -0.7768
24462SOL    HW179222   8.033   0.185   5.457 -0.0224  0.2457 -1.7333
24462SOL    HW279223   8.107   0.126   5.575 -1.7777 -0.5312 -0.9793
24463SOL     OW79224   9.949   9.010   6.102  0.6900 -0.0557 -1.0525
24463SOL    HW179225   9.990   8.938   6.054  4.0885 -0.1540  1.5740
24463SOL    HW279226  10.020   9.072   6.118 -1.0682  1.6988  0.6435
24464SOL     OW79227  10.764   7.918  10.759  0.1151  0.1076 -0.1344
24464SOL    HW179228  10.708   7.870  10.820 -0.1192 -1.0681 -1.2311
24464SOL    HW279229  10.741   8.010  10.772 -0.9022 -0.2318  0.5829
24465SOL     OW79230   5.985   2.536   8.936 -0.2559 -0.1281  0.0630
24465SOL    HW179231   5.976   2.619   8.889  1.6323  0.7641  1.1589
24465SOL    HW279232   6.020   2.475   8.871 -1.3538 -0.0062 -0.6662
24466SOL     OW79233   6.457   7.625   4.560  0.0610  0.5359 -0.8709
24466SOL    HW179234   6.455   7.642   4.654 -0.7346 -0.8276 -0.6041
24466SOL    HW279235   6.532   7.567   4.548 -1.1517 -1.1887 -0.6565
24467SOL     OW79236   3.768   3.121   4.551  0.1151  0.0765  0.5557
24467SOL    HW179237   3.758   3.036   4.507  0.2870 -0.3295  1.2961
24467SOL    HW279238   3.705   3.178   4.506 -0.0812 -0.4712  0.1241
24468SOL     OW79239   7.546   5.940   5.606  0.2753  0.3494 -0.1600
24468SOL    HW179240   7.507   5.898   5.683  1.7631  0.2380  0.5567
24468SOL    HW279241   7.522   6.032   5.615 -1.4232  0.0174 -0.7667
24469SOL     OW79242   6.438   5.014   7.522  0.6423 -0.3549  0.1785
24469SOL    HW179243   6.473   5.002   7.610  0.9204  0.2698  0.1583
24469SOL    HW279244   6.439   4.926   7.484 -1.6207 -1.0471  1.5588
24470SOL     OW79245   4.568   6.841   0.189 -0.4146  0.7838  0.0232
24470SOL    HW179246   4.660   6.847   0.162 -0.4590 -1.8888 -1.0102
24470SOL    HW279247   4.567   6.779   0.261 -1.5809 -1.0132 -1.4368
24471SOL     OW79248   4.750   7.818   0.325 -0.4822  0.2589  0.4498
24471SOL    HW179249   4.786   7.862   0.403  0.0602 -0.3728  0.5662
24471SOL    HW279250   4.655   7.819   0.339 -0.5092  1.6018  0.3327
24472SOL     OW79251   0.309   9.288   3.354  0.1021  0.4845 -0.4745
24472SOL    HW179252   0.315   9.295   3.449 -0.0948  0.9236 -0.4878
24472SOL    HW279253   0.344   9.371   3.322 -0.8639  0.8109 -0.7360
24473SOL     OW79254   1.282   3.046   8.631 -0.2179 -0.1266  0.1495
24473SOL    HW179255   1.373   3.059   8.605 -0.0493  0.2280  0.8832
24473SOL    HW279256   1.287   2.998   8.714 -0.6466  1.0164  0.8685
24474SOL     OW79257   0.958   2.878   3.493  0.9609 -0.2080  0.0158
24474SOL    HW179258   0.934   2.805   3.550  2.9107 -1.0354 -0.1468
24474SOL    HW279259   1.037   2.849   3.449  1.6154  1.8935 -0.3096
24475SOL     OW79260   6.125   2.633   0.443 -0.0131 -0.1585  0.2486
24475SOL    HW179261   6.119   2.541   0.415  1.2089 -0.3793  0.6710
24475SOL    HW279262   6.208   2.664   0.408 -0.5960  0.9202 -0.2148
24476SOL     OW79263  10.840   7.094   7.965 -0.0909 -0.5011  0.3740
24476SOL    HW179264  10.818   7.181   7.932 -0.5511 -0.6754  0.2130
24476SOL    HW279265  10.914   7.109   8.024 -0.7831  0.1385  1.1113
24477SOL     OW79266   0.321   5.254   8.422  0.3616 -0.6551 -0.5653
24477SOL    HW179267   0.335   5.159   8.413 -0.6882 -0.8182 -0.5689
24477SOL    HW279268   0.250   5.262   8.486 -0.2806  0.0893 -1.3423
24478SOL     OW79269   3.624   4.950   5.615  0.1021 -0.5245  0.2968
24478SOL    HW179270   3.542   4.988   5.647  1.0357  1.8369  0.1181
24478SOL    HW279271   3.599   4.900   5.538 -1.0191  1.6213 -0.8166
24479SOL     OW79272   9.090   9.119   2.836  0.3930  0.2817 -0.4909
24479SOL    HW179273   9.093   9.061   2.760  1.4426 -1.7735  1.0066
24479SOL    HW279274   9.023   9.080   2.892 -0.6007  1.9534 -0.4417
24480SOL     OW79275   3.838   6.192   6.188  0.0775  0.2517  0.3240
24480SOL    HW179276   3.881   6.111   6.215 -0.5456 -1.3202 -2.8960
24480SOL    HW279277   3.900   6.233   6.127 -0.6978  0.8474 -0.0845
24481SOL     OW79278   1.645   1.582   6.335  0.0937 -0.0572 -0.2157
24481SOL    HW179279   1.581   1.566   6.266 -0.3137  1.7845 -0.3185
24481SOL    HW279280   1.620   1.667   6.373  3.1236  1.3684 -1.0477
24482SOL     OW79281   0.564   7.625   4.620  0.1836 -0.0081 -0.5478
24482SOL    HW179282   0.584   7.698   4.561 -0.7378  0.6872 -0.0231
24482SOL    HW279283   0.568   7.663   4.707 -0.8737 -0.4447 -0.2979
24483SOL     OW79284   2.876   0.542   4.217  0.2475  0.1855 -0.2636
24483SOL    HW179285   2.804   0.589   4.259 -0.4759 -1.3966  0.3543
24483SOL    HW279286   2.919   0.607   4.162  0.0891  1.8764  1.5099
24484SOL     OW79287  10.511   2.711   6.910 -0.4367  0.2059  0.4138
24484SOL    HW179288  10.443   2.742   6.970 -0.2389  1.5560 -0.0291
24484SOL    HW279289  10.476   2.729   6.823  0.7520  1.5740  0.1811
24485SOL     OW79290   2.683   1.938   3.210  0.0529 -0.0157 -0.2191
24485SOL    HW179291   2.711   1.847   3.196 -1.4356 -0.6218  0.6050
24485SOL    HW279292   2.593   1.932   3.240 -0.3743  1.7970 -0.9774
24486SOL     OW79293   9.609   4.776   9.665  0.2717  0.6791  0.1478
24486SOL    HW179294   9.528   4.802   9.621 -0.5599 -1.2654  0.4024
24486SOL    HW279295   9.679   4.808   9.608 -0.7194  0.7602 -1.0696
24487SOL     OW79296   7.739   8.031   5.116 -0.0300  0.3747  0.2761
24487SOL    HW179297   7.681   8.085   5.170  1.1106  2.0879 -0.1149
24487SOL    HW279298   7.801   7.993   5.178 -0.0473  0.5798  0.4213
24488SOL     OW79299   6.484   3.121   8.017  0.1424  0.0696  0.3777
24488SOL    HW179300   6.528   3.200   7.985  1.4544 -0.8265 -0.1189
24488SOL    HW279301   6.497   3.124   8.112 -1.0896  1.1705  0.5405
24489SOL     OW79302   5.750   0.035  10.725 -0.2626  0.6059  0.4999
24489SOL    HW179303   5.745  -0.024  10.650 -1.0422 -0.3972  1.3022
24489SOL    HW279304   5.844   0.041  10.745 -0.1370 -0.0221  0.1307
24490SOL     OW79305   9.589   6.032   8.716 -0.0353  0.2041 -0.3661
24490SOL    HW179306   9.602   6.008   8.624  1.0875  1.3067 -0.5364
24490SOL    HW279307   9.567   6.125   8.713  0.8346  0.4605  0.5122
24491SOL     OW79308   7.734   9.656   5.489  0.1376 -0.2492 -0.0069
24491SOL    HW179309   7.760   9.682   5.401 -0.7454  0.4627 -0.0695
24491SOL    HW279310   7.816   9.654   5.538  0.9117 -2.4478 -1.2440
24492SOL     OW79311   7.572   4.907  10.345  0.3946 -0.0681 -0.2293
24492SOL    HW179312   7.619   4.955  10.276 -2.5795  0.5975 -1.9997
24492SOL    HW279313   7.595   4.815  10.330  1.6934  0.2751 -0.5163
24493SOL     OW79314   4.176   2.498  10.217 -0.0507  1.0924 -0.4392
24493SOL    HW179315   4.203   2.417  10.261  1.8162  1.2638 -1.2116
24493SOL    HW279316   4.188   2.566  10.283 -0.8982  0.8585 -0.0304
24494SOL     OW79317   1.229  10.674   9.409  0.0357 -0.1931 -0.1783
24494SOL    HW179318   1.273  10.730   9.473  0.4386 -0.2933 -0.3652
24494SOL    HW279319   1.284  10.678   9.331  0.0046 -0.7522 -0.2348
24495SOL     OW79320   0.516   0.805   5.910 -0.2415  0.6076  0.4556
24495SOL    HW179321   0.472   0.858   5.843 -0.3490 -2.4007 -2.1077
24495SOL    HW279322   0.607   0.835   5.907  0.0131 -0.1559 -1.9748
24496SOL     OW79323   6.232   7.458   2.167  0.2525  0.0230 -0.1697
24496SOL    HW179324   6.285   7.393   2.122 -0.1194 -0.2007 -0.2918
24496SOL    HW279325   6.143   7.442   2.135  0.0038 -0.0568  0.5543
24497SOL     OW79326   4.889   5.380  10.701  0.6821  0.0019  0.1794
24497SOL    HW179327   4.840   5.324  10.763  2.5358 -1.7618  0.1688
24497SOL    HW279328   4.866   5.345  10.615  1.3414 -0.3453  0.1374
24498SOL     OW79329   0.523   4.938   7.033 -0.1602 -0.1637 -0.4726
24498SOL    HW179330   0.479   4.991   7.098  0.5795 -0.8660  0.6371
24498SOL    HW279331   0.599   4.991   7.007 -0.1561 -0.1138 -0.3609
24499SOL     OW79332   2.808   6.400   6.925  0.0221 -0.4813 -0.0094
24499SOL    HW179333   2.842   6.383   6.837 -0.0312 -2.9213  0.3885
24499SOL    HW279334   2.880   6.376   6.983 -0.9605 -1.8055  0.6951
24500SOL     OW79335   5.140   0.171   6.190  0.3869 -0.1767  0.2603
24500SOL    HW179336   5.085   0.191   6.114  1.3712  1.0957 -0.1535
24500SOL    HW279337   5.131   0.077   6.202  0.7366 -0.5384 -1.8884
24501SOL     OW79338   5.336   9.517  10.359  0.1154 -0.1792  0.2669
24501SOL    HW179339   5.241   9.506  10.362 -0.0766  0.9411 -0.7550
24501SOL    HW279340   5.364   9.462  10.286  0.2476 -0.4789  0.5434
24502SOL     OW79341   2.778   4.860   3.079 -0.1864 -0.2748  0.1738
24502SOL    HW179342   2.740   4.948   3.075 -1.3673 -0.7864 -2.8958
24502SOL    HW279343   2.702   4.801   3.078  0.5542 -1.2981 -1.6528
24503SOL     OW79344   0.517   0.431   0.724 -0.4630  0.1262 -0.6462
24503SOL    HW179345   0.506   0.505   0.664 -0.9138 -0.2105 -0.9976
24503SOL    HW279346   0.430   0.417   0.761 -1.4243 -2.5696 -3.4321
24504SOL     OW79347   0.157   7.789   4.580  0.6133  0.1803  0.0788
24504SOL    HW179348   0.207   7.713   4.607  2.7116  1.8458  1.2155
24504SOL    HW279349   0.210   7.864   4.606 -2.3813  2.1435  1.1722
24505SOL     OW79350   9.879   5.998   7.416  0.5151 -0.1797  0.0521
24505SOL    HW179351   9.810   6.051   7.377  1.1963  0.5610 -0.1868
24505SOL    HW279352   9.873   6.016   7.510  0.2048 -0.3289  0.0593
24506SOL     OW79353   7.447   5.116   9.351 -0.0966  0.3704  0.6311
24506SOL    HW179354   7.435   5.205   9.384 -0.6301  0.4438  0.2429
24506SOL    HW279355   7.469   5.127   9.258 -0.0667  0.0981  0.6029
24507SOL     OW79356   5.883   7.429   6.002 -0.6529  0.2942 -0.3106
24507SOL    HW179357   5.876   7.336   5.981 -1.7873  0.4806 -0.8122
24507SOL    HW279358   5.901   7.472   5.919  1.0121  0.4342  0.0872
24508SOL     OW79359  10.777   1.927   7.487 -0.1839  0.2030 -0.5879
24508SOL    HW179360  10.831   1.966   7.557 -0.8135 -0.8497  0.5178
24508SOL    HW279361  10.800   1.978   7.409  2.7675 -0.4597 -0.2974
24509SOL     OW79362   5.838   1.138   1.979 -0.5174 -0.1345 -0.1197
24509SOL    HW179363   5.860   1.152   2.071  0.4478  2.1231 -0.6184
24509SOL    HW279364   5.747   1.165   1.971 -0.4742  0.0667  0.0834
24510SOL     OW79365  10.252   9.786   4.862 -0.1686  0.1888 -0.5246
24510SOL    HW179366  10.318   9.721   4.886  0.0610  0.7904  0.5184
24510SOL    HW279367  10.169   9.745   4.884 -0.1213 -0.2948 -1.1953
24511SOL     OW79368   1.822   7.638   5.640  0.2027 -0.5416 -0.6982
24511SOL    HW179369   1.797   7.547   5.624  0.8867 -0.8137 -0.2814
24511SOL    HW279370   1.741   7.683   5.662 -0.4732 -0.6114 -2.8102
24512SOL     OW79371   6.782   5.840   1.117 -0.0320 -0.5417 -0.0278
24512SOL    HW179372   6.818   5.761   1.158 -2.3610 -1.1965  0.9253
24512SOL    HW279373   6.699   5.855   1.162  0.0311  2.1233 -0.6203
24513SOL     OW79374  10.458   8.563   7.584 -0.2536 -0.3135  0.8109
24513SOL    HW179375  10.530   8.555   7.521  0.3598 -0.5517  1.5223
24513SOL    HW279376  10.488   8.629   7.647 -1.0490  0.2545  0.6098
24514SOL     OW79377   1.261   1.133   5.976  0.4609 -0.2418 -0.2108
24514SOL    HW179378   1.248   1.201   6.042 -2.0761  0.3581 -1.2428
24514SOL    HW279379   1.199   1.064   6.001 -1.1903  0.3643 -2.3765
24515SOL     OW79380   0.337   4.763   0.058  0.1342 -0.4798  0.1479
24515SOL    HW179381   0.258   4.713   0.035  0.0257 -0.2485  0.0181
24515SOL    HW279382   0.392   4.756  -0.020 -0.2675  0.3723 -0.2273
24516SOL     OW79383   5.179   1.684   9.928 -0.3006  0.3938 -0.0617
24516SOL    HW179384   5.263   1.729   9.923 -0.3797  0.6089  0.4057
24516SOL    HW279385   5.171   1.636   9.846  0.6513 -0.2779  0.2156
24517SOL     OW79386   9.149   0.771   7.283 -0.0929 -0.1508 -0.3105
24517SOL    HW179387   9.094   0.839   7.245  0.5096  1.2743  1.2523
24517SOL    HW279388   9.223   0.763   7.224 -0.8835 -0.5238 -1.2737
24518SOL     OW79389  10.687   0.336   0.679 -0.2176  0.2508  0.0485
24518SOL    HW179390  10.777   0.349   0.652  0.1556 -1.8909  0.1382
24518SOL    HW279391  10.685   0.367   0.770  0.5768 -0.2188  0.2356
24519SOL     OW79392   2.438   4.852   8.811 -0.1225  0.5766 -0.1879
24519SOL    HW179393   2.363   4.833   8.868 -0.8123 -0.3560 -1.3488
24519SOL    HW279394   2.453   4.771   8.763 -0.5384  1.6906 -2.3760
24520SOL     OW79395   4.458   5.001   8.836 -0.4153  0.1505  0.3303
24520SOL    HW179396   4.545   5.041   8.825  0.5173 -1.8314  0.1025
24520SOL    HW279397   4.459   4.965   8.924 -1.1895  0.4764  0.4809
24521SOL     OW79398  10.440   3.820  10.794 -0.1214 -0.2022 -0.0658
24521SOL    HW179399  10.400   3.901  10.764  0.5293  0.2884  0.3748
24521SOL    HW279400  10.370   3.754  10.785 -2.3139  1.2268  3.8818
24522SOL     OW79401   5.986   4.531   2.310 -0.8443 -0.0125 -0.0655
24522SOL    HW179402   5.929   4.472   2.261  0.0132 -0.3145 -0.7194
24522SOL    HW279403   6.063   4.479   2.332 -0.9193  0.3165  1.0347
24523SOL     OW79404   1.864  10.030   7.104 -0.1535 -0.5604  0.1896
24523SOL    HW179405   1.946   9.982   7.097  0.7554  0.9436  0.2048
24523SOL    HW279406   1.803   9.980   7.049  0.9580 -1.2798 -0.4300
24524SOL     OW79407  10.203   9.653   9.135 -0.4786 -0.0190  0.0596
24524SOL    HW179408  10.189   9.677   9.226  1.6550 -1.8573  0.9824
24524SOL    HW279409  10.119   9.618   9.106 -1.7965  2.4907  0.5935
24525SOL     OW79410   8.459   8.249   4.855 -0.3233  0.2021  0.4126
24525SOL    HW179411   8.368   8.242   4.885 -1.1737 -0.7974 -2.1474
24525SOL    HW279412   8.509   8.260   4.936 -2.6872  0.8640  1.9238
24526SOL     OW79413   9.737   5.994   0.605 -0.2067  0.2024  0.6139
24526SOL    HW179414   9.657   5.940   0.597 -2.0640  2.6762  1.3540
24526SOL    HW279415   9.746   6.009   0.699  0.2936  1.1360  0.4233
24527SOL     OW79416   1.741   6.987   6.832  1.3457  0.3663  0.1125
24527SOL    HW179417   1.686   6.913   6.859  0.7506  1.3870  1.8403
24527SOL    HW279418   1.820   6.946   6.796  0.6054 -1.1162  0.1151
24528SOL     OW79419   7.802   1.417   0.188  0.7987  0.1040  0.0299
24528SOL    HW179420   7.759   1.478   0.129 -0.3391  0.5241  1.2524
24528SOL    HW279421   7.864   1.370   0.132 -1.2613 -0.5706 -1.8360
24529SOL     OW79422   6.502   4.674   5.305 -0.3588  0.0362  0.2605
24529SOL    HW179423   6.548   4.643   5.383 -0.4568 -0.6534  0.0564
24529SOL    HW279424   6.507   4.600   5.244  0.2232  0.7565 -0.6060
24530SOL     OW79425   4.364   1.126  10.681 -0.3206  0.3570 -0.2435
24530SOL    HW179426   4.309   1.150  10.756 -1.1647  0.6053 -0.9338
24530SOL    HW279427   4.389   1.036  10.698 -1.8225 -0.1211 -0.4227
24531SOL     OW79428   0.162   8.464   7.487  0.0234 -0.3065  0.4187
24531SOL    HW179429   0.169   8.405   7.411  0.2861 -0.5338  0.6181
24531SOL    HW279430   0.212   8.420   7.556  1.1814  0.6860  0.2418
24532SOL     OW79431   4.881   8.783   7.019  0.1867  0.4919 -0.3115
24532SOL    HW179432   4.813   8.844   7.048 -0.1690 -0.0753  0.0721
24532SOL    HW279433   4.949   8.839   6.982  0.7191  1.2514  1.7211
24533SOL     OW79434   4.640   2.369   8.577 -0.7444  0.2912 -0.6928
24533SOL    HW179435   4.607   2.288   8.617  0.1880  1.4607  2.7974
24533SOL    HW279436   4.732   2.349   8.558 -0.7405  0.2536 -0.6390
24534SOL     OW79437   0.080   9.120  10.028 -0.3878 -0.2193 -0.1414
24534SOL    HW179438   0.127   9.195  10.065  1.2332 -1.2802  0.0432
24534SOL    HW279439   0.026   9.157   9.959  0.5747  1.0915 -0.2182
24535SOL     OW79440   5.238   0.177   7.146  0.3061 -0.2293  0.2047
24535SOL    HW179441   5.184   0.253   7.168 -1.2448 -1.5247  1.1198
24535SOL    HW279442   5.228   0.167   7.052  0.3071  0.5395  0.1171
24536SOL     OW79443   8.870   3.672   4.184  0.3407 -0.5019 -0.0706
24536SOL    HW179444   8.936   3.731   4.147  0.6746 -1.1157 -0.4759
24536SOL    HW279445   8.873   3.688   4.278 -0.9182  1.4980 -0.3069
24537SOL     OW79446   0.762   3.720  10.137  0.6477  0.1703  0.1167
24537SOL    HW179447   0.821   3.696  10.065 -1.7727 -1.8762 -1.3345
24537SOL    HW279448   0.799   3.676  10.214  1.0346 -1.0288 -0.7371
24538SOL     OW79449   5.995   6.267   5.482  0.0241  0.0618  0.1495
24538SOL    HW179450   6.064   6.333   5.476 -0.0316  0.0203 -1.6823
24538SOL    HW279451   5.948   6.274   5.399  0.0195 -2.2755 -0.1297
24539SOL     OW79452   9.990   0.888   5.949 -0.3459 -0.1184 -0.4404
24539SOL    HW179453   9.946   0.812   5.912  0.2419 -0.1249 -1.1482
24539SOL    HW279454  10.033   0.856   6.028 -0.9238 -0.2970 -0.1987
24540SOL     OW79455   6.068   9.276   6.838 -0.5008 -0.0131 -0.0616
24540SOL    HW179456   6.078   9.192   6.794  1.0051  0.1814 -0.1390
24540SOL    HW279457   5.973   9.293   6.837 -0.6538 -0.7796 -1.7831
24541SOL     OW79458   2.925   6.610  10.488 -0.6725 -0.4619  0.3226
24541SOL    HW179459   2.871   6.650  10.419 -0.7613 -2.6977 -1.0090
24541SOL    HW279460   2.986   6.554  10.440  1.4075  0.3088  1.9361
24542SOL     OW79461   8.967   8.522   8.897 -0.0740  0.2751  0.1680
24542SOL    HW179462   9.023   8.516   8.820 -1.6061  0.8479 -1.0333
24542SOL    HW279463   8.996   8.602   8.941  0.2971  0.3735 -0.2445
24543SOL     OW79464   2.477   5.097   9.723 -0.2448  0.0432 -0.0360
24543SOL    HW179465   2.413   5.078   9.791  0.4864 -0.2608  0.5763
24543SOL    HW279466   2.545   5.148   9.766  1.4739 -2.2161  0.1216
24544SOL     OW79467   3.740   2.101   6.457  0.2211 -0.5685 -0.0576
24544SOL    HW179468   3.703   2.175   6.505 -0.4886 -0.6909 -0.4077
24544SOL    HW279469   3.834   2.108   6.471 -0.0200 -1.6436  2.9133
24545SOL     OW79470   6.954   3.231   3.450  0.6227  0.3291  0.0568
24545SOL    HW179471   6.980   3.192   3.367 -1.0478 -1.8584  0.4575
24545SOL    HW279472   6.978   3.165   3.516 -0.5646  0.7906  0.9930
24546SOL     OW79473   6.981   2.427   5.926  0.5352  0.4105 -0.0096
24546SOL    HW179474   7.006   2.391   6.011  0.6969  1.3056  0.3340
24546SOL    HW279475   7.003   2.358   5.863 -0.5716 -0.6976  0.7562
24547SOL     OW79476   1.591  10.128   4.119  0.0811 -1.1625 -0.0847
24547SOL    HW179477   1.498  10.109   4.124 -0.1569  0.1730  1.4777
24547SOL    HW279478   1.604  10.158   4.029 -0.8745 -1.9020 -0.4825
24548SOL     OW79479   2.362   8.156   7.139  0.0079  0.2292  0.8412
24548SOL    HW179480   2.434   8.161   7.202 -0.1638 -1.9835  1.2871
24548SOL    HW279481   2.379   8.075   7.090 -1.1546  0.6745 -0.3576
24549SOL     OW79482   1.753   1.195   7.468  0.1506 -0.2980 -0.3558
24549SOL    HW179483   1.694   1.121   7.482 -0.6600 -0.0137 -2.0354
24549SOL    HW279484   1.817   1.189   7.539 -1.5355 -0.9605  1.1710
24550SOL     OW79485   1.637  10.073   5.388  0.1533 -0.2096  0.5301
24550SOL    HW179486   1.617  10.022   5.309 -1.9959  0.6858  0.4315
24550SOL    HW279487   1.644  10.163   5.358  0.0701  0.0431  1.2427
24551SOL     OW79488   5.169   3.218   2.858 -0.2736 -0.0317  0.4001
24551SOL    HW179489   5.097   3.269   2.895 -1.0976 -0.8913  0.0286
24551SOL    HW279490   5.148   3.127   2.880  0.6213 -0.3137  0.1491
24552SOL     OW79491   6.205   5.096   7.612 -0.6551  0.5647 -0.2889
24552SOL    HW179492   6.203   5.190   7.596  2.1899  0.8810  0.5895
24552SOL    HW279493   6.286   5.066   7.570 -2.1702 -1.7850 -1.7203
24553SOL     OW79494   4.629   5.493   5.590 -0.0580  0.2842 -0.1323
24553SOL    HW179495   4.577   5.500   5.510 -0.6702  1.2177  0.3292
24553SOL    HW279496   4.717   5.517   5.563 -0.2823  0.7009 -0.5097
24554SOL     OW79497   9.825   3.114   6.734  0.5632 -0.4444 -0.1925
24554SOL    HW179498   9.889   3.158   6.678  0.2325  0.2806 -0.0180
24554SOL    HW279499   9.769   3.185   6.766  1.7188 -0.6162  2.3661
24555SOL     OW79500   8.328   7.195   3.119  0.5565 -0.4506  0.0514
24555SOL    HW179501   8.267   7.179   3.046  1.0457  1.0259 -0.7073
24555SOL    HW279502   8.273   7.236   3.186  0.4276 -0.3636 -0.1040
24556SOL     OW79503   8.318  10.290   1.473  0.4037  0.5926  0.1744
24556SOL    HW179504   8.259  10.217   1.489  1.7415 -0.2063  1.7342
24556SOL    HW279505   8.267  10.368   1.496 -0.4768  0.0347  0.1552
24557SOL     OW79506   0.655   0.175   8.753  0.1433 -0.3089  0.4078
24557SOL    HW179507   0.717   0.139   8.817 -1.4218 -1.1792  1.5252
24557SOL    HW279508   0.587   0.217   8.807 -1.3034 -1.1939 -0.6351
24558SOL     OW79509   8.915   6.966   1.239 -0.2073 -0.3661 -0.1103
24558SOL    HW179510   8.866   6.976   1.321 -1.3313 -1.1376 -0.6582
24558SOL    HW279511   8.975   7.040   1.238 -0.3822 -0.1805  1.2722
24559SOL     OW79512   7.206   6.507   5.640 -0.0695  0.1054  0.2127
24559SOL    HW179513   7.255   6.425   5.634  0.1313  0.2895 -0.7552
24559SOL    HW279514   7.273   6.574   5.658  0.1515  0.4519 -1.7445
24560SOL     OW79515   5.967   8.764   8.623  0.1876 -0.8755  0.0029
24560SOL    HW179516   5.879   8.770   8.660  0.5603  0.5364  0.6982
24560SOL    HW279517   5.990   8.671   8.632 -1.0382 -1.1811  0.2127
24561SOL     OW79518   5.384   3.366   4.172 -0.1022 -0.0854 -0.2519
24561SOL    HW179519   5.361   3.451   4.211 -1.1336  0.3022 -1.6013
24561SOL    HW279520   5.301   3.319   4.166  0.1015 -0.3241 -1.4633
24562SOL     OW79521   3.366   3.878   6.986 -0.3112  0.3813 -0.2047
24562SOL    HW179522   3.344   3.790   6.957  0.1201  0.1500  0.1526
24562SOL    HW279523   3.408   3.919   6.910 -0.8222  0.3976 -0.4794
24563SOL     OW79524   9.523   3.505  10.315 -0.7828 -0.1562 -0.1560
24563SOL    HW179525   9.526   3.413  10.289 -2.1881  0.0653 -1.2597
24563SOL    HW279526   9.448   3.511  10.373 -0.7684  0.3068 -0.1812
24564SOL     OW79527  10.866   0.742   2.163 -0.7088  0.6269  0.4458
24564SOL    HW179528  10.861   0.821   2.108 -1.0840 -0.2973 -0.9138
24564SOL    HW279529  10.776   0.728   2.192 -0.5206  1.0779  1.2698
24565SOL     OW79530   9.720   3.413   7.922 -0.1564 -0.1873  0.2079
24565SOL    HW179531   9.774   3.434   7.998 -0.9496  0.6654  0.5638
24565SOL    HW279532   9.757   3.332   7.888 -0.3988 -1.1701  2.1138
24566SOL     OW79533  10.920   6.719   8.102  0.2795 -0.4003  0.0085
24566SOL    HW179534  10.966   6.775   8.040 -1.1893 -0.1139 -0.8772
24566SOL    HW279535  10.928   6.631   8.066  0.8791 -0.4856  0.3374
24567SOL     OW79536   2.089   1.259   5.673  1.0049 -0.7243  0.0060
24567SOL    HW179537   2.131   1.308   5.602  0.5403 -0.4615 -0.0878
24567SOL    HW279538   2.131   1.292   5.753 -0.1880  0.7746  0.0588
24568SOL     OW79539   4.232  10.058   8.269  0.6262  0.3656 -0.2027
24568SOL    HW179540   4.214   9.969   8.298  0.5931  0.5094  0.2264
24568SOL    HW279541   4.308  10.050   8.210  0.3246 -0.0024 -0.5441
24569SOL     OW79542   2.948  10.460   6.207  0.0668 -0.1587  1.1808
24569SOL    HW179543   2.985  10.537   6.164 -1.3371 -0.4128 -0.6282
24569SOL    HW279544   3.010  10.390   6.190 -1.0314 -0.5644 -1.7433
24570SOL     OW79545   3.411   6.801   9.809  0.3334 -0.0239  0.5668
24570SOL    HW179546   3.499   6.834   9.790  0.6974 -1.5381 -0.5938
24570SOL    HW279547   3.426   6.719   9.855 -0.5176  0.5326  1.8777
24571SOL     OW79548   4.987   5.190   9.628  0.9175  0.2592  0.2045
24571SOL    HW179549   4.933   5.205   9.550  0.4747  3.0604  0.9120
24571SOL    HW279550   5.076   5.211   9.600  1.2355 -1.4841 -0.2048
24572SOL     OW79551   6.273   5.925   7.019 -0.0791  0.1835 -0.2687
24572SOL    HW179552   6.267   6.012   6.980 -1.5037 -0.3573 -1.3480
24572SOL    HW279553   6.197   5.879   6.986 -0.0251 -1.1013  1.2795
24573SOL     OW79554   0.219  10.901   7.286 -0.1891 -0.3293 -0.0556
24573SOL    HW179555   0.277  10.957   7.234  1.7985 -1.4762  0.8208
24573SOL    HW279556   0.187  10.836   7.223 -0.8849  0.5389 -0.6305
24574SOL     OW79557   2.066   3.358   0.020 -0.5064  0.0622 -0.1047
24574SOL    HW179558   2.011   3.321   0.089  0.0222 -2.1721 -0.7922
24574SOL    HW279559   2.106   3.435   0.059 -2.8526  0.8130  0.9363
24575SOL     OW79560   4.821   7.834  10.524  0.3726 -0.2270 -0.7919
24575SOL    HW179561   4.777   7.915  10.551 -2.5040 -2.0674  0.6689
24575SOL    HW279562   4.914   7.851  10.537 -0.2518  2.2099  1.3858
24576SOL     OW79563   8.570   3.654   8.571 -0.2243  0.3428 -0.0604
24576SOL    HW179564   8.511   3.655   8.647 -0.9155  1.6933 -0.5791
24576SOL    HW279565   8.634   3.587   8.592 -0.6850  0.3410  1.5097
24577SOL     OW79566   7.304   2.213   9.818  0.1722 -0.0765 -0.5030
24577SOL    HW179567   7.255   2.190   9.739 -2.0451 -1.5918  1.1999
24577SOL    HW279568   7.374   2.148   9.822 -0.0150 -0.3138 -0.9589
24578SOL     OW79569   1.261   3.411   4.137  0.0112  0.5165  0.0114
24578SOL    HW179570   1.274   3.432   4.230  0.9728  0.7840 -0.1722
24578SOL    HW279571   1.218   3.325   4.137  1.5934 -0.3211  0.6966
24579SOL     OW79572   3.158   4.344   9.475  0.0231  0.0763  0.0568
24579SOL    HW179573   3.202   4.295   9.545 -0.3897  0.3648  0.5182
24579SOL    HW279574   3.066   4.322   9.484 -0.1117  0.6060 -0.0007
24580SOL     OW79575   0.496   4.364   2.655 -0.4951  0.6085  0.2505
24580SOL    HW179576   0.582   4.406   2.662 -0.7928  1.6245 -1.5587
24580SOL    HW279577   0.439   4.418   2.709 -0.1457  0.3705  0.8605
24581SOL     OW79578   0.761   2.131   2.689  0.1372 -0.1079  0.5881
24581SOL    HW179579   0.707   2.204   2.721 -0.0953  0.2964 -0.6531
24581SOL    HW279580   0.719   2.053   2.724 -0.5477  0.2713  0.6363
24582SOL     OW79581   9.690   1.400  10.264 -0.1335  0.1648 -0.2836
24582SOL    HW179582   9.683   1.466  10.333 -1.0946  0.0312 -0.2379
24582SOL    HW279583   9.737   1.444  10.193  2.2325 -0.1530  0.9941
24583SOL     OW79584   4.148   2.437   8.159  0.4273 -0.4405 -1.3110
24583SOL    HW179585   4.156   2.532   8.165 -0.4155 -0.2954 -2.1292
24583SOL    HW279586   4.220   2.411   8.102  1.6865 -0.5171  0.2557
24584SOL     OW79587   6.731   0.436   6.943 -0.4949  0.4146  0.6122
24584SOL    HW179588   6.651   0.389   6.965 -0.1871  0.4429  1.8610
24584SOL    HW279589   6.786   0.372   6.898 -1.4092  0.5456 -0.7678
24585SOL     OW79590   8.044   3.042   0.379  0.5863 -0.1623  0.0848
24585SOL    HW179591   8.109   3.037   0.449  0.5463 -0.2861  0.1128
24585SOL    HW279592   8.013   3.133   0.381  0.4155 -0.2249  0.3808
24586SOL     OW79593   0.731   2.780   2.501 -0.5386  0.3785 -0.1649
24586SOL    HW179594   0.733   2.854   2.561 -0.5665  0.1860  0.0788
24586SOL    HW279595   0.817   2.739   2.510  0.0328  1.2513 -1.4243
24587SOL     OW79596   7.303   2.353   4.409 -0.4797  0.3504 -0.0038
24587SOL    HW179597   7.228   2.412   4.410 -1.5772 -0.9989 -0.0625
24587SOL    HW279598   7.338   2.361   4.320 -1.1139  0.3231 -0.2620
24588SOL     OW79599   2.668   5.062   7.732  0.2152  0.0172 -0.4895
24588SOL    HW179600   2.689   5.129   7.666  2.1195  1.2566  1.2185
24588SOL    HW279601   2.612   5.108   7.795  0.4726 -0.3782  0.0320
24589SOL     OW79602   4.885  10.692   4.609 -0.1072  0.2728 -0.6505
24589SOL    HW179603   4.948  10.622   4.625  1.7291  1.9649  0.0026
24589SOL    HW279604   4.845  10.707   4.695 -1.5814 -0.9062 -1.0985
24590SOL     OW79605   0.330   2.209   0.650  0.1978 -0.1085 -0.7710
24590SOL    HW179606   0.361   2.293   0.617 -2.7888  0.3417 -2.8713
24590SOL    HW279607   0.380   2.143   0.601  4.0992  0.1390  2.3672
24591SOL     OW79608  10.869   3.253   7.880  0.6544  0.1772 -0.3461
24591SOL    HW179609  10.792   3.301   7.847 -0.7749 -1.8747 -0.2130
24591SOL    HW279610  10.850   3.238   7.972 -0.5060 -3.2056 -0.9877
24592SOL     OW79611  10.701   0.708   2.989  0.1527 -0.4752  0.0564
24592SOL    HW179612  10.632   0.643   2.996 -0.7068  0.3734 -0.2463
24592SOL    HW279613  10.692   0.743   2.901  1.4376 -0.8397 -0.2415
24593SOL     OW79614   4.981   5.032   5.707 -0.0797  0.5010  0.4508
24593SOL    HW179615   4.958   5.113   5.661  2.0171  1.6313  1.2855
24593SOL    HW279616   5.077   5.031   5.709 -0.0659 -0.7545  2.6305
24594SOL     OW79617   0.169   7.645   8.056  0.3583 -0.3146 -0.2071
24594SOL    HW179618   0.180   7.656   7.961 -0.6787  0.8917 -0.2198
24594SOL    HW279619   0.097   7.582   8.064  0.4698 -0.4440 -0.2213
24595SOL     OW79620   4.252   8.660   2.870 -0.0388 -0.0314  0.2946
24595SOL    HW179621   4.209   8.579   2.899  0.0712 -0.5042 -0.8216
24595SOL    HW279622   4.181   8.715   2.837 -0.0542  0.1431  0.6103
24596SOL     OW79623   4.034   7.375   7.975  0.1595 -0.8654 -0.4820
24596SOL    HW179624   4.007   7.316   7.904  0.2115  0.8156 -1.9611
24596SOL    HW279625   4.008   7.462   7.945 -0.4633 -0.1503  1.9048
24597SOL     OW79626   8.843   2.124   1.755  0.4753  0.4217 -0.0684
24597SOL    HW179627   8.795   2.107   1.674 -1.1501 -1.1248  1.1460
24597SOL    HW279628   8.911   2.057   1.757 -0.4958 -0.5717  0.5791
24598SOL     OW79629   7.333   7.463   8.320 -0.1079  0.1440 -0.0725
24598SOL    HW179630   7.303   7.374   8.299 -3.4230  1.1189 -0.0260
24598SOL    HW279631   7.365   7.498   8.237  0.4819 -0.8051 -0.2637
24599SOL     OW79632   0.670  10.221   3.282  0.0121  0.1466 -0.2155
24599SOL    HW179633   0.760  10.196   3.259  0.0456 -0.4507  0.5153
24599SOL    HW279634   0.630  10.140   3.314  0.2787  1.0584  2.7321
24600SOL     OW79635   3.957   4.374   7.397 -0.0347 -0.1366 -0.0655
24600SOL    HW179636   3.999   4.408   7.476 -0.8343  1.1605 -0.1656
24600SOL    HW279637   4.025   4.381   7.329  0.5455 -0.9421  0.4214
24601SOL     OW79638   7.319   5.231   0.082 -0.3973  0.0457  0.3519
24601SOL    HW179639   7.305   5.294   0.011 -0.3378  0.3888  0.6400
24601SOL    HW279640   7.388   5.173   0.049  0.2045  0.7016  0.4479
24602SOL     OW79641   3.786   2.122   7.886  0.0325 -0.0913  0.7318
24602SOL    HW179642   3.862   2.158   7.932  1.7944 -0.8480 -1.4692
24602SOL    HW279643   3.723   2.103   7.956  0.5225  3.4722  2.3924
24603SOL     OW79644   7.432  10.862  10.253  0.2386 -0.0697  0.1329
24603SOL    HW179645   7.382  10.913  10.317  1.9216  1.8752  0.0012
24603SOL    HW279646   7.441  10.776  10.294 -0.3425  0.5455  1.6522
24604SOL     OW79647   9.480  10.760   8.096 -0.0704  0.4937  0.2201
24604SOL    HW179648   9.404  10.749   8.038  1.7599 -1.6238 -1.9840
24604SOL    HW279649   9.444  10.750   8.185 -2.4779  0.4048 -0.6905
24605SOL     OW79650   4.531   2.420   1.832 -0.1259 -0.4496  0.6712
24605SOL    HW179651   4.558   2.473   1.907  1.3180  0.4092 -0.4063
24605SOL    HW279652   4.477   2.479   1.779 -0.3166 -0.7350  0.5417
24606SOL     OW79653   6.662   0.182   6.938 -0.0652  0.0313 -0.6866
24606SOL    HW179654   6.694   0.135   6.861  0.0827  0.9106 -1.1606
24606SOL    HW279655   6.700   0.134   7.012 -1.5433 -1.8503 -1.0633
24607SOL     OW79656   2.783   4.949   8.564  0.2479  0.4925 -0.5575
24607SOL    HW179657   2.754   4.936   8.654  1.1052  0.6001 -0.2597
24607SOL    HW279658   2.723   4.896   8.511 -0.0771  0.1995  0.0988
24608SOL     OW79659   0.686   6.670   4.755 -0.1723  0.4903 -0.4200
24608SOL    HW179660   0.693   6.588   4.804  3.2984  1.6965  1.4272
24608SOL    HW279661   0.771   6.680   4.712 -1.3036  2.0902 -2.4813
24609SOL     OW79662   8.464  10.682   2.115  0.5129  0.2260  0.0340
24609SOL    HW179663   8.489  10.592   2.139 -0.0067  0.3089  0.9026
24609SOL    HW279664   8.434  10.722   2.197 -2.2035  0.2203 -0.8649
24610SOL     OW79665   0.314   3.991   3.995  0.4805  0.2061 -0.0306
24610SOL    HW179666   0.312   3.921   4.060 -0.3993  0.6369  0.4287
24610SOL    HW279667   0.395   3.976   3.946  0.7603 -0.5920  0.6455
24611SOL     OW79668  10.199   5.790   1.693  0.1515  0.3966 -0.2915
24611SOL    HW179669  10.232   5.724   1.753  1.9007  0.2303 -1.3794
24611SOL    HW279670  10.229   5.874   1.729 -0.8577  0.5265  0.3146
24612SOL     OW79671   6.276   1.081   9.982  0.1334 -0.3193 -0.0713
24612SOL    HW179672   6.226   1.027   9.921 -0.2153  1.1033 -1.0973
24612SOL    HW279673   6.284   1.166   9.938 -3.2321  2.0373  3.2752
24613SOL     OW79674   4.006   9.400   4.861 -0.0998  0.7659  0.7532
24613SOL    HW179675   4.009   9.337   4.789 -0.2580  1.1847  0.3707
24613SOL    HW279676   4.036   9.351   4.937 -2.6697 -0.5070  1.0385
24614SOL     OW79677   9.209   9.017   5.224 -0.8067 -0.0706  0.0809
24614SOL    HW179678   9.162   9.041   5.304  0.0417  1.7495  0.0955
24614SOL    HW279679   9.298   8.996   5.254 -0.2428  1.4519 -0.4256
24615SOL     OW79680   1.344   1.048   4.629 -0.5370 -0.1962 -0.1996
24615SOL    HW179681   1.328   1.128   4.579 -1.8364  0.3740  1.0454
24615SOL    HW279682   1.324   0.977   4.568 -0.1428  0.4376 -1.0873
24616SOL     OW79683   9.589   8.225   8.138  0.2277 -0.0699  0.2926
24616SOL    HW179684   9.646   8.302   8.131  0.6597 -0.4066  0.0512
24616SOL    HW279685   9.576   8.196   8.048  0.1889 -0.3700  0.3947
24617SOL     OW79686   9.440   5.009   8.298 -1.2314 -0.8055  0.1122
24617SOL    HW179687   9.479   5.082   8.250 -1.0419 -1.1980 -0.3465
24617SOL    HW279688   9.388   5.050   8.367  0.1160 -0.2728  0.8381
24618SOL     OW79689   3.560   1.829   8.178 -0.2075  0.5238 -0.3967
24618SOL    HW179690   3.521   1.776   8.109  0.8149  0.0403 -0.6206
24618SOL    HW279691   3.491   1.891   8.202 -2.2348 -2.2166  1.3994
24619SOL     OW79692   9.437   3.159   6.253  0.2161 -0.3783  0.2654
24619SOL    HW179693   9.431   3.082   6.197 -2.4768 -0.7864  0.9808
24619SOL    HW279694   9.438   3.125   6.342  2.3881  0.3546  0.6051
24620SOL     OW79695   2.882   2.757   3.009  1.2885 -0.3362 -0.4243
24620SOL    HW179696   2.880   2.697   3.083  0.5091  0.8940  0.5908
24620SOL    HW279697   2.973   2.756   2.980  1.7751 -0.3023  1.0166
24621SOL     OW79698   4.949   0.659   4.473 -0.3004  0.1872 -0.4784
24621SOL    HW179699   4.987   0.726   4.415  0.2205  0.5771  0.3021
24621SOL    HW279700   4.879   0.620   4.421  0.1705  0.5189 -1.3853
24622SOL     OW79701   4.415   4.256   6.858  0.5806 -0.2933  0.1148
24622SOL    HW179702   4.357   4.199   6.807  0.8405 -1.3515  0.9517
24622SOL    HW279703   4.503   4.230   6.832  0.7098  0.6390 -0.4361
24623SOL     OW79704   0.222  10.440   4.573  0.3845 -0.0797 -0.2911
24623SOL    HW179705   0.219  10.346   4.592 -0.3515 -0.0770 -0.3464
24623SOL    HW279706   0.274  10.446   4.492 -0.7102 -0.5844 -1.0575
24624SOL     OW79707   5.382   2.421   2.984 -0.0327 -0.3894 -0.6007
24624SOL    HW179708   5.358   2.329   2.983  0.4016 -0.5062 -0.9523
24624SOL    HW279709   5.435   2.433   2.905 -1.1250  0.4423 -1.2369
24625SOL     OW79710   1.299   9.845   3.472  0.6592  0.4840  0.0202
24625SOL    HW179711   1.285   9.764   3.424  1.7938  0.7844 -0.8461
24625SOL    HW279712   1.212   9.868   3.505 -0.0454 -0.0424 -1.3839
24626SOL     OW79713   1.842   7.786   3.203  0.2246  0.5503 -0.2797
24626SOL    HW179714   1.895   7.777   3.124  0.5050  0.8826 -0.1286
24626SOL    HW279715   1.884   7.856   3.252 -0.1811  0.6116 -0.0206
24627SOL     OW79716   4.199   4.590   6.481 -0.3117 -0.0934 -0.0457
24627SOL    HW179717   4.177   4.661   6.540 -1.5232 -0.9957  0.6426
24627SOL    HW279718   4.282   4.555   6.514  1.3868  2.1812 -1.5652
24628SOL     OW79719   3.389   0.195   9.596 -0.2062  0.5172  0.1386
24628SOL    HW179720   3.359   0.227   9.680  1.8498  0.4973  0.9454
24628SOL    HW279721   3.418   0.273   9.549 -0.6419  0.4504 -0.2390
24629SOL     OW79722   3.694   3.213   2.779 -0.1176  0.2324 -0.7055
24629SOL    HW179723   3.751   3.141   2.754  0.4760  0.1943  0.6812
24629SOL    HW279724   3.752   3.288   2.788 -0.2107  0.1249  1.0128
24630SOL     OW79725   1.004   8.388   8.902  0.6480 -0.3340  0.1114
24630SOL    HW179726   1.098   8.378   8.884  0.4315 -2.0536 -0.3064
24630SOL    HW279727   1.000   8.412   8.995  1.4909 -1.9347  0.6112
24631SOL     OW79728   9.723   2.774   6.234 -0.4266 -0.0231 -0.1968
24631SOL    HW179729   9.636   2.777   6.273  0.0530  0.4927  0.8855
24631SOL    HW279730   9.739   2.680   6.220 -1.7097 -0.0455 -1.7662
24632SOL     OW79731   0.822   7.267   9.905 -0.4638 -0.1680  0.4249
24632SOL    HW179732   0.785   7.261   9.993 -0.7265 -1.8559  0.2257
24632SOL    HW279733   0.784   7.348   9.869  0.0909  0.8370  2.0337
24633SOL     OW79734   2.410   3.673   2.729 -0.6741 -0.2212  0.2664
24633SOL    HW179735   2.438   3.585   2.755 -0.6794 -0.7552 -1.4559
24633SOL    HW279736   2.477   3.703   2.668 -1.3222  0.4751 -0.1191
24634SOL     OW79737   1.703   0.778  10.835  0.2623  0.0104  0.2711
24634SOL    HW179738   1.714   0.692  10.795  0.9363  0.3728 -0.3553
24634SOL    HW279739   1.694   0.838  10.761  1.5387  0.6891  0.6353
24635SOL     OW79740   6.914   9.211   7.203 -0.4215  0.6078 -0.5310
24635SOL    HW179741   6.822   9.213   7.176 -0.0941  1.8727 -1.6062
24635SOL    HW279742   6.912   9.236   7.295 -1.1686  0.4592 -0.5003
24636SOL     OW79743  10.611   9.965  10.081  0.8927 -0.2888 -0.3865
24636SOL    HW179744  10.567  10.037  10.035  1.9787  0.7893  0.2215
24636SOL    HW279745  10.640  10.004  10.164 -0.5060 -2.0262  0.9946
24637SOL     OW79746   3.220   0.415   8.051 -0.1543 -0.1856  0.1142
24637SOL    HW179747   3.154   0.452   8.108 -1.5759 -2.3160 -0.0404
24637SOL    HW279748   3.255   0.341   8.099  1.5437  0.3866 -0.1714
24638SOL     OW79749   3.527   8.802   3.213 -1.0872 -0.8273  0.3256
24638SOL    HW179750   3.457   8.862   3.187  0.5193  0.6761 -0.8660
24638SOL    HW279751   3.563   8.840   3.294 -0.1202 -0.1712 -0.3847
24639SOL     OW79752   0.724   8.757   6.056  0.0540 -0.0135  0.1612
24639SOL    HW179753   0.706   8.664   6.041  1.1291  0.0722 -2.0280
24639SOL    HW279754   0.792   8.780   5.993  0.0443  2.2050  0.8418
24640SOL     OW79755   3.018   9.879   2.534  0.3095  0.1852  0.7306
24640SOL    HW179756   2.990   9.797   2.494  1.2189  0.3294 -0.2485
24640SOL    HW279757   2.951   9.943   2.508  1.0571  0.3531 -0.9053
24641SOL     OW79758  10.814   3.812  10.514  0.4305 -0.1971 -1.3589
24641SOL    HW179759  10.748   3.868  10.556  0.7790  0.4012 -1.5959
24641SOL    HW279760  10.891   3.819  10.571  0.0016 -1.6877 -0.5305
24642SOL     OW79761   5.166   9.163   7.602 -0.1246  0.3614 -0.1199
24642SOL    HW179762   5.175   9.076   7.562  0.3698 -0.1695  1.1019
24642SOL    HW279763   5.111   9.149   7.679 -0.3918  1.2180 -0.1397
24643SOL     OW79764   2.886   8.135   8.133  0.0482 -0.1685 -0.1036
24643SOL    HW179765   2.973   8.124   8.093  0.8849 -1.3776  1.9052
24643SOL    HW279766   2.828   8.150   8.058  1.7662 -0.6453 -1.6309
24644SOL     OW79767   8.876   3.076   0.098  0.0134  0.0343 -0.1320
24644SOL    HW179768   8.944   3.142   0.089 -0.2790  0.3531  0.0006
24644SOL    HW279769   8.893   3.015   0.026  2.4756 -1.7478  1.7857
24645SOL     OW79770   2.409   1.476   6.034 -0.4718 -0.4090 -0.6018
24645SOL    HW179771   2.447   1.406   6.087 -0.7128  0.6542  1.0665
24645SOL    HW279772   2.484   1.517   5.991 -0.0479 -0.2191  0.2863
24646SOL     OW79773   8.934   3.308   1.407 -0.1731 -0.0978 -0.0858
24646SOL    HW179774   9.020   3.349   1.398 -0.1662 -0.0952 -0.0119
24646SOL    HW279775   8.891   3.357   1.477  1.3242 -2.6693  2.8940
24647SOL     OW79776   3.166   1.461   8.942 -0.1407  0.1936  0.2109
24647SOL    HW179777   3.256   1.487   8.926 -0.8303  2.3367 -0.5570
24647SOL    HW279778   3.140   1.414   8.863 -0.1356  0.8767 -0.1999
24648SOL     OW79779   5.231  10.847   2.748  0.1372  0.4832  0.3963
24648SOL    HW179780   5.178  10.786   2.801 -0.4849 -0.0070 -0.7440
24648SOL    HW279781   5.314  10.854   2.796 -0.8550  1.1160  2.1310
24649SOL     OW79782   1.869   6.357   4.162  0.0467 -0.6384  0.1714
24649SOL    HW179783   1.808   6.364   4.089  1.8442 -0.3022 -1.3629
24649SOL    HW279784   1.926   6.283   4.139  1.8507  0.6647  0.2439
24650SOL     OW79785   1.359   9.748   6.314  0.4350 -0.1932  0.0122
24650SOL    HW179786   1.279   9.774   6.268 -0.4679 -2.8372 -0.0854
24650SOL    HW279787   1.420   9.820   6.299 -0.9329  0.5540 -2.4603
24651SOL     OW79788   2.781   0.856   5.663 -0.4811  0.0770 -0.1623
24651SOL    HW179789   2.733   0.813   5.593  0.2056 -0.4899 -0.3034
24651SOL    HW279790   2.826   0.929   5.620  0.7868 -0.8893 -0.5633
24652SOL     OW79791   3.612   6.506   3.533  0.0434 -0.2431 -0.1938
24652SOL    HW179792   3.703   6.482   3.515  0.8106  1.0693  1.6178
24652SOL    HW279793   3.579   6.540   3.450  1.0646 -1.0754 -0.9769
24653SOL     OW79794   9.616   0.966   2.760 -0.2898 -0.5517  0.3851
24653SOL    HW179795   9.605   0.897   2.694  2.1173  0.8364 -1.6431
24653SOL    HW279796   9.531   1.009   2.765 -0.1197  0.5985 -3.5021
24654SOL     OW79797   1.489   1.493   0.324 -0.3917 -0.0010 -0.5530
24654SOL    HW179798   1.543   1.527   0.253 -1.0891  2.2421 -0.0992
24654SOL    HW279799   1.542   1.503   0.403 -0.8495  0.6922 -0.3235
24655SOL     OW79800   0.456   0.725   5.232  0.0488  0.1943  0.4612
24655SOL    HW179801   0.548   0.715   5.258  0.4838 -1.4220 -1.3753
24655SOL    HW279802   0.422   0.635   5.233 -1.1707  0.6384 -0.0295
24656SOL     OW79803   0.486   9.750   2.899 -0.1555  0.4505  0.2141
24656SOL    HW179804   0.395   9.760   2.928  0.0355  1.0862  0.5964
24656SOL    HW279805   0.538   9.768   2.977  0.4444  4.0000 -0.8133
24657SOL     OW79806   3.364   8.503   0.091 -0.4422  0.5963 -0.1080
24657SOL    HW179807   3.370   8.435   0.158 -0.9517  2.3579  1.8596
24657SOL    HW279808   3.273   8.533   0.095 -0.5635  0.5472 -1.8409
24658SOL     OW79809   2.688   5.580   2.673 -0.2448  0.1118  0.4422
24658SOL    HW179810   2.683   5.637   2.750 -0.1879 -0.9578  1.2486
24658SOL    HW279811   2.761   5.616   2.622 -1.7197  2.2526 -0.3106
24659SOL     OW79812   9.060   1.178  10.722 -0.6907 -0.7857  0.2246
24659SOL    HW179813   8.975   1.150  10.686 -0.6896 -2.4512  1.3929
24659SOL    HW279814   9.123   1.158  10.652 -0.7703 -3.3519  0.7837
24660SOL     OW79815   1.035  10.921   9.349  0.3218 -0.1823  0.0475
24660SOL    HW179816   1.017  10.897   9.439 -0.0395  1.5128  0.4576
24660SOL    HW279817   1.130  10.930   9.345  0.2679  0.6427  0.5096
24661SOL     OW79818   4.998   3.154   3.314 -0.0639 -0.2961 -0.1447
24661SOL    HW179819   5.015   3.121   3.402  1.8905 -0.5729 -0.5791
24661SOL    HW279820   4.965   3.078   3.265  0.7107 -0.6628 -0.1257
24662SOL     OW79821   0.769   5.992   7.698 -0.2734  0.2167 -0.3813
24662SOL    HW179822   0.766   5.896   7.696 -0.8542  0.1887  0.7745
24662SOL    HW279823   0.677   6.018   7.705 -0.0520  0.8003  0.5543
24663SOL     OW79824   6.082  10.010   7.229  0.2601 -0.1148 -0.3716
24663SOL    HW179825   6.117   9.927   7.263  0.3185  0.3456  0.7484
24663SOL    HW279826   5.993   9.988   7.201  0.4557 -0.6705 -0.5758
24664SOL     OW79827   7.615   6.782   3.951 -0.2824  0.6530 -0.3611
24664SOL    HW179828   7.652   6.770   4.038  0.2810  1.9816 -0.3976
24664SOL    HW279829   7.528   6.816   3.966  0.1676  1.8204 -0.3050
24665SOL     OW79830   3.565   7.545   3.084  0.2952 -0.7418 -0.1739
24665SOL    HW179831   3.492   7.483   3.078 -0.5312  0.2178 -0.3060
24665SOL    HW279832   3.567   7.569   3.177  0.2861 -0.5794 -0.2161
24666SOL     OW79833   1.878   2.566  10.529  0.4129  0.6260 -0.0394
24666SOL    HW179834   1.943   2.636  10.536  0.2007  0.8169  0.0588
24666SOL    HW279835   1.849   2.569  10.438  1.9111 -0.7103 -0.6021
24667SOL     OW79836   8.041   9.316  10.254  0.2023  0.1974 -0.2123
24667SOL    HW179837   8.108   9.383  10.238 -0.8448  0.9014 -1.9904
24667SOL    HW279838   7.981   9.324  10.179 -1.1596 -1.2682  0.6585
24668SOL     OW79839   9.995   9.550   3.317  0.5019  0.0383 -0.4421
24668SOL    HW179840  10.045   9.525   3.239  1.4702 -1.5635  0.6434
24668SOL    HW279841   9.977   9.643   3.305 -0.3941 -0.3988 -3.1361
24669SOL     OW79842   8.801   5.002   7.312  0.4495 -0.1261  0.3011
24669SOL    HW179843   8.714   4.962   7.310  0.0511  0.7145 -0.2256
24669SOL    HW279844   8.860   4.934   7.282  0.0324 -0.8349  1.0394
24670SOL     OW79845   9.391   1.741   1.904 -0.2080  0.5194  0.3013
24670SOL    HW179846   9.471   1.788   1.923  0.3740 -0.3912  0.1527
24670SOL    HW279847   9.331   1.808   1.869  0.2905  1.3008  0.9241
24671SOL     OW79848   3.359   7.608   8.890  0.3633  0.0656  0.1056
24671SOL    HW179849   3.451   7.585   8.883  0.7053  1.6585 -1.4819
24671SOL    HW279850   3.341   7.659   8.810 -2.5302 -2.3382 -0.9791
24672SOL     OW79851   2.416   6.263   6.254 -0.2649 -0.8413 -0.3604
24672SOL    HW179852   2.352   6.300   6.193  0.8221 -2.0023 -2.2933
24672SOL    HW279853   2.366   6.201   6.307 -0.8939 -1.1975 -1.3569
24673SOL     OW79854   0.879   7.822   7.212 -0.4663  0.8165 -0.0634
24673SOL    HW179855   0.916   7.736   7.234 -0.8771  0.2515 -1.4809
24673SOL    HW279856   0.804   7.831   7.271  0.3200  0.7799  0.9723
24674SOL     OW79857   4.476   5.962   2.917  0.0638 -0.0799  0.1826
24674SOL    HW179858   4.399   6.009   2.884 -0.5754 -1.5479 -0.5279
24674SOL    HW279859   4.470   5.969   3.012 -0.3139  0.7833  0.1040
24675SOL     OW79860  10.300   5.806   0.564  0.2164 -0.0354 -0.3107
24675SOL    HW179861  10.340   5.857   0.494 -2.0710  0.4492 -1.3474
24675SOL    HW279862  10.323   5.715   0.542  1.0812  0.2429 -0.6170
24676SOL     OW79863   5.368   5.965   2.991 -0.3087 -0.4124 -0.4436
24676SOL    HW179864   5.285   5.935   3.028 -0.3422 -0.3872 -0.4983
24676SOL    HW279865   5.433   5.902   3.022  0.0187  0.7712  1.4177
24677SOL     OW79866   5.998   4.113   4.026  0.0730 -0.3415  0.0912
24677SOL    HW179867   6.027   4.027   4.055  0.3671 -1.2815 -2.6506
24677SOL    HW279868   5.904   4.102   4.010 -0.1660  0.2677  1.0063
24678SOL     OW79869   9.417   6.106   5.559  0.6466  0.2685 -0.2670
24678SOL    HW179870   9.336   6.055   5.566  1.5376 -1.2388 -0.3704
24678SOL    HW279871   9.398   6.175   5.496 -0.9759  0.8310  0.7780
24679SOL     OW79872   7.335   5.876   5.105 -1.2501 -0.1640 -0.2969
24679SOL    HW179873   7.396   5.927   5.051 -1.3173  0.2092 -0.0216
24679SOL    HW279874   7.352   5.905   5.194 -2.2805  0.4301 -0.2734
24680SOL     OW79875  10.501   5.410  10.059  0.4878  0.6495  0.3529
24680SOL    HW179876  10.450   5.329  10.059 -0.2494  1.0948 -0.5569
24680SOL    HW279877  10.572   5.394   9.997 -0.0885  0.9455 -0.3984
24681SOL     OW79878   3.267   2.604   0.320  0.4628  0.4873  0.7881
24681SOL    HW179879   3.274   2.524   0.373  1.5141 -0.9019 -1.2891
24681SOL    HW279880   3.173   2.616   0.308  0.2345 -2.2249 -1.2119
24682SOL     OW79881   7.136   5.708   5.692  0.4748  0.1429 -0.3561
24682SOL    HW179882   7.166   5.797   5.674  0.1470  0.6401  1.3744
24682SOL    HW279883   7.199   5.652   5.647  1.1905  1.2412 -0.7595
24683SOL     OW79884   8.973   6.343   6.893  0.5377 -0.3931 -1.0659
24683SOL    HW179885   8.966   6.284   6.967  4.9047  0.2919  0.1611
24683SOL    HW279886   8.987   6.285   6.818 -0.0610 -1.0064 -0.7153
24684SOL     OW79887   3.416   3.684   0.303  0.8452  0.0193  0.0902
24684SOL    HW179888   3.398   3.777   0.290  0.0341  0.0338  1.1206
24684SOL    HW279889   3.354   3.658   0.371  0.6687 -1.4079 -0.5870
24685SOL     OW79890   9.228   0.392   9.168  0.9065  0.1551  0.4370
24685SOL    HW179891   9.304   0.334   9.166  0.3051 -0.6516 -0.3007
24685SOL    HW279892   9.154   0.334   9.187 -0.1654  0.0241 -3.1933
24686SOL     OW79893   9.707   2.868   5.977 -0.1062 -0.2090  0.4075
24686SOL    HW179894   9.760   2.810   5.922 -2.0556 -0.8314 -0.9270
24686SOL    HW279895   9.714   2.830   6.065  2.4869  0.3907  0.5307
24687SOL     OW79896  10.674   2.412   8.001 -0.0848 -0.6279  0.4320
24687SOL    HW179897  10.681   2.370   8.086 -0.3649  0.9257  1.2677
24687SOL    HW279898  10.620   2.353   7.948  1.0523 -2.1605  0.9360
24688SOL     OW79899   8.752   7.404   6.971 -0.2365  0.2114  0.9617
24688SOL    HW179900   8.714   7.492   6.973 -0.8123 -0.0467  1.4893
24688SOL    HW279901   8.762   7.380   7.063  0.6743  0.0374  0.8316
24689SOL     OW79902   4.479   4.633   8.719  0.0336  0.0831  0.6171
24689SOL    HW179903   4.450   4.542   8.713  0.9246 -0.2128  0.5803
24689SOL    HW279904   4.569   4.632   8.685  0.2542  0.8802  1.1371
24690SOL     OW79905   0.906   0.511  10.808 -0.1979 -0.4350 -0.2395
24690SOL    HW179906   0.993   0.548  10.822  0.3303 -1.8361  0.3862
24690SOL    HW279907   0.918   0.448  10.737 -0.7972 -0.3189 -0.4471
24691SOL     OW79908  10.348   0.420   0.360  0.2616  0.4195 -0.0167
24691SOL    HW179909  10.438   0.428   0.391  0.2249  3.0888 -0.3196
24691SOL    HW279910  10.296   0.416   0.440  0.5922  0.0194  0.1797
24692SOL     OW79911   4.637   5.622   7.634 -0.6911  0.2707 -0.1165
24692SOL    HW179912   4.729   5.614   7.659 -1.2390 -0.3262  1.8248
24692SOL    HW279913   4.614   5.536   7.598 -0.9448 -0.1632  1.0543
24693SOL     OW79914  10.135   0.912   0.402 -1.1871  0.4973  0.4393
24693SOL    HW179915  10.114   0.843   0.339  1.0007  0.2832 -0.1378
24693SOL    HW279916  10.191   0.972   0.354  0.1747  0.5802  2.0310
24694SOL     OW79917   5.371   1.324   3.796 -0.6553 -0.3435  0.2535
24694SOL    HW179918   5.325   1.405   3.820 -0.9647  0.2180 -2.0520
24694SOL    HW279919   5.301   1.260   3.781 -0.5030 -0.4727  0.0929
24695SOL     OW79920   9.879   0.521   7.585 -0.4762 -0.3598  0.0410
24695SOL    HW179921   9.949   0.456   7.585 -0.8978 -0.8450 -0.9918
24695SOL    HW279922   9.888   0.567   7.668  0.3615 -1.1690  0.4113
24696SOL     OW79923   8.298   4.885   1.559  0.2399  0.1679 -0.2327
24696SOL    HW179924   8.328   4.934   1.482 -0.6783  2.3011  0.6988
24696SOL    HW279925   8.378   4.866   1.608  0.8499 -1.2574 -1.6693
24697SOL     OW79926   9.839   3.974   8.092  0.0026 -0.1665 -0.2770
24697SOL    HW179927   9.820   3.886   8.058 -2.9828 -0.4093  1.6062
24697SOL    HW279928   9.800   4.034   8.029 -0.3360 -0.3355 -0.2287
24698SOL     OW79929   0.335   8.960   7.291 -0.1489  0.2663  0.0180
24698SOL    HW179930   0.304   8.872   7.311  0.7625  0.0135  0.3603
24698SOL    HW279931   0.289   8.983   7.210 -0.2859 -0.5803 -0.1582
24699SOL     OW79932   3.206   1.745   6.280  0.2622 -0.3923  0.1425
24699SOL    HW179933   3.114   1.765   6.298 -0.0396 -2.7633  1.6169
24699SOL    HW279934   3.203   1.683   6.208  0.8384  0.5107 -0.6868
24700SOL     OW79935   0.566   9.137   2.237 -0.1414  0.1357 -0.3125
24700SOL    HW179936   0.537   9.091   2.316 -1.2791 -0.4263 -1.0404
24700SOL    HW279937   0.648   9.179   2.263 -0.0572 -0.7378  0.9210
24701SOL     OW79938   3.059   9.035   7.602  0.4388 -0.0655 -0.1316
24701SOL    HW179939   3.009   9.105   7.560  0.0464  0.1479  0.6751
24701SOL    HW279940   3.083   8.977   7.530  1.9855  1.6016 -1.0595
24702SOL     OW79941   8.595  10.475   6.144  0.3247  0.5568 -0.3288
24702SOL    HW179942   8.606  10.456   6.238  1.1489  0.3505 -0.4568
24702SOL    HW279943   8.514  10.430   6.120  0.6093 -0.2021  0.0825
24703SOL     OW79944   9.730   7.189   8.009  0.0921  0.2689  0.4860
24703SOL    HW179945   9.724   7.243   8.088  0.3766 -0.7522  1.2114
24703SOL    HW279946   9.818   7.151   8.012 -0.0289 -0.0758 -0.1344
24704SOL     OW79947   5.148  10.597   1.260 -0.3179  0.2527 -0.1227
24704SOL    HW179948   5.077  10.662   1.268  0.7298  1.4809 -0.4198
24704SOL    HW279949   5.107  10.522   1.218 -1.9105  0.1579  1.4370
24705SOL     OW79950   8.535   1.287  10.905 -0.1481  0.1522 -1.1599
24705SOL    HW179951   8.508   1.209  10.856 -0.0931 -1.5656  1.3458
24705SOL    HW279952   8.622   1.265  10.939 -0.4681  0.9385  0.2557
24706SOL     OW79953   9.581   1.233   8.343 -0.2312  0.3860 -0.5168
24706SOL    HW179954   9.673   1.255   8.328  0.4565 -1.5903  0.4772
24706SOL    HW279955   9.563   1.161   8.282 -0.3488 -0.9354  1.0330
24707SOL     OW79956   8.743   1.964   8.810  0.2620  0.3583 -0.2035
24707SOL    HW179957   8.705   2.048   8.835  0.2546  0.2484  0.1503
24707SOL    HW279958   8.837   1.976   8.820  0.1970 -0.0897  1.1420
24708SOL     OW79959  10.000   0.223   4.046 -0.1887 -0.1852 -0.5072
24708SOL    HW179960   9.953   0.229   4.130 -0.9029 -0.0543 -0.9066
24708SOL    HW279961   9.933   0.242   3.980  0.5916  0.6936 -1.0637
24709SOL     OW79962   2.653   4.995   5.175  0.0162  0.0515 -0.6626
24709SOL    HW179963   2.669   4.916   5.227  1.2908  0.1259 -0.9105
24709SOL    HW279964   2.705   5.063   5.217 -0.1429  0.4782 -1.1383
24710SOL     OW79965  10.301   7.544   2.597  0.0408 -0.0587 -0.1423
24710SOL    HW179966  10.357   7.594   2.538  1.9984 -1.1063  0.6968
24710SOL    HW279967  10.219   7.532   2.550  0.0443  2.5840 -0.9549
24711SOL     OW79968   1.976   3.342   1.288  0.5819  0.5315  0.5281
24711SOL    HW179969   2.071   3.357   1.292  0.7848 -0.1665 -0.9547
24711SOL    HW279970   1.967   3.247   1.286 -0.0532  0.6004 -0.8644
24712SOL     OW79971   6.954   4.932   0.887 -0.1401  0.7378  0.2222
24712SOL    HW179972   6.864   4.933   0.854 -0.1035 -0.7509 -0.0111
24712SOL    HW279973   7.006   4.900   0.813  0.1914 -0.8953  1.1138
24713SOL     OW79974   0.819   5.831   8.512  0.2740  0.5113  0.7108
24713SOL    HW179975   0.836   5.738   8.502  0.3729  0.7222 -1.5308
24713SOL    HW279976   0.728   5.835   8.543 -0.2687 -0.3187 -0.6865
24714SOL     OW79977   7.043   7.672   9.713 -0.1448 -0.2627  0.1243
24714SOL    HW179978   7.110   7.641   9.774  1.5071  2.2339 -0.2601
24714SOL    HW279979   7.071   7.639   9.627  1.2433  1.5602 -0.1863
24715SOL     OW79980   6.697   2.568   6.844  0.3052  0.3019  0.5506
24715SOL    HW179981   6.773   2.535   6.797 -1.2254 -1.4657 -0.8388
24715SOL    HW279982   6.667   2.494   6.896 -1.3243  0.4631 -0.0979
24716SOL     OW79983   3.640   0.316   7.186  0.0584  0.1652 -0.0086
24716SOL    HW179984   3.573   0.329   7.252 -0.7093  2.5797 -1.1248
24716SOL    HW279985   3.600   0.346   7.104  1.5739 -0.9859 -1.2503
24717SOL     OW79986   0.697   8.447   8.835  0.2182  0.1692 -0.2921
24717SOL    HW179987   0.788   8.431   8.861 -0.0795 -0.2573  0.4963
24717SOL    HW279988   0.705   8.489   8.749  1.2098  1.6250  0.4650
24718SOL     OW79989   9.852   5.130   9.741  0.1023  0.0763  0.0014
24718SOL    HW179990   9.836   5.209   9.690 -0.6745 -0.4912 -0.6626
24718SOL    HW279991   9.850   5.059   9.677  0.5821 -0.5054  0.6163
24719SOL     OW79992   9.081   6.072   5.077 -0.0441  0.3044 -0.4558
24719SOL    HW179993   9.060   6.166   5.080  2.1270  0.8676 -1.2774
24719SOL    HW279994   9.005   6.030   5.118 -1.3818  2.3490 -0.6433
24720SOL     OW79995   1.456   3.628   0.372 -0.1916  0.5228 -0.0131
24720SOL    HW179996   1.544   3.597   0.393 -1.1491 -1.7649  0.9375
24720SOL    HW279997   1.426   3.571   0.301 -1.5791 -0.0283  0.9706
24721SOL     OW79998   3.814   1.190  10.096  0.2021  0.0093  0.4737
24721SOL    HW179999   3.894   1.155  10.057  0.1227 -0.2192  0.5155
24721SOL    HW280000   3.829   1.182  10.191 -0.3154 -1.0435  0.4729
24722SOL     OW80001  10.732   5.732   5.504  0.0233  0.0298 -0.1978
24722SOL    HW180002  10.639   5.747   5.518 -0.2799 -3.1198  2.0971
24722SOL    HW280003  10.737   5.646   5.463  1.9267  0.0432 -0.0968
24723SOL     OW80004   3.471   2.292   1.094  0.6122 -0.1692  0.4116
24723SOL    HW180005   3.398   2.245   1.053  1.1632 -0.9950  0.3518
24723SOL    HW280006   3.429   2.362   1.145 -0.1618 -0.0691 -0.3408
24724SOL     OW80007   4.723   6.316   3.420 -0.3524  0.8856  0.1660
24724SOL    HW180008   4.789   6.382   3.442  0.2975  0.3679 -0.1756
24724SOL    HW280009   4.674   6.302   3.501 -0.3013  1.5638  0.3160
24725SOL     OW80010   3.574   1.600   6.758 -0.0113 -0.2082  0.3743
24725SOL    HW180011   3.646   1.593   6.695 -0.1399  1.1294  0.0569
24725SOL    HW280012   3.507   1.651   6.713 -0.5351 -0.1309  1.2202
24726SOL     OW80013   4.341   6.368   1.975  0.3066 -0.2158  0.2815
24726SOL    HW180014   4.425   6.368   1.928  0.7931 -2.3689  1.0424
24726SOL    HW280015   4.363   6.402   2.062  0.2136  0.0084  0.2177
24727SOL     OW80016   3.345  10.014   7.698 -0.3963 -0.1565 -0.4876
24727SOL    HW180017   3.354  10.105   7.670 -1.2200  0.0200 -0.2162
24727SOL    HW280018   3.391  10.011   7.782  1.2329 -0.4546 -1.3518
24728SOL     OW80019   4.347   2.080   0.504 -0.2545 -1.1526 -0.0221
24728SOL    HW180020   4.330   1.986   0.497 -0.6097 -1.1051  0.1773
24728SOL    HW280021   4.424   2.087   0.560  0.7029 -1.3908 -1.2520
24729SOL     OW80022   3.167   2.443   0.713  0.4054 -0.3068  0.1093
24729SOL    HW180023   3.248   2.465   0.759  0.8362 -0.4117 -0.5792
24729SOL    HW280024   3.101   2.502   0.751  0.9200  0.1591  0.2950
24730SOL     OW80025   0.721   5.798   3.098 -0.3211  0.9169 -0.1627
24730SOL    HW180026   0.770   5.816   3.178  0.1246  1.1347 -0.4788
24730SOL    HW280027   0.661   5.872   3.088 -1.1929  0.3332  0.5743
24731SOL     OW80028  10.497   7.469  10.761  0.0385 -0.4885  0.6458
24731SOL    HW180029  10.452   7.548  10.730 -0.9875 -1.1527  0.3793
24731SOL    HW280030  10.564   7.501  10.821 -0.9563  0.5324  1.2392
24732SOL     OW80031   7.642  10.129   8.148 -0.2401  0.2255  0.5420
24732SOL    HW180032   7.700  10.195   8.108  2.7674 -2.2195  0.4741
24732SOL    HW280033   7.653  10.052   8.092 -0.2589 -1.6167  2.9607
24733SOL     OW80034   5.333   4.461   4.529 -0.3140 -0.3724  0.9081
24733SOL    HW180035   5.348   4.505   4.613 -0.8656 -1.5390  1.6486
24733SOL    HW280036   5.405   4.399   4.521 -1.1039 -1.3910  1.3283
24734SOL     OW80037   8.659   5.200   4.487 -0.1407  0.1880  0.3563
24734SOL    HW180038   8.681   5.108   4.502  0.1407  0.3190  0.7779
24734SOL    HW280039   8.668   5.241   4.573 -1.1106  0.4434  0.3423
24735SOL     OW80040   3.168   4.938  10.755 -0.4248  0.3457  0.2173
24735SOL    HW180041   3.084   4.892  10.748 -1.0304  1.5632 -0.8655
24735SOL    HW280042   3.226   4.892  10.694 -0.3650 -0.3221  0.7614
24736SOL     OW80043   8.943   1.240   2.305 -0.4307  0.1990 -0.7483
24736SOL    HW180044   9.037   1.247   2.320 -0.5040 -0.6884  0.2581
24736SOL    HW280045   8.918   1.325   2.270  0.7494  0.4361 -1.0577
24737SOL     OW80046   6.491   4.692   6.800  0.2987  0.0494  0.1729
24737SOL    HW180047   6.480   4.597   6.809  1.4075 -0.2441 -1.2444
24737SOL    HW280048   6.581   4.708   6.828  0.0921  0.7163  0.4744
24738SOL     OW80049   9.612   0.476  10.037 -0.0971 -0.1502 -0.0025
24738SOL    HW180050   9.609   0.570  10.054 -0.3658 -0.3710  1.3022
24738SOL    HW280051   9.692   0.463   9.987  0.3786  0.6772  0.5229
24739SOL     OW80052   0.852   8.651   1.990  0.2892 -0.4216  0.5136
24739SOL    HW180053   0.852   8.629   1.897  0.1911 -0.6277  0.5606
24739SOL    HW280054   0.787   8.720   1.999  0.4601 -0.2456  0.3931
24740SOL     OW80055   0.937  10.859  10.023 -0.3905  0.0624 -0.1070
24740SOL    HW180056   0.866  10.825  10.077 -0.4201  0.2365 -0.0369
24740SOL    HW280057   0.969  10.782   9.975 -0.7232  0.0115 -0.2490
24741SOL     OW80058   1.067   5.834   2.894  0.5372  0.6039 -0.8754
24741SOL    HW180059   0.999   5.902   2.891  0.5724  0.6146 -2.9238
24741SOL    HW280060   1.022   5.758   2.930  0.3890  1.5673  1.0747
24742SOL     OW80061   1.720   6.359   3.918  0.3625  0.6305 -0.0530
24742SOL    HW180062   1.709   6.438   3.865  2.2303  0.4080 -0.8385
24742SOL    HW280063   1.669   6.293   3.871 -0.3022  1.0852  0.0046
24743SOL     OW80064   5.842   9.246   9.640  0.0236 -0.3729 -0.1456
24743SOL    HW180065   5.883   9.265   9.555  2.1011 -2.7860  0.1870
24743SOL    HW280066   5.910   9.267   9.704 -0.8011 -0.4744  0.7831
24744SOL     OW80067   9.885   6.251   4.522  0.2773 -0.1665  0.2465
24744SOL    HW180068   9.791   6.258   4.540  0.6505  0.6471  2.1213
24744SOL    HW280069   9.901   6.157   4.515 -0.6684 -0.3164 -0.0722
24745SOL     OW80070   0.690   3.466   8.656 -0.3352  0.2215 -0.5011
24745SOL    HW180071   0.714   3.452   8.748 -1.1849 -1.0429 -0.4469
24745SOL    HW280072   0.774   3.474   8.610  0.1273 -0.6413  0.1700
24746SOL     OW80073   5.751   1.876   9.075 -0.0594 -0.0690  0.1150
24746SOL    HW180074   5.664   1.857   9.111  0.1685  0.4619  0.9819
24746SOL    HW280075   5.734   1.910   8.987 -0.5530 -2.7769 -0.9075
24747SOL     OW80076   3.452   3.671   7.313 -0.2225  0.4589 -0.1461
24747SOL    HW180077   3.373   3.651   7.264 -0.5939  0.3907  0.4637
24747SOL    HW280078   3.438   3.759   7.348  0.0770  0.5472 -0.2385
24748SOL     OW80079   3.983   2.907   5.071 -0.6117 -0.3929  0.2506
24748SOL    HW180080   4.044   2.919   4.998 -0.3231 -3.1542 -0.0841
24748SOL    HW280081   3.919   2.843   5.038 -1.9052  0.1504  1.6239
24749SOL     OW80082   5.215   6.702  10.395 -0.2116 -0.2304 -0.5308
24749SOL    HW180083   5.193   6.689  10.487 -2.2770 -1.2288 -1.1284
24749SOL    HW280084   5.173   6.630  10.349  0.3732  0.5201 -2.3342
24750SOL     OW80085   1.750   2.232   8.310  0.0201 -0.0233 -0.1215
24750SOL    HW180086   1.810   2.284   8.257 -0.6255  1.7599  0.7812
24750SOL    HW280087   1.800   2.208   8.388 -0.1805  0.8208  0.2835
24751SOL     OW80088   7.829   1.998   3.565  0.7373 -0.6469 -0.6663
24751SOL    HW180089   7.809   1.914   3.524 -1.3721 -0.0096 -1.0769
24751SOL    HW280090   7.863   2.052   3.494  0.6599 -0.7017 -0.7451
24752SOL     OW80091   4.143   1.340   2.705  0.4492 -0.1613 -0.3121
24752SOL    HW180092   4.182   1.253   2.698  1.4989  0.2587  0.1858
24752SOL    HW280093   4.086   1.334   2.783  0.1421 -0.5315 -0.5593
24753SOL     OW80094   8.196   7.954   4.312 -0.0564  0.3973  0.2076
24753SOL    HW180095   8.152   7.869   4.314  2.1701 -1.0867 -3.3655
24753SOL    HW280096   8.267   7.945   4.376  1.0400 -1.1270 -1.1233
24754SOL     OW80097   4.707   3.725   9.524  0.3515 -0.2126  0.2030
24754SOL    HW180098   4.683   3.763   9.609  1.9738  0.5689  0.3612
24754SOL    HW280099   4.652   3.770   9.461 -0.6750 -0.5960  0.8040
24755SOL     OW80100   3.794   3.192   8.245 -0.3377 -0.1952  0.2655
24755SOL    HW180101   3.810   3.268   8.301 -1.6023  0.6574 -0.4701
24755SOL    HW280102   3.745   3.131   8.300  0.5259 -0.4091  0.8058
24756SOL     OW80103   6.164   6.267   2.677  0.3887 -0.2664 -0.0723
24756SOL    HW180104   6.167   6.188   2.623 -2.9878  0.5764 -1.7603
24756SOL    HW280105   6.252   6.305   2.668  1.1332 -2.1821 -1.7686
24757SOL     OW80106   1.286   4.640   7.557  0.0482 -0.1824  0.1200
24757SOL    HW180107   1.298   4.682   7.642  0.2720  0.2768 -0.1378
24757SOL    HW280108   1.322   4.552   7.569 -1.4765 -0.7199  1.0025
24758SOL     OW80109  10.646   7.457   7.579 -0.2474  0.0994 -0.1942
24758SOL    HW180110  10.589   7.521   7.622  1.0902  1.4882 -0.3962
24758SOL    HW280111  10.622   7.460   7.487  0.9725  1.6460 -0.4967
24759SOL     OW80112   0.300   6.297   5.793  0.0731  0.0683 -0.1561
24759SOL    HW180113   0.228   6.305   5.730 -0.9316  0.1341  0.9481
24759SOL    HW280114   0.302   6.382   5.838  0.6327 -0.0414  0.0283
24760SOL     OW80115   9.968   6.716   2.158  0.0509  0.9305  0.4642
24760SOL    HW180116  10.048   6.711   2.210  1.1776  0.9965 -1.2070
24760SOL    HW280117   9.990   6.673   2.075 -1.0434  2.5709 -0.7311
24761SOL     OW80118   2.749  10.899   2.022 -0.1389  0.2386 -0.5225
24761SOL    HW180119   2.823  10.879   2.081 -0.7215  1.1871  0.5713
24761SOL    HW280120   2.688  10.949   2.076 -1.6883 -0.6870 -1.3613
24762SOL     OW80121   9.641   0.469   7.477  0.3654 -0.0292  0.0269
24762SOL    HW180122   9.572   0.511   7.529 -0.0932  0.1090 -0.6728
24762SOL    HW280123   9.721   0.485   7.526  0.0750  0.8864  0.2271
24763SOL     OW80124   0.565   0.196   5.092 -0.6172 -0.3773 -0.4261
24763SOL    HW180125   0.498   0.152   5.039 -0.3495 -0.2785 -0.8438
24763SOL    HW280126   0.642   0.198   5.037 -0.6915  0.8380 -0.5045
24764SOL     OW80127   6.862   3.664   4.838  0.7841 -0.4669 -0.3675
24764SOL    HW180128   6.948   3.699   4.816  0.0841  1.0973 -0.7779
24764SOL    HW280129   6.874   3.569   4.838  2.6062 -0.2743  0.0529
24765SOL     OW80130   0.409   2.976   7.179 -0.1919  0.2487  0.3546
24765SOL    HW180131   0.353   2.914   7.132  0.0297  0.6399 -0.4423
24765SOL    HW280132   0.381   3.062   7.148  1.6302  0.4212 -0.9791
24766SOL     OW80133   3.596   2.270   8.338  0.4175  0.3154 -0.0046
24766SOL    HW180134   3.538   2.302   8.268  0.0184  0.0356  0.1948
24766SOL    HW280135   3.536   2.235   8.404  0.8573 -2.0254 -0.7813
24767SOL     OW80136   1.485   4.164   6.084 -0.1300  0.3962 -0.3430
24767SOL    HW180137   1.474   4.116   6.002  0.0701 -0.3042  0.0296
24767SOL    HW280138   1.406   4.144   6.134  0.3847 -0.3440  0.2003
24768SOL     OW80139  10.085   8.472   7.906  0.3885 -0.4029 -0.0572
24768SOL    HW180140  10.069   8.565   7.920 -3.2474 -0.3644 -2.8864
24768SOL    HW280141  10.147   8.469   7.833  3.4838 -0.4312  2.3584
24769SOL     OW80142   6.083   5.536   3.782 -0.2519  0.3107  0.4015
24769SOL    HW180143   6.043   5.452   3.804 -1.0230  0.8037  0.9281
24769SOL    HW280144   6.096   5.580   3.866  0.6556  0.5000  0.1743
24770SOL     OW80145   2.876   0.080   8.425 -0.0526 -0.4173 -0.0688
24770SOL    HW180146   2.891  -0.002   8.379 -0.7883 -0.1316 -0.8601
24770SOL    HW280147   2.869   0.146   8.355 -0.9612  0.0620  0.4449
24771SOL     OW80148  10.402   3.715   4.688  0.3359 -0.0703  0.3313
24771SOL    HW180149  10.480   3.697   4.741 -0.7136  0.0824  2.0217
24771SOL    HW280150  10.408   3.808   4.666 -0.2713  0.4352  2.1152
24772SOL     OW80151   3.146   5.318   3.027 -0.2533 -0.3446 -0.3002
24772SOL    HW180152   3.128   5.269   3.108  3.2859 -1.7147 -0.1880
24772SOL    HW280153   3.194   5.257   2.972  2.7880  2.3426 -0.9120
24773SOL     OW80154   8.104   2.304   0.546  0.3428 -0.5630 -0.1018
24773SOL    HW180155   8.025   2.280   0.497  0.2409 -1.7867  0.6177
24773SOL    HW280156   8.145   2.372   0.493 -0.2180 -1.2200 -1.4459
24774SOL     OW80157   0.501   6.420   1.324  0.5899  0.0549 -0.1752
24774SOL    HW180158   0.512   6.338   1.275 -0.4887 -0.6837  0.7543
24774SOL    HW280159   0.577   6.425   1.381 -0.5622 -1.7224  1.6681
24775SOL     OW80160   0.906   5.588   2.683 -0.1426  0.0992 -0.0856
24775SOL    HW180161   0.810   5.591   2.678 -0.1538 -1.1855 -1.4929
24775SOL    HW280162   0.935   5.667   2.638 -0.5303  0.5532  0.4459
24776SOL     OW80163   1.110   3.614  10.733  0.3233 -0.0712 -0.4334
24776SOL    HW180164   1.058   3.694  10.736 -0.3182 -0.5057  0.4952
24776SOL    HW280165   1.069   3.561  10.663 -1.1140 -0.8037  0.9042
24777SOL     OW80166   9.280   5.815   9.225 -0.2518  0.2594  0.7418
24777SOL    HW180167   9.251   5.867   9.301  1.5279  0.0540  1.6060
24777SOL    HW280168   9.364   5.779   9.252 -0.3088 -1.0948 -0.7774
24778SOL     OW80169   8.356   6.181   3.258 -0.3472  0.2753  0.7293
24778SOL    HW180170   8.382   6.093   3.229 -1.5371  0.5049 -1.2473
24778SOL    HW280171   8.345   6.173   3.353  0.6584 -1.4119  0.7475
24779SOL     OW80172   1.997   2.469   7.692 -0.1792 -0.1749 -0.0248
24779SOL    HW180173   2.073   2.526   7.696  0.1531 -0.4477 -1.8936
24779SOL    HW280174   1.950   2.486   7.774  0.6848  1.6619  0.1246
24780SOL     OW80175   2.988   2.143   9.265  0.0638 -0.0568 -0.0320
24780SOL    HW180176   2.930   2.185   9.202  0.7351 -0.1807 -0.7527
24780SOL    HW280177   2.970   2.050   9.257  0.7303 -0.1383 -0.6430
24781SOL     OW80178   8.905   7.914   4.962  0.2002 -1.0853 -0.0622
24781SOL    HW180179   8.877   7.922   5.053 -2.3549 -0.2856 -0.8391
24781SOL    HW280180   8.859   7.837   4.929 -0.9902  0.1129 -1.3248
24782SOL     OW80181   2.598   8.988   6.669  0.1558  0.1604 -0.1311
24782SOL    HW180182   2.689   8.970   6.692  0.0665 -0.0947  0.0428
24782SOL    HW280183   2.559   9.018   6.751 -0.4163 -1.7397  0.3491
24783SOL     OW80184   4.397   7.309   1.659 -0.2902 -0.1247 -0.0024
24783SOL    HW180185   4.326   7.351   1.611 -0.4936 -0.2019  0.2301
24783SOL    HW280186   4.432   7.379   1.715  0.5290  0.2081 -0.8991
24784SOL     OW80187   2.737   0.145   2.311 -0.4515 -0.5058 -0.7344
24784SOL    HW180188   2.682   0.192   2.248 -0.6179  0.4959  0.1174
24784SOL    HW280189   2.801   0.210   2.340 -2.1209  0.0327  2.2434
24785SOL     OW80190   5.881   3.801   9.287 -0.0345 -0.5365 -0.3107
24785SOL    HW180191   5.876   3.752   9.204 -1.8414  1.3980 -1.4662
24785SOL    HW280192   5.832   3.748   9.349 -1.2187 -0.6563 -1.3031
24786SOL     OW80193   4.625   6.841   2.452 -0.0330 -0.0591 -0.0424
24786SOL    HW180194   4.666   6.923   2.424  1.2652 -0.0806  1.6469
24786SOL    HW280195   4.680   6.810   2.524 -0.0506 -2.8009 -1.0864
24787SOL     OW80196   4.551   0.019  10.064 -0.1193 -0.3211  0.3277
24787SOL    HW180197   4.578   0.056  10.148 -0.0470  2.1318 -0.6931
24787SOL    HW280198   4.491  -0.052  10.087  1.0759 -0.7171  2.4620
24788SOL     OW80199   2.914   3.322   8.722 -0.4662 -0.1039  0.4690
24788SOL    HW180200   2.949   3.255   8.664  0.7744  0.4468  0.5365
24788SOL    HW280201   2.983   3.336   8.787 -0.7037  1.2058  0.4691
24789SOL     OW80202   4.168   0.604   8.360  0.6353  0.3921 -0.1419
24789SOL    HW180203   4.143   0.513   8.345  0.6952  0.4200 -0.4209
24789SOL    HW280204   4.133   0.625   8.447  0.8773  0.0127  0.0506
24790SOL     OW80205   8.158   4.149   6.132  0.5953  0.3107 -0.2473
24790SOL    HW180206   8.211   4.225   6.107  0.4125  0.1877 -1.0274
24790SOL    HW280207   8.072   4.186   6.154  0.0923  0.2200 -1.9236
24791SOL     OW80208   1.722   5.811   6.048 -0.0054  0.3200  0.1449
24791SOL    HW180209   1.629   5.802   6.030  0.2298  0.4363 -1.2739
24791SOL    HW280210   1.729   5.811   6.144 -1.5904  1.6559  0.2996
24792SOL     OW80211   2.847   9.008   8.931  0.1990 -0.0827  0.3182
24792SOL    HW180212   2.788   9.083   8.931 -0.5625 -0.6710  0.1178
24792SOL    HW280213   2.934   9.045   8.949  0.1601  1.0860 -1.6746
24793SOL     OW80214   5.768  10.353   6.818 -0.5864  0.0583  0.4154
24793SOL    HW180215   5.781  10.381   6.728 -0.7076 -2.6510 -0.5274
24793SOL    HW280216   5.854  10.368   6.860 -0.3968  0.8978 -0.2434
24794SOL     OW80217   8.354   9.225   4.813  0.0760 -0.2112 -0.0046
24794SOL    HW180218   8.273   9.229   4.763  0.1914  1.3185 -0.1164
24794SOL    HW280219   8.421   9.256   4.751  0.2175  1.7550  1.0526
24795SOL     OW80220   9.577   7.427   9.760 -0.0163 -0.3161  0.1590
24795SOL    HW180221   9.591   7.338   9.792 -2.1070 -1.0277 -0.7113
24795SOL    HW280222   9.654   7.476   9.789  1.3591 -2.4791  0.3464
24796SOL     OW80223   6.330   7.538   9.854  0.1021  0.1364 -0.2667
24796SOL    HW180224   6.237   7.559   9.861 -0.0770 -0.5939 -0.3597
24796SOL    HW280225   6.352   7.497   9.937  0.3370  0.2910 -0.2521
24797SOL     OW80226  10.634   2.296   5.716  0.2262  0.0676  0.1039
24797SOL    HW180227  10.708   2.307   5.776 -0.0367  2.2105  0.1247
24797SOL    HW280228  10.638   2.373   5.659 -0.2524 -1.2859 -1.8535
24798SOL     OW80229   6.307   5.439  10.229  0.2386  0.3508 -0.7908
24798SOL    HW180230   6.321   5.461  10.321  0.6203 -1.5139 -0.3576
24798SOL    HW280231   6.216   5.410  10.225  0.7114 -1.3138 -0.5629
24799SOL     OW80232   3.270   2.145   9.155  0.2408  0.7538  0.2064
24799SOL    HW180233   3.309   2.060   9.175  2.0572  1.8643  1.7485
24799SOL    HW280234   3.183   2.141   9.194  0.5968 -0.1474  0.9425
24800SOL     OW80235   9.983   9.350   3.794 -0.5758  0.4935 -0.0388
24800SOL    HW180236   9.935   9.431   3.812 -1.1721  0.8915 -2.9614
24800SOL    HW280237   9.993   9.349   3.699  1.5907 -1.6777  0.1260
24801SOL     OW80238   7.449   4.680   9.523  1.0066 -0.2125  0.8206
24801SOL    HW180239   7.422   4.591   9.544 -0.1631  0.3024  1.5788
24801SOL    HW280240   7.492   4.672   9.438 -0.6301 -1.2594  0.0415
24802SOL     OW80241   3.990   7.029   2.163 -0.1725  0.0280  0.4832
24802SOL    HW180242   3.980   6.942   2.202 -0.2108 -0.0446  0.3130
24802SOL    HW280243   4.006   7.012   2.070 -0.4090  0.2086  0.4083
24803SOL     OW80244   6.175   2.359   2.962 -0.8627 -0.0478 -0.5468
24803SOL    HW180245   6.166   2.313   2.879 -0.8538  1.1052 -1.2058
24803SOL    HW280246   6.120   2.437   2.953 -1.1621 -0.0874  0.6763
24804SOL     OW80247   1.593  10.280   9.414 -0.0972  0.1961  0.0491
24804SOL    HW180248   1.502  10.253   9.428  0.3978 -1.1812  0.7561
24804SOL    HW280249   1.612  10.338   9.488 -0.8328  1.7414 -0.9103
24805SOL     OW80250   3.472   9.282   6.373 -0.4986 -1.1930 -0.4731
24805SOL    HW180251   3.393   9.258   6.325 -1.1192 -1.9022  0.8432
24805SOL    HW280252   3.503   9.199   6.410 -0.0263 -0.6712  0.3291
24806SOL     OW80253   8.358   5.507   9.807  0.5724 -0.0991  0.0809
24806SOL    HW180254   8.414   5.577   9.774  0.8766 -1.1199 -1.7315
24806SOL    HW280255   8.293   5.494   9.738  0.4749 -1.5125  0.4067
24807SOL     OW80256   9.907   3.879  10.792  0.0110  0.0480 -0.8238
24807SOL    HW180257   9.910   3.787  10.820  0.1842  0.7725  1.7816
24807SOL    HW280258   9.814   3.896  10.776 -0.5070  0.2588  1.9986
24808SOL     OW80259   5.564   7.099   8.214 -0.6408 -0.1311  0.3235
24808SOL    HW180260   5.523   7.066   8.294 -2.2066  1.3466  0.1902
24808SOL    HW280261   5.550   7.030   8.149  0.4495 -1.2491  1.2177
24809SOL     OW80262   0.146   7.536   2.467  0.2631  0.0139  0.2118
24809SOL    HW180263   0.067   7.509   2.421  0.5986 -0.4757 -0.0906
24809SOL    HW280264   0.205   7.461   2.459  1.5466  1.1378 -1.3559
24810SOL     OW80265  10.425  10.478   7.534 -0.1840 -0.2815  0.1471
24810SOL    HW180266  10.414  10.518   7.621  2.2499  0.7842  0.0398
24810SOL    HW280267  10.390  10.390   7.545 -1.0618  0.2232  1.8635
24811SOL     OW80268   8.264   4.766   7.926 -0.2919 -0.5626  0.2244
24811SOL    HW180269   8.339   4.804   7.880  0.1454  0.5578  1.7731
24811SOL    HW280270   8.188   4.803   7.883  0.1036  0.4677  0.3817
24812SOL     OW80271   8.884   7.056   5.546 -0.4441 -0.0725  0.4908
24812SOL    HW180272   8.862   6.995   5.476 -1.8639  0.5415  0.3764
24812SOL    HW280273   8.803   7.066   5.596 -0.2992  1.8101  0.4203
24813SOL     OW80274   0.466   4.251   5.886 -0.1001 -0.8200 -0.0100
24813SOL    HW180275   0.423   4.194   5.949 -1.2961  0.2187  0.1359
24813SOL    HW280276   0.457   4.339   5.922  1.7436 -0.4927 -0.2099
24814SOL     OW80277   2.443   7.963   7.530 -0.4388  0.0991 -0.7849
24814SOL    HW180278   2.353   7.994   7.522 -0.5252 -0.2052 -0.9950
24814SOL    HW280279   2.496   8.034   7.494 -0.4304  1.2389  1.3325
24815SOL     OW80280   8.088   6.185   9.395  0.1138 -0.3532  0.7570
24815SOL    HW180281   8.005   6.138   9.394  1.2419 -2.4735 -1.2650
24815SOL    HW280282   8.154   6.117   9.386  1.9620  1.4797 -0.2414
24816SOL     OW80283   5.739   7.456   9.126 -0.9239 -0.6906  0.0239
24816SOL    HW180284   5.658   7.406   9.119 -0.1167 -1.9852 -0.3943
24816SOL    HW280285   5.808   7.389   9.132  0.1318  0.3797  0.1744
24817SOL     OW80286   2.175   7.004  10.594  0.1911  0.0490  0.2857
24817SOL    HW180287   2.189   7.022  10.687  0.3796  1.1667  0.0620
24817SOL    HW280288   2.235   6.933  10.574  1.4086  0.9326  0.6501
24818SOL     OW80289   3.750   3.829   0.033  1.0994  0.0016  0.2492
24818SOL    HW180290   3.719   3.805   0.121 -0.6296  0.3214 -0.2442
24818SOL    HW280291   3.759   3.746  -0.013  2.7943 -0.2371  0.9368
24819SOL     OW80292   4.278   4.863   6.179  0.8014 -0.0847  0.1650
24819SOL    HW180293   4.338   4.793   6.153  0.1382 -0.6335  0.0712
24819SOL    HW280294   4.194   4.838   6.141  0.4634  0.5708  0.4574
24820SOL     OW80295   7.010   5.860   8.032 -0.3800 -0.8144 -0.2422
24820SOL    HW180296   7.030   5.929   7.969 -1.6611 -0.2983 -0.1257
24820SOL    HW280297   6.982   5.907   8.111 -0.2315 -1.4640  0.2041
24821SOL     OW80298   2.647   9.928   9.051 -0.2008 -0.2926  0.9836
24821SOL    HW180299   2.693   9.992   8.997 -1.0018  0.0173  0.6567
24821SOL    HW280300   2.620   9.860   8.989  0.5882 -0.9288  1.3160
24822SOL     OW80301   7.702   3.021   3.330  0.1724 -0.2690  0.4205
24822SOL    HW180302   7.734   3.062   3.250 -1.0348  0.3623  0.2516
24822SOL    HW280303   7.736   3.077   3.400  0.0610 -0.0271  0.2821
24823SOL     OW80304   2.147   2.991   9.416 -0.3563 -0.2152  0.3887
24823SOL    HW180305   2.111   3.065   9.366 -0.1451 -0.6274 -0.3955
24823SOL    HW280306   2.242   3.000   9.407 -0.2713 -2.4514 -2.6704
24824SOL     OW80307  10.155   3.846   0.791  0.4968 -0.1425  0.5939
24824SOL    HW180308  10.168   3.941   0.792 -0.3486 -0.0153  0.8465
24824SOL    HW280309  10.192   3.818   0.707  2.0648  0.1890  1.1438
24825SOL     OW80310   8.925   3.695   2.349 -0.5964 -0.1650 -0.3760
24825SOL    HW180311   8.857   3.662   2.290  0.4557 -0.3123 -1.5529
24825SOL    HW280312   8.998   3.718   2.291 -0.1289  1.2488  0.7186
24826SOL     OW80313   0.863   3.961   7.205  0.0182  0.2562 -0.0702
24826SOL    HW180314   0.930   3.923   7.149  0.6149  0.1888  0.6688
24826SOL    HW280315   0.793   3.988   7.145 -0.3487 -1.8136 -0.6370
24827SOL     OW80316   5.266   9.608   5.324  0.0115 -0.7356 -0.1131
24827SOL    HW180317   5.199   9.552   5.362  0.6050 -0.4793  1.3811
24827SOL    HW280318   5.266   9.686   5.379  0.9710 -0.3803 -0.5903
24828SOL     OW80319   2.548   7.584   9.907 -0.5786  1.1672 -0.2015
24828SOL    HW180320   2.610   7.512   9.915  0.5843  2.1635  0.0967
24828SOL    HW280321   2.505   7.589   9.992 -0.0019  1.3915  0.0808
24829SOL     OW80322   3.811  10.806   4.395  0.4368  0.4433 -0.3368
24829SOL    HW180323   3.819  10.798   4.490  0.1774  1.3539 -0.2276
24829SOL    HW280324   3.850  10.726   4.361  2.8709  1.2145  0.4274
24830SOL     OW80325   7.209   6.665   6.852 -0.0423  0.0442 -0.2798
24830SOL    HW180326   7.236   6.586   6.899  0.1823  0.8319  0.9631
24830SOL    HW280327   7.115   6.653   6.839  0.3355 -1.3795 -2.0214
24831SOL     OW80328   3.510   9.173   2.625 -0.4977  0.4381  0.5307
24831SOL    HW180329   3.518   9.184   2.530  0.5496  0.2973  0.5824
24831SOL    HW280330   3.562   9.246   2.661  1.9715 -1.3959  0.9361
24832SOL     OW80331   3.467   3.409   5.489 -0.1932  0.0707  0.0066
24832SOL    HW180332   3.393   3.436   5.542 -0.8150  0.1915 -0.9021
24832SOL    HW280333   3.540   3.405   5.551 -1.2616 -1.6203  1.2286
24833SOL     OW80334   0.245   8.598  10.377 -0.0978  0.1612  0.4114
24833SOL    HW180335   0.321   8.542  10.391 -1.7555 -1.9993  1.5103
24833SOL    HW280336   0.251   8.625  10.286  2.1078  0.3365  0.5538
24834SOL     OW80337   7.707   2.024   8.639 -0.2369  0.4460  0.2087
24834SOL    HW180338   7.655   1.965   8.585  2.2247  0.7505 -2.8319
24834SOL    HW280339   7.786   1.973   8.659  0.3464  1.4985  0.6194
24835SOL     OW80340   9.376   8.388   8.829  0.1348  0.0756 -0.3140
24835SOL    HW180341   9.433   8.462   8.852  2.0690 -0.9680 -1.5517
24835SOL    HW280342   9.429   8.310   8.846 -2.0120 -1.1390  1.4029
24836SOL     OW80343  10.376   8.580   5.896  0.2249 -0.6217 -0.4133
24836SOL    HW180344  10.452   8.639   5.903  1.6895 -2.4930  0.2279
24836SOL    HW280345  10.321   8.620   5.829  1.3975  1.1977 -0.3721
24837SOL     OW80346   0.197   9.757   1.814  0.1609 -0.4766 -0.1654
24837SOL    HW180347   0.145   9.751   1.894  0.4919 -0.2817  0.0676
24837SOL    HW280348   0.192   9.849   1.789 -3.3282 -1.1488 -2.6673
24838SOL     OW80349   8.929   9.342   6.275 -0.0678  0.0480 -0.2925
24838SOL    HW180350   8.953   9.331   6.367  1.1537 -0.1081 -0.6215
24838SOL    HW280351   8.984   9.280   6.228 -0.2954  0.5143 -1.1879
24839SOL     OW80352   7.861  10.857   7.367  0.1301  0.3804  0.4098
24839SOL    HW180353   7.922  10.895   7.304 -0.9964  0.4109 -0.7045
24839SOL    HW280354   7.888  10.766   7.375 -1.0328 -0.2460 -1.8945
24840SOL     OW80355   8.979   8.202   8.554 -0.5582  0.0028 -0.4977
24840SOL    HW180356   8.935   8.144   8.616  1.1323 -1.0371 -0.2283
24840SOL    HW280357   9.034   8.259   8.609  0.8081 -0.8023 -0.9903
24841SOL     OW80358   4.174   5.631   0.913 -0.3293 -0.0538 -0.0974
24841SOL    HW180359   4.250   5.659   0.964 -0.9199 -0.3450  0.9722
24841SOL    HW280360   4.101   5.682   0.949 -0.8118 -0.4976 -0.4397
24842SOL     OW80361   6.326   1.132   5.689 -0.1904 -0.1639  0.8297
24842SOL    HW180362   6.264   1.192   5.730 -1.4714  0.3898 -1.7291
24842SOL    HW280363   6.395   1.189   5.654 -0.7116 -0.2534 -0.4102
24843SOL     OW80364   4.919   5.828   6.681  0.5276 -0.1647 -0.4750
24843SOL    HW180365   4.927   5.910   6.729 -3.5759  0.1147  0.0903
24843SOL    HW280366   4.957   5.762   6.739 -1.3626  0.6060  1.7687
24844SOL     OW80367   3.197   1.440   5.103  0.6142  0.0112  0.1215
24844SOL    HW180368   3.131   1.476   5.044 -1.7405 -1.3151  1.8005
24844SOL    HW280369   3.217   1.353   5.067  0.5186 -0.0683  0.2551
24845SOL     OW80370   9.372   7.359   8.145 -0.2877  0.5148  0.0575
24845SOL    HW180371   9.399   7.436   8.195 -0.6518  0.6913 -0.0140
24845SOL    HW280372   9.407   7.374   8.057  1.5456 -0.4412  0.5862
24846SOL     OW80373   6.546   8.315  10.033 -0.4695  0.3125  0.0356
24846SOL    HW180374   6.606   8.256   9.987 -1.8267 -1.2158  0.1495
24846SOL    HW280375   6.601   8.362  10.095  0.5065 -1.6097  0.6874
24847SOL     OW80376  10.531   9.101  10.618 -0.0816 -0.4560 -0.9086
24847SOL    HW180377  10.615   9.055  10.620 -0.3899 -1.0783  1.8762
24847SOL    HW280378  10.471   9.039  10.578  0.3033 -0.9593 -0.7171
24848SOL     OW80379   8.440   3.954   8.787 -0.7611 -0.5327 -0.0118
24848SOL    HW180380   8.499   3.991   8.721 -0.5971 -0.0836  0.3818
24848SOL    HW280381   8.498   3.911   8.849 -0.9239 -1.0526 -0.2162
24849SOL     OW80382   9.480   9.277   4.526 -0.4693 -0.1204  0.3075
24849SOL    HW180383   9.543   9.313   4.463 -1.4078 -1.1006 -1.2805
24849SOL    HW280384   9.528   9.272   4.608  1.1510  0.2307 -0.5744
24850SOL     OW80385  10.146   0.626   8.196  0.1409  0.4546 -0.3915
24850SOL    HW180386  10.233   0.639   8.234  0.1069  0.0653 -0.1790
24850SOL    HW280387  10.139   0.693   8.129  1.6361 -1.0814 -2.2004
24851SOL     OW80388   6.329  10.323  10.822 -0.5342 -0.3662  0.1439
24851SOL    HW180389   6.373  10.246  10.860 -1.6414 -0.6457  0.9230
24851SOL    HW280390   6.314  10.381  10.897  1.9969  1.5376 -0.7022
24852SOL     OW80391  10.668   1.591   9.627  0.4361 -0.1338  0.2713
24852SOL    HW180392  10.617   1.634   9.695 -0.1752  0.3301 -0.4642
24852SOL    HW280393  10.759   1.594   9.659  0.1469 -0.0150  1.0995
24853SOL     OW80394   0.645   6.695   9.740  0.2442 -0.0158 -0.6507
24853SOL    HW180395   0.681   6.782   9.758 -0.1357  0.0749 -0.3217
24853SOL    HW280396   0.698   6.662   9.668  1.0361  0.0870 -0.1214
24854SOL     OW80397   4.126   0.070   8.434  0.3947 -0.3975 -0.4629
24854SOL    HW180398   4.197   0.042   8.376  1.7114 -0.3065  1.0354
24854SOL    HW280399   4.098  -0.010   8.479  0.0861 -0.2961 -0.4692
24855SOL     OW80400   2.161   7.007   9.159 -0.3285 -0.8529 -0.3016
24855SOL    HW180401   2.235   7.021   9.101 -0.2734  1.8696  0.2803
24855SOL    HW280402   2.199   6.974   9.240  0.3805  1.0393  0.1797
24856SOL     OW80403   4.971   0.953   3.746 -0.3915  0.2657 -0.0816
24856SOL    HW180404   4.878   0.956   3.723 -0.5332  0.7071  0.5165
24856SOL    HW280405   5.017   0.948   3.662 -1.0272 -2.7264 -0.3844
24857SOL     OW80406   7.150   4.839   5.990  0.3434 -0.2860 -0.4702
24857SOL    HW180407   7.088   4.796   5.931  1.5635 -2.5229 -0.1963
24857SOL    HW280408   7.120   4.814   6.078  0.6152  0.1018 -0.2651
24858SOL     OW80409   7.529   7.316  10.394  0.1216  0.4528 -0.2793
24858SOL    HW180410   7.439   7.324  10.427  0.3828  1.8894  0.1530
24858SOL    HW280411   7.522   7.335  10.300 -0.0011  0.8309 -0.1967
24859SOL     OW80412   8.522   9.234   4.513  0.2216 -0.0663 -0.4041
24859SOL    HW180413   8.507   9.242   4.419 -2.1907  0.8522 -0.0199
24859SOL    HW280414   8.440   9.199   4.547  1.9095 -2.9444  1.1168
24860SOL     OW80415   7.125   7.663   2.993  0.1495 -0.2916 -0.6870
24860SOL    HW180416   7.054   7.633   3.048 -0.1954 -0.8090 -1.3912
24860SOL    HW280417   7.121   7.606   2.916  0.5623  0.4611 -1.2809
24861SOL     OW80418   7.527   2.167   5.834  0.5382  0.0132 -0.5220
24861SOL    HW180419   7.465   2.182   5.762  1.1832  0.1986 -1.0443
24861SOL    HW280420   7.602   2.124   5.792  1.1275  0.5687 -0.0554
24862SOL     OW80421   9.121   6.222   3.357  0.0692  0.0330 -0.3096
24862SOL    HW180422   9.210   6.220   3.322  0.2977 -0.5098  0.2718
24862SOL    HW280423   9.069   6.266   3.290  0.1841 -2.2406 -1.9858
24863SOL     OW80424   7.865   8.820   0.700 -0.1502 -0.2187 -0.2833
24863SOL    HW180425   7.819   8.784   0.624 -1.7715  0.0219  0.5432
24863SOL    HW280426   7.842   8.914   0.699 -1.3320 -0.4515  1.2272
24864SOL     OW80427   4.568   7.609   6.077  0.3542 -0.0311 -0.4157
24864SOL    HW180428   4.583   7.617   6.171  0.8721  0.7933 -0.5555
24864SOL    HW280429   4.572   7.515   6.060 -0.9674 -0.2963  0.5691
24865SOL     OW80430   9.581   8.826   8.710 -0.1328  0.6714 -0.0765
24865SOL    HW180431   9.617   8.743   8.677 -0.2158  0.7153 -0.2775
24865SOL    HW280432   9.493   8.803   8.740 -0.0429  0.6235  0.1461
24866SOL     OW80433   4.717   4.988   7.368  0.1935 -0.3930  0.3280
24866SOL    HW180434   4.751   4.967   7.281  2.2010 -2.4318  1.4915
24866SOL    HW280435   4.639   4.934   7.378  0.4590 -0.8286  0.0893
24867SOL     OW80436   4.204   1.493   7.025 -0.0148 -0.0213 -0.2157
24867SOL    HW180437   4.271   1.466   6.962  1.1889  0.0519  0.9696
24867SOL    HW280438   4.166   1.411   7.057  0.0538 -0.1030 -0.3440
24868SOL     OW80439   1.704  10.235   0.121 -0.0708 -0.0610  0.0536
24868SOL    HW180440   1.678  10.324   0.142 -0.1850 -0.0628 -0.0805
24868SOL    HW280441   1.647  10.180   0.175  1.0360 -0.0249  1.2919
24869SOL     OW80442   6.434   2.639   9.867  0.0843  0.2292 -0.2187
24869SOL    HW180443   6.377   2.610   9.797 -1.8304  0.7084  1.0739
24869SOL    HW280444   6.496   2.698   9.824  0.8185 -1.6617 -1.9588
24870SOL     OW80445   6.001   1.960   8.578 -0.0336 -0.5743 -0.1127
24870SOL    HW180446   6.002   2.055   8.593  0.5584 -0.2167 -2.1598
24870SOL    HW280447   6.088   1.931   8.604  0.2661 -0.3169 -0.8169
24871SOL     OW80448   6.438   1.705   9.970 -0.3404  0.1319 -0.0989
24871SOL    HW180449   6.375   1.713  10.041 -0.4863  0.6175 -0.2752
24871SOL    HW280450   6.431   1.788   9.923  0.0728 -0.0096 -0.4149
24872SOL     OW80451   2.423   6.662   8.697  0.2554 -0.0749 -0.2907
24872SOL    HW180452   2.433   6.750   8.659 -0.2688  0.2496  0.3084
24872SOL    HW280453   2.329   6.655   8.716  0.3240 -0.7049 -0.1738
24873SOL     OW80454   0.911   9.137   1.959  0.4331 -0.0507 -0.0633
24873SOL    HW180455   0.911   9.207   2.025 -1.5920  1.6713 -1.7362
24873SOL    HW280456   0.946   9.178   1.880  0.2652 -1.2790 -0.8055
24874SOL     OW80457   1.955   1.300   7.300  0.1988 -0.1274 -0.0329
24874SOL    HW180458   2.007   1.234   7.345 -0.0782 -1.2871 -1.3632
24874SOL    HW280459   1.868   1.261   7.294  0.1792  0.1006 -1.3611
24875SOL     OW80460   9.880   9.991   5.572  0.2814  0.1108 -0.4337
24875SOL    HW180461   9.945   9.928   5.603 -0.9007 -0.1775  1.6793
24875SOL    HW280462   9.829   9.943   5.506 -0.0713 -0.9023  0.5446
24876SOL     OW80463   6.922   1.574   5.238  0.4965  0.0183  0.5835
24876SOL    HW180464   7.000   1.630   5.239  0.7423 -0.3271  1.0260
24876SOL    HW280465   6.904   1.556   5.330 -0.1613  0.1620  0.4895
24877SOL     OW80466   6.938   6.417   4.116 -0.4560  0.5469 -0.5576
24877SOL    HW180467   6.902   6.454   4.197 -0.0883  0.4391 -0.3391
24877SOL    HW280468   6.869   6.360   4.083 -1.6629  2.5945 -1.7460
24878SOL     OW80469   0.146   7.835   7.233 -0.5879  0.2728 -0.1603
24878SOL    HW180470   0.055   7.855   7.256 -0.7332 -0.3524 -0.1740
24878SOL    HW280471   0.190   7.825   7.318 -0.5008  0.6944 -0.1530
24879SOL     OW80472  10.321   6.421   7.673  0.3003  0.6243  0.2558
24879SOL    HW180473  10.258   6.375   7.618 -0.0118 -0.7041  1.6628
24879SOL    HW280474  10.377   6.353   7.709  0.3365  1.4013  1.7664
24880SOL     OW80475   2.172   5.588  10.488 -0.0923 -0.3102  0.1529
24880SOL    HW180476   2.134   5.522  10.545  0.3799 -1.5135 -0.8783
24880SOL    HW280477   2.249   5.546  10.449  0.7877  1.1749  0.1926
24881SOL     OW80478   6.978   5.903   9.506  0.4210  0.5315 -0.1635
24881SOL    HW180479   6.892   5.904   9.463 -0.1277  1.0151  0.8933
24881SOL    HW280480   6.990   5.993   9.537  0.6078  0.1181  1.0191
24882SOL     OW80481   3.306   2.204   3.852 -0.0775  0.2275  0.4045
24882SOL    HW180482   3.225   2.169   3.890  0.2472  0.5112  1.3950
24882SOL    HW280483   3.362   2.222   3.928  0.0408  2.2267 -0.0978
24883SOL     OW80484   0.645   8.170   0.570  0.3631 -0.7439 -0.5253
24883SOL    HW180485   0.681   8.236   0.511  2.7789 -0.7334  0.8341
24883SOL    HW280486   0.640   8.214   0.655 -0.5796 -1.5265 -0.1491
24884SOL     OW80487   2.592   4.831   9.652  0.3752 -0.3123  0.3407
24884SOL    HW180488   2.582   4.924   9.673  0.1314 -0.6120  1.5924
24884SOL    HW280489   2.549   4.785   9.724 -1.1773 -1.3936 -1.2014
24885SOL     OW80490   9.059  10.829   6.078 -0.1830 -0.0080 -0.0056
24885SOL    HW180491   9.050  10.837   5.983 -0.8641  1.2475  0.1372
24885SOL    HW280492   8.972  10.804   6.108 -0.5713  1.7515  0.4569
24886SOL     OW80493   4.198   6.311   9.402  0.3304  0.0616  0.3059
24886SOL    HW180494   4.200   6.405   9.417 -1.8393  0.1821  0.2537
24886SOL    HW280495   4.244   6.298   9.319 -0.1722  1.2027 -0.1682
24887SOL     OW80496   8.197   0.058   1.780  0.0287 -0.3605 -0.0000
24887SOL    HW180497   8.130  -0.001   1.745 -0.3016  1.4678 -2.7945
24887SOL    HW280498   8.149   0.113   1.843 -1.1942  0.8398 -1.8719
24888SOL     OW80499   3.643   1.873   1.184  0.3079  0.0485 -0.4098
24888SOL    HW180500   3.587   1.798   1.206  0.5714 -0.1537 -0.4211
24888SOL    HW280501   3.708   1.876   1.254  1.4522 -0.9039 -1.3867
24889SOL     OW80502   1.270   6.984   6.566 -0.2209  0.3294  0.0343
24889SOL    HW180503   1.241   6.896   6.587  0.3004 -0.4646 -2.2777
24889SOL    HW280504   1.364   6.976   6.550  0.3436  1.8169  2.1124
24890SOL     OW80505   2.708   7.929   9.080  0.2339 -0.1926 -0.2684
24890SOL    HW180506   2.768   8.001   9.100  0.0618  0.0859 -0.7486
24890SOL    HW280507   2.736   7.858   9.138  2.1555 -0.6912 -1.7137
24891SOL     OW80508   7.622   8.290   8.983 -0.4142  0.2761  0.0513
24891SOL    HW180509   7.702   8.239   8.967 -0.5245  0.7822 -2.6271
24891SOL    HW280510   7.642   8.376   8.948 -1.8696  0.6431  0.0874
24892SOL     OW80511   1.588  10.061   7.984 -0.8425 -0.1236  0.1880
24892SOL    HW180512   1.524  10.011   7.933 -0.2848 -1.3114  0.5980
24892SOL    HW280513   1.672  10.022   7.960 -0.1913  1.7537 -0.7394
24893SOL     OW80514   1.261  10.357   6.687  0.0774  0.4595 -0.2311
24893SOL    HW180515   1.245  10.438   6.639  0.5285 -0.9085 -2.9502
24893SOL    HW280516   1.355  10.341   6.676 -0.1415 -0.7825 -0.4664
24894SOL     OW80517   4.470   4.514   3.516  0.2531  0.1147 -0.1333
24894SOL    HW180518   4.533   4.570   3.561  0.3299 -1.1186  1.4007
24894SOL    HW280519   4.438   4.454   3.584 -1.6176 -0.1475 -1.1550
24895SOL     OW80520   8.308   7.506   1.485 -0.0801 -1.1163 -0.4100
24895SOL    HW180521   8.340   7.500   1.575  0.3872  2.2021 -0.2214
24895SOL    HW280522   8.213   7.491   1.492 -0.2212  0.1287  0.8825
24896SOL     OW80523   2.508   5.357   2.321  1.1437 -0.4228 -0.3849
24896SOL    HW180524   2.577   5.349   2.387  0.7589 -1.0856 -0.0537
24896SOL    HW280525   2.503   5.451   2.303  0.3643 -0.0549  1.5041
24897SOL     OW80526   5.521  10.076  10.296 -0.6235  0.9226  0.2661
24897SOL    HW180527   5.500  10.130  10.219 -0.7968  0.8693  0.2755
24897SOL    HW280528   5.435  10.054  10.334 -0.5498  0.6957  0.3012
24898SOL     OW80529   6.059  10.352   8.837 -0.1277 -0.3578 -0.6710
24898SOL    HW180530   5.997  10.424   8.833 -0.2882 -0.5283 -1.2827
24898SOL    HW280531   6.145  10.394   8.842 -0.1457 -0.1081 -2.0920
24899SOL     OW80532   7.824   5.770   4.606 -0.2110 -0.4988  0.4280
24899SOL    HW180533   7.840   5.851   4.558  1.3718 -1.2248 -0.3255
24899SOL    HW280534   7.733   5.748   4.585 -0.5014  0.8052  0.2412
24900SOL     OW80535   2.127   4.878   1.029 -0.8707 -0.8957 -0.4557
24900SOL    HW180536   2.216   4.847   1.041 -0.1263  0.7610 -1.3626
24900SOL    HW280537   2.073   4.818   1.081  0.6510 -2.4571 -0.6054
24901SOL     OW80538   3.256   3.124   1.974  0.0666 -0.6514  0.4006
24901SOL    HW180539   3.279   3.032   1.990 -0.4896 -0.7344  0.7491
24901SOL    HW280540   3.164   3.131   2.001  0.4545  0.2909  1.5577
24902SOL     OW80541   2.046  10.217   7.750 -0.1253  0.2288  0.2712
24902SOL    HW180542   2.038  10.231   7.845  2.4552 -0.6114  0.7025
24902SOL    HW280543   2.135  10.183   7.739 -0.2540  0.5894 -2.5042
24903SOL     OW80544   3.188   0.078   9.000 -0.1884 -0.1056 -0.6900
24903SOL    HW180545   3.135  -0.002   9.000 -0.5305  0.1204 -0.7715
24903SOL    HW280546   3.155   0.129   9.074 -0.7476  0.4700 -1.3253
24904SOL     OW80547   1.039   5.909   1.336 -0.6051  0.3374  0.7054
24904SOL    HW180548   1.083   5.872   1.259  0.0473 -0.6405  1.5147
24904SOL    HW280549   1.020   5.999   1.312  0.3916  0.3094 -0.2723
24905SOL     OW80550   0.210  10.847   5.821  0.3380 -0.2668  0.4179
24905SOL    HW180551   0.133  10.800   5.790  0.7682 -0.4454 -0.4062
24905SOL    HW280552   0.216  10.824   5.914  1.3650 -3.0282 -0.2554
24906SOL     OW80553   2.534   6.020   9.176 -0.2149  0.2793 -0.1585
24906SOL    HW180554   2.440   6.003   9.172  0.0893 -1.4167 -1.4309
24906SOL    HW280555   2.563   5.972   9.253 -0.2609 -0.0589 -0.3465
24907SOL     OW80556   8.664  10.802   5.238  0.1536  0.3227 -0.4161
24907SOL    HW180557   8.637  10.856   5.163  0.1905  1.8899  0.6499
24907SOL    HW280558   8.659  10.861   5.313  0.1404 -1.2043  0.8342
24908SOL     OW80559   2.496   0.036   3.362  0.0536 -0.0214 -0.1062
24908SOL    HW180560   2.404   0.060   3.351 -0.3729 -0.7977  1.4038
24908SOL    HW280561   2.534   0.046   3.275 -1.3273  0.8320 -0.6560
24909SOL     OW80562   2.191   6.698   5.190  0.0243  0.4446 -0.4530
24909SOL    HW180563   2.140   6.755   5.131 -1.4092 -0.7624 -0.4559
24909SOL    HW280564   2.193   6.746   5.273 -1.0558  0.5999 -0.4897
24910SOL     OW80565   7.561   1.786   4.481  0.3570  0.0834 -0.0988
24910SOL    HW180566   7.591   1.865   4.435 -0.8804 -1.1635 -3.2992
24910SOL    HW280567   7.587   1.714   4.424 -1.3854 -1.6048  1.1155
24911SOL     OW80568   7.343   7.037  10.590  0.1567 -0.2304  0.1107
24911SOL    HW180569   7.319   7.055  10.499 -1.4863  0.3255  0.6280
24911SOL    HW280570   7.343   6.941  10.597  2.8233 -0.4025 -1.0759
24912SOL     OW80571  10.402   2.299   0.770 -0.4317  0.3187  0.4836
24912SOL    HW180572  10.332   2.263   0.824 -0.1239 -1.2596 -0.1098
24912SOL    HW280573  10.447   2.222   0.734  1.7391  1.2741  0.9992
24913SOL     OW80574   0.096   5.918   7.757  0.0328 -0.0865  0.0968
24913SOL    HW180575   0.027   5.973   7.721 -1.8503 -1.8289  0.8073
24913SOL    HW280576   0.111   5.953   7.845  0.3662  0.5513 -0.2091
24914SOL     OW80577   9.975   2.891   8.296  0.1645  0.1745  0.1146
24914SOL    HW180578   9.961   2.844   8.213  0.1051  0.8001 -0.2309
24914SOL    HW280579   9.889   2.889   8.338  0.2511 -0.3587  0.2827
24915SOL     OW80580   9.295   3.850   7.618 -0.0251 -0.1042  0.3156
24915SOL    HW180581   9.306   3.777   7.558 -1.5128  0.2461 -0.4202
24915SOL    HW280582   9.218   3.827   7.671  0.3172  0.3124  1.0159
24916SOL     OW80583   0.593   2.322   5.150 -0.2060 -0.2517  0.6557
24916SOL    HW180584   0.538   2.396   5.175  0.6881  0.3430  0.9498
24916SOL    HW280585   0.612   2.277   5.232  1.7639  1.0150  0.9791
24917SOL     OW80586   8.933   2.900   7.851  0.0552 -0.6522 -0.1198
24917SOL    HW180587   8.974   2.863   7.929  0.5389  1.0470  0.4837
24917SOL    HW280588   8.950   2.994   7.858 -1.7505 -0.2022 -1.1617
24918SOL     OW80589   1.309  10.428   0.890  0.0341  0.0118 -0.0776
24918SOL    HW180590   1.336  10.518   0.909 -0.5026  0.6077 -1.8852
24918SOL    HW280591   1.325  10.418   0.796  0.5915 -1.9782  0.1797
24919SOL     OW80592   4.770   6.684   8.997  0.1407 -0.3569  0.0383
24919SOL    HW180593   4.767   6.704   9.091  0.5913 -0.2853  0.0383
24919SOL    HW280594   4.844   6.734   8.964 -0.2502 -0.0850 -0.4327
24920SOL     OW80595   2.865   8.802   0.974 -0.2994 -0.5062 -0.1448
24920SOL    HW180596   2.840   8.848   1.054  0.3424  0.0178 -0.2374
24920SOL    HW280597   2.925   8.734   1.004  2.4818  1.6368 -0.4387
24921SOL     OW80598   0.650   7.728  10.234  0.3707  0.1563  0.6039
24921SOL    HW180599   0.683   7.791  10.298  1.3536  0.4178 -0.1290
24921SOL    HW280600   0.640   7.779  10.153  1.5933 -0.6715 -0.1200
24922SOL     OW80601  10.083   2.723   1.093  0.1655  0.2489  0.0115
24922SOL    HW180602  10.111   2.766   1.174  0.9168  1.9963 -1.1444
24922SOL    HW280603  10.132   2.641   1.092  0.5387  0.4368  1.0641
24923SOL     OW80604   5.497   4.764   6.525  0.0366 -0.1515  0.2339
24923SOL    HW180605   5.417   4.812   6.501  0.0335 -0.3658 -0.1820
24923SOL    HW280606   5.549   4.828   6.573  0.4330  0.5450 -1.0885
24924SOL     OW80607   7.270   9.729   5.146  0.4847 -0.5492 -0.3494
24924SOL    HW180608   7.184   9.700   5.176  0.6420  0.0359  0.6915
24924SOL    HW280609   7.255   9.817   5.111  0.9787  0.3823  1.6607
24925SOL     OW80610   7.567   7.298   7.838  0.0596 -0.3205  0.6065
24925SOL    HW180611   7.644   7.259   7.797  0.9701  0.3997  1.5689
24925SOL    HW280612   7.566   7.389   7.807 -0.4427 -0.3374  0.5553
24926SOL     OW80613   3.954   4.237   3.436  0.2329  1.1591 -0.9548
24926SOL    HW180614   3.988   4.307   3.490  2.8017 -0.3259 -0.4771
24926SOL    HW280615   3.863   4.226   3.465  0.3565  2.9618  0.2794
24927SOL     OW80616   2.947   4.800  10.778  0.0272 -0.1840 -0.5726
24927SOL    HW180617   2.880   4.858  10.743 -0.5544  0.1441  1.0083
24927SOL    HW280618   2.954   4.825  10.870  1.1046 -1.3747 -0.3129
24928SOL     OW80619   1.510   7.344   1.980 -0.1472  0.1211 -0.2878
24928SOL    HW180620   1.528   7.436   1.960 -0.7629  0.0391 -1.2703
24928SOL    HW280621   1.595   7.301   1.971  0.0704  0.5273 -0.2215
24929SOL     OW80622   2.170   6.881   3.462 -0.0399  1.0285  0.1658
24929SOL    HW180623   2.224   6.859   3.538  0.5049  0.6263 -0.3286
24929SOL    HW280624   2.180   6.806   3.403  1.8867  2.5400 -1.5791
24930SOL     OW80625  10.510   2.465   0.975  0.6211  0.1073 -0.5646
24930SOL    HW180626  10.454   2.429   0.905 -0.6984  2.5558 -0.8681
24930SOL    HW280627  10.528   2.390   1.031 -0.7082 -1.3510 -1.9670
24931SOL     OW80628   3.434   7.859   1.652 -0.6088  0.2167 -0.3496
24931SOL    HW180629   3.359   7.807   1.678 -0.6902  0.2566 -0.5023
24931SOL    HW280630   3.508   7.799   1.654 -1.0830 -0.5794 -2.9684
24932SOL     OW80631   6.745   6.966  10.097 -0.4868  0.3233 -0.2122
24932SOL    HW180632   6.770   6.979  10.188  1.1013 -1.2829 -0.3719
24932SOL    HW280633   6.665   6.913  10.101  0.5913 -1.3170  0.2617
24933SOL     OW80634   5.988  10.694   7.235  0.2522 -0.0504 -0.7076
24933SOL    HW180635   5.964  10.643   7.312  1.2985 -0.5406 -0.6968
24933SOL    HW280636   5.964  10.784   7.258 -3.3141 -0.6664 -1.4122
24934SOL     OW80637   5.914   7.796   2.087  0.3523  0.3170 -0.1234
24934SOL    HW180638   5.879   7.742   2.158  1.8724  1.9947  2.0287
24934SOL    HW280639   6.005   7.769   2.078 -0.1896 -0.9812 -2.6560
24935SOL     OW80640   8.783   3.937   7.472 -0.0929  0.1933 -0.1238
24935SOL    HW180641   8.688   3.953   7.470 -0.2854 -0.9243 -0.4601
24935SOL    HW280642   8.801   3.912   7.562  0.0066  1.0636  0.1067
24936SOL     OW80643  10.818   6.906   0.488 -0.1350 -0.3158  0.1933
24936SOL    HW180644  10.764   6.980   0.461 -0.2939 -0.4111  0.2482
24936SOL    HW280645  10.756   6.833   0.497  0.0552 -0.5085 -0.0749
24937SOL     OW80646   6.108   1.296   1.302  0.0772  0.3466 -0.0605
24937SOL    HW180647   6.075   1.329   1.219 -0.8299 -0.4053 -0.0175
24937SOL    HW280648   6.203   1.294   1.292  0.2570  3.3682  0.1021
24938SOL     OW80649   1.962   7.330   8.484  0.0254  0.1036  0.3298
24938SOL    HW180650   2.043   7.369   8.451  0.5237 -0.5891  0.6938
24938SOL    HW280651   1.975   7.235   8.472 -0.2860 -0.0805  1.3653
24939SOL     OW80652  10.811   8.542   5.696  0.0922  0.2540  0.0301
24939SOL    HW180653  10.763   8.511   5.619 -2.9043  1.4358  1.2573
24939SOL    HW280654  10.805   8.469   5.758  0.0629  0.3270  0.1124
24940SOL     OW80655   9.199   2.533   3.595  0.3580  0.3724 -0.1796
24940SOL    HW180656   9.268   2.595   3.617 -0.1460  0.5020  1.1120
24940SOL    HW280657   9.188   2.479   3.673  0.7639 -1.3564 -1.2630
24941SOL     OW80658   3.848   7.537   5.110  0.4043 -0.0276 -0.1319
24941SOL    HW180659   3.916   7.477   5.081  0.3386  0.7423 -2.0293
24941SOL    HW280660   3.895   7.618   5.132  0.1543  0.4907 -1.4051
24942SOL     OW80661   1.600   3.856   1.726  0.3955  0.3272  0.0722
24942SOL    HW180662   1.532   3.894   1.671 -1.4435 -1.0358  1.2977
24942SOL    HW280663   1.668   3.828   1.664 -0.2023  1.5528 -1.1981
24943SOL     OW80664   2.476  10.351   3.775 -0.2009  0.1720 -0.1014
24943SOL    HW180665   2.417  10.356   3.850 -1.4536  0.0125 -1.0580
24943SOL    HW280666   2.440  10.412   3.711  0.1978 -0.5421 -1.0272
24944SOL     OW80667   5.295   2.576   4.325 -0.0680 -0.6836  0.1629
24944SOL    HW180668   5.243   2.502   4.355  0.5585 -1.3342 -0.3225
24944SOL    HW280669   5.232   2.636   4.286 -0.3917 -1.7884 -1.0643
24945SOL     OW80670   1.921   3.506   9.829  0.2595  0.0741 -0.1445
24945SOL    HW180671   1.979   3.484   9.756 -0.0358 -1.9705  0.1880
24945SOL    HW280672   1.844   3.546   9.787 -0.2378 -1.7402 -1.0681
24946SOL     OW80673   5.902  10.434   8.590 -0.0647  0.0982  0.2704
24946SOL    HW180674   5.902  10.351   8.543  1.6527  0.5588 -0.6516
24946SOL    HW280675   5.829  10.428   8.651  1.6120 -3.2130  2.2123
24947SOL     OW80676   4.360   6.327   3.258  0.2745  0.2798 -0.2339
24947SOL    HW180677   4.365   6.414   3.296  0.7509  0.7558 -1.3613
24947SOL    HW280678   4.450   6.294   3.261  0.2784  0.2359 -0.7382
24948SOL     OW80679   6.911   4.301   4.408  0.4125  0.2450 -0.4181
24948SOL    HW180680   7.001   4.278   4.433  1.1084  1.5752 -1.5303
24948SOL    HW280681   6.885   4.234   4.345  1.1771  0.6033 -1.1418
24949SOL     OW80682   6.178   3.954  10.459 -0.4391 -0.4478 -0.4035
24949SOL    HW180683   6.163   3.967  10.552 -1.0222  0.5261 -0.6090
24949SOL    HW280684   6.120   3.882  10.435  0.5637 -1.4647  0.1973
24950SOL     OW80685   0.130   1.796   6.313  0.0410  0.5689 -0.1570
24950SOL    HW180686   0.117   1.878   6.267  0.6380 -1.0738 -3.5728
24950SOL    HW280687   0.225   1.787   6.321 -0.0169  0.1898  0.1650
24951SOL     OW80688   5.682   1.091   5.484  0.0423 -0.4531  0.4484
24951SOL    HW180689   5.751   1.152   5.511 -0.9375  1.0393 -0.2583
24951SOL    HW280690   5.611   1.148   5.451 -0.1211 -2.0114 -2.1876
24952SOL     OW80691   4.251   5.825   6.804  0.1389 -0.3487  0.1034
24952SOL    HW180692   4.218   5.809   6.716  0.4020  0.0683 -0.0734
24952SOL    HW280693   4.291   5.743   6.831 -1.1385 -0.9031  0.3637
24953SOL     OW80694   5.831   7.761  10.098  0.3288 -0.2078 -0.1889
24953SOL    HW180695   5.846   7.826  10.030 -0.4047 -0.9461 -1.0721
24953SOL    HW280696   5.842   7.677  10.054  0.4827 -0.6965  0.7541
24954SOL     OW80697   5.893   5.017   1.221  0.1882  0.1916 -0.0052
24954SOL    HW180698   5.937   5.023   1.136  0.1954  0.3818  0.0098
24954SOL    HW280699   5.964   5.007   1.284  0.2748  1.2960  0.0961
24955SOL     OW80700   7.689   8.251   7.999 -0.4716  0.6111  0.0934
24955SOL    HW180701   7.612   8.254   8.056 -0.2428  0.2298  0.4286
24955SOL    HW280702   7.669   8.182   7.936  0.3493 -0.8033  1.3089
24956SOL     OW80703   2.594   6.728   9.603 -0.1930 -0.3491 -0.3074
24956SOL    HW180704   2.608   6.694   9.515 -1.7756  0.7885 -1.0475
24956SOL    HW280705   2.648   6.807   9.607  1.1975 -1.2933  0.3798
24957SOL     OW80706   7.642   9.324   4.202 -0.2007 -0.1264 -0.7685
24957SOL    HW180707   7.720   9.345   4.253 -0.3576 -0.6575 -0.2922
24957SOL    HW280708   7.599   9.254   4.252 -0.5936 -0.3489 -1.4027
24958SOL     OW80709   8.096   3.987   6.363  0.4259  0.1304  0.3528
24958SOL    HW180710   8.034   3.973   6.291  1.6109 -2.6817 -0.2567
24958SOL    HW280711   8.135   4.072   6.345 -1.9461  1.1923 -0.2017
24959SOL     OW80712   4.152   7.647   9.271  0.0514 -0.2731  0.1657
24959SOL    HW180713   4.214   7.674   9.203  2.2928 -1.2392  1.7201
24959SOL    HW280714   4.171   7.554   9.285  0.1697  0.0698  2.5995
24960SOL     OW80715   9.130   7.797   5.574 -0.0765 -0.1985  0.1158
24960SOL    HW180716   9.061   7.754   5.625 -0.4540 -0.1542 -0.3457
24960SOL    HW280717   9.086   7.873   5.534  0.3431  0.0677  0.1487
24961SOL     OW80718  10.726   8.802   8.417  0.0643 -0.1638  0.2413
24961SOL    HW180719  10.697   8.712   8.428 -0.1535 -0.0936  0.2643
24961SOL    HW280720  10.713   8.820   8.324  0.7025 -0.3563  0.1162
24962SOL     OW80721   9.421  10.717   7.619  0.3174  0.1443 -0.1420
24962SOL    HW180722   9.475  10.692   7.695  0.0243  2.3787  0.8624
24962SOL    HW280723   9.454  10.802   7.593 -0.5154  0.0192 -1.6901
24963SOL     OW80724   2.226   9.375   6.391 -0.1722 -0.1606 -0.0247
24963SOL    HW180725   2.305   9.364   6.338 -0.2027 -3.9357  0.4354
24963SOL    HW280726   2.159   9.405   6.329  0.7175 -0.7173 -1.3041
24964SOL     OW80727   5.885   8.793   4.122 -0.5314 -0.2804  0.0046
24964SOL    HW180728   5.816   8.836   4.071 -0.4238 -0.4113 -0.2510
24964SOL    HW280729   5.934   8.742   4.058 -1.6024 -2.0409  0.5212
24965SOL     OW80730   0.401   6.432   6.184  0.3053 -0.1345  0.0141
24965SOL    HW180731   0.369   6.475   6.106  0.7817  0.3219  0.0662
24965SOL    HW280732   0.327   6.380   6.215 -0.1609  0.3632 -0.2482
24966SOL     OW80733   0.685   0.895   8.017 -0.3478  0.2278  0.2659
24966SOL    HW180734   0.676   0.954   7.942 -1.4978  0.0027  0.2072
24966SOL    HW280735   0.770   0.917   8.055  0.2158  0.4195 -1.0421
24967SOL     OW80736   0.062  10.603   3.305  0.0335  0.9452  0.5189
24967SOL    HW180737   0.117  10.660   3.359  0.1340  0.6716  0.7063
24967SOL    HW280738   0.114  10.524   3.294 -0.4007  0.6094  0.8489
24968SOL     OW80739   4.633   8.328   4.145 -0.0124  0.3044 -0.1003
24968SOL    HW180740   4.546   8.297   4.171 -1.2278  1.5975 -2.2724
24968SOL    HW280741   4.694   8.263   4.180 -1.8946 -0.9836  0.9503
24969SOL     OW80742   8.947   2.792   5.645  0.9110  0.1828  0.4307
24969SOL    HW180743   9.043   2.784   5.646  0.7973 -1.3415  1.2593
24969SOL    HW280744   8.915   2.705   5.624 -0.3208  0.5061  0.8819
24970SOL     OW80745   3.176   7.693   0.222 -0.2016  0.4331 -0.4167
24970SOL    HW180746   3.114   7.761   0.193  0.3851  1.6703  1.0991
24970SOL    HW280747   3.122   7.633   0.274 -0.4475  0.5449 -0.5373
24971SOL     OW80748   2.098   1.489   2.132  0.0297 -0.1067  0.3009
24971SOL    HW180749   2.047   1.548   2.077  0.2130 -0.2576 -0.0398
24971SOL    HW280750   2.188   1.501   2.102  0.0089 -0.9230 -0.1206
24972SOL     OW80751   6.062   3.989   3.430 -0.1761  0.3343  0.0558
24972SOL    HW180752   6.105   3.963   3.511  0.3789 -0.6121 -0.5248
24972SOL    HW280753   6.090   4.080   3.416 -0.6178  0.6465  1.1272
24973SOL     OW80754   1.769   0.179   4.638 -0.1783  0.4515  0.5131
24973SOL    HW180755   1.771   0.192   4.733  0.7061 -0.7886  0.7000
24973SOL    HW280756   1.815   0.096   4.625  2.4508  2.0256 -1.2298
24974SOL     OW80757   3.132   6.970   0.661 -0.1708 -0.1718 -0.2080
24974SOL    HW180758   3.199   6.925   0.712  1.2916 -1.2613 -2.8516
24974SOL    HW280759   3.172   7.053   0.636 -0.0781 -0.4929 -1.1612
24975SOL     OW80760   0.394   0.661   9.341 -0.1739  0.2620 -0.4098
24975SOL    HW180761   0.330   0.724   9.307  0.3785  0.8687 -0.3366
24975SOL    HW280762   0.389   0.587   9.281 -0.9330  0.3102 -0.4173
24976SOL     OW80763   5.562   2.718  10.643  0.0826  0.5786  0.7030
24976SOL    HW180764   5.546   2.775  10.568  1.4953  0.3911  0.2353
24976SOL    HW280765   5.527   2.633  10.617  3.5528 -0.4539 -1.2512
24977SOL     OW80766   5.313   9.926   5.630  0.1736 -0.6119  0.7618
24977SOL    HW180767   5.341   9.972   5.709  1.1136 -0.9640  0.6433
24977SOL    HW280768   5.228   9.888   5.652 -1.4925  2.5381  0.3612
24978SOL     OW80769   2.780   7.312   5.626  0.1463  1.2906  0.3122
24978SOL    HW180770   2.834   7.317   5.548  1.0452  3.0704  0.9987
24978SOL    HW280771   2.706   7.370   5.608  0.8656  2.4961  1.1296
24979SOL     OW80772   0.830   4.420   1.361 -0.2421  0.3341 -0.5983
24979SOL    HW180773   0.802   4.505   1.396 -1.0687  0.4161 -1.4166
24979SOL    HW280774   0.749   4.370   1.351  0.0862 -0.0687 -1.3689
24980SOL     OW80775   2.310   1.551   5.370 -0.2478  0.7593  0.2295
24980SOL    HW180776   2.380   1.579   5.429  0.2564 -0.8935  0.4693
24980SOL    HW280777   2.339   1.577   5.283 -0.5078  2.2738  0.5587
24981SOL     OW80778   5.241  10.609   2.114  0.1146 -0.1454  0.0039
24981SOL    HW180779   5.233  10.531   2.169  1.0613 -0.9269 -0.9510
24981SOL    HW280780   5.330  10.640   2.129 -0.0693  0.4304 -0.0688
24982SOL     OW80781   3.087  10.523  10.837 -0.2598  0.1112  0.3775
24982SOL    HW180782   3.018  10.459  10.855  2.0263 -3.4923 -2.0837
24982SOL    HW280783   3.109  10.560  10.922 -1.3673 -2.9188  2.1474
24983SOL     OW80784   1.417   6.308   9.328  0.0777  0.3372  0.0062
24983SOL    HW180785   1.473   6.385   9.336 -0.0779  0.3937  0.5981
24983SOL    HW280786   1.377   6.316   9.242  0.3845  0.6968 -0.1073
24984SOL     OW80787   0.543   2.508   2.326  0.0715  0.4108 -0.1570
24984SOL    HW180788   0.553   2.442   2.257  1.3994  0.4749 -0.0572
24984SOL    HW280789   0.553   2.460   2.408 -2.2454  0.2083  0.0728
24985SOL     OW80790   3.177   5.087   8.250 -0.1929  0.4376  0.0156
24985SOL    HW180791   3.217   5.144   8.315 -2.1150  1.5302  0.3141
24985SOL    HW280792   3.088   5.072   8.283 -0.7624 -0.0993 -1.6742
24986SOL     OW80793   1.147   5.265   1.123 -0.4432  0.3688 -0.0507
24986SOL    HW180794   1.212   5.231   1.185  2.1040  0.7380 -2.3412
24986SOL    HW280795   1.148   5.360   1.138 -2.6465  0.2020  1.7851
24987SOL     OW80796   1.464   9.784   3.695  0.0946  0.2851  0.1706
24987SOL    HW180797   1.423   9.820   3.616  0.0738 -0.3352 -0.1014
24987SOL    HW280798   1.431   9.695   3.702  0.2207  0.2802  0.7953
24988SOL     OW80799   2.179   7.980   9.677  0.6625 -0.4021 -0.2114
24988SOL    HW180800   2.270   8.009   9.668  0.9531 -1.4178 -0.7644
24988SOL    HW280801   2.169   7.914   9.608 -0.5713 -0.1281 -0.3053
24989SOL     OW80802   8.245   5.580   7.716 -0.0070  0.0873  0.1292
24989SOL    HW180803   8.336   5.553   7.708  0.2891  0.6590  1.3811
24989SOL    HW280804   8.243   5.667   7.674 -0.0953 -0.1287 -0.3264
24990SOL     OW80805   4.856   6.808   2.620  0.3286 -0.1348 -0.1791
24990SOL    HW180806   4.829   6.717   2.606 -1.2578  0.1149  0.9048
24990SOL    HW280807   4.868   6.815   2.715  0.6250  0.7449 -0.2728
24991SOL     OW80808   4.743  10.090   9.046  0.0418 -0.5207  0.1894
24991SOL    HW180809   4.771  10.040   9.123  0.7858  1.7758  1.5084
24991SOL    HW280810   4.819  10.087   8.987  0.3761 -0.3338  0.6027
24992SOL     OW80811   9.369   6.090   0.837 -0.1826  0.2278 -0.3122
24992SOL    HW180812   9.357   6.183   0.818  0.5384  0.3036 -0.4132
24992SOL    HW280813   9.351   6.083   0.931 -0.1260  0.4870 -0.2801
24993SOL     OW80814  10.077   0.777   3.405 -0.0215  0.2165 -0.5858
24993SOL    HW180815  10.034   0.770   3.490  0.4712  0.9956 -0.2613
24993SOL    HW280816  10.043   0.859   3.368 -1.5400 -0.9376 -1.9080
24994SOL     OW80817   9.995   1.060   6.822  0.0171 -0.5076 -0.3193
24994SOL    HW180818  10.052   1.079   6.897 -0.3619  1.2228 -0.4255
24994SOL    HW280819  10.013   0.968   6.802 -0.4154 -1.2598  2.3250
24995SOL     OW80820   2.993   8.533   6.952 -0.0227 -0.3424  0.0006
24995SOL    HW180821   2.989   8.628   6.960  0.6282 -0.4137  1.6438
24995SOL    HW280822   2.923   8.511   6.890 -0.1219  1.2002 -0.4733
24996SOL     OW80823   9.543   4.655   6.462  0.5588  0.1889  0.1611
24996SOL    HW180824   9.448   4.658   6.460  0.4086 -1.7477  1.3256
24996SOL    HW280825   9.565   4.573   6.417  1.6593  0.4514  0.1875
24997SOL     OW80826   7.380   7.275   4.013  0.3995 -0.5148  0.1441
24997SOL    HW180827   7.338   7.243   3.932 -1.3824  0.6258  0.5619
24997SOL    HW280828   7.469   7.299   3.987  0.8511 -2.9275 -0.8165
24998SOL     OW80829   1.597   7.049   3.383 -0.3569  0.0382 -0.5259
24998SOL    HW180830   1.601   6.955   3.366  0.7437 -0.1411  0.5411
24998SOL    HW280831   1.689   7.077   3.380 -0.5791  0.8684  0.1688
24999SOL     OW80832   7.220   9.204   9.415  0.0629  0.0160  0.5674
24999SOL    HW180833   7.233   9.153   9.335  0.9014 -1.3470  1.5217
24999SOL    HW280834   7.297   9.262   9.419 -0.8055  1.3044 -0.4285
25000SOL     OW80835   2.966   7.751   1.447 -0.1418  0.4044  0.7369
25000SOL    HW180836   2.902   7.781   1.382  1.6718 -0.4738 -1.5744
25000SOL    HW280837   3.027   7.824   1.456 -1.1801  1.1086  2.6842
25001SOL     OW80838   1.460   1.422   1.033 -0.1988 -0.1580  0.3508
25001SOL    HW180839   1.458   1.372   0.952 -0.0949 -0.2519  0.4076
25001SOL    HW280840   1.407   1.371   1.094 -1.4956  0.6198 -0.0758
25002SOL     OW80841   6.407   1.049   4.185 -0.2119  0.2891  0.4027
25002SOL    HW180842   6.411   1.136   4.144 -0.1926 -0.7587 -1.9850
25002SOL    HW280843   6.315   1.025   4.182 -0.2103  0.2011  1.0126
25003SOL     OW80844   5.380   8.468   6.625  0.5516  0.6077 -0.4362
25003SOL    HW180845   5.437   8.542   6.648 -0.2661  1.4060 -0.8982
25003SOL    HW280846   5.356   8.430   6.710 -1.0879  2.4914  0.0310
25004SOL     OW80847   7.465   3.779   6.664 -0.2999  0.3283 -0.0656
25004SOL    HW180848   7.425   3.842   6.605  1.4604  1.7154  0.1587
25004SOL    HW280849   7.518   3.723   6.607 -0.4096  0.1999 -0.0442
25005SOL     OW80850   6.699  10.817   7.957 -0.1922  0.1895  0.1466
25005SOL    HW180851   6.718  10.909   7.978 -1.0218  0.2007  0.8687
25005SOL    HW280852   6.632  10.822   7.889 -1.4525  0.1365  1.3368
25006SOL     OW80853   8.774   2.158   2.231  0.9294 -0.3252 -0.7780
25006SOL    HW180854   8.787   2.071   2.193 -0.1987 -1.2058  0.7297
25006SOL    HW280855   8.681   2.161   2.254  0.7162  1.6862 -1.6979
25007SOL     OW80856   9.268   6.619   0.758  0.6330 -0.3838  0.4944
25007SOL    HW180857   9.244   6.611   0.850  2.4877  0.5263  1.1063
25007SOL    HW280858   9.219   6.695   0.727  1.2102  0.2841  1.1858
25008SOL     OW80859   7.750   0.931   8.482  0.3526  0.1675  0.0576
25008SOL    HW180860   7.756   1.010   8.536  0.8509  1.0748 -1.2747
25008SOL    HW280861   7.693   0.956   8.409  1.2304 -0.4220 -0.8506
25009SOL     OW80862   1.651   9.077   2.570 -0.4955  0.3081  0.3757
25009SOL    HW180863   1.684   9.128   2.496 -0.3477  1.6509  1.3338
25009SOL    HW280864   1.646   8.987   2.537  0.2567  0.7550 -1.0287
25010SOL     OW80865   4.415   9.180   1.117  0.5901  0.2365  0.3025
25010SOL    HW180866   4.421   9.275   1.130 -1.6445  0.0979  3.6084
25010SOL    HW280867   4.321   9.163   1.104  0.4280 -1.7098  3.0966
25011SOL     OW80868   0.084   7.323   6.606  0.5249 -0.0745 -0.0528
25011SOL    HW180869   0.018   7.258   6.631  0.5915 -0.3509 -0.5857
25011SOL    HW280870   0.168   7.280   6.623  0.6008 -0.7509 -1.8561
25012SOL     OW80871  10.043   2.956   4.429  0.0936  0.2075 -0.4351
25012SOL    HW180872  10.109   2.922   4.368  0.2080 -0.1776 -0.1036
25012SOL    HW280873  10.061   2.910   4.511 -0.8957 -0.2788 -0.4730
25013SOL     OW80874   1.568   3.072   5.873 -0.1770  0.2329 -0.4137
25013SOL    HW180875   1.515   2.996   5.850  0.8833 -0.9101  0.6911
25013SOL    HW280876   1.657   3.047   5.847  0.3378  0.6686  0.8646
25014SOL     OW80877   1.097   7.891   4.827  0.2664 -0.0968 -0.3745
25014SOL    HW180878   1.112   7.832   4.901  0.4078  1.9518  1.3054
25014SOL    HW280879   1.172   7.876   4.769 -0.2257 -2.2672 -0.5262
25015SOL     OW80880  10.516  10.446   6.300 -0.4830  0.6800 -0.2517
25015SOL    HW180881  10.578  10.390   6.254 -0.4703  0.7200 -0.2826
25015SOL    HW280882  10.496  10.398   6.381 -0.9261  0.3509 -0.5500
25016SOL     OW80883   7.913   9.157   0.948 -0.0446  0.0360 -0.6592
25016SOL    HW180884   7.937   9.080   1.000  0.0124  0.4039 -0.1277
25016SOL    HW280885   7.854   9.123   0.881 -2.1836 -0.1081  1.1634
25017SOL     OW80886   4.600   9.062   6.206 -0.1808  0.1275 -0.2293
25017SOL    HW180887   4.547   9.009   6.146 -2.5643  0.6136  1.3190
25017SOL    HW280888   4.670   9.004   6.235  0.7456 -0.2912 -2.9895
25018SOL     OW80889   9.627   2.107   9.970 -0.4766 -0.3989 -0.0232
25018SOL    HW180890   9.696   2.173   9.982 -0.7498  0.0487 -0.8052
25018SOL    HW280891   9.611   2.107   9.876 -2.4250  0.4310  0.2598
25019SOL     OW80892   4.194   0.165  10.721 -0.0649 -0.2680 -0.5184
25019SOL    HW180893   4.138   0.112  10.777 -0.1332 -0.8535 -1.1262
25019SOL    HW280894   4.162   0.149  10.632  0.6577 -0.1187 -0.8167
25020SOL     OW80895   9.090   1.087   3.048  0.1299 -0.1231  0.2596
25020SOL    HW180896   9.063   1.104   3.139 -0.6881 -1.2465  0.2594
25020SOL    HW280897   9.171   1.037   3.056  0.3157  0.1929  0.3585
25021SOL     OW80898   3.187   8.662   1.398 -0.2105  0.3103 -0.1111
25021SOL    HW180899   3.222   8.751   1.410 -0.6729  0.5667 -0.6283
25021SOL    HW280900   3.215   8.615   1.477 -1.2900  1.3390  0.9355
25022SOL     OW80901  10.328   3.404   6.845  0.0400 -0.1478  0.0594
25022SOL    HW180902  10.328   3.430   6.937 -0.1889 -0.7829  0.2482
25022SOL    HW280903  10.392   3.462   6.803  0.4502 -0.1312  0.6976
25023SOL     OW80904  10.005   5.991   4.518 -0.0033  0.2681 -0.2264
25023SOL    HW180905  10.098   5.994   4.494  0.1270 -1.7256 -0.1166
25023SOL    HW280906   9.996   5.911   4.569 -1.9683 -0.1022 -1.0820
25024SOL     OW80907   6.308   4.191   2.139 -0.0419 -0.3184 -1.0655
25024SOL    HW180908   6.270   4.227   2.059 -0.7261  0.2066 -0.5168
25024SOL    HW280909   6.291   4.097   2.133  2.5852 -0.7725 -2.9563
25025SOL     OW80910   9.351   1.258   4.203 -0.1160 -0.2178 -0.0064
25025SOL    HW180911   9.294   1.257   4.280  1.3997 -1.7349  1.1548
25025SOL    HW280912   9.369   1.166   4.184 -0.4816  0.1020 -2.2603
25026SOL     OW80913   7.009   9.713   7.153  0.0629 -0.1520  0.1095
25026SOL    HW180914   7.063   9.644   7.190 -0.0212  0.8678  2.2992
25026SOL    HW280915   6.948   9.736   7.224 -0.8635  1.1568 -1.0559
25027SOL     OW80916   6.627   4.861   1.806 -0.0562  0.3978 -0.1686
25027SOL    HW180917   6.703   4.805   1.825  0.3680  1.4304  1.3959
25027SOL    HW280918   6.556   4.823   1.857 -0.5033 -0.3302 -1.3149
25028SOL     OW80919   7.294   3.266  10.909  0.0152 -0.2075  0.3151
25028SOL    HW180920   7.370   3.209  10.899  1.4908  1.2550  2.4398
25028SOL    HW280921   7.315   3.344  10.857  0.2410  0.4165  1.3180
25029SOL     OW80922   2.252  10.369   9.306 -0.4498 -0.0172 -0.8247
25029SOL    HW180923   2.329  10.394   9.254  1.2157 -0.8023  1.1294
25029SOL    HW280924   2.223  10.286   9.267  0.1187 -0.0629 -1.1662
25030SOL     OW80925   8.116   4.479   2.073 -0.5281  0.3677 -0.2334
25030SOL    HW180926   8.064   4.558   2.055 -0.7195  0.1014 -0.8979
25030SOL    HW280927   8.163   4.499   2.154 -0.9697  0.9653 -0.1166
25031SOL     OW80928   2.190   3.629   9.691 -0.1014  0.7697  0.5660
25031SOL    HW180929   2.248   3.655   9.620 -0.9079  0.8755 -0.0699
25031SOL    HW280930   2.247   3.623   9.768  0.8702  0.1562 -0.1804
25032SOL     OW80931   2.737   2.142   6.365  0.7526 -0.1816 -0.5177
25032SOL    HW180932   2.768   2.208   6.304  0.7791 -0.2849 -0.6158
25032SOL    HW280933   2.726   2.189   6.448  0.9223 -0.0886 -0.5473
25033SOL     OW80934   3.696  10.100   2.977 -0.1528 -0.0139 -0.8167
25033SOL    HW180935   3.740  10.021   3.006 -0.8604 -0.8489 -1.9337
25033SOL    HW280936   3.617  10.106   3.031  0.4452  0.5504  0.0170
25034SOL     OW80937   0.789   2.176   4.773  0.7853  0.2415  0.3502
25034SOL    HW180938   0.786   2.188   4.678 -0.0959  0.3671  0.3809
25034SOL    HW280939   0.700   2.198   4.803  1.0515  0.2053  1.2020
25035SOL     OW80940   2.195   0.566  10.254 -0.4997 -0.3887  0.1118
25035SOL    HW180941   2.165   0.657  10.256  0.1404 -0.1790  0.5553
25035SOL    HW280942   2.191   0.537  10.345 -2.5739 -1.4566 -0.2544
25036SOL     OW80943   3.163   2.924   5.871 -0.6212  0.2524 -0.0634
25036SOL    HW180944   3.086   2.974   5.900  0.2225  0.7618  1.4499
25036SOL    HW280945   3.167   2.937   5.777 -2.3994  0.1847 -0.1808
25037SOL     OW80946   2.338   7.045   5.583 -0.5333  0.3780 -0.4328
25037SOL    HW180947   2.298   7.041   5.670 -0.1495 -0.7285 -0.2909
25037SOL    HW280948   2.295   6.975   5.534  0.6037 -0.2530 -0.5403
25038SOL     OW80949   4.076  10.365   2.104  0.0339  0.8147 -0.1985
25038SOL    HW180950   4.110  10.286   2.147 -0.3401  0.0015 -1.3342
25038SOL    HW280951   4.128  10.436   2.141  0.2703  0.0594  0.9790
25039SOL     OW80952   5.870   5.509   0.843  0.2961 -0.0096  0.2512
25039SOL    HW180953   5.922   5.565   0.785  0.3387 -0.1897  0.1126
25039SOL    HW280954   5.931   5.479   0.910  0.2703  0.1205  0.3319
25040SOL     OW80955   3.315   1.180  10.926 -0.1842 -0.3059 -0.7073
25040SOL    HW180956   3.263   1.120  10.873  0.0658  0.2355 -1.5970
25040SOL    HW280957   3.251   1.232  10.975 -0.4078 -1.0332 -0.2240
25041SOL     OW80958   6.787   8.838   4.369  0.2196 -0.5820 -0.1904
25041SOL    HW180959   6.837   8.867   4.293  0.5377  1.1529  0.6262
25041SOL    HW280960   6.695   8.849   4.343  0.3243 -0.1914 -0.3987
25042SOL     OW80961   1.965   9.418   1.091 -0.1732 -0.2882  0.4891
25042SOL    HW180962   1.919   9.383   1.015  0.2708 -2.0396  0.9964
25042SOL    HW280963   1.898   9.430   1.158 -1.2345  4.3437 -1.0148
25043SOL     OW80964   2.682   0.844   0.099 -0.2191  0.3792  0.2069
25043SOL    HW180965   2.734   0.809   0.171  0.1816 -2.6404 -1.3884
25043SOL    HW280966   2.747   0.875   0.035 -0.5363  1.6198  0.4656
25044SOL     OW80967   1.102   1.829   4.780 -0.1989 -0.8043 -0.2558
25044SOL    HW180968   1.053   1.903   4.814  1.7718  0.2025  0.5519
25044SOL    HW280969   1.045   1.753   4.794 -1.7150  0.3610  0.1070
25045SOL     OW80970   6.774   4.943   2.865  0.3475  0.0723 -0.5735
25045SOL    HW180971   6.747   4.947   2.774  1.2771 -1.1773 -0.9363
25045SOL    HW280972   6.786   5.034   2.891 -0.0718  0.4443 -1.6558
25046SOL     OW80973   0.298   3.359   4.952  0.8270 -0.6593  0.0307
25046SOL    HW180974   0.264   3.392   5.035  1.1096  1.8671 -0.7580
25046SOL    HW280975   0.363   3.293   4.977 -0.7141 -1.6579  1.6896
25047SOL     OW80976   5.907   6.829   7.303  0.2604 -0.4128 -0.1129
25047SOL    HW180977   5.927   6.737   7.282 -1.5329 -0.7339 -0.5793
25047SOL    HW280978   5.993   6.872   7.303  1.2719 -2.2621  1.1300
25048SOL     OW80979   3.274   5.101   0.235 -0.5319 -0.1398 -0.1797
25048SOL    HW180980   3.324   5.027   0.201 -0.7969 -1.2175  1.6637
25048SOL    HW280981   3.188   5.063   0.257 -0.9553  0.9013 -0.0047
25049SOL     OW80982   4.849   0.126   0.584 -0.0275  0.0487  0.1727
25049SOL    HW180983   4.824   0.218   0.572 -0.4381 -0.1324 -0.3383
25049SOL    HW280984   4.771   0.076   0.561  0.4756 -0.4712 -0.4168
25050SOL     OW80985   4.013   7.599   0.059  0.0629 -0.0396  0.0571
25050SOL    HW180986   3.978   7.543   0.128  3.3685 -0.4864  1.5697
25050SOL    HW280987   3.978   7.686   0.079  1.1983 -0.0726  2.6767
25051SOL     OW80988   9.295   4.336   9.437  0.5550  0.0378  0.0225
25051SOL    HW180989   9.311   4.430   9.437  2.7463 -0.2664  0.7746
25051SOL    HW280990   9.354   4.302   9.505  0.3847 -1.9521 -0.7491
25052SOL     OW80991   1.081   5.496   3.183 -0.0094  0.3736 -0.3320
25052SOL    HW180992   1.042   5.534   3.104 -0.5846  0.7253  0.1110
25052SOL    HW280993   1.165   5.462   3.154 -0.1432  0.6440 -1.0654
25053SOL     OW80994  10.151   0.431   9.748 -0.3508  0.6373  0.2402
25053SOL    HW180995  10.112   0.475   9.673  0.2137  0.5815 -0.0950
25053SOL    HW280996  10.119   0.341   9.743  0.0701  0.5079 -0.2202
25054SOL     OW80997   6.745   0.490   3.247 -0.1226 -0.5174  0.2286
25054SOL    HW180998   6.735   0.520   3.157 -1.2375 -0.7270  0.2635
25054SOL    HW280999   6.658   0.501   3.285 -0.9399 -4.5643  0.0144
25055SOL     OW81000   7.250   9.281   7.986  0.4571 -0.0597  0.4584
25055SOL    HW181001   7.213   9.195   8.007 -0.3952  0.4996  1.3643
25055SOL    HW281002   7.342   9.264   7.967 -0.4042 -1.7176 -3.2191
25056SOL     OW81003   8.643   6.704   6.185  0.2073  0.1418 -0.0673
25056SOL    HW181004   8.687   6.713   6.269  1.6122  0.3596 -0.7934
25056SOL    HW281005   8.599   6.619   6.190  0.7504 -0.1079  0.6914
25057SOL     OW81006   7.777   6.489   8.137 -0.2351  0.2193 -0.0084
25057SOL    HW181007   7.792   6.527   8.223  2.9356 -1.0108  0.1075
25057SOL    HW281008   7.798   6.397   8.147  0.7683  0.1489 -2.1962
25058SOL     OW81009   9.090  10.842   3.741  0.0815  0.1489 -0.2179
25058SOL    HW181010   9.157  10.773   3.747  2.5224  2.4422  1.5843
25058SOL    HW281011   9.119  10.896   3.667 -1.4864 -0.3856 -1.2605
25059SOL     OW81012   0.073   3.722   3.644 -0.7680 -0.3752  0.4208
25059SOL    HW181013   0.152   3.775   3.653  0.1588 -0.4249 -4.4105
25059SOL    HW281014   0.003   3.777   3.677  0.9447  0.7103  2.4912
25060SOL     OW81015   5.365   2.660   7.036  0.2914  0.2593  0.1316
25060SOL    HW181016   5.376   2.606   6.958 -0.0460 -0.3740  0.5160
25060SOL    HW281017   5.423   2.735   7.022 -0.4124  0.5950 -1.1207
25061SOL     OW81018   7.618   5.218   0.262 -0.0399  0.1081  0.3332
25061SOL    HW181019   7.553   5.162   0.218  0.1194 -0.5885  0.9682
25061SOL    HW281020   7.695   5.212   0.206 -0.3799  0.6114 -0.2061
25062SOL     OW81021   9.215   4.420   2.750 -0.1348  0.3964 -0.0039
25062SOL    HW181022   9.250   4.349   2.696  1.1016  0.9219  0.0784
25062SOL    HW281023   9.265   4.416   2.831 -0.2387  1.1922  0.1064
25063SOL     OW81024   1.563   7.791   3.159  0.0734 -0.2422  0.0229
25063SOL    HW181025   1.517   7.825   3.082  0.8572 -1.1015 -0.8460
25063SOL    HW281026   1.654   7.784   3.130 -0.2470 -4.8390 -0.5488
25064SOL     OW81027   6.633   5.428   9.353 -0.0266 -0.2762 -0.7907
25064SOL    HW181028   6.667   5.348   9.392 -1.0908 -0.5171 -0.3184
25064SOL    HW281029   6.583   5.399   9.277  0.9448  0.0853 -1.5812
25065SOL     OW81030   3.192  10.280   7.452 -0.2882 -0.2339 -0.8610
25065SOL    HW181031   3.193  10.217   7.380  0.3154 -0.3809 -0.7309
25065SOL    HW281032   3.099  10.288   7.475 -0.5270  0.1194 -1.9124
25066SOL     OW81033   7.756   3.043   7.610  0.0167  0.0535 -0.3827
25066SOL    HW181034   7.835   3.006   7.648 -1.6349 -3.6106 -0.0634
25066SOL    HW281035   7.697   3.056   7.684 -0.2369  1.2789 -0.7784
25067SOL     OW81036   0.962   4.961   7.741 -0.5035 -0.5677 -0.4008
25067SOL    HW181037   1.002   4.883   7.780  0.8396  0.3536  0.1259
25067SOL    HW281038   0.984   4.955   7.648  3.2671  1.1780  0.1920
25068SOL     OW81039   5.678   6.266   5.515 -0.1465 -0.1514 -0.0303
25068SOL    HW181040   5.746   6.331   5.532  1.1732 -1.4153 -0.1699
25068SOL    HW281041   5.708   6.220   5.437 -1.7739 -0.0151 -0.7700
25069SOL     OW81042   3.496   9.464   8.432 -0.3849 -0.0257  0.5329
25069SOL    HW181043   3.410   9.454   8.473 -0.5759 -0.6855 -0.0195
25069SOL    HW281044   3.476   9.491   8.343  0.0286  1.2384  0.8025
25070SOL     OW81045   2.700   9.230   2.626  0.0787 -0.7052 -0.1030
25070SOL    HW181046   2.674   9.299   2.688  0.9168  0.0014 -0.5185
25070SOL    HW281047   2.625   9.170   2.625 -0.1691 -0.4570  1.1901
25071SOL     OW81048   1.514   3.868   9.389 -0.1005  0.2324  0.0436
25071SOL    HW181049   1.431   3.885   9.344  0.4063 -2.6211 -2.2403
25071SOL    HW281050   1.550   3.956   9.406 -2.6822  1.5131 -0.5631
25072SOL     OW81051   6.742   4.273   7.630 -0.1585 -0.4480 -0.0473
25072SOL    HW181052   6.794   4.352   7.646 -1.3828  0.4201 -0.1935
25072SOL    HW281053   6.719   4.277   7.538  2.0603 -2.4576 -0.7870
25073SOL     OW81054   4.335   4.445   5.451 -0.0608 -0.2500 -0.3129
25073SOL    HW181055   4.402   4.492   5.500  0.0504 -0.1766 -0.5304
25073SOL    HW281056   4.382   4.410   5.375 -0.1430 -0.7139 -0.1494
25074SOL     OW81057   7.164   0.215   3.433 -0.2361 -0.4810 -0.6351
25074SOL    HW181058   7.137   0.256   3.515 -0.3855 -2.5691  0.4416
25074SOL    HW281059   7.259   0.204   3.442 -0.4090 -1.8532 -0.1132
25075SOL     OW81060   2.581   2.087   4.867 -0.4306 -0.2961 -0.4206
25075SOL    HW181061   2.653   2.101   4.928 -1.7443  0.6732  0.9852
25075SOL    HW281062   2.585   2.162   4.808  0.7082 -1.1226 -1.4432
25076SOL     OW81063   4.577   6.059   6.958 -0.7854  0.1084 -0.3276
25076SOL    HW181064   4.517   6.129   6.932 -1.6009 -0.9117 -1.2911
25076SOL    HW281065   4.663   6.101   6.961 -1.4077  1.4209  0.3248
25077SOL     OW81066   0.979   6.096   9.298 -0.1130 -0.1249  0.2409
25077SOL    HW181067   0.905   6.146   9.262 -1.3615 -2.3711 -0.4872
25077SOL    HW281068   1.048   6.105   9.232  0.1013  1.4605  0.6272
25078SOL     OW81069   5.312   7.019   4.086  0.0356  0.0717  0.0740
25078SOL    HW181070   5.259   6.940   4.094  0.8255 -0.3529  1.6764
25078SOL    HW281071   5.387   6.993   4.033  0.5999 -0.4576  1.1010
25079SOL     OW81072   9.040   4.673   3.671 -0.6267  1.1650  0.7046
25079SOL    HW181073   9.091   4.623   3.735  0.6802  1.3917 -0.1210
25079SOL    HW281074   9.030   4.613   3.597 -2.2942  0.8362  1.1683
25080SOL     OW81075   7.970   3.927   6.830  0.1391  0.1961 -0.1496
25080SOL    HW181076   7.876   3.909   6.825 -0.2374  1.9037  0.1907
25080SOL    HW281077   7.992   3.910   6.922 -0.1053  0.9417  0.0527
25081SOL     OW81078   7.545   7.155   9.779  0.3589 -0.0576  0.0414
25081SOL    HW181079   7.547   7.159   9.683 -0.3707 -1.2238 -0.0362
25081SOL    HW281080   7.516   7.242   9.806  1.8292  0.6964 -0.7345
25082SOL     OW81081   6.758   8.954   5.120  0.4200 -0.1702 -0.4158
25082SOL    HW181082   6.692   8.885   5.115 -0.0527  0.0222  2.0739
25082SOL    HW281083   6.841   8.909   5.105  0.0336 -1.0830  0.1050
25083SOL     OW81084   7.542   5.289   9.955  0.3491  0.2737 -1.0064
25083SOL    HW181085   7.455   5.310   9.923  0.9605 -0.3681 -3.3251
25083SOL    HW281086   7.545   5.193   9.954  1.4591  0.2865 -2.2555
25084SOL     OW81087   0.569   7.394   1.813  0.0933  0.6992  0.1234
25084SOL    HW181088   0.484   7.351   1.825  0.5377  0.2058  1.8648
25084SOL    HW281089   0.630   7.322   1.799  0.4433  0.9352  0.4143
25085SOL     OW81090  10.919   4.291   7.991 -0.2281 -0.1540 -0.4018
25085SOL    HW181091  10.938   4.382   7.970 -0.8685  0.4422  1.4249
25085SOL    HW281092  10.958   4.241   7.919  1.1861  1.4776 -0.8291
25086SOL     OW81093   7.891   1.000   6.779  0.1189 -0.3177 -0.2739
25086SOL    HW181094   7.911   0.911   6.810 -1.8210 -0.6637  0.1440
25086SOL    HW281095   7.889   1.053   6.858 -1.3191 -0.4832 -0.1569
25087SOL     OW81096   0.215   4.803   2.358  0.2470 -0.3998 -0.5597
25087SOL    HW181097   0.282   4.860   2.396 -1.2530  0.8973  0.3293
25087SOL    HW281098   0.178   4.855   2.287 -1.4538  0.0022  0.5534
25088SOL     OW81099   7.165  10.082   3.268 -0.1638 -0.5608 -0.0799
25088SOL    HW181100   7.203  10.119   3.188 -0.4242 -0.5033 -0.1778
25088SOL    HW281101   7.072  10.076   3.250 -0.3648  0.3426  0.5631
25089SOL     OW81102   4.019   0.363   4.966  0.1512 -0.5858 -0.4441
25089SOL    HW181103   4.109   0.391   4.946  0.1359  0.4643  0.7889
25089SOL    HW281104   4.017   0.270   4.946  1.8413 -0.8650  0.5219
25090SOL     OW81105   7.643   3.622   3.020 -0.0406  0.0940 -0.6501
25090SOL    HW181106   7.672   3.644   3.108 -1.0221 -2.3323  0.3586
25090SOL    HW281107   7.602   3.703   2.987  1.4122  1.3979  0.5835
25091SOL     OW81108   3.126   6.070   4.729 -0.0652 -0.3006  0.2179
25091SOL    HW181109   3.032   6.051   4.724 -0.0773  0.1133 -1.4068
25091SOL    HW281110   3.134   6.130   4.804 -1.5012  1.7966 -1.1930
25092SOL     OW81111   0.788  10.869   6.295  0.3799 -0.4446  0.6297
25092SOL    HW181112   0.812  10.777   6.290  2.2525  0.0409 -0.5623
25092SOL    HW281113   0.707  10.871   6.346 -0.0201 -2.7834  0.1719
25093SOL     OW81114   8.176   0.282   3.818 -0.2445  0.0965  0.2049
25093SOL    HW181115   8.150   0.235   3.897 -0.9570  0.5466  0.2522
25093SOL    HW281116   8.271   0.276   3.816 -0.2517 -0.2845  0.8688
25094SOL     OW81117   0.124   9.030   2.410  0.5016  0.0786 -0.8938
25094SOL    HW181118   0.049   8.985   2.370  1.0136 -0.0230 -1.7505
25094SOL    HW281119   0.150   9.095   2.345 -0.5009  1.9687  0.4976
25095SOL     OW81120   7.653   4.161   9.591 -0.2412 -0.2344  0.3322
25095SOL    HW181121   7.646   4.176   9.496 -1.0297 -0.3344  0.3683
25095SOL    HW281122   7.625   4.071   9.603  1.3559 -0.7466  0.4977
25096SOL     OW81123   4.254   5.668   1.404 -0.1933  0.2391 -0.0618
25096SOL    HW181124   4.216   5.585   1.431 -1.5267  1.3840  1.7748
25096SOL    HW281125   4.332   5.678   1.459 -0.9003  0.9011  0.8390
25097SOL     OW81126   0.274   8.457   4.627  0.4585 -0.0125 -0.3565
25097SOL    HW181127   0.282   8.376   4.577  3.2017  0.3631 -0.6909
25097SOL    HW281128   0.310   8.436   4.713 -0.1273  0.5067  0.0266
25098SOL     OW81129   3.015   3.119   2.114 -0.1784  0.3317 -0.0126
25098SOL    HW181130   2.920   3.122   2.107 -0.2258  1.6961  0.7919
25098SOL    HW281131   3.033   3.065   2.190 -0.3221  0.2241 -0.0565
25099SOL     OW81132   1.199   6.321   5.620  0.0384  0.1640 -0.4526
25099SOL    HW181133   1.282   6.317   5.666  1.7266  0.6075 -3.2436
25099SOL    HW281134   1.170   6.412   5.630  0.8623  0.4971 -0.9983
25100SOL     OW81135   8.602   2.842   5.926  0.4733 -0.0020 -0.1602
25100SOL    HW181136   8.642   2.755   5.924 -1.4139 -0.9077 -0.5932
25100SOL    HW281137   8.609   2.870   6.017  0.2716 -1.0260  0.1832
25101SOL     OW81138   3.162  10.241   1.101  0.2732 -0.0143 -0.3348
25101SOL    HW181139   3.124  10.169   1.051 -1.1207  0.2425  0.3076
25101SOL    HW281140   3.185  10.202   1.186  0.7816 -0.0083 -0.4694
25102SOL     OW81141   3.676   1.803   7.585  0.5267  0.6135  0.0985
25102SOL    HW181142   3.683   1.888   7.542  0.7390  0.7552  0.4084
25102SOL    HW281143   3.599   1.762   7.546  0.7838  0.6919 -0.4943
25103SOL     OW81144   2.685   2.371   6.044 -0.0061  0.2402 -0.2119
25103SOL    HW181145   2.770   2.331   6.064 -0.5500  0.0117  1.8687
25103SOL    HW281146   2.688   2.388   5.950  1.2579 -2.3362 -0.7308
25104SOL     OW81147  10.454   4.373   2.887  0.1653  0.9210 -0.4049
25104SOL    HW181148  10.383   4.436   2.876 -0.7816  0.4379  2.1922
25104SOL    HW281149  10.520   4.420   2.937 -0.5583 -0.0796  1.5671
25105SOL     OW81150   4.219   4.384   1.815  0.0968 -0.0544  0.4553
25105SOL    HW181151   4.217   4.352   1.905 -0.2072  1.7171  1.1212
25105SOL    HW281152   4.186   4.474   1.821 -2.0430 -0.6135 -1.7635
25106SOL     OW81153   7.097   2.838   4.456 -0.0873 -0.0858  0.0551
25106SOL    HW181154   7.058   2.819   4.370  2.0717  0.1153 -1.0390
25106SOL    HW281155   7.191   2.830   4.441  0.4411  1.8995  1.9559
25107SOL     OW81156   3.605  10.507   4.526  0.8889 -0.1233  0.0524
25107SOL    HW181157   3.540  10.451   4.568  1.6256 -1.5968 -0.6913
25107SOL    HW281158   3.684  10.494   4.578  1.0970  0.1358 -0.1999
25108SOL     OW81159   2.214   8.244   1.620 -0.0029  0.1774 -0.4118
25108SOL    HW181160   2.156   8.263   1.694 -0.5698  2.4759 -1.3841
25108SOL    HW281161   2.299   8.224   1.661 -0.3582  1.1781  0.8867
25109SOL     OW81162   3.133  10.575   3.318 -0.0840  0.1399 -0.1943
25109SOL    HW181163   3.102  10.638   3.252 -1.0285 -1.6938 -1.5837
25109SOL    HW281164   3.202  10.622   3.365 -0.8154  2.2386 -1.0927
25110SOL     OW81165   1.335   3.367   3.373  0.3969  0.0251  0.5340
25110SOL    HW181166   1.345   3.271   3.376 -1.2226 -0.1564  0.7669
25110SOL    HW281167   1.389   3.399   3.446  0.4586 -0.7560  0.8421
25111SOL     OW81168   3.892   0.332   8.062  0.0346  0.4548  0.4394
25111SOL    HW181169   3.922   0.260   8.118 -0.5847  0.9352  1.4061
25111SOL    HW281170   3.946   0.407   8.087 -0.5764  0.7966  0.7439
25112SOL     OW81171   3.646   5.507   0.488  0.7161 -0.2942 -0.3007
25112SOL    HW181172   3.569   5.502   0.544 -0.1355  0.7175 -1.3573
25112SOL    HW281173   3.662   5.416   0.461 -0.1497 -0.4965 -0.1420
25113SOL     OW81174   0.421   1.127   4.026 -0.0007  0.2240  0.0072
25113SOL    HW181175   0.431   1.057   3.962  1.6679  0.5562 -0.1269
25113SOL    HW281176   0.348   1.180   3.992 -1.0793 -1.2247 -0.0435
25114SOL     OW81177   9.480   5.234  10.431  0.0332  0.4961 -0.0893
25114SOL    HW181178   9.456   5.327  10.433 -0.5003  0.4134 -1.5751
25114SOL    HW281179   9.557   5.228  10.488 -1.0385  1.4934  1.5370
25115SOL     OW81180  10.909   9.571   9.461 -0.3429  0.4259  0.3246
25115SOL    HW181181  10.898   9.602   9.371 -1.2321  1.0637  0.6302
25115SOL    HW281182  10.901   9.476   9.456  0.1593  0.4173 -0.3384
25116SOL     OW81183   4.888   4.572   1.633 -0.2683  0.1635  0.0257
25116SOL    HW181184   4.925   4.616   1.556 -1.2583 -0.7508 -1.0162
25116SOL    HW281185   4.893   4.479   1.611 -2.0920 -0.0383  0.3393
25117SOL     OW81186   2.355   7.068   8.958  0.1996  0.2251  0.0286
25117SOL    HW181187   2.427   7.104   9.009  1.0841 -1.8456  0.3578
25117SOL    HW281188   2.366   7.104   8.870  2.2957 -0.8204 -0.1916
25118SOL     OW81189   9.755   2.328   3.772  0.3334 -0.1704  0.8608
25118SOL    HW181190   9.786   2.243   3.802  1.5442 -1.1247 -2.5858
25118SOL    HW281191   9.826   2.389   3.792  2.5889 -1.3888 -2.4599
25119SOL     OW81192   7.011   8.116   3.869  0.2424  0.1802 -0.3635
25119SOL    HW181193   7.011   8.049   3.799  0.1001 -0.7780  0.5307
25119SOL    HW281194   7.067   8.186   3.835  0.2045 -0.2845 -1.4255
25120SOL     OW81195   4.884   8.119   0.266 -0.9594  0.0476 -0.2136
25120SOL    HW181196   4.792   8.097   0.283 -1.2202  1.7891  0.8721
25120SOL    HW281197   4.918   8.043   0.220 -3.2575 -0.1842 -1.7132
25121SOL     OW81198   3.056   0.831   2.509 -0.2264 -0.1769 -0.1933
25121SOL    HW181199   3.080   0.752   2.558 -1.8358 -1.0726 -0.7882
25121SOL    HW281200   3.121   0.837   2.439  1.3681  0.4361  1.2595
25122SOL     OW81201  10.904   7.101   2.881 -0.3768 -0.4874 -0.0720
25122SOL    HW181202  10.940   7.105   2.792 -1.1161 -0.4761 -0.3808
25122SOL    HW281203  10.809   7.098   2.868 -0.5111 -0.0511  0.7318
25123SOL     OW81204   8.292   5.735   9.107  0.0043 -0.4187 -0.0635
25123SOL    HW181205   8.280   5.686   9.026  0.1452 -0.0772 -0.2980
25123SOL    HW281206   8.262   5.824   9.086 -1.6687 -0.7399  0.7851
25124SOL     OW81207   0.051   9.378   3.589 -0.2703  0.5537  0.0942
25124SOL    HW181208   0.144   9.357   3.593  0.6600  3.9739 -0.2636
25124SOL    HW281209   0.010   9.300   3.552  2.2931 -1.3600  1.0358
25125SOL     OW81210   8.040  10.113   9.145 -0.3351  0.6775 -0.9610
25125SOL    HW181211   8.015  10.140   9.057 -2.8002 -0.3221 -0.6442
25125SOL    HW281212   7.973  10.050   9.171  1.4527 -0.5970  0.8748
25126SOL     OW81213   0.020   5.392   8.889  0.0897 -0.5412 -0.2536
25126SOL    HW181214   0.021   5.327   8.959  2.3945 -0.5179 -0.2060
25126SOL    HW281215  -0.031   5.350   8.819  2.4418 -2.9720 -0.6820
25127SOL     OW81216   7.556   5.099   1.455 -0.6109  0.3035 -0.3071
25127SOL    HW181217   7.652   5.089   1.458 -0.5716  0.7464  0.3294
25127SOL    HW281218   7.525   5.026   1.403 -0.0783 -1.0397  1.1866
25128SOL     OW81219   3.914   8.310   6.693  0.0913  0.0784 -0.4380
25128SOL    HW181220   3.927   8.366   6.617  0.3815  0.5896 -0.0173
25128SOL    HW281221   3.824   8.327   6.721  0.5522  1.2319  0.3965
25129SOL     OW81222   9.010   6.177  10.502 -0.2666  0.4618 -0.0316
25129SOL    HW181223   9.027   6.150  10.412 -1.3038 -2.6875  0.5851
25129SOL    HW281224   8.933   6.126  10.528 -0.0545  1.3264  2.6230
25130SOL     OW81225   9.485   2.128   4.213 -0.5532 -0.4619 -0.3501
25130SOL    HW181226   9.441   2.173   4.285 -0.4458 -0.8652 -0.0237
25130SOL    HW281227   9.568   2.175   4.203  0.2234 -1.4596  0.9781
25131SOL     OW81228  10.289   7.143   7.606  0.2353  0.5243  0.3111
25131SOL    HW181229  10.199   7.174   7.610 -0.3915 -1.2770  0.6590
25131SOL    HW281230  10.331   7.185   7.681 -0.8080 -0.0770  1.2622
25132SOL     OW81231   7.483   5.397   6.173  0.2905 -0.6298  0.4533
25132SOL    HW181232   7.507   5.489   6.177 -1.2452 -0.1056 -1.3600
25132SOL    HW281233   7.566   5.350   6.185  0.9330  0.9005  2.5887
25133SOL     OW81234   0.723  10.570   8.485  0.3856  0.0840 -0.1612
25133SOL    HW181235   0.740  10.646   8.540 -0.2440  1.2331 -1.4724
25133SOL    HW281236   0.792  10.508   8.507  0.1228  0.4555  1.9142
25134SOL     OW81237   9.849   8.052   5.057  0.4580  0.0400 -0.1566
25134SOL    HW181238   9.868   8.051   5.150  2.3953  1.1042 -0.4784
25134SOL    HW281239   9.926   8.011   5.016 -0.2925 -0.2944 -1.3062
25135SOL     OW81240   0.603   0.021   7.287 -0.2420  0.0367  0.1229
25135SOL    HW181241   0.553   0.043   7.209  0.2431 -0.2764 -0.2783
25135SOL    HW281242   0.636  -0.067   7.271  0.1230  0.0920  0.5427
25136SOL     OW81243   4.800   1.959   1.171  0.1855  0.7525 -0.0119
25136SOL    HW181244   4.742   1.932   1.242  0.3875  1.3436  0.3790
25136SOL    HW281245   4.754   1.931   1.091  0.1381 -0.2560  0.3542
25137SOL     OW81246   2.827  10.480  10.607  0.2536 -0.3373 -0.3840
25137SOL    HW181247   2.765  10.421  10.565 -1.6306  0.6917  0.8248
25137SOL    HW281248   2.843  10.441  10.693 -0.6522  0.6139  0.2483
25138SOL     OW81249   5.428   3.030   9.969  0.0443  0.3197  0.1044
25138SOL    HW181250   5.352   3.067   9.924 -0.7086 -2.4393 -1.0666
25138SOL    HW281251   5.405   2.939   9.985  3.4507 -0.9643 -1.2357
25139SOL     OW81252   4.848   5.263   9.301 -0.0073  0.0431 -0.2596
25139SOL    HW181253   4.881   5.321   9.232 -1.6849  1.0305 -0.2896
25139SOL    HW281254   4.759   5.295   9.318 -0.4875 -1.6930  0.6848
25140SOL     OW81255   9.789   1.611   4.835 -0.0810 -0.2914 -0.2064
25140SOL    HW181256   9.707   1.651   4.862  0.5845  1.0504 -0.1152
25140SOL    HW281257   9.783   1.605   4.740 -0.0746  0.3149 -0.2499
25141SOL     OW81258   2.423  10.340  10.033 -0.4516 -0.2952 -0.2927
25141SOL    HW181259   2.389  10.344   9.944 -1.0406  0.6194 -0.0350
25141SOL    HW281260   2.518  10.337  10.022 -0.5276 -0.4320 -0.9517
25142SOL     OW81261   0.250   0.982  10.263  0.3027 -0.1408 -0.5848
25142SOL    HW181262   0.194   0.908  10.238  1.7672 -1.1552 -0.9688
25142SOL    HW281263   0.325   0.977  10.204  2.1075 -0.4163  1.6091
25143SOL     OW81264   4.341   6.030   1.548 -0.2336 -0.4408  0.4698
25143SOL    HW181265   4.335   6.018   1.453 -1.3102  0.9536  0.3308
25143SOL    HW281266   4.426   6.071   1.562 -0.1317 -0.5230  0.1064
25144SOL     OW81267   6.888   9.899   2.846 -0.3124  0.2346 -0.3000
25144SOL    HW181268   6.857   9.985   2.873 -0.6412  0.1937 -0.5350
25144SOL    HW281269   6.821   9.838   2.877  0.6931 -0.1291  1.2885
25145SOL     OW81270   1.670   6.292   0.902 -0.4321 -0.1996  0.0969
25145SOL    HW181271   1.633   6.329   0.982 -1.0644  1.4341 -0.8895
25145SOL    HW281272   1.594   6.277   0.846  0.1002 -0.0649 -0.6778
25146SOL     OW81273   3.981   4.982   5.779 -0.2263 -0.4321 -0.3444
25146SOL    HW181274   4.031   4.924   5.720  1.6754  0.1310  0.6354
25146SOL    HW281275   3.915   4.925   5.818  0.1240 -1.4061 -1.1315
25147SOL     OW81276  10.163   7.215   8.380  0.1692 -0.2349 -0.0224
25147SOL    HW181277  10.076   7.234   8.347  0.6366  1.4946 -0.3763
25147SOL    HW281278  10.190   7.136   8.333 -1.6596 -1.5439  1.0304
25148SOL     OW81279   6.088   7.918   5.148  0.0591 -0.2265  0.0977
25148SOL    HW181280   6.182   7.924   5.166  0.0199 -0.5376  0.4277
25148SOL    HW281281   6.055   8.005   5.169  0.4400  0.2152 -1.0835
25149SOL     OW81282   6.127   3.273  10.695  0.1075 -0.2974  0.2992
25149SOL    HW181283   6.184   3.327  10.749  0.6254 -1.3422  0.8250
25149SOL    HW281284   6.053   3.330  10.674  0.2001  0.3279  1.5943
25150SOL     OW81285   9.081  10.519  10.021 -0.1149  0.3148  0.0021
25150SOL    HW181286   9.021  10.515  10.095 -0.5635  0.3574 -0.3561
25150SOL    HW281287   9.142  10.589  10.043 -0.1574  0.2301  0.3953
25151SOL     OW81288   2.294   3.072   0.283  0.5447  0.0497  0.2517
25151SOL    HW181289   2.204   3.042   0.268  0.5054 -0.1446  0.8721
25151SOL    HW281290   2.337   3.058   0.198 -0.2881  1.1997 -0.3941
25152SOL     OW81291   7.668   3.515   1.221 -0.1122  0.1283 -0.6714
25152SOL    HW181292   7.720   3.564   1.157  0.2518  1.1635  0.3811
25152SOL    HW281293   7.583   3.559   1.221 -0.3557 -0.3312 -0.9573
25153SOL     OW81294   2.108   9.045   4.977 -0.0666 -0.4683 -0.0069
25153SOL    HW181295   2.144   9.133   4.990 -1.0776 -0.3070  2.4498
25153SOL    HW281296   2.157   8.990   5.037 -0.6288 -1.2131 -0.2171
25154SOL     OW81297   7.543   4.841   8.431 -0.2826 -0.1805  0.2559
25154SOL    HW181298   7.563   4.917   8.376  0.5994  0.3536  1.2860
25154SOL    HW281299   7.627   4.817   8.469 -0.9034 -0.4501  1.4855
25155SOL     OW81300   2.443  10.168   4.260  0.2706 -0.0990 -0.4780
25155SOL    HW181301   2.409  10.088   4.299  0.6043  0.8949  2.0215
25155SOL    HW281302   2.391  10.181   4.181  0.0365 -2.6027 -0.8023
25156SOL     OW81303   0.176   6.774   3.424 -0.4777  0.1866  0.4351
25156SOL    HW181304   0.126   6.751   3.346  0.3074 -1.2674  0.3386
25156SOL    HW281305   0.143   6.861   3.449 -0.6400  0.7496 -1.5844
25157SOL     OW81306   8.588   9.033   9.690 -0.0054  0.4486 -0.3923
25157SOL    HW181307   8.506   9.055   9.647  0.1218 -0.3641 -1.0835
25157SOL    HW281308   8.653   9.089   9.647 -0.0316  0.3152 -0.6102
25158SOL     OW81309  10.317   0.735   5.072 -0.0645  0.0300 -0.4542
25158SOL    HW181310  10.303   0.787   5.151 -1.1604  0.5617 -0.9705
25158SOL    HW281311  10.409   0.710   5.075  0.0689  0.6007  0.6485
25159SOL     OW81312   8.591   6.015   8.312 -0.0427 -0.1764  0.1170
25159SOL    HW181313   8.672   6.042   8.354  1.0358 -0.3073 -1.7709
25159SOL    HW281314   8.598   6.048   8.223 -0.4796 -3.0824 -1.1146
25160SOL     OW81315   5.168   7.120  10.280  0.1007  0.0686 -0.1490
25160SOL    HW181316   5.145   7.080  10.364 -0.3214  0.1924 -0.1989
25160SOL    HW281317   5.217   7.199  10.304  2.6899 -1.4531 -0.0817
25161SOL     OW81318  10.840   2.167   2.254 -0.3477 -0.1493  0.7595
25161SOL    HW181319  10.893   2.243   2.278  0.0645  0.1716 -1.0882
25161SOL    HW281320  10.858   2.152   2.161 -1.2446 -1.8541  0.8082
25162SOL     OW81321   7.983   7.984   0.199 -0.4065  0.2454 -0.7566
25162SOL    HW181322   8.072   8.017   0.205  0.2315 -1.4911  0.1860
25162SOL    HW281323   7.951   8.015   0.115  1.6372 -0.3831 -1.8208
25163SOL     OW81324   0.573   1.754   9.779  0.0398  0.2546  0.7518
25163SOL    HW181325   0.646   1.722   9.832 -1.3344 -0.1815  2.4814
25163SOL    HW281326   0.575   1.849   9.791  0.4009  0.2546  0.6885
25164SOL     OW81327   7.973   7.056   8.327 -0.0650  0.0444 -0.1546
25164SOL    HW181328   7.953   7.018   8.412 -2.0674 -2.1388 -1.4796
25164SOL    HW281329   8.000   6.982   8.273  3.1838  1.6556 -0.9746
25165SOL     OW81330   0.734   2.926   0.215 -0.1113 -0.1134 -0.4232
25165SOL    HW181331   0.655   2.939   0.268  1.1901  2.2571  1.1009
25165SOL    HW281332   0.720   2.980   0.137 -0.1353  0.0041 -0.3375
25166SOL     OW81333   0.493   1.978   0.538  0.1212  0.4804 -0.0494
25166SOL    HW181334   0.578   2.017   0.515 -0.2690  0.4749 -1.6218
25166SOL    HW281335   0.506   1.944   0.626  1.1674  2.1786  0.5129
25167SOL     OW81336   0.856   1.269   7.815 -0.4565  0.1534 -0.0573
25167SOL    HW181337   0.907   1.263   7.735 -0.8822  2.4707 -0.5820
25167SOL    HW281338   0.918   1.247   7.885  1.0101  1.8714 -0.7477
25168SOL     OW81339   8.202   5.345   5.531  0.1722  0.6567 -0.0461
25168SOL    HW181340   8.244   5.423   5.566  1.7151  0.2454 -0.8829
25168SOL    HW281341   8.154   5.375   5.454 -0.0618  0.9268  0.2037
25169SOL     OW81342   3.269   0.205   8.519  0.5762 -0.7775 -0.3911
25169SOL    HW181343   3.296   0.186   8.429 -1.0662 -1.0258 -0.8717
25169SOL    HW281344   3.186   0.251   8.509  0.8451  0.0545  0.9909
25170SOL     OW81345   2.357   0.222   0.730  0.2368 -0.4244  0.2888
25170SOL    HW181346   2.394   0.140   0.763  0.8713 -0.8442 -1.3787
25170SOL    HW281347   2.386   0.227   0.639 -0.2810  1.3738  0.1830
25171SOL     OW81348   5.668   7.018   1.143 -0.4079  0.3961  0.1322
25171SOL    HW181349   5.646   7.083   1.076 -2.6903  0.5392  0.9418
25171SOL    HW281350   5.598   6.953   1.138  1.3798 -1.5940 -0.0725
25172SOL     OW81351   0.203   1.404   4.747 -0.0963 -0.0928  0.7129
25172SOL    HW181352   0.297   1.388   4.748  0.2196  1.6327  1.9538
25172SOL    HW281353   0.172   1.378   4.833 -0.9179 -1.3606  0.0658
25173SOL     OW81354   5.205   1.281   7.720 -0.5453  0.3716 -0.1505
25173SOL    HW181355   5.161   1.360   7.753  0.4034  0.4664  0.9793
25173SOL    HW281356   5.172   1.270   7.632 -1.6405  1.3307  0.1150
25174SOL     OW81357   5.990   6.289   8.406  0.8289  0.0626  0.9488
25174SOL    HW181358   5.969   6.240   8.486 -0.4686 -2.1281 -0.6215
25174SOL    HW281359   5.918   6.269   8.347  1.7070  1.7062 -0.7577
25175SOL     OW81360   3.850   4.885   4.328 -0.3493 -0.0642 -0.2700
25175SOL    HW181361   3.811   4.970   4.305 -0.9182 -0.5178 -1.0608
25175SOL    HW281362   3.937   4.887   4.288  0.1264  0.6129  0.7569
25176SOL     OW81363   2.882   2.343   9.539 -0.1409  0.2211  0.4107
25176SOL    HW181364   2.933   2.414   9.577 -0.8964  0.9955  0.0006
25176SOL    HW281365   2.903   2.267   9.593  1.4748  0.5019  0.2347
25177SOL     OW81366   2.886   3.452   7.067  0.4813 -0.1467  0.1019
25177SOL    HW181367   2.894   3.534   7.017  0.4729 -0.4116 -0.3368
25177SOL    HW281368   2.807   3.411   7.033  0.9314 -0.7271 -0.2502
25178SOL     OW81369   2.549   6.332   0.948 -0.2534 -0.2631  0.1327
25178SOL    HW181370   2.616   6.393   0.916  0.6636 -1.0514  0.5060
25178SOL    HW281371   2.479   6.338   0.883 -0.6914  1.9872  0.7066
25179SOL     OW81372   4.447   5.504   5.816 -0.1608  0.0188  0.6021
25179SOL    HW181373   4.481   5.522   5.728  0.2685  0.7214  0.9058
25179SOL    HW281374   4.449   5.409   5.823 -0.4512 -0.0599 -0.2482
25180SOL     OW81375   9.385  10.000   4.442  0.4120 -0.2504 -0.1334
25180SOL    HW181376   9.391  10.068   4.509  1.0018 -0.6874  0.2619
25180SOL    HW281377   9.476   9.977   4.423  0.3134  0.5634 -1.8134
25181SOL     OW81378   0.699   7.595   9.255  0.6261  0.6918  0.0044
25181SOL    HW181379   0.719   7.522   9.315  2.7548  0.4044 -0.9780
25181SOL    HW281380   0.708   7.557   9.168 -0.0854  1.7077 -0.5266
25182SOL     OW81381   6.312   4.164   4.433 -0.1360  0.0963  0.1444
25182SOL    HW181382   6.372   4.090   4.442 -0.0005  0.2696  0.7484
25182SOL    HW281383   6.368   4.237   4.406  0.4128  0.8698  3.0166
25183SOL     OW81384   4.479   8.684   6.248 -0.3674 -0.4036  0.3533
25183SOL    HW181385   4.463   8.746   6.319 -1.4825 -0.2986  0.0285
25183SOL    HW281386   4.501   8.602   6.292 -0.4875 -0.1966  0.8035
25184SOL     OW81387  10.817   7.100   2.278  0.4654 -0.1724  0.2310
25184SOL    HW181388  10.869   7.096   2.198 -0.8956 -0.4985 -0.6689
25184SOL    HW281389  10.848   7.026   2.331 -0.7618 -1.9558 -1.3879
25185SOL     OW81390  10.001   3.028   2.867  0.3576 -0.3527 -0.2163
25185SOL    HW181391   9.956   3.023   2.951 -0.6270  0.6553 -0.6479
25185SOL    HW281392   9.933   3.008   2.802  0.9887 -0.6599 -0.7948
25186SOL     OW81393   5.672   4.544   6.539 -0.4432 -0.3990 -0.7500
25186SOL    HW181394   5.730   4.544   6.616 -0.2050 -1.1653 -0.9245
25186SOL    HW281395   5.610   4.615   6.557 -0.1442 -0.3010 -0.0367
25187SOL     OW81396   3.166  10.669   1.915  0.3454 -0.2782  0.1858
25187SOL    HW181397   3.191  10.715   1.995  1.6958  0.6695 -0.7263
25187SOL    HW281398   3.249  10.650   1.871 -0.3560 -0.5822 -1.0794
25188SOL     OW81399   7.681   0.481   7.917 -0.2693 -0.0225 -0.2673
25188SOL    HW181400   7.620   0.471   7.990 -0.2948 -0.1729 -0.3095
25188SOL    HW281401   7.626   0.476   7.839  0.1294 -3.7401 -0.5129
25189SOL     OW81402   2.303   6.831   3.680 -0.5088  0.6366  0.3456
25189SOL    HW181403   2.276   6.886   3.753  1.0080  0.5789  0.9773
25189SOL    HW281404   2.341   6.753   3.721 -0.5865  0.1266 -0.5190
25190SOL     OW81405   5.206   5.129   2.680 -0.1800  0.0809  0.1100
25190SOL    HW181406   5.184   5.144   2.588  0.8633  0.8711 -0.0362
25190SOL    HW281407   5.269   5.199   2.700 -1.0058  0.4129  1.6491
25191SOL     OW81408   0.294   4.826   7.976  0.4115 -0.0286  0.5045
25191SOL    HW181409   0.363   4.769   8.012  0.3448  1.6802  3.7386
25191SOL    HW281410   0.213   4.787   8.008  0.1776  0.3630  0.3945
25192SOL     OW81411   1.588   1.027   0.796 -0.3336  0.1898 -0.5541
25192SOL    HW181412   1.543   0.949   0.765 -2.2925  0.2972  1.7316
25192SOL    HW281413   1.528   1.099   0.776 -0.1550  0.6410  0.4911
25193SOL     OW81414  10.779   1.776   1.237 -0.0201  0.1625 -0.1644
25193SOL    HW181415  10.758   1.783   1.144  1.2981  3.0417 -0.3487
25193SOL    HW281416  10.866   1.814   1.245 -0.1532  0.1135  2.2703
25194SOL     OW81417   3.375   7.747   5.921 -0.0444  0.2375 -0.1580
25194SOL    HW181418   3.344   7.793   5.843  1.1169 -0.5507 -1.1084
25194SOL    HW281419   3.327   7.664   5.921 -1.6201  1.0950  1.1734
25195SOL     OW81420  10.348   5.672   7.602  0.8629 -0.3885 -0.0671
25195SOL    HW181421  10.357   5.754   7.554  0.3879  0.4562  1.2166
25195SOL    HW281422  10.267   5.634   7.571  0.1110  0.5783  0.6375
25196SOL     OW81423   6.889   6.390   2.373 -0.0061  0.0067  0.0917
25196SOL    HW181424   6.951   6.341   2.318 -0.6631 -0.5891 -0.1212
25196SOL    HW281425   6.827   6.325   2.404 -0.6072  0.6211  0.2039
25197SOL     OW81426   4.919   7.054   4.402  0.0823 -0.1655 -0.0028
25197SOL    HW181427   4.855   7.004   4.353 -0.3801  0.8130 -0.4253
25197SOL    HW281428   4.931   7.134   4.351 -1.1664  1.3560  1.9636
25198SOL     OW81429   7.903   7.285   0.772  0.0106  0.1863  0.0736
25198SOL    HW181430   7.984   7.251   0.736  1.1655  1.3141  1.4998
25198SOL    HW281431   7.920   7.292   0.866 -1.1237  2.0961  0.1720
25199SOL     OW81432   0.903   1.716   1.719  0.2585  0.2564  0.0435
25199SOL    HW181433   0.991   1.713   1.755 -0.1289 -1.6139  0.9350
25199SOL    HW281434   0.867   1.628   1.733 -0.7711  0.0966 -2.8281
25200SOL     OW81435   5.371   8.891   4.573  0.5939  0.1116 -0.0056
25200SOL    HW181436   5.407   8.955   4.512  0.9234  0.2188  0.3019
25200SOL    HW281437   5.299   8.937   4.617  2.1241  0.9848  1.7143
25201SOL     OW81438   0.538  10.630   5.237  0.3275  0.3446  0.4268
25201SOL    HW181439   0.522  10.651   5.145 -0.0473  1.2445  0.6789
25201SOL    HW281440   0.495  10.702   5.285 -0.0692 -0.4692  1.3228
25202SOL     OW81441   3.990   3.785   5.467  0.3417  0.0022  0.0352
25202SOL    HW181442   4.040   3.803   5.388  0.2327 -0.0420 -0.0449
25202SOL    HW281443   4.053   3.748   5.528  0.6798  1.1107  0.3772
25203SOL     OW81444   7.753   8.462   5.161 -0.1659  0.7903  0.5737
25203SOL    HW181445   7.735   8.370   5.181  2.2167 -0.6578 -2.9869
25203SOL    HW281446   7.677   8.491   5.111  0.3361 -0.2635 -0.8651
25204SOL     OW81447   7.473   0.728   7.524 -0.0188 -0.9879  0.3922
25204SOL    HW181448   7.430   0.700   7.605 -1.5822 -2.0022 -0.7237
25204SOL    HW281449   7.448   0.820   7.514 -0.8441 -1.2022  0.4424
25205SOL     OW81450   7.113   1.428   7.084 -0.3228 -0.0177  0.1360
25205SOL    HW181451   7.156   1.353   7.042  1.9433  1.2768 -0.0206
25205SOL    HW281452   7.185   1.481   7.117 -1.9437  0.9496  2.3185
25206SOL     OW81453  10.058   8.377   5.492  0.2334 -0.0108  0.1507
25206SOL    HW181454  10.069   8.308   5.427 -1.2114 -0.4030  0.2969
25206SOL    HW281455  10.058   8.331   5.576  3.3740  0.6129  0.6143
25207SOL     OW81456   6.670   2.702  10.669  0.3701  0.1710 -0.5547
25207SOL    HW181457   6.632   2.790  10.665  1.1940  0.6082  0.6623
25207SOL    HW281458   6.691   2.689  10.762  2.7002 -0.2437 -1.0987
25208SOL     OW81459   3.927   1.133   1.453 -0.2763  0.4325 -0.3206
25208SOL    HW181460   3.921   1.152   1.359 -0.4206 -1.8626 -0.8364
25208SOL    HW281461   3.926   1.219   1.495 -3.1200  1.4994 -2.2285
25209SOL     OW81462   1.967   1.064   9.085 -0.0138  0.3608 -0.3960
25209SOL    HW181463   1.923   1.147   9.069  0.5587  0.4661 -1.4770
25209SOL    HW281464   1.976   1.024   8.999  0.2796 -0.5404  0.0411
25210SOL     OW81465   2.349   9.714   2.223  0.7621 -0.1975 -0.0282
25210SOL    HW181466   2.301   9.658   2.162 -0.4700 -0.5233  1.2066
25210SOL    HW281467   2.309   9.800   2.213  0.3795 -0.3102  0.4918
25211SOL     OW81468   6.713   3.647   2.530 -0.1953 -0.3383 -0.3282
25211SOL    HW181469   6.686   3.681   2.445  0.2569  0.7605 -0.0645
25211SOL    HW281470   6.809   3.641   2.524 -0.1333 -0.0022  0.1691
25212SOL     OW81471   1.090   5.558  10.920  0.3058 -0.1124 -0.2355
25212SOL    HW181472   1.028   5.576  10.991 -0.2844 -0.4447 -0.6692
25212SOL    HW281473   1.111   5.465  10.929 -0.3927 -0.3506 -0.9855
25213SOL     OW81474   7.623   7.255   0.974  0.0792 -0.1383  0.1554
25213SOL    HW181475   7.663   7.177   0.934 -0.6326 -0.4572  0.0385
25213SOL    HW281476   7.613   7.317   0.901 -1.0663 -0.6571 -0.1563
25214SOL     OW81477   9.323  10.546   7.018  0.0277  0.1259 -0.5253
25214SOL    HW181478   9.241  10.511   6.982  0.2703  0.5443 -1.5448
25214SOL    HW281479   9.388  10.525   6.951  0.2146  2.3305 -1.1191
25215SOL     OW81480   7.910   5.459   2.486  0.8077 -0.0882 -0.4067
25215SOL    HW181481   7.891   5.552   2.496 -0.2913 -0.3128 -0.3352
25215SOL    HW281482   8.001   5.450   2.513  0.9714  0.9932 -0.5749
25216SOL     OW81483   3.278   1.728   4.913  0.0503  0.4105  0.0382
25216SOL    HW181484   3.287   1.749   5.006  0.7624 -0.6691  0.2375
25216SOL    HW281485   3.364   1.694   4.888 -0.1786  0.5608 -0.9816
25217SOL     OW81486   0.975  10.103   4.401  0.3248 -0.1415  0.1231
25217SOL    HW181487   0.933  10.131   4.483 -3.7370 -0.8294 -1.4597
25217SOL    HW281488   1.014  10.018   4.422  0.5342  0.2944  1.6235
25218SOL     OW81489   3.218   7.712   1.722 -0.6362  0.3927  0.1086
25218SOL    HW181490   3.144   7.715   1.782 -0.6901 -1.4728  0.1788
25218SOL    HW281491   3.221   7.622   1.691  1.2266  0.5720 -0.3712
25219SOL     OW81492   1.613   5.965   0.475  0.1358  0.1681 -0.5051
25219SOL    HW181493   1.641   5.877   0.501 -0.4585 -0.1446 -0.8981
25219SOL    HW281494   1.525   5.973   0.510  0.2659  0.6892 -0.2980
25220SOL     OW81495   2.819   9.365   0.473  0.1617 -0.3436 -0.6854
25220SOL    HW181496   2.840   9.284   0.518 -0.5778 -0.4401 -0.4914
25220SOL    HW281497   2.903   9.403   0.448  0.4878 -1.5562 -1.4702
25221SOL     OW81498   5.774   6.929   7.530  0.3846 -0.0006  0.1887
25221SOL    HW181499   5.803   6.907   7.442  2.1009  0.6614  0.5512
25221SOL    HW281500   5.746   7.020   7.525 -0.7573 -0.3354  0.0738
25222SOL     OW81501   2.137   6.229   7.817 -0.0410 -0.3180 -0.4190
25222SOL    HW181502   2.199   6.176   7.766  1.2895  0.6460  0.1379
25222SOL    HW281503   2.079   6.165   7.858  2.0717 -1.4838  0.9543
25223SOL     OW81504   4.399   8.796   1.146 -0.2802 -0.3701  0.8880
25223SOL    HW181505   4.450   8.749   1.212 -0.4887 -0.9766  0.6266
25223SOL    HW281506   4.385   8.732   1.076  0.5245  0.4532 -0.0624
25224SOL     OW81507   3.068   2.468   8.010 -0.3501 -0.2406 -0.4586
25224SOL    HW181508   3.098   2.513   7.932  0.0478 -1.5605 -1.1069
25224SOL    HW281509   3.105   2.518   8.083  0.5184  0.1658 -1.1542
25225SOL     OW81510   9.489   4.744   2.030  1.0170 -0.0013  0.2971
25225SOL    HW181511   9.464   4.684   2.100 -0.5982  0.1842 -0.0869
25225SOL    HW281512   9.535   4.815   2.075  0.1044  0.0584  1.1762
25226SOL     OW81513   1.382   8.457   7.718  0.6534  0.2866 -0.2265
25226SOL    HW181514   1.343   8.405   7.788  0.9800  0.3956  0.0439
25226SOL    HW281515   1.337   8.430   7.639  0.2510  0.1875  0.0343
25227SOL     OW81516   8.070   7.728   4.356 -0.4868 -0.3871  0.5705
25227SOL    HW181517   8.117   7.647   4.338 -0.0194 -0.1794  0.8514
25227SOL    HW281518   7.992   7.701   4.405 -0.6754 -0.7330  0.0768
25228SOL     OW81519   3.270   6.799  10.773  0.2201 -0.2721 -0.1635
25228SOL    HW181520   3.358   6.834  10.758  0.2285 -0.5304 -0.7412
25228SOL    HW281521   3.235   6.783  10.685 -0.7189  0.5879  0.0329
25229SOL     OW81522   7.802   3.571   6.967  0.0162  0.0110 -0.3117
25229SOL    HW181523   7.824   3.606   7.053 -0.0313 -0.8687  0.0637
25229SOL    HW281524   7.773   3.647   6.917  0.1166  0.5398  0.4206
25230SOL     OW81525   7.915   7.614   9.360  0.4895 -0.1946  0.2571
25230SOL    HW181526   7.854   7.683   9.334 -0.2996 -1.0714 -0.3030
25230SOL    HW281527   7.880   7.534   9.319  2.0895 -0.7064 -0.1956
25231SOL     OW81528   8.226   1.475  10.719 -0.0673 -0.1367  0.3270
25231SOL    HW181529   8.251   1.523  10.640 -1.1936  2.2749  1.3045
25231SOL    HW281530   8.208   1.386  10.689  1.0561  0.2895 -1.8266
25232SOL     OW81531   3.722   7.573   7.149  0.5690  0.3035  0.4827
25232SOL    HW181532   3.752   7.626   7.224  1.0856 -0.8409  1.1050
25232SOL    HW281533   3.791   7.508   7.137 -0.0387 -0.2056 -0.3084
25233SOL     OW81534   2.098  10.049   2.675 -0.1106 -0.2200 -0.4427
25233SOL    HW181535   2.105   9.966   2.628 -1.7399 -0.0979 -0.9796
25233SOL    HW281536   2.072  10.024   2.764 -1.1078 -0.2813 -0.7414
25234SOL     OW81537  10.338   5.766   5.401 -0.2172 -0.0926 -0.4302
25234SOL    HW181538  10.334   5.862   5.406 -0.0814 -0.0843 -0.4968
25234SOL    HW281539  10.257   5.737   5.444 -0.7506  0.0735 -1.3104
25235SOL     OW81540   4.942   6.708   2.177  0.3634 -0.0238 -0.4961
25235SOL    HW181541   4.855   6.711   2.216 -0.0161  1.6863 -1.3682
25235SOL    HW281542   4.970   6.800   2.175  0.9954 -0.2067 -2.7675
25236SOL     OW81543   5.148   4.159   5.791 -0.3697 -0.1729  0.2513
25236SOL    HW181544   5.225   4.147   5.846 -1.0186 -1.6034  0.9029
25236SOL    HW281545   5.179   4.142   5.702  0.5208  1.4095  0.2236
25237SOL     OW81546   4.367   4.050   3.745 -0.1623  0.3016  0.2831
25237SOL    HW181547   4.407   3.966   3.765 -0.0403 -0.0292 -1.1902
25237SOL    HW281548   4.294   4.029   3.687  0.3841  1.2513 -0.7964
25238SOL     OW81549   2.373   8.651   2.891 -0.5648  0.1384 -0.3391
25238SOL    HW181550   2.438   8.699   2.840  1.1150  0.0085  1.5520
25238SOL    HW281551   2.380   8.688   2.979 -1.5405 -1.3534  0.4062
25239SOL     OW81552   4.800   0.247   0.976 -0.1040  0.1189  0.1785
25239SOL    HW181553   4.802   0.321   0.916 -1.4202  0.5896  0.6778
25239SOL    HW281554   4.827   0.284   1.060  0.0715 -0.1584  0.2440
25240SOL     OW81555  10.236   8.563  10.705  0.2344  0.0664  0.1777
25240SOL    HW181556  10.267   8.637  10.758 -0.4038  0.5110 -0.0550
25240SOL    HW281557  10.309   8.501  10.706  0.0503 -0.1865  2.0440
25241SOL     OW81558   5.027   4.876   5.980 -0.5544  0.1164 -0.1162
25241SOL    HW181559   5.056   4.785   5.972  1.3279  0.6332  0.2502
25241SOL    HW281560   5.015   4.906   5.890 -0.3391 -0.2604 -0.2712
25242SOL     OW81561   9.229   4.210   2.565 -0.5207 -0.3479 -0.2570
25242SOL    HW181562   9.308   4.157   2.555 -1.1403 -1.9211  2.1387
25242SOL    HW281563   9.168   4.174   2.501 -0.2442 -1.1538 -0.0842
25243SOL     OW81564   2.632   4.898   6.704  0.5209 -0.5309 -0.1385
25243SOL    HW181565   2.584   4.873   6.783 -1.8977 -1.3837 -1.7609
25243SOL    HW281566   2.698   4.830   6.692 -0.6226 -1.6719 -0.0674
25244SOL     OW81567   9.447   1.403   0.109  0.0474  1.1396  0.4346
25244SOL    HW181568   9.361   1.442   0.094  0.8864  2.1973 -2.1902
25244SOL    HW281569   9.429   1.309   0.117 -1.3387  1.3112 -0.3650
25245SOL     OW81570   8.646  10.601   5.040  0.0858  0.3163  0.6353
25245SOL    HW181571   8.646  10.645   5.125 -2.8841  0.9905  0.3820
25245SOL    HW281572   8.562  10.556   5.037 -0.1635  0.8331 -2.2118
25246SOL     OW81573   7.097   8.820   6.894 -0.2804 -0.5911 -0.1220
25246SOL    HW181574   7.069   8.784   6.978  0.6794 -0.1080  0.4137
25246SOL    HW281575   7.145   8.748   6.853  1.9032  0.1020  1.0817
25247SOL     OW81576  10.546   9.312   6.669  0.6086 -0.0003 -0.1155
25247SOL    HW181577  10.605   9.268   6.607  0.8429  1.5005 -1.0135
25247SOL    HW281578  10.521   9.393   6.624 -3.4298 -1.2213 -0.4847
25248SOL     OW81579   2.998   1.019   3.955 -0.0635  0.4150  0.4030
25248SOL    HW181580   2.911   1.049   3.980  0.5144  2.3967  0.1989
25248SOL    HW281581   3.016   1.065   3.873  1.6941  1.1094  1.1286
25249SOL     OW81582   0.423   1.102   7.453  0.4437 -0.2905  0.4213
25249SOL    HW181583   0.366   1.032   7.419 -0.8175  0.7380  0.3383
25249SOL    HW281584   0.461   1.142   7.375  1.3030 -0.9797  0.4769
25250SOL     OW81585   2.513   4.251   3.508  0.0896  0.5038 -0.1384
25250SOL    HW181586   2.576   4.304   3.556  2.1491 -1.3151 -0.6816
25250SOL    HW281587   2.535   4.265   3.416 -3.1426  3.1454 -0.6888
25251SOL     OW81588   5.859  10.226   6.411  0.3467 -0.2428  0.3080
25251SOL    HW181589   5.793  10.296   6.404 -0.2131 -0.7923 -0.0649
25251SOL    HW281590   5.848  10.191   6.499 -0.2897 -0.7445  0.0331
25252SOL     OW81591   7.505   5.665   9.381  0.1637  0.0797  0.5428
25252SOL    HW181592   7.496   5.705   9.467  0.8446 -0.8899  1.0859
25252SOL    HW281593   7.495   5.738   9.319 -0.1710  0.8087  1.4386
25253SOL     OW81594   1.762   3.042   6.196 -0.8048  0.1355 -0.0489
25253SOL    HW181595   1.740   3.104   6.127  1.3149  0.2663 -0.6772
25253SOL    HW281596   1.850   3.068   6.224 -0.1399 -2.1224  0.1517
25254SOL     OW81597   6.120   8.838  10.525 -0.1690 -0.6850  0.0582
25254SOL    HW181598   6.077   8.757  10.498 -0.7504 -0.2922 -0.2150
25254SOL    HW281599   6.185   8.856  10.456  1.0300 -1.7097  0.8792
25255SOL     OW81600   6.018   7.456   7.353  0.6513 -0.1816  0.0270
25255SOL    HW181601   6.079   7.389   7.383  1.6170  0.1811 -1.0636
25255SOL    HW281602   6.069   7.510   7.293  0.4641  2.6694  2.2182
25256SOL     OW81603   7.852   9.184   5.061  0.1863  0.4131 -0.0552
25256SOL    HW181604   7.786   9.117   5.043  0.6284 -0.8825  2.5731
25256SOL    HW281605   7.918   9.171   4.993  0.3795 -2.0953  0.4912
25257SOL     OW81606   2.683   7.383   2.869 -0.2571 -0.2867 -0.3634
25257SOL    HW181607   2.634   7.433   2.935 -0.1985 -2.1034  1.1412
25257SOL    HW281608   2.740   7.447   2.827 -0.7455  1.0499  0.9387
25258SOL     OW81609   6.699   3.498   1.328 -0.4508 -0.2166 -0.4723
25258SOL    HW181610   6.758   3.555   1.377  1.8561 -2.6841 -0.1348
25258SOL    HW281611   6.738   3.494   1.240 -2.2966  0.9959 -1.4202
25259SOL     OW81612   3.971   6.000   7.194 -0.1408  0.4619  0.2872
25259SOL    HW181613   3.918   6.077   7.172  0.2518  0.6642  0.0452
25259SOL    HW281614   4.061   6.031   7.189  0.0274 -0.0638 -0.0037
25260SOL     OW81615   0.273   1.814   7.392 -0.3845  0.3281  0.6286
25260SOL    HW181616   0.231   1.820   7.478 -1.9815 -1.5396  0.0614
25260SOL    HW281617   0.200   1.816   7.329  0.7076  1.1674 -0.6809
25261SOL     OW81618   7.945   3.403   1.765  0.2057 -0.3220  0.7942
25261SOL    HW181619   7.977   3.453   1.840  1.8581 -0.0530 -0.0301
25261SOL    HW281620   7.976   3.452   1.689 -1.0649 -0.8200 -0.0655
25262SOL     OW81621   2.206   7.759   1.413 -0.1205 -0.4835  0.2181
25262SOL    HW181622   2.280   7.816   1.393 -0.4744 -0.0295  0.1857
25262SOL    HW281623   2.182   7.720   1.329 -0.7400  0.3753 -0.0240
25263SOL     OW81624   9.741   9.476   8.733 -0.0404  0.0036 -0.4213
25263SOL    HW181625   9.722   9.538   8.803 -0.1583 -0.8742  0.3459
25263SOL    HW281626   9.656   9.443   8.707  0.0791 -0.4495 -0.2453
25264SOL     OW81627   2.501   9.455   1.548 -0.0081  0.1500 -0.0013
25264SOL    HW181628   2.446   9.402   1.605  1.3722 -1.3906 -0.0351
25264SOL    HW281629   2.446   9.530   1.524 -0.9348  0.3775  2.5828
25265SOL     OW81630   1.819   3.386   6.291  0.2141 -0.4615  0.4962
25265SOL    HW181631   1.803   3.313   6.232 -0.6137 -0.3942  0.6160
25265SOL    HW281632   1.731   3.419   6.313  0.5235 -0.1666  1.3541
25266SOL     OW81633   7.163   5.850   9.286  0.4929 -0.1459  0.2615
25266SOL    HW181634   7.244   5.894   9.313  0.9322  0.7192 -2.1675
25266SOL    HW281635   7.096   5.884   9.344  1.7470 -0.3699  1.8956
25267SOL     OW81636   2.930   6.977   8.902  0.4822  0.4322 -0.6158
25267SOL    HW181637   2.873   6.949   8.831  1.0901 -0.9949 -0.5960
25267SOL    HW281638   3.011   7.003   8.859  0.5081  0.5166 -0.5163
25268SOL     OW81639   4.669   3.972   7.906  0.6101  0.0481  0.3019
25268SOL    HW181640   4.583   4.012   7.894  0.7249  0.5101  0.9502
25268SOL    HW281641   4.694   3.940   7.819  0.3515  1.0586 -0.1473
25269SOL     OW81642  10.917   9.686   7.138 -0.2349  0.7573  0.1773
25269SOL    HW181643  10.923   9.685   7.234  0.2558 -1.0073  0.1611
25269SOL    HW281644  10.824   9.676   7.120 -0.7977  4.3049  0.4107
25270SOL     OW81645   0.219   2.955   8.647  0.2146  0.6348  0.1106
25270SOL    HW181646   0.179   3.014   8.711 -1.1510 -0.6047  0.4595
25270SOL    HW281647   0.238   2.876   8.696  0.7806  0.2983 -0.6347
25271SOL     OW81648   4.040   2.467   2.241  0.3676 -0.7931  0.5753
25271SOL    HW181649   4.074   2.378   2.228  0.0515 -1.2136  2.4467
25271SOL    HW281650   4.065   2.490   2.330 -0.5494  0.5642  0.5121
25272SOL     OW81651   2.505  10.504   6.370 -0.1631  0.0506  0.4847
25272SOL    HW181652   2.560  10.563   6.319 -2.5521  1.8984 -0.1211
25272SOL    HW281653   2.432  10.482   6.311 -1.0101 -0.8878  1.8174
25273SOL     OW81654   0.058   2.032   1.846 -0.4391  0.6314  0.0615
25273SOL    HW181655  -0.004   2.021   1.774 -0.5802  0.1613  0.2499
25273SOL    HW281656   0.111   2.108   1.821 -0.9567  0.9107 -0.1925
25274SOL     OW81657  10.342   8.257   7.311 -0.1312  0.0693 -0.8239
25274SOL    HW181658  10.280   8.212   7.253  0.0269  0.4018 -1.2561
25274SOL    HW281659  10.287   8.303   7.374 -0.3045 -2.4015  0.9546
25275SOL     OW81660   2.712   6.658   3.179  0.3101 -0.2318  0.2789
25275SOL    HW181661   2.645   6.599   3.144  0.7172 -1.5334  1.5663
25275SOL    HW281662   2.680   6.681   3.267  0.4561  1.0180  0.0250
25276SOL     OW81663   1.612   4.622   2.878 -0.0136 -0.0411 -0.5900
25276SOL    HW181664   1.597   4.528   2.863 -1.3956  0.2550 -1.2365
25276SOL    HW281665   1.690   4.642   2.827  0.4985 -0.8962 -0.1751
25277SOL     OW81666   1.525   2.691   8.145 -0.3493 -0.1423 -0.0849
25277SOL    HW181667   1.455   2.736   8.193 -0.3617  0.6074 -0.7918
25277SOL    HW281668   1.560   2.757   8.086  0.7320 -0.6089  0.0085
25278SOL     OW81669   7.388   1.835  10.400  0.2334  0.0154  0.3982
25278SOL    HW181670   7.386   1.739  10.399  2.1429 -0.0881  1.0724
25278SOL    HW281671   7.389   1.860  10.307  1.1993 -0.7104  0.1981
25279SOL     OW81672   5.878   8.454   4.028  0.0092 -0.4815 -0.4515
25279SOL    HW181673   5.847   8.468   4.118  1.2748  0.0612 -0.0737
25279SOL    HW281674   5.889   8.359   4.021  2.3431 -0.3902  0.8740
25280SOL     OW81675   9.508   5.136   7.422  0.0294  0.3192 -0.3944
25280SOL    HW181676   9.541   5.106   7.507  1.3456 -0.2567 -1.0857
25280SOL    HW281677   9.429   5.186   7.444  0.8605  1.0008  1.2556
25281SOL     OW81678   0.889   8.656   1.717  0.0134 -0.3388 -0.0183
25281SOL    HW181679   0.858   8.613   1.638 -0.0996  2.4199 -1.6036
25281SOL    HW281680   0.976   8.689   1.693 -0.7260  2.0326  0.3444
25282SOL     OW81681   7.239   9.423   9.047 -0.4321 -0.1577 -0.3938
25282SOL    HW181682   7.206   9.486   9.110 -1.9823 -2.7044  1.5559
25282SOL    HW281683   7.168   9.413   8.983 -0.3618 -0.2310 -0.4629
25283SOL     OW81684   0.757   6.111   2.133  0.0494 -0.4281  0.2195
25283SOL    HW181685   0.733   6.099   2.225 -0.4825  0.3389  0.1857
25283SOL    HW281686   0.835   6.056   2.122 -0.0885 -0.8064  1.0328
25284SOL     OW81687   3.906   9.586   8.613  0.1314  0.9743  0.2679
25284SOL    HW181688   3.861   9.552   8.691  1.8762 -1.2508  0.4064
25284SOL    HW281689   3.961   9.657   8.646  0.9060  0.0126  1.1152
25285SOL     OW81690   4.544   8.700   4.808  0.5012 -0.1667 -0.3394
25285SOL    HW181691   4.637   8.712   4.827  0.2580  1.5209 -0.1262
25285SOL    HW281692   4.513   8.643   4.878  0.9169  1.0762  0.8934
25286SOL     OW81693   2.823   5.957   4.242 -0.2687 -0.5370 -0.4094
25286SOL    HW181694   2.791   5.937   4.154 -1.2900 -0.8548  0.0168
25286SOL    HW281695   2.784   6.042   4.263 -0.0018 -0.4448 -0.2771
25287SOL     OW81696   7.068   0.997   8.180 -0.0238  0.1929  0.4476
25287SOL    HW181697   6.990   1.030   8.135  0.1102  1.8468  1.3069
25287SOL    HW281698   7.082   0.910   8.145 -1.2140  0.5609 -1.0364
25288SOL     OW81699   2.476   7.831   7.205 -0.0010  0.0577  0.7142
25288SOL    HW181700   2.494   7.784   7.287  0.3330 -2.9625 -0.9530
25288SOL    HW281701   2.561   7.865   7.179  0.3460 -0.8804  0.5624
25289SOL     OW81702   2.759   1.191   9.220  0.1233  0.3580 -0.1764
25289SOL    HW181703   2.781   1.119   9.160 -0.4364  0.5655 -0.6295
25289SOL    HW281704   2.806   1.267   9.185  0.4453  0.2996  0.1147
25290SOL     OW81705   3.653   2.557   7.782 -0.0504 -0.4141  0.1922
25290SOL    HW181706   3.717   2.609   7.831  0.4210  0.8033 -1.5972
25290SOL    HW281707   3.674   2.574   7.690 -1.5875 -1.7155 -0.4475
25291SOL     OW81708   7.661   5.388   1.922  0.5537 -0.5843  0.1711
25291SOL    HW181709   7.577   5.363   1.885  0.2985 -0.6295  0.7791
25291SOL    HW281710   7.657   5.483   1.929  0.5775 -0.5824  0.1588
25292SOL     OW81711   5.478   8.782   9.979 -0.0300 -0.3790  0.3316
25292SOL    HW181712   5.433   8.701  10.004 -0.0291 -0.4928 -0.0269
25292SOL    HW281713   5.535   8.756   9.906 -0.3280  0.0258 -0.0534
25293SOL     OW81714   0.879   2.933   3.039 -0.0179  0.4098  0.0013
25293SOL    HW181715   0.937   2.940   3.115  0.4376  0.5199 -0.3469
25293SOL    HW281716   0.925   2.874   2.979 -1.0419 -0.8160  0.3961
25294SOL     OW81717   2.800   5.827   5.197 -0.2429  0.3523 -0.9400
25294SOL    HW181718   2.883   5.806   5.154  1.1292 -0.9982  2.0402
25294SOL    HW281719   2.825   5.883   5.271 -1.6053 -1.6573  1.1931
25295SOL     OW81720   0.386   1.993   4.848 -0.1126  0.0698 -0.0120
25295SOL    HW181721   0.407   2.085   4.833  1.4239 -0.1298  0.6960
25295SOL    HW281722   0.368   1.988   4.942  0.5420 -0.4554  0.0979
25296SOL     OW81723   5.366   8.590   4.005 -0.2751  0.1780 -0.1429
25296SOL    HW181724   5.383   8.683   4.017 -0.9212  0.2029  0.6579
25296SOL    HW281725   5.322   8.562   4.085  0.5034 -0.9720 -0.0823
25297SOL     OW81726   5.394   1.864   3.738  0.0577  0.7112 -0.4161
25297SOL    HW181727   5.319   1.921   3.723  0.1920  0.8677 -0.4909
25297SOL    HW281728   5.441   1.863   3.655  0.6398  1.3400 -0.1032
25298SOL     OW81729   9.251   7.757   9.536 -0.1125 -0.2973 -0.0915
25298SOL    HW181730   9.266   7.691   9.603 -1.5566 -1.3981 -0.7678
25298SOL    HW281731   9.336   7.768   9.493  0.8234  0.4100  1.8554
25299SOL     OW81732   7.982   0.931  10.282  0.0399 -0.3763 -0.1820
25299SOL    HW181733   8.063   0.894  10.246  0.6114 -0.0757  0.7797
25299SOL    HW281734   7.994   1.025  10.276  0.1826 -0.3194  0.8686
25300SOL     OW81735   5.604   5.024   4.270 -0.6145 -0.1433 -0.4039
25300SOL    HW181736   5.694   5.025   4.237 -1.3430 -0.2658 -2.5291
25300SOL    HW281737   5.567   4.942   4.238 -1.8343  0.4399 -0.5517
25301SOL     OW81738   9.476   9.077   6.083 -0.0469 -0.0174 -0.5922
25301SOL    HW181739   9.555   9.025   6.069  0.2364 -0.1475  1.2325
25301SOL    HW281740   9.461   9.072   6.177 -0.3293  2.7277 -0.4000
25302SOL     OW81741   1.618   9.912   6.990 -0.1114 -0.6138  0.5582
25302SOL    HW181742   1.569   9.944   6.914  0.1865 -0.4138  0.4481
25302SOL    HW281743   1.664   9.834   6.958  0.0414 -0.5097  0.5246
25303SOL     OW81744   0.380   4.961   9.314  0.0359  0.0361  0.0475
25303SOL    HW181745   0.405   4.871   9.335 -3.0692 -0.8605  0.3560
25303SOL    HW281746   0.438   5.015   9.368  2.4829 -1.6749 -0.6876
25304SOL     OW81747   6.873   6.090   6.496  0.4498  0.0783  0.2303
25304SOL    HW181748   6.873   5.995   6.479  1.4586 -0.4050  2.6388
25304SOL    HW281749   6.796   6.104   6.552  0.6513  0.5964  0.3783
25305SOL     OW81750   5.121   9.770   2.812  0.0542 -0.1496  0.1477
25305SOL    HW181751   5.051   9.717   2.773  0.7562 -0.5272 -0.6235
25305SOL    HW281752   5.099   9.772   2.905 -1.8363  1.0656 -0.2814
25306SOL     OW81753   2.020   5.230   9.687  0.3316  0.2306 -0.3093
25306SOL    HW181754   2.070   5.253   9.765  0.8527 -0.4318 -0.4394
25306SOL    HW281755   1.935   5.274   9.699  0.9438  1.3971 -0.1010
25307SOL     OW81756   1.143   8.091   1.157 -0.3760  0.4202 -0.6644
25307SOL    HW181757   1.115   8.056   1.073  1.4006  1.1128 -1.6020
25307SOL    HW281758   1.196   8.022   1.196  1.8338  1.3855 -1.8125
25308SOL     OW81759   7.083   6.055   2.657 -0.6449 -0.5583  0.2110
25308SOL    HW181760   7.133   6.102   2.591 -1.0255  1.0362  1.0120
25308SOL    HW281761   7.145   5.994   2.696 -0.0620 -0.5459 -0.6703
25309SOL     OW81762   1.647   0.374   1.803 -0.3449 -0.1185  0.6141
25309SOL    HW181763   1.559   0.404   1.784 -0.7906 -1.6692  0.0537
25309SOL    HW281764   1.648   0.361   1.898 -0.4016  0.8189  0.7471
25310SOL     OW81765   6.167  10.014   9.729  0.0097  0.3059  0.0934
25310SOL    HW181766   6.253   9.972   9.733 -0.1393 -0.0693 -0.5326
25310SOL    HW281767   6.143  10.027   9.821  0.1235 -0.8723  0.3124
25311SOL     OW81768   8.572  10.730   6.099 -0.1339  0.2834 -0.4748
25311SOL    HW181769   8.577  10.637   6.119 -0.5230 -0.0720 -1.8683
25311SOL    HW281770   8.487  10.757   6.134 -0.9806 -0.4122 -1.8845
25312SOL     OW81771   7.853   0.145   6.689  0.2920  0.1867  0.0039
25312SOL    HW181772   7.757   0.143   6.686  0.2440  1.4057 -0.0306
25312SOL    HW281773   7.872   0.211   6.756  1.1096  0.1478 -0.1888
25313SOL     OW81774  10.411   1.346   3.605  0.0677 -0.3116  0.7129
25313SOL    HW181775  10.359   1.420   3.637  0.6886 -0.2847  1.7281
25313SOL    HW281776  10.502   1.371   3.624  0.3452 -0.9729  0.2831
25314SOL     OW81777   1.046   1.229   1.005  0.0377 -0.9577 -0.0882
25314SOL    HW181778   1.070   1.245   0.913  0.7086  1.2445  0.3863
25314SOL    HW281779   0.957   1.263   1.013  0.7492  0.9160  0.4946
25315SOL     OW81780   9.625   6.342   8.733  0.0695 -0.3060 -0.1272
25315SOL    HW181781   9.531   6.360   8.730  0.1985  0.3810 -0.1491
25315SOL    HW281782   9.664   6.405   8.672  0.5656 -0.4589  0.0222
25316SOL     OW81783   3.441   1.262   8.782 -0.5994  0.0153 -0.4439
25316SOL    HW181784   3.433   1.343   8.832  0.0419 -0.8016  1.0392
25316SOL    HW281785   3.379   1.202   8.822  2.1039 -1.6758  1.6210
25317SOL     OW81786   3.699   4.595   7.322 -0.2086 -0.6761 -0.5404
25317SOL    HW181787   3.711   4.689   7.337 -2.4812  0.1992 -3.2379
25317SOL    HW281788   3.786   4.557   7.335  0.9196  1.8789  0.0356
25318SOL     OW81789   2.341   2.103   2.695  0.5014  0.1184  0.2960
25318SOL    HW181790   2.245   2.106   2.699  0.3626 -0.8940 -1.4564
25318SOL    HW281791   2.368   2.068   2.780 -0.6216  1.0437  1.0627
25319SOL     OW81792   0.912   0.397   1.470 -0.3231  0.3939  0.1601
25319SOL    HW181793   0.949   0.426   1.554 -0.4231  0.8752  0.0390
25319SOL    HW281794   0.988   0.369   1.419 -0.3803 -1.2699  0.9252
25320SOL     OW81795   5.259   1.302   2.570 -0.1063 -0.7778  0.7126
25320SOL    HW181796   5.297   1.230   2.519  1.9947  1.4282 -1.0586
25320SOL    HW281797   5.169   1.275   2.586  0.5834 -3.7767  0.1438
25321SOL     OW81798   7.770   2.752   6.012  0.7202  0.4633 -0.0414
25321SOL    HW181799   7.679   2.746   5.981 -0.2279  0.7727  2.4381
25321SOL    HW281800   7.798   2.839   5.983 -0.4058  1.0749  0.6086
25322SOL     OW81801   4.622   7.060   3.798  0.2894 -0.4682 -0.0007
25322SOL    HW181802   4.567   6.983   3.804  2.4874 -2.0991  0.5497
25322SOL    HW281803   4.686   7.039   3.729  1.5672  0.3909  0.8664
25323SOL     OW81804   9.087   1.960   8.588 -0.4030 -0.7763 -0.4782
25323SOL    HW181805   9.035   1.903   8.644  1.0032 -0.7957  0.8819
25323SOL    HW281806   9.129   1.901   8.526  0.3047 -1.1305  0.3223
25324SOL     OW81807   1.807   3.613   4.047 -0.5149  0.1455 -0.2385
25324SOL    HW181808   1.726   3.623   4.098 -1.4200 -0.6002 -1.4643
25324SOL    HW281809   1.808   3.520   4.023  1.6392 -0.2843  1.2221
25325SOL     OW81810  10.662   6.373   5.757 -0.6013  0.3105  0.2946
25325SOL    HW181811  10.734   6.402   5.701 -0.5160 -2.3508 -1.1437
25325SOL    HW281812  10.583   6.407   5.715 -0.3879  0.1384 -0.2560
25326SOL     OW81813   1.986   0.175   0.307  0.0731 -0.3427  0.4993
25326SOL    HW181814   1.922   0.167   0.236  1.0672  0.9211 -0.5734
25326SOL    HW281815   2.048   0.104   0.291  0.4869  0.1491 -0.1138
25327SOL     OW81816   5.782   9.085   4.983  0.7419  0.7877  0.3466
25327SOL    HW181817   5.797   9.158   5.042 -0.8937 -0.2991  2.2361
25327SOL    HW281818   5.687   9.080   4.975  0.8649 -0.4458 -0.6267
25328SOL     OW81819   8.804   1.117  10.683  0.3282  0.0974  0.3825
25328SOL    HW181820   8.802   1.179  10.610  3.3132  0.3374  0.3756
25328SOL    HW281821   8.712   1.107  10.708 -0.6064  1.5958 -2.0398
25329SOL     OW81822   0.147   7.708   1.182  0.3196 -0.0903 -0.5020
25329SOL    HW181823   0.077   7.732   1.243  0.2639  0.3356 -0.7358
25329SOL    HW281824   0.159   7.614   1.197  0.9293  0.1709  0.8190
25330SOL     OW81825   7.770   7.233   8.211  0.3784  0.8932 -0.0294
25330SOL    HW181826   7.844   7.188   8.251  0.7678  1.4941 -0.0474
25330SOL    HW281827   7.749   7.181   8.133 -1.3655 -1.1628  1.7033
25331SOL     OW81828   4.351   8.389   5.593 -0.0036  0.2126  0.1712
25331SOL    HW181829   4.369   8.298   5.617 -0.9706 -0.2467 -0.8121
25331SOL    HW281830   4.392   8.440   5.664  0.0145 -0.9898  1.0616
25332SOL     OW81831   3.979   9.736   1.957  0.0496  0.1565 -0.3645
25332SOL    HW181832   4.022   9.716   1.874 -1.5479  0.2082 -1.2295
25332SOL    HW281833   4.044   9.787   2.005  0.8346  0.5364 -1.7618
25333SOL     OW81834   8.085   4.113   0.655 -0.0464  0.1212 -0.3410
25333SOL    HW181835   8.113   4.047   0.719 -0.6730 -0.4993 -0.6912
25333SOL    HW281836   8.019   4.165   0.702  2.3328  2.3002  0.8674
25334SOL     OW81837   4.738   1.827   2.370  0.0251 -0.0587 -0.2350
25334SOL    HW181838   4.765   1.766   2.301 -0.2127 -1.0081  0.4931
25334SOL    HW281839   4.668   1.781   2.417  0.0423  0.6577  0.5118
25335SOL     OW81840  10.641   4.125   7.146 -0.0187  0.0855  0.8259
25335SOL    HW181841  10.617   4.092   7.233 -0.2241  0.2008  0.8138
25335SOL    HW281842  10.734   4.105   7.138 -0.2904 -1.1366  0.5269
25336SOL     OW81843   3.216  10.533   2.586 -0.0261 -1.3154 -0.9008
25336SOL    HW181844   3.249  10.444   2.574 -1.3183 -2.5622  3.0941
25336SOL    HW281845   3.289  10.580   2.626  0.6225 -0.5163 -2.9180
25337SOL     OW81846   1.091   6.684   0.945 -0.2332  0.2775  0.0979
25337SOL    HW181847   1.093   6.600   0.990 -0.4406 -0.6192 -1.5228
25337SOL    HW281848   1.016   6.730   0.984 -0.3894 -0.4541  0.6821
25338SOL     OW81849   1.873   8.342   7.587 -0.2083 -0.2967 -0.2315
25338SOL    HW181850   1.954   8.357   7.636 -0.0093 -1.6121 -0.1025
25338SOL    HW281851   1.805   8.383   7.639  0.1862 -0.4724  0.4339
25339SOL     OW81852   7.562   2.828   3.133 -0.0075  0.4488  0.0299
25339SOL    HW181853   7.612   2.858   3.209  0.4251 -2.9082  1.2443
25339SOL    HW281854   7.629   2.796   3.072 -0.4720  1.2285 -0.9379
25340SOL     OW81855  10.331   0.356   8.382 -0.3590  0.3479  0.0200
25340SOL    HW181856  10.245   0.321   8.361 -0.6083  0.8918  0.0939
25340SOL    HW281857  10.387   0.280   8.392 -0.7137  0.0113 -0.5508
25341SOL     OW81858   2.225   5.104   0.891  0.0331  0.4304  0.0248
25341SOL    HW181859   2.271   5.057   0.821  1.8016  2.2637 -0.1501
25341SOL    HW281860   2.190   5.036   0.947 -1.7821 -1.1404 -2.7914
25342SOL     OW81861   8.205  10.520   8.646 -0.1292  0.4307 -0.2272
25342SOL    HW181862   8.141  10.590   8.660 -2.5992 -1.4441 -1.3845
25342SOL    HW281863   8.290  10.565   8.648 -1.5346  3.3564 -0.3810
25343SOL     OW81864   5.411   6.321   1.199  0.2918 -0.3299  0.3372
25343SOL    HW181865   5.455   6.273   1.269 -0.3660 -0.0376  0.9592
25343SOL    HW281866   5.328   6.349   1.237  0.3748  0.7304 -0.2271
25344SOL     OW81867   4.959   1.485   0.853  0.3338 -0.1530 -0.1381
25344SOL    HW181868   5.053   1.492   0.839  0.5452 -1.3764  0.4753
25344SOL    HW281869   4.948   1.492   0.947 -0.3714  1.4715 -0.3069
25345SOL     OW81870  10.879   4.900   6.151 -0.4647 -0.0716 -0.0901
25345SOL    HW181871  10.803   4.955   6.134 -0.7345 -0.4106  0.0355
25345SOL    HW281872  10.868   4.871   6.241 -1.7893 -2.6384 -0.9990
25346SOL     OW81873   0.833   1.318   4.315 -0.1216  0.2284 -0.9691
25346SOL    HW181874   0.872   1.397   4.277  0.1795  0.3119 -0.4915
25346SOL    HW281875   0.906   1.256   4.321  0.0971  0.6020  0.5253
25347SOL     OW81876   8.239   3.186   1.400  0.0686 -0.0651 -0.4228
25347SOL    HW181877   8.296   3.111   1.381  0.9143  0.2205  0.8473
25347SOL    HW281878   8.295   3.247   1.447 -0.7893  1.0949 -0.8691
25348SOL     OW81879   5.194   8.071   3.605 -0.0275  0.5251 -0.2497
25348SOL    HW181880   5.118   8.041   3.555 -0.6441 -0.1041  1.0018
25348SOL    HW281881   5.156   8.116   3.681  0.8448  0.1337  0.4385
25349SOL     OW81882   1.414   8.086   5.993 -0.0760 -0.3311 -0.3184
25349SOL    HW181883   1.333   8.064   5.947  0.1599  1.5548 -1.7452
25349SOL    HW281884   1.400   8.175   6.024  0.6365 -0.7795  1.4093
25350SOL     OW81885   1.746   2.348   9.420  0.0929  0.1580 -0.6262
25350SOL    HW181886   1.782   2.400   9.492 -0.1521  0.1589 -0.5029
25350SOL    HW281887   1.803   2.272   9.415 -0.7005 -0.5403  0.4913
25351SOL     OW81888   8.720   5.985   3.908 -0.0262  0.2167  0.1396
25351SOL    HW181889   8.677   5.945   3.833  1.7982  0.9342 -1.3728
25351SOL    HW281890   8.751   5.910   3.960  0.8002 -0.3443 -1.1130
25352SOL     OW81891   5.316   1.523   0.103 -0.5069  0.2716  0.3979
25352SOL    HW181892   5.383   1.499   0.039 -0.2885  3.3209 -0.6524
25352SOL    HW281893   5.233   1.508   0.058 -0.3849  0.9278 -0.0591
25353SOL     OW81894   1.350   7.868   9.142 -0.4534  0.6922  0.0388
25353SOL    HW181895   1.257   7.893   9.138 -1.2446 -1.8299  1.0276
25353SOL    HW281896   1.368   7.862   9.236 -0.7225 -3.3845 -0.0242
25354SOL     OW81897  10.370   0.426  10.729 -0.2973 -0.6356 -0.2143
25354SOL    HW181898  10.393   0.500  10.673 -1.0759 -1.0129 -1.0492
25354SOL    HW281899  10.306   0.461  10.790 -0.9046 -0.6908 -0.8129
25355SOL     OW81900  10.460   7.267   6.721  0.0246 -0.6298  0.3482
25355SOL    HW181901  10.376   7.295   6.756 -0.6122 -2.6383  0.5599
25355SOL    HW281902  10.457   7.171   6.725  1.1987 -0.8651 -2.2370
25356SOL     OW81903   0.567   6.653   7.294  0.5487  0.0345  0.4118
25356SOL    HW181904   0.520   6.635   7.375 -0.9230 -1.8140 -0.7873
25356SOL    HW281905   0.526   6.733   7.260  1.0364  0.7017  1.3336
25357SOL     OW81906   4.266   7.290   5.629  0.0296 -0.7680  0.2040
25357SOL    HW181907   4.324   7.323   5.561 -0.0976  0.5737  0.6954
25357SOL    HW281908   4.318   7.226   5.677  0.6140 -0.6465 -0.2534
25358SOL     OW81909   4.429   2.449   1.538  0.2416  0.3040 -0.0582
25358SOL    HW181910   4.450   2.526   1.590  0.8179 -0.6073  1.0901
25358SOL    HW281911   4.452   2.474   1.448  1.1800  1.1894  0.4078
25359SOL     OW81912   1.994   9.594  10.308 -0.3178 -0.9790  0.5923
25359SOL    HW181913   2.064   9.659  10.322  0.3132 -1.3720 -0.5918
25359SOL    HW281914   1.914   9.645  10.300  0.2979 -0.2354 -1.2432
25360SOL     OW81915  10.166   9.231   7.422  0.1229  0.3017  0.2618
25360SOL    HW181916  10.261   9.220   7.414  0.5536  2.9502  0.6980
25360SOL    HW281917  10.152   9.240   7.516 -0.4091  0.8620  0.1320
25361SOL     OW81918   1.199   3.831   3.768 -0.1490 -0.0448 -0.1520
25361SOL    HW181919   1.121   3.884   3.786  0.3443  0.6908 -0.1267
25361SOL    HW281920   1.272   3.889   3.786  0.4817 -1.3770  1.9027
25362SOL     OW81921   6.143   8.891   0.276  0.5241 -0.1952  0.3284
25362SOL    HW181922   6.098   8.888   0.360  0.9045 -0.7139  0.5117
25362SOL    HW281923   6.207   8.962   0.285  1.3127 -0.9523  0.8566
25363SOL     OW81924   4.388   3.316   1.248  0.2529 -0.2654  0.2114
25363SOL    HW181925   4.398   3.257   1.324  0.8920  1.0152  1.1604
25363SOL    HW281926   4.446   3.279   1.182 -1.4978 -2.3296 -0.3142
25364SOL     OW81927   2.795   0.792   7.538  0.3064  0.0800  0.0783
25364SOL    HW181928   2.891   0.794   7.535  0.3462 -1.8556 -1.3886
25364SOL    HW281929   2.767   0.799   7.447 -0.7936 -2.4969  0.1326
25365SOL     OW81930   0.643   6.614   3.535  0.0018  0.2639  0.2941
25365SOL    HW181931   0.549   6.633   3.532 -0.0526  0.1703  1.0462
25365SOL    HW281932   0.653   6.555   3.610  0.4643 -0.9277 -0.6762
25366SOL     OW81933   0.117   6.421   2.515  0.1883 -0.0646  0.2172
25366SOL    HW181934   0.056   6.470   2.461 -1.4447  0.4151  2.3928
25366SOL    HW281935   0.124   6.471   2.596  2.4823 -0.8063  0.5714
25367SOL     OW81936   2.940   9.446   3.406  0.2220  0.6088 -0.4366
25367SOL    HW181937   2.943   9.383   3.334 -1.5792  0.7839 -0.7141
25367SOL    HW281938   2.897   9.398   3.477 -1.0266  1.4506 -0.6025
25368SOL     OW81939   2.353   4.460   8.074 -0.4265  0.0206 -0.5053
25368SOL    HW181940   2.357   4.408   8.154  1.8829  2.7813  1.3861
25368SOL    HW281941   2.417   4.419   8.016 -0.9671 -1.0737 -0.3572
25369SOL     OW81942   2.710   1.018   6.334  0.1316 -0.3804  0.6593
25369SOL    HW181943   2.751   1.104   6.330  1.4554 -1.0400 -0.5363
25369SOL    HW281944   2.760   0.964   6.273 -0.6374 -2.0198  1.4151
25370SOL     OW81945   5.800  10.061   4.083 -0.0914  0.1593  0.3341
25370SOL    HW181946   5.825  10.131   4.143 -0.9119  0.8314 -0.0750
25370SOL    HW281947   5.874  10.053   4.022  1.0023 -0.9304  1.7367
25371SOL     OW81948   0.669   7.457   1.150  0.1456 -0.2909  0.6482
25371SOL    HW181949   0.763   7.469   1.136 -0.1068  1.1237 -0.0786
25371SOL    HW281950   0.645   7.385   1.091  0.7263 -0.4992  0.6572
25372SOL     OW81951   8.949   9.409   6.701  0.0013 -0.0943  0.6574
25372SOL    HW181952   8.966   9.382   6.791  3.4419  1.9322  0.8061
25372SOL    HW281953   9.001   9.489   6.690 -2.2656  1.1445 -2.4161
25373SOL     OW81954   1.044   3.255   5.333  0.2673  0.3792  0.2176
25373SOL    HW181955   1.032   3.272   5.426  0.1501  0.4301  0.1936
25373SOL    HW281956   1.025   3.162   5.323  1.3272  0.1263  0.4189
25374SOL     OW81957   8.847   1.304   7.365 -0.5040 -0.1223 -0.0972
25374SOL    HW181958   8.859   1.308   7.271  2.7838 -0.8239  0.1505
25374SOL    HW281959   8.871   1.214   7.388 -1.6150 -0.0760  1.3800
25375SOL     OW81960   3.863   1.344   7.540  0.3277 -0.2850  0.5196
25375SOL    HW181961   3.869   1.300   7.625 -0.7171 -1.4884 -0.0021
25375SOL    HW281962   3.953   1.370   7.520  0.5811  0.0499  1.9948
25376SOL     OW81963   5.626   5.323   6.243  0.5964 -0.1080  0.1723
25376SOL    HW181964   5.598   5.414   6.244 -0.8882 -0.5171 -0.6638
25376SOL    HW281965   5.670   5.310   6.327 -2.5188  0.4140  2.0600
25377SOL     OW81966   7.836   6.461   5.434  0.0191  0.1538  0.4492
25377SOL    HW181967   7.760   6.402   5.439  0.8828 -1.2926 -2.0126
25377SOL    HW281968   7.891   6.436   5.508  0.0625 -1.7906 -0.1851
25378SOL     OW81969   8.125  10.190   9.891  0.2425 -0.1917 -0.1109
25378SOL    HW181970   8.082  10.198   9.805 -0.0085  0.9601  0.1042
25378SOL    HW281971   8.218  10.204   9.872 -0.0126  2.1045  0.0280
25379SOL     OW81972   7.123   3.169  10.430  0.0615  0.3699 -0.3247
25379SOL    HW181973   7.056   3.228  10.464  0.9306  1.4558 -0.4335
25379SOL    HW281974   7.101   3.158  10.337 -0.6752 -0.3038 -0.0815
25380SOL     OW81975   4.413   5.359   1.689 -0.1570  0.1484 -0.0271
25380SOL    HW181976   4.344   5.298   1.717 -0.9602  0.7464 -0.6193
25380SOL    HW281977   4.369   5.444   1.685  0.3420  0.3728 -1.3988
25381SOL     OW81978   5.033   8.311   9.329 -0.8262  0.5184  0.4916
25381SOL    HW181979   5.005   8.224   9.300  0.0845  1.0707 -2.3662
25381SOL    HW281980   5.128   8.304   9.339 -0.7398  1.1558  0.1926
25382SOL     OW81981   3.157   6.294  10.672  0.1017 -0.0887  0.6483
25382SOL    HW181982   3.065   6.302  10.697 -0.0327  0.0405  0.1050
25382SOL    HW281983   3.199   6.371  10.711 -0.6583  1.8488 -2.0717
25383SOL     OW81984   8.445   7.798   1.846  0.5032  0.1685 -0.1040
25383SOL    HW181985   8.390   7.875   1.861 -1.0621 -0.8614 -0.3277
25383SOL    HW281986   8.509   7.827   1.782  0.0508  1.3382 -0.0536
25384SOL     OW81987   9.368   8.800  10.005 -0.1933  0.2593  0.3825
25384SOL    HW181988   9.398   8.719  10.044 -0.0221  1.0704  1.9966
25384SOL    HW281989   9.446   8.839   9.966 -0.3009 -0.3844 -0.5156
25385SOL     OW81990  10.689   5.266   5.866 -0.1194 -0.1438  0.2434
25385SOL    HW181991  10.625   5.310   5.810 -0.8350  0.5711  1.5621
25385SOL    HW281992  10.644   5.257   5.951  0.6610 -1.8432  0.5102
25386SOL     OW81993   4.002   1.027  10.519  0.1382  0.3950  0.0018
25386SOL    HW181994   3.988   0.956  10.582 -1.4689  0.6686 -0.0190
25386SOL    HW281995   4.032   1.101  10.572  4.0200 -0.8115 -0.2026
25387SOL     OW81996   6.891  10.283   7.101 -0.0631  0.1407 -0.2094
25387SOL    HW181997   6.969  10.329   7.134  0.4038 -0.2241 -0.7815
25387SOL    HW281998   6.924  10.199   7.071 -0.6716  0.0190 -0.5496
25388SOL     OW81999   7.128   7.646   3.979 -0.0950 -0.2772 -0.0075
25388SOL    HW182000   7.091   7.732   3.996  1.0256  0.3913 -0.8049
25388SOL    HW282001   7.082   7.587   4.039 -1.3019  0.7621  0.1196
25389SOL     OW82002   7.669  10.818   7.079 -0.9131 -0.2992  0.1151
25389SOL    HW182003   7.756  10.856   7.088 -1.0618 -0.0104  0.3602
25389SOL    HW282004   7.651  10.779   7.164 -1.1445 -0.0982  0.1597
25390SOL     OW82005   9.699  10.600   9.979  0.0117 -0.2813 -0.1944
25390SOL    HW182006   9.628  10.565   9.926 -0.0322  1.2229 -1.1656
25390SOL    HW282007   9.664  10.603  10.068 -0.6485 -0.7944 -0.4303
25391SOL     OW82008   4.348   8.762   3.753 -0.4022  0.0834 -0.0564
25391SOL    HW182009   4.312   8.805   3.676 -0.6575  2.9662  1.5153
25391SOL    HW282010   4.350   8.831   3.820  1.5162 -1.7895  1.9800
25392SOL     OW82011   5.306   0.758   5.325  0.2960  0.0326 -0.7253
25392SOL    HW182012   5.347   0.781   5.409  2.1030  0.2846 -1.6103
25392SOL    HW282013   5.226   0.810   5.322  1.2376  1.6027 -0.0226
25393SOL     OW82014   4.903   2.465   1.636  0.2547  0.1512 -0.3052
25393SOL    HW182015   4.912   2.403   1.708  1.7184  0.0849 -0.5287
25393SOL    HW282016   4.828   2.519   1.661 -0.5434 -1.1806  0.2672
25394SOL     OW82017   0.395   4.132   4.579 -0.5450  0.0899 -0.1475
25394SOL    HW182018   0.305   4.135   4.612 -0.1056 -0.9867  1.2600
25394SOL    HW282019   0.389   4.085   4.496 -1.2733  0.0478 -0.0782
25395SOL     OW82020   6.160   1.457   6.151 -0.2841 -0.0738  0.3634
25395SOL    HW182021   6.153   1.369   6.114 -1.0559  0.1136  0.0487
25395SOL    HW282022   6.210   1.507   6.086 -0.5733 -0.0659  0.1445
25396SOL     OW82023   5.851   3.857   3.342 -0.4195  0.0392  0.5913
25396SOL    HW182024   5.930   3.904   3.368  0.0956  0.4923 -1.6572
25396SOL    HW282025   5.802   3.919   3.288 -0.7888 -1.2674 -0.6415
25397SOL     OW82026   3.793   6.125   5.347  0.3028  0.1776 -0.3220
25397SOL    HW182027   3.799   6.183   5.272  1.3771  2.4150  1.3844
25397SOL    HW282028   3.825   6.040   5.315 -0.6547  0.6404 -2.7065
25398SOL     OW82029   8.025   2.560   9.674 -0.2436  0.2443 -0.4125
25398SOL    HW182030   8.041   2.654   9.670 -0.7080  0.2969 -2.1276
25398SOL    HW282031   7.930   2.552   9.684  0.0316 -0.0850  2.8804
25399SOL     OW82032   9.639  10.900   5.052 -0.2706 -0.5269  0.3319
25399SOL    HW182033   9.676  10.815   5.074  0.0156 -0.5703 -0.2820
25399SOL    HW282034   9.625  10.943   5.136  0.6171 -0.7476  0.6059
25400SOL     OW82035   1.065   5.907   0.192 -0.6199  0.2766 -0.1732
25400SOL    HW182036   1.010   5.832   0.168  1.9310 -1.0131 -2.6111
25400SOL    HW282037   1.031   5.980   0.140 -0.8580 -0.1900 -0.6828
25401SOL     OW82038   0.753   1.604   6.095  0.0898  0.3459  0.6223
25401SOL    HW182039   0.739   1.623   6.188  0.4966  1.6657  0.4421
25401SOL    HW282040   0.710   1.676   6.049  3.0063  1.8278 -0.0593
25402SOL     OW82041   8.126   3.649   5.912 -0.2844  0.1622 -0.6065
25402SOL    HW182042   8.187   3.717   5.883 -0.6147 -0.6993 -3.6790
25402SOL    HW282043   8.178   3.569   5.917 -0.5209  0.0340 -0.0595
25403SOL     OW82044   3.256   4.383   7.185 -0.0862  0.0468 -0.0860
25403SOL    HW182045   3.300   4.418   7.263 -0.6838  0.1318  0.2137
25403SOL    HW282046   3.322   4.327   7.143  0.5057  0.6449  0.0385
25404SOL     OW82047   8.520   6.476   0.017 -0.2567 -0.6772  0.1411
25404SOL    HW182048   8.435   6.478  -0.026  0.5671 -0.6940 -1.5971
25404SOL    HW282049   8.527   6.560   0.061 -0.6059 -0.0671 -0.9274
25405SOL     OW82050   3.115   0.133  10.403  0.0770 -0.1712 -0.2374
25405SOL    HW182051   3.071   0.145  10.487 -0.6516 -0.8882 -0.4998
25405SOL    HW282052   3.043   0.122  10.340  0.6261 -0.8723 -0.7553
25406SOL     OW82053   6.413   2.741   2.070 -0.7981  0.4487  0.1849
25406SOL    HW182054   6.364   2.728   2.151 -2.8316 -0.5330 -1.1114
25406SOL    HW282055   6.382   2.826   2.037 -1.4343 -0.0211 -0.4693
25407SOL     OW82056   1.194   3.605   8.147  0.2592 -0.0842 -0.1622
25407SOL    HW182057   1.192   3.521   8.101 -0.1362 -0.5616  0.7029
25407SOL    HW282058   1.284   3.636   8.137  1.1378 -1.8160  1.5841
25408SOL     OW82059   9.384   5.681   9.627  0.1711  0.3224 -0.5683
25408SOL    HW182060   9.437   5.693   9.548  2.9966 -0.1664  1.0992
25408SOL    HW282061   9.331   5.603   9.609  0.9815  0.0456 -1.8662
25409SOL     OW82062   7.756   0.463   7.098 -0.0803  0.1502  0.2032
25409SOL    HW182063   7.734   0.520   7.024 -0.5184  0.4758  0.5754
25409SOL    HW282064   7.786   0.523   7.166  0.1563 -0.1327  0.3485
25410SOL     OW82065   2.244   2.777   9.065 -0.3893  0.5925 -0.3167
25410SOL    HW182066   2.171   2.838   9.055 -1.5969 -0.8053 -0.4959
25410SOL    HW282067   2.212   2.696   9.024  1.5171  0.1235 -0.9637
25411SOL     OW82068   0.763   3.924   1.453  0.3237  0.0094 -0.3172
25411SOL    HW182069   0.823   3.997   1.438  1.4350 -0.6016  0.9476
25411SOL    HW282070   0.694   3.960   1.509  0.4383  0.2890 -0.3578
25412SOL     OW82071   6.017   2.976   1.591 -0.5112  0.0916  0.1290
25412SOL    HW182072   5.993   2.931   1.510 -1.9238  0.7113  0.1672
25412SOL    HW282073   6.058   3.058   1.562  1.8660 -1.0404  0.0617
25413SOL     OW82074   6.166  10.190   8.461 -0.2687 -0.3677 -0.2638
25413SOL    HW182075   6.213  10.106   8.459 -0.3939 -0.4551  0.3224
25413SOL    HW282076   6.115  10.187   8.542 -1.6930 -0.4805 -1.1303
25414SOL     OW82077   8.578   2.825   6.774 -0.3079  0.5776  0.6086
25414SOL    HW182078   8.648   2.791   6.829 -0.2089  0.0054  0.1361
25414SOL    HW282079   8.619   2.896   6.724 -0.2555  0.7231  0.8566
25415SOL     OW82080   7.806   4.325   5.414  0.6174 -0.0322 -0.0691
25415SOL    HW182081   7.806   4.415   5.381 -0.2611  0.6544  1.7242
25415SOL    HW282082   7.778   4.332   5.505 -1.0040 -2.2745 -0.3014
25416SOL     OW82083   0.963   8.408   9.491  0.4454  0.6571  0.0099
25416SOL    HW182084   0.977   8.320   9.528  2.1405  0.7248 -0.3636
25416SOL    HW282085   0.949   8.464   9.567 -2.5036 -0.1602  0.1850
25417SOL     OW82086   6.501   2.451   8.188 -0.2425  0.0954 -0.1249
25417SOL    HW182087   6.503   2.545   8.200  0.3500  0.0797 -0.0617
25417SOL    HW282088   6.512   2.438   8.094 -1.1332  0.1099 -0.2370
25418SOL     OW82089   2.119   5.305   0.078 -0.7660  0.7614  0.7591
25418SOL    HW182090   2.213   5.323   0.068 -0.6008 -0.0238  0.8177
25418SOL    HW282091   2.102   5.233   0.017 -1.0220 -0.0455  1.7461
25419SOL     OW82092   9.683   5.896   5.575  0.2323  0.2710  0.1885
25419SOL    HW182093   9.636   5.821   5.541  0.3060  1.1360 -1.9425
25419SOL    HW282094   9.615   5.954   5.609 -0.1205  0.7449 -1.2948
25420SOL     OW82095   3.814   3.423   1.950  0.0765 -0.0693 -0.3240
25420SOL    HW182096   3.760   3.472   2.012  1.3369 -0.0565  0.8136
25420SOL    HW282097   3.761   3.347   1.927  0.2254 -0.9774  2.1245
25421SOL     OW82098   2.833   1.789   8.142  0.8479  0.1338 -0.4778
25421SOL    HW182099   2.857   1.839   8.063 -0.3338 -0.2935 -1.1267
25421SOL    HW282100   2.823   1.699   8.111  0.4070 -0.0448  0.1775
25422SOL     OW82101   2.894   7.240   7.299  0.5292  0.1624  0.2346
25422SOL    HW182102   2.824   7.293   7.260  1.3116  1.2297  0.2576
25422SOL    HW282103   2.871   7.235   7.392  0.2766  0.1680  0.1742
25423SOL     OW82104   0.655   7.271   5.129 -0.0385  0.0017  0.7253
25423SOL    HW182105   0.629   7.208   5.196 -1.5163  0.9621  1.1089
25423SOL    HW282106   0.674   7.352   5.177  0.0055  0.3798  0.0917
25424SOL     OW82107   0.863   1.220   3.944 -0.6031  0.1766 -0.4001
25424SOL    HW182108   0.807   1.190   4.016  0.3457  0.9084  0.6798
25424SOL    HW282109   0.927   1.150   3.933 -0.2052  0.4615  0.0832
25425SOL     OW82110   8.816  10.919   7.867 -0.1783  0.2558  0.2169
25425SOL    HW182111   8.760  10.878   7.933  0.3890  0.7635  1.0204
25425SOL    HW282112   8.863  10.846   7.827 -0.6423 -0.0704  0.2501
25426SOL     OW82113   3.761   6.481   1.106  0.3525  0.0798 -0.1724
25426SOL    HW182114   3.753   6.389   1.131  1.7118 -0.1519 -0.4999
25426SOL    HW282115   3.721   6.486   1.019  0.2285 -0.1949 -0.1312
25427SOL     OW82116  10.540   2.156   6.618 -0.1530 -0.6363  0.7766
25427SOL    HW182117  10.504   2.092   6.679 -0.8288 -0.9643  0.0592
25427SOL    HW282118  10.619   2.115   6.583 -0.1829 -0.7678  0.8635
25428SOL     OW82119   9.926  10.145   9.417 -0.2379 -0.2819  0.0894
25428SOL    HW182120   9.984  10.170   9.346  2.5954 -1.4237  1.8336
25428SOL    HW282121   9.875  10.223   9.435  1.0596  0.9350 -1.2515
25429SOL     OW82122  10.596   1.342   2.455 -0.4506 -0.6183  0.3081
25429SOL    HW182123  10.677   1.296   2.434 -0.6253 -1.2293  0.9430
25429SOL    HW282124  10.532   1.273   2.472 -1.4916 -0.1749 -1.5403
25430SOL     OW82125   6.010   8.270   0.616 -0.4319 -0.1239  0.1427
25430SOL    HW182126   5.992   8.335   0.684  0.4951  1.3222 -0.9357
25430SOL    HW282127   6.098   8.238   0.637  0.1347  0.8196 -0.7272
25431SOL     OW82128   5.063   2.526   0.353 -0.0404  0.2744 -0.5132
25431SOL    HW182129   4.997   2.588   0.385  1.8992  2.3700 -0.3425
25431SOL    HW282130   5.070   2.461   0.423 -0.8345  0.8732  0.1402
25432SOL     OW82131  10.205   7.011   4.561  0.6418 -0.0957  0.1560
25432SOL    HW182132  10.173   7.015   4.471 -2.2678 -0.0889  1.1011
25432SOL    HW282133  10.127   7.020   4.615  2.3579  0.4718  2.7244
25433SOL     OW82134   9.623   1.483   5.098 -0.4152 -0.1276  0.4083
25433SOL    HW182135   9.582   1.448   5.019 -0.0556  1.4615 -0.5235
25433SOL    HW282136   9.588   1.571   5.106  1.4124  0.6187  0.6226
25434SOL     OW82137   3.995   4.380   6.002 -0.2030  0.4140  0.5581
25434SOL    HW182138   3.938   4.433   5.945 -0.0861 -0.5925 -0.5384
25434SOL    HW282139   3.956   4.388   6.089 -0.7875  1.4392  0.2244
25435SOL     OW82140   1.252   6.538   7.218  0.6278  0.3897 -0.5710
25435SOL    HW182141   1.317   6.472   7.196  1.5660  1.6016 -1.5649
25435SOL    HW282142   1.271   6.561   7.309  0.5727 -0.3699 -0.3599
25436SOL     OW82143   1.345   0.602   2.294  0.4353  0.3308  0.2516
25436SOL    HW182144   1.400   0.657   2.350  1.8283  0.4907 -1.2080
25436SOL    HW282145   1.401   0.581   2.219 -1.5999  0.8195 -1.5032
25437SOL     OW82146   4.416   8.403   8.042  0.2109 -0.0888  0.1727
25437SOL    HW182147   4.339   8.367   7.997  1.0346 -1.8199  0.0660
25437SOL    HW282148   4.461   8.455   7.975  0.2734 -0.8640 -0.4039
25438SOL     OW82149   6.746   5.219   1.082 -0.2215  0.3989 -0.1838
25438SOL    HW182150   6.826   5.196   1.035 -0.0093 -1.4730  1.0048
25438SOL    HW282151   6.769   5.296   1.134  0.9525 -0.3666  0.4602
25439SOL     OW82152   3.966   4.585   7.617  0.4411 -0.9919  0.2539
25439SOL    HW182153   3.972   4.641   7.540  0.6072 -1.5504 -0.1510
25439SOL    HW282154   3.892   4.619   7.667  2.2134  1.3380  1.4725
25440SOL     OW82155   3.455   9.144   8.342  0.3043  0.0269  0.5656
25440SOL    HW182156   3.531   9.097   8.309 -0.2663 -1.5820  1.4518
25440SOL    HW282157   3.380   9.102   8.300 -0.1334  1.5193 -0.2118
25441SOL     OW82158   2.583   2.656   3.135  0.2892  0.2078 -0.4485
25441SOL    HW182159   2.554   2.626   3.221 -0.5383  1.0987 -0.3980
25441SOL    HW282160   2.595   2.751   3.146  1.9701  0.0668 -0.8298
25442SOL     OW82161   1.190   5.162  10.189 -0.0739 -0.2019  0.3825
25442SOL    HW182162   1.171   5.250  10.221 -0.8786  0.1194 -0.8744
25442SOL    HW282163   1.128   5.149  10.117  1.3923 -0.9873 -0.8108
25443SOL     OW82164   2.108   7.945   7.784  0.2713 -0.1677 -0.0340
25443SOL    HW182165   2.150   7.948   7.698  1.2764  0.3107  0.4629
25443SOL    HW282166   2.014   7.939   7.764  0.5664 -1.6459 -1.1596
25444SOL     OW82167   3.125   9.352   7.391  0.5357  0.5181  0.5028
25444SOL    HW182168   3.043   9.310   7.367  0.6325  0.8755 -0.5151
25444SOL    HW282169   3.108   9.393   7.476 -0.0767 -0.1087  0.6896
25445SOL     OW82170   8.661   4.244   2.429 -0.2736  0.0431 -0.2236
25445SOL    HW182171   8.728   4.263   2.495  1.3576  0.5599 -1.9448
25445SOL    HW282172   8.686   4.158   2.395 -1.8308 -0.7939  0.6408
25446SOL     OW82173   0.804   0.571   4.413  0.6298 -0.4004 -0.5652
25446SOL    HW182174   0.732   0.610   4.463  1.5348  1.0271 -0.3093
25446SOL    HW282175   0.874   0.637   4.416  0.8509 -0.3616 -3.4414
25447SOL     OW82176   7.989   6.338  10.789 -0.8749  0.5401  0.1322
25447SOL    HW182177   7.953   6.421  10.820 -1.8900 -0.7195  2.5713
25447SOL    HW282178   8.061   6.319  10.849  0.3145  0.3030 -1.3008
25448SOL     OW82179  10.434   6.972  10.672  0.2995  0.0906  0.0971
25448SOL    HW182180  10.490   6.995  10.746 -0.5354 -0.2303  0.8447
25448SOL    HW282181  10.425   7.054  10.623  0.3999  0.4491  0.6651
25449SOL     OW82182   1.486   8.893   8.314  0.0881 -0.4506 -0.0770
25449SOL    HW182183   1.429   8.962   8.348  0.1748 -1.4546  2.3143
25449SOL    HW282184   1.561   8.940   8.279  0.2869  0.7270  1.7570
25450SOL     OW82185   6.998   3.707  10.441 -0.6176  0.5507  0.2134
25450SOL    HW182186   7.082   3.663  10.431 -1.4795 -1.5655  1.6164
25450SOL    HW282187   6.952   3.689  10.359 -0.9454 -1.2122  0.7598
25451SOL     OW82188   2.169   8.326   4.648  0.0418  0.1595  0.0134
25451SOL    HW182189   2.089   8.372   4.675 -0.1918  0.0427 -0.4558
25451SOL    HW282190   2.231   8.396   4.628 -0.1045  0.2635 -0.0842
25452SOL     OW82191   0.955   0.977   1.298  0.1060 -0.3482  0.3692
25452SOL    HW182192   0.942   0.896   1.348 -2.8181  1.3941  2.8360
25452SOL    HW282193   0.904   0.964   1.218 -0.7320 -0.8349  0.9584
25453SOL     OW82194   7.370   5.888   3.752 -0.1656 -0.1556 -0.0705
25453SOL    HW182195   7.379   5.832   3.675  0.8459  0.0848 -0.1404
25453SOL    HW282196   7.429   5.849   3.817 -0.6462 -0.0765  0.4139
25454SOL     OW82197   5.569   5.358   7.784 -0.0291 -0.2615  0.0222
25454SOL    HW182198   5.506   5.428   7.767  0.3115 -0.5296 -2.8211
25454SOL    HW282199   5.529   5.306   7.854 -0.7157  2.1782  1.5626
25455SOL     OW82200   8.207   3.317   0.695 -0.0121 -0.0308 -0.5713
25455SOL    HW182201   8.232   3.285   0.782 -1.8099  2.1520  0.8495
25455SOL    HW282202   8.112   3.313   0.694 -0.0993  1.4738 -1.8364
25456SOL     OW82203   9.953   7.914   9.930 -0.1786  0.5249  0.3506
25456SOL    HW182204   9.932   7.826   9.901 -3.9406  1.6886 -1.0587
25456SOL    HW282205   9.979   7.904  10.022 -0.2203 -2.0353  0.1408
25457SOL     OW82206   3.709   0.947   3.530  0.1178 -0.1755  0.5777
25457SOL    HW182207   3.659   1.006   3.586 -0.9197 -0.9079  0.4491
25457SOL    HW282208   3.752   1.005   3.466  0.0995  0.5306  1.1911
25458SOL     OW82209   4.384   1.638   4.521  0.1567  0.0481  0.4281
25458SOL    HW182210   4.457   1.654   4.461 -0.1338  0.0834  0.0814
25458SOL    HW282211   4.425   1.603   4.600  0.9121  3.0800  1.5145
25459SOL     OW82212   4.033   3.118   1.758 -0.4592  0.1836 -0.3493
25459SOL    HW182213   4.042   3.182   1.829  0.4575  0.6570 -0.8753
25459SOL    HW282214   4.099   3.051   1.777  0.6771  0.9684 -1.4209
25460SOL     OW82215   8.198   7.438   1.020  0.0275 -0.2445 -0.4344
25460SOL    HW182216   8.252   7.492   1.078 -0.1371 -0.4737 -0.0625
25460SOL    HW282217   8.224   7.464   0.932  0.6653 -0.2747 -0.2584
25461SOL     OW82218   5.804   9.939   8.655 -0.0889 -0.3672 -0.3168
25461SOL    HW182219   5.746   9.994   8.707 -0.7654 -0.6573 -0.7485
25461SOL    HW282220   5.763   9.853   8.656  1.7167 -1.2958  1.5776
25462SOL     OW82221   3.783   6.851   0.777 -0.1830  0.3193  0.1987
25462SOL    HW182222   3.769   6.919   0.712  0.2976 -0.4629 -0.7379
25462SOL    HW282223   3.872   6.820   0.763 -1.2912 -2.5597 -1.4411
25463SOL     OW82224   9.209  10.823   9.057 -0.0747 -0.0434 -0.3298
25463SOL    HW182225   9.161  10.763   9.000 -0.2246  1.2709 -1.6701
25463SOL    HW282226   9.259  10.767   9.116  1.0070 -1.5248 -2.5270
25464SOL     OW82227  10.302   2.810   9.383 -0.0351 -0.4028  0.2012
25464SOL    HW182228  10.234   2.750   9.353  0.6337 -0.3805 -1.4678
25464SOL    HW282229  10.267   2.898   9.365 -0.8349 -0.2475  2.2508
25465SOL     OW82230   8.437   0.356   3.573  0.1340 -0.6763  0.1047
25465SOL    HW182231   8.366   0.306   3.533  0.0300 -1.3053  1.0543
25465SOL    HW282232   8.462   0.306   3.650  1.3128 -0.2324  0.0420
25466SOL     OW82233   1.662   6.405   8.295 -0.2644 -0.5112  0.1688
25466SOL    HW182234   1.727   6.341   8.269  0.0254 -0.3479  0.4821
25466SOL    HW282235   1.590   6.393   8.233  0.8764  0.6556 -1.4583
25467SOL     OW82236  10.726   0.765   3.638  0.0733  0.5696  0.1895
25467SOL    HW182237  10.698   0.748   3.549 -1.3128 -0.2155  0.7460
25467SOL    HW282238  10.734   0.860   3.644 -1.2325  0.7346 -0.3759
25468SOL     OW82239  10.228   7.924  10.815  0.3164  0.8282  0.3435
25468SOL    HW182240  10.142   7.910  10.854 -0.1023  1.3850 -0.3502
25468SOL    HW282241  10.271   7.986  10.874  0.0830  0.8680  0.4729
25469SOL     OW82242   1.721   2.750   7.026  0.1190 -0.4056 -0.0924
25469SOL    HW182243   1.684   2.711   6.947  0.7279  1.3198 -1.2871
25469SOL    HW282244   1.805   2.785   6.999 -0.2652  1.4826  0.9436
25470SOL     OW82245   7.980   9.487   2.412 -0.5300 -0.6037  0.3011
25470SOL    HW182246   7.959   9.579   2.404 -0.9753 -0.8714 -2.3641
25470SOL    HW282247   8.053   9.485   2.475 -0.7774  1.4798  0.7284
25471SOL     OW82248   9.456   1.851   3.322  0.0335 -0.6501 -0.0906
25471SOL    HW182249   9.527   1.860   3.258 -0.9386  1.2059 -0.9713
25471SOL    HW282250   9.479   1.771   3.371  1.5626 -1.3270 -1.7695
25472SOL     OW82251   5.288   1.478   3.246  0.3478  0.1402 -0.1474
25472SOL    HW182252   5.294   1.566   3.284 -1.6447  0.1308  0.2835
25472SOL    HW282253   5.285   1.420   3.322 -1.8827 -0.0062 -0.2916
25473SOL     OW82254   8.395  10.755   8.544  0.2549 -0.6430  0.2023
25473SOL    HW182255   8.433  10.833   8.584 -0.2198  0.2865 -1.0958
25473SOL    HW282256   8.307  10.782   8.516  0.2435 -1.5091 -0.6752
25474SOL     OW82257   0.849  10.331   6.308  0.4087 -0.0410  0.0767
25474SOL    HW182258   0.758  10.358   6.291  0.2424  0.2136  1.2873
25474SOL    HW282259   0.852  10.239   6.279 -0.4846 -0.3248  0.8126
25475SOL     OW82260   7.813   5.620   3.128  0.1698 -0.1588  0.1729
25475SOL    HW182261   7.775   5.647   3.212 -1.0370 -0.9235 -0.0992
25475SOL    HW282262   7.762   5.666   3.062  1.9508  1.4473 -0.1544
25476SOL     OW82263   5.068  10.488   5.028  0.8012  0.3015  0.4358
25476SOL    HW182264   5.108  10.405   5.005  0.6317  0.6487 -1.2880
25476SOL    HW282265   5.124  10.524   5.096  1.8533 -0.4551 -0.0016
25477SOL     OW82266   6.230   1.962   8.317  0.1462 -0.0893 -0.3906
25477SOL    HW182267   6.186   1.879   8.302 -1.7528  1.1650 -2.4456
25477SOL    HW282268   6.186   2.023   8.257  2.8871  1.9195 -0.5277
25478SOL     OW82269   0.106   2.335   4.886 -0.1060  0.0708  0.6426
25478SOL    HW182270   0.170   2.402   4.907 -1.1620  0.5963  2.4085
25478SOL    HW282271   0.129   2.306   4.798  1.1613  1.8249  0.3493
25479SOL     OW82272   5.798   9.366   8.924 -0.1753 -0.5354  0.0678
25479SOL    HW182273   5.843   9.434   8.973  0.1537 -1.5835  1.2640
25479SOL    HW282274   5.868   9.310   8.890 -0.4357 -0.2289 -1.0199
25480SOL     OW82275   1.622   5.549   2.491 -0.0624 -0.3457 -0.2133
25480SOL    HW182276   1.592   5.640   2.497 -1.0668 -0.7508  1.3877
25480SOL    HW282277   1.711   5.551   2.527  0.4839  0.2180 -1.5229
25481SOL     OW82278   1.412   1.620  10.620  0.1416 -0.1290  0.3853
25481SOL    HW182279   1.402   1.551  10.686  0.7809  1.0986  1.8207
25481SOL    HW282280   1.482   1.588  10.563  0.3149 -0.7459  0.9330
25482SOL     OW82281   3.465   2.420   8.156 -0.4238 -0.3323 -0.0368
25482SOL    HW182282   3.461   2.367   8.076 -0.1390  0.3846 -0.5299
25482SOL    HW282283   3.483   2.509   8.126  0.2038 -0.1400  0.8613
25483SOL     OW82284   1.215   0.857   3.672  0.2419 -0.3761  0.5374
25483SOL    HW182285   1.288   0.916   3.655  0.5235 -0.2756  1.9398
25483SOL    HW282286   1.188   0.825   3.586  1.9734 -0.4604  0.0060
25484SOL     OW82287   6.361   6.866   3.774  0.5006 -0.2867 -0.6290
25484SOL    HW182288   6.396   6.889   3.688  1.1354  0.5040 -0.1674
25484SOL    HW282289   6.354   6.770   3.771 -1.0180 -0.1665 -2.1264
25485SOL     OW82290   2.314   9.241   4.088 -0.4276 -0.2572  0.2252
25485SOL    HW182291   2.355   9.198   4.163  0.8834 -0.8004 -0.7510
25485SOL    HW282292   2.320   9.175   4.018 -0.2522  0.7703 -0.7491
25486SOL     OW82293   6.665   4.553   0.869  0.1501  1.0338  0.3122
25486SOL    HW182294   6.665   4.647   0.852  0.8587  0.8562 -0.7700
25486SOL    HW282295   6.614   4.543   0.949 -1.0258  2.2045 -0.2599
25487SOL     OW82296   0.809   8.467   5.077 -0.2125 -0.1577  0.3585
25487SOL    HW182297   0.861   8.531   5.127 -0.3580 -0.0516  0.3729
25487SOL    HW282298   0.864   8.446   5.001 -0.6016  0.7617 -0.1874
25488SOL     OW82299   7.016   0.698   0.989  0.2110 -0.0181 -0.2910
25488SOL    HW182300   7.083   0.767   0.990 -0.9273  1.1173  0.2734
25488SOL    HW282301   6.968   0.713   0.907  0.6256 -0.8210 -0.6893
25489SOL     OW82302   6.222   4.959   2.050  0.4595 -0.2095 -0.1057
25489SOL    HW182303   6.219   5.040   2.100 -0.5146  0.1443 -0.7055
25489SOL    HW282304   6.196   4.891   2.113  1.3175 -0.0732  0.4040
25490SOL     OW82305   4.627   0.671   0.139 -0.0821 -0.0065  0.1542
25490SOL    HW182306   4.638   0.687   0.045  2.8949 -0.8175  0.2579
25490SOL    HW282307   4.614   0.577   0.145 -0.0305  0.0169  0.5937
25491SOL     OW82308   7.102   9.527   7.760 -0.5796 -0.0443  0.2024
25491SOL    HW182309   7.071   9.617   7.761  0.5374  0.3499  1.4312
25491SOL    HW282310   7.172   9.524   7.826  0.1502 -1.5318 -0.5750
25492SOL     OW82311   7.991   2.166   0.251 -0.5965 -0.0531  0.2932
25492SOL    HW182312   7.898   2.178   0.234 -0.9281 -0.8141  1.4095
25492SOL    HW282313   8.018   2.097   0.191 -1.5660 -2.1729  2.1345
25493SOL     OW82314   1.087   5.173   9.409 -0.6021  0.2394 -0.2536
25493SOL    HW182315   1.040   5.127   9.479  1.5829  1.6480  2.3815
25493SOL    HW282316   1.180   5.159   9.431  0.1421  2.2981 -1.8036
25494SOL     OW82317   3.875   6.092   2.082 -0.6526  0.1915  0.3545
25494SOL    HW182318   3.850   6.139   2.003 -1.0928 -0.2452  0.2302
25494SOL    HW282319   3.793   6.063   2.120 -0.4046 -0.1914  0.6100
25495SOL     OW82320   4.450   6.289   7.396 -0.0891  0.3397 -0.0191
25495SOL    HW182321   4.441   6.234   7.474  1.7262  0.7283  0.5251
25495SOL    HW282322   4.448   6.228   7.323  2.0706 -0.5424  0.5872
25496SOL     OW82323   7.889  10.401  10.603 -0.3150 -0.1893  0.2807
25496SOL    HW182324   7.861  10.341  10.671  0.2442  0.5684  1.2121
25496SOL    HW282325   7.985  10.393  10.601 -0.2652  0.3672  0.1411
25497SOL     OW82326   4.227  10.821   1.670 -0.4564  0.6458  0.0345
25497SOL    HW182327   4.265  10.882   1.733 -0.4531 -0.2451  0.9150
25497SOL    HW282328   4.265  10.736   1.692 -3.1117 -0.3743  1.1860
25498SOL     OW82329   5.668   4.841   0.568 -0.8427 -0.1319 -0.0820
25498SOL    HW182330   5.735   4.897   0.531  0.2384 -1.3005  0.0377
25498SOL    HW282331   5.662   4.767   0.507  0.6133 -1.8454  1.7164
25499SOL     OW82332   3.283   0.353   1.729 -0.3229  0.0756 -0.2712
25499SOL    HW182333   3.343   0.374   1.800 -0.1560 -3.0487  0.6465
25499SOL    HW282334   3.203   0.402   1.750  0.4841  0.9960  0.7777
25500SOL     OW82335   4.988   8.220   6.266  0.2751 -0.2153 -0.0629
25500SOL    HW182336   5.008   8.262   6.349  0.1917 -0.1449 -0.0782
25500SOL    HW282337   5.066   8.170   6.245  0.0556 -0.7502  0.3762
25501SOL     OW82338   3.945   9.787   6.111 -0.1632  0.2679  0.1035
25501SOL    HW182339   4.035   9.755   6.115 -0.1746  0.2598  0.2839
25501SOL    HW282340   3.899   9.737   6.178 -0.0242  1.1676  0.8785
25502SOL     OW82341   5.235   9.894   4.137  0.1538  0.5021  0.6959
25502SOL    HW182342   5.186   9.976   4.134 -0.2751  0.2413  0.5133
25502SOL    HW282343   5.224   9.863   4.226 -0.4154  0.2019  0.5218
25503SOL     OW82344   1.325   9.532   9.051 -0.0695  0.4857  0.0004
25503SOL    HW182345   1.336   9.622   9.022 -0.3011 -0.0129 -1.7146
25503SOL    HW282346   1.239   9.530   9.092  0.6493  1.4117  1.6551
25504SOL     OW82347   8.620   5.030  10.591  0.1725 -0.2097 -0.0017
25504SOL    HW182348   8.685   5.098  10.573  0.6984 -0.8810 -0.7253
25504SOL    HW282349   8.651   4.986  10.670  0.3127 -0.1753 -0.0389
25505SOL     OW82350   6.827   9.466   4.812 -0.2288 -0.7189  0.1868
25505SOL    HW182351   6.916   9.442   4.835  0.0091 -1.0719 -1.0432
25505SOL    HW282352   6.788   9.496   4.894  1.8963  2.2536  0.2629
25506SOL     OW82353   0.201   0.284   2.424  0.0896  0.3349  0.0289
25506SOL    HW182354   0.116   0.269   2.383  0.2930 -1.5231  0.2058
25506SOL    HW282355   0.216   0.206   2.478  2.3619  0.0892 -0.8167
25507SOL     OW82356   2.796   1.967   9.653  0.8650  0.5080  0.1447
25507SOL    HW182357   2.742   2.009   9.586  1.4036 -0.7418 -1.1307
25507SOL    HW282358   2.867   2.029   9.669  0.7981  0.7800 -0.5635
25508SOL     OW82359   0.342   8.712   4.497 -0.4961 -0.3730  0.3743
25508SOL    HW182360   0.339   8.645   4.429  2.6769 -0.2181 -0.0790
25508SOL    HW282361   0.337   8.663   4.579  2.5989 -1.4308  0.0733
25509SOL     OW82362   7.457   8.796   6.888 -0.1429 -0.4120  0.2405
25509SOL    HW182363   7.497   8.749   6.814  3.0811  0.4630  1.2711
25509SOL    HW282364   7.449   8.886   6.857 -0.9968 -0.5023  0.1850
25510SOL     OW82365   5.335   7.180   9.270 -0.3182 -0.0976  0.3745
25510SOL    HW182366   5.271   7.130   9.321 -1.2026  0.2574 -0.3623
25510SOL    HW282367   5.282   7.232   9.209  0.6782  0.1682 -0.2907
25511SOL     OW82368   4.738   2.734   9.231 -0.5431 -0.8165 -0.5051
25511SOL    HW182369   4.715   2.642   9.241  0.7778 -1.2446 -1.1753
25511SOL    HW282370   4.724   2.752   9.138 -1.0073 -0.2684 -0.3345
25512SOL     OW82371   3.001  10.279   5.619 -0.2744  0.4392  0.0178
25512SOL    HW182372   3.068  10.235   5.567 -0.9011 -1.1026  0.4557
25512SOL    HW282373   2.920  10.268   5.568 -0.4076  1.3358  0.0121
25513SOL     OW82374  10.007   5.473  10.432  0.0831  0.6596  0.0104
25513SOL    HW182375   9.920   5.439  10.414  0.2707  0.6169 -0.8472
25513SOL    HW282376  10.058   5.396  10.458  0.2582  0.4124 -1.0020
25514SOL     OW82377   0.285   4.969   8.407 -0.3057  0.1234 -0.4556
25514SOL    HW182378   0.224   4.927   8.346 -0.4729  0.6618 -0.6669
25514SOL    HW282379   0.372   4.942   8.376 -0.4232 -2.6316  1.2626
25515SOL     OW82380   8.930   5.926   2.582 -0.2809 -0.1601  0.7432
25515SOL    HW182381   8.871   5.966   2.646  0.1194 -0.0808  1.0637
25515SOL    HW282382   8.898   5.958   2.497  1.6215  3.0882  1.0890
25516SOL     OW82383   6.287   3.379   1.996  0.1398  0.8767 -0.1102
25516SOL    HW182384   6.295   3.474   1.988  1.7207  0.6726 -1.3995
25516SOL    HW282385   6.302   3.346   1.908 -0.3620 -0.5720  0.3293
25517SOL     OW82386   9.996   3.153   4.723 -0.3471  0.4356  0.1681
25517SOL    HW182387  10.022   3.169   4.632 -2.4770  2.1159 -0.2259
25517SOL    HW282388   9.932   3.082   4.718 -0.7129  0.7531  0.2964
25518SOL     OW82389  10.892   6.916   9.778 -0.2649  0.3005  0.3543
25518SOL    HW182390  10.953   6.842   9.771 -1.6387 -0.9548  0.9893
25518SOL    HW282391  10.848   6.918   9.693 -3.3076 -2.5417  1.6167
25519SOL     OW82392   1.968   1.225   5.313  0.2546 -0.1594 -0.3690
25519SOL    HW182393   2.007   1.284   5.249 -0.9370 -0.3565 -1.3148
25519SOL    HW282394   1.882   1.264   5.332  0.4290 -0.3110  0.8312
25520SOL     OW82395   6.438   3.736   6.823 -1.2861 -0.7587  0.1792
25520SOL    HW182396   6.367   3.673   6.819 -2.3117  0.2397  1.4435
25520SOL    HW282397   6.469   3.732   6.914 -0.8037 -0.0721  0.0574
25521SOL     OW82398   4.754   2.219   0.656 -0.0303 -0.7257  0.4420
25521SOL    HW182399   4.788   2.177   0.576 -2.3613 -0.7644 -0.6178
25521SOL    HW282400   4.776   2.311   0.645  1.3076 -0.9911  0.6944
25522SOL     OW82401   0.493   8.708   5.313  0.1024 -0.2879 -0.1125
25522SOL    HW182402   0.434   8.646   5.357 -0.7325  1.7232  1.8082
25522SOL    HW282403   0.434   8.774   5.275  0.9312 -0.9031 -2.6515
25523SOL     OW82404   4.418   9.209   8.926  0.5097  0.1973  0.0156
25523SOL    HW182405   4.348   9.218   8.861  0.5824  1.8627  0.1275
25523SOL    HW282406   4.478   9.145   8.887 -0.0552  0.2653 -1.0065
25524SOL     OW82407   7.894   5.432  10.184 -0.7331  0.6883 -0.0007
25524SOL    HW182408   7.951   5.427  10.260 -2.0141  0.6291  0.9910
25524SOL    HW282409   7.875   5.525  10.174 -1.3473  0.6075  0.3663
25525SOL     OW82410   2.644  10.474   5.061  0.7445 -0.0400  0.0490
25525SOL    HW182411   2.725  10.424   5.057  0.2351 -0.9361  0.6937
25525SOL    HW282412   2.668  10.560   5.026  1.2942 -1.1591 -2.5825
25526SOL     OW82413   8.012   4.570   6.580 -0.2484  1.1619 -0.2402
25526SOL    HW182414   7.974   4.529   6.503  0.3612  0.8304 -0.3721
25526SOL    HW282415   7.944   4.564   6.647 -0.5162  0.8034 -0.5403
25527SOL     OW82416   5.131   5.587   7.058  0.1723 -0.8816  0.1073
25527SOL    HW182417   5.223   5.609   7.070  0.9116  0.3681 -5.1964
25527SOL    HW282418   5.132   5.496   7.027 -0.1125 -0.4386 -1.2942
25528SOL     OW82419   9.397   8.860   1.975  0.6915 -0.3369 -0.5279
25528SOL    HW182420   9.378   8.944   1.933  2.0308  0.2735  0.0576
25528SOL    HW282421   9.479   8.831   1.935  1.3591 -0.3210  0.7892
25529SOL     OW82422   2.092   4.436   7.982  0.1263 -0.0858  0.0001
25529SOL    HW182423   2.174   4.421   8.029  1.6986  0.0133 -2.5580
25529SOL    HW282424   2.064   4.350   7.954 -0.6930 -0.1177  0.8530
25530SOL     OW82425   9.897   4.387   8.994 -0.1753 -0.0302 -0.5164
25530SOL    HW182426   9.835   4.392   8.921 -0.4717  0.7460 -0.2141
25530SOL    HW282427   9.953   4.312   8.972 -1.4966 -1.0517 -0.5768
25531SOL     OW82428   0.315   2.601   0.090 -0.4103 -0.9720  0.7380
25531SOL    HW182429   0.246   2.665   0.109  0.5638 -0.3750  2.5661
25531SOL    HW282430   0.346   2.573   0.176  1.2539 -1.6160 -0.0247
25532SOL     OW82431   5.858   7.531   8.847  0.2524  0.0527 -0.0361
25532SOL    HW182432   5.803   7.540   8.925 -1.1580  0.2515 -1.0126
25532SOL    HW282433   5.849   7.615   8.801  0.6018 -0.2592 -0.6930
25533SOL     OW82434   5.644   2.468   2.446 -0.1730  0.4370  0.0805
25533SOL    HW182435   5.714   2.476   2.511 -0.8206  1.6521  0.6584
25533SOL    HW282436   5.668   2.392   2.394  1.0244  0.2034  0.9438
25534SOL     OW82437   2.162  10.510  10.856  0.1269  0.1500  0.0615
25534SOL    HW182438   2.090  10.541  10.910  0.3281  0.9861 -0.1363
25534SOL    HW282439   2.188  10.586  10.804 -0.3320 -0.7479 -1.5283
25535SOL     OW82440   7.809   5.248   8.708 -0.2924  0.1752 -0.2984
25535SOL    HW182441   7.814   5.195   8.628 -0.1471 -1.7528  0.9110
25535SOL    HW282442   7.766   5.191   8.772  2.0126  0.5555  1.7742
25536SOL     OW82443   3.484   2.622   9.698  0.8264 -0.8225 -0.0353
25536SOL    HW182444   3.559   2.627   9.639  0.5174 -1.1387 -0.4593
25536SOL    HW282445   3.482   2.531   9.728  0.9994 -0.6579  0.4961
25537SOL     OW82446   3.756   2.759   3.121 -0.0950  0.2933  0.3390
25537SOL    HW182447   3.774   2.695   3.190  0.7152  0.1834  0.0279
25537SOL    HW282448   3.671   2.732   3.086 -1.1239  1.0582  2.0816
25538SOL     OW82449   4.390   5.787   8.448  0.1917  0.1986 -0.2932
25538SOL    HW182450   4.319   5.834   8.403  0.2750 -0.6183 -1.3276
25538SOL    HW282451   4.354   5.768   8.535 -0.5905  0.4231 -0.5523
25539SOL     OW82452   3.271   0.772   4.043  0.2290 -0.3974  0.1032
25539SOL    HW182453   3.220   0.772   4.124 -0.2821 -0.5024 -0.2111
25539SOL    HW282454   3.320   0.690   4.044 -1.7276 -1.6619 -0.8761
25540SOL     OW82455   6.427   8.692   4.844 -0.5691  0.3501  0.2972
25540SOL    HW182456   6.353   8.727   4.895 -1.3959 -1.3451  0.3215
25540SOL    HW282457   6.388   8.626   4.788  0.3787  1.8901 -2.3521
25541SOL     OW82458  10.493   0.045   6.849  0.0277 -0.4270  0.0790
25541SOL    HW182459  10.477   0.113   6.783  2.3902 -0.1372 -0.2836
25541SOL    HW282460  10.435  -0.026   6.824 -3.2226  1.6731  0.9865
25542SOL     OW82461   8.388   5.189   4.928 -0.1291 -0.0014 -0.2580
25542SOL    HW182462   8.330   5.128   4.974 -0.6512  1.4106  1.0490
25542SOL    HW282463   8.476   5.157   4.947 -0.4016 -1.1809 -0.8418
25543SOL     OW82464   9.517   9.895   6.162  0.1748 -0.6596 -0.7805
25543SOL    HW182465   9.603   9.861   6.188  1.0211 -0.0677 -2.6308
25543SOL    HW282466   9.528   9.920   6.071 -1.6034  0.7029 -0.6749
25544SOL     OW82467   2.158   0.155   4.822  0.0044  0.2242 -0.0997
25544SOL    HW182468   2.249   0.167   4.850  0.6158 -0.5569 -1.6341
25544SOL    HW282469   2.150   0.061   4.809 -0.9309  0.3294 -0.3025
25545SOL     OW82470   6.728   4.866   9.319 -0.0122  0.7955 -0.0819
25545SOL    HW182471   6.673   4.787   9.323  1.0415  0.0697  0.4833
25545SOL    HW282472   6.675   4.934   9.359  0.4934 -0.5112  3.1135
25546SOL     OW82473  10.603   4.642   6.739  0.0646 -0.0058  0.6252
25546SOL    HW182474  10.556   4.576   6.790  1.0134 -1.6520 -0.5379
25546SOL    HW282475  10.539   4.711   6.724 -0.8626 -0.4787  2.1706
25547SOL     OW82476   9.624   4.764   4.337 -0.5692  0.4757  0.0857
25547SOL    HW182477   9.611   4.671   4.321  0.4804  0.4777 -0.8655
25547SOL    HW282478   9.557   4.808   4.284 -1.8399  0.2751  1.4227
25548SOL     OW82479   5.222   4.070   7.900 -0.3200 -0.0334 -0.3594
25548SOL    HW182480   5.143   4.111   7.866 -0.8544 -0.4609  0.3376
25548SOL    HW282481   5.277   4.143   7.929  0.1541  0.3446 -2.0941
25549SOL     OW82482   3.213   5.492   3.914 -0.7656 -0.4140 -0.0161
25549SOL    HW182483   3.296   5.534   3.934 -0.2332 -1.5592  0.2149
25549SOL    HW282484   3.229   5.441   3.835 -0.5919 -2.4433  1.2683
25550SOL     OW82485   9.221   4.806   6.172 -0.4887  0.3330 -0.6980
25550SOL    HW182486   9.209   4.873   6.239  0.6051  0.4500 -0.6022
25550SOL    HW282487   9.156   4.827   6.104 -1.2892  0.4826  0.0982
25551SOL     OW82488   9.617  10.337   4.336 -0.3726  0.8021  0.0642
25551SOL    HW182489   9.542  10.343   4.277 -1.1973  0.5320  1.0660
25551SOL    HW282490   9.662  10.421   4.325 -0.3717  0.6708 -1.1042
25552SOL     OW82491   6.658   3.948   3.578 -0.1183  0.3976  0.2089
25552SOL    HW182492   6.675   4.025   3.524 -0.6825  0.1255 -0.3780
25552SOL    HW282493   6.714   3.880   3.540 -1.1449 -0.0208 -0.5877
25553SOL     OW82494   0.839   0.814   1.096 -0.4147 -0.4981 -0.0432
25553SOL    HW182495   0.841   0.805   1.001 -0.2757 -1.5541  0.0515
25553SOL    HW282496   0.746   0.813   1.119 -0.4026 -2.3976  0.0100
25554SOL     OW82497   3.827   2.552  10.522  0.0838  0.0288 -0.0251
25554SOL    HW182498   3.765   2.494  10.565  1.3319 -0.1236  1.6690
25554SOL    HW282499   3.859   2.502  10.447 -0.6224 -0.5171  0.0276
25555SOL     OW82500   2.821   0.725   6.949  0.2707 -0.0719  0.0234
25555SOL    HW182501   2.824   0.751   6.857 -2.2506  0.0540 -0.0887
25555SOL    HW282502   2.819   0.808   6.997  2.4265 -0.1231  0.3080
25556SOL     OW82503   3.663   3.574   5.636  0.1794  0.2759  0.6258
25556SOL    HW182504   3.680   3.667   5.625 -3.5556  0.9439 -0.8062
25556SOL    HW282505   3.642   3.564   5.729 -0.7190  1.1389  0.5276
25557SOL     OW82506   5.372  10.118   2.954 -0.2603  0.4253 -0.3888
25557SOL    HW182507   5.446  10.152   3.004 -1.2562  2.6186 -0.2777
25557SOL    HW282508   5.398  10.029   2.929  2.1745  0.9428  0.0680
25558SOL     OW82509   5.933  10.626   8.857 -0.5120 -0.5924 -0.5880
25558SOL    HW182510   6.006  10.685   8.840  1.1317 -2.2309  0.4044
25558SOL    HW282511   5.889  10.617   8.772  0.0952  0.8492 -1.0816
25559SOL     OW82512   6.386   6.581   0.372 -0.0779 -0.3258  0.1976
25559SOL    HW182513   6.398   6.599   0.279  0.8943  1.4187  0.6110
25559SOL    HW282514   6.363   6.488   0.376  1.9388 -0.9826 -1.6269
25560SOL     OW82515   1.338   4.352  10.843 -0.3490  0.1725 -0.1887
25560SOL    HW182516   1.395   4.320  10.773  0.7290 -0.5980  1.0068
25560SOL    HW282517   1.387   4.423  10.884 -0.2091 -0.5247  0.8779
25561SOL     OW82518   5.829   1.763   1.145 -0.2504  0.3085  0.3766
25561SOL    HW182519   5.782   1.844   1.125 -1.2842 -0.3809 -0.0522
25561SOL    HW282520   5.781   1.695   1.098  1.2111 -0.4249 -0.1125
25562SOL     OW82521   6.173  10.753  10.686  0.2114 -0.2282  0.8031
25562SOL    HW182522   6.216  10.711  10.612 -0.1707 -0.6420  0.8113
25562SOL    HW282523   6.115  10.685  10.721 -0.6079  0.3806  0.6537
25563SOL     OW82524   2.297   3.880  10.033 -0.4059 -0.1025  0.3347
25563SOL    HW182525   2.340   3.966  10.033  1.2885 -0.8741 -0.9972
25563SOL    HW282526   2.227   3.888   9.969  0.0142  0.1766 -0.0961
25564SOL     OW82527   8.026   4.738   0.082  0.1231 -0.6036 -0.2077
25564SOL    HW182528   8.100   4.754   0.022  0.0831 -1.7698 -0.5998
25564SOL    HW282529   7.948   4.748   0.027  0.1055 -2.4195 -0.5888
25565SOL     OW82530   4.050   3.815   6.097  0.2224 -0.6400  0.1658
25565SOL    HW182531   3.955   3.829   6.099  0.1610 -1.1316  1.3487
25565SOL    HW282532   4.069   3.765   6.176  1.9389  2.1784  1.6667
25566SOL     OW82533   4.936   2.035  10.014 -0.4081 -0.6755  0.4249
25566SOL    HW182534   4.969   1.946  10.029  1.2606 -0.0599  0.5834
25566SOL    HW282535   4.930   2.074  10.101  0.7420 -0.0115  0.2227
25567SOL     OW82536   0.426   2.559   1.225 -0.1406 -0.1412 -0.4808
25567SOL    HW182537   0.409   2.583   1.316 -0.6956 -1.3532 -0.2496
25567SOL    HW282538   0.461   2.470   1.230  2.2968  0.6920 -1.2624
25568SOL     OW82539   5.583   2.787   1.653 -0.2347  0.4526  0.2291
25568SOL    HW182540   5.593   2.719   1.719 -0.9839  0.8796  0.7969
25568SOL    HW282541   5.493   2.818   1.664  0.2414  1.8655  0.3013
25569SOL     OW82542   5.552  10.034   3.957 -0.6350  0.2229  0.1017
25569SOL    HW182543   5.645  10.021   3.974 -1.1911 -1.8415  1.9540
25569SOL    HW282544   5.521  10.085   4.031 -1.2596 -0.4697  0.3285
25570SOL     OW82545   3.995  10.507   3.541 -0.1377 -0.0943  0.2571
25570SOL    HW182546   3.922  10.491   3.481  1.1386 -0.3848 -1.2584
25570SOL    HW282547   3.955  10.555   3.614 -1.6677  0.5687 -0.9638
25571SOL     OW82548   3.422   3.975   1.277 -0.2054 -0.4784  0.0004
25571SOL    HW182549   3.330   3.952   1.267  0.2388 -2.2625 -0.2182
25571SOL    HW282550   3.420   4.062   1.317 -1.9723 -0.2451 -0.4914
25572SOL     OW82551   4.108   8.636  10.153 -0.3425  0.5818  0.7237
25572SOL    HW182552   4.078   8.723  10.128  0.7533  0.9933  0.7890
25572SOL    HW282553   4.204   8.641  10.148 -0.1890 -0.1246  2.2844
25573SOL     OW82554   4.837   3.902   9.224  0.0384  0.3176  0.2932
25573SOL    HW182555   4.906   3.929   9.285 -0.8441  0.9140  1.0567
25573SOL    HW282556   4.858   3.946   9.142  1.4975 -0.8448 -0.0167
25574SOL     OW82557   8.385   2.616   2.559 -0.3984  0.4254  0.2687
25574SOL    HW182558   8.340   2.678   2.616 -1.1120  0.6458 -0.5208
25574SOL    HW282559   8.441   2.670   2.504 -0.4896  0.3067  0.0585
25575SOL     OW82560   2.150   2.673  10.699  0.4983  0.7353 -0.1592
25575SOL    HW182561   2.211   2.608  10.665 -0.4501 -0.3537  0.1731
25575SOL    HW282562   2.160   2.748  10.640  3.1976  1.1866  0.7216
25576SOL     OW82563   7.203   8.471   5.990  0.1394 -0.4057  0.4152
25576SOL    HW182564   7.188   8.550   6.042 -0.0153 -0.2807  0.1815
25576SOL    HW282565   7.198   8.399   6.053  0.1771 -0.2391  0.6103
25577SOL     OW82566   1.665   3.683   7.693 -0.0692 -0.6780 -0.3582
25577SOL    HW182567   1.640   3.590   7.688  0.2608 -0.9258  1.6023
25577SOL    HW282568   1.725   3.696   7.619 -0.5787 -1.8657 -1.0093
25578SOL     OW82569   5.990   4.821   9.519 -0.1859 -0.0513  0.3104
25578SOL    HW182570   5.915   4.768   9.547  0.4543 -0.3252  1.5893
25578SOL    HW282571   5.987   4.898   9.576 -0.1878  0.5365 -0.4653
25579SOL     OW82572   7.865   2.369  10.725  0.1026  0.1839  0.1472
25579SOL    HW182573   7.856   2.419  10.644 -0.3750  0.1195  0.1594
25579SOL    HW282574   7.799   2.407  10.783 -0.2711 -0.4693  0.1558
25580SOL     OW82575   4.979   6.401   6.323  0.2108  0.1799  0.6714
25580SOL    HW182576   4.960   6.307   6.325  1.3124 -0.0602  0.5022
25580SOL    HW282577   4.901   6.442   6.362  0.3770 -0.9028  2.2495
25581SOL     OW82578   2.722   0.625  10.637 -0.3616 -0.6498 -0.4388
25581SOL    HW182579   2.794   0.611  10.576 -0.0446 -0.4792 -0.1102
25581SOL    HW282580   2.753   0.586  10.719  1.1959  3.1041  0.9724
25582SOL     OW82581   2.096   3.840   9.855  0.5474  0.1683 -0.2940
25582SOL    HW182582   2.108   3.806   9.766  1.2517  0.8770 -0.4815
25582SOL    HW282583   2.011   3.806   9.882  0.7886 -0.9255 -0.8394
25583SOL     OW82584   6.647   2.219   1.172  0.0164 -0.0907 -0.1874
25583SOL    HW182585   6.685   2.204   1.258 -0.1625  1.6753  0.2303
25583SOL    HW282586   6.612   2.133   1.146  0.5294 -0.7642  1.2543
25584SOL     OW82587   5.991   8.368   6.331  0.7262 -0.0153  0.7713
25584SOL    HW182588   5.927   8.375   6.402  0.0000 -3.4411  0.6215
25584SOL    HW282589   6.059   8.310   6.365  1.7860  0.4766 -0.4274
25585SOL     OW82590   1.296   0.883   4.410  0.6564  0.2740  0.0398
25585SOL    HW182591   1.349   0.921   4.340 -1.1298  0.4839 -1.2552
25585SOL    HW282592   1.343   0.802   4.433  1.2875  0.1850 -1.4105
25586SOL     OW82593   1.370   2.071   0.379  0.1697 -0.1170  0.4151
25586SOL    HW182594   1.281   2.105   0.395 -0.1604 -1.0718  0.6314
25586SOL    HW282595   1.427   2.142   0.409 -0.5126  0.5267  0.2480
25587SOL     OW82596   1.646   2.636  10.723 -0.0629 -0.2372  0.1472
25587SOL    HW182597   1.608   2.627  10.636  1.3941 -1.2089 -0.4251
25587SOL    HW282598   1.739   2.655  10.707  0.4063 -1.2236  1.4692
25588SOL     OW82599   6.603   6.809   1.016  0.1311 -0.3020 -0.2860
25588SOL    HW182600   6.611   6.730   1.070 -1.3221 -0.2658  0.0105
25588SOL    HW282601   6.691   6.847   1.016  0.1354 -0.1938  2.2375
25589SOL     OW82602   0.218   5.937   9.574  0.2424  0.7009 -0.0548
25589SOL    HW182603   0.132   5.925   9.614  0.3196 -1.6208 -0.4268
25589SOL    HW282604   0.253   6.016   9.616 -1.5940  1.0700  0.9144
25590SOL     OW82605   7.519   1.205   8.021  0.3839  0.6788  0.1619
25590SOL    HW182606   7.536   1.272   7.955 -0.7535  1.8885  1.0560
25590SOL    HW282607   7.458   1.145   7.979  2.1157 -0.3830 -0.9719
25591SOL     OW82608   4.954  10.500   9.244 -0.0548  0.5519 -0.0352
25591SOL    HW182609   4.961  10.571   9.180 -0.2447  1.0169  0.4492
25591SOL    HW282610   5.002  10.532   9.321 -0.4959  0.3408  0.3365
25592SOL     OW82611   9.406   9.243   4.786  0.2721  0.4408  0.1297
25592SOL    HW182612   9.351   9.322   4.784  0.7202  0.7468 -0.4725
25592SOL    HW282613   9.344   9.171   4.794 -0.1660  0.8323  0.3272
25593SOL     OW82614   4.131   0.792   3.711 -0.2940  0.2533 -0.0386
25593SOL    HW182615   4.050   0.781   3.760 -1.5071 -0.9867 -2.1715
25593SOL    HW282616   4.157   0.703   3.688  0.5572  0.7545 -1.0921
25594SOL     OW82617  10.386   8.205   6.913  0.4435 -0.3855 -0.2295
25594SOL    HW182618  10.417   8.257   6.987 -0.5411 -0.4426  0.2413
25594SOL    HW282619  10.372   8.118   6.951  0.9245 -0.6859 -0.7317
25595SOL     OW82620   0.198   7.290   0.068 -0.1466  0.2902  0.1216
25595SOL    HW182621   0.124   7.296   0.129  0.3026  1.3632  0.5850
25595SOL    HW282622   0.207   7.197   0.050 -0.4192 -0.0294  1.5464
25596SOL     OW82623   8.961   9.281   6.949 -0.1266 -0.2543  0.7071
25596SOL    HW182624   8.911   9.267   7.030 -0.6751 -1.9574  0.1010
25596SOL    HW282625   8.979   9.194   6.916  0.6648  0.4082 -0.6817
25597SOL     OW82626   3.721   2.501   7.487 -0.3739  0.0556  0.3745
25597SOL    HW182627   3.757   2.463   7.407 -0.7604  0.5816 -0.0601
25597SOL    HW282628   3.637   2.539   7.459  0.7380  2.6997  0.4110
25598SOL     OW82629   0.258   4.453   2.028  0.0665  0.3333 -0.1299
25598SOL    HW182630   0.227   4.374   2.074  0.2061 -0.1520 -0.8581
25598SOL    HW282631   0.331   4.422   1.974 -0.7902  0.6646 -1.5224
25599SOL     OW82632   6.873  10.740   4.271  0.5812 -0.6411  0.2574
25599SOL    HW182633   6.829  10.655   4.272  1.1021 -0.9355 -0.7656
25599SOL    HW282634   6.955  10.725   4.318  1.0522 -0.9317 -0.6344
25600SOL     OW82635   4.065   4.003   5.095  0.0168  0.3624 -0.2483
25600SOL    HW182636   4.131   4.068   5.070  0.7937 -0.5763 -0.7034
25600SOL    HW282637   4.028   3.974   5.012 -1.2236  1.1195  0.0233
25601SOL     OW82638   3.123   4.003  10.586 -0.3656  0.4077  0.2990
25601SOL    HW182639   3.208   4.047  10.591  0.1293 -0.4433 -0.4796
25601SOL    HW282640   3.066   4.068  10.544  0.2902  0.4275 -0.6033
25602SOL     OW82641   6.971   6.608   2.195 -0.2038  0.0395  0.1974
25602SOL    HW182642   6.947   6.531   2.247  2.4889 -0.8772  0.2000
25602SOL    HW282643   6.973   6.577   2.105 -0.5977  0.5134  0.0230
25603SOL     OW82644   3.881   8.909   0.844 -0.2196  0.2339 -0.2647
25603SOL    HW182645   3.966   8.885   0.881  0.1538  0.5629 -0.8911
25603SOL    HW282646   3.861   8.993   0.885 -0.0080  0.3905 -0.4750
25604SOL     OW82647  10.623   0.001   0.354  1.4533  0.7502  0.4346
25604SOL    HW182648  10.658   0.022   0.268  1.0296  1.6682  0.4712
25604SOL    HW282649  10.575  -0.080   0.342  0.3771  1.4949 -0.4892
25605SOL     OW82650   1.071   3.080   7.660  0.3303 -0.1845 -0.2244
25605SOL    HW182651   1.156   3.052   7.627  0.8161  1.3715 -0.3742
25605SOL    HW282652   1.012   3.076   7.585  0.6897  0.3756 -0.5375
25606SOL     OW82653   2.398   4.753   7.363 -0.5486 -0.1355 -0.4439
25606SOL    HW182654   2.393   4.661   7.390  1.8152  0.2858  1.7962
25606SOL    HW282655   2.411   4.802   7.444 -1.7671  2.2494 -1.5590
25607SOL     OW82656   5.820   6.956   9.205 -0.1316 -0.5260 -0.1594
25607SOL    HW182657   5.912   6.983   9.198  0.0221 -0.0086  2.6481
25607SOL    HW282658   5.771   7.027   9.164  0.6022  1.0690  1.5552
25608SOL     OW82659   1.432   0.863   3.367  0.2803  0.2432 -0.1801
25608SOL    HW182660   1.400   0.949   3.396 -0.6037 -0.0341 -0.3092
25608SOL    HW282661   1.412   0.861   3.273  1.1558  0.2683 -0.3729
25609SOL     OW82662   0.481   3.692   9.149 -0.0129 -0.2389  0.9295
25609SOL    HW182663   0.495   3.767   9.091  0.0552  0.0166  1.2731
25609SOL    HW282664   0.550   3.630   9.124 -0.9462 -0.7955 -0.3360
25610SOL     OW82665  10.016   2.552   2.814 -0.0941  0.3938  0.0468
25610SOL    HW182666   9.949   2.592   2.870  0.4689  0.0000  1.0351
25610SOL    HW282667   9.994   2.580   2.725  0.4137  3.1290  0.6957
25611SOL     OW82668   9.942   6.299   9.186 -1.0266  0.4590  0.1985
25611SOL    HW182669   9.891   6.257   9.117 -0.3171  0.0275 -0.0636
25611SOL    HW282670   9.945   6.391   9.161 -1.2671  0.4041 -0.0373
25612SOL     OW82671   4.603  10.880   3.837 -0.0799 -0.8428  0.8286
25612SOL    HW182672   4.690  10.878   3.796  0.7547 -0.8288  2.5350
25612SOL    HW282673   4.551  10.821   3.784  1.2729 -1.7063  0.4055
25613SOL     OW82674   4.380   5.303   0.929  0.1786  0.4584 -0.3917
25613SOL    HW182675   4.334   5.293   0.846  0.4919  2.1180 -0.7985
25613SOL    HW282676   4.406   5.214   0.952 -2.5247 -0.4486 -0.5121
25614SOL     OW82677   6.944  10.278   4.558  0.6349 -0.0567 -0.0845
25614SOL    HW182678   6.968  10.357   4.509 -0.8709  1.3452  1.3285
25614SOL    HW282679   7.020  10.261   4.614  0.7540  0.7146 -0.0031
25615SOL     OW82680  10.433   6.718   3.986 -0.3325  0.3870 -0.5859
25615SOL    HW182681  10.465   6.628   3.990 -2.4400 -0.4060 -0.2084
25615SOL    HW282682  10.497   6.763   3.931  0.7743 -1.3261 -0.8013
25616SOL     OW82683   9.495   9.653   3.855 -0.4918  0.1811 -0.1730
25616SOL    HW182684   9.454   9.611   3.780  0.0369 -1.1341  0.2379
25616SOL    HW282685   9.554   9.586   3.891  0.2266  1.2118  0.6471
25617SOL     OW82686   4.803   1.041  10.595 -0.2756 -0.2020 -0.1953
25617SOL    HW182687   4.711   1.024  10.573 -0.1842 -1.8346  0.5089
25617SOL    HW282688   4.853   1.003  10.523 -0.0481 -3.8494  1.6414
25618SOL     OW82689   8.642   4.227   7.398  0.6501 -0.0958 -0.0680
25618SOL    HW182690   8.737   4.217   7.395  0.3754 -5.2944 -1.0959
25618SOL    HW282691   8.618   4.254   7.310  1.1209 -0.0272 -0.1806
25619SOL     OW82692   9.214   2.678   6.193  0.1182  0.3288 -0.7756
25619SOL    HW182693   9.267   2.694   6.115  0.9381 -0.6611 -0.4407
25619SOL    HW282694   9.221   2.760   6.242  0.1111  0.7378 -1.4414
25620SOL     OW82695   4.380  10.591   1.632  0.0404 -0.1750  0.4373
25620SOL    HW182696   4.457  10.628   1.676  0.0853  0.2025  0.0390
25620SOL    HW282697   4.391  10.613   1.540 -0.9197  0.5505  0.4786
25621SOL     OW82698   9.957   1.780   5.562  0.7445  0.9031 -0.4703
25621SOL    HW182699  10.041   1.822   5.581  1.1410 -0.0068 -0.1797
25621SOL    HW282700   9.914   1.772   5.647  0.3743  1.3244 -0.6126
25622SOL     OW82701   4.363  10.518   4.070 -0.1220  0.0118  0.2035
25622SOL    HW182702   4.291  10.481   4.017  0.8267 -0.1368 -1.0371
25622SOL    HW282703   4.321  10.583   4.125 -1.6086 -1.7588  1.3047
25623SOL     OW82704   2.834  10.728   7.073 -0.0756  0.2448 -0.0399
25623SOL    HW182705   2.915  10.678   7.089  0.3000  0.6386 -0.6841
25623SOL    HW282706   2.845  10.764   6.985 -0.3482  1.4592  0.4065
25624SOL     OW82707   6.823   3.838   4.091  0.1908  0.6698  0.0964
25624SOL    HW182708   6.818   3.802   4.002  0.7379 -0.5167  0.5218
25624SOL    HW282709   6.756   3.789   4.140  0.2165  0.9787  0.4439
25625SOL     OW82710  10.880   5.875   2.301  0.1168  0.2064  0.3303
25625SOL    HW182711  10.915   5.795   2.262 -0.5060 -0.1343  0.4527
25625SOL    HW282712  10.794   5.885   2.261  0.1780  0.8009  0.3393
25626SOL     OW82713   9.355   3.591   9.659  0.4088  0.1814  0.1914
25626SOL    HW182714   9.365   3.597   9.564 -1.5459  1.3388  0.0007
25626SOL    HW282715   9.272   3.545   9.672  0.6014  0.1239  1.3400
25627SOL     OW82716   6.655  10.028   5.784  0.2885 -0.1262  0.4402
25627SOL    HW182717   6.692  10.116   5.799  0.7797 -0.4062  0.9288
25627SOL    HW282718   6.602  10.012   5.862 -2.1122  0.8720 -0.9070
25628SOL     OW82719   2.864   0.519   1.410  0.1481  0.1079 -0.1211
25628SOL    HW182720   2.941   0.509   1.466 -0.7169  0.6997  1.2267
25628SOL    HW282721   2.889   0.586   1.347  0.4557  0.9478  0.8629
25629SOL     OW82722   4.188   8.620   4.642 -0.0483  0.1442  0.7797
25629SOL    HW182723   4.120   8.552   4.636  0.5013 -0.3039 -2.4159
25629SOL    HW282724   4.140   8.699   4.665 -1.4575 -0.4532  0.0769
25630SOL     OW82725  10.184   5.931   6.066  0.2268 -0.7982  0.3233
25630SOL    HW182726  10.108   5.902   6.015 -0.6581  1.5965  0.1740
25630SOL    HW282727  10.242   5.972   6.002 -0.1506  0.7897  0.9596
25631SOL     OW82728   4.789   8.797   0.030 -0.1142 -0.5358 -0.1276
25631SOL    HW182729   4.795   8.853   0.107  0.2397  0.6047 -0.9516
25631SOL    HW282730   4.880   8.788  -0.000 -0.0733 -2.1643  0.3863
25632SOL     OW82731   6.163   2.359   8.799 -0.4035 -1.0506  0.1078
25632SOL    HW182732   6.205   2.444   8.791 -0.1315 -1.1923  0.0379
25632SOL    HW282733   6.235   2.297   8.807 -0.5567 -1.4064 -1.0933
25633SOL     OW82734   9.911   6.120   1.227  0.9247  0.1607 -0.0564
25633SOL    HW182735   9.841   6.179   1.199  0.0708 -0.5432  0.5368
25633SOL    HW282736   9.973   6.119   1.154 -0.1244  0.1020 -0.9726
25634SOL     OW82737   1.360   0.794   3.062  0.7142 -0.3149  0.1647
25634SOL    HW182738   1.268   0.796   3.087  1.2068  0.1279  2.1089
25634SOL    HW282739   1.379   0.883   3.032  0.4935 -0.4283 -0.3132
25635SOL     OW82740   4.868   7.010   9.338 -0.1082  0.4849 -0.3652
25635SOL    HW182741   4.832   7.055   9.262 -0.1340 -0.8844 -1.1861
25635SOL    HW282742   4.791   6.979   9.386 -0.1382 -2.6389 -2.2392
25636SOL     OW82743   7.057   1.610   2.825  0.8043 -0.5844  0.0517
25636SOL    HW182744   7.084   1.535   2.877 -0.5260 -2.3055 -1.5970
25636SOL    HW282745   7.020   1.572   2.745 -1.8888  1.6825  0.0418
25637SOL     OW82746   2.106   6.692   9.594 -0.6834 -0.2295 -0.4054
25637SOL    HW182747   2.141   6.779   9.573 -2.7007  0.6056 -0.4494
25637SOL    HW282748   2.172   6.654   9.653 -0.7584  2.1852  1.3934
25638SOL     OW82749   5.803   6.324   1.353  0.2561  0.0832  0.2181
25638SOL    HW182750   5.718   6.284   1.340  0.4291 -0.3964  0.5314
25638SOL    HW282751   5.830   6.296   1.440  0.8967 -0.0808 -0.0235
25639SOL     OW82752   0.758   2.945   6.366 -0.9725 -0.3829  0.6157
25639SOL    HW182753   0.692   2.997   6.322 -0.5868 -2.3973 -2.6645
25639SOL    HW282754   0.717   2.860   6.380  0.8009 -1.7113 -1.5815
25640SOL     OW82755   2.939   7.725  10.768 -0.1296 -0.2874 -0.6504
25640SOL    HW182756   3.031   7.703  10.779 -0.3252 -0.7233  0.2362
25640SOL    HW282757   2.922   7.791  10.836  0.2274  2.0196 -2.6891
25641SOL     OW82758   0.384   8.227   3.758  0.4460 -0.0424  0.5649
25641SOL    HW182759   0.381   8.307   3.707 -3.8718  0.1687  0.8266
25641SOL    HW282760   0.413   8.255   3.845  0.3115  0.9695  0.2936
25642SOL     OW82761   9.726   5.109   9.035  0.1662 -0.3145 -0.3069
25642SOL    HW182762   9.807   5.142   8.997 -0.4507  1.4847 -0.1152
25642SOL    HW282763   9.660   5.175   9.013 -0.8788 -0.8657  1.0661
25643SOL     OW82764   4.115   5.082   8.725 -0.3681 -0.0224 -0.6548
25643SOL    HW182765   4.082   5.061   8.812 -0.9920  1.4658 -0.5061
25643SOL    HW282766   4.183   5.017   8.709  1.4682  1.1008  1.9454
25644SOL     OW82767   3.589  10.050   4.566  0.0311  0.1269  0.0548
25644SOL    HW182768   3.532  10.107   4.617  0.1614  0.3430 -0.0433
25644SOL    HW282769   3.635   9.997   4.631 -0.7786 -0.5186  0.1075
25645SOL     OW82770  10.244   2.865   7.501 -0.2204 -0.2347 -0.7340
25645SOL    HW182771  10.330   2.904   7.517  0.4718 -1.6783 -0.7914
25645SOL    HW282772  10.189   2.901   7.570  1.5445 -2.7411  2.2081
25646SOL     OW82773   6.741   6.921   9.640 -0.0879  0.2546  0.2422
25646SOL    HW182774   6.773   6.872   9.716  0.4464  0.3878  0.1123
25646SOL    HW282775   6.654   6.950   9.665 -0.5064 -0.9474  0.2353
25647SOL     OW82776   5.872   9.525  10.825  0.5434 -0.1317  0.0548
25647SOL    HW182777   5.886   9.543  10.918 -0.3630 -1.3353  0.4527
25647SOL    HW282778   5.780   9.547  10.810 -0.2269 -2.8807  0.2417
25648SOL     OW82779   6.518   0.733   5.668  0.5957 -0.2431  0.4923
25648SOL    HW182780   6.452   0.796   5.640  0.9784 -0.3497 -0.7112
25648SOL    HW282781   6.573   0.781   5.731 -0.3826 -0.0465  1.2158
25649SOL     OW82782   1.726   9.499   4.946 -0.0039  0.7653 -0.4730
25649SOL    HW182783   1.640   9.478   4.909  0.2216  0.6151 -0.9267
25649SOL    HW282784   1.788   9.453   4.889  0.3524  0.4830  0.1326
25650SOL     OW82785   9.923   4.930   1.204  0.0196  0.0800  1.0015
25650SOL    HW182786   9.998   4.909   1.149 -0.5141 -2.4371  1.0985
25650SOL    HW282787   9.938   5.020   1.233  2.1920  0.1670 -0.2118
25651SOL     OW82788   8.984   5.016   0.000  0.5606 -0.1208  0.4239
25651SOL    HW182789   9.004   4.926  -0.028  2.8588 -0.1191  1.7784
25651SOL    HW282790   9.002   5.070  -0.077 -1.4211 -0.8027 -0.5966
25652SOL     OW82791   0.013   0.629   7.294 -0.5261  0.5991 -0.4455
25652SOL    HW182792   0.101   0.598   7.273  0.6895  1.4287  2.7962
25652SOL    HW282793  -0.029   0.555   7.337 -1.2639  0.3503 -1.5810
25653SOL     OW82794   0.382   7.162   1.856 -0.8203  0.6985  0.2126
25653SOL    HW182795   0.301   7.205   1.829 -1.2730  0.0352  0.4705
25653SOL    HW282796   0.395   7.092   1.791 -0.0934  1.2117 -0.2056
25654SOL     OW82797   8.524   1.644   3.115  0.0894  0.0553  0.2521
25654SOL    HW182798   8.511   1.554   3.144 -0.2716  0.0428  0.0708
25654SOL    HW282799   8.617   1.661   3.129 -0.0083 -0.0543  1.0927
25655SOL     OW82800   8.448   9.836   6.494  0.6049 -0.0127 -0.1674
25655SOL    HW182801   8.490   9.893   6.559  0.8480  0.0352 -0.3653
25655SOL    HW282802   8.443   9.751   6.538 -0.4357  0.3244  0.4079
25656SOL     OW82803   8.718   6.302   3.944 -0.6208  0.0733  0.2909
25656SOL    HW182804   8.686   6.213   3.933  1.7391 -1.0451  1.7061
25656SOL    HW282805   8.695   6.325   4.034  1.9596 -0.6028  1.2047
25657SOL     OW82806   2.521   5.349   7.103  0.9904 -0.5396 -0.1091
25657SOL    HW182807   2.430   5.368   7.126  1.2472 -0.2394  0.7048
25657SOL    HW282808   2.527   5.367   7.010  0.8399  1.9806  0.2926
25658SOL     OW82809   4.908   9.373   3.939  0.1600 -0.5415  0.0278
25658SOL    HW182810   4.842   9.304   3.943  0.8602 -1.3211 -1.2941
25658SOL    HW282811   4.860   9.450   3.908 -0.0330 -1.2819 -1.6327
25659SOL     OW82812   8.289   9.233   5.114  0.3009 -0.2030 -0.2023
25659SOL    HW182813   8.383   9.249   5.114  0.0794  1.3248 -0.8581
25659SOL    HW282814   8.270   9.206   5.024  0.0133  0.3183 -0.3049
25660SOL     OW82815   8.216   9.110   3.457  0.1858 -1.1340 -0.2015
25660SOL    HW182816   8.289   9.053   3.433  0.9209  0.1229 -1.0512
25660SOL    HW282817   8.148   9.089   3.393  0.4688 -1.0460 -0.5387
25661SOL     OW82818   3.879   3.004   3.066  0.1845 -0.5331  0.0832
25661SOL    HW182819   3.841   3.053   3.138 -0.7880  1.9442 -1.9341
25661SOL    HW282820   3.832   2.921   3.066 -0.9123  0.0453  1.3567
25662SOL     OW82821   3.997   7.873   7.766 -0.6243 -0.5415  0.0708
25662SOL    HW182822   3.920   7.887   7.820 -1.4611 -0.4041 -1.1227
25662SOL    HW282823   4.043   7.800   7.809 -1.2791 -0.4653  0.9329
25663SOL     OW82824   8.285   9.314   8.979 -0.2317  0.2786 -0.7499
25663SOL    HW182825   8.281   9.246   8.911 -1.6272  1.6524 -2.1158
25663SOL    HW282826   8.301   9.395   8.930 -0.2918  1.1750  0.6804
25664SOL     OW82827   5.157   5.196   2.401 -0.0605  0.5486 -0.0244
25664SOL    HW182828   5.158   5.162   2.312 -0.0616  0.9684 -0.1885
25664SOL    HW282829   5.242   5.238   2.412  0.3614 -0.4428  0.5498
25665SOL     OW82830   1.314   9.817  10.900  0.3464  0.1204 -0.2696
25665SOL    HW182831   1.365   9.898  10.911  0.5400  0.2619 -1.9884
25665SOL    HW282832   1.245   9.823  10.967 -0.5017  2.4170 -1.2277
25666SOL     OW82833   1.477   5.093   2.970 -0.0358  0.1446 -0.1540
25666SOL    HW182834   1.438   5.078   3.056  0.4192 -0.5176 -0.0530
25666SOL    HW282835   1.430   5.168   2.935 -2.7620 -1.7526 -0.8373
25667SOL     OW82836   6.529   9.263   9.209 -0.2032 -0.1470  0.1929
25667SOL    HW182837   6.598   9.198   9.200 -0.2367  0.0089 -1.2856
25667SOL    HW282838   6.519   9.273   9.304  2.5851  0.6710  0.5000
25668SOL     OW82839   2.430   8.261   3.927 -0.3978  0.2454 -0.5520
25668SOL    HW182840   2.459   8.202   3.858 -1.7547 -0.8445 -0.2497
25668SOL    HW282841   2.347   8.296   3.895 -1.0664 -0.3111  0.5007
25669SOL     OW82842   5.843   5.955   9.705 -0.7871 -0.0559 -0.2045
25669SOL    HW182843   5.772   5.892   9.695  1.5383 -2.7712 -1.2685
25669SOL    HW282844   5.885   5.930   9.787 -2.2252  2.9610  1.6089
25670SOL     OW82845   2.054   2.659   2.598  0.0171  0.3565 -0.5459
25670SOL    HW182846   2.122   2.719   2.629  0.1291 -0.9232  1.8678
25670SOL    HW282847   1.979   2.676   2.656 -0.2582 -1.1853 -0.4287
25671SOL     OW82848   5.179   2.699   7.579  0.2206 -0.2225 -0.1367
25671SOL    HW182849   5.089   2.672   7.598 -0.0433  1.3048  1.0595
25671SOL    HW282850   5.169   2.768   7.513  0.4128  0.4899  0.5558
25672SOL     OW82851  10.775   8.567   6.116 -0.2759 -0.3485  0.1944
25672SOL    HW182852  10.681   8.558   6.135 -0.1766 -1.3069  0.2406
25672SOL    HW282853  10.813   8.484   6.143  0.6917  0.2710  0.7618
25673SOL     OW82854   1.777   5.076   0.308 -0.6267 -0.3225  0.3540
25673SOL    HW182855   1.865   5.107   0.328 -0.5787  0.2119 -0.6204
25673SOL    HW282856   1.741   5.048   0.392  0.0149  0.6426  0.9629
25674SOL     OW82857  10.039   5.230   1.848  0.2396  0.3630  0.4529
25674SOL    HW182858   9.951   5.268   1.839  0.8397  1.8397  0.5291
25674SOL    HW282859  10.048   5.211   1.941 -1.1682 -2.8738  0.0600
25675SOL     OW82860   5.281  10.715   1.479 -0.8046 -0.6187  0.2994
25675SOL    HW182861   5.232  10.658   1.420 -0.2427  0.2490 -1.0387
25675SOL    HW282862   5.344  10.759   1.423  0.0932 -0.1404  1.6409
25676SOL     OW82863   1.001   6.949   5.089 -0.2673  0.4799  0.7230
25676SOL    HW182864   1.010   6.869   5.038 -1.1474 -0.4201  1.9350
25676SOL    HW282865   0.914   6.982   5.068  0.1399  1.2201  0.1267
25677SOL     OW82866   1.553   4.464   2.363 -0.2389 -0.1418 -0.3341
25677SOL    HW182867   1.631   4.439   2.412 -0.8333  1.2637  1.4486
25677SOL    HW282868   1.480   4.452   2.424 -1.0321  1.5762 -0.8616
25678SOL     OW82869   2.091  10.603   8.608  0.0285 -0.5966 -0.3775
25678SOL    HW182870   2.006  10.646   8.595  0.1239 -0.0635  0.6969
25678SOL    HW282871   2.133  10.654   8.677  0.3231 -2.1652  0.6468
25679SOL     OW82872   7.146   8.020  10.590 -0.2551  0.4052  0.5166
25679SOL    HW182873   7.196   8.073  10.527  0.4358 -0.3771  0.3886
25679SOL    HW282874   7.208   8.001  10.660 -0.6360  0.1638  0.7908
25680SOL     OW82875   3.711  10.013   1.262  0.1983  0.3344 -0.3952
25680SOL    HW182876   3.777  10.059   1.314 -0.5184  1.1311 -0.1652
25680SOL    HW282877   3.627  10.048   1.293 -0.3495 -0.8406 -0.5145
25681SOL     OW82878  10.183   4.272   9.420  0.2004 -0.8541  0.6854
25681SOL    HW182879  10.151   4.361   9.437  2.5641 -0.3037  2.8923
25681SOL    HW282880  10.262   4.284   9.369  0.1630 -1.7546  0.3918
25682SOL     OW82881   1.840  10.876   8.370 -0.0752 -0.3830 -0.0952
25682SOL    HW182882   1.882  10.810   8.314 -0.1538  0.8260 -1.6427
25682SOL    HW282883   1.851  10.842   8.459  0.0216 -2.4059 -0.8161
25683SOL     OW82884   2.416   2.425   6.116 -0.4657  0.3010 -0.6048
25683SOL    HW182885   2.439   2.489   6.184 -1.6241 -0.0789  0.1798
25683SOL    HW282886   2.500   2.390   6.087  0.1558  1.7912 -0.6866
25684SOL     OW82887   5.374   5.335   2.461 -0.0398  0.7703  0.0460
25684SOL    HW182888   5.343   5.425   2.472 -2.2963 -0.1544  2.0629
25684SOL    HW282889   5.430   5.318   2.536 -1.5116 -0.1868  0.9765
25685SOL     OW82890   8.148   4.336   7.429  0.1910  0.0475 -0.0160
25685SOL    HW182891   8.147   4.431   7.414 -0.7098  0.0032 -0.3052
25685SOL    HW282892   8.225   4.305   7.381 -0.4359  0.4223 -1.3075
25686SOL     OW82893   5.870   3.719   8.444 -0.4426 -0.1099  1.0886
25686SOL    HW182894   5.816   3.699   8.520 -0.1034 -0.2363  1.2990
25686SOL    HW282895   5.896   3.811   8.457  1.2175 -0.6843  2.1401
25687SOL     OW82896   9.963   3.640   5.264  0.3494  0.2755 -0.0406
25687SOL    HW182897  10.031   3.687   5.312  1.2536 -0.3308 -0.6843
25687SOL    HW282898   9.989   3.648   5.172 -1.0613  0.9819 -0.4052
25688SOL     OW82899   0.583  10.050   7.623 -0.6519  0.3062 -0.6820
25688SOL    HW182900   0.674  10.064   7.597 -0.8429  0.5305 -1.2334
25688SOL    HW282901   0.534  10.053   7.541 -1.3228  1.5194 -0.2695
25689SOL     OW82902   9.734   8.457   4.270 -0.0993  0.5314 -0.5462
25689SOL    HW182903   9.697   8.514   4.337 -0.4187 -1.0775  0.7105
25689SOL    HW282904   9.729   8.508   4.189 -1.2039  1.9159  0.3599
25690SOL     OW82905   0.465   1.158   4.901 -0.9390  0.2164  0.2925
25690SOL    HW182906   0.411   1.093   4.946  1.5474 -3.0295 -0.9733
25690SOL    HW282907   0.522   1.193   4.970  0.5484 -2.2269  0.4553
25691SOL     OW82908   1.228   1.093   8.729 -0.0521  0.1639 -0.5030
25691SOL    HW182909   1.286   1.049   8.792  0.4217 -1.4088 -1.9574
25691SOL    HW282910   1.257   1.061   8.643 -2.6248 -0.1193 -1.3445
25692SOL     OW82911   3.465   7.918   3.237 -0.2892 -0.0566 -0.2867
25692SOL    HW182912   3.500   7.948   3.321  1.0614 -0.2329 -0.7700
25692SOL    HW282913   3.386   7.970   3.224  0.2423  0.9509  0.4425
25693SOL     OW82914   8.383   3.228   6.079 -0.5235 -0.0187 -0.1753
25693SOL    HW182915   8.388   3.314   6.121 -0.1800 -0.3451  0.4620
25693SOL    HW282916   8.379   3.166   6.151  1.4055 -0.6770 -0.5788
25694SOL     OW82917   3.225   2.890   4.954  0.3098  0.2822  0.1049
25694SOL    HW182918   3.167   2.867   4.882 -1.2049 -1.0779  1.6739
25694SOL    HW282919   3.307   2.917   4.912 -0.7948  0.3590 -2.1129
25695SOL     OW82920   7.622   2.297   5.226 -0.4754 -1.2878 -0.0311
25695SOL    HW182921   7.572   2.288   5.144 -0.9564 -0.4832  0.1661
25695SOL    HW282922   7.707   2.330   5.198 -0.7767 -0.6298 -0.1685
25696SOL     OW82923   6.946   1.271   5.786  0.2564  0.3732  0.4544
25696SOL    HW182924   6.961   1.363   5.765 -2.0488  1.0551  1.4880
25696SOL    HW282925   6.929   1.229   5.702  0.7568  1.0165  0.0271
25697SOL     OW82926   1.453   1.184   9.050  0.1325  0.9066  0.3293
25697SOL    HW182927   1.493   1.154   8.969 -1.2463 -0.0714 -0.0219
25697SOL    HW282928   1.432   1.104   9.098  0.3094  1.4563  1.3381
25698SOL     OW82929   2.072  10.262   9.706 -0.1777 -0.7190  0.4234
25698SOL    HW182930   2.154  10.292   9.744 -0.5463 -0.7591  1.2844
25698SOL    HW282931   2.026  10.343   9.683 -0.2763 -0.6633  0.7952
25699SOL     OW82932   5.134   1.944   3.682 -0.3094 -0.1553 -0.3058
25699SOL    HW182933   5.116   2.013   3.619 -0.4494  0.4915  0.4367
25699SOL    HW282934   5.118   1.863   3.633 -0.7655  0.3386 -0.9965
25700SOL     OW82935   8.612   3.817   4.129 -0.1241  0.2606 -0.0017
25700SOL    HW182936   8.660   3.852   4.053  0.5729  0.7355  0.6452
25700SOL    HW282937   8.609   3.722   4.113  1.2839  0.1847  0.0741
25701SOL     OW82938   3.893   7.988   6.919 -0.0612  0.0475  0.0460
25701SOL    HW182939   3.942   8.069   6.903 -0.9378  0.2203 -2.1907
25701SOL    HW282940   3.880   7.986   7.014  0.2042  2.4128  0.1900
25702SOL     OW82941   3.209   5.334   2.523  0.0665 -0.2336  0.0916
25702SOL    HW182942   3.151   5.330   2.446 -0.1861  2.0365  0.0879
25702SOL    HW282943   3.173   5.405   2.576  2.5904  1.0064  0.3000
25703SOL     OW82944   2.041   2.801   2.365  0.0662  0.3896  0.0719
25703SOL    HW182945   2.045   2.751   2.446  0.4380  0.8972  0.3690
25703SOL    HW282946   2.034   2.892   2.393 -1.4214  0.4693 -0.4607
25704SOL     OW82947   2.459   2.447   8.896  0.3537  0.4209 -0.0173
25704SOL    HW182948   2.436   2.522   8.950  1.3493  0.2669  0.6441
25704SOL    HW282949   2.535   2.409   8.939  1.0514  0.1795 -1.4132
25705SOL     OW82950   1.455   7.033   1.023 -0.0636 -0.0905  0.2038
25705SOL    HW182951   1.549   7.025   1.039 -0.0971  0.2504  0.5920
25705SOL    HW282952   1.418   7.061   1.107 -0.5295 -0.3455  0.0898
25706SOL     OW82953   7.459   9.340   5.708 -0.5145  0.0204  0.2998
25706SOL    HW182954   7.394   9.378   5.767  0.9848 -0.2991  2.2610
25706SOL    HW282955   7.486   9.260   5.751  1.6817  0.4957 -0.0971
25707SOL     OW82956   6.228   7.548   3.454  0.6266 -0.0079 -0.3617
25707SOL    HW182957   6.136   7.540   3.479  0.1561  0.8719 -1.6896
25707SOL    HW282958   6.254   7.460   3.427  0.4639 -0.4573  0.8952
25708SOL     OW82959   0.366   4.976   1.643 -0.1257  0.5760  0.5197
25708SOL    HW182960   0.366   4.986   1.548  2.4293 -0.2571  0.3560
25708SOL    HW282961   0.289   4.923   1.662 -0.0095 -0.2837 -1.2270
25709SOL     OW82962   9.309   8.416   9.787 -0.5816 -0.1521 -0.2325
25709SOL    HW182963   9.263   8.357   9.846 -0.5574  0.1453  0.0859
25709SOL    HW282964   9.378   8.363   9.748  1.0717  0.2692  1.9512
25710SOL     OW82965   3.682   2.204   5.238  0.1674 -0.1698  0.3501
25710SOL    HW182966   3.774   2.188   5.218  0.1198 -0.5789  0.4417
25710SOL    HW282967   3.638   2.124   5.210 -0.5075  0.9218 -1.9503
25711SOL     OW82968   4.808   8.692   4.844 -0.6513 -0.5632  0.1122
25711SOL    HW182969   4.859   8.646   4.777 -1.7430 -0.9894 -0.4492
25711SOL    HW282970   4.831   8.784   4.832  0.5627 -0.8024  0.3904
25712SOL     OW82971   0.557   9.013   9.926 -0.0996 -0.1412 -0.1988
25712SOL    HW182972   0.470   8.975   9.918 -0.4305  0.7211 -0.7993
25712SOL    HW282973   0.544   9.092   9.978  0.5027 -0.5731  0.6271
25713SOL     OW82974   2.554   0.494   3.272 -0.1231  0.2147  0.6197
25713SOL    HW182975   2.623   0.546   3.313 -2.1673  2.2538  1.6818
25713SOL    HW282976   2.569   0.504   3.178  1.1163  0.4431  0.8169
25714SOL     OW82977   9.988   4.320   2.364  0.1718 -0.6375 -0.0082
25714SOL    HW182978  10.078   4.297   2.341  0.3933 -0.6289  0.8287
25714SOL    HW282979   9.942   4.236   2.366 -0.1737 -0.5337 -1.7451
25715SOL     OW82980  10.223   7.939   2.538  0.3492 -0.1199  0.1632
25715SOL    HW182981  10.202   8.015   2.482 -1.3903 -0.1559  0.7062
25715SOL    HW282982  10.143   7.887   2.538  0.6353 -0.6101  1.9235
25716SOL     OW82983   6.331   7.434   8.053 -0.0583 -0.4222 -0.0574
25716SOL    HW182984   6.295   7.511   8.096 -0.7373 -0.9599  0.3481
25716SOL    HW282985   6.258   7.399   8.002  0.4161 -0.4603 -0.7310
25717SOL     OW82986   7.311   7.807   8.519 -0.0160 -0.4458 -0.2354
25717SOL    HW182987   7.387   7.845   8.563  0.1415 -0.4265 -0.5212
25717SOL    HW282988   7.292   7.868   8.448  0.0431 -0.7383 -0.5039
25718SOL     OW82989   8.996   2.034   6.455 -0.0669 -0.2429 -0.2664
25718SOL    HW182990   9.070   2.069   6.405  1.1632  0.0382  1.6527
25718SOL    HW282991   9.028   2.030   6.545 -2.2006 -0.7114  0.5212
25719SOL     OW82992   3.992   4.427   2.683 -0.5109  0.3883  0.3511
25719SOL    HW182993   3.961   4.488   2.615  0.1736  1.6656  1.1387
25719SOL    HW282994   4.016   4.484   2.756 -0.3522 -0.8946  1.3216
25720SOL     OW82995   8.215   4.676   7.597 -0.3371  0.0315 -0.2669
25720SOL    HW182996   8.291   4.637   7.640  0.9210  2.7945  0.2084
25720SOL    HW282997   8.168   4.722   7.667 -0.4943  1.2362 -1.1352
25721SOL     OW82998   8.468   1.659   6.899  0.3388  0.6367  0.5115
25721SOL    HW182999   8.478   1.565   6.882 -1.8961  0.0973  1.7910
25721SOL    HW283000   8.554   1.696   6.880  0.9934 -1.4810 -1.0979
25722SOL     OW83001   8.631   9.840   3.900 -0.1011 -0.1147 -0.8010
25722SOL    HW183002   8.651   9.757   3.944  0.6555 -0.7583 -2.2823
25722SOL    HW283003   8.717   9.873   3.872 -0.5334  0.4301 -1.5116
25723SOL     OW83004   1.764   0.734   3.674  0.2125 -0.7269 -0.1543
25723SOL    HW183005   1.842   0.750   3.729  0.5319 -1.9591 -0.2199
25723SOL    HW283006   1.720   0.661   3.717 -1.1376  0.1970  0.0896
25724SOL     OW83007   6.708   7.052   0.047  0.1214 -0.1961  0.1076
25724SOL    HW183008   6.688   6.960   0.063  0.5820 -0.1729  0.9047
25724SOL    HW283009   6.708   7.092   0.135  0.6836  0.3949 -0.1522
25725SOL     OW83010   6.710  10.256   0.760 -0.0299 -0.3623  0.3323
25725SOL    HW183011   6.770  10.259   0.835  0.5280 -1.1162 -0.0644
25725SOL    HW283012   6.705  10.163   0.738 -0.2934 -0.1610 -0.4766
25726SOL     OW83013   9.906   7.071   6.518  0.1787  0.6023 -0.4420
25726SOL    HW183014   9.842   7.100   6.582  0.0672 -1.3492  0.3905
25726SOL    HW283015   9.897   7.133   6.445 -0.7687  1.9332  0.7474
25727SOL     OW83016   4.791   8.945   2.292 -0.5300 -0.8381  0.0838
25727SOL    HW183017   4.705   8.903   2.289 -0.2876 -1.3474  0.1928
25727SOL    HW283018   4.853   8.875   2.272 -0.1500 -0.4341 -0.1842
25728SOL     OW83019   2.180   1.891   5.595 -0.2069  0.4581  0.3739
25728SOL    HW183020   2.158   1.950   5.523 -0.0350 -0.5745 -0.5542
25728SOL    HW283021   2.263   1.925   5.629  0.3550  0.2474 -0.7332
25729SOL     OW83022   6.267   2.632   6.245  0.3478  0.4532 -0.1672
25729SOL    HW183023   6.302   2.600   6.328  0.1421  1.7478  0.4306
25729SOL    HW283024   6.324   2.704   6.220 -1.1532  1.8202  0.2202
25730SOL     OW83025   4.081  10.682   9.393  0.1716 -0.5449  0.3895
25730SOL    HW183026   4.162  10.694   9.442 -0.1922 -0.4239  0.9627
25730SOL    HW283027   4.071  10.763   9.343  0.4364 -0.5844  0.2737
25731SOL     OW83028   6.407   7.653  10.866 -0.6759 -0.3515  0.6218
25731SOL    HW183029   6.401   7.746  10.890 -1.2142 -0.3634  0.5397
25731SOL    HW283030   6.377   7.607  10.944 -1.7946 -0.4113  0.1675
25732SOL     OW83031   0.526   3.369  10.051  0.4938 -0.2856  0.6349
25732SOL    HW183032   0.544   3.424   9.975  0.3847 -1.4803 -0.2986
25732SOL    HW283033   0.441   3.329  10.032  0.5995 -0.8095  1.2493
25733SOL     OW83034   4.134   9.852   0.090 -0.4852 -0.6406  0.1926
25733SOL    HW183035   4.122   9.890   0.003 -0.7086 -0.5142  0.2769
25733SOL    HW283036   4.219   9.885   0.119  0.2378 -1.7723 -0.5313
25734SOL     OW83037   1.652   9.442  10.514 -0.1954  0.0640  0.1947
25734SOL    HW183038   1.738   9.482  10.518 -0.1844  0.2458 -1.3294
25734SOL    HW283039   1.603   9.483  10.586  0.4951  1.1636  0.0650
25735SOL     OW83040   1.498   5.923   5.324 -0.3912 -0.1172 -0.8912
25735SOL    HW183041   1.478   5.982   5.397  1.3761 -0.0278 -0.4306
25735SOL    HW283042   1.557   5.974   5.268 -0.5892 -0.6941 -1.6302
25736SOL     OW83043  10.321   1.102   1.833  0.2565  0.3205 -0.1493
25736SOL    HW183044  10.274   1.164   1.889  0.4792 -0.4874  0.9645
25736SOL    HW283045  10.262   1.028   1.824  0.3149  0.3506 -0.8191
25737SOL     OW83046   5.433   0.579   9.516  0.0298 -0.3373  0.2848
25737SOL    HW183047   5.456   0.495   9.477 -0.7415 -0.2351 -0.4144
25737SOL    HW283048   5.380   0.556   9.593 -2.4183 -0.4815 -1.3590
25738SOL     OW83049   7.069  10.495   3.591  0.0682  0.0922  0.0957
25738SOL    HW183050   7.082  10.481   3.685  0.7634  0.4225  0.0530
25738SOL    HW283051   7.115  10.422   3.550 -0.1762 -0.0134  0.0092
25739SOL     OW83052   3.900   6.703   1.187 -0.2350 -0.3629  0.1089
25739SOL    HW183053   3.908   6.683   1.280 -1.6166 -0.3078  0.2577
25739SOL    HW283054   3.849   6.630   1.151 -1.3366  0.5317 -0.2160
25740SOL     OW83055   5.083   6.121   4.202  0.4976 -0.4428 -0.2887
25740SOL    HW183056   5.029   6.189   4.162 -0.7746 -0.7760  0.7952
25740SOL    HW283057   5.139   6.089   4.131  0.8321  1.4309 -0.9111
25741SOL     OW83058   6.875   2.127   6.911  0.0305  0.5727  0.0328
25741SOL    HW183059   6.934   2.051   6.908  0.3725  0.8502 -0.4847
25741SOL    HW283060   6.797   2.095   6.957  0.5285  0.1593  0.6130
25742SOL     OW83061   4.421   5.050   2.032 -0.7957 -0.0593  0.4570
25742SOL    HW183062   4.485   4.991   1.992  0.9211  1.2426  1.1858
25742SOL    HW283063   4.441   5.136   1.995 -0.7836  0.7323  2.2235
25743SOL     OW83064   0.635   4.292   9.385  0.2291 -0.5361  0.5741
25743SOL    HW183065   0.613   4.202   9.363 -0.0318 -0.1512 -0.8141
25743SOL    HW283066   0.728   4.300   9.364 -0.3975  0.3312 -2.3671
25744SOL     OW83067   9.287   8.634   6.648 -0.2853  0.0315  0.0202
25744SOL    HW183068   9.309   8.541   6.643 -0.0067  0.0647  0.5142
25744SOL    HW283069   9.206   8.637   6.700  0.5214  0.1599  1.3177
25745SOL     OW83070   2.907   4.643   4.721  0.3969 -0.3622  0.7624
25745SOL    HW183071   2.852   4.700   4.667 -2.1747 -1.3033  2.1902
25745SOL    HW283072   2.940   4.701   4.790  0.2217 -0.0084  0.5536
25746SOL     OW83073   9.683   4.276   1.889  0.2136  0.0879 -0.4823
25746SOL    HW183074   9.753   4.211   1.891 -1.3397 -1.6691  0.0491
25746SOL    HW283075   9.689   4.315   1.802 -0.2815 -2.5626 -1.8343
25747SOL     OW83076   0.146   2.216   2.555 -0.2720  0.4681  0.2146
25747SOL    HW183077   0.136   2.152   2.626  0.8860  1.1247  1.0116
25747SOL    HW283078   0.177   2.296   2.599 -0.6752  1.2637 -0.8880
25748SOL     OW83079   6.875   3.307   5.293 -0.1346 -0.6467  0.6705
25748SOL    HW183080   6.850   3.346   5.377 -0.0627 -0.6566  0.6963
25748SOL    HW283081   6.927   3.374   5.249 -2.0212  0.2382 -0.3251
25749SOL     OW83082   9.302   0.530   7.715  0.0935  0.1376  0.1959
25749SOL    HW183083   9.286   0.464   7.647  3.6643 -1.3480  0.5709
25749SOL    HW283084   9.396   0.547   7.711  0.0484  1.8654  3.1220
25750SOL     OW83085   3.935   6.065   0.559  0.3628  0.0667 -0.5283
25750SOL    HW183086   3.885   6.141   0.528  0.9605  0.0937 -1.4626
25750SOL    HW283087   4.021   6.100   0.582 -0.0862  0.0648  1.3172
25751SOL     OW83088   0.227   6.707  10.154  0.1284  0.4605  0.0986
25751SOL    HW183089   0.305   6.652  10.162 -0.1159 -0.0646 -1.0424
25751SOL    HW283090   0.155   6.650  10.182 -0.1121  0.2227 -0.9870
25752SOL     OW83091   6.863   1.508   9.701 -0.0565 -0.4012 -0.3373
25752SOL    HW183092   6.808   1.521   9.624  1.4826  0.2878 -1.3684
25752SOL    HW283093   6.802   1.483   9.770 -2.1289  3.3912 -0.5349
25753SOL     OW83094   1.567   9.897   1.335 -0.0905  0.3131 -0.0180
25753SOL    HW183095   1.597   9.980   1.299 -0.5375  0.1701 -0.7468
25753SOL    HW283096   1.556   9.914   1.429 -1.6314  1.5461 -0.3682
25754SOL     OW83097   5.888   4.578   1.457 -0.0608  0.5188 -0.1373
25754SOL    HW183098   5.834   4.501   1.474 -1.4483  1.5451  0.3303
25754SOL    HW283099   5.894   4.582   1.362 -0.0226 -0.1288 -0.1676
25755SOL     OW83100   7.124   3.643   5.366  0.2143 -0.0107 -0.2304
25755SOL    HW183101   7.063   3.602   5.427  0.8260  2.6356  2.4079
25755SOL    HW283102   7.205   3.594   5.376 -0.4225 -1.3124 -1.0981
25756SOL     OW83103   0.382   4.949   0.432 -0.9104  0.2730  0.5566
25756SOL    HW183104   0.348   4.991   0.511  0.1159 -2.3600  2.5730
25756SOL    HW283105   0.312   4.891   0.403 -0.8330  0.3014  0.3120
25757SOL     OW83106   8.089   4.940   1.734 -0.0292  0.6600  0.3951
25757SOL    HW183107   8.163   4.916   1.677 -1.2526 -0.7750 -0.6677
25757SOL    HW283108   8.080   5.035   1.722  1.1659  0.7430 -0.0235
25758SOL     OW83109   8.136  10.192  10.342  0.1497  0.0598 -0.5337
25758SOL    HW183110   8.078  10.230  10.275  0.1648 -1.3996 -1.4302
25758SOL    HW283111   8.166  10.267  10.393 -1.9846  0.9531 -0.4721
25759SOL     OW83112  10.911  10.923   8.052  0.2075 -0.3640  0.3255
25759SOL    HW183113  10.855  10.937   7.976  1.3377 -0.4841 -0.5525
25759SOL    HW283114  10.946  11.010   8.072 -0.2183 -0.3015  0.8307
25760SOL     OW83115   0.943   5.334   6.801 -0.7965 -0.2289  0.2213
25760SOL    HW183116   0.999   5.297   6.870 -1.5478  0.9716  1.5389
25760SOL    HW283117   0.980   5.301   6.719  1.7756  0.4226  1.0256
25761SOL     OW83118   4.320   3.207   9.648 -0.2423  0.1208 -0.0379
25761SOL    HW183119   4.236   3.245   9.621 -0.2886 -1.1727 -1.9601
25761SOL    HW283120   4.386   3.264   9.609 -0.1727  1.3575  1.7946
25762SOL     OW83121   6.862   3.713   7.672  0.0337 -0.8852  0.6042
25762SOL    HW183122   6.943   3.662   7.672  1.4661  1.2142  1.8002
25762SOL    HW283123   6.885   3.794   7.626 -1.7380 -0.6987 -0.0214
25763SOL     OW83124   9.980   4.297   8.721  0.3064  0.4283 -0.3508
25763SOL    HW183125   9.946   4.209   8.708  0.1034  0.7748 -2.4650
25763SOL    HW283126   9.923   4.353   8.669  1.6090  1.5473 -0.6395
25764SOL     OW83127   3.841   6.519   3.248  0.1363  0.5566 -0.3618
25764SOL    HW183128   3.911   6.453   3.244 -0.5690 -0.2849  0.5416
25764SOL    HW283129   3.781   6.495   3.178  0.2998  0.7438 -0.5669
25765SOL     OW83130  10.123  10.159   8.394 -0.1808  0.2504  0.1409
25765SOL    HW183131  10.077  10.100   8.454 -0.1527  0.8766  0.7977
25765SOL    HW283132  10.193  10.197   8.448  0.9687 -0.5009 -0.7707
25766SOL     OW83133   3.402   2.735   1.172 -0.9676 -0.3298  0.4815
25766SOL    HW183134   3.348   2.788   1.114 -3.0170 -2.1262  0.6142
25766SOL    HW283135   3.406   2.785   1.254 -0.6136  0.8036 -0.2121
25767SOL     OW83136   1.864   5.606   0.425  0.0416 -0.4302 -0.3170
25767SOL    HW183137   1.811   5.651   0.490  1.0271 -0.1043  0.2696
25767SOL    HW283138   1.908   5.676   0.377  1.0479 -0.7300  0.1480
25768SOL     OW83139   3.828   4.240   9.923 -0.2983  0.2669  0.3186
25768SOL    HW183140   3.827   4.155   9.966  1.3695 -0.3169 -0.6955
25768SOL    HW283141   3.736   4.267   9.920 -0.8339 -1.4009  0.8111
25769SOL     OW83142   0.674   9.031   7.719  0.0388  0.4706  0.1350
25769SOL    HW183143   0.631   9.088   7.782  1.6383  2.7201 -0.6808
25769SOL    HW283144   0.757   9.008   7.761  0.3430  0.5461 -0.4160
25770SOL     OW83145   8.556   0.137   8.706 -0.4959  0.0319 -0.2330
25770SOL    HW183146   8.636   0.138   8.654  0.0430  2.8131  0.4445
25770SOL    HW283147   8.509   0.216   8.679 -1.3518  0.2638  1.7077
25771SOL     OW83148   4.357   1.966   7.168 -0.2487 -0.1209 -0.1922
25771SOL    HW183149   4.409   1.967   7.249 -0.7872  1.4721  0.1546
25771SOL    HW283150   4.271   1.934   7.195 -0.0018 -1.0468 -0.4444
25772SOL     OW83151   7.704   2.276   3.870  0.2249  0.3561 -0.1468
25772SOL    HW183152   7.640   2.210   3.843  1.5134 -1.1659  0.3316
25772SOL    HW283153   7.788   2.229   3.867  1.0302  1.6230  1.4564
25773SOL     OW83154   7.595   3.766   7.114  0.1481  0.0277  0.8377
25773SOL    HW183155   7.644   3.792   7.192 -1.6738  0.6660  1.8167
25773SOL    HW283156   7.552   3.684   7.139  0.0048 -0.0657  0.3017
25774SOL     OW83157   9.519   1.686   0.237 -0.2948 -0.2905 -0.0755
25774SOL    HW183158   9.555   1.743   0.304 -1.4826  1.3702 -0.7846
25774SOL    HW283159   9.592   1.667   0.179  0.3906 -0.5003  0.8375
25775SOL     OW83160  10.668   2.160   8.504  0.0064 -0.0613  0.0596
25775SOL    HW183161  10.631   2.248   8.500 -0.4429 -0.2766 -1.3661
25775SOL    HW283162  10.713   2.156   8.588  0.2417  1.6102  0.0465
25776SOL     OW83163   7.550   1.970   5.229  0.3528 -0.3650  0.2364
25776SOL    HW183164   7.630   1.984   5.178  1.0553 -0.1570  1.3585
25776SOL    HW283165   7.576   1.988   5.319 -1.2454  0.7922  0.5011
25777SOL     OW83166   1.580   4.115   6.963  0.2459 -0.0072  0.2122
25777SOL    HW183167   1.530   4.196   6.973  1.2610  0.5300  1.0488
25777SOL    HW283168   1.620   4.122   6.877  0.6882  0.5909  0.4617
25778SOL     OW83169   0.595   1.847  10.642  0.1190  0.1817  0.3096
25778SOL    HW183170   0.606   1.761  10.682  1.9842 -0.1772 -0.8521
25778SOL    HW283171   0.500   1.856  10.632 -0.1976 -1.1194  1.7027
25779SOL     OW83172   9.331   0.667   6.924 -0.2219  0.2247 -0.4042
25779SOL    HW183173   9.385   0.599   6.883 -1.0045 -1.1048  0.6897
25779SOL    HW283174   9.380   0.692   7.002 -0.7394 -0.3195  0.0984
25780SOL     OW83175   4.642   2.847   6.669 -0.3920 -0.2086  0.1170
25780SOL    HW183176   4.715   2.827   6.609 -0.3191 -2.3296  0.8136
25780SOL    HW283177   4.565   2.851   6.611 -0.0636 -0.4405 -0.3510
25781SOL     OW83178   9.031   5.423   5.047 -0.2188 -0.1977  0.1245
25781SOL    HW183179   9.026   5.460   5.136 -0.1985  0.4958 -0.1614
25781SOL    HW283180   9.113   5.374   5.047  0.2316  0.5463  0.2121
25782SOL     OW83181   8.816   7.624   7.383 -0.3867 -0.8044  0.0134
25782SOL    HW183182   8.834   7.540   7.341  0.3668 -1.7367  2.0913
25782SOL    HW283183   8.736   7.609   7.433  0.5556 -0.7531  1.5720
25783SOL     OW83184   7.843   4.051   2.315 -0.3718  0.0614  0.4746
25783SOL    HW183185   7.871   4.062   2.224 -0.1967  0.4184  0.5719
25783SOL    HW283186   7.790   3.971   2.314  2.3103 -1.8717  0.6185
25784SOL     OW83187   0.711   6.421   1.017 -0.4828 -0.1519 -0.1781
25784SOL    HW183188   0.807   6.424   1.016 -0.4170 -1.3567  0.5450
25784SOL    HW283189   0.684   6.491   0.957  0.8251  0.7378  0.2209
25785SOL     OW83190   2.788   5.180   5.296 -0.0808  0.2001  0.6765
25785SOL    HW183191   2.825   5.257   5.252  0.8413 -0.1009  0.9127
25785SOL    HW283192   2.863   5.138   5.338  0.2847 -3.0618 -2.6779
25786SOL     OW83193   5.496   4.261   6.232  0.6592  0.1396  0.0910
25786SOL    HW183194   5.476   4.326   6.299  1.8050  0.3141  0.2700
25786SOL    HW283195   5.534   4.311   6.160  1.8249 -0.3534  0.3449
25787SOL     OW83196   4.033   6.974   9.953 -0.2552 -0.6747  0.0986
25787SOL    HW183197   4.070   7.059   9.978 -0.7622 -0.5983  0.6126
25787SOL    HW283198   4.063   6.960   9.863  0.5658 -0.3675  0.3163
25788SOL     OW83199   7.975   6.473   1.015 -0.0157 -0.4433  0.2388
25788SOL    HW183200   7.905   6.533   0.991  0.6246 -0.0844 -0.7999
25788SOL    HW283201   7.998   6.428   0.934  2.3463  0.9255  0.0441
25789SOL     OW83202   1.704   1.303   5.081  0.0581 -0.0705  0.1358
25789SOL    HW183203   1.774   1.357   5.043  0.2124 -1.1524 -1.1925
25789SOL    HW283204   1.632   1.309   5.018 -1.0222  0.8959  1.4072
25790SOL     OW83205   2.855   2.412   3.368 -0.1428  0.0541  0.4040
25790SOL    HW183206   2.823   2.437   3.455 -1.0288  0.0440  0.0901
25790SOL    HW283207   2.838   2.318   3.364 -0.1521  0.0663  0.1950
25791SOL     OW83208   8.643   4.466   6.077  0.2936 -0.0820  0.4775
25791SOL    HW183209   8.617   4.466   5.985 -1.5016  0.2671  0.9450
25791SOL    HW283210   8.562   4.487   6.125  1.3560  0.5591  2.0829
25792SOL     OW83211   3.408   0.731   6.794  0.3114  0.3099  0.4183
25792SOL    HW183212   3.485   0.776   6.828  0.5174  1.0197 -0.9520
25792SOL    HW283213   3.440   0.679   6.721 -0.0863 -1.4271  1.4204
25793SOL     OW83214   5.908   4.920  10.423 -0.3484  0.1281 -0.5290
25793SOL    HW183215   5.814   4.937  10.419 -0.7170 -1.7119 -0.2707
25793SOL    HW283216   5.933   4.948  10.511 -0.2254  2.4246 -1.2244
25794SOL     OW83217   5.197   5.342   9.938 -0.7581  0.1828 -0.6710
25794SOL    HW183218   5.219   5.257   9.902 -0.4457 -0.0487  0.0394
25794SOL    HW283219   5.161   5.323  10.025 -3.1702  0.5966 -1.5076
25795SOL     OW83220   0.225   2.476   4.192  0.3578  0.1816 -0.0066
25795SOL    HW183221   0.155   2.520   4.144  0.8327  0.6945 -0.2451
25795SOL    HW283222   0.279   2.547   4.226 -0.0171 -0.1712  1.3673
25796SOL     OW83223   0.785   8.157   8.279  0.1356 -0.6881 -0.5270
25796SOL    HW183224   0.851   8.217   8.313 -0.9564  0.9661 -1.1910
25796SOL    HW283225   0.781   8.086   8.344 -0.5036  1.3632  1.8104
25797SOL     OW83226  10.402   0.648   6.651 -0.6565  0.2953  0.2327
25797SOL    HW183227  10.444   0.611   6.728  0.3195 -0.0010 -0.4307
25797SOL    HW283228  10.474   0.673   6.593 -1.3845 -0.5653 -1.0860
25798SOL     OW83229  10.406   1.794  10.148  0.3168  0.1273 -0.0881
25798SOL    HW183230  10.341   1.862  10.167  0.7063  0.0911  1.5551
25798SOL    HW283231  10.375   1.754  10.067 -1.6400  0.1996  0.5571
25799SOL     OW83232   2.168   8.518   2.239 -0.3997  0.3168  0.1882
25799SOL    HW183233   2.086   8.509   2.191  0.2265 -1.6619 -0.6301
25799SOL    HW283234   2.144   8.513   2.331 -1.1169 -1.4171 -0.0647
25800SOL     OW83235   7.204   3.038   6.920 -0.0556  0.1976 -0.3679
25800SOL    HW183236   7.259   3.095   6.973  0.2645 -0.3432 -0.1109
25800SOL    HW283237   7.262   2.966   6.894 -0.8905 -0.9403  0.7862
25801SOL     OW83238  10.183  10.418   8.614 -0.1071  0.1440  0.2728
25801SOL    HW183239  10.150  10.373   8.692  0.9241  0.2277  0.7698
25801SOL    HW283240  10.120  10.489   8.599  0.4450  1.0451  1.9224
25802SOL     OW83241   0.856   3.041  10.256  0.2807 -0.4817  0.7650
25802SOL    HW183242   0.784   2.978  10.253  0.1982 -0.3562  0.0189
25802SOL    HW283243   0.914   3.016  10.185 -0.4620  1.1102 -0.4819
25803SOL     OW83244   9.488   8.212   5.327 -0.2688 -0.4325  0.2061
25803SOL    HW183245   9.412   8.161   5.300 -0.9035  0.2099  0.7284
25803SOL    HW283246   9.493   8.199   5.422 -0.7507  0.8388  0.4356
25804SOL     OW83247   3.604   2.395  10.683 -0.5760 -0.1641 -0.3495
25804SOL    HW183248   3.515   2.374  10.656 -0.4827 -1.6655  0.3668
25804SOL    HW283249   3.595   2.434  10.769 -0.6012  0.7262 -0.7479
25805SOL     OW83250   4.273   2.694   7.968  0.5270 -0.1966  0.1222
25805SOL    HW183251   4.327   2.654   8.036 -1.3161 -1.6079  0.8038
25805SOL    HW283252   4.335   2.708   7.895  1.4764 -3.8077  0.0162
25806SOL     OW83253  10.845  10.797   1.195 -0.3718 -0.5254  0.0819
25806SOL    HW183254  10.920  10.822   1.250 -0.3053  0.9639 -0.6503
25806SOL    HW283255  10.845  10.701   1.197  0.9938 -0.5332  0.8352
25807SOL     OW83256   5.243   8.335   6.101  0.0569  0.1062  0.0069
25807SOL    HW183257   5.287   8.373   6.177 -1.6126  1.2205  0.4884
25807SOL    HW283258   5.314   8.307   6.043  1.3637 -0.8312  1.9836
25808SOL     OW83259   7.807   3.758  10.050 -0.5148 -0.0047 -0.1410
25808SOL    HW183260   7.795   3.764   9.956 -0.0485 -0.5138 -0.2383
25808SOL    HW283261   7.803   3.849  10.081 -0.9853  0.1358 -0.6038
25809SOL     OW83262   0.055   4.368   8.255  0.2557 -0.2656 -0.0210
25809SOL    HW183263   0.019   4.301   8.314 -1.9774  1.2355  0.4496
25809SOL    HW283264   0.028   4.340   8.167 -1.8336  0.6259  0.2941
25810SOL     OW83265   1.189   3.865   5.668 -0.2545  0.0791  0.4733
25810SOL    HW183266   1.127   3.904   5.606  0.0200 -0.8460 -0.4142
25810SOL    HW283267   1.250   3.936   5.689 -0.3130  0.3974 -0.3880
25811SOL     OW83268   0.964   8.747   3.139  0.2950  0.2302  0.5944
25811SOL    HW183269   0.999   8.684   3.202  0.3889 -0.0884  0.2281
25811SOL    HW283270   0.869   8.739   3.147  0.3025 -0.1918  0.3272
25812SOL     OW83271   0.730   7.369   0.110  0.1551  0.2109  1.0178
25812SOL    HW183272   0.687   7.407   0.187  0.1132  0.0276  1.0872
25812SOL    HW283273   0.688   7.283   0.100  0.4012  0.0911  1.0005
25813SOL     OW83274   3.346   8.065   6.325 -0.1992 -0.0148 -0.0061
25813SOL    HW183275   3.330   8.159   6.318  0.1971  0.1529  1.1118
25813SOL    HW283276   3.259   8.025   6.315 -0.4433  0.5018  0.0181
25814SOL     OW83277   4.502   6.525   9.936 -0.2674 -0.1768 -0.5807
25814SOL    HW183278   4.491   6.494   9.846  0.7431 -1.5522 -0.2709
25814SOL    HW283279   4.584   6.575   9.934 -0.1883 -0.2993 -0.4080
25815SOL     OW83280   1.444   2.069   6.565  0.1532 -0.3253  0.4123
25815SOL    HW183281   1.501   1.997   6.538 -1.2733 -1.5427  0.5758
25815SOL    HW283282   1.505   2.139   6.588  1.5675 -1.3112 -0.1585
25816SOL     OW83283   8.192   4.973   7.577  0.3103 -0.5051 -0.2647
25816SOL    HW183284   8.126   4.942   7.638 -0.3635 -1.3761 -1.4000
25816SOL    HW283285   8.271   4.923   7.599  1.1261  1.6189  2.1043
25817SOL     OW83286   4.301   4.960  10.233  0.1590  0.2452  0.0187
25817SOL    HW183287   4.274   5.032  10.177 -0.6132 -1.1986 -1.5696
25817SOL    HW283288   4.387   4.935  10.199  0.6333  0.6977  0.8663
25818SOL     OW83289  10.638   9.119   9.703 -0.2717  0.3136 -0.5608
25818SOL    HW183290  10.712   9.063   9.726 -0.4936  0.0753 -0.4296
25818SOL    HW283291  10.676   9.207   9.694 -0.0176  0.2357 -0.2495
25819SOL     OW83292   1.466   6.312   3.535  0.7777  0.0469  0.7195
25819SOL    HW183293   1.508   6.241   3.485  2.0375  2.0858 -1.3221
25819SOL    HW283294   1.380   6.321   3.494  0.8920  0.1501  0.4975
25820SOL     OW83295   8.129   6.940   0.523 -0.0559 -0.1119  0.4132
25820SOL    HW183296   8.192   7.008   0.501 -0.7400  0.3399 -0.2336
25820SOL    HW283297   8.112   6.951   0.616  1.7495 -1.0603  0.8846
25821SOL     OW83298   5.846   2.995   9.583  0.1808  0.0610 -0.1541
25821SOL    HW183299   5.779   2.955   9.638  0.4166 -1.0400 -0.6480
25821SOL    HW283300   5.807   3.078   9.554  0.1362  0.7851  1.8254
25822SOL     OW83301   0.094   7.016   1.841 -0.2038  0.7260  0.3389
25822SOL    HW183302   0.007   6.986   1.868 -0.8669 -0.0515 -2.3974
25822SOL    HW283303   0.083   7.110   1.822 -0.5026  0.5897 -0.1723
25823SOL     OW83304  10.831  10.482   4.779  0.3301 -0.4205  0.4190
25823SOL    HW183305  10.748  10.452   4.816 -0.8688 -0.8033 -2.2886
25823SOL    HW283306  10.813  10.570   4.748  0.2328 -1.2011 -1.9582
25824SOL     OW83307   3.349   4.791   7.853  0.0653  0.1548 -0.4439
25824SOL    HW183308   3.421   4.843   7.818  1.6390 -1.2952  0.4792
25824SOL    HW283309   3.292   4.854   7.895  1.9375  1.1797  0.6903
25825SOL     OW83310   2.425   3.026   7.945 -0.6384 -0.0510  0.1319
25825SOL    HW183311   2.353   3.081   7.915 -0.4538  0.6834  1.0011
25825SOL    HW283312   2.463   3.073   8.019  0.7254 -0.4320 -0.2870
25826SOL     OW83313   7.055   7.939   5.877 -0.1155  0.1646 -0.6222
25826SOL    HW183314   7.033   7.847   5.885  0.3699 -0.0758 -1.7280
25826SOL    HW283315   7.110   7.943   5.798 -0.7685  1.5019 -1.0374
25827SOL     OW83316   1.529   9.926   7.267 -0.4304 -0.8170  0.3068
25827SOL    HW183317   1.575   9.888   7.191 -0.4324  0.0680 -0.1426
25827SOL    HW283318   1.596   9.931   7.335  0.7194  2.1844 -0.9008
25828SOL     OW83319   3.499   6.554   1.484  0.2036  0.6393 -0.1865
25828SOL    HW183320   3.428   6.586   1.539  0.1253  0.3191 -0.0941
25828SOL    HW283321   3.475   6.581   1.395  0.5868  1.6025 -0.0048
25829SOL     OW83322   5.394   8.876   3.081 -0.3870 -0.3872  0.1979
25829SOL    HW183323   5.335   8.882   3.006  0.2971 -0.3625 -0.3436
25829SOL    HW283324   5.438   8.960   3.085  1.3357 -1.1863 -0.8531
25830SOL     OW83325   8.744   7.445   2.037 -0.6151 -0.0429 -0.0166
25830SOL    HW183326   8.656   7.438   2.000 -0.1151 -2.2988 -0.8911
25830SOL    HW283327   8.792   7.500   1.975 -0.4088 -1.9314 -1.5964
25831SOL     OW83328   0.002   1.769   3.377  0.3840 -0.3170 -0.2256
25831SOL    HW183329   0.034   1.699   3.321  2.0817 -0.0996  0.4116
25831SOL    HW283330   0.079   1.797   3.426 -0.5578  1.0812  0.5095
25832SOL     OW83331   1.578   3.010   0.312  0.2632  0.4099  0.4514
25832SOL    HW183332   1.595   3.093   0.356 -1.3044  0.6723  0.6251
25832SOL    HW283333   1.614   2.943   0.370  1.8814  0.9601  0.1292
25833SOL     OW83334  10.154   7.427   7.828 -0.0859  0.2341  0.2787
25833SOL    HW183335  10.104   7.361   7.778  1.1528  1.1052 -2.3042
25833SOL    HW283336  10.245   7.401   7.817  0.4360  2.3660 -0.8927
25834SOL     OW83337   9.550   7.119   6.318 -0.6770 -0.6013  0.3231
25834SOL    HW183338   9.545   7.070   6.400 -1.5591  0.3908  0.9009
25834SOL    HW283339   9.573   7.208   6.346 -0.0722 -0.4557 -0.6010
25835SOL     OW83340  10.031   2.998   2.021 -0.2140 -0.2043 -0.4862
25835SOL    HW183341   9.956   3.046   2.057  0.6738  2.0126 -1.4149
25835SOL    HW283342  10.001   2.964   1.937  0.1310  1.7900 -1.4681
25836SOL     OW83343  10.541   1.880   1.504 -0.6148  0.1169 -0.0772
25836SOL    HW183344  10.595   1.801   1.509 -0.3002  0.3954  1.5288
25836SOL    HW283345  10.456   1.854   1.538 -0.3679  0.5540  0.9272
25837SOL     OW83346   9.862   1.468   7.740 -0.0438 -0.4776 -0.5900
25837SOL    HW183347   9.767   1.456   7.736 -0.2627  0.6621  0.4581
25837SOL    HW283348   9.878   1.546   7.687 -0.1998  1.5061  2.1112
25838SOL     OW83349   8.648   6.117   1.200  0.1234 -0.2198 -0.0421
25838SOL    HW183350   8.716   6.119   1.132 -0.4207 -0.0140 -0.5893
25838SOL    HW283351   8.581   6.058   1.165  0.5809 -1.4384  1.0538
25839SOL     OW83352   8.369   2.886  10.016 -0.9415 -0.0185 -0.5933
25839SOL    HW183353   8.338   2.974  10.034 -1.3791 -0.2639 -0.1130
25839SOL    HW283354   8.408   2.856  10.098  1.1997  0.5085 -1.3445
25840SOL     OW83355   7.574  10.639  10.293 -0.1712  0.0426 -0.2622
25840SOL    HW183356   7.648  10.602  10.341 -1.0051 -2.2733 -0.6385
25840SOL    HW283357   7.591  10.616  10.202 -0.7390  0.6151 -0.5182
25841SOL     OW83358   3.066   8.540   4.817  0.7407  0.0010 -0.3482
25841SOL    HW183359   3.039   8.617   4.867 -0.7525  0.2619 -1.4734
25841SOL    HW283360   3.014   8.544   4.737  1.1779 -1.7858 -0.7730
25842SOL     OW83361   8.330  10.399   6.166 -0.6084 -0.0965 -0.3891
25842SOL    HW183362   8.262  10.459   6.137 -0.5375  0.7312  1.0580
25842SOL    HW283363   8.301  10.370   6.253  0.5905 -0.1689  0.0098
25843SOL     OW83364   7.725  10.886   6.112  0.3560 -0.2923 -0.1952
25843SOL    HW183365   7.657  10.825   6.085  1.3299 -0.5083 -2.3306
25843SOL    HW283366   7.694  10.972   6.081  0.6555 -0.2653 -0.4233
25844SOL     OW83367   8.844   6.837   6.853  0.2174 -0.1874  0.7153
25844SOL    HW183368   8.939   6.845   6.862  0.0620  1.4525  1.2457
25844SOL    HW283369   8.831   6.811   6.762  1.1907 -1.0035  0.7906
25845SOL     OW83370   3.870   0.271   8.488  0.4162 -0.0641  0.3297
25845SOL    HW183371   3.937   0.205   8.471  0.3902  0.2554 -1.1091
25845SOL    HW283372   3.787   0.223   8.485  0.1148  0.3801 -3.7011
25846SOL     OW83373   1.315  10.788   8.379  0.6011  0.2915 -0.0650
25846SOL    HW183374   1.378  10.782   8.307  0.2685  1.1343 -0.4487
25846SOL    HW283375   1.248  10.848   8.346 -1.7720 -2.4826 -0.7004
25847SOL     OW83376   0.024   6.489   4.320  0.2339  0.1393  0.2476
25847SOL    HW183377  -0.001   6.528   4.404  1.0592  2.9854 -0.7410
25847SOL    HW283378   0.116   6.466   4.330  0.2508  0.1945  0.2178
25848SOL     OW83379   3.713   9.752   1.804  0.2534  0.7612  0.0372
25848SOL    HW183380   3.696   9.696   1.879 -0.6341  1.4060  0.3400
25848SOL    HW283381   3.802   9.785   1.817  0.2482  0.5503  0.5979
25849SOL     OW83382  10.405   6.659   8.548  0.4266 -0.0903 -0.3002
25849SOL    HW183383  10.312   6.636   8.555  0.4614  0.0793  0.9252
25849SOL    HW283384  10.450   6.575   8.545  0.3584 -0.2184  1.2825
25850SOL     OW83385   3.199   3.595   3.133 -0.2823 -0.1469  0.2669
25850SOL    HW183386   3.178   3.511   3.174  3.5179 -1.5368 -0.1681
25850SOL    HW283387   3.165   3.587   3.043 -1.4080 -0.4856  0.7079
25851SOL     OW83388   2.579   9.203   2.013 -0.0273 -0.1178  0.0028
25851SOL    HW183389   2.599   9.296   2.024 -2.5793  0.9148 -2.8369
25851SOL    HW283390   2.484   9.197   2.024 -0.0324 -2.2441 -0.7036
25852SOL     OW83391   0.866   8.117   2.647 -0.1589  0.0392  0.1605
25852SOL    HW183392   0.820   8.142   2.566  0.9629  0.9209 -0.2219
25852SOL    HW283393   0.912   8.037   2.624  1.2307  0.9938 -0.5109
25853SOL     OW83394   6.052   3.746   7.924  0.3678 -0.0589 -0.4087
25853SOL    HW183395   6.044   3.727   7.830 -0.7020  0.4734 -0.4425
25853SOL    HW283396   6.008   3.830   7.935  1.4778  0.4387  0.3952
25854SOL     OW83397   3.833   8.626   1.843  0.1323  0.0882  0.6624
25854SOL    HW183398   3.821   8.721   1.851 -1.8221 -0.1743  1.6151
25854SOL    HW283399   3.910   8.616   1.788 -0.4753  2.2474 -0.7403
25855SOL     OW83400  10.621   6.131   1.018  0.4910 -0.1429 -0.3884
25855SOL    HW183401  10.617   6.039   0.989 -0.8611  0.6069 -2.8293
25855SOL    HW283402  10.648   6.179   0.940 -0.0910  1.6954  0.5077
25856SOL     OW83403   8.361   9.402   7.134  0.0924 -0.2380  0.1144
25856SOL    HW183404   8.375   9.414   7.228  0.7289  2.5791 -0.2323
25856SOL    HW283405   8.445   9.374   7.100 -0.1754 -1.3989  0.3727
25857SOL     OW83406   0.139   9.936   2.643 -0.4159  0.8302  0.0533
25857SOL    HW183407   0.234   9.939   2.651 -0.2231 -0.9855 -0.9393
25857SOL    HW283408   0.123   9.922   2.550 -1.5102 -1.3573  0.5065
25858SOL     OW83409   4.418   2.159   1.794  0.0211 -0.1094 -0.3893
25858SOL    HW183410   4.436   2.252   1.813  0.9779 -0.3053 -0.2577
25858SOL    HW283411   4.497   2.114   1.823 -0.6847 -1.0462  0.1254
25859SOL     OW83412   9.262   5.470   1.028 -0.2006  0.1445 -0.2445
25859SOL    HW183413   9.299   5.502   0.946  0.0151 -0.6082 -0.4398
25859SOL    HW283414   9.334   5.474   1.091 -0.8113  2.4951  0.4266
25860SOL     OW83415   3.444   5.401   8.514  0.1494  0.4827  0.2541
25860SOL    HW183416   3.455   5.432   8.604  0.3683  1.8088 -0.2044
25860SOL    HW283417   3.506   5.454   8.464  2.2871 -2.3201 -0.2791
25861SOL     OW83418  10.167   0.259   7.548  0.1115 -0.3685 -0.2094
25861SOL    HW183419  10.141   0.209   7.471 -1.9668 -0.9991  0.8151
25861SOL    HW283420  10.184   0.193   7.615  1.9860  0.1652 -0.1061
25862SOL     OW83421   8.660   1.358   5.175  0.0828 -0.0008  0.4403
25862SOL    HW183422   8.749   1.342   5.143  0.0827  0.0571  0.4091
25862SOL    HW283423   8.604   1.347   5.098 -0.1313 -1.7542  0.8226
25863SOL     OW83424   3.085   7.265   4.698 -0.3627  0.0089 -0.4265
25863SOL    HW183425   3.079   7.243   4.605  0.6467 -0.0962 -0.4767
25863SOL    HW283426   3.165   7.221   4.728  0.5734  1.9038 -0.0346
25864SOL     OW83427   1.367   5.135   9.464  0.0958 -0.2026 -0.1032
25864SOL    HW183428   1.418   5.174   9.393 -0.6419 -1.7086 -1.5563
25864SOL    HW283429   1.396   5.044   9.467 -1.5976 -0.7921 -0.1561
25865SOL     OW83430   1.281   4.148   3.011  0.1664 -0.3048  0.2641
25865SOL    HW183431   1.289   4.185   2.923  2.6552  0.7303  0.8633
25865SOL    HW283432   1.343   4.075   3.012  1.4358  0.7382  1.6299
25866SOL     OW83433   4.375   9.762   3.729 -0.0279 -0.7773  0.2503
25866SOL    HW183434   4.402   9.735   3.641 -1.1165  0.1291 -0.3850
25866SOL    HW283435   4.429   9.708   3.788  0.9377 -1.1772 -0.9547
25867SOL     OW83436   5.110   4.041   1.948 -0.1003 -0.0179  0.0269
25867SOL    HW183437   5.177   3.975   1.964 -0.2711 -0.2781 -0.3140
25867SOL    HW283438   5.054   4.003   1.880  0.2267  0.7807 -0.7152
25868SOL     OW83439   4.554   5.783   6.992  0.0232  0.0132 -0.2719
25868SOL    HW183440   4.538   5.877   6.986  0.8307  0.1777 -0.0105
25868SOL    HW283441   4.624   5.775   7.058  0.3047 -0.7244 -0.6512
25869SOL     OW83442   1.000   7.062   9.866  0.0202 -0.2416  0.1739
25869SOL    HW183443   0.921   7.115   9.877  0.6979  0.7158  0.5727
25869SOL    HW283444   1.060   7.093   9.935  0.7760 -0.8851 -0.1758
25870SOL     OW83445   6.349   0.146   6.208  0.2898 -0.2492  0.3052
25870SOL    HW183446   6.267   0.095   6.208  0.0839  0.0116  2.3997
25870SOL    HW283447   6.323   0.232   6.173  0.1051 -0.7527 -0.8514
25871SOL     OW83448   2.187   1.202   0.610 -0.5036 -0.0901 -0.3731
25871SOL    HW183449   2.264   1.233   0.658 -0.2559 -2.1613  0.7048
25871SOL    HW283450   2.202   1.230   0.520  1.2198  0.0986 -0.0715
25872SOL     OW83451   4.362   0.225   0.586  0.2310  0.0900  0.4645
25872SOL    HW183452   4.308   0.147   0.599 -0.1364  0.2777  0.1127
25872SOL    HW283453   4.320   0.271   0.513  0.8313  0.2755  0.2281
25873SOL     OW83454   4.343   8.627  10.308 -0.9598 -0.7795  0.9060
25873SOL    HW183455   4.365   8.717  10.333  0.0319 -0.4989 -0.7893
25873SOL    HW283456   4.410   8.573  10.351  0.9207 -0.2781 -1.2231
25874SOL     OW83457   2.730   5.623   0.819  0.2446  0.1837 -0.2153
25874SOL    HW183458   2.720   5.649   0.727  0.3463 -0.8327 -0.5283
25874SOL    HW283459   2.642   5.631   0.856 -0.1990 -1.1662 -0.8986
25875SOL     OW83460  10.224   1.717   4.273 -0.7445  0.2084 -0.0724
25875SOL    HW183461  10.275   1.702   4.193 -1.7034 -1.4985 -0.4197
25875SOL    HW283462  10.282   1.768   4.330  1.4963 -1.8463 -0.3449
25876SOL     OW83463   5.287   7.207  10.831 -0.1961  0.1128  0.0351
25876SOL    HW183464   5.352   7.263  10.875  0.2433 -0.1056 -0.3223
25876SOL    HW283465   5.312   7.210  10.739 -1.8388  1.5556 -0.4203
25877SOL     OW83466   5.983   9.428   1.509  0.8565 -0.2894 -0.3195
25877SOL    HW183467   5.934   9.503   1.545 -1.2172 -1.5886 -0.2395
25877SOL    HW283468   6.054   9.414   1.571 -1.8315 -1.6422  2.7837
25878SOL     OW83469  10.107  10.405   0.234  0.2639 -0.2395 -0.2304
25878SOL    HW183470  10.033  10.464   0.222  0.2039 -0.0390  0.9974
25878SOL    HW283471  10.171  10.455   0.285  1.4352 -0.2710 -1.5878
25879SOL     OW83472   7.449   6.133   1.813 -0.2630 -0.3044 -0.3037
25879SOL    HW183473   7.468   6.226   1.805 -1.9734  0.3971  2.4693
25879SOL    HW283474   7.533   6.093   1.838  0.0962  0.8104  0.3255
25880SOL     OW83475  10.011   1.578   8.882  0.4623  0.0876  0.2585
25880SOL    HW183476  10.067   1.507   8.913  0.3771 -1.2124 -2.3047
25880SOL    HW283477   9.935   1.534   8.844  0.7881  1.4224 -2.1583
25881SOL     OW83478   6.103   4.999   0.546 -0.1505 -0.0004 -0.2457
25881SOL    HW183479   6.186   5.044   0.532 -0.1339 -0.6961 -3.0926
25881SOL    HW283480   6.065   5.041   0.624  1.9146  1.7235 -0.0867
25882SOL     OW83481   8.503   1.932   6.828  0.0348  0.2955  0.2700
25882SOL    HW183482   8.512   1.924   6.923 -0.6339 -1.3011  0.2317
25882SOL    HW283483   8.418   1.974   6.816  0.9112  2.1874  0.3768
25883SOL     OW83484   8.853   7.091   2.407 -0.2683 -0.6653 -0.3560
25883SOL    HW183485   8.901   7.148   2.467  1.6110 -3.1195  0.6260
25883SOL    HW283486   8.873   7.126   2.320  0.8605  0.1659  0.2129
25884SOL     OW83487   0.734   0.710   6.773  0.1589  0.1175 -0.1855
25884SOL    HW183488   0.746   0.775   6.704  0.3348 -0.8335 -1.0817
25884SOL    HW283489   0.788   0.741   6.846  0.0576  1.0796 -0.5077
25885SOL     OW83490   4.586   7.824   1.685 -0.0505  0.5297 -0.3268
25885SOL    HW183491   4.525   7.763   1.643 -0.0003 -0.5023  1.0033
25885SOL    HW283492   4.552   7.834   1.774  2.4030 -1.2000  0.9296
25886SOL     OW83493  10.762   2.661   7.973 -0.1852  0.3887 -0.5383
25886SOL    HW183494  10.823   2.679   8.044 -2.3595  1.6212  1.1424
25886SOL    HW283495  10.727   2.574   7.992  0.1326  0.2020 -0.8027
25887SOL     OW83496   0.649   7.875   9.372 -0.1398  0.4368 -0.0735
25887SOL    HW183497   0.673   7.788   9.339 -0.4322  0.8973 -1.5559
25887SOL    HW283498   0.643   7.930   9.294  0.9510  2.0426  0.9096
25888SOL     OW83499   6.834   1.113  10.904 -0.3131  0.3440 -0.5287
25888SOL    HW183500   6.844   1.164  10.824 -0.1842  0.2354 -0.5837
25888SOL    HW283501   6.799   1.029  10.874 -0.9329  0.5514 -0.3907
25889SOL     OW83502   0.113   7.782   2.865 -0.2410 -0.1177 -0.6599
25889SOL    HW183503   0.046   7.716   2.846 -0.5404 -0.1255  0.3456
25889SOL    HW283504   0.074   7.865   2.837  0.4565 -0.4114 -2.6995
25890SOL     OW83505   2.379   1.592   9.326  0.4562  0.8334  0.3191
25890SOL    HW183506   2.315   1.529   9.362  0.8020 -0.3886 -1.0890
25890SOL    HW283507   2.436   1.613   9.400 -0.1899  0.1533  1.0363
25891SOL     OW83508  10.754   2.750   4.261  0.1961  0.2247 -0.2497
25891SOL    HW183509  10.774   2.842   4.279  0.0781  0.2373 -0.1857
25891SOL    HW283510  10.734   2.713   4.347  2.6751 -0.4568  0.1245
25892SOL     OW83511   2.187   4.107   2.983 -0.9285  0.0969  0.1908
25892SOL    HW183512   2.152   4.029   2.941 -0.2441 -0.7252  1.1153
25892SOL    HW283513   2.175   4.091   3.077  1.6111 -0.1008  0.5395
25893SOL     OW83514   2.363   4.323   0.515 -0.2050  0.2625 -0.4743
25893SOL    HW183515   2.342   4.348   0.425  0.2007  0.5434 -0.4939
25893SOL    HW283516   2.399   4.235   0.508 -3.3469 -1.2011 -0.2214
25894SOL     OW83517   5.671   6.552   9.289  0.0440  0.2865  0.5437
25894SOL    HW183518   5.732   6.514   9.227  1.0639  2.1932  0.2968
25894SOL    HW283519   5.726   6.583   9.361 -0.3568  3.1335 -0.2339
25895SOL     OW83520   4.016   6.712   1.520  0.5719 -0.4931  0.4421
25895SOL    HW183521   4.068   6.637   1.493  1.2506  0.4021 -0.8495
25895SOL    HW283522   3.925   6.682   1.514  0.7616 -0.8120 -1.4574
25896SOL     OW83523   9.474   1.343   6.587  0.1373  0.3353  0.4078
25896SOL    HW183524   9.542   1.280   6.564 -0.1566 -0.4113  1.5074
25896SOL    HW283525   9.503   1.380   6.670  0.1337  1.4166 -0.0571
25897SOL     OW83526   8.373  10.032   5.755 -0.1208  0.4517 -0.3200
25897SOL    HW183527   8.401  10.122   5.738 -1.1317  0.6542 -1.0346
25897SOL    HW283528   8.444   9.978   5.720  0.9750  0.9642  1.0286
25898SOL     OW83529   7.617   9.235   3.030  0.2354 -0.2217  0.0488
25898SOL    HW183530   7.523   9.225   3.043 -0.0203  1.2978 -0.5009
25898SOL    HW283531   7.626   9.307   2.968  1.8187  0.8704  1.4437
25899SOL     OW83532   0.994   2.205   8.620 -0.3161  0.3259 -0.6745
25899SOL    HW183533   0.966   2.133   8.677  0.5925  0.9255  0.5868
25899SOL    HW283534   0.921   2.217   8.559 -0.7622 -1.2104 -0.4845
25900SOL     OW83535   3.209  10.653   0.157  0.5747 -0.1539 -0.3543
25900SOL    HW183536   3.296  10.646   0.195 -0.2316 -0.0037  1.6320
25900SOL    HW283537   3.149  10.634   0.229 -1.0651  1.1045 -1.3005
25901SOL     OW83538  10.629   1.922   6.291  0.0644 -0.2891 -0.3040
25901SOL    HW183539  10.543   1.932   6.251  0.0252  0.0971 -0.1251
25901SOL    HW283540  10.667   1.846   6.247 -2.6711 -4.5095  3.6655
25902SOL     OW83541   8.337   2.946   6.862  0.3837  0.4519  0.0542
25902SOL    HW183542   8.413   2.900   6.826 -0.0960 -0.4939  0.2128
25902SOL    HW283543   8.300   2.884   6.924 -0.2879  1.0688  0.2732
25903SOL     OW83544   9.202   0.337   7.549 -0.3155  0.0900 -0.7004
25903SOL    HW183545   9.191   0.361   7.457 -1.7992  1.1899 -0.2702
25903SOL    HW283546   9.200   0.241   7.549  2.1692 -0.0629 -2.0585
25904SOL     OW83547   2.022   6.484   1.512  0.1462  0.3348 -0.1196
25904SOL    HW183548   2.040   6.520   1.598  0.4524  3.1376 -1.2578
25904SOL    HW283549   1.926   6.475   1.509 -0.0186  1.9021 -0.0759
25905SOL     OW83550   0.456   9.065   5.395  0.2605  0.5997  0.1058
25905SOL    HW183551   0.481   8.989   5.448  1.7790  0.6119 -0.5562
25905SOL    HW283552   0.441   9.029   5.308 -2.7574  0.4909  0.5425
25906SOL     OW83553   6.766   7.973   3.932  0.4800 -1.1443 -0.1217
25906SOL    HW183554   6.818   8.052   3.917  1.5262 -1.7595  0.0995
25906SOL    HW283555   6.687   8.004   3.976  1.5211 -0.3482  1.2941
25907SOL     OW83556   2.141   9.830   2.020 -0.0312  0.4450  0.4120
25907SOL    HW183557   2.201   9.897   2.055  0.6345 -0.4596  1.0387
25907SOL    HW283558   2.196   9.778   1.962  0.3555 -1.6178  2.4819
25908SOL     OW83559   2.398   3.174   8.543  0.0611  0.2109  0.1908
25908SOL    HW183560   2.336   3.154   8.613 -1.9562  0.4642 -1.4632
25908SOL    HW283561   2.431   3.261   8.564 -0.8135  0.4453  0.6308
25909SOL     OW83562   0.788   8.419   1.525 -0.4390  0.1140  0.1774
25909SOL    HW183563   0.838   8.343   1.496  0.8633  1.4463 -1.3537
25909SOL    HW283564   0.730   8.387   1.594  1.9673 -1.7042  1.4828
25910SOL     OW83565   5.037   8.227   8.202 -0.2658 -0.4857 -0.1758
25910SOL    HW183566   4.946   8.242   8.178 -0.0911  0.5922 -0.1767
25910SOL    HW283567   5.058   8.142   8.163 -1.2577 -0.7285 -0.1966
25911SOL     OW83568   2.087   3.429   7.996  0.1925 -0.0684  0.2188
25911SOL    HW183569   2.139   3.490   7.944  1.3917  0.5185  2.0005
25911SOL    HW283570   2.067   3.477   8.076 -0.6909 -1.2784  0.7569
25912SOL     OW83571   6.162   3.039   4.779  0.3365  0.2614 -0.3922
25912SOL    HW183572   6.254   3.022   4.758  0.1389 -0.1036 -1.0144
25912SOL    HW283573   6.121   2.953   4.775 -0.0436  0.4325 -0.1748
25913SOL     OW83574   0.028   5.091   7.634 -0.1184 -0.2337 -1.0489
25913SOL    HW183575   0.006   5.028   7.704  0.5810  0.6790  0.0353
25913SOL    HW283576   0.011   5.177   7.673  1.7497  0.3554 -1.4240
25914SOL     OW83577  10.660   9.497   8.045  0.2274  0.9300  0.0950
25914SOL    HW183578  10.593   9.565   8.058  0.7896  1.7236 -1.0278
25914SOL    HW283579  10.706   9.494   8.129 -1.6268 -0.1483  1.1555
25915SOL     OW83580   9.042  10.357   3.889  0.1303 -0.4340  0.0624
25915SOL    HW183581   9.112  10.301   3.854  1.2438  1.7418 -1.4563
25915SOL    HW283582   8.990  10.299   3.945  2.1594 -2.5431 -0.0896
25916SOL     OW83583   2.174   9.537   0.958 -0.3287 -0.2187  0.8619
25916SOL    HW183584   2.115   9.469   0.988  0.5517 -1.4294 -0.0324
25916SOL    HW283585   2.223   9.496   0.886  0.7820  1.1023  0.8219
25917SOL     OW83586   5.253  10.694   5.625  0.0006 -0.0650 -0.1292
25917SOL    HW183587   5.277  10.616   5.574  0.1401  1.1873 -2.0598
25917SOL    HW283588   5.323  10.756   5.608  0.8379 -0.0628  2.8277
25918SOL     OW83589   7.458   7.816   7.729 -0.5609 -0.1502  0.2201
25918SOL    HW183590   7.418   7.732   7.751  0.2379 -0.5855  0.0483
25918SOL    HW283591   7.397   7.857   7.667 -0.4505 -1.0704 -0.5140
25919SOL     OW83592   3.736   7.422   3.909 -0.1687 -0.3754  0.0637
25919SOL    HW183593   3.656   7.431   3.962  0.4279  0.1755  0.9109
25919SOL    HW283594   3.722   7.479   3.833 -1.4841 -2.0113 -0.9703
25920SOL     OW83595   4.425   4.656   8.978  0.2156  0.4727  0.1111
25920SOL    HW183596   4.425   4.681   8.886  3.0163  0.7497  0.0867
25920SOL    HW283597   4.469   4.728   9.023 -1.4762  0.5473  1.7708
25921SOL     OW83598   9.476   5.394   2.455 -0.6395  0.3953  0.2411
25921SOL    HW183599   9.416   5.404   2.381 -2.6683  0.6899  1.8291
25921SOL    HW283600   9.523   5.477   2.459 -0.2372  0.2442 -0.9027
25922SOL     OW83601   3.654   9.803  10.273 -0.6263  0.1602 -0.1094
25922SOL    HW183602   3.572   9.804  10.225 -0.7156  1.6873  0.0099
25922SOL    HW283603   3.722   9.800  10.206 -0.7719 -0.1884 -0.2408
25923SOL     OW83604   4.784   6.874   0.495 -0.3778  0.6641  0.2052
25923SOL    HW183605   4.691   6.870   0.470  0.0806  0.2380 -1.5563
25923SOL    HW283606   4.804   6.785   0.525 -0.3885  0.6099  0.0484
25924SOL     OW83607  10.801   5.499   9.239  0.3243  0.0848  0.4262
25924SOL    HW183608  10.728   5.539   9.191 -0.7413 -1.0724  1.0383
25924SOL    HW283609  10.793   5.536   9.327  0.4019 -0.1419  0.5273
25925SOL     OW83610   5.638   0.101   6.644 -0.5921 -0.2453 -0.2607
25925SOL    HW183611   5.642   0.008   6.622  0.0498  0.0078 -1.2891
25925SOL    HW283612   5.644   0.146   6.560  0.0102  0.7414  0.2867
25926SOL     OW83613   3.622  10.404   3.987  0.3852 -0.0392  0.5268
25926SOL    HW183614   3.608  10.317   3.951 -2.7659  0.5783 -0.0451
25926SOL    HW283615   3.570  10.406   4.067  2.9418  0.3801  2.2810
25927SOL     OW83616   6.993   1.555   0.126  0.2012 -0.0219  0.5381
25927SOL    HW183617   6.986   1.600   0.042 -2.2092  0.1036  0.7434
25927SOL    HW283618   7.068   1.597   0.170  2.6407 -1.2206 -2.1305
25928SOL     OW83619   4.488   9.748   1.564  0.5306 -0.6292 -0.1048
25928SOL    HW183620   4.482   9.815   1.632  2.5464 -1.4343  0.9448
25928SOL    HW283621   4.452   9.790   1.486  1.3645  1.5705  0.6100
25929SOL     OW83622   7.759   0.279   3.709 -0.1489  0.2628  0.2033
25929SOL    HW183623   7.748   0.208   3.645 -1.8520  2.1590 -1.7720
25929SOL    HW283624   7.742   0.237   3.793  1.4561 -2.1857 -0.5979
25930SOL     OW83625   1.863   0.986   5.516 -0.2697  0.3269  0.8334
25930SOL    HW183626   1.944   1.035   5.526  0.5366  0.0411 -2.8553
25930SOL    HW283627   1.806   1.044   5.466 -0.9178 -0.8710  0.1491
25931SOL     OW83628   1.279   1.236   2.556 -0.0850  0.1808  0.1817
25931SOL    HW183629   1.335   1.251   2.633 -0.7232 -0.9258  0.8822
25931SOL    HW283630   1.326   1.170   2.505 -0.0198  0.3709 -0.0038
25932SOL     OW83631   0.623   5.072   0.500 -0.1036 -0.5403 -0.2132
25932SOL    HW183632   0.611   5.111   0.586  1.6852 -0.2690 -0.0485
25932SOL    HW283633   0.558   5.001   0.496 -0.5868 -0.1939  1.1199
25933SOL     OW83634   6.110   5.564   9.904 -0.1326  0.1130  0.5977
25933SOL    HW183635   6.095   5.481   9.860  0.6023  0.4335 -0.3093
25933SOL    HW283636   6.134   5.625   9.833  0.7643  0.7257  1.3941
25934SOL     OW83637   8.585   6.147   6.660  0.1924 -0.1655  0.2165
25934SOL    HW183638   8.593   6.148   6.755  0.9033 -0.1306  0.1668
25934SOL    HW283639   8.610   6.058   6.635  0.2351 -0.1073  0.0473
25935SOL     OW83640   3.889   5.354   8.935  0.0233 -0.1855 -0.2908
25935SOL    HW183641   3.888   5.310   8.851 -0.1184 -1.8141  0.5298
25935SOL    HW283642   3.800   5.384   8.948  0.2362  0.8478 -1.0897
25936SOL     OW83643   3.036   6.558   3.649  0.0700  0.0899 -0.0699
25936SOL    HW183644   3.006   6.473   3.617  0.6403  0.1804 -0.8729
25936SOL    HW283645   3.029   6.616   3.573 -0.2986  0.7591  0.4688
25937SOL     OW83646   3.668   1.055   1.550 -0.3902 -0.2413 -0.0951
25937SOL    HW183647   3.676   0.965   1.581  0.3437  0.3379  1.4939
25937SOL    HW283648   3.751   1.073   1.507 -0.5385 -0.3270 -0.4167
25938SOL     OW83649   6.792   7.613   4.110  0.5728  0.3905 -0.0620
25938SOL    HW183650   6.803   7.619   4.015  0.4454 -0.3897 -0.1394
25938SOL    HW283651   6.872   7.570   4.140  0.6663  0.7476  0.1976
25939SOL     OW83652   0.178   9.666   9.654  0.1113  0.5567 -0.3498
25939SOL    HW183653   0.182   9.593   9.716 -2.2097  1.6621  1.2499
25939SOL    HW283654   0.100   9.648   9.601 -0.1960  1.5870 -0.2733
25940SOL     OW83655   4.061   7.350  10.585 -0.5007 -0.6119  0.1208
25940SOL    HW183656   3.987   7.388  10.631  0.2023 -0.1965  0.9231
25940SOL    HW283657   4.054   7.385  10.496 -0.6056  0.3435  0.4999
25941SOL     OW83658   2.050   3.114   3.551  0.0172  0.0298 -0.1654
25941SOL    HW183659   2.069   3.173   3.623 -0.2799 -1.6740  1.3743
25941SOL    HW283660   1.955   3.120   3.540 -0.0459 -0.3554  0.1677
25942SOL     OW83661   2.144   8.015   8.642  0.3702  0.5192  0.0469
25942SOL    HW183662   2.237   8.020   8.621  0.3791 -0.2229 -0.1271
25942SOL    HW283663   2.105   7.969   8.567 -0.0548  0.3762  0.3499
25943SOL     OW83664   2.064   6.299   9.359 -0.5325 -0.0805  0.7608
25943SOL    HW183665   2.073   6.318   9.266  0.6417  1.5783  1.1513
25943SOL    HW283666   2.104   6.213   9.370  0.9821  0.4941 -0.0074
25944SOL     OW83667   6.346   8.617   0.371 -0.3900  0.0241 -0.3708
25944SOL    HW183668   6.325   8.702   0.331  0.8507 -0.1567 -1.4557
25944SOL    HW283669   6.440   8.619   0.384 -0.5702 -0.5475  1.1743
25945SOL     OW83670   5.682   3.080   6.333  0.8116  0.0218 -0.0888
25945SOL    HW183671   5.734   3.107   6.258  0.4434  0.8626 -0.0474
25945SOL    HW283672   5.644   2.996   6.307  1.8512 -0.3974 -0.2699
25946SOL     OW83673   6.070   9.280   1.787 -0.5093  0.4494 -0.4932
25946SOL    HW183674   6.099   9.189   1.797 -0.7400  0.5572  1.9530
25946SOL    HW283675   5.975   9.273   1.774 -0.3528  0.3197 -1.6379
25947SOL     OW83676   8.374   9.807   9.496  0.2281  0.4467  0.3633
25947SOL    HW183677   8.356   9.723   9.539  0.1407  0.1626 -0.2217
25947SOL    HW283678   8.345   9.873   9.559 -2.2868  0.0301 -0.2886
25948SOL     OW83679   0.944   8.720   7.002 -0.2187 -0.0141 -0.4376
25948SOL    HW183680   0.985   8.801   7.032  0.0631  0.1887 -1.3341
25948SOL    HW283681   0.858   8.719   7.044 -0.2653  0.8075 -0.5054
25949SOL     OW83682   6.411   4.392   3.015  0.2580 -0.2408  0.3191
25949SOL    HW183683   6.494   4.440   3.016  0.5480 -0.7271 -0.1377
25949SOL    HW283684   6.351   4.447   3.066  0.3801  0.9784 -0.7971
25950SOL     OW83685   7.032   0.791  10.510 -0.5024 -0.0532 -0.4065
25950SOL    HW183686   7.072   0.707  10.489  1.5627  1.1748 -1.6682
25950SOL    HW283687   7.105   0.852  10.515 -1.6742  1.2742  2.9238
25951SOL     OW83688   6.804   6.678   8.131  0.1462 -0.5899 -0.9715
25951SOL    HW183689   6.835   6.604   8.183  0.8109  0.4182  0.1131
25951SOL    HW283690   6.709   6.680   8.147  0.3234 -0.3717  0.1019
25952SOL     OW83691   0.863   5.351   9.863 -0.2868 -0.6296  0.0222
25952SOL    HW183692   0.868   5.370   9.770  0.9539  0.1698  0.2380
25952SOL    HW283693   0.784   5.297   9.872 -0.4411 -0.6890 -1.4712
25953SOL     OW83694  10.753   0.765   1.454 -0.7320  0.2175  0.1974
25953SOL    HW183695  10.753   0.793   1.545 -0.1298 -1.9708  0.9244
25953SOL    HW283696  10.758   0.670   1.458  1.0811  0.1176 -2.1262
25954SOL     OW83697   8.840   3.902   7.207  0.2931 -0.5346 -0.1522
25954SOL    HW183698   8.747   3.924   7.202  0.6213  1.4829  1.1845
25954SOL    HW283699   8.861   3.907   7.300  1.8071 -0.6171 -0.4627
25955SOL     OW83700   9.521   4.176   4.733  0.1495 -0.0143  0.0699
25955SOL    HW183701   9.506   4.083   4.715  1.2769  0.0446 -1.4402
25955SOL    HW283702   9.616   4.182   4.748  0.2501  1.0123 -0.8720
25956SOL     OW83703   8.649   4.864   8.636 -0.0936  0.1916 -0.1303
25956SOL    HW183704   8.559   4.873   8.666 -0.2198  2.9505 -1.0598
25956SOL    HW283705   8.699   4.923   8.692  0.7313  0.4547 -1.1110
25957SOL     OW83706   8.872   9.484   7.331  0.5483 -0.1230 -0.2660
25957SOL    HW183707   8.802   9.516   7.274  0.9965 -1.4408 -1.6067
25957SOL    HW283708   8.851   9.520   7.418 -2.5899 -1.6229 -0.2909
25958SOL     OW83709   1.978  10.197   9.023 -0.1355 -0.3703 -0.1891
25958SOL    HW183710   1.945  10.287   9.032 -3.5218 -1.5880  1.3228
25958SOL    HW283711   2.005  10.172   9.111  1.0639 -0.7663 -0.6580
25959SOL     OW83712   8.399   5.054   9.417  0.8989 -0.2487 -0.0151
25959SOL    HW183713   8.449   5.105   9.481 -0.8681  1.0515  0.4141
25959SOL    HW283714   8.465   5.004   9.368  2.4152 -0.1198  1.8062
25960SOL     OW83715   4.867   3.171   6.993  0.4756  0.8418  0.2002
25960SOL    HW183716   4.853   3.107   7.063  1.6747  2.2713  1.8087
25960SOL    HW283717   4.885   3.253   7.038  1.0197  1.8878 -1.8066
25961SOL     OW83718   8.784   3.996  10.004 -0.2525 -0.2164  0.2510
25961SOL    HW183719   8.767   4.040   9.921  0.1530  0.6424  0.6082
25961SOL    HW283720   8.702   3.951  10.025 -1.0370  1.1857  0.3539
25962SOL     OW83721   7.465   3.529   4.141 -0.9156  0.2646  0.0785
25962SOL    HW183722   7.497   3.512   4.053 -0.5356 -0.7578  0.3964
25962SOL    HW283723   7.370   3.516   4.135 -1.0192  1.1639 -0.3857
25963SOL     OW83724   0.583   0.481   5.098  0.5231  0.2687 -0.0565
25963SOL    HW183725   0.560   0.467   5.006 -1.8497  1.7116  0.2384
25963SOL    HW283726   0.594   0.393   5.134 -0.4944 -0.3737 -1.2520
25964SOL     OW83727   3.636   8.158   8.012 -0.4361 -0.4097  0.0797
25964SOL    HW183728   3.684   8.208   8.078  1.4292 -0.1579 -1.3947
25964SOL    HW283729   3.562   8.215   7.989 -2.6041 -1.5052  3.5635
25965SOL     OW83730   2.123   5.475   3.321  0.4528 -0.1821  0.4945
25965SOL    HW183731   2.031   5.490   3.345  0.4460 -0.4111  0.6241
25965SOL    HW283732   2.161   5.434   3.399  0.8902  0.7230  0.7656
25966SOL     OW83733   1.103   5.797   3.310 -0.1345 -0.4911 -0.1375
25966SOL    HW183734   1.037   5.747   3.359 -0.2587 -0.2666 -0.0748
25966SOL    HW283735   1.164   5.731   3.277 -1.1672 -0.8574 -1.3966
25967SOL     OW83736   3.747  10.471   8.791  0.2245 -0.3933 -0.0487
25967SOL    HW183737   3.677  10.531   8.817 -0.8480 -1.0051 -1.4179
25967SOL    HW283738   3.721  10.387   8.829  1.6951 -0.0735  1.8191
25968SOL     OW83739   9.062   4.076   9.386 -0.0078  0.2850  0.1541
25968SOL    HW183740   9.031   4.123   9.464  0.9021  0.4924  0.4090
25968SOL    HW283741   9.063   4.143   9.317 -1.5417 -0.0740 -0.2536
25969SOL     OW83742   0.973   1.568   7.618 -0.3618 -0.4953  0.3113
25969SOL    HW183743   0.943   1.596   7.532  1.0857  0.6602  0.1307
25969SOL    HW283744   1.062   1.535   7.603  0.2334  0.4939  1.4459
25970SOL     OW83745   5.530   5.376   1.125 -0.7865 -0.4345  0.9179
25970SOL    HW183746   5.498   5.327   1.201  1.1740 -0.9763  1.4540
25970SOL    HW283747   5.544   5.309   1.059 -2.6971  0.0617 -0.0767
25971SOL     OW83748   0.122   1.540   3.616  0.0489 -0.6498  0.1330
25971SOL    HW183749   0.150   1.624   3.581 -0.3481 -0.2526  0.7482
25971SOL    HW283750   0.143   1.544   3.710  0.9557 -1.6335 -0.0110
25972SOL     OW83751   3.240   6.238   5.251  0.1856  0.3872 -0.3667
25972SOL    HW183752   3.163   6.208   5.203  0.1859  1.3387 -0.9921
25972SOL    HW283753   3.312   6.186   5.216  0.3207  1.6170 -2.0178
25973SOL     OW83754   3.882   8.423   5.373 -0.3970 -0.1816  0.2723
25973SOL    HW183755   3.888   8.333   5.342 -0.6016 -0.5175  1.1875
25973SOL    HW283756   3.939   8.426   5.450  3.0818  1.5557 -2.1062
25974SOL     OW83757   6.963   5.318   5.415  0.0714  0.5643  0.3040
25974SOL    HW183758   6.917   5.331   5.332  2.6315 -0.0911 -1.3191
25974SOL    HW283759   6.974   5.407   5.450 -1.0791  0.8398  0.0124
25975SOL     OW83760   8.772   4.003   3.988 -0.6663  0.3693  0.3543
25975SOL    HW183761   8.857   3.999   4.032 -0.1148  3.4325 -0.2135
25975SOL    HW283762   8.787   3.963   3.902 -0.1990 -0.3348  0.7528
25976SOL     OW83763   0.341   8.307   9.371  0.1020  0.4787  0.1272
25976SOL    HW183764   0.319   8.341   9.284 -1.6682 -0.0730  0.3125
25976SOL    HW283765   0.400   8.372   9.408  3.4694 -0.7416 -2.6006
25977SOL     OW83766   8.542   5.321   3.859 -0.2807 -0.2854  0.2125
25977SOL    HW183767   8.450   5.312   3.832 -0.0782  0.2886 -0.7325
25977SOL    HW283768   8.584   5.365   3.785  0.5663  0.3032  1.0176
25978SOL     OW83769  10.474   3.632   6.366  0.1109  0.2116 -0.3258
25978SOL    HW183770  10.386   3.608   6.392 -0.4146  0.8746 -1.4065
25978SOL    HW283771  10.501   3.698   6.430 -0.0091 -0.2936  0.2499
25979SOL     OW83772   7.141   0.380   3.643  0.0146 -0.1025 -0.6449
25979SOL    HW183773   7.217   0.436   3.624  0.1102  1.1439  2.8132
25979SOL    HW283774   7.071   0.442   3.662 -0.9761 -1.2385 -0.5407
25980SOL     OW83775   7.017   7.574   0.999 -0.2152  0.0841  0.2990
25980SOL    HW183776   7.020   7.639   1.069 -1.0446  0.2336  0.2020
25980SOL    HW283777   6.926   7.546   0.996 -0.1994  0.1074 -0.7519
25981SOL     OW83778   0.370   2.583   5.459 -0.0641  0.3185  0.8452
25981SOL    HW183779   0.345   2.638   5.385 -0.4431  1.6985  1.9548
25981SOL    HW283780   0.327   2.623   5.534 -0.3979 -1.5579  1.7012
25982SOL     OW83781  10.276   9.460   8.221  0.3736 -0.0909 -0.4575
25982SOL    HW183782  10.255   9.481   8.130  0.7304  2.9189  0.0538
25982SOL    HW283783  10.365   9.491   8.233  0.9732 -1.9991  0.5436
25983SOL     OW83784   2.432   9.473   7.005 -0.2010 -0.2558  0.5005
25983SOL    HW183785   2.384   9.498   7.083  0.2297 -0.4954  0.8472
25983SOL    HW283786   2.455   9.381   7.020  0.3945 -0.1329  0.3559
25984SOL     OW83787   5.384   4.042   8.243 -0.4283  0.3731 -0.4111
25984SOL    HW183788   5.408   4.104   8.312 -1.4940  1.5065 -1.0235
25984SOL    HW283789   5.428   4.075   8.165  0.2199 -0.5164 -0.4330
25985SOL     OW83790   5.533   9.162   8.099 -0.3117  0.4957  0.0250
25985SOL    HW183791   5.542   9.212   8.018  2.1556  0.5504  0.2572
25985SOL    HW283792   5.596   9.090   8.089 -0.0332  0.4476  1.8314
25986SOL     OW83793   8.548   5.445   7.070  0.5806 -0.0249 -0.5731
25986SOL    HW183794   8.581   5.524   7.027  0.7879  0.0763 -0.2320
25986SOL    HW283795   8.589   5.373   7.021  1.0049  0.0935 -0.4022
25987SOL     OW83796   9.349   8.324   9.399 -0.6957  0.2253 -0.0923
25987SOL    HW183797   9.275   8.384   9.392  0.1662  1.2769 -0.3383
25987SOL    HW283798   9.364   8.293   9.310  0.7089  1.9435 -0.5011
25988SOL     OW83799   5.708   9.718   4.535  0.0689  0.0710  0.3762
25988SOL    HW183800   5.754   9.704   4.452  1.3795 -0.3304  1.1374
25988SOL    HW283801   5.669   9.633   4.555  0.0230  0.0790  0.3180
25989SOL     OW83802   6.816   7.317   3.333 -0.2163  0.5532  0.0450
25989SOL    HW183803   6.817   7.248   3.398  1.5379  1.6863  1.3141
25989SOL    HW283804   6.727   7.315   3.297 -0.7901 -1.0511  1.4300
25990SOL     OW83805   7.160   8.259   4.154 -0.4257  0.3724 -0.3144
25990SOL    HW183806   7.185   8.179   4.108 -1.6078 -0.3536  0.2523
25990SOL    HW283807   7.226   8.324   4.128 -0.3372 -0.3477 -2.0181
25991SOL     OW83808   7.413   0.415   7.245 -0.4075  0.3294 -0.1476
25991SOL    HW183809   7.348   0.377   7.304 -0.4215 -0.3234 -0.5749
25991SOL    HW283810   7.497   0.382   7.278 -0.3811  0.2974 -0.2459
25992SOL     OW83811   2.076   2.010   3.524 -0.2871  0.1638  0.2989
25992SOL    HW183812   2.086   1.935   3.466 -0.1319  0.0311  0.4938
25992SOL    HW283813   1.994   2.052   3.496  0.4310  0.8425 -0.8428
25993SOL     OW83814   9.239   9.869   6.948  0.7818  0.5433 -0.5854
25993SOL    HW183815   9.326   9.864   6.908  0.1550  0.5124 -2.0034
25993SOL    HW283816   9.252   9.921   7.027  2.0442  0.7128 -0.8787
25994SOL     OW83817   7.171  10.713   3.417  0.1438  0.1077 -0.5416
25994SOL    HW183818   7.263  10.724   3.445  0.0653 -2.0558  0.8164
25994SOL    HW283819   7.142  10.635   3.464 -2.8358  1.4940  0.1284
25995SOL     OW83820  10.835   8.344   1.620  0.3001 -0.3070  0.4613
25995SOL    HW183821  10.896   8.270   1.622  1.1535  0.3972  2.2772
25995SOL    HW283822  10.868   8.404   1.686 -0.4340  1.6715 -0.8934
25996SOL     OW83823   1.387   4.210   7.360  0.5685 -0.4595  0.8752
25996SOL    HW183824   1.343   4.126   7.364  1.7500 -1.3379 -2.1189
25996SOL    HW283825   1.335   4.267   7.417 -3.0168 -2.0197 -0.5141
25997SOL     OW83826   0.139   2.836   3.355 -0.1733  0.8125 -0.2258
25997SOL    HW183827   0.209   2.881   3.402 -0.4970  1.2819 -0.1873
25997SOL    HW283828   0.130   2.885   3.273  0.2527  0.1186 -0.7008
25998SOL     OW83829   0.158   6.668   1.433  0.3391 -0.0258 -0.0282
25998SOL    HW183830   0.155   6.755   1.474  1.2348  0.2335 -0.4789
25998SOL    HW283831   0.163   6.687   1.339  1.9343 -0.5163 -0.0649
25999SOL     OW83832   9.902   1.080   1.789 -0.0854 -0.4394 -0.0882
25999SOL    HW183833   9.842   1.061   1.861 -0.0226  0.2924  0.1628
25999SOL    HW283834   9.958   1.151   1.822  0.4737 -0.6485 -0.5647
26000SOL     OW83835   2.722   8.798   2.152  0.0769 -0.2781  0.2671
26000SOL    HW183836   2.632   8.767   2.163 -0.1102 -0.2307 -1.0061
26000SOL    HW283837   2.776   8.729   2.191 -0.5002 -0.2879  1.0784
26001SOL     OW83838  10.814  10.427   6.556 -0.0581 -0.0299  0.8625
26001SOL    HW183839  10.777  10.362   6.497  0.2129  0.5931 -0.0233
26001SOL    HW283840  10.896  10.453   6.515 -0.6868  1.6695  0.5795
26002SOL     OW83841   1.938   9.421  10.494 -0.0065 -0.2419 -0.0597
26002SOL    HW183842   1.952   9.492  10.431 -1.8315  0.8033  0.6322
26002SOL    HW283843   2.004   9.355  10.472  2.4945  2.0890 -0.0656
26003SOL     OW83844   4.707  10.745  10.356  0.1099 -0.0889 -0.4127
26003SOL    HW183845   4.715  10.840  10.345  0.9133 -0.0780  0.1840
26003SOL    HW283846   4.676  10.733  10.445  0.5403 -0.4049 -0.3042
26004SOL     OW83847   5.800   0.104   8.226 -0.1910  0.0769 -0.0261
26004SOL    HW183848   5.774   0.037   8.162 -2.4033  0.6843  0.1626
26004SOL    HW283849   5.886   0.076   8.256  0.5704 -0.7056 -2.6204
26005SOL     OW83850   5.500   9.304   7.511  0.4127  0.4096 -0.3433
26005SOL    HW183851   5.564   9.371   7.533 -0.5146  1.9860 -2.1182
26005SOL    HW283852   5.541   9.254   7.439  0.5472 -0.0632  0.0547
26006SOL     OW83853   7.817   7.222   3.823  0.3783  0.0316 -0.6001
26006SOL    HW183854   7.777   7.136   3.806  0.0347 -0.2813  1.4571
26006SOL    HW283855   7.885   7.231   3.756  0.9655 -2.2212 -0.4017
26007SOL     OW83856   5.198  10.150   2.197  0.2322  0.4376 -0.0687
26007SOL    HW183857   5.291  10.172   2.191  0.0822  0.8804 -0.8107
26007SOL    HW283858   5.197  10.063   2.238  0.9729  0.4057 -0.1037
26008SOL     OW83859  10.187   3.075   6.873 -0.0043  0.0740 -0.4320
26008SOL    HW183860  10.168   3.124   6.953  1.1103 -0.7437  0.3489
26008SOL    HW283861  10.281   3.088   6.858  0.4012 -2.0194 -0.0429
26009SOL     OW83862   5.037  10.239   3.313  0.6167  0.4405 -0.1832
26009SOL    HW183863   4.988  10.214   3.234  0.1489 -2.5074  0.9225
26009SOL    HW283864   5.126  10.210   3.295  0.9138  1.3799 -0.2807
26010SOL     OW83865   8.790   8.229   1.454 -0.0290 -0.0596 -0.5026
26010SOL    HW183866   8.805   8.207   1.546  1.2815  0.3851 -0.5846
26010SOL    HW283867   8.773   8.145   1.412 -0.6849 -0.2643  0.1359
26011SOL     OW83868   3.542   9.489   0.218  0.0322 -0.9533  0.7104
26011SOL    HW183869   3.604   9.532   0.277  0.3306 -2.5657  1.6184
26011SOL    HW283870   3.582   9.498   0.131  0.8266 -0.7311  1.0888
26012SOL     OW83871   1.416   3.179   6.515 -0.0195  0.1752  1.0263
26012SOL    HW183872   1.495   3.134   6.545  0.5629  0.5770  0.1430
26012SOL    HW283873   1.386   3.126   6.440  1.2935  1.7883 -0.7348
26013SOL     OW83874   4.276   5.693   8.679 -0.0043  0.0584 -0.7341
26013SOL    HW183875   4.184   5.681   8.703 -0.1846  1.6293 -0.5326
26013SOL    HW283876   4.313   5.605   8.682 -0.6933 -0.2430  2.5290
26014SOL     OW83877   9.627  10.179   3.839 -0.8461  0.2765 -0.3679
26014SOL    HW183878   9.638  10.186   3.744 -2.0605  1.0861 -0.4717
26014SOL    HW283879   9.560  10.112   3.851 -1.0112  0.4854 -0.1067
26015SOL     OW83880  10.329   9.865   8.646 -0.0432 -0.2265  0.3890
26015SOL    HW183881  10.318   9.830   8.734  0.7459 -2.7023 -0.4169
26015SOL    HW283882  10.294   9.797   8.588  1.0549  0.5515 -1.2653
26016SOL     OW83883   0.383   1.135   8.406 -0.0461 -0.5516  0.3835
26016SOL    HW183884   0.417   1.071   8.344  0.8964  0.7421 -0.4827
26016SOL    HW283885   0.417   1.106   8.491  0.1801 -1.3103  0.0392
26017SOL     OW83886   5.445   7.992   3.837  0.3588 -0.1838 -0.3981
26017SOL    HW183887   5.488   8.055   3.779 -1.1772  0.2041 -1.1645
26017SOL    HW283888   5.382   7.947   3.781  2.6652 -3.8547 -0.3930
26018SOL     OW83889   5.125   1.148   8.916  0.8489 -0.0452  0.2449
26018SOL    HW183890   5.076   1.117   8.840  1.0228  0.2027  0.0266
26018SOL    HW283891   5.182   1.075   8.940  0.1893 -0.4238  0.6581
26019SOL     OW83892   3.701   7.657   9.695 -0.0632  0.5850 -0.1113
26019SOL    HW183893   3.668   7.643   9.784 -0.1557  0.9492 -0.0874
26019SOL    HW283894   3.773   7.719   9.705  0.3672  0.1088 -0.2138
26020SOL     OW83895   8.726   2.476   6.477 -0.0855 -0.0772 -0.2431
26020SOL    HW183896   8.747   2.385   6.499  0.2960 -0.6034 -2.5314
26020SOL    HW283897   8.808   2.512   6.441 -0.5102  0.8479 -0.3159
26021SOL     OW83898   9.086   3.060   3.548  0.7371  0.6554 -0.0931
26021SOL    HW183899   9.110   2.989   3.607  0.4203 -0.9698 -1.8136
26021SOL    HW283900   9.150   3.054   3.477  0.7021  2.1231 -0.2716
26022SOL     OW83901   9.102   1.975   8.224  0.2288 -0.6315 -0.2220
26022SOL    HW183902   9.183   1.924   8.230  0.2350 -0.4788  1.1542
26022SOL    HW283903   9.123   2.059   8.265 -0.4896 -0.4121 -0.2947
26023SOL     OW83904   9.108   6.625   0.155 -0.0783 -0.1585  0.1358
26023SOL    HW183905   9.067   6.710   0.139 -0.0066 -0.0316  0.5985
26023SOL    HW283906   9.202   6.644   0.154 -0.0573  0.3073  2.8675
26024SOL     OW83907   0.377   2.362   8.145 -0.2867  0.8949 -0.0447
26024SOL    HW183908   0.465   2.345   8.110 -1.1574 -1.6307 -1.2535
26024SOL    HW283909   0.331   2.406   8.074 -1.1095 -1.3985 -1.0402
26025SOL     OW83910   4.105   2.090   6.173 -0.1611  0.4982 -0.1743
26025SOL    HW183911   4.017   2.109   6.206 -0.0234 -2.3532  2.2269
26025SOL    HW283912   4.093   2.014   6.115  0.8302 -1.1270  1.6395
26026SOL     OW83913   5.006   4.220   9.066 -0.1096  0.2046 -0.0201
26026SOL    HW183914   4.976   4.141   9.021 -0.8877  0.9265 -0.8054
26026SOL    HW283915   4.934   4.242   9.126  0.1875  0.2151  0.3350
26027SOL     OW83916   9.188   2.662   4.651 -0.0151 -0.7088  0.0135
26027SOL    HW183917   9.160   2.573   4.671 -0.7157 -0.2667  1.0929
26027SOL    HW283918   9.109   2.706   4.620 -0.1835  0.0994  1.4913
26028SOL     OW83919   6.935   5.277   1.655  0.6932  0.6084  0.4995
26028SOL    HW183920   6.842   5.298   1.664 -0.2113 -1.9009 -1.7364
26028SOL    HW283921   6.954   5.293   1.562  1.8476 -1.0682  0.4127
26029SOL     OW83922   9.809   3.395   1.516  0.2112  0.9159  0.0323
26029SOL    HW183923   9.751   3.348   1.576  0.0632  0.5822 -0.3686
26029SOL    HW283924   9.858   3.456   1.572  0.6959  0.0072  0.6227
26030SOL     OW83925   3.601   3.642   0.752 -0.2989  0.1682  0.4831
26030SOL    HW183926   3.506   3.646   0.738 -0.4651 -1.3851  0.9494
26030SOL    HW283927   3.624   3.551   0.735  1.0689  0.4586  0.6574
26031SOL     OW83928   6.297   3.490   4.917  0.1943 -0.0615  0.3476
26031SOL    HW183929   6.324   3.438   4.993  0.3832  0.3534  0.5664
26031SOL    HW283930   6.361   3.560   4.912  0.2087 -0.1102 -0.2270
26032SOL     OW83931   7.833   8.466   6.903 -0.2433 -0.1224 -0.3595
26032SOL    HW183932   7.809   8.471   6.995 -1.2582 -1.3859 -0.5221
26032SOL    HW283933   7.894   8.393   6.898  0.8481  0.7781 -0.5109
26033SOL     OW83934   8.582  10.461   2.507  0.1416 -0.3256  0.2778
26033SOL    HW183935   8.493  10.485   2.531 -0.6984 -1.4124 -1.5618
26033SOL    HW283936   8.577  10.436   2.415  2.4839  0.2093 -0.0678
26034SOL     OW83937   8.162   5.019   9.118  0.0414  0.2150 -0.1151
26034SOL    HW183938   8.117   5.068   9.049 -0.2427  0.6147  0.3528
26034SOL    HW283939   8.129   5.056   9.200 -0.3667 -0.9354  0.2564
26035SOL     OW83940   5.951   1.426   7.186  0.3500  0.1930 -0.1161
26035SOL    HW183941   6.010   1.363   7.147  1.0706  0.7682  0.0260
26035SOL    HW283942   5.874   1.375   7.211  0.5525 -0.4567 -0.8094
26036SOL     OW83943   7.993   2.180   8.483 -0.4584 -0.0300 -0.2258
26036SOL    HW183944   7.946   2.107   8.523 -0.2853 -0.2589 -0.4365
26036SOL    HW283945   7.926   2.229   8.436 -0.7471  0.4944  0.6998
26037SOL     OW83946   6.922   7.853   4.339  0.1522 -0.4569  0.0156
26037SOL    HW183947   6.847   7.875   4.284 -0.2345  1.0729  1.0667
26037SOL    HW283948   6.886   7.847   4.427  1.3038  0.8499  0.6292
26038SOL     OW83949   0.304   6.632   3.618 -0.3968  0.5510  0.2734
26038SOL    HW183950   0.257   6.677   3.548  0.3706 -3.3658 -3.1496
26038SOL    HW283951   0.239   6.573   3.656  0.1901 -0.4358 -0.2098
26039SOL     OW83952   7.274   5.031  10.221 -0.4932  0.4311 -0.1333
26039SOL    HW183953   7.330   5.048  10.146 -1.5845 -0.2060 -1.1152
26039SOL    HW283954   7.194   5.082  10.204 -0.7703  0.2479  0.5638
26040SOL     OW83955   6.659   8.711   5.522  0.2158 -0.1553  0.6073
26040SOL    HW183956   6.747   8.727   5.487  0.2914  0.7267  1.1507
26040SOL    HW283957   6.600   8.727   5.449  0.3661  1.7211  0.8428
26041SOL     OW83958   8.852   8.204   5.961 -0.2125 -0.0684  0.1316
26041SOL    HW183959   8.826   8.256   5.884  1.3792 -1.9249 -1.7695
26041SOL    HW283960   8.790   8.131   5.963  0.3772 -0.5745 -0.0097
26042SOL     OW83961   2.583   2.631   4.875 -0.5502 -0.4500 -0.3629
26042SOL    HW183962   2.658   2.676   4.913  0.3869 -1.2872 -1.1607
26042SOL    HW283963   2.508   2.686   4.898  0.3119  0.4755  0.3391
26043SOL     OW83964   3.496   6.273   0.705 -0.1183 -0.0539 -0.1093
26043SOL    HW183965   3.442   6.229   0.771  1.2386  1.1269  1.9176
26043SOL    HW283966   3.585   6.243   0.723  0.4420  1.2722 -0.5702
26044SOL     OW83967   6.209  10.000   2.316  0.4349  0.1145 -0.0846
26044SOL    HW183968   6.117   9.991   2.292  0.8207  0.2664 -1.7520
26044SOL    HW283969   6.211  10.074   2.377 -0.5843 -0.1537  0.2967
26045SOL     OW83970   2.680   3.057   0.014  0.8571 -0.1348  0.4440
26045SOL    HW183971   2.683   3.142   0.057 -0.8154 -0.5047  1.4160
26045SOL    HW283972   2.617   3.007   0.066  2.4307 -2.2734  0.4521
26046SOL     OW83973   3.425   4.167   2.334 -0.3199 -0.2905  0.1733
26046SOL    HW183974   3.361   4.145   2.266 -0.4424 -2.6772  0.9688
26046SOL    HW283975   3.372   4.176   2.413  0.0106  0.8836  0.2786
26047SOL     OW83976   0.337   1.769   1.495  0.5408  0.3962  0.0123
26047SOL    HW183977   0.313   1.678   1.481  1.8420  0.3325 -2.1715
26047SOL    HW283978   0.301   1.790   1.582  0.3599 -2.2172  0.6544
26048SOL     OW83979   8.116   1.427   3.592  0.4230  0.2781  0.7314
26048SOL    HW183980   8.104   1.340   3.553  1.6480 -0.0691  1.1036
26048SOL    HW283981   8.048   1.433   3.659 -2.0394  1.0593 -1.6512
26049SOL     OW83982   4.921  10.059  10.218 -0.3614 -0.1334  0.2369
26049SOL    HW183983   4.940  10.131  10.278 -0.3501 -1.1040  1.4127
26049SOL    HW283984   4.843  10.017  10.255  0.3346 -1.4639  0.2464
26050SOL     OW83985   2.923   7.270   3.748  0.2268 -0.4366  0.1535
26050SOL    HW183986   2.924   7.177   3.726  0.4062 -0.4615  0.2714
26050SOL    HW283987   2.907   7.272   3.843  1.0096 -0.3671  0.2859
26051SOL     OW83988   7.732   2.017   0.031  0.0742 -0.2858  0.2565
26051SOL    HW183989   7.756   2.107   0.054  0.1336 -0.3716  0.5446
26051SOL    HW283990   7.659   1.997   0.090 -0.3542 -0.2118 -0.2406
26052SOL     OW83991   2.603   5.724   1.479  0.3598  0.3730  0.0915
26052SOL    HW183992   2.566   5.776   1.408  0.4874  3.1112  1.8418
26052SOL    HW283993   2.689   5.697   1.447 -0.0057  0.6279 -1.1576
26053SOL     OW83994   3.774   4.410   3.790  0.0178 -0.1262 -0.0934
26053SOL    HW183995   3.775   4.320   3.823  3.2477 -0.0817  0.2445
26053SOL    HW283996   3.813   4.405   3.703 -0.5828  0.8685 -0.4453
26054SOL     OW83997   4.713   2.338   7.709 -0.1930  0.0931 -0.0071
26054SOL    HW183998   4.794   2.386   7.693 -1.3576  1.7472 -1.3866
26054SOL    HW283999   4.729   2.290   7.790  2.5634 -0.6378 -0.8773
26055SOL     OW84000   1.704   5.194   8.606  0.2042 -0.1479  0.1824
26055SOL    HW184001   1.611   5.172   8.602  0.4769 -1.2045 -0.9647
26055SOL    HW284002   1.723   5.233   8.521  0.9937 -0.7638  0.0694
26056SOL     OW84003   7.227   6.116   2.455 -0.6827  0.3541  0.2085
26056SOL    HW184004   7.250   6.037   2.406  1.7724  0.5183  0.9965
26056SOL    HW284005   7.189   6.175   2.389  1.5788  0.1794 -1.3384
26057SOL     OW84006  10.749   7.203   9.011 -0.0685  0.3099  0.2079
26057SOL    HW184007  10.790   7.122   9.041  0.5444  0.2754 -0.6773
26057SOL    HW284008  10.717   7.245   9.091 -0.6769 -0.9480  0.6531
26058SOL     OW84009   7.008   7.737  10.732  0.5550  0.6173  0.4540
26058SOL    HW184010   6.945   7.803  10.704  0.7265  0.0909 -1.2874
26058SOL    HW284011   6.955   7.668  10.773  0.2154  1.0566  0.7640
26059SOL     OW84012   9.493   5.861   0.756  0.0425 -0.0021  0.6388
26059SOL    HW184013   9.498   5.824   0.844 -2.4101 -0.6308  0.5590
26059SOL    HW284014   9.454   5.948   0.769  0.8248  0.4171  0.2698
26060SOL     OW84015   2.887   7.144   3.417  0.3216 -0.0633 -0.2734
26060SOL    HW184016   2.862   7.229   3.453 -1.3631 -0.5117 -0.3042
26060SOL    HW284017   2.956   7.113   3.475 -0.9388  0.1254  1.3970
26061SOL     OW84018  10.102   2.551   1.884  0.1029 -0.3420  0.0198
26061SOL    HW184019  10.197   2.543   1.897  0.3016 -2.4212 -2.1452
26061SOL    HW284020  10.090   2.541   1.790 -2.3552 -0.9507  0.3489
26062SOL     OW84021   2.361   3.091   6.543  0.3943 -0.3033 -0.4936
26062SOL    HW184022   2.288   3.083   6.605  1.2690 -0.2826  0.5823
26062SOL    HW284023   2.330   3.153   6.477 -1.4426 -2.1145 -1.4157
26063SOL     OW84024   4.189   1.391   3.634 -0.2051  0.3236  0.0705
26063SOL    HW184025   4.187   1.324   3.565 -0.2811 -0.6201  0.9558
26063SOL    HW284026   4.282   1.406   3.649 -0.1300 -0.9339  1.0916
26064SOL     OW84027   5.432   4.352   1.575 -0.0853 -0.0521  0.3032
26064SOL    HW184028   5.356   4.385   1.527 -0.5449 -2.4031 -0.7011
26064SOL    HW284029   5.399   4.336   1.664 -0.7174 -0.8532 -0.0691
26065SOL     OW84030   6.432  10.233   8.738  0.4604  0.2191  0.5777
26065SOL    HW184031   6.371  10.163   8.762  0.1299  0.8824  1.7753
26065SOL    HW284032   6.379  10.313   8.741  0.7147  0.4926 -1.2604
26066SOL     OW84033   8.446   0.237   6.455  0.8692  0.3496  0.4906
26066SOL    HW184034   8.446   0.176   6.380 -0.8297 -0.6631  1.2415
26066SOL    HW284035   8.397   0.313   6.423 -2.2231 -1.1393  1.2233
26067SOL     OW84036   7.001   9.966   2.307 -0.1906  0.1860 -0.2939
26067SOL    HW184037   7.092   9.995   2.314 -0.5161  1.2415 -0.3179
26067SOL    HW284038   7.008   9.876   2.274  0.9100 -0.4686  1.5237
26068SOL     OW84039   0.751   7.721   6.320  0.0459 -0.1058 -0.1827
26068SOL    HW184040   0.688   7.733   6.391  0.8339 -1.8755  0.8561
26068SOL    HW284041   0.736   7.797   6.263 -1.9713  0.3187  0.8025
26069SOL     OW84042   0.234   8.446   0.745 -0.6082 -0.3102 -0.6375
26069SOL    HW184043   0.263   8.463   0.834 -0.0199 -1.0175 -0.6851
26069SOL    HW284044   0.145   8.411   0.755 -0.6066 -0.2305 -0.3374
26070SOL     OW84045  10.115   5.586  10.743  0.0360 -0.0005  0.1872
26070SOL    HW184046  10.146   5.580  10.653  1.3149  0.1502  0.5968
26070SOL    HW284047  10.032   5.538  10.743 -0.6771  1.1559 -1.3561
26071SOL     OW84048   6.019   7.801   0.065  0.4931 -0.1010  0.1710
26071SOL    HW184049   6.079   7.769   0.133  0.0859  0.7318  0.9405
26071SOL    HW284050   6.005   7.725   0.009  1.7091 -0.5073  0.3752
26072SOL     OW84051   4.340   4.271   2.331  0.1776 -0.2250 -0.1068
26072SOL    HW184052   4.313   4.208   2.265  1.3027 -1.4513  0.5658
26072SOL    HW284053   4.268   4.334   2.335 -1.1959 -1.7235 -0.4537
26073SOL     OW84054   4.230   1.691   7.587 -0.1547  0.3947 -0.4710
26073SOL    HW184055   4.149   1.644   7.568 -1.0976  1.7144  0.1649
26073SOL    HW284056   4.286   1.673   7.512 -1.1638 -0.2444 -1.0939
26074SOL     OW84057  10.003   8.276   5.729 -0.0470  0.4461  0.2745
26074SOL    HW184058   9.908   8.262   5.727 -0.0042  0.2374 -0.5686
26074SOL    HW284059  10.016   8.340   5.799 -0.8785  0.9697 -0.0355
26075SOL     OW84060   6.277   1.195   3.061  0.5617  0.3950 -0.0568
26075SOL    HW184061   6.228   1.277   3.072 -0.4301 -0.0523 -0.9215
26075SOL    HW284062   6.209   1.127   3.059  1.4188 -0.5863  1.6874
26076SOL     OW84063   4.008   8.903   5.197 -0.0998 -0.1396  0.2909
26076SOL    HW184064   4.088   8.891   5.146  0.5078  2.1430  0.5848
26076SOL    HW284065   4.018   8.844   5.272  1.2177 -0.0792  0.1877
26077SOL     OW84066   5.501   1.600   4.687  0.0210  0.2003 -0.3942
26077SOL    HW184067   5.492   1.505   4.680  0.0385  0.0926  0.8810
26077SOL    HW284068   5.416   1.630   4.718  0.1092  0.5763 -0.5105
26078SOL     OW84069   2.834   5.762   2.525  0.0096 -0.1851 -0.7392
26078SOL    HW184070   2.913   5.805   2.556  0.2677  0.2345 -1.9277
26078SOL    HW284071   2.782   5.832   2.487 -1.1936 -0.3672  0.4896
26079SOL     OW84072   7.221   6.003   1.733  0.5202 -0.7511  0.4009
26079SOL    HW184073   7.196   6.064   1.663 -0.3308 -1.7880 -0.2226
26079SOL    HW284074   7.296   6.045   1.775  0.6720  0.1807 -0.7431
26080SOL     OW84075   8.148   6.849   3.441 -0.0839 -0.1747 -0.0713
26080SOL    HW184076   8.181   6.788   3.375  0.1619 -0.1716  0.0498
26080SOL    HW284077   8.067   6.808   3.473  0.8334 -1.1773  1.0720
26081SOL     OW84078   3.961   9.354   2.904  0.0879  0.1461  0.4815
26081SOL    HW184079   3.924   9.325   2.821  0.9743  0.8139 -0.1707
26081SOL    HW284080   3.940   9.447   2.908  0.3905  0.2012  0.8142
26082SOL     OW84081   5.819   2.007   8.851  0.5950 -0.2429  0.4023
26082SOL    HW184082   5.786   2.096   8.840 -0.4853 -0.3876  2.0147
26082SOL    HW284083   5.866   1.988   8.770 -1.6074  0.7477 -1.2131
26083SOL     OW84084   0.675   6.203   8.537 -0.1163 -0.1069  0.4671
26083SOL    HW184085   0.647   6.236   8.623  0.6511 -2.0040  1.5186
26083SOL    HW284086   0.662   6.108   8.544  0.3203 -0.3291 -1.4058
26084SOL     OW84087   7.214   2.193  10.813  0.1876  0.4440  0.4142
26084SOL    HW184088   7.135   2.235  10.778  0.2331 -0.1897 -0.4835
26084SOL    HW284089   7.284   2.255  10.794 -0.0554  0.9216  1.0369
26085SOL     OW84090   4.571   5.232   9.366  0.4499  0.3405 -0.0086
26085SOL    HW184091   4.486   5.194   9.342  1.0091 -1.0738  0.1623
26085SOL    HW284092   4.571   5.231   9.461  0.8513 -0.1178 -0.0114
26086SOL     OW84093   7.754   6.796   7.136  0.2850 -0.4869  0.7497
26086SOL    HW184094   7.702   6.789   7.216  0.3939  0.8060  0.9555
26086SOL    HW284095   7.702   6.852   7.079  0.4281 -1.0214  0.0797
26087SOL     OW84096   4.872   1.173   2.981  0.1333  0.2653 -0.0714
26087SOL    HW184097   4.960   1.140   2.965  0.0713 -0.9562  1.8747
26087SOL    HW284098   4.817   1.095   2.988 -0.9867  0.9809 -0.4762
26088SOL     OW84099   9.450   9.589   5.119 -0.1779  0.2415  0.3523
26088SOL    HW184100   9.377   9.625   5.070 -0.3424 -1.5736 -0.8174
26088SOL    HW284101   9.516   9.568   5.053  0.6137  0.0401  1.1785
26089SOL     OW84102   2.456   6.643  10.739 -0.0466 -0.1064  0.8837
26089SOL    HW184103   2.448   6.680  10.827  1.0455  0.8504  0.6136
26089SOL    HW284104   2.547   6.659  10.715 -0.7763  1.4435 -1.1814
26090SOL     OW84105   3.778   8.917   5.748 -0.0154  0.2824 -0.0892
26090SOL    HW184106   3.701   8.974   5.742 -0.3487 -0.1131  0.3916
26090SOL    HW284107   3.810   8.910   5.658 -1.7994 -1.2935 -0.6584
26091SOL     OW84108   4.357   7.066   6.308 -0.7111 -0.7940 -0.2666
26091SOL    HW184109   4.284   7.122   6.282 -0.8402 -1.2711 -0.9719
26091SOL    HW284110   4.342   7.048   6.401  0.6347  2.2891  0.6817
26092SOL     OW84111   0.649   8.347   4.703 -0.1801  0.0783  0.2761
26092SOL    HW184112   0.735   8.307   4.719 -0.8687 -1.6682 -0.0791
26092SOL    HW284113   0.669   8.433   4.666  1.4088 -0.0982  0.6285
26093SOL     OW84114  10.212   2.158   9.942  0.7049  0.6310  0.4168
26093SOL    HW184115  10.202   2.203   9.858  1.5596  0.8655  0.4294
26093SOL    HW284116  10.270   2.214   9.993 -0.2565  0.7763  1.3897
26094SOL     OW84117   8.662   2.208   3.427 -0.0272  0.8610 -0.1758
26094SOL    HW184118   8.620   2.294   3.424  0.9013  1.4660  2.1285
26094SOL    HW284119   8.737   2.220   3.485  0.0562 -1.5247  0.2963
26095SOL     OW84120   3.713   4.109   7.701 -0.6254  0.7404  0.7754
26095SOL    HW184121   3.721   4.016   7.683 -0.7710  0.7799  0.4886
26095SOL    HW284122   3.799   4.135   7.733 -0.6301  0.4763  0.9994
26096SOL     OW84123   3.367   6.311   9.210  0.1356  0.0299  0.1925
26096SOL    HW184124   3.280   6.307   9.250  0.1784  0.3244  0.3176
26096SOL    HW284125   3.350   6.315   9.116  0.0456 -1.0943  0.1500
26097SOL     OW84126   9.763   3.430   9.931  0.0891  0.1450  0.5272
26097SOL    HW184127   9.696   3.451   9.866 -0.9806  1.3970  1.9528
26097SOL    HW284128   9.775   3.335   9.924 -2.0403 -0.1613  0.3858
26098SOL     OW84129   4.761   1.212   2.743  0.1847 -0.6673  0.0615
26098SOL    HW184130   4.666   1.218   2.751  0.2575  1.2629  0.0145
26098SOL    HW284131   4.791   1.177   2.827 -0.5676 -1.5908 -0.0419
26099SOL     OW84132   0.299   8.952   5.743 -0.0852  0.1415 -0.3764
26099SOL    HW184133   0.355   8.886   5.701  1.9149  0.5830  1.4213
26099SOL    HW284134   0.343   9.035   5.727  0.8109  0.3232  2.4775
26100SOL     OW84135   8.042   1.010   7.515 -0.4507  0.3245 -0.0668
26100SOL    HW184136   8.066   1.073   7.583  1.5526 -1.9314  1.4834
26100SOL    HW284137   7.954   0.981   7.540 -0.1519  0.2864  0.9709
26101SOL     OW84138   5.049   5.620   4.805  0.7854  0.3222  0.2459
26101SOL    HW184139   5.066   5.697   4.750 -0.9155  0.5442 -0.0358
26101SOL    HW284140   4.954   5.608   4.801  0.6785 -0.1550  2.4836
26102SOL     OW84141   3.435   3.759   9.434 -0.4657  0.2458 -0.1664
26102SOL    HW184142   3.488   3.788   9.508  0.3275 -0.2311 -0.5237
26102SOL    HW284143   3.446   3.829   9.369 -2.0063  1.1708  0.5286
26103SOL     OW84144   8.959   9.107   8.813  0.2409 -0.0089  0.1638
26103SOL    HW184145   8.969   9.017   8.844  1.6861  0.1561  0.2352
26103SOL    HW284146   9.036   9.123   8.758  1.3568  1.9606  2.1333
26104SOL     OW84147  10.641   7.537   5.021 -0.0416 -0.4740  0.2465
26104SOL    HW184148  10.613   7.620   4.983  2.5366  0.9523  1.2218
26104SOL    HW284149  10.655   7.556   5.113  2.1667 -1.4776  0.1990
26105SOL     OW84150   0.915  10.757   3.227 -0.0896  0.7329 -0.3366
26105SOL    HW184151   0.887  10.773   3.317  0.0780  1.0663 -0.3391
26105SOL    HW284152   0.987  10.819   3.214 -1.6238  2.3803 -1.4609
26106SOL     OW84153   5.078   0.992   0.726  0.2676 -0.9920  0.0363
26106SOL    HW184154   5.123   0.912   0.701  0.2313 -1.0097  0.0280
26106SOL    HW284155   5.003   0.998   0.667  0.0351 -1.1696  0.3121
26107SOL     OW84156  10.792   6.349   3.106  0.1380 -0.1205 -0.3006
26107SOL    HW184157  10.720   6.408   3.129  0.3635  0.7227 -1.6301
26107SOL    HW284158  10.831   6.389   3.028  0.0243 -2.2707 -1.5221
26108SOL     OW84159   7.718   1.865   4.055  0.1786  0.1192  0.1081
26108SOL    HW184160   7.646   1.914   4.017 -0.0573  0.6099  1.1505
26108SOL    HW284161   7.680   1.779   4.076  0.2424 -0.0625 -0.4818
26109SOL     OW84162   0.578   3.984   0.681 -0.3936  0.0805  0.3973
26109SOL    HW184163   0.548   4.071   0.653 -0.7479  0.0117  0.5624
26109SOL    HW284164   0.608   3.997   0.771  1.3917  0.4531 -0.2025
26110SOL     OW84165   8.080   4.119   2.834 -0.1687 -0.0767 -0.4264
26110SOL    HW184166   8.116   4.031   2.829  1.2287  0.2124  2.3838
26110SOL    HW284167   7.988   4.107   2.858 -0.8405 -0.7349 -3.0230
26111SOL     OW84168   6.291   3.320   4.695 -0.5663  0.3441  0.5259
26111SOL    HW184169   6.360   3.254   4.698 -0.0731  0.8925  1.8949
26111SOL    HW284170   6.316   3.384   4.761 -2.0561  0.8948  0.5951
26112SOL     OW84171   4.690   1.256   3.963 -0.5453 -0.2999  0.0172
26112SOL    HW184172   4.708   1.267   3.870 -1.5940 -2.0411 -0.4463
26112SOL    HW284173   4.774   1.271   4.007 -0.1116  0.8448 -1.1552
26113SOL     OW84174   0.127   3.470   3.800  0.1290 -0.5082 -0.0710
26113SOL    HW184175   0.139   3.412   3.725 -0.3288  0.3179 -0.7962
26113SOL    HW284176   0.109   3.555   3.762  0.7009  0.1041  0.9821
26114SOL     OW84177   5.716  10.900   3.637  0.5912  0.9062 -0.0470
26114SOL    HW184178   5.755  10.938   3.558  1.5373  0.0931  0.0059
26114SOL    HW284179   5.746  10.809   3.637  0.0229  0.7039  0.8809
26115SOL     OW84180   7.362   7.740   6.447  0.5590  0.0139 -0.1746
26115SOL    HW184181   7.394   7.690   6.372 -0.0829  0.1282 -0.5343
26115SOL    HW284182   7.338   7.674   6.512  3.0140 -0.0455  0.7608
26116SOL     OW84183   4.589   4.793   2.371  0.3934 -0.1251 -0.0713
26116SOL    HW184184   4.546   4.765   2.452 -0.4972  2.5051  0.4510
26116SOL    HW284185   4.519   4.793   2.305  0.2390  1.2216  0.0611
26117SOL     OW84186   5.229   9.279   1.577  0.3497  0.1696 -0.3289
26117SOL    HW184187   5.232   9.357   1.632 -2.0662  0.3510 -0.3480
26117SOL    HW284188   5.269   9.307   1.494  0.9696  0.8881  0.1993
26118SOL     OW84189   5.768   1.337   2.161 -0.1455  0.5871  0.2079
26118SOL    HW184190   5.833   1.372   2.100 -0.3115 -0.0925 -0.3785
26118SOL    HW284191   5.684   1.356   2.120 -0.3157  1.2443  0.8465
26119SOL     OW84192   1.151   3.658  10.194  0.7907  0.7548 -0.0201
26119SOL    HW184193   1.169   3.584  10.252  1.9570  1.6322  0.7857
26119SOL    HW284194   1.147   3.734  10.252  1.2035  1.5431 -0.9885
26120SOL     OW84195   8.295   6.996   9.160  0.2069 -0.0805 -0.1992
26120SOL    HW184196   8.262   6.925   9.216 -0.6316 -0.5572 -1.2701
26120SOL    HW284197   8.258   6.978   9.074  1.0377  0.9509 -0.7931
26121SOL     OW84198  10.342   1.872   5.959  0.2827 -0.1742 -0.3987
26121SOL    HW184199  10.360   1.781   5.983 -0.0136  0.0560  0.7399
26121SOL    HW284200  10.325   1.916   6.042 -1.1046  0.5857 -1.0555
26122SOL     OW84201   4.237   8.119   0.036  0.0836  0.9244 -0.1649
26122SOL    HW184202   4.176   8.190   0.016  1.3115  1.8879 -0.6032
26122SOL    HW284203   4.268   8.138   0.125 -0.8495 -0.0338  0.3965
26123SOL     OW84204   9.754   6.430   3.271 -0.0920 -0.6385  0.5561
26123SOL    HW184205   9.791   6.518   3.260 -1.1860 -0.3889 -1.6168
26123SOL    HW284206   9.827   6.371   3.254  0.2922 -0.1551  0.5066
26124SOL     OW84207   2.664   0.779   3.947 -0.0963  0.1468 -0.1528
26124SOL    HW184208   2.589   0.779   4.007 -1.3195 -1.1013 -1.5882
26124SOL    HW284209   2.645   0.849   3.885  0.4972  0.5624  0.1294
26125SOL     OW84210   1.373   6.966   7.241  0.2473  0.5058 -0.2364
26125SOL    HW184211   1.302   6.999   7.296  0.4730  1.9096 -0.7575
26125SOL    HW284212   1.384   7.033   7.173 -1.1775 -1.8471 -3.0742
26126SOL     OW84213  10.027   1.277   7.024 -0.1165 -0.0845 -0.0805
26126SOL    HW184214  10.113   1.279   6.983 -1.2991  0.9507 -2.7121
26126SOL    HW284215  10.044   1.253   7.115  3.0734  1.5093 -0.1433
26127SOL     OW84216   2.959   6.751   1.049 -0.0793  0.5236 -0.0443
26127SOL    HW184217   3.005   6.828   1.014 -3.1338  2.5556  0.0544
26127SOL    HW284218   2.881   6.743   0.994  0.5891 -3.2586 -0.6979
26128SOL     OW84219   2.102   4.481   5.754  0.5550  0.2041 -0.2524
26128SOL    HW184220   2.086   4.521   5.839  0.4123 -0.8976  0.2528
26128SOL    HW284221   2.149   4.548   5.704 -0.4724  1.3342  0.2453
26129SOL     OW84222   3.096   2.492   7.618 -0.1101  0.2529  0.0658
26129SOL    HW184223   3.067   2.402   7.636  0.8233  0.0418  0.5820
26129SOL    HW284224   3.033   2.524   7.554  0.7427 -1.5299 -1.8007
26130SOL     OW84225   5.023   6.919   1.314  0.4685  0.0861 -0.6733
26130SOL    HW184226   4.937   6.932   1.354  0.7269 -0.3579  0.0257
26130SOL    HW284227   5.003   6.890   1.225 -0.2932 -5.0272  0.8221
26131SOL     OW84228   5.283   6.144   3.512  0.5238 -0.1962  0.0316
26131SOL    HW184229   5.359   6.095   3.480 -0.4386 -1.2963 -0.6300
26131SOL    HW284230   5.215   6.078   3.524 -0.8988  0.9849 -1.1401
26132SOL     OW84231   5.610   9.956   9.905 -0.0301 -0.1819  0.5107
26132SOL    HW184232   5.643  10.038   9.867 -0.3719  0.1939  1.0152
26132SOL    HW284233   5.658   9.946   9.987 -1.4293  0.5945  1.4692
26133SOL     OW84234   4.657   1.443   7.415  0.2269 -0.0447  0.2817
26133SOL    HW184235   4.616   1.412   7.334 -0.0844  0.4803  0.2383
26133SOL    HW284236   4.640   1.373   7.478  1.9108 -1.2689 -0.5076
26134SOL     OW84237   6.753   4.748   6.885 -0.8180 -0.2101  0.3975
26134SOL    HW184238   6.813   4.705   6.824 -1.3927 -1.3379  0.5953
26134SOL    HW284239   6.763   4.699   6.967 -1.1033  0.3760  0.7834
26135SOL     OW84240   9.484   4.118   2.278  0.1055  0.2478 -0.2362
26135SOL    HW184241   9.553   4.091   2.218 -0.4655  0.2780 -0.9155
26135SOL    HW284242   9.508   4.208   2.303  0.9918 -0.1854  0.5539
26136SOL     OW84243  10.923   5.589   4.053 -0.0061 -0.2827 -0.2252
26136SOL    HW184244  10.857   5.649   4.088  0.3798  0.4761 -0.7720
26136SOL    HW284245  10.919   5.602   3.958 -0.6029 -1.8435 -0.4504
26137SOL     OW84246   6.818   7.333   9.215 -0.3121 -0.3583  0.5460
26137SOL    HW184247   6.817   7.429   9.219  2.9838 -0.1268 -0.8469
26137SOL    HW284248   6.768   7.305   9.292 -3.4848  2.3777 -0.2995
26138SOL     OW84249   6.811   5.455   6.147  0.2402  0.0647 -0.2755
26138SOL    HW184250   6.857   5.519   6.094  0.2501 -0.5841 -1.0675
26138SOL    HW284251   6.771   5.394   6.084  1.1879 -1.3745  0.4447
26139SOL     OW84252   3.023   1.791   9.716  0.5113  0.3287  0.3768
26139SOL    HW184253   3.013   1.787   9.811  0.3802  1.7454  0.4442
26139SOL    HW284254   2.962   1.860   9.688  1.8929  1.2434 -0.5024
26140SOL     OW84255   5.760   9.084   7.508 -0.6004  0.0336 -0.3048
26140SOL    HW184256   5.744   9.144   7.435  1.6672  0.2367 -0.7085
26140SOL    HW284257   5.806   9.138   7.573 -1.3242 -0.5128  0.6858
26141SOL     OW84258   0.744   5.819   9.874  0.0981 -0.4759 -1.0471
26141SOL    HW184259   0.823   5.783   9.833  1.0696  1.8975 -1.4328
26141SOL    HW284260   0.747   5.912   9.853 -2.7447 -0.2613 -0.9044
26142SOL     OW84261   2.054   1.767   4.338  0.3464 -0.2405  0.2510
26142SOL    HW184262   2.079   1.684   4.378  1.0629  0.2853  0.9211
26142SOL    HW284263   1.959   1.763   4.332  0.2881 -0.6789  1.2570
26143SOL     OW84264   3.801   4.891   6.989 -0.4946 -0.0145  0.1054
26143SOL    HW184265   3.754   4.951   7.047 -0.9274 -1.3706  1.2185
26143SOL    HW284266   3.881   4.937   6.966 -1.1067  1.2405  0.4103
26144SOL     OW84267   8.514   4.016   3.724 -0.5019 -0.0346  0.2288
26144SOL    HW184268   8.594   4.064   3.703 -0.6989  0.0936 -0.2374
26144SOL    HW284269   8.543   3.926   3.736 -0.3325 -0.0433 -0.2473
26145SOL     OW84270   5.388   6.668   2.472 -0.3358 -0.3698 -0.1561
26145SOL    HW184271   5.344   6.679   2.556  2.2943 -0.9055  1.3994
26145SOL    HW284272   5.344   6.593   2.431 -1.6191 -0.1315  0.7281
26146SOL     OW84273   1.012   5.807   8.243 -0.3399 -0.1740  0.1122
26146SOL    HW184274   1.105   5.821   8.261 -0.0807 -1.5896 -0.0431
26146SOL    HW284275   0.983   5.748   8.312 -0.6867 -1.1565 -0.8494
26147SOL     OW84276   2.744   8.588   5.992  0.1477  0.4330 -0.2878
26147SOL    HW184277   2.714   8.543   5.913 -1.3442  1.4557 -0.3530
26147SOL    HW284278   2.777   8.518   6.049  1.0520 -0.3430 -1.7067
26148SOL     OW84279   7.880   1.395   6.405 -0.7617  0.3119  0.2105
26148SOL    HW184280   7.915   1.336   6.471 -0.1268  1.2348  0.7142
26148SOL    HW284281   7.795   1.356   6.381 -0.5230 -0.5964  0.7846
26149SOL     OW84282   3.150   1.431   2.509  0.0326 -0.0793 -0.4848
26149SOL    HW184283   3.118   1.451   2.421  1.1974 -0.3022 -0.9779
26149SOL    HW284284   3.098   1.355   2.536 -0.0415 -0.2729 -1.1527
26150SOL     OW84285   1.982   0.148  10.144 -0.0846 -0.0245  0.3309
26150SOL    HW184286   1.971   0.241  10.161  0.1152 -0.0504  0.6023
26150SOL    HW284287   1.930   0.132  10.065 -0.2364  0.2856  0.3667
26151SOL     OW84288   3.314   5.730   9.982 -0.0317  0.0547  0.0560
26151SOL    HW184289   3.331   5.718  10.076  0.3047 -0.5571 -0.0765
26151SOL    HW284290   3.391   5.693   9.939 -0.8290 -1.0238 -0.4992
26152SOL     OW84291   2.260  10.379   7.072 -1.0240  0.0952 -0.2697
26152SOL    HW184292   2.297  10.465   7.049 -0.5843 -0.0133  0.0151
26152SOL    HW284293   2.183  10.370   7.015 -0.2747  0.0699 -1.3237
26153SOL     OW84294  10.260   9.295   3.838 -0.2732 -0.2915 -0.1341
26153SOL    HW184295  10.179   9.335   3.806  0.8108 -0.1003 -2.8543
26153SOL    HW284296  10.243   9.200   3.831 -0.3897 -0.2561 -0.3533
26154SOL     OW84297  10.732   8.601   6.461 -0.4327  0.3723  0.1106
26154SOL    HW184298  10.774   8.687   6.460 -1.0719  0.7077 -1.3794
26154SOL    HW284299  10.639   8.620   6.452 -0.5496 -0.4698 -0.5722
26155SOL     OW84300   3.790   8.047   5.957  0.0680 -0.4284 -0.2808
26155SOL    HW184301   3.726   7.976   5.963 -0.2167 -0.2116 -0.6672
26155SOL    HW284302   3.794   8.067   5.863 -0.0527  0.2388 -0.1488
26156SOL     OW84303   7.278   5.603   3.661  0.1822 -0.2495 -0.0452
26156SOL    HW184304   7.312   5.664   3.596  1.4580 -0.5040  0.3491
26156SOL    HW284305   7.191   5.581   3.630  1.5712 -2.2219 -3.0168
26157SOL     OW84306   7.905   5.469   8.837 -0.3977 -0.1838  0.2533
26157SOL    HW184307   7.850   5.407   8.788  0.1788 -1.7730  1.5033
26157SOL    HW284308   7.943   5.525   8.770 -3.0191  0.5807 -0.7109
26158SOL     OW84309   4.245   0.886   7.309 -0.0769 -0.2511  0.6383
26158SOL    HW184310   4.160   0.860   7.273 -0.4190 -0.8263  1.8107
26158SOL    HW284311   4.284   0.804   7.338  0.4809  0.1263  0.9635
26159SOL     OW84312   7.635   1.857   3.712  0.6461  0.0200  0.2277
26159SOL    HW184313   7.565   1.915   3.744  0.8530  0.6890 -0.4974
26159SOL    HW284314   7.696   1.916   3.668  1.0067 -0.7230 -0.2791
26160SOL     OW84315   8.036   5.536   5.873 -0.2644 -0.7393  0.2549
26160SOL    HW184316   8.027   5.448   5.836  0.4712 -1.1494  1.0091
26160SOL    HW284317   8.116   5.531   5.925  0.7372  0.8734 -1.0549
26161SOL     OW84318   6.667   1.060   3.889 -0.1618 -0.8738  0.1891
26161SOL    HW184319   6.650   1.024   3.976 -2.0115 -2.0060 -0.5865
26161SOL    HW284320   6.693   0.984   3.837  1.5928 -0.1039 -0.1444
26162SOL     OW84321   4.864   0.044   3.245 -0.0846 -0.0732  0.3698
26162SOL    HW184322   4.852  -0.029   3.306  1.4639  0.3550  1.2372
26162SOL    HW284323   4.881   0.120   3.302  0.1101  0.5937 -0.5625
26163SOL     OW84324   7.294   9.366   5.014  0.4049 -0.4128 -0.2512
26163SOL    HW184325   7.314   9.393   5.104  0.4240  0.8258 -0.6043
26163SOL    HW284326   7.346   9.288   5.000  1.2697  0.0186  0.4552
26164SOL     OW84327   5.587   7.751   0.569 -0.1957  0.0643  0.0964
26164SOL    HW184328   5.671   7.720   0.603 -0.6759 -1.7284 -0.2622
26164SOL    HW284329   5.609   7.830   0.520  1.1621  0.0792  0.6797
26165SOL     OW84330   3.819  10.079   7.749  0.0529 -0.2693  0.2855
26165SOL    HW184331   3.789  10.078   7.659  2.5497  1.0414 -0.6692
26165SOL    HW284332   3.796  10.166   7.781 -0.6305 -0.6534  0.8578
26166SOL     OW84333   5.888   3.538   2.959 -1.0093 -0.3157  0.1910
26166SOL    HW184334   5.892   3.609   3.022 -1.2412 -0.5277  0.4493
26166SOL    HW284335   5.979   3.516   2.941 -0.9090 -1.7699  2.1898
26167SOL     OW84336  10.244   3.454   0.383  0.0343 -0.5609 -0.2229
26167SOL    HW184337  10.149   3.441   0.387  0.2230 -2.7454 -0.9917
26167SOL    HW284338  10.259   3.494   0.297 -0.0627 -2.4156 -1.1497
26168SOL     OW84339   5.839   9.632  10.032 -0.7282 -0.4761  0.5930
26168SOL    HW184340   5.790   9.689  10.091 -0.0213  1.3693 -0.5370
26168SOL    HW284341   5.783   9.624   9.955 -0.6089 -0.9405  0.5518
26169SOL     OW84342  10.837   6.685   2.170 -0.0018  0.2122  0.0968
26169SOL    HW184343  10.889   6.673   2.090 -0.6524 -0.8564 -0.1899
26169SOL    HW284344  10.876   6.762   2.213  1.7168 -0.4403 -0.1894
26170SOL     OW84345   6.927   8.795  10.237  0.4004  0.1381 -0.2735
26170SOL    HW184346   6.869   8.799  10.160 -0.3359  1.0545  0.3041
26170SOL    HW284347   6.869   8.814  10.311  1.5373  1.6283  0.2703
26171SOL     OW84348   0.433   5.889   0.216 -0.2369 -0.5188 -0.2345
26171SOL    HW184349   0.408   5.850   0.132  0.1294 -3.5134  0.9099
26171SOL    HW284350   0.355   5.879   0.271  0.1154 -0.3160  0.3054
26172SOL     OW84351   6.699  10.374   8.790  0.4427 -0.5268 -0.2130
26172SOL    HW184352   6.626  10.314   8.805  1.0017 -0.8658  1.4726
26172SOL    HW284353   6.661  10.461   8.797 -0.1132 -0.6793 -1.1946
26173SOL     OW84354   4.397   0.405   7.541  0.4233  0.1427  0.3187
26173SOL    HW184355   4.350   0.323   7.559 -0.4964  0.7225  0.6175
26173SOL    HW284356   4.489   0.383   7.555  0.4353 -1.4315 -1.7994
26174SOL     OW84357   3.100   7.636   8.406  0.0936 -0.5729 -0.4850
26174SOL    HW184358   3.152   7.688   8.345  0.3927  0.5697  0.6976
26174SOL    HW284359   3.162   7.574   8.444  0.5703  0.5882  0.7011
26175SOL     OW84360   9.021   6.489   4.214  0.3968  0.0564  0.4797
26175SOL    HW184361   9.029   6.560   4.149 -2.3788 -0.4705 -0.5629
26175SOL    HW284362   9.012   6.410   4.162  0.1349 -0.6521  1.5793
26176SOL     OW84363  10.520   8.356   4.070  0.7648 -0.6217 -0.3505
26176SOL    HW184364  10.578   8.400   4.131  2.4589 -0.8106 -1.7247
26176SOL    HW284365  10.432   8.381   4.097  1.5657  1.6760  0.3476
26177SOL     OW84366   3.554   2.513   6.408 -0.2378  0.1907  0.1089
26177SOL    HW184367   3.479   2.547   6.358 -1.0151 -0.6609  0.6589
26177SOL    HW284368   3.589   2.590   6.453 -0.3676  0.7191 -0.6689
26178SOL     OW84369   4.802   1.656   9.811 -0.8384 -0.3171  0.2957
26178SOL    HW184370   4.801   1.698   9.725  0.8504 -0.9907 -0.0944
26178SOL    HW284371   4.780   1.726   9.873  1.9857  1.2620 -0.3244
26179SOL     OW84372   8.838   0.594   7.078  0.4095 -0.5750 -0.1659
26179SOL    HW184373   8.824   0.678   7.033 -1.4056 -0.4968  0.4863
26179SOL    HW284374   8.804   0.608   7.166  0.3068 -1.9347  0.0304
26180SOL     OW84375   0.140   6.615   0.078  0.7217  0.0963  0.3752
26180SOL    HW184376   0.172   6.630  -0.011  0.6112  0.6902  0.4301
26180SOL    HW284377   0.059   6.666   0.083  0.8830  0.3063  0.9056
26181SOL     OW84378  10.773   4.067   4.464  0.1459  0.0147 -0.1031
26181SOL    HW184379  10.778   4.122   4.386  2.5217  1.1802  0.7900
26181SOL    HW284380  10.734   4.122   4.531  0.2256 -0.2226  0.1424
26182SOL     OW84381   8.741   2.483   0.966 -0.2604 -0.2969  0.0778
26182SOL    HW184382   8.776   2.556   1.017 -1.9837  1.6681 -1.3882
26182SOL    HW284383   8.739   2.410   1.027  3.2500  0.3002  1.1111
26183SOL     OW84384   5.010   4.176   4.552 -0.1228  0.0528  0.3886
26183SOL    HW184385   4.999   4.231   4.629  0.1030  0.9644 -0.2105
26183SOL    HW284386   5.092   4.130   4.566  0.8312  1.5419 -0.0735
26184SOL     OW84387   1.816   9.984   4.436  0.1505 -0.2126  0.5044
26184SOL    HW184388   1.879   9.927   4.393 -0.2428 -0.3579  0.1089
26184SOL    HW284389   1.795   9.939   4.518 -0.4953 -0.8709 -0.0104
26185SOL     OW84390   4.232   2.344   8.408  0.1320  0.2201  0.8411
26185SOL    HW184391   4.184   2.376   8.331 -0.6632 -1.1403  0.7504
26185SOL    HW284392   4.237   2.249   8.396  3.0844  0.2876  0.7280
26186SOL     OW84393   4.749   8.522   6.971 -0.1105 -0.4935  0.2910
26186SOL    HW184394   4.761   8.483   6.885  1.3432  1.0098 -0.2538
26186SOL    HW284395   4.795   8.606   6.966 -1.0919  0.2242  2.1276
26187SOL     OW84396   9.012   0.267   3.249  0.0673  0.5892  0.8887
26187SOL    HW184397   9.103   0.237   3.256 -0.1017  0.2349  1.7830
26187SOL    HW284398   9.016   0.361   3.263  0.1475  0.3673  2.5810
26188SOL     OW84399   2.431   9.744   2.957  0.4398  1.0876  0.4095
26188SOL    HW184400   2.478   9.705   3.031  0.3804  0.0018 -0.1160
26188SOL    HW284401   2.477   9.827   2.941  3.3886 -0.6857 -1.2180
26189SOL     OW84402   7.037   8.333   7.739 -0.6028  0.0983  0.7837
26189SOL    HW184403   6.943   8.320   7.753 -0.7995  1.2974  0.6063
26189SOL    HW284404   7.050   8.427   7.748  0.4958  0.0062  0.2465
26190SOL     OW84405   7.069   1.552   9.332  0.0285 -0.0689 -0.2812
26190SOL    HW184406   7.084   1.612   9.405 -0.4405 -0.4844  0.1656
26190SOL    HW284407   6.994   1.499   9.360 -1.3452  0.9566 -1.8084
26191SOL     OW84408   8.612   4.623   5.485 -0.0740  0.2878  0.4715
26191SOL    HW184409   8.546   4.690   5.469 -0.0323  0.1519 -0.2997
26191SOL    HW284410   8.635   4.591   5.398 -1.7405 -2.3441  0.8847
26192SOL     OW84411   6.059   9.026   4.983  0.3559  0.0718 -0.0417
26192SOL    HW184412   5.966   9.042   4.998  0.4132  0.4686 -0.0946
26192SOL    HW284413   6.066   8.931   4.976  0.2330 -0.0996  1.8389
26193SOL     OW84414   7.494   7.620   8.746 -0.1201 -0.1055  0.4213
26193SOL    HW184415   7.514   7.708   8.712 -0.8868  0.5244  1.5316
26193SOL    HW284416   7.500   7.563   8.669  0.7167  0.8530 -0.2615
26194SOL     OW84417  10.314   1.285   7.383  0.2267  0.5742  0.6021
26194SOL    HW184418  10.391   1.230   7.374  0.5114  0.9832  0.5161
26194SOL    HW284419  10.348   1.373   7.397 -0.1880  1.1002 -1.4038
26195SOL     OW84420   5.613   2.716   3.153 -0.2209  0.1724  0.8829
26195SOL    HW184421   5.582   2.788   3.207 -1.1065 -0.9614  1.9575
26195SOL    HW284422   5.539   2.654   3.152  0.1722 -0.3303 -0.7444
26196SOL     OW84423   1.514   8.260   4.985  0.0511  0.6681  0.2614
26196SOL    HW184424   1.467   8.191   4.938  0.6182  0.8126 -0.5280
26196SOL    HW284425   1.555   8.214   5.058 -0.2207  0.3058  0.1918
26197SOL     OW84426   9.706   8.196   2.335 -0.2353  0.4268  0.1490
26197SOL    HW184427   9.753   8.203   2.418 -1.5767 -0.3198  1.0057
26197SOL    HW284428   9.696   8.101   2.321 -0.4415  0.5516 -0.6251
26198SOL     OW84429   6.351   5.894   0.283 -0.1733 -1.1252  0.1817
26198SOL    HW184430   6.384   5.804   0.282  0.5499 -0.8760 -1.2581
26198SOL    HW284431   6.353   5.921   0.192  0.8149  0.7671  0.7191
26199SOL     OW84432   1.485   6.060   7.758 -0.1096  0.2580 -0.4745
26199SOL    HW184433   1.555   6.118   7.730  0.8540 -0.0617  1.1254
26199SOL    HW284434   1.528   5.975   7.772 -1.3930 -0.7569 -2.2990
26200SOL     OW84435   3.817   8.640   7.648  0.8221 -0.3474 -0.0010
26200SOL    HW184436   3.779   8.578   7.585  0.3927 -0.2866  0.1915
26200SOL    HW284437   3.805   8.597   7.733  0.1963  0.1468  0.1724
26201SOL     OW84438   7.498   2.046   9.956 -0.8508 -0.7353  0.1618
26201SOL    HW184439   7.479   2.122  10.011 -0.7141 -0.5577 -0.0372
26201SOL    HW284440   7.533   1.981  10.017 -1.4497 -0.8263  0.4219
26202SOL     OW84441   2.555   2.988  10.272  0.0383 -0.4898 -0.2034
26202SOL    HW184442   2.614   3.013  10.343 -1.2783  0.8711  0.4491
26202SOL    HW284443   2.485   2.939  10.315 -1.7129  1.8576 -0.2148
26203SOL     OW84444   7.773   9.301   3.334 -0.7539 -0.5600  0.0630
26203SOL    HW184445   7.816   9.234   3.281 -1.9376 -0.2726 -1.3126
26203SOL    HW284446   7.840   9.327   3.398  0.5925 -1.2068 -1.0259
26204SOL     OW84447   7.385   8.178   5.458  1.2183  0.4333  0.2194
26204SOL    HW184448   7.315   8.236   5.429  0.2565 -0.4603  0.6854
26204SOL    HW284449   7.361   8.092   5.423  0.5903 -0.4607  2.6780
26205SOL     OW84450   3.672   6.344  10.788  0.7589 -0.1106 -0.2832
26205SOL    HW184451   3.604   6.312  10.847  2.4472 -0.8549  1.3382
26205SOL    HW284452   3.670   6.439  10.799  0.3278 -0.1658  0.1264
26206SOL     OW84453   6.375   6.834   9.858  0.4045 -0.2379  0.1520
26206SOL    HW184454   6.411   6.761   9.909 -0.2538 -0.3293  0.5034
26206SOL    HW284455   6.282   6.835   9.880  0.1054 -0.2481 -1.0183
26207SOL     OW84456   4.989   3.781   3.644  0.0119 -0.1012  0.6778
26207SOL    HW184457   5.009   3.778   3.550  1.9345 -2.1548  1.0521
26207SOL    HW284458   5.002   3.872   3.668  1.0410  0.1878 -0.7873
26208SOL     OW84459   7.534   9.534   5.950  0.3973 -0.6081  0.3668
26208SOL    HW184460   7.484   9.453   5.961 -1.6862  0.5542 -0.0717
26208SOL    HW284461   7.620   9.514   5.988 -1.0849 -2.0008  3.3662
26209SOL     OW84462  10.197   6.167   6.780 -0.3019  0.1872 -0.2183
26209SOL    HW184463  10.152   6.162   6.864  1.5019 -0.7637  0.7683
26209SOL    HW284464  10.197   6.077   6.747 -2.4972  0.8080 -2.1591
26210SOL     OW84465   5.172   7.683   3.226  0.0768  0.1165  0.2669
26210SOL    HW184466   5.142   7.609   3.280 -0.7943  0.7419  0.6814
26210SOL    HW284467   5.122   7.674   3.145  1.2619 -0.7261 -0.3916
26211SOL     OW84468   7.872   9.094   8.082 -0.2742 -0.4194 -0.4149
26211SOL    HW184469   7.884   9.000   8.073 -0.0311 -0.2957 -1.5838
26211SOL    HW284470   7.785   9.104   8.121  0.0264 -1.1354  0.4525
26212SOL     OW84471   3.769   4.505   0.311  0.1794  0.1458 -0.1871
26212SOL    HW184472   3.722   4.520   0.393 -0.1133 -0.8955 -0.1414
26212SOL    HW284473   3.742   4.417   0.285  0.2585  0.4742 -1.4123
26213SOL     OW84474   6.575   0.166   9.679  0.8551 -0.5751  0.1195
26213SOL    HW184475   6.573   0.168   9.774 -0.6931 -0.6086  0.1248
26213SOL    HW284476   6.623   0.086   9.657  1.2808 -0.5275  0.8653
26214SOL     OW84477   0.082   8.084   5.949 -0.4850 -0.3087 -0.6144
26214SOL    HW184478   0.006   8.029   5.930 -1.5474  0.7159  0.5587
26214SOL    HW284479   0.089   8.086   6.044  0.6160  0.1550 -0.6801
26215SOL     OW84480  10.558   8.389   5.794  0.0174 -0.0847  0.5360
26215SOL    HW184481  10.508   8.309   5.810  1.2797 -0.9218  0.4442
26215SOL    HW284482  10.493   8.459   5.799 -1.0721 -1.0820  0.8904
26216SOL     OW84483   2.149   4.030   4.829  0.2398 -0.4939  0.2286
26216SOL    HW184484   2.195   4.063   4.752  0.2440  1.3704  0.9739
26216SOL    HW284485   2.079   3.976   4.793 -0.3469  1.0847 -1.1627
26217SOL     OW84486   1.054   7.822   9.249  0.6494  0.1943 -0.8615
26217SOL    HW184487   1.124   7.833   9.314  0.2791  0.7916 -0.5518
26217SOL    HW284488   1.056   7.729   9.227  1.4492  0.1756 -0.7502
26218SOL     OW84489   9.063   6.211   7.122 -0.0986 -0.4028  0.0885
26218SOL    HW184490   9.154   6.183   7.114  0.2203  0.3570  0.8665
26218SOL    HW284491   9.025   6.151   7.186 -1.0624 -2.7634 -2.5097
26219SOL     OW84492   5.889   0.574   0.114 -0.3889  0.2856  0.9376
26219SOL    HW184493   5.818   0.636   0.133 -0.1520  1.2197 -0.9618
26219SOL    HW284494   5.969   0.620   0.142 -0.3314  0.2266  0.8681
26220SOL     OW84495  10.059   7.758   5.777 -1.0844  0.0240 -0.1000
26220SOL    HW184496   9.967   7.757   5.801 -0.7414  1.2715  1.4506
26220SOL    HW284497  10.091   7.844   5.804  0.7187 -0.6862  0.2301
26221SOL     OW84498   2.299   1.815  10.778 -0.2553  0.1955 -0.4516
26221SOL    HW184499   2.249   1.823  10.859  1.4513  2.3110  0.4818
26221SOL    HW284500   2.247   1.862  10.713  0.0165  1.5331  0.2717
26222SOL     OW84501   9.025   3.267   8.799  0.2742 -0.4467  0.0233
26222SOL    HW184502   8.995   3.257   8.708 -0.5161 -0.6391  0.2985
26222SOL    HW284503   9.117   3.291   8.791  0.8798 -2.7066 -0.8154
26223SOL     OW84504   5.707   8.454   1.464 -0.5380 -0.5625 -0.4278
26223SOL    HW184505   5.633   8.514   1.455 -0.8955 -0.9819 -0.3825
26223SOL    HW284506   5.679   8.376   1.415 -0.8228 -1.3486  0.9223
26224SOL     OW84507  10.329   1.986   6.205 -0.2490 -0.5809  0.0079
26224SOL    HW184508  10.347   1.961   6.296  0.2328  0.0401  0.0849
26224SOL    HW284509  10.351   2.079   6.201 -0.1638 -0.6316 -0.7766
26225SOL     OW84510   3.003   5.801   3.434  0.3903 -0.4605  0.9319
26225SOL    HW184511   2.966   5.802   3.346  2.6117 -2.7475 -0.1462
26225SOL    HW284512   2.948   5.740   3.483 -1.3592  1.4437  1.4709
26226SOL     OW84513   6.384   8.877   9.379  0.0405 -1.0424 -0.1161
26226SOL    HW184514   6.332   8.899   9.302 -0.3512 -0.8203  0.2096
26226SOL    HW284515   6.468   8.920   9.364 -0.7560  0.8757  0.5789
26227SOL     OW84516   1.016   7.805   1.142 -0.3473  0.0918  0.2255
26227SOL    HW184517   1.050   7.880   1.094 -0.8770  1.0935  1.3686
26227SOL    HW284518   0.935   7.782   1.097 -0.2561  0.2953 -0.0422
26228SOL     OW84519   2.474   6.741   4.174  0.6403  0.5729  0.8808
26228SOL    HW184520   2.503   6.650   4.175  3.1206  1.3054  0.5393
26228SOL    HW284521   2.410   6.746   4.246  1.1869 -1.1995  1.5472
26229SOL     OW84522   7.375  10.033   9.910  0.0534  0.2435 -0.3018
26229SOL    HW184523   7.462  10.069   9.930  0.6389 -0.5025 -1.3558
26229SOL    HW284524   7.378   9.944   9.946 -0.8677  0.7340  1.0512
26230SOL     OW84525   4.314   0.350   9.319  0.0856 -0.3038  0.1255
26230SOL    HW184526   4.268   0.357   9.403 -1.0817  1.5583 -0.5916
26230SOL    HW284527   4.254   0.392   9.256  1.9230  0.4160 -1.2185
26231SOL     OW84528   4.206   2.442   2.808 -0.4262  0.5624  0.9838
26231SOL    HW184529   4.215   2.526   2.853  0.2987 -0.8389  3.6796
26231SOL    HW284530   4.294   2.403   2.813 -0.6006 -0.1557 -0.7447
26232SOL     OW84531   2.816   2.935   7.830  0.3195  0.1856  0.1796
26232SOL    HW184532   2.891   2.974   7.786 -0.2495  0.5372 -0.4989
26232SOL    HW284533   2.839   2.842   7.839  1.4938  0.5736  1.4182
26233SOL     OW84534   5.954   5.300   3.859 -0.5534 -0.2623 -0.5328
26233SOL    HW184535   5.947   5.211   3.895  1.0037 -0.4402 -0.6217
26233SOL    HW284536   5.916   5.292   3.771 -1.0879 -0.6588 -0.2770
26234SOL     OW84537   5.756   1.320   0.508  0.4841  0.0803  0.6814
26234SOL    HW184538   5.743   1.384   0.437  0.0883 -1.1975 -0.4477
26234SOL    HW284539   5.838   1.275   0.485  0.3489 -0.3491  1.0291
26235SOL     OW84540  10.279   0.138   1.449  0.2421 -0.1207 -0.1494
26235SOL    HW184541  10.359   0.190   1.458 -0.2027  0.4160  0.7312
26235SOL    HW284542  10.216   0.197   1.409  0.0030 -0.2599  0.0220
26236SOL     OW84543   4.626   6.479   8.844 -0.4761  0.3440  0.0548
26236SOL    HW184544   4.565   6.496   8.916 -1.3842 -1.3068 -0.2627
26236SOL    HW284545   4.702   6.534   8.863 -1.8731  2.1712  0.6851
26237SOL     OW84546   2.663   6.989   8.460 -0.2039 -0.7503  0.4052
26237SOL    HW184547   2.592   7.035   8.414  1.6499  0.6240 -1.2333
26237SOL    HW284548   2.734   6.985   8.397  1.0615 -2.5252  1.8352
26238SOL     OW84549   5.110   5.932   5.313 -0.6661  0.5171 -0.6992
26238SOL    HW184550   5.068   6.017   5.303 -0.0680  0.8788 -0.2460
26238SOL    HW284551   5.063   5.874   5.254 -1.4122  1.0453 -0.6301
26239SOL     OW84552   5.069   0.045   1.894  0.6552  0.3631  0.7833
26239SOL    HW184553   5.150   0.088   1.922  1.8689 -0.0885 -1.7488
26239SOL    HW284554   5.066  -0.036   1.944  1.8065  0.3688  0.8860
26240SOL     OW84555  10.646   2.167   3.574  0.4267  0.4123 -0.2981
26240SOL    HW184556  10.663   2.219   3.653  1.3086  2.1098 -1.5470
26240SOL    HW284557  10.726   2.116   3.562 -0.8671 -2.3776  1.6109
26241SOL     OW84558   6.059  10.643   3.349  0.0933 -0.3822 -0.1227
26241SOL    HW184559   6.143  10.614   3.314  0.2457  0.3128 -0.3510
26241SOL    HW284560   6.040  10.724   3.302 -0.6521 -0.4739  0.0062
26242SOL     OW84561   1.392   4.901   0.618 -0.4147  0.0212 -0.0670
26242SOL    HW184562   1.339   4.836   0.573 -2.5650  2.2447 -1.0127
26242SOL    HW284563   1.483   4.877   0.598 -1.1941 -1.2706 -2.4016
26243SOL     OW84564  10.707   1.368   8.716 -0.1589  0.4227 -0.1066
26243SOL    HW184565  10.776   1.321   8.668 -0.3891  1.4678 -1.5003
26243SOL    HW284566  10.650   1.298   8.748 -0.6001 -0.3038 -2.2990
26244SOL     OW84567   6.891   4.833   1.958 -0.4101  0.3608 -0.2385
26244SOL    HW184568   6.974   4.786   1.947 -1.2686 -1.3735  0.3567
26244SOL    HW284569   6.911   4.923   1.932  1.2175 -0.3857 -1.7854
26245SOL     OW84570   6.928   3.930  10.908 -0.4042 -0.1866 -0.1992
26245SOL    HW184571   6.882   3.846  10.907 -1.1826  0.1982 -1.7362
26245SOL    HW284572   6.943   3.949  10.815  1.2656  0.5811  0.2063
26246SOL     OW84573   5.204   8.532   4.239 -0.0235 -0.3163  0.0179
26246SOL    HW184574   5.198   8.610   4.293  0.9160 -0.0872 -0.2044
26246SOL    HW284575   5.119   8.488   4.252  0.1551 -0.2482  1.6268
26247SOL     OW84576   2.267   3.849   4.079 -0.9784  0.4880 -0.1872
26247SOL    HW184577   2.217   3.870   4.001  0.0645 -0.2564 -1.0871
26247SOL    HW284578   2.279   3.932   4.124 -2.0785  0.8313 -0.5074
26248SOL     OW84579   3.877   3.998   6.778 -0.4025  0.4013 -1.0003
26248SOL    HW184580   3.912   4.085   6.756  1.4036 -0.5182 -1.9704
26248SOL    HW284581   3.815   3.979   6.707  0.2251  0.3295 -1.5337
26249SOL     OW84582   8.707   9.091   1.015 -0.6224  0.0430  0.2460
26249SOL    HW184583   8.703   9.015   1.073 -1.3641  0.6357  1.0040
26249SOL    HW284584   8.713   9.054   0.927 -0.9396 -0.8935  0.6082
26250SOL     OW84585   7.300   5.568   4.775  0.0743 -0.5121 -0.2794
26250SOL    HW184586   7.234   5.548   4.709  0.6036 -0.7298 -0.7592
26250SOL    HW284587   7.353   5.637   4.735  0.1432 -0.3528  0.0879
26251SOL     OW84588   0.734   8.342  10.546  0.8846 -0.2302 -0.1341
26251SOL    HW184589   0.683   8.400  10.602  1.5184  0.2606 -0.0475
26251SOL    HW284590   0.695   8.256  10.558  0.9312 -0.1095  0.9702
26252SOL     OW84591   6.111   7.589  10.027  0.4103 -0.4079  0.5886
26252SOL    HW184592   6.071   7.662   9.980 -1.6313 -0.8403  1.5367
26252SOL    HW284593   6.040   7.525  10.036  0.7704 -0.5107  3.8955
26253SOL     OW84594   6.854   1.838   4.357 -0.1216  0.6962  0.1604
26253SOL    HW184595   6.933   1.806   4.400 -0.3530  1.4580  1.2129
26253SOL    HW284596   6.829   1.768   4.297 -0.4572 -1.0018  2.1424
26254SOL     OW84597   8.237   0.558   1.643 -0.1138  0.1224 -0.4631
26254SOL    HW184598   8.148   0.592   1.658  1.0183  2.2751  2.1397
26254SOL    HW284599   8.273   0.616   1.576 -0.8260 -1.1679 -2.0135
26255SOL     OW84600   7.903   7.249   9.486 -0.2270  0.5775 -0.1729
26255SOL    HW184601   7.893   7.245   9.581  1.2489 -1.5455 -0.0505
26255SOL    HW284602   7.958   7.174   9.464 -0.4317  1.0799 -2.7086
26256SOL     OW84603   3.894   5.268   9.687  0.4661  0.4532 -0.1053
26256SOL    HW184604   3.961   5.231   9.629  1.0822  2.2606 -0.5955
26256SOL    HW284605   3.924   5.357   9.705 -1.5984  1.1752  0.0101
26257SOL     OW84606   2.670   3.867   6.508 -0.3233  0.1093 -0.3075
26257SOL    HW184607   2.744   3.922   6.483  0.1456 -0.6214 -0.5377
26257SOL    HW284608   2.679   3.854   6.602  0.3586 -0.7226 -0.4774
26258SOL     OW84609   0.846   0.936   0.038 -0.5223 -0.0417 -0.2536
26258SOL    HW184610   0.893   0.888   0.106 -0.2442 -0.6483 -0.8607
26258SOL    HW284611   0.765   0.887   0.026 -0.1287 -0.5188 -1.0468
26259SOL     OW84612   9.416   0.699   4.414 -0.5710  0.0343  0.7630
26259SOL    HW184613   9.488   0.680   4.354  0.1027 -0.1081  1.5896
26259SOL    HW284614   9.357   0.755   4.363  0.8311  1.3557  0.4878
26260SOL     OW84615   6.870   0.743   9.168 -0.1366  0.2190 -0.4400
26260SOL    HW184616   6.877   0.655   9.130 -1.0739 -0.5838  1.1842
26260SOL    HW284617   6.780   0.750   9.198  0.5069  0.9021  1.4489
26261SOL     OW84618   9.125   2.469  10.649 -0.0130 -0.1149  0.2207
26261SOL    HW184619   9.044   2.419  10.633  0.6575 -0.8612 -0.9875
26261SOL    HW284620   9.193   2.418  10.604  0.8876  1.2843 -0.0417
26262SOL     OW84621   5.064   7.400   8.503  0.3112 -0.8448  0.0321
26262SOL    HW184622   5.028   7.473   8.453  0.5268 -1.0435 -0.4214
26262SOL    HW284623   5.074   7.434   8.592  1.5637  0.0869 -0.4352
26263SOL     OW84624   6.108   6.700   5.349 -0.2967 -0.1963  0.4766
26263SOL    HW184625   6.134   6.735   5.263  1.2271 -0.7610  0.6796
26263SOL    HW284626   6.058   6.771   5.389 -1.6825 -0.1805 -1.1377
26264SOL     OW84627   1.841   2.044   9.470 -0.4283  0.8148 -0.3518
26264SOL    HW184628   1.815   2.024   9.380  0.5375 -0.2566 -0.4163
26264SOL    HW284629   1.920   1.991   9.484 -0.6077  0.9212  1.1450
26265SOL     OW84630   2.755   5.346   0.351 -0.4357  0.2036  0.5266
26265SOL    HW184631   2.801   5.429   0.358  1.4297 -0.8085  0.9422
26265SOL    HW284632   2.663   5.370   0.341  0.1561  2.3121 -0.3129
26266SOL     OW84633   5.705   6.077   3.853  0.2640 -0.6911 -0.0835
26266SOL    HW184634   5.734   6.023   3.927 -1.3736  0.0523  1.1899
26266SOL    HW284635   5.663   6.015   3.794  2.4008 -1.4390 -0.9121
26267SOL     OW84636   2.246  10.686  10.220 -0.0232  0.0526 -0.3088
26267SOL    HW184637   2.305  10.760  10.234  1.5684 -0.7763 -2.1494
26267SOL    HW284638   2.190  10.713  10.148  0.2129 -0.3081 -0.6355
26268SOL     OW84639   1.102   7.854  10.338  0.0251 -0.4712 -0.0188
26268SOL    HW184640   1.148   7.883  10.259  0.8343 -0.9531  0.2591
26268SOL    HW284641   1.063   7.770  10.313  0.1372 -0.5414  0.0418
26269SOL     OW84642   5.244   5.593   6.217 -0.5765  0.2532 -0.4177
26269SOL    HW184643   5.229   5.644   6.297 -0.4077 -0.5839  0.1746
26269SOL    HW284644   5.165   5.604   6.165 -1.4406 -0.5648  0.6577
26270SOL     OW84645   0.331   0.402   9.181  0.0542 -0.0296  0.3277
26270SOL    HW184646   0.237   0.388   9.190 -0.0947  0.6425 -0.0969
26270SOL    HW284647   0.371   0.328   9.227 -0.6824 -1.3209 -1.0002
26271SOL     OW84648   1.640   5.954   3.874 -0.2707  0.1953 -0.0860
26271SOL    HW184649   1.702   5.889   3.905 -0.4278 -0.7289 -1.6052
26271SOL    HW284650   1.606   5.995   3.953  1.0661 -0.4049  0.8255
26272SOL     OW84651   7.583   3.829   5.571  0.3781 -0.1852  0.2341
26272SOL    HW184652   7.565   3.766   5.641 -1.9887 -0.4879 -0.5552
26272SOL    HW284653   7.578   3.777   5.490 -0.8856  0.8265 -0.3822
26273SOL     OW84654   3.307   7.841   5.665  0.1429 -0.3672 -0.1849
26273SOL    HW184655   3.328   7.748   5.672  0.6986 -0.2179  0.2356
26273SOL    HW284656   3.386   7.881   5.628  0.1332  0.0246  0.2057
26274SOL     OW84657   9.399   7.358   5.751 -0.1450 -0.5315  0.1037
26274SOL    HW184658   9.461   7.299   5.795 -1.2073 -0.4356  1.8312
26274SOL    HW284659   9.455   7.421   5.705  1.0289 -1.1047  0.6826
26275SOL     OW84660   8.898   7.010   2.020  0.0455  0.1851  0.5966
26275SOL    HW184661   8.822   6.957   1.998 -0.9861  2.1132 -0.7144
26275SOL    HW284662   8.970   6.947   2.026 -1.0482 -1.3406 -1.2364
26276SOL     OW84663   2.472   0.749   5.556 -0.3991  0.1277  0.3901
26276SOL    HW184664   2.450   0.812   5.625 -0.2954  1.2636 -0.5977
26276SOL    HW284665   2.500   0.802   5.482  0.8977 -1.1135 -0.0622
26277SOL     OW84666   2.453   1.392  10.886 -0.0087  0.3767 -0.6677
26277SOL    HW184667   2.531   1.402  10.832  0.5669  1.0594  0.2913
26277SOL    HW284668   2.485   1.391  10.976 -0.8580 -1.6856 -0.3236
26278SOL     OW84669   1.488   9.764   1.977  0.0666  0.6781 -0.3038
26278SOL    HW184670   1.567   9.755   2.032 -0.9586  2.4537  1.6438
26278SOL    HW284671   1.486   9.858   1.956 -2.5202  1.0837  1.3911
26279SOL     OW84672   4.181   8.325   2.768  0.8694  0.1642  0.2164
26279SOL    HW184673   4.183   8.257   2.700  2.4315  1.7630 -1.4438
26279SOL    HW284674   4.271   8.357   2.772 -0.1522  3.5701 -0.6015
26280SOL     OW84675   2.905   3.017   5.826 -0.9635  0.2689 -0.1569
26280SOL    HW184676   2.835   2.992   5.765 -1.2009  0.4084  0.0556
26280SOL    HW284677   2.947   3.092   5.784  0.9338 -1.5436 -1.6893
26281SOL     OW84678   2.077   5.263   7.892 -0.1423  0.2993  1.1246
26281SOL    HW184679   1.988   5.232   7.910 -0.2170 -0.2840 -0.1120
26281SOL    HW284680   2.065   5.351   7.856 -0.4978 -0.7285 -1.5398
26282SOL     OW84681   9.461   4.263   1.305  0.4255  0.2349  0.0859
26282SOL    HW184682   9.380   4.308   1.330  0.4586 -0.1713  0.9472
26282SOL    HW284683   9.525   4.292   1.369  0.7504 -0.0977 -0.0871
26283SOL     OW84684   2.697   1.849   7.508 -0.7156 -0.7212 -0.6198
26283SOL    HW184685   2.624   1.903   7.477 -1.1446 -0.2705  1.0754
26283SOL    HW284686   2.685   1.845   7.603  2.3725  0.7311 -0.0509
26284SOL     OW84687   9.822   3.069   3.998  0.4899  0.0728 -0.6907
26284SOL    HW184688   9.751   3.117   3.954  2.6016  2.1186 -2.1199
26284SOL    HW284689   9.902   3.107   3.962  2.3642 -1.1198  1.9003
26285SOL     OW84690   2.395   5.995   1.481 -0.2853 -0.1879  0.0827
26285SOL    HW184691   2.434   5.932   1.421 -0.6788  0.1033 -0.4798
26285SOL    HW284692   2.339   5.941   1.538  0.9096 -0.6110  0.9098
26286SOL     OW84693   3.075   8.354   7.157 -0.4702 -0.1107 -0.0652
26286SOL    HW184694   3.027   8.416   7.102  0.2772  1.3443  0.8520
26286SOL    HW284695   3.009   8.290   7.183 -2.1768  2.1541  1.6676
26287SOL     OW84696  10.015   4.447  10.815 -0.1123  0.6084 -0.1649
26287SOL    HW184697   9.957   4.372  10.804 -0.5771  0.8959  0.2821
26287SOL    HW284698  10.097   4.421  10.772  0.4734 -1.0156  1.7600
26288SOL     OW84699   6.895   9.003   6.903  0.2420 -0.1085 -0.3532
26288SOL    HW184700   6.967   8.941   6.894  0.4756  0.0875  0.1402
26288SOL    HW284701   6.935   9.089   6.894  0.2171  0.0340  0.7376
26289SOL     OW84702   6.092   7.011   8.024 -0.4033 -0.3780  0.6258
26289SOL    HW184703   6.065   7.066   8.097 -1.1208  0.5694 -0.3238
26289SOL    HW284704   6.118   7.072   7.956 -0.3588 -1.2316 -0.1417
26290SOL     OW84705   3.769  10.180   2.458 -0.4588 -0.7166 -0.1967
26290SOL    HW184706   3.729  10.226   2.384  0.9194  0.3831 -0.3037
26290SOL    HW284707   3.717  10.208   2.534 -0.4054  0.0503 -0.4347
26291SOL     OW84708   3.805  10.019   4.008 -0.3007 -0.1623  0.6568
26291SOL    HW184709   3.862   9.996   3.934 -2.3409 -1.1503 -0.6913
26291SOL    HW284710   3.725  10.051   3.968 -1.0575  0.3684  2.4869
26292SOL     OW84711   3.087   3.614  10.404  0.1467  0.1257  0.0885
26292SOL    HW184712   3.060   3.690  10.455 -0.0779  0.2373 -0.1926
26292SOL    HW284713   3.156   3.573  10.456 -1.5540 -1.0289  1.5618
26293SOL     OW84714   8.487   2.458   0.467 -0.1643 -0.1446  0.4833
26293SOL    HW184715   8.527   2.536   0.430  2.1590 -1.9768 -1.1344
26293SOL    HW284716   8.397   2.458   0.433  0.8892  0.0137 -2.5009
26294SOL     OW84717   0.270   3.847   7.798 -0.0723 -0.3306  0.0399
26294SOL    HW184718   0.194   3.820   7.850  1.3614 -1.8747  1.4715
26294SOL    HW284719   0.340   3.856   7.863  1.3514 -0.4920 -1.4282
26295SOL     OW84720   0.976   7.442   3.842 -0.1273 -0.5235 -0.3506
26295SOL    HW184721   0.905   7.448   3.778  0.1140  0.1582 -0.5629
26295SOL    HW284722   0.942   7.384   3.910  0.2348 -2.6908 -1.8989
26296SOL     OW84723   5.488  10.178   8.397  0.1742  0.1642 -0.0249
26296SOL    HW184724   5.463  10.268   8.376  2.3656  1.0555  0.9018
26296SOL    HW284725   5.435  10.157   8.474 -0.6326  0.4879 -0.4657
26297SOL     OW84726   7.810   5.464   5.608  0.0421  0.2192 -0.4178
26297SOL    HW184727   7.758   5.395   5.568  0.9986 -0.7623 -0.0010
26297SOL    HW284728   7.753   5.541   5.605 -1.3743 -0.7735 -0.1332
26298SOL     OW84729   5.501   0.493  10.563 -0.0231  0.6669 -0.0510
26298SOL    HW184730   5.535   0.411  10.597  0.1784  0.3571 -0.9824
26298SOL    HW284731   5.577   0.535  10.523 -0.4705  0.5496 -1.0284
26299SOL     OW84732   7.129   4.699  10.665  0.1605  0.1184  0.3838
26299SOL    HW184733   7.164   4.721  10.751 -0.7178 -1.6509  1.2430
26299SOL    HW284734   7.190   4.741  10.603  3.9665 -2.8114  1.7311
26300SOL     OW84735   3.859   1.055   4.646  0.1280 -0.0505  0.1128
26300SOL    HW184736   3.838   0.996   4.718  3.4599 -0.4917  0.8930
26300SOL    HW284737   3.834   1.007   4.567  0.5227 -1.4862  0.8282
26301SOL     OW84738   9.616   9.479  10.475  0.1768 -0.4473  0.4566
26301SOL    HW184739   9.584   9.480  10.565 -0.5633 -4.6519  0.4011
26301SOL    HW284740   9.562   9.415  10.430  1.5538  0.3596 -2.6247
26302SOL     OW84741   5.121   4.921   0.290  0.0462 -0.1439 -0.0464
26302SOL    HW184742   5.063   4.846   0.309 -0.1207 -0.9981 -3.3036
26302SOL    HW284743   5.062   4.988   0.255  0.6191  0.1984 -0.3620
26303SOL     OW84744   2.935   3.117   3.145  0.1996 -0.2683 -0.1800
26303SOL    HW184745   2.891   3.164   3.216  0.6732  0.6682 -0.4852
26303SOL    HW284746   2.875   3.047   3.122 -0.8532  0.6073 -0.1728
26304SOL     OW84747   4.805   4.963   3.734  0.5317  0.3766 -0.0374
26304SOL    HW184748   4.863   4.984   3.808  0.7227  0.8200 -0.3055
26304SOL    HW284749   4.828   4.873   3.711 -0.0973 -0.0431  0.9537
26305SOL     OW84750   1.644   2.424   5.904  0.1211 -0.3718  0.1085
26305SOL    HW184751   1.611   2.479   5.974 -0.5455 -0.1453 -0.3803
26305SOL    HW284752   1.708   2.478   5.858  0.2435 -0.3747  0.2743
26306SOL     OW84753   6.387   1.090   6.848  0.0496  0.1695 -0.5840
26306SOL    HW184754   6.449   1.022   6.877 -0.2333  0.9006  1.9697
26306SOL    HW284755   6.348   1.054   6.768 -0.3251 -2.8552  0.8224
26307SOL     OW84756   1.138   9.894   5.118  0.2174  0.0452  0.0765
26307SOL    HW184757   1.208   9.838   5.086  0.0895 -0.8140  1.2538
26307SOL    HW284758   1.181   9.955   5.177  0.2168  0.6234 -0.5080
26308SOL     OW84759   3.237   6.790   6.929  0.4764 -0.3957 -0.2221
26308SOL    HW184760   3.209   6.700   6.913  0.2040 -0.4709  0.6475
26308SOL    HW284761   3.159   6.843   6.912  1.0085 -0.1508 -2.1772
26309SOL     OW84762   7.834   5.391   9.797  0.5106 -0.1510  0.2057
26309SOL    HW184763   7.773   5.346   9.739  1.9162  0.7106 -2.0463
26309SOL    HW284764   7.781   5.414   9.874 -2.1604  1.0525 -1.8444
26310SOL     OW84765   2.284   3.173   1.082 -0.0538 -0.0223 -0.2263
26310SOL    HW184766   2.199   3.146   1.047 -0.1327  1.2529 -1.0755
26310SOL    HW284767   2.336   3.195   1.005  1.2393 -1.2584  0.2490
26311SOL     OW84768   4.105   2.677   0.069  0.0011 -0.0162  0.3516
26311SOL    HW184769   4.025   2.667   0.121  1.8922 -0.1705  3.4751
26311SOL    HW284770   4.130   2.587   0.046 -0.8519  0.0536 -0.9079
26312SOL     OW84771   1.080   3.064   9.282 -0.0338  0.2821  0.2974
26312SOL    HW184772   1.097   3.020   9.365  1.5044 -0.6504 -0.4574
26312SOL    HW284773   1.079   2.993   9.217 -2.0488  0.8899 -0.3960
26313SOL     OW84774   8.976   8.795   8.493 -0.1334 -0.1253 -0.1717
26313SOL    HW184775   9.051   8.791   8.434  0.3485 -0.9470  0.4694
26313SOL    HW284776   8.953   8.888   8.497  0.2251  0.0130 -1.1451
26314SOL     OW84777  10.771   2.266   8.242 -0.3976 -0.2026 -0.1158
26314SOL    HW184778  10.745   2.242   8.331  2.1737 -0.4169  0.6786
26314SOL    HW284779  10.826   2.193   8.214  2.0498  1.5740 -0.2874
26315SOL     OW84780  10.584  10.597   6.784 -0.2003  0.2262  0.4927
26315SOL    HW184781  10.586  10.535   6.711 -0.6236 -1.5213  1.8879
26315SOL    HW284782  10.496  10.635   6.781 -0.2143  0.1646  0.0889
26316SOL     OW84783   3.190   0.714   0.632  0.0849  0.5052 -0.4113
26316SOL    HW184784   3.266   0.712   0.574 -0.4270 -0.9638 -1.0904
26316SOL    HW284785   3.222   0.756   0.712  2.0503 -1.2992 -0.1427
26317SOL     OW84786   8.433   5.987   1.126  0.0825 -0.2899  0.1560
26317SOL    HW184787   8.375   6.061   1.145 -0.8532 -1.0886  0.4716
26317SOL    HW284788   8.414   5.964   1.035 -1.2673 -1.5432  0.7217
26318SOL     OW84789   4.392   7.325   1.210 -0.3929  0.0576 -0.1991
26318SOL    HW184790   4.482   7.354   1.223 -0.9636  1.5087  0.8246
26318SOL    HW284791   4.374   7.345   1.119  0.6276 -1.2612 -0.7331
26319SOL     OW84792   6.779   3.998   7.342 -0.1418  0.3595  0.0726
26319SOL    HW184793   6.843   4.069   7.339 -1.2805  1.4539  0.5446
26319SOL    HW284794   6.710   4.026   7.282 -0.8934 -0.0545  0.7272
26320SOL     OW84795  10.141   1.551   5.792  0.1026  0.3142  0.0039
26320SOL    HW184796  10.063   1.519   5.746 -0.9083  0.5667  1.4605
26320SOL    HW284797  10.150   1.642   5.764  0.1602  0.1491 -0.5234
26321SOL     OW84798   9.124   9.323   9.363 -0.0874  0.0343  0.5889
26321SOL    HW184799   9.097   9.272   9.439  2.0355  1.7757  2.6641
26321SOL    HW284800   9.054   9.309   9.299 -1.5501 -2.1961  2.4853
26322SOL     OW84801   3.437   3.106   8.967 -0.6299  0.0091  0.3023
26322SOL    HW184802   3.489   3.031   8.996  0.3988  0.1833 -1.0101
26322SOL    HW284803   3.484   3.140   8.891 -2.3194  0.5863 -0.5344
26323SOL     OW84804   3.749   6.237   9.105  0.0152 -0.4322 -0.4247
26323SOL    HW184805   3.704   6.316   9.074  0.9164  0.3118  0.0806
26323SOL    HW284806   3.772   6.257   9.196 -0.7526 -1.7551  0.0884
26324SOL     OW84807   6.756   0.869   8.904 -0.3266  0.4041 -0.0544
26324SOL    HW184808   6.739   0.961   8.925 -0.5014  0.3297  0.1411
26324SOL    HW284809   6.760   0.826   8.990 -2.6074 -0.1785 -0.1733
26325SOL     OW84810   2.324   6.466   7.603  0.3295  0.5912  0.1219
26325SOL    HW184811   2.294   6.553   7.578  0.6981  0.6899  0.0110
26325SOL    HW284812   2.395   6.482   7.666  0.3112  0.3714  0.2005
26326SOL     OW84813   2.191   4.622   4.193  0.1807  0.2565  0.0679
26326SOL    HW184814   2.279   4.593   4.217  1.2002  1.4136 -1.9044
26326SOL    HW284815   2.148   4.543   4.161  1.1980 -0.0215 -0.6989
26327SOL     OW84816   7.383   0.811   9.391 -0.7061  0.1204 -0.4360
26327SOL    HW184817   7.337   0.891   9.365  0.6106  0.4791 -1.7352
26327SOL    HW284818   7.454   0.802   9.329 -1.1865 -2.4491 -0.7337
26328SOL     OW84819   8.940   0.790   9.245  0.2354  0.0320 -0.2065
26328SOL    HW184820   9.031   0.767   9.260 -0.4936 -2.2374  1.2704
26328SOL    HW284821   8.927   0.779   9.150  1.5915  0.9932 -0.5296
26329SOL     OW84822   3.582   7.245   9.002  0.5856 -0.0406  0.3864
26329SOL    HW184823   3.674   7.267   9.017  1.5691 -2.1204 -1.9551
26329SOL    HW284824   3.579   7.211   8.913 -2.5214  0.0994  0.3227
26330SOL     OW84825   5.169  10.399   2.387 -0.2808  0.2527 -0.5174
26330SOL    HW184826   5.193  10.314   2.349 -0.0850 -1.0691  2.3294
26330SOL    HW284827   5.078  10.412   2.362 -0.7023 -1.4338  0.0502
26331SOL     OW84828   7.624   4.583   7.858 -0.4327 -0.4670 -0.0836
26331SOL    HW184829   7.535   4.614   7.841  0.2243  0.8782 -1.2946
26331SOL    HW284830   7.626   4.494   7.822 -1.4308 -0.7312  0.4806
26332SOL     OW84831   4.628   5.865  10.136 -0.3255  0.7680  0.0605
26332SOL    HW184832   4.722   5.853  10.150 -0.5162 -0.3866  0.5334
26332SOL    HW284833   4.613   5.833  10.047 -0.6577 -1.7330  0.9351
26333SOL     OW84834   4.772  10.710   9.892 -0.0683  0.4706  0.6068
26333SOL    HW184835   4.801  10.623   9.865  1.8955  0.0231  3.6263
26333SOL    HW284836   4.701  10.694   9.954 -0.6838  1.1150  0.0837
26334SOL     OW84837   1.015   9.002   8.813  0.0202 -0.2274 -0.1447
26334SOL    HW184838   1.000   8.942   8.886  0.2278 -0.5687 -0.3747
26334SOL    HW284839   1.049   9.081   8.854  0.9176 -0.7008  0.0760
26335SOL     OW84840  10.102   2.333   7.164  0.0178  0.4200 -0.0790
26335SOL    HW184841  10.038   2.386   7.117  0.0816  1.4393  0.9496
26335SOL    HW284842  10.115   2.378   7.248  2.9208  0.8917 -0.6755
26336SOL     OW84843   8.337   6.812  10.745 -0.1473  0.1892  0.2055
26336SOL    HW184844   8.366   6.839  10.832  1.1985  2.5619 -0.8883
26336SOL    HW284845   8.249   6.777  10.759 -0.4666  1.6711  2.3432
26337SOL     OW84846  10.051   6.856   1.576 -0.1133 -0.1504 -0.5851
26337SOL    HW184847  10.036   6.940   1.619 -1.2268 -0.2484 -0.7574
26337SOL    HW284848   9.972   6.840   1.525  0.0051 -1.3891 -0.4173
26338SOL     OW84849   1.047   2.596   0.000 -0.1752 -0.3439 -0.3290
26338SOL    HW184850   1.036   2.525   0.064 -0.0256 -0.2348 -0.1842
26338SOL    HW284851   0.961   2.639  -0.002  0.6585  1.6845  2.1941
26339SOL     OW84852   2.608   7.658   2.387 -0.2844 -0.3504  0.2189
26339SOL    HW184853   2.700   7.643   2.366 -0.4630 -1.0236 -0.0968
26339SOL    HW284854   2.588   7.596   2.456 -1.2716 -2.3435 -1.7400
26340SOL     OW84855   5.286   3.812   7.973  0.0775  0.1827  0.5073
26340SOL    HW184856   5.376   3.828   7.945 -0.0480  0.0156 -0.0112
26340SOL    HW284857   5.248   3.899   7.983  0.3732  0.2569  0.9844
26341SOL     OW84858   3.802   0.346   5.373  0.2231  0.3041 -0.0477
26341SOL    HW184859   3.801   0.252   5.353  2.0846 -0.2653  2.1093
26341SOL    HW284860   3.856   0.353   5.452 -0.6744  3.1043  0.4237
26342SOL     OW84861   9.551   5.461   0.296  0.2674 -0.7816 -0.2293
26342SOL    HW184862   9.626   5.401   0.304 -0.9423 -2.5287 -1.2430
26342SOL    HW284863   9.474   5.406   0.311 -1.0666 -0.2100 -3.8309
26343SOL     OW84864   2.881  10.854   0.395 -0.6050  0.3401 -0.5263
26343SOL    HW184865   2.887  10.841   0.301  1.4400 -0.3255 -0.3625
26343SOL    HW284866   2.922  10.939   0.410 -1.5729  0.7730 -0.2925
26344SOL     OW84867   4.402   4.341   8.670  0.2341 -0.2095  0.0816
26344SOL    HW184868   4.312   4.329   8.641  0.0472 -0.0589  0.5840
26344SOL    HW284869   4.454   4.342   8.590 -0.2512  0.0814 -0.2311
26345SOL     OW84870   0.943   9.549   4.380 -0.0445 -0.2870  0.5070
26345SOL    HW184871   0.850   9.572   4.376 -0.6106 -2.5655 -0.6158
26345SOL    HW284872   0.950   9.490   4.455 -0.1805 -2.6838 -1.2698
26346SOL     OW84873   2.714   9.061   2.200  0.4573 -0.4699 -0.6585
26346SOL    HW184874   2.711   9.115   2.121 -0.8911 -1.8194 -1.5679
26346SOL    HW284875   2.714   8.971   2.168 -0.9128 -1.0610  0.8682
26347SOL     OW84876   9.317   8.142   2.215 -0.9567 -0.4215  0.2895
26347SOL    HW184877   9.242   8.188   2.175 -0.9151 -0.2300  0.4336
26347SOL    HW284878   9.278   8.064   2.255 -1.3995  0.6897  2.1382
26348SOL     OW84879   0.768   8.818   9.960  0.2101  0.1544  0.2298
26348SOL    HW184880   0.707   8.746   9.974  1.6569 -1.1295  0.1098
26348SOL    HW284881   0.713   8.890   9.929 -1.2401 -0.9310  0.1775
26349SOL     OW84882   8.302   5.051   1.295  0.0646  0.3754 -0.2908
26349SOL    HW184883   8.237   5.082   1.233  1.3378  1.1890 -1.2580
26349SOL    HW284884   8.377   5.027   1.242 -0.2143 -2.9017  0.5368
26350SOL     OW84885   7.358   9.633   4.885  0.2870  0.3853 -0.0040
26350SOL    HW184886   7.336   9.605   4.974  2.0440  0.4974  0.5079
26350SOL    HW284887   7.300   9.582   4.829  1.3161 -2.0966  1.0535
26351SOL     OW84888  10.082   8.990   8.059 -0.1975 -0.0795 -0.0572
26351SOL    HW184889   9.987   8.997   8.060 -0.3305 -1.1612 -1.4490
26351SOL    HW284890  10.105   8.960   8.147 -1.3045 -1.3025 -0.1525
26352SOL     OW84891   8.301  10.266   8.871 -0.4026 -0.2425  0.7050
26352SOL    HW184892   8.386  10.310   8.875 -0.2704 -0.4551  0.2825
26352SOL    HW284893   8.303  10.202   8.941  0.4594 -1.4271 -0.3698
26353SOL     OW84894   3.153   7.788   9.163  0.1140  0.2517 -0.4080
26353SOL    HW184895   3.169   7.821   9.074 -3.2326  0.9500 -0.8856
26353SOL    HW284896   3.197   7.851   9.220  3.1718 -0.7400 -1.4502
26354SOL     OW84897   8.111   6.331   8.653 -0.6538  0.3471 -0.1223
26354SOL    HW184898   8.107   6.270   8.727 -0.1781 -0.0070 -0.3852
26354SOL    HW284899   8.119   6.417   8.693 -0.0436  0.1254  0.2329
26355SOL     OW84900   3.911   7.491   9.290 -0.0409  0.6114  0.4233
26355SOL    HW184901   3.912   7.492   9.386  0.9192 -1.8581  0.4995
26355SOL    HW284902   3.970   7.563   9.265  1.1769  0.1257  1.7538
26356SOL     OW84903   9.202   5.674   3.649 -0.3485  0.4925 -0.5323
26356SOL    HW184904   9.209   5.767   3.671  0.1760  0.2243  0.4982
26356SOL    HW284905   9.165   5.634   3.727 -0.7306 -0.1457 -1.0375
26357SOL     OW84906   3.692   8.380   7.511  0.4032  0.3280 -0.4847
26357SOL    HW184907   3.742   8.307   7.475  1.0584  0.5533 -0.0549
26357SOL    HW284908   3.670   8.354   7.600 -2.2677 -0.7361 -1.3766
26358SOL     OW84909   4.663   5.593   1.772 -0.2964 -0.3469  0.5027
26358SOL    HW184910   4.663   5.651   1.696  1.3430 -0.9501 -0.0098
26358SOL    HW284911   4.756   5.585   1.796 -0.6139 -1.6405  1.4100
26359SOL     OW84912   8.747   0.189   9.533 -0.6271 -0.0827  0.4109
26359SOL    HW184913   8.666   0.239   9.532 -0.1084  0.8161  1.3295
26359SOL    HW284914   8.772   0.186   9.626  0.9590  0.6326  0.0510
26360SOL     OW84915   1.520   9.924   1.601  0.0536 -0.1038  0.0183
26360SOL    HW184916   1.589   9.873   1.643 -0.5274 -0.6233  0.3702
26360SOL    HW284917   1.440   9.876   1.621 -0.3985  0.4367 -0.4637
26361SOL     OW84918   2.280   5.570   4.585 -0.2518  0.5701 -0.3400
26361SOL    HW184919   2.191   5.584   4.618 -0.7750 -0.0948 -1.4094
26361SOL    HW284920   2.286   5.626   4.508  0.6963  1.5295  0.3925
26362SOL     OW84921  10.548   0.183   8.454  0.4357  0.3385  0.3143
26362SOL    HW184922  10.617   0.176   8.388  0.6229  0.7221  0.4693
26362SOL    HW284923  10.555   0.102   8.505 -1.2742 -1.1470 -1.6255
26363SOL     OW84924   8.274   6.790   4.432 -0.2562  0.2449 -0.8992
26363SOL    HW184925   8.335   6.863   4.442  0.4082 -0.6099  2.5532
26363SOL    HW284926   8.190   6.831   4.412  0.0657  2.0559  1.0950
26364SOL     OW84927   0.883   6.502   8.497  0.5099 -0.5343 -0.2553
26364SOL    HW184928   0.898   6.472   8.587  2.0115  0.7671 -0.0289
26364SOL    HW284929   0.788   6.512   8.491  0.3509 -1.0006  1.0683
26365SOL     OW84930   2.452   3.579   0.059  0.1502 -0.1151  0.2185
26365SOL    HW184931   2.359   3.560   0.063  0.1279  0.1249  0.9182
26365SOL    HW284932   2.480   3.585   0.151  0.5203  1.4451  0.0279
26366SOL     OW84933   9.823   2.715   5.157  0.4800 -0.3918 -0.2798
26366SOL    HW184934   9.785   2.664   5.229  0.0163 -0.0202 -0.2568
26366SOL    HW284935   9.767   2.793   5.151  0.9519 -0.0757 -0.5700
26367SOL     OW84936   6.508   1.412   3.685 -0.2556  0.0731  0.1141
26367SOL    HW184937   6.589   1.363   3.702 -0.2844  0.4444  1.4295
26367SOL    HW284938   6.449   1.386   3.757  0.3265  3.3220  1.9534
26368SOL     OW84939  10.182   9.785   9.374 -1.0703  0.1282 -0.6496
26368SOL    HW184940  10.232   9.848   9.427 -1.1916  1.3078 -1.8881
26368SOL    HW284941  10.091   9.812   9.385 -1.2821 -0.7816 -0.0057
26369SOL     OW84942   5.235   4.495   6.225  0.3273  0.2221  1.0113
26369SOL    HW184943   5.165   4.532   6.279  0.5517  1.9165  0.2153
26369SOL    HW284944   5.252   4.409   6.263 -0.8058  0.5956  2.4489
26370SOL     OW84945   7.732   7.800   9.294 -0.1242 -0.3045  0.0299
26370SOL    HW184946   7.678   7.772   9.220 -0.6795 -0.5984  0.5383
26370SOL    HW284947   7.670   7.839   9.355 -0.0908 -2.3762  1.4879
26371SOL     OW84948   0.719   4.618   5.322  0.8369 -0.0194 -0.4023
26371SOL    HW184949   0.758   4.542   5.279 -1.9544 -1.1957 -1.0650
26371SOL    HW284950   0.731   4.690   5.259  2.0125 -0.2882 -0.5020
26372SOL     OW84951   1.244   4.820   4.934  0.6788 -0.5275  0.1514
26372SOL    HW184952   1.226   4.775   5.016  1.9663 -0.1114  0.6896
26372SOL    HW284953   1.302   4.892   4.958 -0.8303  1.0676 -0.7703
26373SOL     OW84954   5.219   4.121   1.448  0.2762  0.1583  0.5326
26373SOL    HW184955   5.153   4.092   1.385  0.5393  0.4346  0.1294
26373SOL    HW284956   5.229   4.215   1.432  0.3418  0.2347  0.9897
26374SOL     OW84957   3.265   2.237   2.187  0.0798 -0.3461 -0.3446
26374SOL    HW184958   3.244   2.305   2.122  0.6207  1.1608  0.9911
26374SOL    HW284959   3.263   2.282   2.271  1.9954 -1.6212  0.4580
26375SOL     OW84960  10.914   2.010   0.253  0.1126  0.0146 -0.6244
26375SOL    HW184961  10.885   2.009   0.162  0.2230  0.2927 -0.6636
26375SOL    HW284962  10.851   2.065   0.298  0.6790  0.7883 -0.7495
26376SOL     OW84963   9.842   7.550   1.642 -0.1767  0.1932 -0.1437
26376SOL    HW184964   9.780   7.480   1.619  0.0481 -0.4496  1.1222
26376SOL    HW284965   9.786   7.621   1.674 -0.3445  0.1481 -0.3332
26377SOL     OW84966   4.640   6.121   4.733  0.8620  0.1917  0.0152
26377SOL    HW184967   4.569   6.119   4.669 -0.1384 -1.2577  1.1048
26377SOL    HW284968   4.720   6.123   4.680  0.0537  1.6592 -1.2316
26378SOL     OW84969   8.436   9.669   4.015 -0.2729  0.1867  0.0637
26378SOL    HW184970   8.426   9.762   3.993 -0.2846  0.2939  0.5245
26378SOL    HW284971   8.463   9.629   3.932  0.7589  0.7706  0.0979
26379SOL     OW84972   0.659   2.764   6.555  1.4637 -1.0804 -0.4603
26379SOL    HW184973   0.669   2.830   6.623  0.2867 -0.2671 -1.0517
26379SOL    HW284974   0.565   2.758   6.541  1.7066 -0.8603 -2.3769
26380SOL     OW84975   1.523   9.836   4.694 -0.3484 -0.1410 -0.0221
26380SOL    HW184976   1.481   9.758   4.658 -1.5022  1.2300 -1.7849
26380SOL    HW284977   1.613   9.833   4.660 -0.3817 -0.6779 -0.0764
26381SOL     OW84978  10.845   2.091  10.267 -0.1341 -0.3641 -0.0157
26381SOL    HW184979  10.850   1.995  10.267  1.1981 -0.3306  1.7233
26381SOL    HW284980  10.861   2.115  10.175 -2.0967 -1.8177 -0.8103
26382SOL     OW84981   3.434   9.621   0.709 -0.0761  0.3269 -0.0852
26382SOL    HW184982   3.414   9.531   0.680  1.3208  0.7019 -2.5180
26382SOL    HW284983   3.529   9.620   0.724 -0.1651  1.2283  0.5497
26383SOL     OW84984   1.499   3.159   8.497  0.3196 -0.6444 -0.4267
26383SOL    HW184985   1.593   3.140   8.494  1.3976  3.6288 -0.0373
26383SOL    HW284986   1.466   3.130   8.412  2.3984 -0.5107 -1.3325
26384SOL     OW84987  10.762   4.690   3.211 -0.5494 -0.6544 -0.3856
26384SOL    HW184988  10.835   4.630   3.222  0.1540  0.1114 -0.7228
26384SOL    HW284989  10.706   4.675   3.287  0.6850 -0.2603  0.6429
26385SOL     OW84990   1.463   2.852   6.460 -0.0661 -0.6152 -0.0168
26385SOL    HW184991   1.401   2.868   6.531 -0.6218 -2.2296 -0.0910
26385SOL    HW284992   1.421   2.786   6.405 -0.0180  1.1983 -2.3744
26386SOL     OW84993  10.183   8.770   5.616 -0.3641  0.3979 -0.2960
26386SOL    HW184994  10.274   8.756   5.589 -0.4044 -2.1935  0.5977
26386SOL    HW284995  10.131   8.734   5.545 -0.6411  0.3771 -0.0826
26387SOL     OW84996   7.118   3.035   0.607 -0.1652  0.1197  0.5659
26387SOL    HW184997   7.167   3.106   0.649  3.0342 -1.0867 -0.7621
26387SOL    HW284998   7.174   2.958   0.619 -0.9191 -1.0616 -2.5602
26388SOL     OW84999   8.099   1.904   7.824  0.4002  0.2520  0.0964
26388SOL    HW185000   8.145   1.897   7.740 -0.5168  0.0735 -0.4025
26388SOL    HW285001   8.156   1.857   7.885  0.8476 -0.0376 -0.5208
26389SOL     OW85002   9.935   8.426  10.363 -0.0258  0.8315  0.5121
26389SOL    HW185003   9.931   8.371  10.441  2.4357 -2.1030 -1.2087
26389SOL    HW285004   9.864   8.392  10.307  1.6141 -0.9434 -0.6292
26390SOL     OW85005   3.890   3.229   2.240  0.3330  0.4808  0.1618
26390SOL    HW185006   3.884   3.183   2.156 -0.8720 -0.8576  0.9480
26390SOL    HW285007   3.982   3.255   2.246  0.2488  1.5490 -2.0431
26391SOL     OW85008   4.123  10.680   2.631  0.5781 -0.0017 -0.1987
26391SOL    HW185009   4.141  10.622   2.556  0.1559 -0.2440 -0.1167
26391SOL    HW285010   4.199  10.738   2.634 -0.3676  1.4622 -2.1824
26392SOL     OW85011   6.635   4.247   1.127  0.2688  0.1201  0.3760
26392SOL    HW185012   6.589   4.175   1.169  2.6292 -1.0025  1.2023
26392SOL    HW285013   6.655   4.214   1.039  0.3327  0.2134  0.3553
26393SOL     OW85014   9.746   9.382   2.589  0.4812 -0.2281 -0.8039
26393SOL    HW185015   9.833   9.350   2.613  0.4408  0.0094 -0.3170
26393SOL    HW285016   9.688   9.306   2.603  0.6303 -0.4276 -1.2659
26394SOL     OW85017   9.708   9.057   4.104 -0.0441  0.0334  0.5013
26394SOL    HW185018   9.703   8.975   4.054  0.4934 -0.3006  0.9750
26394SOL    HW285019   9.797   9.088   4.088 -0.6704  1.2659 -0.7889
26395SOL     OW85020   7.714   4.536   2.618 -0.3477 -0.0210 -0.9260
26395SOL    HW185021   7.777   4.580   2.560  0.2447  0.1747 -0.1490
26395SOL    HW285022   7.760   4.457   2.647  0.2906  1.0176  1.0785
26396SOL     OW85023   1.714   0.525   9.402  0.0816 -0.3918  0.0433
26396SOL    HW185024   1.698   0.530   9.308  2.2418 -1.6378 -0.4677
26396SOL    HW285025   1.809   0.528   9.410 -0.0783  0.5730  2.2807
26397SOL     OW85026   2.951   1.408   9.294 -0.6756  0.4451 -0.4981
26397SOL    HW185027   2.879   1.408   9.356  1.0840  0.7077  1.6704
26397SOL    HW285028   2.979   1.499   9.288  1.3567  0.0114  1.1213
26398SOL     OW85029   2.628  10.788   6.753 -0.1753 -0.2802  0.2398
26398SOL    HW185030   2.712  10.831   6.768  1.8854 -2.9161 -2.4560
26398SOL    HW285031   2.616  10.793   6.658 -1.2339 -2.9846  0.1520
26399SOL     OW85032   6.248   0.190   5.193  0.4856  0.4290 -0.1742
26399SOL    HW185033   6.285   0.146   5.116 -0.3121 -0.5122 -0.0296
26399SOL    HW285034   6.314   0.177   5.261 -0.0067 -1.1054  0.0397
26400SOL     OW85035   2.972   0.978   2.807  0.6648  0.4256 -0.5915
26400SOL    HW185036   3.030   0.958   2.734  0.8974  1.0173 -0.5742
26400SOL    HW285037   3.021   0.952   2.885  1.4100  1.9965 -0.4965
26401SOL     OW85038   8.629   5.452   7.979 -0.3855 -0.6101 -0.5222
26401SOL    HW185039   8.550   5.486   8.020 -0.8003 -0.2406 -1.6032
26401SOL    HW285040   8.690   5.439   8.052 -0.9813  0.3360  0.1707
26402SOL     OW85041   5.317   1.068   4.304 -0.2903 -0.4965 -0.8567
26402SOL    HW185042   5.365   1.150   4.290  0.8232 -0.8560  0.6241
26402SOL    HW285043   5.368   1.001   4.260  0.4534 -0.8286  0.4482
26403SOL     OW85044   5.368   0.585   3.798  0.1604  0.1998  0.8677
26403SOL    HW185045   5.321   0.668   3.807  0.5507  0.3707  1.3738
26403SOL    HW285046   5.299   0.519   3.791 -0.1511  0.5736  0.3950
26404SOL     OW85047   6.409   4.640   2.342  0.2693 -0.0098  0.3611
26404SOL    HW185048   6.498   4.614   2.320 -0.0061 -0.3564 -0.3635
26404SOL    HW285049   6.406   4.634   2.438  1.4314  1.4058  0.5128
26405SOL     OW85050   7.539   2.953   9.752 -0.6042 -0.0162 -0.5545
26405SOL    HW185051   7.598   2.888   9.790 -1.3960 -0.1827  0.4278
26405SOL    HW285052   7.514   2.916   9.667  0.5166 -0.0404 -0.8930
26406SOL     OW85053   5.228   0.651   6.261 -0.6784  0.4260  0.5169
26406SOL    HW185054   5.269   0.583   6.206 -0.8098 -0.8632  1.9467
26406SOL    HW285055   5.294   0.671   6.327 -1.1840  0.6470  0.9606
26407SOL     OW85056   8.801  10.701   3.835 -0.4341 -0.1634  0.0626
26407SOL    HW185057   8.736  10.688   3.766  0.1451  1.1475 -0.7649
26407SOL    HW285058   8.876  10.647   3.809  0.5195  1.7371 -1.3940
26408SOL     OW85059  10.634   2.391   6.905 -0.3874  0.4583  0.2436
26408SOL    HW185060  10.565   2.445   6.943  0.8484  1.3465  1.3256
26408SOL    HW285061  10.628   2.407   6.811 -1.3314  0.8885  0.3662
26409SOL     OW85062   9.508   5.565   8.104  0.4011 -0.0942 -0.3089
26409SOL    HW185063   9.576   5.631   8.118  0.9248 -1.0075  1.9076
26409SOL    HW285064   9.472   5.550   8.191 -2.5887  0.2478 -1.3865
26410SOL     OW85065   6.634   6.677   3.781  0.5519 -0.0045  0.1489
26410SOL    HW185066   6.687   6.635   3.713 -0.1221 -0.9044  0.1622
26410SOL    HW285067   6.551   6.628   3.781  0.2234  0.5258  1.0316
26411SOL     OW85068   6.596   6.616   8.806 -0.1654 -1.0898 -0.4852
26411SOL    HW185069   6.534   6.669   8.755 -1.7474 -1.4991  0.9092
26411SOL    HW285070   6.674   6.670   8.812 -1.4717  0.8588  0.2944
26412SOL     OW85071   0.536   7.455   6.548  0.0684  0.0298  0.0396
26412SOL    HW185072   0.563   7.455   6.456  1.0081  1.0284  0.3004
26412SOL    HW285073   0.469   7.387   6.553  1.6592 -1.6943 -0.8883
26413SOL     OW85074   7.399  10.214   4.314 -0.4297 -0.0916 -0.1453
26413SOL    HW185075   7.494  10.209   4.309 -0.3466  1.0230  0.0839
26413SOL    HW285076   7.376  10.175   4.398 -0.1473  0.0001 -0.0285
26414SOL     OW85077   0.142   6.159   7.548 -0.1494 -0.7019 -0.1851
26414SOL    HW185078   0.172   6.233   7.600 -0.0347  0.4073 -1.7386
26414SOL    HW285079   0.215   6.097   7.550  0.3155 -0.1533  0.0027
26415SOL     OW85080   9.447   5.876   3.622  0.2757 -1.4875  0.3282
26415SOL    HW185081   9.514   5.874   3.690  1.1492 -2.2650 -0.5274
26415SOL    HW285082   9.439   5.784   3.594  1.6745 -0.8922 -2.2797
26416SOL     OW85083   5.647   0.735   9.032 -0.5016 -0.6081  0.0940
26416SOL    HW185084   5.656   0.736   9.127  0.0227 -0.3398  0.0452
26416SOL    HW285085   5.595   0.812   9.011 -0.7654 -0.7646  0.1798
26417SOL     OW85086   0.973   7.260   0.391 -0.1459 -0.0274  0.2397
26417SOL    HW185087   1.057   7.261   0.346 -0.4346  0.0105 -0.2980
26417SOL    HW285088   0.919   7.201   0.339 -0.5477  0.1804  0.4234
26418SOL     OW85089   9.655   9.472   4.912  0.7455 -0.0510  0.4306
26418SOL    HW185090   9.594   9.425   4.856  0.6140  0.4743  0.1210
26418SOL    HW285091   9.726   9.500   4.853  0.8498  0.0853  0.6176
26419SOL     OW85092   0.116   7.766   9.326  0.2912 -0.0376  0.0452
26419SOL    HW185093   0.188   7.722   9.371 -0.2465  0.1928  1.1485
26419SOL    HW285094   0.135   7.859   9.337  0.8793  0.0433 -1.4059
26420SOL     OW85095   5.645   5.269   8.814  0.0211 -0.1911 -0.1041
26420SOL    HW185096   5.650   5.182   8.854 -1.5394  0.2873  1.2667
26420SOL    HW285097   5.729   5.310   8.835 -0.2899 -0.3857  1.7553
26421SOL     OW85098  10.292   7.457   0.166  0.0203  0.0848  0.3856
26421SOL    HW185099  10.277   7.363   0.156  0.9496 -0.3170  2.3336
26421SOL    HW285100  10.265   7.494   0.082  0.6180 -2.0271 -0.8276
26422SOL     OW85101   8.948   3.818   9.389 -0.5832  0.3548  1.1698
26422SOL    HW185102   8.960   3.910   9.365 -2.1488  0.1254 -0.7240
26422SOL    HW285103   8.906   3.820   9.475 -1.3602  1.4378  0.7730
26423SOL     OW85104   7.483   4.915   1.273  0.2392 -0.5463  0.6069
26423SOL    HW185105   7.400   4.868   1.279 -0.2645  0.4758  2.2662
26423SOL    HW285106   7.514   4.898   1.184 -0.5738 -2.8563  0.7064
26424SOL     OW85107  10.386   2.972   4.886 -0.5842  0.1276  0.4006
26424SOL    HW185108  10.355   3.061   4.870  1.0815  0.3395 -2.2088
26424SOL    HW285109  10.330   2.917   4.832 -0.0265 -0.0947  0.0334
26425SOL     OW85110   3.786   6.945   1.478 -0.0864  0.1104  0.4160
26425SOL    HW185111   3.743   6.887   1.415  1.6365  0.5885 -1.3097
26425SOL    HW285112   3.719   7.009   1.502 -1.1550 -0.8612  0.0826
26426SOL     OW85113  10.118   8.952   9.169  0.4529  0.0091 -0.2538
26426SOL    HW185114  10.199   9.002   9.160  0.6968 -0.1611  0.8598
26426SOL    HW285115  10.143   8.874   9.220 -0.1834 -0.6170 -0.8688
26427SOL     OW85116   5.614   1.742   3.862 -0.5318  0.0395  0.4619
26427SOL    HW185117   5.666   1.733   3.782 -0.7123 -1.2528  0.4745
26427SOL    HW285118   5.540   1.797   3.837 -0.7169 -0.5537 -0.3274
26428SOL     OW85119   3.917   7.041   8.706  0.2198  0.4331 -0.2077
26428SOL    HW185120   3.938   7.093   8.628  1.7988  2.1293  1.2421
26428SOL    HW285121   3.981   6.969   8.704 -0.4848 -0.1914 -1.0312
26429SOL     OW85122   9.545   2.523   6.995  0.2426 -0.3010 -0.0904
26429SOL    HW185123   9.626   2.575   6.995  0.9233 -1.3231 -0.3389
26429SOL    HW285124   9.575   2.433   7.010 -0.8396 -0.7140 -0.3381
26430SOL     OW85125   2.638   0.634   1.183  0.6707 -0.1944 -0.3558
26430SOL    HW185126   2.576   0.705   1.173 -0.7425 -1.5282 -1.5289
26430SOL    HW285127   2.634   0.612   1.276 -0.4037 -0.0713 -0.3635
26431SOL     OW85128   2.907   0.891  10.562  0.0285  0.1620  0.4280
26431SOL    HW185129   2.958   0.953  10.613 -0.5641 -1.8238  3.7150
26431SOL    HW285130   2.962   0.872  10.485  1.3702  2.6532  0.6852
26432SOL     OW85131  10.299   7.715   9.673 -0.6078 -0.2104 -0.6072
26432SOL    HW185132  10.230   7.736   9.609 -2.0765  0.4339  1.0969
26432SOL    HW285133  10.280   7.772   9.748 -0.8476 -3.0123  1.6629
26433SOL     OW85134   8.768   6.781  10.810 -0.0598  0.4254  0.1382
26433SOL    HW185135   8.697   6.814  10.755 -0.1132 -1.0551 -0.7252
26433SOL    HW285136   8.819   6.725  10.752 -0.3115 -1.4652  1.6553
26434SOL     OW85137   8.938   7.277   9.607 -0.2147  0.7279 -0.2654
26434SOL    HW185138   8.989   7.198   9.623 -1.0504  0.4013  0.9048
26434SOL    HW285139   8.935   7.285   9.511 -0.8046 -1.1286 -0.4389
26435SOL     OW85140   8.001   6.685   3.669 -0.7055 -0.0483  0.3415
26435SOL    HW185141   7.941   6.615   3.642 -3.4571  2.1305  0.3300
26435SOL    HW285142   7.989   6.692   3.763 -0.8713  0.7125  0.2731
26436SOL     OW85143   9.391   7.006  10.906 -0.2196  0.5162 -0.4808
26436SOL    HW185144   9.484   7.021  10.919 -0.0411 -0.2346 -0.8730
26436SOL    HW285145   9.385   6.957  10.824 -1.1204  2.7654 -1.8740
26437SOL     OW85146   1.688  10.145   8.504 -0.1010  0.8572  1.1099
26437SOL    HW185147   1.598  10.116   8.492  0.3511 -0.8435  1.4794
26437SOL    HW285148   1.681  10.237   8.530 -1.8504  0.2496  3.0547
26438SOL     OW85149   7.349   8.086   6.894  0.1838  0.3528 -0.5492
26438SOL    HW185150   7.416   8.125   6.837 -0.6738  0.2639 -1.6614
26438SOL    HW285151   7.275   8.071   6.835 -0.6930  0.1524  0.5908
26439SOL     OW85152   2.975   4.598   7.831  0.3333 -0.3035 -0.2120
26439SOL    HW185153   3.062   4.568   7.858  0.4011 -1.9803 -2.0817
26439SOL    HW285154   2.987   4.629   7.741 -1.0121 -0.7032 -0.5528
26440SOL     OW85155   5.079   6.528   4.820 -0.4955 -0.4979  0.4389
26440SOL    HW185156   5.051   6.520   4.911 -1.2295  1.8083  0.4807
26440SOL    HW285157   5.005   6.571   4.777  0.5221 -0.0323 -0.8769
26441SOL     OW85158   5.176  10.265   7.335 -0.1908 -0.0984 -0.0842
26441SOL    HW185159   5.259  10.294   7.299  0.5229 -0.4360  1.2154
26441SOL    HW285160   5.167  10.313   7.418 -1.1437 -0.2964 -0.0537
26442SOL     OW85161   0.591   9.077   3.831 -0.3436  0.2155 -0.3179
26442SOL    HW185162   0.553   9.004   3.783  0.7449 -0.3858 -0.2776
26442SOL    HW285163   0.684   9.058   3.835 -0.2692  0.7724  1.1389
26443SOL     OW85164   5.151   4.553   3.082 -0.1044  0.8051  0.3840
26443SOL    HW185165   5.244   4.576   3.076  0.4791 -1.3181  0.2885
26443SOL    HW285166   5.143   4.508   3.166 -1.0669  0.9871  0.3987
26444SOL     OW85167   1.288   9.021   9.465  0.4874 -0.4743 -0.1703
26444SOL    HW185168   1.363   8.982   9.509  0.1239  0.6259  1.4904
26444SOL    HW285169   1.248   9.078   9.530 -1.3353 -0.4147 -1.2625
26445SOL     OW85170   8.315   1.241   9.584  0.4608 -0.0972 -0.5431
26445SOL    HW185171   8.223   1.225   9.602  0.5958 -0.5968 -0.2689
26445SOL    HW285172   8.316   1.319   9.529 -0.0696  0.4392  0.1800
26446SOL     OW85173   3.247   5.056   9.319 -0.1229 -0.1263  0.1370
26446SOL    HW185174   3.169   5.108   9.296 -0.4633 -0.6776  0.0421
26446SOL    HW285175   3.321   5.110   9.291 -0.4930 -0.1701 -0.9713
26447SOL     OW85176   2.895   0.045   1.781  0.1002 -0.4959  0.8340
26447SOL    HW185177   2.842   0.097   1.722 -1.0946 -2.7733 -0.2522
26447SOL    HW285178   2.833   0.010   1.846  0.7017 -1.1211  1.0937
26448SOL     OW85179   8.184   8.756   6.943  0.0664  0.2628 -0.9310
26448SOL    HW185180   8.236   8.827   6.980 -0.0981 -0.1544  0.1258
26448SOL    HW285181   8.109   8.800   6.902 -2.4751  0.6327  3.4909
26449SOL     OW85182   3.989   3.855  10.175  0.7666 -0.1388  0.3591
26449SOL    HW185183   3.944   3.825  10.254 -0.7055 -0.7298 -0.6616
26449SOL    HW285184   3.994   3.778  10.119 -0.6135  0.8257 -1.1853
26450SOL     OW85185   2.388   8.436   5.069 -0.3518 -0.2809  0.1108
26450SOL    HW185186   2.430   8.374   5.129  1.7009  0.2940 -0.6817
26450SOL    HW285187   2.402   8.399   4.982 -1.5105 -0.0529 -0.1977
26451SOL     OW85188   2.895   6.460   6.087  0.5904 -0.0613  0.3459
26451SOL    HW185189   2.815   6.509   6.107  0.8192  0.9783 -1.1634
26451SOL    HW285190   2.866   6.386   6.035  0.6929  0.9355 -1.1802
26452SOL     OW85191   2.391   7.552   1.530  0.3645  0.6694  0.2431
26452SOL    HW185192   2.345   7.636   1.528  0.3208  0.6608  0.7798
26452SOL    HW285193   2.339   7.495   1.474 -1.6515 -0.0386  2.6493
26453SOL     OW85194   0.548   6.170   6.031  0.3595 -0.0478  0.2849
26453SOL    HW185195   0.478   6.113   6.062 -0.5539 -0.5948 -2.4633
26453SOL    HW285196   0.518   6.259   6.052 -2.4979 -0.0606 -2.8827
26454SOL     OW85197   5.554   7.219   7.708 -0.4730  0.1324  0.3805
26454SOL    HW185198   5.522   7.187   7.624 -1.5024  0.1537  0.7441
26454SOL    HW285199   5.508   7.165   7.773 -0.9403  1.2039  0.9648
26455SOL     OW85200   7.566   7.249  10.744  0.0702 -0.5738 -0.1363
26455SOL    HW185201   7.638   7.256  10.680  0.8700  1.8640  0.8866
26455SOL    HW285202   7.555   7.155  10.758  2.8803 -1.0623 -0.5643
26456SOL     OW85203   7.968   1.187   3.164  0.6140 -0.1297 -0.1823
26456SOL    HW185204   7.928   1.158   3.082 -0.1270 -0.6295  0.3505
26456SOL    HW285205   7.926   1.271   3.183  1.9542  0.7936 -1.1409
26457SOL     OW85206  10.783   9.976   4.247 -0.0327 -0.1926 -0.3392
26457SOL    HW185207  10.767   9.924   4.168  1.4859 -1.6104  0.2356
26457SOL    HW285208  10.861  10.027   4.227  0.6400 -0.9173  0.3946
26458SOL     OW85209   6.408  10.332   0.754 -0.0752  0.6625  0.1398
26458SOL    HW185210   6.442  10.350   0.667 -1.4403  1.2101 -0.3095
26458SOL    HW285211   6.486  10.324   0.809  0.7752  1.5771 -0.8849
26459SOL     OW85212   6.249  10.236   9.224 -0.0924  0.7877  0.0366
26459SOL    HW185213   6.340  10.227   9.255 -0.6057  0.4664  1.5463
26459SOL    HW285214   6.214  10.309   9.276 -1.5123 -0.9019  1.6075
26460SOL     OW85215   4.202   9.471   6.190  0.5268  0.1031 -0.5769
26460SOL    HW185216   4.133   9.418   6.149  0.6130  0.4651 -1.2136
26460SOL    HW285217   4.188   9.460   6.284 -0.4171  0.1844 -0.6918
26461SOL     OW85218   2.207   5.027   9.608 -0.2286 -0.1437 -0.1062
26461SOL    HW185219   2.152   5.102   9.631 -1.0304 -0.6257 -0.4115
26461SOL    HW285220   2.292   5.066   9.587 -0.2514  0.5579  0.9803
26462SOL     OW85221   2.832   9.511   4.826  0.2340 -0.1875 -0.2996
26462SOL    HW185222   2.883   9.546   4.753 -0.4872 -0.3662 -0.9082
26462SOL    HW285223   2.828   9.417   4.809  0.0961 -0.2360 -0.0062
26463SOL     OW85224  10.195   6.459   1.318 -0.2642 -0.0294 -0.2752
26463SOL    HW185225  10.238   6.460   1.403 -2.0847  2.5992  0.7685
26463SOL    HW285226  10.115   6.409   1.332 -1.5683  2.0605  0.2421
26464SOL     OW85227   6.067   9.608  10.624 -0.1384 -0.0598 -0.0461
26464SOL    HW185228   6.013   9.555  10.682  1.2150  0.1071  1.4510
26464SOL    HW285229   6.053   9.698  10.654 -0.9729  0.2830 -1.3463
26465SOL     OW85230   1.600   8.029  10.739 -0.6261 -0.1993 -0.5422
26465SOL    HW185231   1.568   8.081  10.665  1.2292  1.3481 -0.3509
26465SOL    HW285232   1.615   8.093  10.809  5.7366  0.0981 -1.5628
26466SOL     OW85233   1.567   3.445   7.679  0.4217 -0.1252 -0.1113
26466SOL    HW185234   1.588   3.353   7.660  0.1750 -0.8078  2.4820
26466SOL    HW285235   1.474   3.444   7.699  0.5134  0.6010  0.3684
26467SOL     OW85236   1.964   5.724   5.333  0.4193 -0.4092 -0.0411
26467SOL    HW185237   2.029   5.793   5.347  1.0515 -1.1473  0.7520
26467SOL    HW285238   1.949   5.687   5.419 -0.3373 -0.9071 -0.3755
26468SOL     OW85239   4.865   1.147   7.629 -0.3499 -0.8845  0.0381
26468SOL    HW185240   4.817   1.067   7.610  0.5060 -1.0832 -1.4053
26468SOL    HW285241   4.803   1.218   7.611 -0.6608 -1.1855 -0.0643
26469SOL     OW85242   6.102   1.157   4.914 -0.3270 -0.2408  0.1795
26469SOL    HW185243   6.182   1.208   4.908  0.0031 -0.7961 -0.3141
26469SOL    HW285244   6.046   1.193   4.845 -0.1090 -0.5162 -0.1444
26470SOL     OW85245  10.270   2.352   8.086 -0.1892  0.0616 -0.7062
26470SOL    HW185246  10.309   2.322   8.168 -0.0845  0.6231 -0.5439
26470SOL    HW285247  10.262   2.273   8.032 -2.2232 -0.7177  0.6209
26471SOL     OW85248   2.073   8.760   4.034  0.4335 -0.2208  0.1749
26471SOL    HW185249   2.063   8.812   4.114 -2.7788 -1.6584  0.8635
26471SOL    HW285250   2.147   8.702   4.052 -0.5494 -0.9016  2.4454
26472SOL     OW85251   1.415   9.536   6.490 -0.0317  0.2283 -0.2097
26472SOL    HW185252   1.428   9.618   6.443  1.7743 -0.9330 -1.9110
26472SOL    HW285253   1.441   9.555   6.580  1.2895  1.2849 -0.7901
26473SOL     OW85254  10.196   7.419   6.202  0.1714  0.7553  0.8138
26473SOL    HW185255  10.105   7.400   6.180 -0.0012  1.5385  0.8284
26473SOL    HW285256  10.247   7.369   6.139 -0.2930  2.8363 -1.3839
26474SOL     OW85257   8.920   0.345   4.933  0.8323 -0.3299 -0.2301
26474SOL    HW185258   8.943   0.434   4.960  0.6514 -0.8309  1.7608
26474SOL    HW285259   8.829   0.352   4.904 -0.0739 -0.2363  2.3543
26475SOL     OW85260   1.871   7.924   9.516 -0.1477  0.3577 -0.3627
26475SOL    HW185261   1.862   7.866   9.592  0.6731 -0.6774 -1.0216
26475SOL    HW285262   1.957   7.903   9.481 -1.1718 -0.4185 -2.5792
26476SOL     OW85263   1.422   3.380   8.650 -0.0149 -0.0500  0.2957
26476SOL    HW185264   1.393   3.426   8.571 -0.4669  1.2733  1.1939
26476SOL    HW285265   1.452   3.295   8.619 -1.4398 -0.0787 -1.1323
26477SOL     OW85266   4.806   0.690   7.797  0.0255  0.0810  0.2830
26477SOL    HW185267   4.853   0.613   7.763 -0.3654  0.0501 -0.2084
26477SOL    HW285268   4.750   0.655   7.865 -2.1777 -0.5801 -1.7365
26478SOL     OW85269   0.443   7.581   7.404  0.2308 -0.1572  0.0868
26478SOL    HW185270   0.452   7.554   7.496 -0.2045  1.2627  0.5698
26478SOL    HW285271   0.367   7.531   7.373 -0.0459 -0.1338  0.7020
26479SOL     OW85272   3.547   4.337   5.997 -0.4520 -0.3137  0.2934
26479SOL    HW185273   3.601   4.342   5.918  1.9074 -0.5432  1.7762
26479SOL    HW285274   3.546   4.245   6.020 -3.4289 -0.6645 -0.8617
26480SOL     OW85275   7.848   4.615   9.998 -0.0600  0.1426  0.3936
26480SOL    HW185276   7.814   4.592   9.912  2.4844  0.6110 -0.8114
26480SOL    HW285277   7.865   4.709   9.992  1.7220 -0.1227  0.7815
26481SOL     OW85278   0.052   5.182   2.917  0.0516 -0.0242 -0.1065
26481SOL    HW185279   0.037   5.092   2.946 -0.2658 -0.0530 -0.3508
26481SOL    HW285280   0.074   5.230   2.996 -0.1647 -0.2367  0.0836
26482SOL     OW85281   4.470   9.495   7.219 -0.5222 -0.2690  0.4530
26482SOL    HW185282   4.396   9.542   7.181  0.2369  0.9656  0.4376
26482SOL    HW285283   4.444   9.478   7.310 -0.0628  2.0068  1.0833
26483SOL     OW85284   0.856   2.641   3.190  0.1320 -0.6482  0.1401
26483SOL    HW185285   0.869   2.591   3.109 -1.9639 -2.2929  0.7135
26483SOL    HW285286   0.776   2.691   3.174  1.1279  1.0760  0.3099
26484SOL     OW85287   0.226   0.708   8.268 -0.0465  0.0729  0.2253
26484SOL    HW185288   0.286   0.652   8.219 -0.1527 -0.2484  0.4610
26484SOL    HW285289   0.140   0.670   8.253 -0.4099  1.3657 -1.3204
26485SOL     OW85290   9.259   1.621   9.359  0.5393  0.2018  0.2729
26485SOL    HW185291   9.191   1.562   9.393 -1.5142  3.0907  1.6563
26485SOL    HW285292   9.332   1.611   9.420  0.2622 -0.9139  0.4384
26486SOL     OW85293  10.233   6.948   6.965 -0.1120  0.0813  0.0847
26486SOL    HW185294  10.301   6.917   7.025 -0.4688 -0.7473  0.0784
26486SOL    HW285295  10.263   6.920   6.878  0.3299  1.1451 -0.1193
26487SOL     OW85296   6.268   5.377   8.357  0.1852  0.4052  0.0200
26487SOL    HW185297   6.271   5.473   8.361  0.7470  0.3822  0.2332
26487SOL    HW285298   6.354   5.352   8.322  0.5385 -0.0799  1.1832
26488SOL     OW85299   0.364   7.729   8.942  0.0356 -0.0911 -0.8252
26488SOL    HW185300   0.460   7.735   8.941  0.1405 -1.3155 -0.1402
26488SOL    HW285301   0.344   7.673   9.017 -1.2229  0.1330 -0.9715
26489SOL     OW85302   0.464   4.315   1.896 -0.0941  0.2240  0.0764
26489SOL    HW185303   0.432   4.225   1.891  1.6165 -0.3689 -1.0495
26489SOL    HW285304   0.538   4.310   1.957 -0.2946  0.9915  0.3999
26490SOL     OW85305   7.878   8.134   4.669 -0.3571 -0.0794 -0.4321
26490SOL    HW185306   7.959   8.089   4.694 -0.5768 -0.3861 -0.2720
26490SOL    HW285307   7.877   8.131   4.574  0.4963  1.1107 -0.5007
26491SOL     OW85308   7.567   0.928   9.569  0.4411  0.1973 -0.6100
26491SOL    HW185309   7.557   1.021   9.547  0.6107 -0.0865 -1.9324
26491SOL    HW285310   7.502   0.883   9.515  0.8209 -0.5306 -0.4776
26492SOL     OW85311   8.999   4.996  10.482  0.1864 -0.3503  0.9764
26492SOL    HW185312   8.942   4.932  10.523 -2.5057  1.8062  0.8880
26492SOL    HW285313   8.948   5.031  10.409  2.7214 -0.1698 -0.8566
26493SOL     OW85314   7.811   8.365   5.953  0.1378  0.2195  0.1007
26493SOL    HW185315   7.806   8.298   6.021  0.3891  1.3821  1.3277
26493SOL    HW285316   7.839   8.318   5.875 -0.6605 -1.2554  0.6490
26494SOL     OW85317   4.487   1.351  10.572  0.6448 -0.2184  0.3461
26494SOL    HW185318   4.455   1.264  10.593  0.8629 -0.1348  1.0816
26494SOL    HW285319   4.574   1.337  10.535  0.0392 -0.4045 -1.0437
26495SOL     OW85320   4.387   3.121  10.901 -0.1106 -0.1557  0.0849
26495SOL    HW185321   4.329   3.190  10.869 -2.2092 -1.2652  1.2906
26495SOL    HW285322   4.412   3.072  10.823 -1.8532 -0.3887 -0.3708
26496SOL     OW85323   9.253   0.003   4.424  0.2941 -0.3628 -0.0008
26496SOL    HW185324   9.250   0.096   4.404  0.7697 -0.6025 -1.3087
26496SOL    HW285325   9.259  -0.001   4.519  1.1378  0.9715  0.0298
26497SOL     OW85326   2.713   1.426   1.049  0.4665  0.2361 -0.1427
26497SOL    HW185327   2.669   1.486   1.109  2.7397 -0.2526  2.2136
26497SOL    HW285328   2.699   1.339   1.088 -0.6458 -0.5666 -2.1278
26498SOL     OW85329   5.993   4.540   9.453 -0.1736 -0.1129  0.3685
26498SOL    HW185330   5.984   4.635   9.442 -1.8814 -0.3368 -0.4363
26498SOL    HW285331   6.057   4.515   9.386 -1.9520  0.1230 -1.5348
26499SOL     OW85332   9.281   2.546   3.078  0.4184  0.0932  0.1974
26499SOL    HW185333   9.194   2.506   3.080  0.4259  0.0491 -0.3645
26499SOL    HW285334   9.280   2.608   3.151 -0.7061  1.4020 -0.8913
26500SOL     OW85335   0.258   8.165   8.623 -0.1258 -0.4633 -0.4810
26500SOL    HW185336   0.278   8.259   8.615 -2.1448  0.1368  0.9144
26500SOL    HW285337   0.317   8.134   8.691  0.3009 -0.1371 -0.6945
26501SOL     OW85338  10.014   8.410   4.379 -0.1066 -0.0074  0.4600
26501SOL    HW185339   9.976   8.444   4.460 -0.3406 -0.7193  0.6568
26501SOL    HW285340   9.944   8.419   4.314  0.3045  1.1795  0.1742
26502SOL     OW85341   0.456  10.300   2.916  0.1643  0.0127  0.0638
26502SOL    HW185342   0.490  10.346   2.993  0.1071  1.4946 -0.7589
26502SOL    HW285343   0.361  10.303   2.926  0.1505 -2.0021  1.1434
26503SOL     OW85344  10.852   4.273   7.697  0.5757 -0.1076 -0.5055
26503SOL    HW185345  10.871   4.265   7.604  0.1968  2.1818 -0.8285
26503SOL    HW285346  10.833   4.184   7.725 -0.8268 -0.6571 -2.9519
26504SOL     OW85347   5.104   8.744   9.046 -0.2413  0.2125 -0.2400
26504SOL    HW185348   5.052   8.824   9.053  0.0401  0.5398 -1.6139
26504SOL    HW285349   5.086   8.711   8.958  0.0773 -0.9437  0.1096
26505SOL     OW85350   1.460   0.161   8.345  0.5280  0.2067 -0.2592
26505SOL    HW185351   1.507   0.244   8.330  0.5076  0.3195  0.2931
26505SOL    HW285352   1.374   0.175   8.305  0.7075  0.2638 -0.6284
26506SOL     OW85353   5.843   4.379   9.562  0.0976  0.2878  0.1068
26506SOL    HW185354   5.901   4.445   9.523 -1.9489  1.4685 -1.1892
26506SOL    HW285355   5.868   4.376   9.654  1.0562  2.0194 -0.0498
26507SOL     OW85356   5.747   8.103  10.060  0.1179  0.7820 -0.2945
26507SOL    HW185357   5.664   8.066  10.088  0.6001  0.9769  1.5545
26507SOL    HW285358   5.772   8.162  10.131  2.1157  0.2769 -0.5061
26508SOL     OW85359   6.343   3.921   0.912  0.3472  0.6645  0.5627
26508SOL    HW185360   6.396   3.958   0.842  0.0064  0.5702  0.2501
26508SOL    HW285361   6.306   3.997   0.957  0.0334  0.7145  0.2229
26509SOL     OW85362   9.027   3.806   5.276  0.6187  0.2417  0.1320
26509SOL    HW185363   8.974   3.883   5.253  2.9735  1.3421 -2.0183
26509SOL    HW285364   9.004   3.741   5.209 -1.2814 -1.0435  1.8773
26510SOL     OW85365   7.274  10.228   6.619 -0.4524  0.3722  0.0276
26510SOL    HW185366   7.359  10.187   6.637 -0.2099  0.9346  0.1751
26510SOL    HW285367   7.295  10.318   6.598 -0.9530  0.3285 -0.6884
26511SOL     OW85368   2.430   7.136   1.095 -0.5075 -0.0110 -0.5085
26511SOL    HW185369   2.341   7.158   1.120 -0.4918  0.2052 -0.6494
26511SOL    HW285370   2.483   7.160   1.171 -0.5362  0.0945 -0.5222
26512SOL     OW85371   4.143   3.050   2.481  0.1098  0.0941 -0.1599
26512SOL    HW185372   4.095   2.977   2.441 -0.8565  0.6380 -0.0198
26512SOL    HW285373   4.230   3.014   2.498 -1.0190 -1.8840  2.1870
26513SOL     OW85374   4.621   9.933   0.532  0.4291 -0.6154 -0.3794
26513SOL    HW185375   4.528   9.910   0.532  0.3295 -0.2270 -0.9599
26513SOL    HW285376   4.625  10.015   0.581  0.5163 -0.8250 -0.0340
26514SOL     OW85377   9.771   8.859   7.574 -0.0169 -0.2083  0.0016
26514SOL    HW185378   9.702   8.798   7.548 -0.7757  1.0139 -0.9659
26514SOL    HW285379   9.843   8.841   7.513 -0.0569 -0.4426  0.0220
26515SOL     OW85380   1.914   2.841   9.218 -0.3073 -0.2717  0.0187
26515SOL    HW185381   1.874   2.908   9.162  0.6656  1.2319  1.0239
26515SOL    HW285382   2.008   2.853   9.206 -0.1103 -1.3912  0.3402
26516SOL     OW85383   6.654   4.100   8.859  0.1040 -0.2411  0.5064
26516SOL    HW185384   6.587   4.133   8.800 -0.2644  0.9464  1.5581
26516SOL    HW285385   6.627   4.010   8.878 -1.1499  0.1934  0.8511
26517SOL     OW85386   2.792  10.302   8.438  0.2925 -0.2069 -0.0989
26517SOL    HW185387   2.754  10.387   8.460  0.7808 -0.3875  1.6300
26517SOL    HW285388   2.766  10.245   8.511  0.8986 -1.2455 -0.6742
26518SOL     OW85389   3.758   5.689   1.564 -0.2827 -0.4628 -0.2979
26518SOL    HW185390   3.771   5.780   1.592 -0.0622 -0.8895  1.0673
26518SOL    HW285391   3.844   5.663   1.531 -0.8283  0.4099 -2.6542
26519SOL     OW85392   0.145   8.051   4.282 -0.2144 -0.0409 -0.7554
26519SOL    HW185393   0.133   7.978   4.222 -0.9457  0.9895 -1.9187
26519SOL    HW285394   0.071   8.045   4.343  1.0255 -1.6275  0.7013
26520SOL     OW85395   4.560   4.603   0.586  0.1953  1.1893 -0.2184
26520SOL    HW185396   4.592   4.528   0.636 -1.3944  0.7631  0.2070
26520SOL    HW285397   4.589   4.587   0.496  0.6088  0.5105  0.0351
26521SOL     OW85398   1.363  10.572   2.185 -0.6331 -0.0005  0.1334
26521SOL    HW185399   1.389  10.650   2.136 -0.2162 -0.6110 -0.6261
26521SOL    HW285400   1.403  10.499   2.138 -0.5358 -0.6318  1.1698
26522SOL     OW85401   5.198   3.732   1.604  0.4435  0.0009  0.1289
26522SOL    HW185402   5.198   3.637   1.611 -1.8090  0.0936  3.1901
26522SOL    HW285403   5.251   3.762   1.678  0.0819  1.1428 -0.0464
26523SOL     OW85404   9.477   6.668   5.050  0.1239 -0.4876  0.4133
26523SOL    HW185405   9.421   6.595   5.075  1.0495 -1.8601 -1.2978
26523SOL    HW285406   9.453   6.687   4.959  0.7398  0.5344  0.4485
26524SOL     OW85407   3.631   2.910   3.438 -0.3753  0.1940 -0.0607
26524SOL    HW185408   3.641   3.004   3.457 -1.1980  0.4641 -0.8645
26524SOL    HW285409   3.541   2.902   3.405 -0.5220 -0.9873  0.5632
26525SOL     OW85410   8.281   3.037   4.031  0.1894  0.0948  1.0593
26525SOL    HW185411   8.375   3.019   4.038  0.0756 -0.6024  0.8763
26525SOL    HW285412   8.239   2.952   4.046 -0.4177  0.4092  1.1867
26526SOL     OW85413   6.312   4.621   8.844  0.0654 -0.4043 -0.1741
26526SOL    HW185414   6.316   4.648   8.752 -0.6915 -0.1266 -0.1285
26526SOL    HW285415   6.234   4.665   8.879  1.5964  1.3806  1.2179
26527SOL     OW85416  10.346   9.310   3.067 -0.1417 -0.1640  0.2745
26527SOL    HW185417  10.257   9.345   3.070  0.1197  0.4469  1.8367
26527SOL    HW285418  10.369   9.295   3.159  1.7892  0.7885  0.0067
26528SOL     OW85419   7.873   4.195   4.978  0.3208  0.1973  0.2437
26528SOL    HW185420   7.933   4.174   4.907  1.4674  2.4061  0.4562
26528SOL    HW285421   7.926   4.185   5.058  0.3882  1.9040  0.4530
26529SOL     OW85422   5.803  10.915   6.148 -0.1851  0.1208  0.1574
26529SOL    HW185423   5.868  10.917   6.079 -1.4849 -1.5238 -1.1953
26529SOL    HW285424   5.719  10.927   6.103 -0.9319  1.1827  1.7221
26530SOL     OW85425   0.428   7.261   9.279 -0.3142 -0.0611 -0.7220
26530SOL    HW185426   0.514   7.262   9.236 -0.0806  0.6169 -0.2483
26530SOL    HW285427   0.376   7.200   9.226 -0.0281  0.7358 -1.9629
26531SOL     OW85428   7.067   7.670   6.896 -0.1447 -0.2499  0.3998
26531SOL    HW185429   7.074   7.577   6.918  0.9758 -1.1298 -3.0471
26531SOL    HW285430   7.032   7.671   6.807 -0.7587  2.7003  0.5824
26532SOL     OW85431   6.602   8.209   3.752 -0.0399 -0.0290 -0.0828
26532SOL    HW185432   6.661   8.164   3.691 -0.8908  0.2811 -1.1606
26532SOL    HW285433   6.518   8.165   3.741 -0.8875  1.7325 -1.1252
26533SOL     OW85434   5.862   1.566   0.039  0.6674 -0.2408 -0.2975
26533SOL    HW185435   5.870   1.662   0.045 -1.0666 -0.0480 -0.6458
26533SOL    HW285436   5.921   1.542  -0.032  0.0601  0.7619 -1.1777
26534SOL     OW85437   1.004   0.596   0.527  0.5349 -0.2006 -0.0254
26534SOL    HW185438   1.076   0.543   0.562  0.2988 -0.4692  0.0564
26534SOL    HW285439   0.925   0.547   0.549  0.2751  0.4239  0.4747
26535SOL     OW85440   9.545   3.967   1.789 -0.1615  0.3549 -0.1044
26535SOL    HW185441   9.548   3.971   1.884 -1.1757  0.7777 -0.0810
26535SOL    HW285442   9.487   4.038   1.763  0.1254  0.2683 -1.0448
26536SOL     OW85443   9.424   8.905   5.588 -0.0811  0.4556  0.0669
26536SOL    HW185444   9.409   8.930   5.496  0.4891 -0.0695 -0.1725
26536SOL    HW285445   9.518   8.917   5.601  0.3779 -2.1735 -0.2710
26537SOL     OW85446   6.493   4.784   7.135 -0.3939 -0.1828 -0.1551
26537SOL    HW185447   6.551   4.834   7.191  0.7395 -1.8711  0.2620
26537SOL    HW285448   6.524   4.801   7.046 -0.4583  0.3623 -0.0773
26538SOL     OW85449   9.018   2.530  10.175  0.6681 -0.0438  0.1960
26538SOL    HW185450   8.982   2.479  10.247  0.2281  0.9899  0.7393
26538SOL    HW285451   9.110   2.544  10.199  0.1273  1.7404  1.4706
26539SOL     OW85452   5.397   8.920   9.162  0.0919  1.1170  0.1607
26539SOL    HW185453   5.325   8.927   9.099  1.3316  1.8355 -1.2400
26539SOL    HW285454   5.471   8.889   9.111  0.6747 -0.1368  1.6848
26540SOL     OW85455   9.332   6.612  10.154 -0.3016 -0.3118 -0.1020
26540SOL    HW185456   9.299   6.563  10.230 -0.0506  0.2933  0.4108
26540SOL    HW285457   9.350   6.700  10.188  1.5872 -0.5307 -0.3925
26541SOL     OW85458   9.975   6.745   0.715 -0.4052  0.1315  0.1267
26541SOL    HW185459  10.066   6.763   0.691 -0.3687 -0.6253 -0.3282
26541SOL    HW285460   9.927   6.753   0.633 -0.7082  0.2432  0.3144
26542SOL     OW85461   3.801   7.966   7.922  0.2885  0.5876  0.5652
26542SOL    HW185462   3.746   7.888   7.927  0.3849  0.4060 -0.9097
26542SOL    HW285463   3.739   8.039   7.931  0.1308  0.3670  1.3824
26543SOL     OW85464   2.128   4.335   4.542  0.2047  0.0594 -0.4560
26543SOL    HW185465   2.124   4.239   4.552  1.1489  0.1261  0.8755
26543SOL    HW285466   2.041   4.365   4.569 -0.0176 -0.4098 -0.6436
26544SOL     OW85467   5.667   5.912   8.251  0.0137  0.7528  0.6177
26544SOL    HW185468   5.665   6.006   8.268  1.8715  0.8533  0.5449
26544SOL    HW285469   5.750   5.883   8.289 -0.9388 -1.0514  1.4715
26545SOL     OW85470   2.398   6.595   0.840  0.9342 -0.1620  0.0591
26545SOL    HW185471   2.307   6.605   0.814  1.4244 -0.1639 -1.8010
26545SOL    HW285472   2.399   6.615   0.934 -0.6866  1.6080 -0.2418
26546SOL     OW85473   7.989   3.241   3.390  0.0107 -0.4186 -0.3468
26546SOL    HW185474   7.907   3.216   3.432 -0.3055  1.8793  0.5569
26546SOL    HW285475   8.055   3.183   3.430 -0.6440  0.1016  1.6221
26547SOL     OW85476   5.239   1.625   3.875 -0.4488  0.0238 -0.4247
26547SOL    HW185477   5.309   1.687   3.858 -0.8730  0.4562 -0.6380
26547SOL    HW285478   5.185   1.628   3.796 -1.0748  0.1973 -0.0030
26548SOL     OW85479   6.152   0.605   8.772 -0.1238 -0.3852 -0.0622
26548SOL    HW185480   6.139   0.616   8.866 -0.3713  0.5168 -0.1957
26548SOL    HW285481   6.159   0.694   8.738  1.1081 -0.7158 -0.7435
26549SOL     OW85482   1.322   9.216  10.823 -0.0907 -0.2063  0.0093
26549SOL    HW185483   1.333   9.193  10.731 -0.4284  0.5628 -0.2208
26549SOL    HW285484   1.264   9.148  10.858  0.7078 -0.9883 -0.1269
26550SOL     OW85485   1.128  10.703   2.721 -0.0204  0.9599 -0.7855
26550SOL    HW185486   1.151  10.750   2.641  2.2377 -0.2152 -0.8969
26550SOL    HW285487   1.119  10.612   2.693  0.3254  0.6048  0.2104
26551SOL     OW85488   7.547   7.824   0.435  0.8639 -0.0883 -0.1353
26551SOL    HW185489   7.510   7.781   0.513  0.9310  0.8583  0.4279
26551SOL    HW285490   7.488   7.897   0.417 -0.0377 -1.1914 -1.9257
26552SOL     OW85491   0.464   5.363   9.588 -0.2085  0.3776  0.3251
26552SOL    HW185492   0.406   5.308   9.535  0.2892 -0.2305  0.4002
26552SOL    HW285493   0.415   5.444   9.601 -0.9319 -0.0290  0.1665
26553SOL     OW85494   0.806   4.890   4.536 -0.0535 -0.0946 -0.2820
26553SOL    HW185495   0.872   4.838   4.581  0.5549  0.4560 -0.5351
26553SOL    HW285496   0.769   4.946   4.604  2.0241  1.9416 -0.7294
26554SOL     OW85497   6.227   5.813   7.902 -0.0966  0.2830  0.2871
26554SOL    HW185498   6.150   5.871   7.898 -0.7882 -0.6081  0.3262
26554SOL    HW285499   6.194   5.733   7.941  0.5362 -0.6331 -0.9935
26555SOL     OW85500   1.750  10.402   3.512  0.1135 -0.2477  0.2477
26555SOL    HW185501   1.719  10.474   3.567  0.9528  0.5273 -0.2630
26555SOL    HW285502   1.845  10.407   3.517  0.2628  0.3972 -1.9270
26556SOL     OW85503   6.435   3.708   1.484  0.1361  0.1804  0.0907
26556SOL    HW185504   6.340   3.709   1.476 -0.1599  2.0872  2.4460
26556SOL    HW285505   6.456   3.790   1.530  2.9825  0.0884 -0.8196
26557SOL     OW85506   5.162   8.550   0.623  0.3539 -0.0679 -0.1204
26557SOL    HW185507   5.107   8.614   0.578 -0.7695 -1.3327 -0.6209
26557SOL    HW285508   5.214   8.511   0.553 -0.1392 -0.8112 -0.0863
26558SOL     OW85509   9.013   7.137   6.983  0.8057  0.3743 -0.3911
26558SOL    HW185510   9.082   7.087   7.026 -0.3272 -1.4945 -0.6386
26558SOL    HW285511   8.936   7.125   7.039  0.4586  1.7662 -0.5283
26559SOL     OW85512  10.634   4.729   5.171 -0.0579 -0.1217 -0.0857
26559SOL    HW185513  10.642   4.804   5.112 -2.8821 -0.4557 -1.0500
26559SOL    HW285514  10.583   4.764   5.245  0.1925 -0.6673  0.3499
26560SOL     OW85515   2.123   8.046   6.887 -0.2840 -0.4433 -0.0780
26560SOL    HW185516   2.165   8.003   6.813  0.1856 -1.6498  0.8539
26560SOL    HW285517   2.181   8.030   6.961 -1.1194  0.0613  0.7147
26561SOL     OW85518   3.516  10.013   3.169  0.6190  0.0652 -0.2481
26561SOL    HW185519   3.439  10.026   3.224  0.4855 -0.3559 -0.3356
26561SOL    HW285520   3.504   9.926   3.131  1.9599 -0.7518  1.0820
26562SOL     OW85521   2.498   9.763   9.348  0.0994  0.3850  0.0016
26562SOL    HW185522   2.429   9.793   9.407 -0.4332  0.0423 -0.4446
26562SOL    HW285523   2.453   9.745   9.265  0.5499 -0.8273  0.0093
26563SOL     OW85524   1.794  10.484   5.864  0.0248 -0.6678 -0.6368
26563SOL    HW185525   1.837  10.407   5.901 -0.3863 -0.8325 -0.4965
26563SOL    HW285526   1.842  10.502   5.783 -0.2192 -1.4050 -0.9589
26564SOL     OW85527   2.116  10.044   5.838  0.4965 -0.4803  0.5667
26564SOL    HW185528   2.182   9.988   5.797  3.0593  2.0089  0.9278
26564SOL    HW285529   2.128  10.129   5.794 -0.5720  0.7716  2.5744
26565SOL     OW85530   2.431   2.515   8.369  0.2731 -0.5133 -0.1719
26565SOL    HW185531   2.365   2.477   8.428  1.5587 -2.2439  0.2379
26565SOL    HW285532   2.456   2.442   8.312  1.7353  0.1308 -0.3922
26566SOL     OW85533   9.410   7.169   4.453  0.2005  0.3166  0.0045
26566SOL    HW185534   9.388   7.178   4.360  0.8631 -0.0016 -0.1887
26566SOL    HW285535   9.399   7.257   4.489 -1.6954  0.1243  0.0069
26567SOL     OW85536   1.788   1.726   9.321 -0.5041 -0.0654  0.1395
26567SOL    HW185537   1.788   1.812   9.279 -1.8063 -2.0449 -4.5323
26567SOL    HW285538   1.711   1.727   9.377 -2.1072  1.0295 -1.9438
26568SOL     OW85539   8.688   7.153   5.184 -0.2849 -0.0734 -0.3086
26568SOL    HW185540   8.621   7.182   5.122 -1.6499  1.9463  1.9119
26568SOL    HW285541   8.639   7.127   5.262  1.4147 -1.1056  0.4706
26569SOL     OW85542  10.737   8.061   3.015  0.2632 -0.1403  0.4239
26569SOL    HW185543  10.723   8.156   3.019  0.5899 -0.0512 -0.3601
26569SOL    HW285544  10.659   8.028   2.970 -0.2003 -0.3327  1.3592
26570SOL     OW85545   0.377   3.681   7.083  0.5676  0.8515 -0.3678
26570SOL    HW185546   0.369   3.642   6.996  0.3353  0.7196 -0.2888
26570SOL    HW285547   0.457   3.643   7.119 -1.1010 -1.8097  0.8382
26571SOL     OW85548   6.307   6.142  10.754  0.2439 -0.2267  0.4359
26571SOL    HW185549   6.334   6.124  10.664 -0.0781  2.3641 -0.2648
26571SOL    HW285550   6.346   6.227  10.774 -0.6852 -0.1985  2.3089
26572SOL     OW85551   9.878   4.192   1.022 -0.1262 -0.7482  0.0893
26572SOL    HW185552   9.838   4.111   0.990  0.4374 -0.9370 -0.1617
26572SOL    HW285553   9.972   4.172   1.025  0.0040 -0.1411  0.1404
26573SOL     OW85554   9.482   5.831   7.853 -0.5042 -0.2075  0.3513
26573SOL    HW185555   9.560   5.785   7.884 -1.0274 -0.1364  1.8372
26573SOL    HW285556   9.409   5.789   7.899 -1.3054  0.0495 -0.6386
26574SOL     OW85557   8.813   8.247   6.915 -0.2223 -0.1237  0.0098
26574SOL    HW185558   8.775   8.309   6.853  1.4806  0.7744 -0.1828
26574SOL    HW285559   8.893   8.289   6.946  0.3961 -1.7488  0.7405
26575SOL     OW85560   1.518  10.144   5.995 -0.3344 -0.7519  0.0291
26575SOL    HW185561   1.544  10.057   6.023 -0.1821 -0.4520  0.8675
26575SOL    HW285562   1.470  10.180   6.070  0.7030  0.3454  0.1974
26576SOL     OW85563   7.795   4.582   5.326  0.3399  0.6509 -0.1171
26576SOL    HW185564   7.814   4.611   5.237  3.6170  2.2409  0.9464
26576SOL    HW285565   7.759   4.660   5.369 -1.0878 -0.0648  0.0402
26577SOL     OW85566   1.189   7.509   6.920  0.0371  0.4645 -0.1098
26577SOL    HW185567   1.095   7.488   6.926 -0.0582  1.2027  1.4752
26577SOL    HW285568   1.192   7.604   6.914  0.6710  0.3895 -1.1344
26578SOL     OW85569  10.787   9.705   3.546  0.0746 -0.4151  0.1570
26578SOL    HW185570  10.727   9.668   3.611 -1.1471 -0.4773 -0.9722
26578SOL    HW285571  10.803   9.634   3.484 -1.3604  0.5368 -1.3801
26579SOL     OW85572   0.933   3.946   1.794  0.1622  0.4447  0.3431
26579SOL    HW185573   1.004   3.942   1.730  2.1201 -3.0721  2.4181
26579SOL    HW285574   0.881   3.867   1.777 -1.5057  1.3906  0.8108
26580SOL     OW85575   3.838   8.162   3.384  0.0405  0.1168  0.2719
26580SOL    HW185576   3.872   8.088   3.435 -2.1459 -1.7295 -0.7466
26580SOL    HW285577   3.753   8.181   3.423  0.2744  1.6669  0.0608
26581SOL     OW85578   6.856   1.496   8.576 -0.2093 -0.2051  0.4081
26581SOL    HW185579   6.869   1.574   8.522 -0.5425  0.5241  1.3704
26581SOL    HW285580   6.873   1.524   8.665 -2.2953 -0.7080  1.0279
26582SOL     OW85581   3.642   5.640   0.929 -0.2722  0.5552 -0.1200
26582SOL    HW185582   3.614   5.674   1.014 -1.1975  0.9146 -0.5498
26582SOL    HW285583   3.563   5.599   0.892  0.0200  0.7156 -0.9522
26583SOL     OW85584   4.366   5.602   6.883 -0.0982  0.2394  0.3940
26583SOL    HW185585   4.377   5.513   6.847 -1.1298  0.0284  0.5535
26583SOL    HW285586   4.447   5.619   6.930  0.6217 -0.1226 -0.6873
26584SOL     OW85587   2.150   5.895   1.301  0.3554  0.1895 -0.2397
26584SOL    HW185588   2.196   5.920   1.221 -0.5351 -0.6127 -1.0339
26584SOL    HW285589   2.127   5.978   1.343  1.5929  0.6106 -0.3442
26585SOL     OW85590   0.148   3.570   1.206 -0.5209 -0.9169  0.2335
26585SOL    HW185591   0.061   3.535   1.226  0.5728 -2.8920  2.0408
26585SOL    HW285592   0.182   3.600   1.291  0.4167  0.2546 -0.5137
26586SOL     OW85593   9.802   7.798   0.400  0.1026 -0.2826  0.0442
26586SOL    HW185594   9.741   7.725   0.406  0.8493 -0.8416  1.1117
26586SOL    HW285595   9.829   7.799   0.309 -0.3189 -1.0053 -0.0958
26587SOL     OW85596   9.021   3.037   9.501  0.4627  0.2305  0.5706
26587SOL    HW185597   9.086   3.092   9.458 -0.9245  0.2427 -1.6682
26587SOL    HW285598   8.967   3.099   9.550  0.2504  0.6351 -0.1466
26588SOL     OW85599   4.123   9.869   2.150  0.4999  0.0815 -0.9861
26588SOL    HW185600   4.089   9.940   2.204 -1.0972 -0.5613 -1.1026
26588SOL    HW285601   4.215   9.862   2.175  0.1729  0.8277  0.5268
26589SOL     OW85602   6.387   3.988   6.963  0.3800 -0.6485  0.8451
26589SOL    HW185603   6.364   3.901   6.930 -0.8076 -0.1747  0.3596
26589SOL    HW285604   6.328   4.048   6.916  2.6100  0.6827 -0.4566
26590SOL     OW85605   8.854   3.980   9.599  0.0271 -0.2999 -0.0024
26590SOL    HW185606   8.921   3.981   9.668 -1.3695  1.5436  1.4530
26590SOL    HW285607   8.786   4.039   9.631 -1.8326 -1.2645 -1.8989
26591SOL     OW85608   7.130   5.046   9.818  0.2912  0.2567 -0.0688
26591SOL    HW185609   7.059   5.072   9.876  0.0805 -0.5086  0.0302
26591SOL    HW285610   7.119   4.952   9.808  1.7479 -0.0093  0.5736
26592SOL     OW85611   1.775   8.864   7.708 -0.0197  0.2798 -0.5041
26592SOL    HW185612   1.843   8.903   7.762 -1.0456  0.9667  0.3308
26592SOL    HW285613   1.786   8.770   7.720  1.4549  0.3240 -1.2618
26593SOL     OW85614   8.854   2.516   7.812  0.1753 -0.3685  0.0900
26593SOL    HW185615   8.823   2.437   7.770 -0.4133  0.5360 -1.2288
26593SOL    HW285616   8.806   2.520   7.895 -1.3607 -0.3237 -0.7685
26594SOL     OW85617   2.133  10.093   8.656 -0.3591  0.5754  0.0621
26594SOL    HW185618   2.181  10.096   8.738 -0.1951 -2.0739  0.1597
26594SOL    HW285619   2.134  10.183   8.623  0.7907  1.4124  2.2334
26595SOL     OW85620   0.786   5.139   9.086 -0.0359  0.0371 -0.1481
26595SOL    HW185621   0.744   5.107   9.005 -0.3203  1.2810 -0.5216
26595SOL    HW285622   0.795   5.234   9.072 -1.1703  0.4889  1.7498
26596SOL     OW85623   9.057   4.360   6.785 -0.2810  0.0288 -0.1164
26596SOL    HW185624   9.132   4.365   6.726  0.2257 -2.7220  0.1717
26596SOL    HW285625   8.985   4.330   6.730  0.2814 -2.9155  0.5914
26597SOL     OW85626   5.795   3.439   8.447 -0.0838 -0.1893 -0.4685
26597SOL    HW185627   5.824   3.524   8.416  0.3074  0.5030  1.6355
26597SOL    HW285628   5.700   3.439   8.435 -0.2671  1.1380  0.8217
26598SOL     OW85629   1.154   3.618   7.047 -0.7451  0.2441 -0.2421
26598SOL    HW185630   1.244   3.639   7.022 -1.0804  1.6160 -0.3982
26598SOL    HW285631   1.134   3.538   7.000 -0.2472  0.9890 -1.7811
26599SOL     OW85632   3.915   4.423   8.141  0.7218  0.5206  0.2096
26599SOL    HW185633   3.941   4.515   8.130 -0.9852  0.8965 -1.1887
26599SOL    HW285634   3.879   4.419   8.229  1.5022  1.0034  0.5622
26600SOL     OW85635   6.862   9.771   5.470 -0.0898  0.8950 -0.0440
26600SOL    HW185636   6.833   9.858   5.445  0.7372  1.8202  1.9771
26600SOL    HW285637   6.878   9.777   5.564  1.8947 -0.8902 -0.1872
26601SOL     OW85638   4.648   4.297   4.674  0.0065  0.3598 -0.2742
26601SOL    HW185639   4.707   4.326   4.743 -1.9181 -2.2428  2.7986
26601SOL    HW285640   4.693   4.223   4.633  0.8479  1.4628 -1.4212
26602SOL     OW85641   4.091   1.099   3.105 -0.3713  0.0621 -0.0702
26602SOL    HW185642   4.039   1.177   3.125 -1.6731 -0.2741 -1.9274
26602SOL    HW285643   4.104   1.057   3.190  0.1806  2.1514  0.9440
26603SOL     OW85644   1.422   0.507   1.798  0.1376  0.1356  0.2000
26603SOL    HW185645   1.414   0.600   1.822 -1.3058  0.4469 -1.2441
26603SOL    HW285646   1.399   0.505   1.705  0.4874 -1.6368  0.1195
26604SOL     OW85647   1.212   6.326   2.669  0.2900  0.3001 -0.0082
26604SOL    HW185648   1.256   6.407   2.643 -1.5899  1.3061 -0.2898
26604SOL    HW285649   1.131   6.356   2.711  0.2506 -1.4313  1.2507
26605SOL     OW85650   5.553   0.732   2.941 -0.4505  0.2637 -0.0852
26605SOL    HW185651   5.565   0.660   3.003 -1.4379  1.2585  1.2991
26605SOL    HW285652   5.640   0.748   2.906 -0.0924 -1.1414  0.0954
26606SOL     OW85653   0.292   6.929  10.287 -0.3403 -0.2785  0.1558
26606SOL    HW185654   0.291   6.992  10.215 -0.1632 -0.4929 -0.0352
26606SOL    HW285655   0.272   6.845  10.246  2.0289 -0.8078 -0.0549
26607SOL     OW85656   0.837   1.417   9.396  0.2564 -0.4933 -0.0832
26607SOL    HW185657   0.753   1.442   9.356 -0.0062 -0.4066  0.5221
26607SOL    HW285658   0.856   1.488   9.458  0.9355 -0.3539 -0.4402
26608SOL     OW85659   2.723   2.946   5.648 -0.0872  0.6541 -0.2916
26608SOL    HW185660   2.732   2.863   5.601 -3.5687  0.5340 -1.0194
26608SOL    HW285661   2.726   3.012   5.579 -1.1195  0.7911 -0.2255
26609SOL     OW85662   1.229   9.368   6.699 -0.0722  0.3975  0.2483
26609SOL    HW185663   1.226   9.356   6.604  0.4235  0.5823  0.2040
26609SOL    HW285664   1.162   9.434   6.717 -0.5118  0.0023  0.0921
26610SOL     OW85665   2.800   2.382   8.055  0.2845 -0.2714 -0.8123
26610SOL    HW185666   2.802   2.287   8.038 -0.3777 -0.4758  0.1924
26610SOL    HW285667   2.879   2.415   8.013  0.3665 -1.2235 -1.4459
26611SOL     OW85668   0.245   1.942   6.961  0.2233  0.2596 -0.2254
26611SOL    HW185669   0.312   1.877   6.982 -1.8803 -2.3276 -0.9190
26611SOL    HW285670   0.211   1.914   6.876 -4.2548 -0.9874  1.6962
26612SOL     OW85671   0.842   0.205   3.970 -0.2807  0.1315  0.2673
26612SOL    HW185672   0.877   0.263   3.903 -1.0174 -1.2894 -1.4253
26612SOL    HW285673   0.849   0.117   3.932 -1.6691 -0.6198  1.6302
26613SOL     OW85674   7.523   3.727   2.656  0.1993  0.6212  0.2152
26613SOL    HW185675   7.597   3.785   2.636  0.7814 -0.0186  0.4871
26613SOL    HW285676   7.563   3.645   2.685 -0.6042 -0.0662 -0.5438
26614SOL     OW85677  10.839   4.866   8.737  0.3190  0.4517  0.0620
26614SOL    HW185678  10.778   4.792   8.738 -1.4461  1.8309  1.7358
26614SOL    HW285679  10.874   4.866   8.648 -0.3711 -1.7809 -0.2820
26615SOL     OW85680   0.448   0.824   3.920 -0.1923 -0.4163 -0.4574
26615SOL    HW185681   0.492   0.868   3.848 -0.4347  1.0095  0.2267
26615SOL    HW285682   0.356   0.820   3.893 -0.1107 -0.8368 -0.6757
26616SOL     OW85683   5.371   4.384   0.998 -0.3817 -0.1261 -0.0827
26616SOL    HW185684   5.450   4.330   1.004  0.0651  0.5946  0.8913
26616SOL    HW285685   5.313   4.347   1.064 -1.0595 -0.9311 -1.0975
26617SOL     OW85686   1.017   9.541  10.319 -0.0913  0.3833 -0.1828
26617SOL    HW185687   0.946   9.490  10.280  1.7848 -2.1836 -0.4800
26617SOL    HW285688   1.053   9.592  10.246 -1.4486  1.5686 -0.0646
26618SOL     OW85689   6.022   3.424   9.698 -0.0935  0.2795  0.0321
26618SOL    HW185690   6.011   3.329   9.697  2.4705 -0.0780 -0.8829
26618SOL    HW285691   6.050   3.443   9.788 -1.5384  0.3413  0.4941
26619SOL     OW85692   3.706   4.953   9.011 -0.1066  1.0354 -0.1369
26619SOL    HW185693   3.662   4.869   9.016  2.0587 -0.1187  1.3180
26619SOL    HW285694   3.635   5.017   9.005 -1.9712 -0.7134  1.5598
26620SOL     OW85695   2.375   2.124   8.423  0.6859 -0.3392  0.1128
26620SOL    HW185696   2.420   2.181   8.485  0.0694 -0.3491  0.5822
26620SOL    HW285697   2.320   2.183   8.371  3.2455  0.0770 -2.3756
26621SOL     OW85698   3.875   7.924   3.678  0.0864 -0.3849  0.2559
26621SOL    HW185699   3.942   7.957   3.618 -0.8582  0.9167 -0.1471
26621SOL    HW285700   3.888   7.976   3.758 -0.9439  0.4938 -0.1215
26622SOL     OW85701   6.357   2.009   6.958 -0.1416  0.2339 -0.1409
26622SOL    HW185702   6.305   1.931   6.939  0.8360 -0.1738 -1.3602
26622SOL    HW285703   6.389   1.996   7.047  0.4572 -1.0525 -0.5224
26623SOL     OW85704   9.315   9.296   7.522  0.2042 -0.0442 -0.1016
26623SOL    HW185705   9.349   9.207   7.526  1.5615  0.4149 -0.6832
26623SOL    HW285706   9.262   9.298   7.442 -0.8226 -0.6323  0.5448
26624SOL     OW85707   0.863   4.967   6.497 -0.2321 -0.6664 -0.0252
26624SOL    HW185708   0.894   4.958   6.587 -0.4334 -0.2191  0.0902
26624SOL    HW285709   0.942   4.958   6.444 -0.2282 -1.7642  0.1462
26625SOL     OW85710   6.113   6.815   5.716 -0.6731 -0.5079  0.5389
26625SOL    HW185711   6.146   6.892   5.670 -2.5560 -1.0156 -1.8018
26625SOL    HW285712   6.192   6.772   5.750  0.8651 -0.0986 -2.2495
26626SOL     OW85713   7.089   9.921   5.653  0.3147  0.2159  0.0558
26626SOL    HW185714   7.021   9.870   5.698  0.4998 -0.1332 -0.0537
26626SOL    HW285715   7.168   9.906   5.706  0.3262  0.5513  0.1348
26627SOL     OW85716   9.410   5.172   5.503  0.0495  0.2605  0.6906
26627SOL    HW185717   9.415   5.181   5.598 -0.8848  0.9890  0.6942
26627SOL    HW285718   9.322   5.205   5.481 -0.0911 -0.7364 -0.3297
26628SOL     OW85719   7.218   3.025   2.017 -0.3113 -0.1210 -0.8526
26628SOL    HW185720   7.152   2.957   2.002  1.6034 -2.1249 -0.6645
26628SOL    HW285721   7.296   2.993   1.972  0.8632  1.6444 -0.1715
26629SOL     OW85722   9.351   8.835   4.295 -0.1723 -0.0157 -0.4441
26629SOL    HW185723   9.288   8.838   4.223  0.2983 -0.9230 -0.9060
26629SOL    HW285724   9.320   8.903   4.356 -1.4610 -0.2742 -0.7680
26630SOL     OW85725   4.745   4.026   3.358  0.2307  0.1135  0.4249
26630SOL    HW185726   4.677   4.039   3.291 -1.7100 -0.2107  2.2314
26630SOL    HW285727   4.729   3.936   3.389  3.3363 -1.0659 -1.0094
26631SOL     OW85728   2.244   3.110   8.755  0.0227 -0.3476  0.6307
26631SOL    HW185729   2.160   3.081   8.791 -0.7389 -0.6012 -1.2177
26631SOL    HW285730   2.302   3.034   8.764 -0.3560 -0.6256  0.7203
26632SOL     OW85731   4.016   2.008  10.221  0.3904 -0.5742 -0.6532
26632SOL    HW185732   4.044   1.987  10.132 -2.1887 -3.4203 -0.9666
26632SOL    HW285733   3.955   2.081  10.210  0.6487 -0.4299 -1.1421
26633SOL     OW85734   9.908   4.209   3.688 -0.0452 -0.6180 -0.2964
26633SOL    HW185735   9.818   4.179   3.681 -0.3075  0.1624 -0.3638
26633SOL    HW285736   9.913   4.286   3.631  0.5981 -0.5132 -0.1118
26634SOL     OW85737   2.323   0.703   9.441  0.4126  0.1874 -0.1687
26634SOL    HW185738   2.284   0.668   9.361  0.1458  0.2000 -0.0460
26634SOL    HW285739   2.392   0.640   9.464  0.8042  0.4342 -0.6659
26635SOL     OW85740   4.437   3.571   5.482  0.5950  0.3787 -0.3946
26635SOL    HW185741   4.446   3.476   5.494  1.7579  0.3568 -1.2618
26635SOL    HW285742   4.453   3.585   5.389  0.9578  1.4869 -0.1793
26636SOL     OW85743   4.166   2.731  10.401 -0.3354 -0.4419  0.1217
26636SOL    HW185744   4.153   2.694  10.488  1.6154 -0.4592  0.4365
26636SOL    HW285745   4.259   2.754  10.397 -0.4528 -0.0815 -1.8179
26637SOL     OW85746   0.085   1.274   7.373 -0.0525 -0.8094 -0.3447
26637SOL    HW185747  -0.005   1.301   7.353  0.8333  1.1146 -2.0302
26637SOL    HW285748   0.116   1.341   7.435  0.3416 -1.2541 -0.0612
26638SOL     OW85749   1.081   6.816   9.464  0.8164  0.1534 -0.5064
26638SOL    HW185750   1.142   6.874   9.509  1.7677 -0.5504 -0.8437
26638SOL    HW285751   1.131   6.783   9.389 -0.3791  0.4746 -1.4712
26639SOL     OW85752   1.817   3.338   5.782  0.3540 -0.3768 -0.0879
26639SOL    HW185753   1.751   3.404   5.762  1.1743 -0.0448 -1.8679
26639SOL    HW285754   1.803   3.269   5.717  0.5870 -1.2002  0.6986
26640SOL     OW85755   1.141   7.272   6.481 -0.2643  0.1931  0.2039
26640SOL    HW185756   1.152   7.353   6.530  0.3221 -0.2201  0.7574
26640SOL    HW285757   1.080   7.295   6.410 -2.6611  0.3398  2.1866
26641SOL     OW85758   5.299   2.502   6.537 -0.1392 -0.3558  0.1667
26641SOL    HW185759   5.216   2.506   6.491  0.2285 -1.9403 -0.7073
26641SOL    HW285760   5.359   2.555   6.485  0.3400 -2.3428 -1.4181
26642SOL     OW85761  10.365   1.503   6.542  0.7689 -0.5758 -0.3023
26642SOL    HW185762  10.287   1.550   6.512  0.5620 -0.0925  0.9255
26642SOL    HW285763  10.422   1.571   6.577  0.6689 -1.1666  1.0760
26643SOL     OW85764   4.051   8.373   4.550 -0.1418 -0.0918  0.4713
26643SOL    HW185765   4.047   8.300   4.611  0.0254 -0.0687  0.5083
26643SOL    HW285766   4.102   8.340   4.476  3.9749  1.3824  2.3909
26644SOL     OW85767   4.698   6.843   1.122 -0.1242 -0.4097  0.1085
26644SOL    HW185768   4.674   6.751   1.110 -0.7721 -0.1978 -0.2888
26644SOL    HW285769   4.672   6.864   1.212 -0.9322 -0.3418 -0.1308
26645SOL     OW85770   2.354   2.593   4.458  0.0425  0.4584 -0.2677
26645SOL    HW185771   2.293   2.632   4.521 -0.2527  0.4354 -0.5356
26645SOL    HW285772   2.434   2.578   4.508  0.4136  2.0447 -0.3138
26646SOL     OW85773   1.758   5.741   6.762  0.1157 -0.1740 -0.1461
26646SOL    HW185774   1.709   5.667   6.726  2.4298 -2.3410  0.8010
26646SOL    HW285775   1.825   5.760   6.697 -1.3446  2.2587 -1.0905
26647SOL     OW85776   4.778   4.335   1.180 -0.3346  0.0601  0.2995
26647SOL    HW185777   4.839   4.354   1.109 -1.3047 -1.3499 -1.0026
26647SOL    HW285778   4.722   4.266   1.145 -0.7145 -0.8691  2.5489
26648SOL     OW85779   9.598   2.167   6.691 -0.1026  0.4913  0.4109
26648SOL    HW185780   9.536   2.139   6.623  0.4425  2.3282 -0.9228
26648SOL    HW285781   9.683   2.138   6.658  0.0584  0.3914  0.9044
26649SOL     OW85782  10.902   0.612   1.894  0.0858  0.0530  0.7795
26649SOL    HW185783  10.946   0.527   1.904 -0.5053 -0.3466  0.0766
26649SOL    HW285784  10.900   0.648   1.983 -0.0454 -0.8662  1.1624
26650SOL     OW85785   7.344  10.060   8.869 -0.5954 -0.3990  0.0754
26650SOL    HW185786   7.396  10.069   8.949 -1.7996  1.0256  0.7659
26650SOL    HW285787   7.319  10.149   8.847 -2.3404 -0.9748 -0.4641
26651SOL     OW85788   8.505   3.692   3.662 -0.5362 -0.0257 -0.0299
26651SOL    HW185789   8.446   3.715   3.590 -1.9030 -0.9481  0.7578
26651SOL    HW285790   8.495   3.598   3.673  2.0404 -0.4733 -0.6601
26652SOL     OW85791   8.447   9.877   8.444 -1.2490  0.1552  0.1767
26652SOL    HW185792   8.404   9.842   8.522  1.0851  0.4166  1.6655
26652SOL    HW285793   8.488   9.958   8.473  1.0463 -0.5430 -0.8573
26653SOL     OW85794   6.269   9.092   1.971 -0.3064  0.0187  0.2362
26653SOL    HW185795   6.228   9.083   1.886 -0.7611  1.9125  0.2069
26653SOL    HW285796   6.295   9.003   1.995  0.4843 -0.4784 -2.1693
26654SOL     OW85797   3.103   4.888   7.048 -1.0277  0.2417  0.1658
26654SOL    HW185798   3.106   4.808   7.100  0.6457  0.2028  0.0607
26654SOL    HW285799   3.032   4.873   6.985 -1.7560 -0.5094  1.1253
26655SOL     OW85800   3.260   7.983   6.627 -0.0754  0.0079 -0.0711
26655SOL    HW185801   3.235   8.051   6.689  1.0343 -0.6549  1.1564
26655SOL    HW285802   3.301   8.031   6.555  0.4583  0.6737  0.6542
26656SOL     OW85803   2.578   3.455   1.721  0.2121 -0.5738 -0.2916
26656SOL    HW185804   2.571   3.538   1.768 -1.2911 -0.2874 -0.9514
26656SOL    HW285805   2.664   3.458   1.680  0.1827  0.6665 -0.2994
26657SOL     OW85806   2.571   3.230   6.727  0.4568 -0.7600 -0.2489
26657SOL    HW185807   2.497   3.234   6.666  0.8788 -1.1230 -0.7960
26657SOL    HW285808   2.605   3.141   6.717  0.8299 -0.6671  0.1683
26658SOL     OW85809   0.257   3.081   8.058 -0.9388 -0.2710 -0.0236
26658SOL    HW185810   0.219   3.169   8.051 -2.0847 -0.7034  0.5802
26658SOL    HW285811   0.204   3.028   7.999 -0.9749 -0.7913  0.4745
26659SOL     OW85812   2.914  10.674   6.467  0.4423  0.0561  0.0385
26659SOL    HW185813   2.958  10.609   6.412  1.1131 -0.2704  0.9224
26659SOL    HW285814   2.919  10.637   6.556 -2.2543 -0.3397  0.1183
26660SOL     OW85815   7.278   3.313   5.988  0.3588 -0.0316 -0.0303
26660SOL    HW185816   7.273   3.253   6.062 -2.3782 -0.4060 -0.4020
26660SOL    HW285817   7.187   3.326   5.962  1.0475  2.3141 -1.5720
26661SOL     OW85818   8.127   6.445   4.753  0.7704  0.1969  0.2536
26661SOL    HW185819   8.157   6.481   4.837  0.6203  0.4668  0.1904
26661SOL    HW285820   8.146   6.514   4.690  1.5934 -0.3024 -0.0620
26662SOL     OW85821   6.276   3.943   0.192  0.0971 -0.6381 -0.0460
26662SOL    HW185822   6.312   4.021   0.149  1.5728 -1.5200 -0.4875
26662SOL    HW285823   6.351   3.884   0.202 -0.7303 -1.5054  1.4305
26663SOL     OW85824   0.565   3.864   8.301 -0.1651 -0.6895  0.0368
26663SOL    HW185825   0.501   3.934   8.317  0.6979  0.0188  0.4837
26663SOL    HW285826   0.578   3.865   8.207 -0.4036 -0.4768  0.0032
26664SOL     OW85827  10.332   7.367   2.101 -0.1150  0.2179  0.2752
26664SOL    HW185828  10.301   7.302   2.037  0.7336  0.2128 -0.1475
26664SOL    HW285829  10.403   7.322   2.147  1.2987  1.2137 -0.8297
26665SOL     OW85830   3.415   7.601   5.584  0.2682 -0.1991 -0.3182
26665SOL    HW185831   3.490   7.634   5.534 -0.4848  2.1397 -0.0364
26665SOL    HW285832   3.363   7.554   5.519  1.2533 -0.6032 -0.8404
26666SOL     OW85833   2.814   3.394   1.578  0.2802  0.7621  0.5528
26666SOL    HW185834   2.791   3.347   1.498 -3.8055  2.4621  0.4626
26666SOL    HW285835   2.855   3.476   1.548 -1.9698  1.7637  0.0058
26667SOL     OW85836   5.708   2.207   2.308  0.2892  0.2162  0.2203
26667SOL    HW185837   5.751   2.232   2.227 -1.8025  0.3142 -0.9386
26667SOL    HW285838   5.622   2.175   2.281 -0.4852  0.2566  2.3983
26668SOL     OW85839   5.520   6.847  10.491 -0.3573 -0.4609  0.3652
26668SOL    HW185840   5.471   6.856  10.409 -1.1523  0.4912  0.9370
26668SOL    HW285841   5.573   6.768  10.478 -1.6516 -1.2267 -0.4531
26669SOL     OW85842   9.518   8.023   1.414 -0.0422  0.2565  0.4124
26669SOL    HW185843   9.423   8.023   1.408 -0.0818 -0.5562  0.8856
26669SOL    HW285844   9.542   8.115   1.410 -0.9828  0.6201  2.1507
26670SOL     OW85845   8.041   0.365   1.253 -0.3961 -0.5977 -0.0941
26670SOL    HW185846   7.981   0.296   1.226 -0.0696 -0.6265 -0.7765
26670SOL    HW285847   8.067   0.408   1.171  0.8836 -0.8945  0.1304
26671SOL     OW85848   0.329   0.348   7.040 -0.2626 -0.2989 -0.6271
26671SOL    HW185849   0.283   0.414   6.988 -1.5066 -0.8844 -0.3300
26671SOL    HW285850   0.306   0.369   7.131 -1.8458 -1.9019 -0.5899
26672SOL     OW85851   1.355   0.804   1.234  0.7597  0.2011  0.1637
26672SOL    HW185852   1.310   0.812   1.318 -0.5019  0.8315 -0.5449
26672SOL    HW285853   1.393   0.716   1.236  0.4463  0.0667  1.2386
26673SOL     OW85854   7.017   1.095   8.862  0.3689  0.1321 -0.2792
26673SOL    HW185855   7.080   1.157   8.900  0.0009 -0.0895  0.7392
26673SOL    HW285856   6.983   1.046   8.938 -0.7479 -0.0075 -0.8429
26674SOL     OW85857   5.199   2.275   1.168 -0.1406 -0.6714  0.3845
26674SOL    HW185858   5.267   2.265   1.101 -0.5216  1.6449 -0.4345
26674SOL    HW285859   5.118   2.286   1.119 -0.3982  1.3254  1.1801
26675SOL     OW85860  10.023   8.181   9.006 -0.0318 -0.0945  0.0630
26675SOL    HW185861   9.980   8.260   8.973  1.2231  0.4368 -0.3464
26675SOL    HW285862  10.037   8.127   8.928  0.2408 -0.1679  0.1619
26676SOL     OW85863   1.317   1.571   5.921  0.0925 -0.4398  0.6743
26676SOL    HW185864   1.238   1.604   5.963  0.1423 -0.1134  0.5179
26676SOL    HW285865   1.292   1.557   5.830 -0.1437 -1.5860  0.8989
26677SOL     OW85866   2.646   6.835   2.386  0.1339  0.4237  0.2692
26677SOL    HW185867   2.721   6.867   2.437  0.4402 -0.4196  0.3640
26677SOL    HW285868   2.638   6.743   2.411  0.2370  0.0072 -1.1465
26678SOL     OW85869   4.261   0.891   6.695 -0.2007 -0.1937  0.0537
26678SOL    HW185870   4.272   0.985   6.715 -0.7689 -0.4644  1.8606
26678SOL    HW285871   4.170   0.873   6.718 -0.6613 -0.8110 -2.1117
26679SOL     OW85872   7.316   1.689   3.866  0.3094 -0.1813  0.1193
26679SOL    HW185873   7.229   1.665   3.899  0.4984 -1.6981 -0.4427
26679SOL    HW285874   7.298   1.755   3.799 -0.4666 -0.8883 -0.3905
26680SOL     OW85875   0.406   7.422   8.710 -0.3133  0.7341 -0.4730
26680SOL    HW185876   0.327   7.476   8.721 -1.6831 -1.1291 -0.6602
26680SOL    HW285877   0.443   7.415   8.798 -0.1975  1.8260 -0.4207
26681SOL     OW85878   3.610   4.329   7.971 -0.7215  0.1714  0.3008
26681SOL    HW185879   3.705   4.331   7.956 -0.9150 -1.2642 -1.4120
26681SOL    HW285880   3.581   4.417   7.948  0.3378  1.1449  2.3644
26682SOL     OW85881   1.006   4.098   6.908  0.4194 -0.3638 -0.4596
26682SOL    HW185882   0.998   4.006   6.934  0.6130 -0.3877 -0.4816
26682SOL    HW285883   1.057   4.138   6.977  0.8587 -0.4080 -0.7501
26683SOL     OW85884   1.931   5.591   5.594 -0.3583  0.4807  0.1061
26683SOL    HW185885   1.941   5.608   5.688 -0.9420  0.1737  0.2286
26683SOL    HW285886   1.861   5.527   5.589  0.9801 -0.9978 -0.4232
26684SOL     OW85887   6.070   6.137   6.517 -0.2983  0.1261  0.6037
26684SOL    HW185888   6.025   6.181   6.444  0.1548 -0.8546 -0.2941
26684SOL    HW285889   6.153   6.184   6.526 -0.4186  0.3446  0.6024
26685SOL     OW85890  10.861   4.742   1.119  0.2728  0.1269  0.1522
26685SOL    HW185891  10.877   4.731   1.026  1.0654  0.7444  0.1999
26685SOL    HW285892  10.771   4.774   1.124  1.4126  4.0442 -0.7634
26686SOL     OW85893   5.050   8.958   8.164 -0.5348 -0.4563 -0.1807
26686SOL    HW185894   5.131   9.010   8.160  0.3854 -1.8250 -0.0054
26686SOL    HW285895   5.049   8.910   8.081 -1.4530 -0.0861 -0.3983
26687SOL     OW85896   0.588   0.315   4.012  0.1862  0.1280 -0.5762
26687SOL    HW185897   0.664   0.261   4.031 -0.6628 -1.8738 -2.4638
26687SOL    HW285898   0.514   0.268   4.051 -0.4484  0.4888 -1.3148
26688SOL     OW85899   0.754   8.618   2.588 -0.6276  0.4226 -0.1079
26688SOL    HW185900   0.708   8.540   2.619  0.3840 -1.7998 -3.5880
26688SOL    HW285901   0.690   8.663   2.533 -0.6455  1.0399  0.4138
26689SOL     OW85902   8.835   3.578   9.069 -0.2678  0.1392 -0.3378
26689SOL    HW185903   8.775   3.553   9.139 -0.2835 -1.0983 -0.7704
26689SOL    HW285904   8.858   3.669   9.089 -0.0793 -0.2580  1.4025
26690SOL     OW85905   1.683   9.202  10.682 -0.6076  0.9863  0.0989
26690SOL    HW185906   1.762   9.256  10.680  0.5390 -0.5966  0.2976
26690SOL    HW285907   1.637   9.223  10.601  1.1166  0.4137 -1.0908
26691SOL     OW85908   0.343   9.600   6.389  0.1334 -0.0964  0.0041
26691SOL    HW185909   0.252   9.616   6.362 -0.2208 -0.5298  0.8651
26691SOL    HW285910   0.351   9.504   6.390 -0.2837 -0.1812  2.5613
26692SOL     OW85911  10.750   7.701   0.237  0.3006 -0.0827 -0.3186
26692SOL    HW185912  10.767   7.653   0.156  0.4986  0.4316 -0.5829
26692SOL    HW285913  10.660   7.678   0.261  0.7738 -1.5274  0.1998
26693SOL     OW85914   6.593   3.230   9.926  0.0272 -0.2023  0.1454
26693SOL    HW185915   6.517   3.284   9.904 -0.7711 -1.2314  0.3142
26693SOL    HW285916   6.585   3.154   9.869  0.5264 -0.6613  0.6890
26694SOL     OW85917   0.952   2.411   7.342 -0.1331 -0.4910  0.4016
26694SOL    HW185918   0.997   2.329   7.321  1.9704  1.0618 -1.7332
26694SOL    HW285919   0.884   2.419   7.276  1.3096  0.5903 -1.0424
26695SOL     OW85920   1.167   2.610   7.931 -0.0064  0.5168  0.2586
26695SOL    HW185921   1.090   2.621   7.875 -0.7501 -2.3339  0.5269
26695SOL    HW285922   1.164   2.684   7.991 -0.9001  2.0052 -1.5114
26696SOL     OW85923   2.598   0.486   5.993 -0.1413 -0.4652 -0.1348
26696SOL    HW185924   2.664   0.535   5.944 -0.8519  2.5246  1.6422
26696SOL    HW285925   2.514   0.515   5.958 -0.6098 -2.2901 -0.6364
26697SOL     OW85926   0.025   1.972   7.944 -0.6685  0.2842  0.0810
26697SOL    HW185927  -0.066   1.954   7.968 -0.6607 -1.3213 -0.9046
26697SOL    HW285928   0.055   1.891   7.902  0.4287  1.6562 -1.9247
26698SOL     OW85929   6.756   1.292   3.753  0.1170  0.0682 -0.3120
26698SOL    HW185930   6.798   1.256   3.675 -0.7229 -0.5044 -0.5207
26698SOL    HW285931   6.734   1.216   3.806  1.3318  0.4818  0.8623
26699SOL     OW85932   5.363   6.214  10.617  0.5573  0.9423  0.2997
26699SOL    HW185933   5.340   6.131  10.658  0.0232  0.2334 -1.3657
26699SOL    HW285934   5.459   6.214  10.613  0.5807  0.6644  0.7658
26700SOL     OW85935   8.803   4.621   2.086 -0.8200 -0.2008  0.0170
26700SOL    HW185936   8.757   4.558   2.141  0.8972 -1.7131 -0.1757
26700SOL    HW285937   8.783   4.594   1.996 -0.2196 -0.3881 -0.0671
26701SOL     OW85938   1.435   0.945   8.000 -0.0388 -0.1083  0.2050
26701SOL    HW185939   1.411   0.968   7.911 -1.2298 -0.1103  0.5117
26701SOL    HW285940   1.482   1.022   8.033 -0.5627  0.3292 -0.0618
26702SOL     OW85941   5.076   3.702   7.848  1.0296  0.0562 -0.5318
26702SOL    HW185942   5.081   3.794   7.820 -2.7707  1.0910  1.5426
26702SOL    HW285943   5.130   3.698   7.927  0.2232  0.8728  0.0742
26703SOL     OW85944   5.773  10.388   9.985  0.6595 -0.0729  0.7317
26703SOL    HW185945   5.817  10.472   9.966  0.9281 -0.4782 -0.5782
26703SOL    HW285946   5.798  10.368  10.075  0.5488  1.2772  1.0890
26704SOL     OW85947   6.157   3.311   2.634 -0.5539 -0.1444 -0.1633
26704SOL    HW185948   6.202   3.229   2.613  0.4086  0.6044 -1.0721
26704SOL    HW285949   6.070   3.300   2.597 -0.1006 -0.3574 -1.1842
26705SOL     OW85950   7.054   1.454   3.289  0.0168  0.0363 -0.1954
26705SOL    HW185951   7.015   1.366   3.290 -1.3478  0.6107 -0.6068
26705SOL    HW285952   6.985   1.511   3.323 -0.0978  1.3180 -2.3821
26706SOL     OW85953   4.409   2.887   0.865  0.1146 -0.1967 -0.0138
26706SOL    HW185954   4.375   2.957   0.921 -1.0394 -0.8250  0.0978
26706SOL    HW285955   4.341   2.872   0.800  1.0660 -0.0876 -1.0753
26707SOL     OW85956   5.614   3.481   4.359 -0.0366 -0.0420 -0.2684
26707SOL    HW185957   5.667   3.561   4.367 -0.6364  0.5583 -1.8686
26707SOL    HW285958   5.673   3.418   4.315 -0.6140  0.6751 -2.1908
26708SOL     OW85959   5.938   3.526   6.637  0.2908  0.3184 -0.1003
26708SOL    HW185960   5.877   3.470   6.589  0.4620 -1.3096  1.5038
26708SOL    HW285961   5.953   3.601   6.578 -0.9574 -0.6664 -1.7469
26709SOL     OW85962   1.853  10.299   9.940 -0.4040 -0.0139 -0.1156
26709SOL    HW185963   1.917  10.238   9.902  0.0763  0.7982 -0.6299
26709SOL    HW285964   1.889  10.386   9.923 -0.9545  0.4151  0.8532
26710SOL     OW85965   7.245  10.628   9.294 -0.3414 -0.0723 -0.6373
26710SOL    HW185966   7.171  10.570   9.311 -0.8272  0.7788  0.2133
26710SOL    HW285967   7.220  10.712   9.332  1.1040  0.2075 -0.2226
26711SOL     OW85968   7.676   4.967   5.300  0.0829  0.4904 -0.4809
26711SOL    HW185969   7.670   5.003   5.211  0.9277 -1.4026 -1.3552
26711SOL    HW285970   7.602   4.907   5.307 -1.0743  1.9633  0.8236
26712SOL     OW85971  10.403   6.942   4.730 -0.4238 -0.0039  0.0679
26712SOL    HW185972  10.341   6.918   4.662  1.8010 -1.5442 -1.5415
26712SOL    HW285973  10.457   7.010   4.691 -0.8690  1.1824  1.3848
26713SOL     OW85974   8.119   4.854  10.182 -0.2114 -0.0904  0.4403
26713SOL    HW185975   8.197   4.803  10.204  0.4117  0.9120  0.6308
26713SOL    HW285976   8.124   4.931  10.238 -2.3865 -0.8957  1.8866
26714SOL     OW85977   6.344   7.629   0.516 -0.3185  0.1925  0.1096
26714SOL    HW185978   6.309   7.631   0.605 -0.5759 -0.6116  0.0278
26714SOL    HW285979   6.354   7.536   0.496  0.5037  0.3845 -0.4069
26715SOL     OW85980   0.964   6.460   1.608 -0.2306 -0.2809  0.0708
26715SOL    HW185981   0.921   6.380   1.636  0.4939 -0.6667  0.1018
26715SOL    HW285982   1.054   6.453   1.642 -0.2526  0.7006  0.3782
26716SOL     OW85983   7.187   6.424   2.009 -0.1292 -0.5380  0.2594
26716SOL    HW185984   7.271   6.423   2.054 -0.9253  0.1599  1.8325
26716SOL    HW285985   7.209   6.423   1.916  1.5915 -0.8965  0.6446
26717SOL     OW85986   8.358   2.372   8.593 -0.1925  0.2643 -0.6250
26717SOL    HW185987   8.330   2.310   8.525 -0.5091  0.0793 -0.3323
26717SOL    HW285988   8.278   2.420   8.616 -0.5928 -1.1130  1.0944
26718SOL     OW85989   6.674  10.493   5.496 -0.2955  0.1761  0.2559
26718SOL    HW185990   6.764  10.516   5.517  0.1126 -0.3777 -0.8389
26718SOL    HW285991   6.661  10.406   5.535  0.6297 -1.0887 -2.0504
26719SOL     OW85992   6.953   8.246   6.234  0.2416  0.2354  0.0453
26719SOL    HW185993   6.968   8.253   6.140 -0.2199 -1.1352 -0.1461
26719SOL    HW285994   6.918   8.158   6.247  3.0948 -0.7726  1.8710
26720SOL     OW85995   3.610   5.165   6.995 -0.0151  0.1754 -0.2612
26720SOL    HW185996   3.596   5.237   6.934 -1.3701  0.1348 -0.0271
26720SOL    HW285997   3.618   5.207   7.081 -2.7501  0.0158  0.1731
26721SOL     OW85998   7.644   9.773   7.296 -0.2606 -0.0906  0.2634
26721SOL    HW185999   7.624   9.736   7.210  3.2151 -0.2616 -0.6176
26721SOL    HW286000   7.621   9.704   7.358 -0.5761 -0.8833 -0.7157
26722SOL     OW86001   2.022   9.315   0.140 -0.5827  0.1535 -0.1169
26722SOL    HW186002   2.043   9.346   0.052  2.3463 -1.4079 -0.0999
26722SOL    HW286003   2.034   9.220   0.134 -1.2957 -0.0792  1.7443
26723SOL     OW86004   7.630   7.653   9.746  0.4379  0.5987  0.0437
26723SOL    HW186005   7.632   7.749   9.739  0.6337  0.6527  0.7989
26723SOL    HW286006   7.701   7.632   9.806 -0.5967  0.1036  1.1413
26724SOL     OW86007   8.801   7.144   4.837  0.3717  0.0997  0.2724
26724SOL    HW186008   8.837   7.212   4.782 -0.1462  0.4307  0.3361
26724SOL    HW286009   8.719   7.119   4.795  0.7444 -0.7667  0.0331
26725SOL     OW86010   7.713   7.297   8.797  0.0591 -0.3189 -0.0941
26725SOL    HW186011   7.807   7.317   8.804 -0.2397  1.0989  0.1828
26725SOL    HW286012   7.670   7.378   8.822 -1.2493 -0.5855 -1.3631
26726SOL     OW86013   9.438   3.193  10.318 -0.6033  0.6442 -0.1982
26726SOL    HW186014   9.493   3.206  10.395  1.0952  2.6097 -1.6229
26726SOL    HW286015   9.349   3.207  10.349 -0.1530 -0.3679  1.7274
26727SOL     OW86016   7.543   3.325   0.544 -0.5980 -0.3519  0.2617
26727SOL    HW186017   7.555   3.388   0.474  0.3698 -0.3530  0.4164
26727SOL    HW286018   7.591   3.247   0.515 -0.5817 -0.5121  0.7109
26728SOL     OW86019   4.838   2.592   4.867  0.4264 -0.6017 -0.5874
26728SOL    HW186020   4.915   2.563   4.819  0.9801 -0.6577  0.3103
26728SOL    HW286021   4.786   2.641   4.803  0.7922 -1.2711 -1.4187
26729SOL     OW86022  10.802   5.329   0.670  0.1528 -0.5282 -0.2761
26729SOL    HW186023  10.891   5.350   0.698  0.7602 -2.1482 -0.8761
26729SOL    HW286024  10.788   5.239   0.701 -0.5573 -0.9838 -1.8457
26730SOL     OW86025   7.899   0.121   5.290  0.2163 -0.4013 -0.0292
26730SOL    HW186026   7.829   0.063   5.320  0.8704 -2.0404 -1.4847
26730SOL    HW286027   7.870   0.209   5.315 -0.9970 -1.2890  1.9078
26731SOL     OW86028   2.453   4.706   0.754  0.1641 -0.1031 -0.4477
26731SOL    HW186029   2.494   4.780   0.797 -3.1676  1.0479  1.0929
26731SOL    HW286030   2.450   4.730   0.661 -0.7489  1.7123  0.0141
26732SOL     OW86031   2.952   1.272   2.632 -0.5011  0.1463  0.2464
26732SOL    HW186032   2.961   1.201   2.570 -1.5655 -1.8370  2.2091
26732SOL    HW286033   2.858   1.278   2.649 -0.2455  0.5735  1.6827
26733SOL     OW86034   3.367  10.149   2.922  0.1129 -0.2411 -0.1667
26733SOL    HW186035   3.282  10.155   2.965  0.3315 -0.5519  0.3297
26733SOL    HW286036   3.424  10.207   2.974  0.1308  0.2155 -0.6878
26734SOL     OW86037   7.994   1.342   0.009 -0.2593  0.3039  0.4654
26734SOL    HW186038   8.089   1.347   0.017 -0.0530  0.3242 -1.5564
26734SOL    HW286039   7.971   1.254   0.041  0.4894  0.1553  0.5992
26735SOL     OW86040   7.339   8.401   8.979 -0.7637  0.3666  0.5747
26735SOL    HW186041   7.414   8.366   9.028  0.9729  1.2736 -1.3254
26735SOL    HW286042   7.318   8.484   9.022 -0.2071  0.4531  0.6782
26736SOL     OW86043   0.701   4.398   3.743  0.0663  0.0472 -0.5960
26736SOL    HW186044   0.763   4.326   3.757 -0.7111 -0.6411 -0.5808
26736SOL    HW286045   0.619   4.354   3.722 -0.4936  0.9396 -0.3038
26737SOL     OW86046   6.856  10.872   5.140  0.1407 -0.3512  0.1151
26737SOL    HW186047   6.891  10.862   5.228  0.5359 -0.3170 -0.0370
26737SOL    HW286048   6.797  10.797   5.130 -0.7872  0.2622  0.8139
26738SOL     OW86049  10.116   2.475   4.682 -0.1994  0.1579  0.0677
26738SOL    HW186050  10.074   2.471   4.768  1.0629 -0.6602  0.6919
26738SOL    HW286051  10.157   2.389   4.672 -1.0927 -0.1001 -1.7819
26739SOL     OW86052   6.937   6.364   6.049  0.3554 -0.4798 -0.3228
26739SOL    HW186053   6.945   6.408   5.964  0.6317 -0.9795 -0.5554
26739SOL    HW286054   6.845   6.339   6.054  0.5480 -1.3266 -0.9135
26740SOL     OW86055  10.323   8.286   6.358 -0.5514 -0.1433  0.0432
26740SOL    HW186056  10.335   8.263   6.450 -2.5278  0.4094  0.4981
26740SOL    HW286057  10.251   8.230   6.329 -0.1066 -0.1455 -1.1070
26741SOL     OW86058   7.565   1.846   8.508 -0.7551 -0.9179 -0.3584
26741SOL    HW186059   7.624   1.822   8.436 -0.6432 -1.5133 -0.0736
26741SOL    HW286060   7.487   1.793   8.493 -0.7178 -1.0683 -0.0254
26742SOL     OW86061   9.598   9.926   5.891  0.3122  0.1419 -0.4843
26742SOL    HW186062   9.666   9.985   5.923 -0.1398  0.3016  0.1899
26742SOL    HW286063   9.635   9.838   5.901  0.8037  0.2815 -1.0513
26743SOL     OW86064   8.226  10.852   9.914  0.2858  0.6273 -0.6193
26743SOL    HW186065   8.312  10.859   9.873  0.5043  0.2370 -0.2377
26743SOL    HW286066   8.226  10.919   9.982  1.0080 -0.5795  0.6224
26744SOL     OW86067   0.190   0.600   5.690 -0.4672  0.3824  0.1479
26744SOL    HW186068   0.182   0.648   5.773  1.6031  1.8570 -0.4344
26744SOL    HW286069   0.161   0.662   5.623  2.4676  1.0332 -0.6446
26745SOL     OW86070   8.239   7.732  10.092  0.1209 -0.1563 -0.3572
26745SOL    HW186071   8.275   7.821  10.086 -0.2734 -0.0260 -0.9543
26745SOL    HW286072   8.191   7.721  10.010 -2.5218  0.2405  1.0396
26746SOL     OW86073   0.931   0.472   2.255  0.1955 -0.4436 -0.7408
26746SOL    HW186074   0.911   0.556   2.298 -0.5503 -0.3055 -1.3332
26746SOL    HW286075   1.010   0.441   2.299 -0.7420 -0.5009  1.0351
26747SOL     OW86076   7.423   0.936   7.205 -0.4426  0.1770 -0.0041
26747SOL    HW186077   7.439   0.949   7.299  1.0908 -3.2815  0.3480
26747SOL    HW286078   7.328   0.923   7.199 -0.2967 -2.1434  1.5546
26748SOL     OW86079   3.847   7.596   4.649  0.2294  0.3975  0.5654
26748SOL    HW186080   3.794   7.550   4.715  0.4752 -0.5489  0.1209
26748SOL    HW286081   3.899   7.658   4.700  1.1122 -0.9740  1.3894
26749SOL     OW86082   9.827   6.906   9.064 -0.4689  0.9048  0.3876
26749SOL    HW186083   9.777   6.865   8.995  0.4981  0.6812 -0.1917
26749SOL    HW286084   9.799   6.862   9.144  0.7717 -1.1375 -0.2456
26750SOL     OW86085   6.085   9.392  10.258  0.3560 -0.0173  0.1949
26750SOL    HW186086   6.096   9.442  10.177  0.7387  1.5838  1.1813
26750SOL    HW286087   6.092   9.300  10.231  0.6727  0.4825 -1.5468
26751SOL     OW86088   4.923   6.682   6.591  0.9194  0.1280  0.1913
26751SOL    HW186089   4.922   6.597   6.635 -0.7098  0.6135  1.2066
26751SOL    HW286090   4.977   6.738   6.647  1.3080 -0.0193 -0.0344
26752SOL     OW86091   9.671   7.806   6.659  0.1817  0.2834 -0.1755
26752SOL    HW186092   9.592   7.754   6.677  0.3234 -0.3339 -1.2753
26752SOL    HW286093   9.656   7.888   6.706 -0.3383 -0.4875  1.0625
26753SOL     OW86094   1.966   9.142   2.593  0.3170 -0.2995  0.0497
26753SOL    HW186095   1.877   9.111   2.610  0.6060 -0.6647  0.9537
26753SOL    HW286096   2.012   9.129   2.676  1.7042 -1.8237 -0.8987
26754SOL     OW86097   0.876   5.487   8.807 -0.0336 -0.4529  0.2052
26754SOL    HW186098   0.909   5.400   8.786  0.5929  0.1037 -1.2510
26754SOL    HW286099   0.785   5.473   8.833 -0.0630 -1.4897 -0.4058
26755SOL     OW86100   9.487   1.985   6.947  0.4302  0.6057 -0.4037
26755SOL    HW186101   9.472   1.922   7.018 -0.7477  1.1360 -0.1536
26755SOL    HW286102   9.540   1.937   6.883  0.1923 -0.3970  0.1278
26756SOL     OW86103   7.156   1.537   8.422 -0.0702 -0.2112 -0.0190
26756SOL    HW186104   7.063   1.518   8.426  0.1251 -1.5771 -1.2929
26756SOL    HW286105   7.177   1.537   8.329  1.4606 -1.2993  0.2952
26757SOL     OW86106   7.314   5.622   4.060 -0.4748 -0.1923  0.3223
26757SOL    HW186107   7.242   5.653   4.005 -0.4504 -0.4651  0.1387
26757SOL    HW286108   7.390   5.672   4.029 -0.7362  0.7201  1.0753
26758SOL     OW86109   2.448   8.547   0.977  0.3454 -0.2313 -0.3056
26758SOL    HW186110   2.526   8.494   0.958  1.2124  0.3699  1.3206
26758SOL    HW286111   2.398   8.494   1.040  0.8736  0.5224  0.7937
26759SOL     OW86112   7.998   6.911   6.358 -0.1954  0.1056  0.4536
26759SOL    HW186113   7.942   6.943   6.287 -0.6719 -0.8114  0.4044
26759SOL    HW286114   8.066   6.978   6.366 -1.5198  1.4743  0.8050
26760SOL     OW86115  10.563   1.496  10.562 -0.3193  0.1724  0.8674
26760SOL    HW186116  10.576   1.431  10.494 -0.4657  1.0695 -0.0301
26760SOL    HW286117  10.572   1.447  10.644  0.0072 -0.8816  0.2141
26761SOL     OW86118   0.149   2.016   5.525  0.0265 -0.0047  0.0343
26761SOL    HW186119   0.078   2.013   5.589  1.6525 -0.3567  1.9408
26761SOL    HW286120   0.169   2.109   5.516 -1.5709  0.2429 -1.6736
26762SOL     OW86121   2.886   9.926   4.554 -0.5106  0.2543  0.5677
26762SOL    HW186122   2.845  10.012   4.555 -0.1078  0.4580  0.1410
26762SOL    HW286123   2.854   9.884   4.474  2.5830  1.6842 -1.6210
26763SOL     OW86124   5.607   4.534  10.788  0.4340 -0.0613 -0.1693
26763SOL    HW186125   5.632   4.496  10.873  1.4003  0.9491  0.0213
26763SOL    HW286126   5.520   4.572  10.804  1.0479  1.0579  0.7068
26764SOL     OW86127  10.112   7.090   6.220 -0.0045 -0.1392 -0.2478
26764SOL    HW186128  10.060   7.090   6.140 -1.5049  0.7987  0.6694
26764SOL    HW286129  10.197   7.126   6.194 -0.1229 -0.7768 -1.5875
26765SOL     OW86130  10.915   1.336   5.917  0.5280 -0.5446  0.0748
26765SOL    HW186131  10.951   1.249   5.902  1.6695 -0.0724 -0.0184
26765SOL    HW286132  10.961   1.392   5.854 -0.7765 -0.0010 -0.4304
26766SOL     OW86133   0.341   2.374   1.516 -0.0709  0.3055 -0.0607
26766SOL    HW186134   0.293   2.351   1.436  1.2963 -0.8168 -0.5980
26766SOL    HW286135   0.333   2.469   1.522 -1.8427  0.2134 -0.4324
26767SOL     OW86136   4.486  10.750   3.623  0.1157  0.1325  1.0555
26767SOL    HW186137   4.404  10.798   3.612  0.2304  0.4072  1.3781
26767SOL    HW286138   4.460  10.658   3.624 -0.2351  0.2316  1.5554
26768SOL     OW86139  10.548   1.587   4.887  0.3616 -0.3936  0.0168
26768SOL    HW186140  10.511   1.499   4.886  1.3104 -0.8119 -1.2947
26768SOL    HW286141  10.591   1.594   4.972 -0.0044 -1.0705  0.2659
26769SOL     OW86142   9.705   5.909   4.913 -0.8302  0.7413  0.7626
26769SOL    HW186143   9.670   5.820   4.904  1.1625 -0.1102  0.8162
26769SOL    HW286144   9.725   5.918   5.006 -0.8740  1.1788  0.7327
26770SOL     OW86145   7.729   1.842   0.437  0.5919  0.1507  0.6598
26770SOL    HW186146   7.781   1.777   0.484  2.2254  0.6824 -0.3118
26770SOL    HW286147   7.734   1.921   0.491 -0.0502 -0.0789  1.0568
26771SOL     OW86148   7.676   1.682   0.200  0.8447 -0.2174  0.5472
26771SOL    HW186149   7.659   1.747   0.269  0.0952  0.3709 -0.1622
26771SOL    HW286150   7.624   1.606   0.225 -1.2406  0.7954 -0.4789
26772SOL     OW86151   4.084   9.863   4.926  0.1381  0.1582 -0.0107
26772SOL    HW186152   4.087   9.958   4.915  0.8243  0.1145 -0.2041
26772SOL    HW286153   4.170   9.839   4.961  1.2724 -0.7665 -3.1168
26773SOL     OW86154   9.046   5.129   7.644 -0.3144 -0.4843  0.0670
26773SOL    HW186155   8.981   5.164   7.583 -0.1957  0.0789  0.2594
26773SOL    HW286156   9.050   5.035   7.623 -1.3283 -0.5693  0.1756
26774SOL     OW86157   5.526   8.150   8.950  0.1080 -0.4604 -0.0587
26774SOL    HW186158   5.607   8.102   8.965 -0.4166 -1.1375  0.7269
26774SOL    HW286159   5.526   8.219   9.016  0.6221  0.3307 -0.8642
26775SOL     OW86160   2.669   4.761  10.798  0.0942  0.0422 -0.0872
26775SOL    HW186161   2.677   4.838  10.854  1.4569  0.5380 -0.9298
26775SOL    HW286162   2.576   4.736  10.805  0.0852  0.4247  1.9044
26776SOL     OW86163   1.168   0.251   6.885  0.5851  0.6858  0.6041
26776SOL    HW186164   1.150   0.320   6.821 -3.4776 -0.3221  0.4069
26776SOL    HW286165   1.213   0.183   6.834  0.3872  1.2394 -0.3345
26777SOL     OW86166   1.560   0.705   2.912 -0.3758  0.2903  0.7798
26777SOL    HW186167   1.521   0.676   2.830  1.1183 -2.3182  0.8897
26777SOL    HW286168   1.488   0.705   2.975 -0.6072 -3.0301  0.6676
26778SOL     OW86169   5.417   1.084   2.402 -0.5778  0.6000  0.2346
26778SOL    HW186170   5.502   1.094   2.361  0.0921  2.8862  1.9540
26778SOL    HW286171   5.357   1.136   2.348 -0.5315  0.3826 -0.0266
26779SOL     OW86172   7.283   4.715  10.884 -0.6644 -0.2691 -0.1232
26779SOL    HW186173   7.348   4.764  10.833 -2.7617  0.7435 -2.0049
26779SOL    HW286174   7.327   4.695  10.966  1.8145  0.8511 -1.0790
26780SOL     OW86175  10.688   7.314   7.851 -0.2868 -0.3356  0.4354
26780SOL    HW186176  10.682   7.387   7.789  0.8806  0.3296  1.0806
26780SOL    HW286177  10.653   7.239   7.802 -0.9426  0.5133 -0.4425
26781SOL     OW86178   2.771   4.802   7.792 -0.2109 -0.1617  0.5081
26781SOL    HW186179   2.733   4.888   7.772 -0.9809 -0.4420  0.7110
26781SOL    HW286180   2.829   4.784   7.719 -1.2998 -0.1995 -0.3762
26782SOL     OW86181   8.540  10.618  10.430 -0.4506  0.1113 -0.4870
26782SOL    HW186182   8.572  10.668  10.356 -0.3138  2.3237  0.9837
26782SOL    HW286183   8.581  10.658  10.506 -0.1398 -2.4249  0.8010
26783SOL     OW86184   3.069   8.490   8.046  0.2779 -0.6557 -0.6356
26783SOL    HW186185   3.109   8.434   7.980 -0.2714 -0.3321 -1.2542
26783SOL    HW286186   3.012   8.433   8.096  0.2767 -0.7927 -0.7936
26784SOL     OW86187   4.861   0.816   8.419  0.1751 -0.1325 -0.4378
26784SOL    HW186188   4.926   0.748   8.399 -1.3299 -1.4523 -1.0415
26784SOL    HW286189   4.796   0.809   8.349 -1.1066  0.4927  0.6414
26785SOL     OW86190   8.366   4.214   9.737 -0.4852 -0.0390  0.0669
26785SOL    HW186191   8.289   4.183   9.690  1.0433 -1.6683 -1.4726
26785SOL    HW286192   8.365   4.309   9.723 -1.1583 -0.2563 -1.5855
26786SOL     OW86193   5.133   9.679   3.087 -0.4474 -0.3548 -0.2088
26786SOL    HW186194   5.154   9.636   3.169 -0.4921  0.1223  0.0581
26786SOL    HW286195   5.097   9.610   3.032 -0.9078 -0.5731  0.3591
26787SOL     OW86196   2.577   7.335   2.253  0.0299  0.1959  0.4752
26787SOL    HW186197   2.651   7.395   2.256 -0.7091  1.0906  1.4605
26787SOL    HW286198   2.589   7.278   2.329 -1.1350  1.4290  1.6490
26788SOL     OW86199  10.920   8.672   4.925  0.0800 -0.1432  0.0834
26788SOL    HW186200  10.890   8.748   4.975 -0.4574 -0.6705  0.5688
26788SOL    HW286201  10.851   8.607   4.936  1.8229 -1.7976  2.1851
26789SOL     OW86202   3.922  10.851   3.404  0.0222  0.4290 -0.1812
26789SOL    HW186203   3.926  10.937   3.446  0.0236 -0.1684  1.0986
26789SOL    HW286204   3.858  10.802   3.456  0.2263 -0.4332 -0.7161
26790SOL     OW86205   7.906   1.273   7.986  0.0384 -0.0926 -0.0738
26790SOL    HW186206   7.970   1.204   8.001 -0.3381 -0.7391 -1.3377
26790SOL    HW286207   7.866   1.287   8.072  2.1230  0.6287  0.8391
26791SOL     OW86208  10.271   5.908   6.860  0.2044  0.0185 -0.1228
26791SOL    HW186209  10.346   5.850   6.875 -1.0238 -1.5462  0.2707
26791SOL    HW286210  10.203   5.875   6.919 -0.1950  2.6677  1.0644
26792SOL     OW86211   4.747   9.512   9.785  0.6701  0.4626 -0.1600
26792SOL    HW186212   4.824   9.503   9.842 -0.1285  1.9241  1.2474
26792SOL    HW286213   4.747   9.605   9.761 -0.9934  0.6374  0.4004
26793SOL     OW86214   4.709   2.758   8.959 -0.2007  0.1156 -0.0254
26793SOL    HW186215   4.644   2.823   8.933 -0.3075  0.8461  1.9157
26793SOL    HW286216   4.694   2.685   8.899 -0.3969  1.6443 -1.9413
26794SOL     OW86217   5.605   7.299   8.034 -0.6226 -0.1742 -0.2259
26794SOL    HW186218   5.531   7.357   8.013 -0.3409  0.7449  1.2048
26794SOL    HW286219   5.570   7.237   8.097  0.0614  0.9460  1.3097
26795SOL     OW86220   1.681   6.668   0.666 -0.2278  0.0008 -0.8062
26795SOL    HW186221   1.736   6.594   0.692 -0.6992 -0.3348 -0.7710
26795SOL    HW286222   1.722   6.744   0.708 -0.6099 -0.4403  0.3967
26796SOL     OW86223   6.624   7.817   8.326  0.2077 -0.7257 -0.0984
26796SOL    HW186224   6.565   7.855   8.391  2.0631  1.2007  0.5966
26796SOL    HW286225   6.566   7.781   8.259 -1.7460  0.5688  0.7960
26797SOL     OW86226   0.706  10.175   8.685 -0.2068 -0.0807 -0.1566
26797SOL    HW186227   0.791  10.208   8.656  0.1595 -0.9026 -0.0387
26797SOL    HW286228   0.671  10.244   8.741 -0.5261  1.1488 -1.7846
26798SOL     OW86229   4.429   2.204  10.246  0.1354 -0.3910  0.1709
26798SOL    HW186230   4.505   2.149  10.263  0.3185 -0.1402  0.1651
26798SOL    HW286231   4.430   2.269  10.316 -1.3743 -1.7462  1.5244
26799SOL     OW86232   0.028   4.245   6.072  0.0539  0.3741  0.4974
26799SOL    HW186233   0.109   4.273   6.114  0.1013  0.1113  0.5769
26799SOL    HW286234   0.015   4.309   6.001  0.7802 -0.0692 -0.0554
26800SOL     OW86235  10.555   3.417   8.836 -0.4243 -0.0398 -0.4110
26800SOL    HW186236  10.483   3.354   8.825 -1.7030  1.5779 -1.7922
26800SOL    HW286237  10.512   3.498   8.862  1.2976  0.0581  2.6778
26801SOL     OW86238   6.498   4.129   8.648 -0.1529 -0.1020 -0.0585
26801SOL    HW186239   6.407   4.106   8.671  0.5635 -0.9325  2.2327
26801SOL    HW286240   6.536   4.046   8.617 -0.3885  0.4476 -1.9014
26802SOL     OW86241   5.388   9.364   5.261 -0.2584 -0.0001  0.0752
26802SOL    HW186242   5.300   9.343   5.229 -2.0528  0.2519  4.1875
26802SOL    HW286243   5.385   9.458   5.279  1.6613  0.4515 -1.6094
26803SOL     OW86244   9.387   0.128   5.731 -0.3673 -0.1190 -0.4338
26803SOL    HW186245   9.375   0.221   5.751 -0.2845  0.3106 -2.2752
26803SOL    HW286246   9.345   0.116   5.646 -0.4636 -1.8023 -0.1740
26804SOL     OW86247   7.027   7.288   6.653  0.0148  0.1351  0.2193
26804SOL    HW186248   7.018   7.200   6.690  1.2883  0.3143  1.0380
26804SOL    HW286249   7.039   7.273   6.559  2.1908 -0.7354  0.5785
26805SOL     OW86250   4.881   4.317   7.982  0.6036 -0.0446 -0.2277
26805SOL    HW186251   4.798   4.363   7.973  0.6286  0.4349  1.6181
26805SOL    HW286252   4.878   4.277   8.068  2.5463  0.5641  0.1869
26806SOL     OW86253   6.581   3.271   7.274  0.0115 -0.3945 -0.2685
26806SOL    HW186254   6.637   3.285   7.198  2.0782 -0.7044  1.1103
26806SOL    HW286255   6.632   3.304   7.348 -2.9375  2.2996  0.8000
26807SOL     OW86256   8.027   2.865   5.291  0.2004  0.7138  0.0059
26807SOL    HW186257   7.986   2.923   5.228  0.8155  0.1724 -0.9171
26807SOL    HW286258   8.001   2.900   5.376 -0.1303  1.8247 -0.5315
26808SOL     OW86259   6.578  10.226   5.558  0.4078 -0.0429 -0.0043
26808SOL    HW186260   6.607  10.168   5.629 -0.3950 -1.0130 -0.4566
26808SOL    HW286261   6.592  10.176   5.478  1.0329  0.9403 -0.5268
26809SOL     OW86262   1.830   9.081   2.071  0.1670  0.7175 -0.1303
26809SOL    HW186263   1.760   9.023   2.041 -0.5646 -0.3154  3.1891
26809SOL    HW286264   1.910   9.041   2.038 -0.5988  0.3395 -1.6169
26810SOL     OW86265   2.119   1.933   0.187  0.3484 -0.1390 -0.0035
26810SOL    HW186266   2.209   1.903   0.176  0.3675 -0.5459  1.2078
26810SOL    HW286267   2.067   1.852   0.189  0.1231  0.0180  0.7638
26811SOL     OW86268   9.829   3.712   6.703 -0.1598  0.0320 -0.3718
26811SOL    HW186269   9.842   3.755   6.787 -0.9852 -1.0354  0.3322
26811SOL    HW286270   9.890   3.755   6.644  0.4521  0.7844  0.7783
26812SOL     OW86271   6.381   8.949   6.579 -0.0368  0.3761 -0.0870
26812SOL    HW186272   6.360   9.033   6.539 -2.6150  0.0684  0.4446
26812SOL    HW286273   6.401   8.969   6.670  1.0524  0.5580 -0.3501
26813SOL     OW86274   8.544   4.736   0.346 -0.1322  0.3819 -0.3028
26813SOL    HW186275   8.633   4.756   0.316 -0.7372  0.2419 -2.3545
26813SOL    HW286276   8.555   4.661   0.404  1.4151  2.4058  2.2438
26814SOL     OW86277   0.566   9.423   5.163  0.7131 -0.7449  0.4708
26814SOL    HW186278   0.560   9.336   5.125 -2.2498 -0.6982  0.6115
26814SOL    HW286279   0.596   9.408   5.253  0.9048 -1.5401  0.2781
26815SOL     OW86280   1.249   1.022  10.069  0.0805 -0.1446 -0.3735
26815SOL    HW186281   1.281   1.084  10.135  2.2030 -1.7068  0.2008
26815SOL    HW286282   1.279   1.058   9.985 -1.0536  0.9269 -0.3453
26816SOL     OW86283   7.475   2.936   1.471  0.1652 -0.3341 -0.3480
26816SOL    HW186284   7.527   2.978   1.539  0.2703 -1.6984  0.4547
26816SOL    HW286285   7.453   3.006   1.410  0.2650  0.8714  0.9665
26817SOL     OW86286   1.562   4.429   7.702 -0.2771 -0.1062  0.4879
26817SOL    HW186287   1.650   4.401   7.675 -0.1213  0.1048  0.7694
26817SOL    HW286288   1.568   4.438   7.797 -0.4060  0.5871  0.4368
26818SOL     OW86289  10.098   3.649   5.043 -0.0717 -0.4455 -0.0551
26818SOL    HW186290  10.042   3.614   4.974 -0.4297 -0.7381  0.3845
26818SOL    HW286291  10.129   3.733   5.008 -0.8941 -0.2101 -0.2406
26819SOL     OW86292  10.676  10.740   8.961 -0.2846 -0.4740  0.6755
26819SOL    HW186293  10.750  10.751   9.021  0.7734 -3.8630  0.2243
26819SOL    HW286294  10.601  10.779   9.007  1.3078  0.9137  2.2047
26820SOL     OW86295   2.799   5.085   6.485 -0.5332 -0.6036 -0.9562
26820SOL    HW186296   2.833   5.088   6.575  1.0838 -1.6769 -1.4809
26820SOL    HW286297   2.759   5.171   6.471 -0.7060 -0.3777  0.7362
26821SOL     OW86298   9.403   3.208   8.965  1.0390  0.0218 -0.2012
26821SOL    HW186299   9.486   3.246   8.938  1.3353  0.4693  1.2554
26821SOL    HW286300   9.337   3.273   8.942  1.3730  0.7473  0.8198
26822SOL     OW86301   6.790   4.039   5.065 -0.3645  0.1540 -0.5391
26822SOL    HW186302   6.732   3.986   5.011  0.0175  1.9380 -2.8501
26822SOL    HW286303   6.819   4.110   5.007  1.1546  1.4353  1.6387
26823SOL     OW86304   3.586   5.554   5.717 -0.0506  0.1803 -0.1300
26823SOL    HW186305   3.522   5.519   5.779 -0.3868  1.7109  0.4267
26823SOL    HW286306   3.621   5.632   5.760  0.9188  0.3378 -1.1726
26824SOL     OW86307   1.663   6.942   1.374 -0.0640 -0.0370  0.2779
26824SOL    HW186308   1.713   6.884   1.316 -1.3256 -1.4527  0.5183
26824SOL    HW286309   1.725   7.010   1.400  1.9158 -1.9991  1.0195
26825SOL     OW86310   3.523   3.155   3.794  0.2754 -0.3882 -0.3232
26825SOL    HW186311   3.531   3.249   3.808  0.7378 -0.5787  0.8348
26825SOL    HW286312   3.560   3.116   3.874  0.5058 -1.5525 -0.9758
26826SOL     OW86313   5.056   3.031   0.656  0.0546 -0.2968  0.1674
26826SOL    HW186314   5.080   3.082   0.733 -2.3695 -2.7036  2.7539
26826SOL    HW286315   5.133   2.978   0.636  0.4265 -0.2912  1.5534
26827SOL     OW86316   5.000   6.006   2.177  0.1898  0.0605 -0.3493
26827SOL    HW186317   5.090   5.973   2.177 -0.1834 -1.0099  0.2317
26827SOL    HW286318   4.949   5.939   2.132 -0.5449 -0.0358  0.5744
26828SOL     OW86319   9.936   8.135   4.596  0.0818 -0.5680 -0.7556
26828SOL    HW186320   9.927   8.196   4.669  0.9845 -0.2028 -0.9317
26828SOL    HW286321   9.884   8.174   4.526  0.0845 -0.3647 -0.6453
26829SOL     OW86322   8.973   8.100  10.328  0.4040  0.4455 -0.0819
26829SOL    HW186323   8.930   8.059  10.403 -0.7731 -0.1155 -1.0284
26829SOL    HW286324   9.048   8.044  10.310 -0.9503 -1.1396 -1.1074
26830SOL     OW86325   2.411  10.247   0.779  0.1992  0.1202  0.3966
26830SOL    HW186326   2.452  10.245   0.865 -0.4813  0.1920  0.7307
26830SOL    HW286327   2.355  10.169   0.778 -0.0009  0.2670  0.1189
26831SOL     OW86328   3.782  10.660   8.598  0.1005 -0.5756 -0.1593
26831SOL    HW186329   3.761  10.586   8.655  0.6193 -2.2127 -1.9827
26831SOL    HW286330   3.762  10.629   8.510  0.0784  1.5846 -0.9768
26832SOL     OW86331  10.337   0.091   1.924  0.4578 -0.2066 -0.1173
26832SOL    HW186332  10.309   0.017   1.977 -0.8225  0.7568  0.6140
26832SOL    HW286333  10.423   0.114   1.959  0.1274 -0.3026  0.7898
26833SOL     OW86334   1.394   4.194   3.535  1.1294  0.2137  0.0178
26833SOL    HW186335   1.445   4.191   3.616 -1.2021  2.1113  1.7290
26833SOL    HW286336   1.304   4.175   3.563  0.2768  0.7185 -2.1693
26834SOL     OW86337   2.356   9.193   9.568 -0.1628  0.7692 -0.0256
26834SOL    HW186338   2.371   9.207   9.661 -0.3396 -1.7905  0.4670
26834SOL    HW286339   2.414   9.255   9.524  0.0990  1.8576  1.7743
26835SOL     OW86340   1.352   1.668   9.406 -0.1070  0.1881  0.2945
26835SOL    HW186341   1.258   1.681   9.397  0.0897  2.1999  0.8038
26835SOL    HW286342   1.367   1.579   9.373 -2.6456 -1.6414  3.4916
26836SOL     OW86343   1.720   3.777   5.296  0.3916 -0.5111 -0.8214
26836SOL    HW186344   1.635   3.734   5.289 -0.4668  0.8005  0.8878
26836SOL    HW286345   1.710   3.860   5.249  0.2917  0.2160  0.4430
26837SOL     OW86346   7.463  10.421   9.703  0.3098  0.1741  0.4188
26837SOL    HW186347   7.459  10.432   9.608  3.1977  1.8385  0.3705
26837SOL    HW286348   7.402  10.487   9.737 -0.2534  0.0109 -0.2580
26838SOL     OW86349   2.456   4.185   4.445 -0.0528  0.8501  0.1148
26838SOL    HW186350   2.485   4.150   4.529 -0.0417 -1.5087 -0.8035
26838SOL    HW286351   2.504   4.134   4.379 -2.7182  0.0917 -1.3876
26839SOL     OW86352   3.151   6.861   8.720  0.2510 -0.4395  0.6225
26839SOL    HW186353   3.245   6.857   8.699  0.2981 -0.1883  0.7943
26839SOL    HW286354   3.134   6.779   8.766  0.8871  0.5159  2.6859
26840SOL     OW86355   4.378   1.415   3.338  0.2847 -0.7440 -0.5611
26840SOL    HW186356   4.384   1.501   3.378 -0.5487 -0.4877 -0.9644
26840SOL    HW286357   4.287   1.387   3.353  0.8569 -2.0853  0.6196
26841SOL     OW86358   2.475   8.999   5.420  0.3669  0.1875  0.3188
26841SOL    HW186359   2.386   8.965   5.426 -0.0656  1.3535  0.7682
26841SOL    HW286360   2.530   8.921   5.408 -0.8068 -0.4581 -1.1727
26842SOL     OW86361   8.139   1.301  10.446 -0.1666  0.1776  0.0724
26842SOL    HW186362   8.211   1.341  10.397  0.8910 -1.1952  0.4484
26842SOL    HW286363   8.069   1.290  10.381  0.2793  0.6964 -0.5144
26843SOL     OW86364   8.517   8.721   5.062 -0.5491  0.2902  0.0682
26843SOL    HW186365   8.596   8.771   5.082 -0.2066  0.6172 -1.8796
26843SOL    HW286366   8.461   8.783   5.015 -1.4538 -0.3037  0.3248
26844SOL     OW86367   5.706   7.011   1.879 -0.1961  0.2881 -0.2435
26844SOL    HW186368   5.715   6.988   1.972  0.1490 -1.8699 -0.7478
26844SOL    HW286369   5.795   7.006   1.844 -0.3421  0.9397 -0.7308
26845SOL     OW86370   8.702   8.590   6.561 -0.3473  0.0907 -0.1429
26845SOL    HW186371   8.680   8.547   6.478 -0.4748  0.9880 -0.5910
26845SOL    HW286372   8.796   8.576   6.571 -0.3826 -0.2676 -0.2979
26846SOL     OW86373   2.290   2.267   1.554  0.4190 -0.4182 -0.1397
26846SOL    HW186374   2.214   2.239   1.503  0.6246 -1.8848  0.3155
26846SOL    HW286375   2.289   2.211   1.632 -1.2584  3.2448  2.8190
26847SOL     OW86376   3.429   9.264   4.391 -1.0129 -0.4947  0.0488
26847SOL    HW186377   3.400   9.172   4.385  0.8285 -1.1076  0.0443
26847SOL    HW286378   3.497   9.271   4.324  0.0969  0.3973  1.2494
26848SOL     OW86379   8.452   7.631   8.173  0.2979 -0.0446 -0.0279
26848SOL    HW186380   8.375   7.685   8.151  1.3324  1.4687 -0.0915
26848SOL    HW286381   8.456   7.566   8.103  0.0101  0.8962 -0.9492
26849SOL     OW86382   3.980   7.690   6.011  0.5041  0.0034 -0.1499
26849SOL    HW186383   4.014   7.752   6.075  0.3624  1.1017 -1.1200
26849SOL    HW286384   3.999   7.730   5.926 -1.6495 -0.1749 -0.7580
26850SOL     OW86385   4.179   4.279   8.871 -0.2498  0.0537  0.7322
26850SOL    HW186386   4.189   4.340   8.798  0.4389  0.5178  1.1980
26850SOL    HW286387   4.263   4.283   8.918 -0.8920  0.2491  1.9147
26851SOL     OW86388   1.464   0.332   6.882 -0.1683  0.4237  0.8815
26851SOL    HW186389   1.443   0.401   6.819 -1.0204  0.4939  1.2242
26851SOL    HW286390   1.497   0.379   6.959  0.7155  0.3486  0.5515
26852SOL     OW86391   6.340   8.001   9.711  0.9248 -0.6325  0.2158
26852SOL    HW186392   6.256   8.011   9.665  1.3740 -0.3044 -0.5597
26852SOL    HW286393   6.321   8.024   9.802  0.7031  2.0460 -0.4100
26853SOL     OW86394   5.450   7.339   0.961  0.8303  0.1931 -0.1272
26853SOL    HW186395   5.386   7.328   0.890  0.5932 -0.1114  0.1322
26853SOL    HW286396   5.533   7.356   0.915  0.8801 -0.9762 -0.5254
26854SOL     OW86397   5.265   5.822   3.673 -0.4157  0.1711  0.1677
26854SOL    HW186398   5.199   5.891   3.683 -1.3975 -0.6972 -0.1075
26854SOL    HW286399   5.233   5.770   3.599  0.3731 -0.5014  0.2954
26855SOL     OW86400   4.702   8.865   9.994  0.2088 -0.6582  0.2090
26855SOL    HW186401   4.783   8.902   9.958 -0.9729  2.2738  0.2306
26855SOL    HW286402   4.709   8.881  10.088  0.0006 -1.2541  0.3246
26856SOL     OW86403   2.625   9.555  10.609  0.2230 -0.1561 -0.1723
26856SOL    HW186404   2.699   9.573  10.551  0.7970 -0.4031  0.4839
26856SOL    HW286405   2.631   9.462  10.628  0.9660  0.2064  1.5334
26857SOL     OW86406   2.206   4.826   8.982  0.3923  0.0185  0.1331
26857SOL    HW186407   2.112   4.822   9.000  0.4677 -0.9287  0.3767
26857SOL    HW286408   2.232   4.735   8.966  0.9770  0.4451 -1.5046
26858SOL     OW86409   9.728  10.234   9.778 -0.7115  0.0796 -0.5135
26858SOL    HW186410   9.806  10.211   9.828  0.7280  2.5635 -1.3877
26858SOL    HW286411   9.729  10.175   9.703 -0.9853 -1.3957  0.5953
26859SOL     OW86412   0.951   5.763   7.328  0.1338  0.1274 -0.7506
26859SOL    HW186413   0.954   5.842   7.382 -1.3921 -0.5532  0.4033
26859SOL    HW286414   0.905   5.699   7.382  4.1103 -2.6783 -0.2664
26860SOL     OW86415   8.604   9.414   8.885  0.0239  0.1619 -0.2127
26860SOL    HW186416   8.579   9.456   8.967  2.4439  0.9856  0.1823
26860SOL    HW286417   8.644   9.331   8.911 -1.3003 -0.6828 -0.7588
26861SOL     OW86418   9.910   4.522   8.498  0.3280  0.9162  0.3891
26861SOL    HW186419   9.839   4.572   8.459 -0.0813  2.0841  2.4755
26861SOL    HW286420   9.955   4.584   8.556  2.7960  0.0902 -0.4949
26862SOL     OW86421   0.966   8.744   1.421  0.6439  0.1007  0.0379
26862SOL    HW186422   1.027   8.790   1.363  1.5151 -0.7517  0.2320
26862SOL    HW286423   0.909   8.695   1.362  0.3378  0.6831 -0.1443
26863SOL     OW86424   5.483   2.885   8.351 -0.4746  0.1465  0.2905
26863SOL    HW186425   5.522   2.973   8.353 -0.6730  0.2205  1.9103
26863SOL    HW286426   5.395   2.899   8.315 -0.9637  0.8366  1.6830
26864SOL     OW86427  10.067   5.528   4.982  0.5229 -0.8293 -0.6320
26864SOL    HW186428  10.064   5.528   4.886  0.0720 -0.4032 -0.6235
26864SOL    HW286429  10.160   5.526   5.003  0.9912  3.9059 -1.1459
26865SOL     OW86430   6.780  10.195   9.293 -0.2610  0.3819  0.2310
26865SOL    HW186431   6.693  10.204   9.255 -0.2826  1.1371  0.4461
26865SOL    HW286432   6.782  10.105   9.328 -1.0206  0.4204  0.3874
26866SOL     OW86433   3.626   4.832   8.410  0.4641  0.2822 -0.1127
26866SOL    HW186434   3.555   4.781   8.449  0.7235  0.2207  0.2792
26866SOL    HW286435   3.704   4.777   8.421  0.1031 -1.1077 -3.2891
26867SOL     OW86436   0.583   1.968   0.788  0.0719  0.9363  0.0783
26867SOL    HW186437   0.650   1.998   0.848  0.1421  1.7355 -0.3895
26867SOL    HW286438   0.521   1.919   0.843  1.9341 -1.3997  0.2630
26868SOL     OW86439   6.353   3.901   3.964  0.0637 -0.0283 -0.2056
26868SOL    HW186440   6.417   3.834   3.990 -1.8978 -1.4854  1.1324
26868SOL    HW286441   6.362   3.907   3.869 -0.5083 -3.1298 -0.5561
26869SOL     OW86442   4.264   4.693   6.737 -0.2475  0.2085 -0.4769
26869SOL    HW186443   4.230   4.690   6.826  0.8625  2.7607  0.1262
26869SOL    HW286444   4.356   4.670   6.745  0.9991  4.4589 -0.1142
26870SOL     OW86445   2.821   0.817   6.700  0.2203 -0.0572 -0.3619
26870SOL    HW186446   2.870   0.892   6.666  2.6908 -1.2844  0.2750
26870SOL    HW286447   2.829   0.751   6.631 -2.9893  0.5651 -1.4742
26871SOL     OW86448   5.058   9.592   5.876 -0.1292 -0.0091  0.1953
26871SOL    HW186449   5.144   9.572   5.837 -0.6977  0.7998 -1.6198
26871SOL    HW286450   5.013   9.508   5.879  0.5073 -0.3473  0.6137
26872SOL     OW86451   1.549   5.893   4.215  0.7223 -0.4548 -0.0412
26872SOL    HW186452   1.481   5.897   4.283  2.1229 -0.9359  1.4422
26872SOL    HW286453   1.563   5.984   4.189 -1.2457 -0.4224 -1.2130
26873SOL     OW86454   6.889   3.748   3.557  0.1499  0.0063  0.4537
26873SOL    HW186455   6.936   3.801   3.493 -0.6714  0.6121  0.3218
26873SOL    HW286456   6.905   3.658   3.530  1.7219  0.1628  0.7869
26874SOL     OW86457  10.827   9.915   5.442 -0.3956  0.4958  0.0650
26874SOL    HW186458  10.762   9.865   5.392  0.9271 -0.6657 -0.5747
26874SOL    HW286459  10.881   9.959   5.376 -0.7763  1.8037  0.5977
26875SOL     OW86460  10.421   8.775   0.658  1.0651 -0.2079 -0.0307
26875SOL    HW186461  10.351   8.807   0.714  0.8321 -0.6259 -0.0800
26875SOL    HW286462  10.498   8.773   0.714  1.0862  0.4506 -0.0327
26876SOL     OW86463  10.700   2.036   4.986  0.3938 -0.4415 -0.6593
26876SOL    HW186464  10.732   1.977   4.918 -0.4805 -1.1478 -0.4740
26876SOL    HW286465  10.606   2.044   4.969  0.1512 -0.6478  0.4661
26877SOL     OW86466   4.255   7.060   6.565 -0.0355  0.2675 -0.0130
26877SOL    HW186467   4.159   7.063   6.559 -0.1628  1.7047  1.9923
26877SOL    HW286468   4.281   7.152   6.566  0.9899  0.0841  3.6349
26878SOL     OW86469   6.288   2.839   6.558 -0.1434  0.1857  0.0920
26878SOL    HW186470   6.379   2.808   6.555 -0.1286  0.2607 -0.4910
26878SOL    HW286471   6.239   2.773   6.510 -0.6602 -0.6570  1.7104
26879SOL     OW86472   4.567   1.600   2.999 -0.2110 -0.1577  0.1110
26879SOL    HW186473   4.637   1.542   2.967 -0.3342 -0.2018 -0.0734
26879SOL    HW286474   4.607   1.687   3.001  0.3712 -0.4291  1.5684
26880SOL     OW86475   2.263   5.329   7.473  0.1526  0.3196  0.3988
26880SOL    HW186476   2.318   5.333   7.395  1.2791 -0.7291  1.1091
26880SOL    HW286477   2.186   5.279   7.445  0.0372  0.8837 -0.3188
26881SOL     OW86478   2.044   7.673   3.510  0.3504 -0.6971  0.2184
26881SOL    HW186479   2.082   7.710   3.589 -1.9252 -0.7726  1.3924
26881SOL    HW286480   2.021   7.583   3.534 -0.6839 -0.6112 -0.4179
26882SOL     OW86481   8.697   0.423   8.729  0.8452 -0.2442 -0.2911
26882SOL    HW186482   8.604   0.403   8.718 -0.3977  2.7147  2.9073
26882SOL    HW286483   8.712   0.415   8.823  3.1463  1.7007 -0.3918
26883SOL     OW86484  10.385   3.586   0.145 -0.1301  0.3048 -0.0026
26883SOL    HW186485  10.346   3.625   0.066 -0.2908 -0.7652 -0.4629
26883SOL    HW286486  10.476   3.572   0.122  0.1812  1.3326  0.5264
26884SOL     OW86487   4.986  10.604   5.625 -0.1165  0.6705 -0.2392
26884SOL    HW186488   4.965  10.534   5.687 -0.2701  0.9844  0.0642
26884SOL    HW286489   5.082  10.610   5.629 -0.1968  1.5210  0.8949
26885SOL     OW86490   8.302   5.226   8.159  0.6814 -0.1867  0.2092
26885SOL    HW186491   8.307   5.133   8.178  0.3144  0.0886  1.7892
26885SOL    HW286492   8.277   5.267   8.243 -0.4195  1.1906 -0.7315
26886SOL     OW86493   1.875   9.661   4.178  0.2844  0.3366  0.1195
26886SOL    HW186494   1.857   9.581   4.227 -0.7803  1.4444  1.6116
26886SOL    HW286495   1.876   9.633   4.086 -0.8205 -1.2562  0.5563
26887SOL     OW86496   3.332   9.522   1.301  0.0578  0.1916 -0.2608
26887SOL    HW186497   3.316   9.613   1.275  0.2154  0.3114  0.0542
26887SOL    HW286498   3.280   9.510   1.380  0.7957  0.3026  0.2486
26888SOL     OW86499   8.714   0.342   8.135  0.3480  0.8327 -0.5276
26888SOL    HW186500   8.644   0.406   8.124  0.6623  1.1774 -0.5489
26888SOL    HW286501   8.707   0.286   8.058 -1.3792 -0.5911  0.6061
26889SOL     OW86502   0.649   9.909   9.281 -0.7770 -0.2111  0.0057
26889SOL    HW186503   0.641   9.980   9.218 -0.5488  0.2916  0.5381
26889SOL    HW286504   0.609   9.834   9.238  1.7570 -0.6149 -1.8918
26890SOL     OW86505   2.056   4.128   5.668  0.5316 -0.3502 -0.3778
26890SOL    HW186506   2.055   4.034   5.683  0.6894 -0.5103 -1.2738
26890SOL    HW286507   2.103   4.138   5.585 -1.7391  0.2973 -1.6611
26891SOL     OW86508   4.723   4.901  10.436 -0.1846 -0.4681  0.4435
26891SOL    HW186509   4.716   4.944  10.522  0.7179 -1.9438  1.2987
26891SOL    HW286510   4.677   4.818  10.447 -1.0451 -0.1984 -0.8835
26892SOL     OW86511   3.201   3.027   1.463 -0.3795 -0.1815  0.0012
26892SOL    HW186512   3.170   3.108   1.504  0.0201  0.2672 -0.5568
26892SOL    HW286513   3.123   2.989   1.424 -0.4161  0.4469 -0.5656
26893SOL     OW86514   4.834   2.232   4.996 -0.0180 -0.2540  0.8518
26893SOL    HW186515   4.808   2.156   4.945  1.1002 -0.0871 -0.0145
26893SOL    HW286516   4.881   2.288   4.933  1.2844  0.0238  2.0264
26894SOL     OW86517   2.918   3.329   6.657 -0.2387 -0.2400  0.7952
26894SOL    HW186518   2.933   3.300   6.747 -0.1330 -3.0664 -0.0498
26894SOL    HW286519   2.833   3.373   6.659  0.5622  1.3413  2.5569
26895SOL     OW86520   2.648   3.198   3.902  0.7060  0.2772  0.4320
26895SOL    HW186521   2.646   3.257   3.827  1.0654 -1.0330 -0.6530
26895SOL    HW286522   2.714   3.133   3.879 -0.2551 -1.0180  1.1910
26896SOL     OW86523   3.573   7.828   2.573 -0.1807  0.0074  0.1840
26896SOL    HW186524   3.556   7.782   2.655  1.0323 -1.8429 -0.5424
26896SOL    HW286525   3.620   7.764   2.519 -0.0688  1.5097 -1.5840
26897SOL     OW86526   2.699   4.530   4.408  0.2343 -0.0501  0.1554
26897SOL    HW186527   2.729   4.460   4.466  1.4709  0.3821  0.0758
26897SOL    HW286528   2.704   4.609   4.462  3.2994  0.6880 -1.0018
26898SOL     OW86529   8.775   5.604   5.419  0.0040  0.1039  0.7592
26898SOL    HW186530   8.716   5.661   5.468 -2.0398 -2.0276  0.9512
26898SOL    HW286531   8.721   5.568   5.348  1.7027 -0.2473 -0.4194
26899SOL     OW86532   0.277   6.128   1.908 -0.2164 -0.3361  0.7735
26899SOL    HW186533   0.282   6.089   1.995 -0.9784  2.2649  2.0946
26899SOL    HW286534   0.368   6.137   1.880  0.0725 -0.6179  1.5941
26900SOL     OW86535   6.121   6.016   5.152 -0.3317  0.0503 -0.2805
26900SOL    HW186536   6.134   5.958   5.078  2.1011  1.3133 -0.9585
26900SOL    HW286537   6.067   6.087   5.117  1.2942  0.9441 -1.0915
26901SOL     OW86538   7.614   9.288  10.310 -0.4387 -0.0896  0.5049
26901SOL    HW186539   7.579   9.357  10.253 -0.3127  1.1004  1.8294
26901SOL    HW286540   7.663   9.334  10.378 -1.7511 -1.3546  2.4180
26902SOL     OW86541   1.143   3.875   0.470  0.0540 -0.4032  0.4400
26902SOL    HW186542   1.180   3.959   0.496  1.0339  0.0069 -1.9925
26902SOL    HW286543   1.052   3.895   0.446  0.7018  0.3729 -1.6212
26903SOL     OW86544   2.444   8.280   6.821  0.0058  0.3968  0.2984
26903SOL    HW186545   2.512   8.263   6.885 -0.0744  1.6069  0.7293
26903SOL    HW286546   2.473   8.360   6.776 -1.2738  1.1313  0.7284
26904SOL     OW86547   8.282  10.187   5.332 -0.0943  0.3043 -0.2958
26904SOL    HW186548   8.361  10.218   5.288  0.7117 -0.8153  0.3151
26904SOL    HW286549   8.284  10.230   5.418  0.2773 -0.3203  0.0150
26905SOL     OW86550   8.347   2.227   1.593  0.3769  0.0868  0.1080
26905SOL    HW186551   8.386   2.314   1.601  2.3689 -0.8572  1.8214
26905SOL    HW286552   8.375   2.195   1.507 -2.5303  2.0001 -1.7257
26906SOL     OW86553   5.660   1.692   8.669  0.5147  0.0674  0.1062
26906SOL    HW186554   5.609   1.688   8.750  1.2141 -0.5252  0.5235
26906SOL    HW286555   5.750   1.709   8.697  0.8157 -0.4493 -0.5257
26907SOL     OW86556   0.111   0.023   0.531  0.8267 -0.9227 -0.0142
26907SOL    HW186557   0.170   0.094   0.555  1.0759 -1.1866  0.1560
26907SOL    HW286558   0.028   0.067   0.508  0.6769 -0.6454  1.0175
26908SOL     OW86559   5.674   9.517   2.602  0.3145 -0.6582  0.0873
26908SOL    HW186560   5.667   9.449   2.535 -0.7417  0.0652 -0.5627
26908SOL    HW286561   5.632   9.593   2.563  2.1439  0.6307  0.4881
26909SOL     OW86562   9.192   4.813   4.636 -0.8677  0.4301  0.3344
26909SOL    HW186563   9.254   4.847   4.572  0.1053  0.1694  1.1125
26909SOL    HW286564   9.116   4.786   4.584  0.0866 -0.2376 -0.7732
26910SOL     OW86565   5.735   7.347   2.734 -0.2138 -0.1457 -0.0982
26910SOL    HW186566   5.657   7.300   2.765  0.6062 -1.2420  0.3846
26910SOL    HW286567   5.750   7.415   2.800 -0.6225 -0.0800 -0.0692
26911SOL     OW86568   1.582  10.658   4.328  0.2894 -0.3434 -0.0004
26911SOL    HW186569   1.647  10.729   4.333  0.5764 -0.4647 -1.5304
26911SOL    HW286570   1.498  10.703   4.334  0.4892 -0.0506  0.6876
26912SOL     OW86571   2.356   4.221   1.878  0.4028 -0.3842 -0.1914
26912SOL    HW186572   2.292   4.156   1.908  2.1957 -1.7527  0.8678
26912SOL    HW286573   2.307   4.276   1.818 -2.3135 -0.1536  1.9991
26913SOL     OW86574   0.178   6.083   1.612  0.3667  0.2139  0.2635
26913SOL    HW186575   0.204   6.121   1.695 -0.7530 -1.5057  1.4546
26913SOL    HW286576   0.082   6.081   1.615  0.3432 -1.3664 -0.3213
26914SOL     OW86577   5.385   3.624   0.665 -0.9207  0.2388  0.5817
26914SOL    HW186578   5.351   3.674   0.739 -1.7614  0.9836 -0.2914
26914SOL    HW286579   5.471   3.594   0.694 -1.0450  0.8984  1.6828
26915SOL     OW86580   2.846   6.969   5.463  0.0278 -0.2491 -0.6878
26915SOL    HW186581   2.822   6.994   5.374  0.9470 -2.3935 -1.6303
26915SOL    HW286582   2.770   6.921   5.496 -1.2800  2.5776  0.6789
26916SOL     OW86583   6.619   1.792   7.754 -0.1055  0.8505 -0.1446
26916SOL    HW186584   6.526   1.796   7.731  0.0740 -0.0380 -1.1112
26916SOL    HW286585   6.655   1.874   7.720 -0.0679  0.0708 -2.1585
26917SOL     OW86586   6.340   6.669   0.099  0.2150  0.3629  0.0605
26917SOL    HW186587   6.356   6.631   0.012  1.5739  0.9661  0.0213
26917SOL    HW286588   6.346   6.764   0.085 -0.8015  0.5169  0.5917
26918SOL     OW86589   1.817   5.927   8.007 -0.1788 -0.9239 -0.1997
26918SOL    HW186590   1.867   5.934   8.089 -0.9338  1.9108  0.1341
26918SOL    HW286591   1.883   5.937   7.938  0.1893 -1.0358  0.1304
26919SOL     OW86592   1.003   4.800  10.062  0.0225  0.2038  0.7146
26919SOL    HW186593   0.976   4.736   9.997  1.7570  0.3365 -0.1763
26919SOL    HW286594   1.045   4.870  10.012 -0.8512  1.5537  1.7606
26920SOL     OW86595  10.820   5.302   7.762 -0.1093  0.1468  0.1543
26920SOL    HW186596  10.844   5.351   7.841 -1.5801 -1.4865  1.7088
26920SOL    HW286597  10.738   5.342   7.733  0.4717  0.8002 -0.6539
26921SOL     OW86598   1.930  10.228   2.997  0.3611  0.5444  0.1694
26921SOL    HW186599   1.958  10.269   3.079  0.1439  0.6883  0.1745
26921SOL    HW286600   1.912  10.302   2.938  0.5687  0.4387 -0.0244
26922SOL     OW86601   5.327   4.851   9.399  0.3083  0.4185 -0.5834
26922SOL    HW186602   5.233   4.849   9.384  0.1762  0.2809  0.2144
26922SOL    HW286603   5.358   4.764   9.374  0.2281  0.4663 -0.8515
26923SOL     OW86604   9.694   0.242   7.611 -0.1604 -0.3779 -0.5164
26923SOL    HW186605   9.677   0.308   7.544 -0.2797  0.0413 -0.0801
26923SOL    HW286606   9.626   0.257   7.677  1.9755  1.5967  1.4737
26924SOL     OW86607   3.364   8.130   3.126  0.4117 -0.0697 -0.0560
26924SOL    HW186608   3.337   8.199   3.188  0.0537 -0.6262  0.4145
26924SOL    HW286609   3.438   8.168   3.079 -0.7414  1.2585 -0.9076
26925SOL     OW86610   6.320   6.463   4.504  0.2996 -0.0487 -0.0644
26925SOL    HW186611   6.246   6.435   4.559  0.2828 -0.8887 -0.4932
26925SOL    HW286612   6.356   6.381   4.470  2.0119  0.2839  0.8698
26926SOL     OW86613   4.443   6.483   1.624  0.6407 -0.8941  0.2328
26926SOL    HW186614   4.350   6.494   1.604  0.9178 -2.2535 -2.1730
26926SOL    HW286615   4.485   6.559   1.584  0.5760 -0.0484  1.6986
26927SOL     OW86616   9.756   1.011  10.033  0.1956 -0.1427  0.7423
26927SOL    HW186617   9.836   1.061  10.044 -0.5085  1.9125 -2.1492
26927SOL    HW286618   9.760   0.980   9.942 -3.0941  1.7967 -0.2271
26928SOL     OW86619   0.524  10.538   7.439 -0.7672 -0.6881  0.3360
26928SOL    HW186620   0.599  10.490   7.405 -0.5538 -0.7971  0.9560
26928SOL    HW286621   0.516  10.510   7.530 -1.2003 -0.2360  0.4434
26929SOL     OW86622   8.495   5.994   2.251 -0.8400 -0.2827  0.3685
26929SOL    HW186623   8.481   5.962   2.162 -1.7262  1.4811 -0.1710
26929SOL    HW286624   8.529   6.083   2.240 -0.0904 -0.3544  1.8089
26930SOL     OW86625   2.122  10.337   8.306  0.3246  0.2227 -0.0366
26930SOL    HW186626   2.027  10.348   8.301  0.2198 -0.1127  0.9560
26930SOL    HW286627   2.151  10.330   8.215 -0.7291 -0.7356 -0.3106
26931SOL     OW86628   8.605   3.036   3.605 -0.8026 -0.1907  0.2177
26931SOL    HW186629   8.625   3.111   3.662  1.9479 -1.0441  0.5081
26931SOL    HW286630   8.581   2.966   3.665 -0.1664 -0.4507  0.1684
26932SOL     OW86631   3.799   5.713   2.924 -0.4518 -0.3545  0.0092
26932SOL    HW186632   3.845   5.724   2.841 -0.9529  0.5338 -0.1676
26932SOL    HW286633   3.827   5.628   2.956  1.2164  0.1089 -0.1434
26933SOL     OW86634   4.868   6.982   8.228 -0.1406  0.0795 -0.1941
26933SOL    HW186635   4.917   7.055   8.266  1.8263 -0.1027 -2.1723
26933SOL    HW286636   4.930   6.940   8.168 -2.0733 -1.5456 -1.1788
26934SOL     OW86637  10.203   2.473  10.047 -0.1310  0.0468  0.3393
26934SOL    HW186638  10.204   2.514  10.133  1.7716  1.0328 -0.0984
26934SOL    HW286639  10.294   2.447  10.031 -0.7038 -1.4602 -0.7685
26935SOL     OW86640   6.715   4.804   6.156  0.1513  0.3252  0.0092
26935SOL    HW186641   6.641   4.785   6.212 -1.4963  0.6922 -1.9035
26935SOL    HW286642   6.787   4.752   6.191 -1.4268 -1.2687  1.0018
26936SOL     OW86643   0.899   9.737   5.251  0.5171 -0.0292 -0.0396
26936SOL    HW186644   0.964   9.778   5.194  1.8085 -1.4752  0.3205
26936SOL    HW286645   0.818   9.736   5.199  1.6496 -1.3150 -1.8909
26937SOL     OW86646   4.626   0.950   9.949  0.3164 -0.3034 -0.3689
26937SOL    HW186647   4.653   0.934  10.039  0.5253  1.5035 -0.0754
26937SOL    HW286648   4.586   1.037   9.951 -1.7052 -1.1290 -1.6012
26938SOL     OW86649   1.329   1.957  10.007  0.0623  0.4736 -0.3646
26938SOL    HW186650   1.280   1.952  10.089  0.9181 -1.7768  0.0738
26938SOL    HW286651   1.420   1.970  10.034  0.3645 -0.3778 -0.9330
26939SOL     OW86652   8.759   5.757   7.698 -0.0125  0.3412 -0.2286
26939SOL    HW186653   8.753   5.816   7.622 -0.2317  0.2340 -0.2952
26939SOL    HW286654   8.839   5.785   7.743  0.6174 -0.1741 -0.9892
26940SOL     OW86655   9.819   3.712   7.531  0.4550 -0.6331  0.2886
26940SOL    HW186656   9.753   3.753   7.586 -0.4617 -1.3508 -0.2486
26940SOL    HW286657   9.780   3.709   7.443  2.1669  1.1407 -0.6152
26941SOL     OW86658   4.733   9.777   9.700 -0.0549 -0.4913 -0.0156
26941SOL    HW186659   4.802   9.836   9.667  0.6305  0.0694  2.2324
26941SOL    HW286660   4.662   9.786   9.636  1.6919 -0.6474 -2.1182
26942SOL     OW86661   2.441   5.855   2.672  0.3521 -0.1385 -0.8804
26942SOL    HW186662   2.403   5.877   2.587 -0.3208 -1.5036 -0.9579
26942SOL    HW286663   2.386   5.783   2.705  0.9919 -0.0585  0.4200
26943SOL     OW86664   3.182   4.663   1.690  0.0997  0.3981 -0.6218
26943SOL    HW186665   3.164   4.748   1.730 -0.8054  0.8029 -1.8105
26943SOL    HW286666   3.120   4.658   1.616 -1.1045 -2.0345  0.4262
26944SOL     OW86667   9.628   3.223   2.003 -0.1615 -0.4412  0.5856
26944SOL    HW186668   9.562   3.180   1.948  1.1063 -1.3583 -0.2723
26944SOL    HW286669   9.577   3.282   2.059 -1.6126 -0.3752 -0.7257
26945SOL     OW86670  10.633   4.204   5.561  0.3467  0.3765  0.5357
26945SOL    HW186671  10.712   4.240   5.521  0.4996  0.9674  1.3412
26945SOL    HW286672  10.620   4.257   5.640 -0.1979 -0.4665  1.0271
26946SOL     OW86673   0.731   0.873   2.965 -0.0044  0.2703 -0.4273
26946SOL    HW186674   0.791   0.811   3.006  0.5951  0.3974 -1.1081
26946SOL    HW286675   0.649   0.861   3.013  0.2408 -0.6962 -0.2280
26947SOL     OW86676   6.746   6.886   5.360  0.0833  0.5700 -0.2506
26947SOL    HW186677   6.674   6.861   5.302 -1.7184  0.1084  2.0230
26947SOL    HW286678   6.758   6.810   5.417  3.6890 -0.1009 -1.6318
26948SOL     OW86679   1.677   7.735   0.597 -0.5122 -0.7475 -0.2180
26948SOL    HW186680   1.760   7.782   0.596 -0.3868 -0.9561  0.2281
26948SOL    HW286681   1.669   7.697   0.510  0.8431 -2.4599  0.3566
26949SOL     OW86682   6.992   2.382   2.883 -0.3797  0.1052  0.1087
26949SOL    HW186683   6.962   2.421   2.800  0.6614 -2.4716 -1.6056
26949SOL    HW286684   6.916   2.332   2.915 -0.4652  0.2787  0.1794
26950SOL     OW86685   7.104   7.513   2.767  0.0909  0.1661 -0.1583
26950SOL    HW186686   7.186   7.555   2.742  0.6255  0.4972  1.9551
26950SOL    HW286687   7.091   7.445   2.701  1.0528  1.3313 -1.6107
26951SOL     OW86688   3.851   3.597   9.162  0.5307  0.1778 -0.3711
26951SOL    HW186689   3.756   3.595   9.175  0.6428  0.0456  0.4706
26951SOL    HW286690   3.876   3.687   9.183  0.5067  0.3899 -1.2369
26952SOL     OW86691   3.461  10.529  10.848 -0.0725  0.8187  0.3834
26952SOL    HW186692   3.499  10.502  10.932  1.7390  1.2669 -0.2620
26952SOL    HW286693   3.486  10.460  10.787  1.3385  2.0398 -0.4596
26953SOL     OW86694   6.883   9.701   4.248 -0.4522 -0.0739  0.1826
26953SOL    HW186695   6.831   9.682   4.327  0.8590 -0.2357  1.0310
26953SOL    HW286696   6.930   9.781   4.269  1.4228 -1.1682  0.3559
26954SOL     OW86697   8.532   2.265   7.566 -0.5864 -0.0553  0.8270
26954SOL    HW186698   8.523   2.279   7.472  1.1189 -0.7999  0.5277
26954SOL    HW286699   8.495   2.178   7.581 -1.1072  0.1751  0.9018
26955SOL     OW86700   0.173   5.172   5.695 -0.5191  0.3037 -0.0843
26955SOL    HW186701   0.133   5.113   5.759 -0.7615  1.4224  0.8257
26955SOL    HW286702   0.242   5.119   5.654  0.0455 -0.2738  1.5173
26956SOL     OW86703  10.087   8.152   6.877 -0.2509  0.1376  0.3404
26956SOL    HW186704  10.125   8.074   6.837  0.3279 -1.9088  4.3831
26956SOL    HW286705  10.160   8.214   6.883  0.4509 -0.7138  0.9032
26957SOL     OW86706  10.697   3.591   0.278  0.0740  0.1288 -0.2031
26957SOL    HW186707  10.774   3.592   0.334  1.2615 -0.9980 -1.7157
26957SOL    HW286708  10.730   3.613   0.191 -1.2698 -0.5647 -0.9227
26958SOL     OW86709   9.275   6.971   1.680 -0.1651 -0.4981  0.3808
26958SOL    HW186710   9.207   6.925   1.631 -0.0595  1.2412 -1.5600
26958SOL    HW286711   9.355   6.956   1.631  0.5088 -0.9613  1.5866
26959SOL     OW86712   0.873   1.268   0.164 -0.5527 -0.0954  0.3724
26959SOL    HW186713   0.896   1.356   0.135 -3.5341  0.4442 -0.6840
26959SOL    HW286714   0.809   1.282   0.233 -1.4621 -1.4096 -0.1761
26960SOL     OW86715   2.811   1.366   1.399  0.3327  0.5343  0.0536
26960SOL    HW186716   2.864   1.442   1.373  0.5286  0.6131  0.6638
26960SOL    HW286717   2.875   1.304   1.436  0.3473 -0.4187 -1.4704
26961SOL     OW86718  10.512   8.844  10.329 -0.0647  0.0076  0.2801
26961SOL    HW186719  10.445   8.795  10.281  1.3097 -1.8734  0.1531
26961SOL    HW286720  10.480   8.848  10.419  0.8168 -3.4682  0.9178
26962SOL     OW86721   7.064   0.176   4.548  0.6296  0.3235  0.5437
26962SOL    HW186722   6.979   0.215   4.527 -0.8881 -1.2355  3.2107
26962SOL    HW286723   7.126   0.247   4.536 -0.7550  1.1595 -2.8984
26963SOL     OW86724   3.545   3.881   0.905  0.1315  0.5322 -0.2643
26963SOL    HW186725   3.552   3.786   0.914 -0.0688  0.5283 -0.1221
26963SOL    HW286726   3.451   3.896   0.894  0.0171  0.8130  0.9511
26964SOL     OW86727   9.794   3.904   4.268  0.0484  0.1579 -0.1936
26964SOL    HW186728   9.819   3.948   4.187 -0.8120  0.5268 -0.2715
26964SOL    HW286729   9.877   3.878   4.308  0.4901  0.1902 -1.0688
26965SOL     OW86730   5.580   5.592  10.707  0.1147 -0.0438 -0.0889
26965SOL    HW186731   5.496   5.558  10.739 -1.2464  0.5598 -2.7661
26965SOL    HW286732   5.619   5.519  10.659  1.2470 -0.3446  1.1975
26966SOL     OW86733   0.536   4.923   8.216  0.4073 -0.0883  0.4224
26966SOL    HW186734   0.595   4.938   8.142 -0.6581  0.0236 -0.4303
26966SOL    HW286735   0.531   4.828   8.224  0.3492 -0.1066  0.1934
26967SOL     OW86736   3.799   1.080   6.564  0.0700 -0.0989 -0.1368
26967SOL    HW186737   3.872   1.087   6.501  0.9717 -1.2546  0.7275
26967SOL    HW286738   3.805   1.160   6.616 -0.9801  1.1057 -1.7671
26968SOL     OW86739  10.220   7.164   2.723  0.0035 -0.1841 -0.8472
26968SOL    HW186740  10.214   7.218   2.801 -0.2463 -0.0944 -0.9292
26968SOL    HW286741  10.144   7.188   2.671 -0.3388 -0.9090 -0.6935
26969SOL     OW86742   8.016   5.043   3.686  0.3869  0.5928  0.3280
26969SOL    HW186743   7.937   4.989   3.687 -0.9828  2.3379 -2.3067
26969SOL    HW286744   8.088   4.980   3.676 -1.0353 -0.8341 -1.4545
26970SOL     OW86745   4.324   7.231   9.591  0.1937 -0.2417 -0.5980
26970SOL    HW186746   4.292   7.320   9.610 -2.4072 -0.7953 -1.9577
26970SOL    HW286747   4.388   7.213   9.660 -0.8252  1.8618  0.9890
26971SOL     OW86748   5.656   3.694   0.309  0.0068  0.1618 -0.5279
26971SOL    HW186749   5.749   3.682   0.327 -0.0196  0.0878 -0.4421
26971SOL    HW286750   5.615   3.613   0.339 -0.4573  1.2634  2.0799
26972SOL     OW86751  10.111   8.360   7.470 -0.3203  0.0254 -0.2471
26972SOL    HW186752  10.048   8.387   7.537  0.0533  1.6786 -0.5008
26972SOL    HW286753  10.068   8.290   7.422 -1.7825  0.7731 -0.0909
26973SOL     OW86754   1.061   4.536   3.587  0.6604  0.1439 -0.5194
26973SOL    HW186755   0.994   4.553   3.521 -0.8241  0.7395  1.0537
26973SOL    HW286756   1.033   4.587   3.663  3.2320  0.8659  0.0403
26974SOL     OW86757   3.257   5.978   6.332  0.4816 -0.3795 -0.5730
26974SOL    HW186758   3.205   6.040   6.281  0.8500  0.6214  0.2335
26974SOL    HW286759   3.215   5.976   6.418  1.5384  0.1558 -0.0315
26975SOL     OW86760   5.836   0.339   2.813  0.2586  0.3692  0.2100
26975SOL    HW186761   5.906   0.403   2.830  1.9854 -0.9273 -1.5329
26975SOL    HW286762   5.867   0.258   2.854 -0.3480 -0.1616 -0.3634
26976SOL     OW86763   2.534   6.201   2.367 -0.2825  0.6468  0.0374
26976SOL    HW186764   2.580   6.283   2.350 -0.6634  0.8017 -0.2509
26976SOL    HW286765   2.601   6.144   2.406  0.5283  0.3983 -1.6474
26977SOL     OW86766   1.215   8.122   6.498 -0.1367 -0.7067  0.1220
26977SOL    HW186767   1.275   8.136   6.424  0.0607 -0.1085  0.3837
26977SOL    HW286768   1.130   8.107   6.457 -0.8980  3.3774 -0.3016
26978SOL     OW86769   5.300   9.928   4.801 -0.1012 -0.3019  0.4833
26978SOL    HW186770   5.364   9.946   4.732 -0.2444 -1.4806  0.0181
26978SOL    HW286771   5.227   9.986   4.782  0.6859  0.8393  0.8432
26979SOL     OW86772   2.975   6.226   0.386 -0.6871 -0.0332  0.0941
26979SOL    HW186773   2.964   6.305   0.333 -2.0153  0.6473  1.2945
26979SOL    HW286774   2.886   6.192   0.398 -0.0795 -2.1318 -0.9529
26980SOL     OW86775   6.902   5.640   5.953  0.6730 -0.3257  0.2241
26980SOL    HW186776   6.991   5.657   5.982  0.1453  0.8790  1.2217
26980SOL    HW286777   6.890   5.697   5.877 -0.2961  2.2174  2.1215
26981SOL     OW86778   8.173   9.205   5.965  0.3222 -0.6389  0.2367
26981SOL    HW186779   8.080   9.188   5.952  0.1949  1.3762 -2.4776
26981SOL    HW286780   8.194   9.164   6.049 -2.7499 -2.0039  0.4644
26982SOL     OW86781   6.288   9.160   2.852  0.7406 -0.0000  0.0898
26982SOL    HW186782   6.207   9.109   2.849  0.3509  0.5616  0.9808
26982SOL    HW286783   6.340   9.125   2.779  0.8905 -2.3539  1.2272
26983SOL     OW86784  10.919   0.583   4.755  0.2162 -0.0661 -0.2375
26983SOL    HW186785  10.921   0.488   4.767 -0.0089  0.0074  0.4213
26983SOL    HW286786  10.995   0.602   4.700  0.0238 -0.6708 -0.7275
26984SOL     OW86787   8.789   6.687   6.432  0.4113 -0.3300  0.4730
26984SOL    HW186788   8.786   6.621   6.501 -0.3543 -0.0232  0.7552
26984SOL    HW286789   8.789   6.770   6.479 -0.9278 -0.0963  0.1246
26985SOL     OW86790   3.117   9.399   4.185  0.3400  0.6901 -0.1843
26985SOL    HW186791   3.076   9.328   4.135 -1.4643  1.7665 -0.2979
26985SOL    HW286792   3.171   9.445   4.121  0.7323  0.0337 -0.3361
26986SOL     OW86793   1.271   6.267   8.254 -0.5977  0.0605  0.0386
26986SOL    HW186794   1.216   6.278   8.332 -0.1556  0.9276  0.2419
26986SOL    HW286795   1.260   6.349   8.205  1.3653  0.7458  0.6446
26987SOL     OW86796   3.535   3.394   4.706 -1.0279 -0.0123  0.3734
26987SOL    HW186797   3.552   3.389   4.800 -0.6223  1.3095  0.3940
26987SOL    HW286798   3.592   3.465   4.676  0.0354 -1.4421 -1.1576
26988SOL     OW86799   2.495   8.381   3.358  0.1283  0.6107  0.2075
26988SOL    HW186800   2.455   8.402   3.443 -1.1672  1.7768 -0.6506
26988SOL    HW286801   2.450   8.301   3.331 -0.7514  1.2062 -0.1578
26989SOL     OW86802   2.758   5.460   4.529  0.3142 -0.3229  0.1941
26989SOL    HW186803   2.826   5.507   4.481 -0.3348 -1.3802 -1.8680
26989SOL    HW286804   2.681   5.517   4.524  0.1180 -0.6395 -0.4439
26990SOL     OW86805   4.002   5.902   3.044  0.7602  0.3143  0.7159
26990SOL    HW186806   3.940   5.975   3.044 -3.2782 -2.7773  2.4897
26990SOL    HW286807   3.961   5.835   2.991  1.8822 -2.4038  3.0540
26991SOL     OW86808   9.458   0.445  10.587  0.2569 -0.4418 -0.2741
26991SOL    HW186809   9.484   0.431  10.678 -1.0045 -1.8354 -0.0975
26991SOL    HW286810   9.397   0.519  10.591  0.8742  0.0745 -0.1318
26992SOL     OW86811   7.461   9.562  10.592 -0.1070 -0.1077 -0.3605
26992SOL    HW186812   7.416   9.632  10.639  0.6709 -0.4845  0.9856
26992SOL    HW286813   7.497   9.506  10.660 -1.0582 -2.0907 -1.3873
26993SOL     OW86814   1.445   5.785   6.076 -0.1484 -0.2581 -0.0899
26993SOL    HW186815   1.372   5.736   6.038 -0.3278  0.2292 -0.3787
26993SOL    HW286816   1.404   5.847   6.136 -0.1085  1.0381 -1.3452
26994SOL     OW86817   0.468   3.650   8.736  0.2861 -0.5136  0.1135
26994SOL    HW186818   0.539   3.712   8.750 -1.1919  1.0127  1.3582
26994SOL    HW286819   0.511   3.569   8.708  2.4165  0.5524  0.1210
26995SOL     OW86820   2.420   4.611   3.432 -0.1998  0.3157 -0.0710
26995SOL    HW186821   2.416   4.604   3.336  1.2977  1.9484 -0.2988
26995SOL    HW286822   2.436   4.704   3.449  0.5248 -0.0948  1.7291
26996SOL     OW86823   1.638   6.272   1.353  0.5970  0.8646 -0.0660
26996SOL    HW186824   1.583   6.199   1.380  0.3759  1.3721  0.8956
26996SOL    HW286825   1.727   6.237   1.351  0.4008  0.3821 -0.3426
26997SOL     OW86826  10.615   4.628   4.131 -0.2149 -0.3638 -0.1499
26997SOL    HW186827  10.677   4.605   4.062 -0.0931  0.4768 -0.3212
26997SOL    HW286828  10.669   4.661   4.202 -0.4442  0.0884 -0.1847
26998SOL     OW86829   1.520  10.057   8.749 -0.0215 -0.1169 -0.1897
26998SOL    HW186830   1.494  10.041   8.840  0.9121 -3.0223 -0.3145
26998SOL    HW286831   1.590   9.994   8.733 -0.4836 -0.0400 -3.0716
26999SOL     OW86832   0.188   4.769  10.449  0.0020  0.1084 -0.2000
26999SOL    HW186833   0.238   4.752  10.369 -0.8331  0.4719 -0.8172
26999SOL    HW286834   0.133   4.691  10.461  0.3033 -0.0509  0.1608
27000SOL     OW86835   7.000   7.820   0.513  0.1857 -0.4670 -0.0008
27000SOL    HW186836   7.026   7.734   0.483  0.7877 -0.5922  0.8357
27000SOL    HW286837   6.959   7.862   0.437  0.7480 -1.1301 -0.6727
27001SOL     OW86838   1.482  10.380   3.432 -0.2738  0.1160  0.0031
27001SOL    HW186839   1.474  10.456   3.375 -1.7593  1.5683  2.0227
27001SOL    HW286840   1.574  10.378   3.457  0.2688 -0.1776 -1.8529
27002SOL     OW86841   4.727  10.613   6.580 -0.0473 -0.4763  0.0733
27002SOL    HW186842   4.694  10.594   6.667  1.5163  0.1405  0.8435
27002SOL    HW286843   4.753  10.528   6.545  0.6408 -0.5662  0.7883
27003SOL     OW86844   2.707   8.074   4.563 -0.1916  0.5069 -0.1607
27003SOL    HW186845   2.792   8.111   4.590 -0.2020  1.8125 -1.7196
27003SOL    HW286846   2.717   7.980   4.574  1.6051  0.6040 -0.5972
27004SOL     OW86847   0.531   8.323   2.532  0.0374 -0.2045  0.1326
27004SOL    HW186848   0.510   8.366   2.449  0.8777  0.5656  0.3028
27004SOL    HW286849   0.597   8.257   2.508  1.6437  1.2430  0.4309
27005SOL     OW86850   5.662   7.368   4.304  0.4343  0.5251  0.2037
27005SOL    HW186851   5.654   7.404   4.215 -0.4577  0.4316  0.2332
27005SOL    HW286852   5.600   7.295   4.305 -0.3414  1.1754  1.2273
27006SOL     OW86853   9.424   3.072   6.523  0.4798  0.2451  0.6721
27006SOL    HW186854   9.498   3.011   6.515  0.6135  0.5554 -0.9560
27006SOL    HW286855   9.456   3.140   6.581  1.2858  0.0800  0.4446
27007SOL     OW86856   3.864   0.361   9.503  0.2632 -0.0460  0.4994
27007SOL    HW186857   3.862   0.352   9.408 -0.1319  0.4775  0.4573
27007SOL    HW286858   3.900   0.278   9.534  1.8517  0.3395 -0.1981
27008SOL     OW86859   1.454   4.841   1.215 -0.1542 -0.6436  0.5011
27008SOL    HW186860   1.433   4.774   1.281 -0.7851  0.3107  1.2835
27008SOL    HW286861   1.529   4.887   1.251  0.4528 -1.0726 -0.1667
27009SOL     OW86862   4.047   7.173   1.232  0.4591  0.3853  0.6007
27009SOL    HW186863   4.045   7.131   1.318 -0.5259  0.2215  0.5090
27009SOL    HW286864   4.071   7.103   1.171 -2.3703 -0.4419  0.2782
27010SOL     OW86865   3.747   9.987   9.124 -0.5398 -0.4155 -0.2262
27010SOL    HW186866   3.682   9.940   9.072 -0.1486 -0.1017 -1.0132
27010SOL    HW286867   3.831   9.947   9.100 -0.5709 -2.3667  2.4358
27011SOL     OW86868   1.170   6.534   8.898  0.9406  0.2708  0.3475
27011SOL    HW186869   1.256   6.569   8.874  0.0513  1.5466 -1.1949
27011SOL    HW286870   1.122   6.610   8.932  0.1753 -0.2579  0.4708
27012SOL     OW86871   6.476   4.697   6.260 -0.5624  0.1897 -0.3601
27012SOL    HW186872   6.500   4.644   6.335 -0.8507  1.2021  0.4811
27012SOL    HW286873   6.485   4.639   6.185 -2.0994 -1.4366  0.6363
27013SOL     OW86874   6.050   8.463   5.275  0.4066 -1.0929 -0.2858
27013SOL    HW186875   6.073   8.432   5.362 -2.3340  1.1261  1.3817
27013SOL    HW286876   6.024   8.383   5.227 -1.9147 -2.0484  2.2899
27014SOL     OW86877   8.219   4.414   2.515 -0.4166 -0.2126 -0.6055
27014SOL    HW186878   8.243   4.483   2.454  1.7380 -1.4580 -1.2758
27014SOL    HW286879   8.165   4.354   2.464 -0.2860 -0.2346 -0.7185
27015SOL     OW86880   3.514   1.358   9.488 -0.3124  0.3228 -0.7189
27015SOL    HW186881   3.514   1.266   9.513 -2.4602 -0.4700 -3.2302
27015SOL    HW286882   3.586   1.365   9.425 -0.5597  0.1583 -1.0289
27016SOL     OW86883   9.085   9.095   5.453  0.2289  0.1127 -0.1057
27016SOL    HW186884   9.129   9.079   5.536  0.7220 -0.5856 -0.4941
27016SOL    HW286885   9.053   9.185   5.460 -3.3817 -1.1507  2.4991
27017SOL     OW86886   1.481   4.023   0.784 -0.7136 -0.3115 -0.1358
27017SOL    HW186887   1.495   3.969   0.862 -1.1761 -2.4668 -1.4678
27017SOL    HW286888   1.395   4.062   0.797 -0.1897  0.5068  1.0511
27018SOL     OW86889   7.566   0.448   5.347 -0.2262  0.4403  0.2112
27018SOL    HW186890   7.609   0.467   5.263 -1.5467  0.2232 -0.5506
27018SOL    HW286891   7.535   0.357   5.337 -0.1896  0.3353  1.0306
27019SOL     OW86892   2.713   3.081  10.455  0.4681  0.5401  0.5157
27019SOL    HW186893   2.662   3.112  10.530 -0.3707  0.9590 -0.2077
27019SOL    HW286894   2.744   2.994  10.481 -3.0100 -1.0339 -0.0442
27020SOL     OW86895   8.889   3.325   5.580  0.6315  0.6327  0.5453
27020SOL    HW186896   8.793   3.332   5.577  0.7016  2.2236  1.1367
27020SOL    HW286897   8.914   3.305   5.490 -0.3240 -1.2529  0.6412
27021SOL     OW86898  10.615   0.516   0.465  0.2884  0.5103 -0.1813
27021SOL    HW186899  10.616   0.611   0.474 -1.5819  0.4607  1.1482
27021SOL    HW286900  10.624   0.483   0.555  3.4551 -0.6905 -0.8144
27022SOL     OW86901   0.569   1.908   4.500 -0.3868 -0.4018 -0.1451
27022SOL    HW186902   0.638   1.857   4.458 -0.6512 -0.5051 -0.4589
27022SOL    HW286903   0.494   1.900   4.441 -0.9122 -0.9331  0.5837
27023SOL     OW86904   5.523   8.073   0.527 -0.1480 -0.0441  0.0482
27023SOL    HW186905   5.612   8.107   0.540  0.2602 -1.0396 -0.0159
27023SOL    HW286906   5.503   8.027   0.608 -1.3900  1.8095  0.8276
27024SOL     OW86907   4.767   5.570  10.398 -0.3439 -0.3973  0.5458
27024SOL    HW186908   4.821   5.622  10.339 -1.3695  1.4916  1.1831
27024SOL    HW286909   4.827   5.507  10.438  0.7999 -0.1726 -0.7789
27025SOL     OW86910   9.242   8.016   1.417 -0.1310  0.1899 -0.0712
27025SOL    HW186911   9.177   7.988   1.353 -0.5798 -1.1020  0.8874
27025SOL    HW286912   9.198   8.085   1.467 -1.5358 -1.8801  1.7320
27026SOL     OW86913   5.213   2.487   2.097 -0.2626  0.1632 -0.3209
27026SOL    HW186914   5.257   2.436   2.165  0.0529  0.4138 -0.3315
27026SOL    HW286915   5.121   2.488   2.123 -0.3249 -0.6664 -0.4879
27027SOL     OW86916   0.665   8.121   9.214  0.2101 -0.4103  0.2174
27027SOL    HW186917   0.724   8.078   9.153  1.5478 -0.8733  1.7621
27027SOL    HW286918   0.712   8.199   9.242 -0.4879 -0.0676  0.4564
27028SOL     OW86919   2.406   0.689   4.017 -0.2967  0.1026 -0.2328
27028SOL    HW186920   2.359   0.643   3.947 -1.5529  0.4743  0.3276
27028SOL    HW286921   2.410   0.625   4.089 -1.9363  0.7540  0.5026
27029SOL     OW86922   6.920   8.107   0.578  0.5225  0.4668 -0.0531
27029SOL    HW186923   6.862   8.179   0.602 -0.5232 -0.4917  0.3904
27029SOL    HW286924   6.892   8.083   0.490  1.1993  0.8982 -0.3985
27030SOL     OW86925   0.809  10.238   6.559 -0.1303 -0.2231  0.1303
27030SOL    HW186926   0.842  10.262   6.473  0.1799 -0.5891  0.1438
27030SOL    HW286927   0.886  10.210   6.608 -0.5863 -2.3737 -0.2616
27031SOL     OW86928   3.358   3.976   4.926 -0.0553 -0.3217 -0.0817
27031SOL    HW186929   3.441   4.019   4.946  1.1289 -1.6968 -1.6883
27031SOL    HW286930   3.302   3.995   5.001  1.1392  2.0181  0.3265
27032SOL     OW86931   4.901   8.258   5.530  0.4911  0.2931 -0.2187
27032SOL    HW186932   4.946   8.201   5.467 -0.9840 -1.9389  0.6195
27032SOL    HW286933   4.890   8.203   5.608 -1.3964  1.5812  0.4840
27033SOL     OW86934   1.455  10.819   0.657  0.7773  0.4510 -0.1908
27033SOL    HW186935   1.453  10.908   0.624 -0.6063  1.0848  1.4202
27033SOL    HW286936   1.524  10.776   0.608  0.6449  2.0561 -1.8819
27034SOL     OW86937   4.013   4.309   4.385 -0.2816  0.2774  0.7397
27034SOL    HW186938   4.010   4.320   4.290  0.2428  2.4838  0.9255
27034SOL    HW286939   4.061   4.227   4.398  3.8182  2.1170 -0.9327
27035SOL     OW86940   7.814   2.312   8.329 -0.8711  0.1243  0.0569
27035SOL    HW186941   7.782   2.225   8.305 -0.2844 -0.0134 -0.2584
27035SOL    HW286942   7.779   2.370   8.262 -1.3690  0.1529  0.3398
27036SOL     OW86943   2.062   5.759   6.227  0.2539 -0.1453 -0.2261
27036SOL    HW186944   2.067   5.665   6.210  0.1389 -0.1530 -0.2236
27036SOL    HW286945   2.072   5.767   6.322  0.7149 -0.1174 -0.2766
27037SOL     OW86946   7.014   3.047   4.954 -0.0200 -0.2266  0.4355
27037SOL    HW186947   7.036   3.016   4.866 -0.4884  1.3315 -0.2581
27037SOL    HW286948   6.944   2.988   4.983 -0.6912 -0.0385 -0.7286
27038SOL     OW86949   7.033   5.375   7.588  0.0230 -0.1607 -0.2394
27038SOL    HW186950   7.103   5.350   7.528  0.4087  1.0449 -0.3204
27038SOL    HW286951   6.988   5.447   7.544 -1.2571 -0.8769 -0.1666
27039SOL     OW86952   5.500   1.973   8.868  0.0630  0.4217 -0.2182
27039SOL    HW186953   5.483   1.891   8.914  2.7782 -0.7327 -1.0333
27039SOL    HW286954   5.557   2.023   8.927 -0.4851  1.1445 -0.2854
27040SOL     OW86955  10.147   1.655   9.645 -0.3151 -0.6464  0.0170
27040SOL    HW186956  10.127   1.577   9.593 -2.9376  0.4004 -0.7128
27040SOL    HW286957  10.191   1.714   9.584 -1.4656 -0.2478 -0.4502
27041SOL     OW86958   2.025   1.944   0.594  0.5930  0.1919 -0.1730
27041SOL    HW186959   1.996   1.890   0.667  0.8438 -0.6534 -0.6773
27041SOL    HW286960   1.946   1.959   0.543  0.8061 -1.2099 -0.9731
27042SOL     OW86961   5.046   7.311   9.024 -0.2697  0.9527 -0.5022
27042SOL    HW186962   5.027   7.405   9.025 -1.4531  0.7612  1.7840
27042SOL    HW286963   4.976   7.272   9.076  2.6594 -0.6355  2.6271
27043SOL     OW86964   7.380   5.393  10.362 -0.0053 -0.0525 -1.3988
27043SOL    HW186965   7.473   5.378  10.344  0.5116 -0.9623  1.4934
27043SOL    HW286966   7.345   5.306  10.380 -1.1100  0.4364 -1.1239
27044SOL     OW86967   4.334   6.568   9.448 -0.6243  0.3162 -0.7528
27044SOL    HW186968   4.318   6.617   9.529 -1.0378  0.1934 -0.7545
27044SOL    HW286969   4.304   6.626   9.379 -0.4989  0.3230 -0.8020
27045SOL     OW86970   2.394   3.331   9.890 -0.3398 -0.5367  0.3146
27045SOL    HW186971   2.445   3.280   9.952  0.5808 -0.3377 -0.2501
27045SOL    HW286972   2.324   3.371   9.942  0.2077 -0.6537  1.1480
27046SOL     OW86973   8.386   1.116   3.552  0.5717 -0.1405 -1.1509
27046SOL    HW186974   8.340   1.035   3.576 -1.8114  0.6536 -2.7067
27046SOL    HW286975   8.391   1.113   3.456  2.2551  0.6689 -1.1258
27047SOL     OW86976   1.693   0.820   5.159 -0.0394 -0.1882 -0.2472
27047SOL    HW186977   1.723   0.839   5.070 -1.1229  0.4728 -0.4954
27047SOL    HW286978   1.673   0.906   5.196 -1.0263 -0.5590  0.1019
27048SOL     OW86979   0.938   3.699   6.007 -0.5914  0.3842  0.0525
27048SOL    HW186980   0.899   3.626   5.959 -0.5425 -0.1317  0.7642
27048SOL    HW286981   1.027   3.705   5.973 -0.3146 -0.4718  0.5829
27049SOL     OW86982   6.839   4.055   9.613 -0.5556 -0.1119  0.6784
27049SOL    HW186983   6.901   4.121   9.582 -0.0789 -1.0092 -0.3572
27049SOL    HW286984   6.808   4.089   9.697  0.9461  0.6081  0.9818
27050SOL     OW86985  10.020  10.171   3.073  0.0238 -0.4422  0.0234
27050SOL    HW186986   9.952  10.112   3.042 -0.2293 -0.1030 -0.0753
27050SOL    HW286987  10.099  10.143   3.027  0.1740 -1.4636  0.8707
27051SOL     OW86988   5.203   1.176   2.263 -0.1145 -0.2262  0.1932
27051SOL    HW186989   5.195   1.175   2.167  3.1909 -2.1341 -0.2434
27051SOL    HW286990   5.133   1.120   2.294  0.5882 -2.1387 -1.4497
27052SOL     OW86991   5.676  10.147   3.000 -0.2136  0.1594  0.3824
27052SOL    HW186992   5.767  10.120   3.014 -0.0966 -0.2069 -0.8959
27052SOL    HW286993   5.635  10.070   2.960 -1.0763  0.3413  0.9152
27053SOL     OW86994   9.017   8.383   7.029  0.1887 -0.5273 -0.2465
27053SOL    HW186995   9.086   8.446   7.007 -0.5785  0.4140  0.0083
27053SOL    HW286996   8.974   8.420   7.105 -1.2209 -0.6084 -0.9729
27054SOL     OW86997   1.811  10.640   1.016  0.4130  0.0414  0.6057
27054SOL    HW186998   1.768  10.720   0.986 -0.5551 -0.4454  0.6790
27054SOL    HW286999   1.813  10.648   1.111  1.3152  0.4705  0.5674
27055SOL     OW87000   4.859   3.305   6.726  0.3810 -0.0041 -0.5682
27055SOL    HW187001   4.857   3.282   6.819  0.3957 -0.0818 -0.5869
27055SOL    HW287002   4.935   3.363   6.717  1.5786 -1.5504 -0.8866
27056SOL     OW87003   6.138   0.848  10.182 -0.2996  0.6134  0.8116
27056SOL    HW187004   6.140   0.847  10.086  2.1273 -1.8687  0.7708
27056SOL    HW287005   6.097   0.765  10.206 -1.2250  1.3750  1.9825
27057SOL     OW87006   9.440   4.026   6.496 -0.3050  0.1341 -0.1521
27057SOL    HW187007   9.528   4.034   6.461  0.3854 -3.2062  0.4726
27057SOL    HW287008   9.450   3.972   6.574 -3.0573 -1.7970 -0.9945
27058SOL     OW87009   5.654  10.860   9.512  0.3358  0.1399  0.1155
27058SOL    HW187010   5.722  10.924   9.529  0.6905 -0.0719 -0.4674
27058SOL    HW287011   5.627  10.829   9.599  1.8328 -0.6630  0.3319
27059SOL     OW87012   4.322   0.911   3.544 -0.4117  0.1510  0.7951
27059SOL    HW187013   4.251   0.864   3.588  0.4533 -2.8527 -0.7413
27059SOL    HW287014   4.293   0.919   3.453  0.7273 -0.1385  0.3846
27060SOL     OW87015  10.249   4.330   0.295  0.5012 -0.0481  0.3332
27060SOL    HW187016  10.278   4.336   0.386  0.5415 -0.9455  0.3946
27060SOL    HW287017  10.306   4.391   0.248  0.5882  0.3045  0.8841
27061SOL     OW87018   4.021  10.448   9.772 -0.3718 -0.0724  0.5084
27061SOL    HW187019   4.112  10.434   9.746 -1.0859 -0.2518 -2.0779
27061SOL    HW287020   4.004  10.379   9.837  1.2271 -0.2048  0.8340
27062SOL     OW87021   2.104   1.493   3.355 -0.4116 -0.6740  0.1108
27062SOL    HW187022   2.014   1.461   3.365 -1.4150  1.4122 -1.4219
27062SOL    HW287023   2.141   1.438   3.286 -0.8755 -0.8418 -0.0120
27063SOL     OW87024   1.087   0.206   4.568  0.3467 -0.3378  0.5982
27063SOL    HW187025   1.010   0.171   4.524  0.9994 -0.1628 -0.7400
27063SOL    HW287026   1.057   0.287   4.609 -0.1257 -0.1570 -0.1007
27064SOL     OW87027  10.510   7.902  10.238  0.1174  1.1353  0.3334
27064SOL    HW187028  10.475   7.912  10.149 -0.4942 -2.9313 -0.0779
27064SOL    HW287029  10.568   7.977  10.250  0.6629  1.5848 -3.7585
27065SOL     OW87030   4.938   7.897   0.122 -0.3674  0.5345  0.5817
27065SOL    HW187031   4.966   7.835   0.055 -0.9206  0.3827  0.4856
27065SOL    HW287032   4.866   7.853   0.167 -2.4637  2.0373 -1.0963
27066SOL     OW87033   8.558   8.001   4.772 -0.3597 -0.1476  0.5195
27066SOL    HW187034   8.515   8.085   4.781  0.5110  0.5024 -0.9369
27066SOL    HW287035   8.518   7.945   4.839 -1.9242  1.0128  0.5888
27067SOL     OW87036   3.280   3.904   9.953 -0.5494  0.3081  0.2076
27067SOL    HW187037   3.257   3.991   9.986  1.2333  0.0153  2.5364
27067SOL    HW287038   3.257   3.845  10.024  2.2597 -0.5492  0.5504
27068SOL     OW87039   6.600   2.338   4.723 -0.1832  0.3989 -0.2775
27068SOL    HW187040   6.610   2.415   4.779  1.7021 -0.4141  0.5955
27068SOL    HW287041   6.661   2.354   4.651 -0.2004 -0.0197 -0.3841
27069SOL     OW87042   0.289   7.736   0.239 -0.4149  0.3513 -0.1919
27069SOL    HW187043   0.255   7.818   0.202  0.8368  1.3903  0.8783
27069SOL    HW287044   0.384   7.747   0.241 -0.3752  0.4720  3.4264
27070SOL     OW87045   1.188   3.397   4.905 -0.1115 -0.6485 -0.3052
27070SOL    HW187046   1.177   3.488   4.934 -0.7379 -0.9044  0.2930
27070SOL    HW287047   1.150   3.395   4.817  0.0500 -0.2942 -0.3848
27071SOL     OW87048   2.682   1.340   3.174  1.0127  0.3288  0.1490
27071SOL    HW187049   2.741   1.270   3.147 -0.1679 -0.8696  0.5798
27071SOL    HW287050   2.607   1.332   3.115  0.3388  0.4456  0.9754
27072SOL     OW87051  10.738   5.528   5.312  0.2078  0.9462 -0.4165
27072SOL    HW187052  10.772   5.539   5.223  0.3421  0.9840 -0.3595
27072SOL    HW287053  10.797   5.466   5.354  1.5325  2.6636  0.3885
27073SOL     OW87054   7.781   4.960   1.445 -0.4750  0.3921 -0.0346
27073SOL    HW187055   7.765   4.893   1.512 -1.6137  0.8527  0.1776
27073SOL    HW287056   7.800   4.910   1.365  0.7777 -0.1629  0.5794
27074SOL     OW87057   6.424   2.237   3.007  0.5072  0.1669 -0.0858
27074SOL    HW187058   6.484   2.291   3.059  1.0240 -0.3368 -0.1573
27074SOL    HW287059   6.343   2.289   3.003  0.7080  0.5400  0.5889
27075SOL     OW87060   3.091   5.321   0.217  0.3151 -0.1941  0.5532
27075SOL    HW187061   3.040   5.241   0.203  0.5722 -0.3622  0.5806
27075SOL    HW287062   3.179   5.300   0.186  0.6742 -0.2934  1.6289
27076SOL     OW87063   0.276   3.053   0.901  0.4278 -0.0615 -0.1238
27076SOL    HW187064   0.239   3.038   0.987  0.8669 -0.4424  0.0013
27076SOL    HW287065   0.217   3.009   0.840  0.6826 -0.6897  0.0774
27077SOL     OW87066   0.363   4.409   2.352 -0.6581 -0.5679  0.4817
27077SOL    HW187067   0.277   4.376   2.377  0.1390 -2.6515  0.6505
27077SOL    HW287068   0.409   4.333   2.317  1.3864  0.3271  1.0747
27078SOL     OW87069   8.760   2.565   6.012  0.3369  0.7828  0.4781
27078SOL    HW187070   8.680   2.579   6.064  1.2442  1.1597  1.8165
27078SOL    HW287071   8.735   2.496   5.949 -0.8323  0.3704  1.3403
27079SOL     OW87072  10.917   7.330   3.483 -0.1161 -0.2782  0.0046
27079SOL    HW187073  10.825   7.316   3.506 -0.0147  1.8390  2.0132
27079SOL    HW287074  10.962   7.252   3.514 -0.8430  0.0047  1.9219
27080SOL     OW87075   5.467   6.726   2.801 -0.1315 -0.2437  0.3372
27080SOL    HW187076   5.547   6.707   2.850 -1.1333 -1.2071  1.6682
27080SOL    HW287077   5.484   6.811   2.760  0.8576  0.5160  2.1765
27081SOL     OW87078   6.806   7.582  10.848  0.4531  0.0545 -0.0413
27081SOL    HW187079   6.723   7.542  10.821 -0.3556  0.6913  1.3558
27081SOL    HW287080   6.859   7.510  10.880 -0.0294 -0.2138  0.1569
27082SOL     OW87081   4.045   6.745  10.102  0.5448 -0.7290 -0.1676
27082SOL    HW187082   4.049   6.827  10.053  0.1850 -0.6679 -0.0938
27082SOL    HW287083   4.102   6.685  10.054  0.5419 -0.5361 -0.4092
27083SOL     OW87084   8.958   6.526   5.878 -0.4905  0.6674 -0.0493
27083SOL    HW187085   9.040   6.536   5.927 -0.4814  0.5329 -0.0371
27083SOL    HW287086   8.950   6.432   5.864 -0.6132  0.6858 -0.1019
27084SOL     OW87087   2.052   8.384   7.846  0.0998 -0.1205 -0.0615
27084SOL    HW187088   2.067   8.346   7.932  0.9260 -2.5443 -1.1898
27084SOL    HW287089   2.138   8.413   7.817  0.0599 -0.5041 -0.5772
27085SOL     OW87090   3.665   7.116   0.735  0.4822 -0.6713 -0.2804
27085SOL    HW187091   3.579   7.077   0.717 -0.6490  2.0907 -1.4451
27085SOL    HW287092   3.706   7.124   0.648  1.7702 -1.5358  0.2150
27086SOL     OW87093   0.598   3.300   1.044  0.2956  0.8064 -0.4070
27086SOL    HW187094   0.513   3.331   1.075  0.1938  0.7552 -0.6338
27086SOL    HW287095   0.655   3.307   1.121 -0.9306 -3.2937  1.1938
27087SOL     OW87096   7.970   2.030   4.565 -0.1264  0.0667 -0.0714
27087SOL    HW187097   7.926   2.097   4.513 -1.3918 -0.1767  0.6448
27087SOL    HW287098   7.908   2.009   4.635  0.2915 -1.7400 -0.1889
27088SOL     OW87099   9.955   9.407   1.417 -0.0779  0.1980  0.6762
27088SOL    HW187100   9.993   9.379   1.501 -1.4848  0.6127  1.4888
27088SOL    HW287101  10.030   9.422   1.360  0.9691  0.8933  2.1866
27089SOL     OW87102   2.622   7.244   8.848 -0.3485  0.4182 -0.9718
27089SOL    HW187103   2.585   7.224   8.934 -0.5192  0.5094 -1.0232
27089SOL    HW287104   2.589   7.175   8.791  1.4309 -0.8437 -0.5364
27090SOL     OW87105   9.731   4.972   5.704  0.5605  0.0817  0.5986
27090SOL    HW187106   9.672   5.047   5.706 -0.7370 -0.9018  1.1373
27090SOL    HW287107   9.819   5.010   5.699 -0.1398  1.5927 -2.6190
27091SOL     OW87108   0.101   2.231   4.361 -0.0583  0.0571  0.2883
27091SOL    HW187109   0.146   2.265   4.284  0.7462 -1.5416  0.0230
27091SOL    HW287110   0.020   2.193   4.326  0.0833 -0.2486  0.2923
27092SOL     OW87111   8.635   4.584   7.385 -0.3211  0.4154  0.4743
27092SOL    HW187112   8.617   4.492   7.403 -0.0707 -0.1409 -1.7962
27092SOL    HW287113   8.570   4.608   7.318  1.2885  1.0696 -0.9235
27093SOL     OW87114   6.087   9.279   8.189 -0.0700 -0.8109 -0.5511
27093SOL    HW187115   6.022   9.209   8.185  0.4881 -1.5523  1.8587
27093SOL    HW287116   6.123   9.274   8.278  1.0955  1.5524 -0.8034
27094SOL     OW87117  10.451  10.843   1.751 -0.2930  0.4772 -0.5376
27094SOL    HW187118  10.378  10.900   1.777 -2.1188 -1.2855 -1.4702
27094SOL    HW287119  10.449  10.845   1.655 -0.4141 -1.1160 -0.5898
27095SOL     OW87120   7.978  10.372   4.545 -0.2693  0.5443 -0.4290
27095SOL    HW187121   7.936  10.286   4.556  0.3755  0.2633 -0.1427
27095SOL    HW287122   7.942  10.425   4.616  0.3635  0.1024  0.2319
27096SOL     OW87123   7.374  10.238   7.047  0.5079  0.1961  0.4733
27096SOL    HW187124   7.331  10.311   7.002 -1.2822  1.0503  3.3170
27096SOL    HW287125   7.357  10.254   7.140  0.2373 -3.7240  1.2565
27097SOL     OW87126   3.460   3.493   7.811 -0.3405  0.3241 -0.1624
27097SOL    HW187127   3.480   3.401   7.830  3.4435  0.8436 -0.7487
27097SOL    HW287128   3.463   3.498   7.715  1.9237  1.3593 -0.1156
27098SOL     OW87129   1.998   9.237   9.212 -0.4409 -0.0672  0.1757
27098SOL    HW187130   1.956   9.151   9.213  0.2531 -0.4290 -0.3639
27098SOL    HW287131   2.082   9.221   9.169 -0.2781  0.8733  0.1364
27099SOL     OW87132   6.690   5.270   0.757 -0.4367 -0.1033 -0.2935
27099SOL    HW187133   6.692   5.256   0.851 -0.2602 -0.1179 -0.2996
27099SOL    HW287134   6.643   5.353   0.746  0.1856  0.2776 -0.1517
27100SOL     OW87135   6.353   8.823  10.143  0.2805  0.1841 -0.4356
27100SOL    HW187136   6.362   8.876  10.064 -2.5042  0.5176 -0.6088
27100SOL    HW287137   6.406   8.745  10.126  1.1308  1.0357 -1.8805
27101SOL     OW87138   4.989   4.479   0.585 -0.0302 -0.3274 -0.4789
27101SOL    HW187139   5.061   4.464   0.646 -0.4935  2.4810  0.9349
27101SOL    HW287140   4.913   4.437   0.627  0.2199 -0.9062 -0.5974
27102SOL     OW87141  10.578   8.635   3.157  0.1769  0.1337  0.2130
27102SOL    HW187142  10.605   8.681   3.077 -0.8741 -0.0600 -0.2665
27102SOL    HW287143  10.483   8.633   3.153  0.0998  0.2048  1.5316
27103SOL     OW87144   5.202   3.749   6.978 -0.0760 -0.2564  0.2706
27103SOL    HW187145   5.113   3.718   6.970 -0.1434  0.0800 -0.3999
27103SOL    HW287146   5.194   3.845   6.976  0.1194 -0.1687  2.2952
27104SOL     OW87147  10.868   8.312   9.287 -0.3785 -0.2369  0.3021
27104SOL    HW187148  10.907   8.346   9.368 -0.2715  1.5408 -0.4504
27104SOL    HW287149  10.934   8.328   9.220 -1.7861  1.5813 -0.7441
27105SOL     OW87150   6.005   5.760   1.153  0.3950 -0.2197 -0.3269
27105SOL    HW187151   6.034   5.723   1.069 -2.4508  0.2022 -1.6176
27105SOL    HW287152   5.943   5.829   1.129  1.3123  1.6190  2.1360
27106SOL     OW87153   2.884   6.672   2.476  0.1676 -0.0254  0.3485
27106SOL    HW187154   2.969   6.629   2.488  0.8178  1.1497  0.0458
27106SOL    HW287155   2.882   6.697   2.384 -1.4610 -1.9737 -0.2246
27107SOL     OW87156   2.634   4.720  10.528 -0.1135 -0.2133 -0.0623
27107SOL    HW187157   2.721   4.686  10.506  0.5291  0.9659  0.5675
27107SOL    HW287158   2.640   4.743  10.621 -0.6745  1.1085 -0.3304
27108SOL     OW87159   0.608   9.389   1.271 -0.0916  0.4613  0.1832
27108SOL    HW187160   0.606   9.395   1.367  1.0467  0.8733  0.2009
27108SOL    HW287161   0.581   9.475   1.241  1.6315  1.0416  0.1910
27109SOL     OW87162   3.245   5.656   4.931 -0.1892  0.4672  0.3167
27109SOL    HW187163   3.331   5.622   4.907  0.1768  2.1969 -0.9735
27109SOL    HW287164   3.246   5.747   4.902 -1.4213  1.3902  2.8609
27110SOL     OW87165   2.687  10.761   4.973 -0.3496 -0.1612 -0.4013
27110SOL    HW187166   2.759  10.750   4.910 -0.3383  2.4072 -0.9476
27110SOL    HW287167   2.728  10.802   5.049 -1.0970  0.8244 -0.5038
27111SOL     OW87168  10.428   4.333   9.331  0.2385 -0.0387  0.4818
27111SOL    HW187169  10.508   4.291   9.299  1.4501  0.5797  2.4924
27111SOL    HW287170  10.432   4.422   9.295  0.4136 -0.0350  0.5109
27112SOL     OW87171  10.800   3.047   2.415  0.1037  0.5025  0.0659
27112SOL    HW187172  10.748   2.967   2.401 -0.8040  1.2723 -1.1728
27112SOL    HW287173  10.809   3.053   2.510 -1.2021 -0.2166  0.2637
27113SOL     OW87174   6.692   3.654  10.423 -0.0230  0.2984  0.4458
27113SOL    HW187175   6.737   3.604  10.355 -1.0464 -0.0939  0.0403
27113SOL    HW287176   6.738   3.738  10.425  1.4748 -0.4991  0.8659
27114SOL     OW87177   7.034   9.353   4.961 -0.4220 -0.0541 -0.4345
27114SOL    HW187178   7.127   9.372   4.972 -0.7586  1.6483 -0.1403
27114SOL    HW287179   7.028   9.258   4.964  1.2533 -0.1795 -0.0038
27115SOL     OW87180   2.222   3.203   4.501 -0.0023  0.2116  0.7805
27115SOL    HW187181   2.131   3.176   4.511  0.6258 -1.3598  3.4498
27115SOL    HW287182   2.265   3.127   4.462  0.0959  1.1767 -1.0608
27116SOL     OW87183   5.564   9.333   6.152 -0.2411 -0.6922 -0.2032
27116SOL    HW187184   5.612   9.251   6.138 -1.2141 -1.3037 -0.0021
27116SOL    HW287185   5.501   9.336   6.081  0.9293  0.7722 -1.2601
27117SOL     OW87186   1.889  10.565   0.193  0.2570 -0.8913  0.5687
27117SOL    HW187187   1.845  10.553   0.109  1.5130 -1.3449 -0.0383
27117SOL    HW287188   1.824  10.610   0.247 -0.1405  0.5214 -1.0153
27118SOL     OW87189   0.365   3.389   3.385 -0.3628  0.1722 -0.1753
27118SOL    HW187190   0.361   3.366   3.292  0.0407 -0.4802 -0.0400
27118SOL    HW287191   0.282   3.432   3.403 -1.2343 -1.3536 -0.4092
27119SOL     OW87192   6.140  10.441   6.242  0.0416  0.1957  0.4268
27119SOL    HW187193   6.141  10.383   6.166 -0.7138  0.4091  0.2441
27119SOL    HW287194   6.075  10.508   6.221  0.9389  1.1628  0.5974
27120SOL     OW87195   6.518   9.476   0.211  0.3723  0.0149  0.0231
27120SOL    HW187196   6.497   9.410   0.276  0.4588 -0.9454 -0.8902
27120SOL    HW287197   6.490   9.559   0.250 -0.9762 -0.7045  0.6490
27121SOL     OW87198   9.525   1.873   6.447  0.3017  0.3656  0.0578
27121SOL    HW187199   9.456   1.810   6.470  1.8654 -1.1658  0.7388
27121SOL    HW287200   9.554   1.846   6.360  0.4455  0.6684  0.0103
27122SOL     OW87201  10.646   7.980   2.516 -0.5300 -0.3798 -0.1722
27122SOL    HW187202  10.656   8.018   2.429  2.5125  0.0466  0.2645
27122SOL    HW287203  10.562   8.014   2.547 -2.8776 -2.3161 -3.6713
27123SOL     OW87204  10.503   6.195   2.692 -0.6066  0.3252  0.2795
27123SOL    HW187205  10.498   6.101   2.710 -0.0961  0.5567  1.8451
27123SOL    HW287206  10.443   6.209   2.619  1.6087 -1.6840 -2.0842
27124SOL     OW87207  10.338   6.381   9.774  0.2355 -0.6806  0.0924
27124SOL    HW187208  10.356   6.387   9.868  2.0897 -3.1666 -0.0106
27124SOL    HW287209  10.248   6.349   9.768  0.5913 -1.9331  1.1043
27125SOL     OW87210   5.753   1.018   7.227 -0.6790 -0.6171 -0.4856
27125SOL    HW187211   5.794   1.043   7.145 -1.6528  0.1207 -0.7730
27125SOL    HW287212   5.659   1.023   7.209 -0.9049 -0.6253  0.6186
27126SOL     OW87213   5.601   5.107   8.570  0.1841  0.2540 -0.0215
27126SOL    HW187214   5.632   5.021   8.598  2.0703  0.3997 -1.4074
27126SOL    HW287215   5.657   5.169   8.617  0.8581  0.5927 -1.2265
27127SOL     OW87216   5.986   4.053   9.361  0.2973  0.1599 -0.7458
27127SOL    HW187217   6.028   4.086   9.282 -0.2152  0.4752 -0.8917
27127SOL    HW287218   5.956   3.965   9.337 -0.2992  0.4438 -1.0676
27128SOL     OW87219   1.382   1.789   3.752  0.0147 -0.3099  0.4800
27128SOL    HW187220   1.315   1.834   3.700  0.6759 -1.1478 -1.1947
27128SOL    HW287221   1.335   1.720   3.798 -0.3342 -0.7698 -0.5332
27129SOL     OW87222  10.332   8.390   2.873 -0.2817  0.1423 -0.4708
27129SOL    HW187223  10.321   8.401   2.968  0.0926 -0.9600 -0.2835
27129SOL    HW287224  10.424   8.367   2.862 -0.5242 -0.5951 -1.0091
27130SOL     OW87225  10.896   9.638   4.333  0.3813 -0.3576 -0.1773
27130SOL    HW187226  10.805   9.650   4.305 -0.5873 -0.8977  2.4541
27130SOL    HW287227  10.912   9.544   4.324  0.1100 -0.5109  0.9387
27131SOL     OW87228   5.008   4.101   7.276 -0.3610  0.0538 -0.4906
27131SOL    HW187229   5.000   4.071   7.186  1.9263  1.5168 -1.2599
27131SOL    HW287230   4.922   4.083   7.315 -0.5889 -3.1079 -2.1265
27132SOL     OW87231   9.815  10.517   6.689  0.1688 -0.2748  0.2085
27132SOL    HW187232   9.848  10.431   6.715  0.3520 -0.7241 -1.4135
27132SOL    HW287233   9.720  10.506   6.684  0.2023 -0.4155 -0.1178
27133SOL     OW87234   3.382   0.385   6.732  0.3404 -0.0762  0.1298
27133SOL    HW187235   3.377   0.291   6.711  0.1492 -0.0180 -0.0885
27133SOL    HW287236   3.445   0.420   6.671 -0.6129  0.1935 -0.7259
27134SOL     OW87237   0.299   9.937   3.953  0.7568  0.6937  0.3590
27134SOL    HW187238   0.263   9.886   4.025 -0.6872  1.4271  0.1920
27134SOL    HW287239   0.343  10.011   3.995  1.8221 -0.0233  0.5491
27135SOL     OW87240  10.269   2.782   5.487  0.2055  0.5210 -0.6444
27135SOL    HW187241  10.304   2.861   5.446 -0.9585  0.7802 -1.1779
27135SOL    HW287242  10.176   2.782   5.464 -0.0709 -0.3609  0.3783
27136SOL     OW87243   0.129   1.518   5.246 -0.1988  0.0531  0.0975
27136SOL    HW187244   0.035   1.520   5.265 -0.7252 -4.1399 -1.0935
27136SOL    HW287245   0.166   1.463   5.314  1.2201  0.7383 -0.0992
27137SOL     OW87246   5.061   8.397   5.904 -0.5286  0.3115 -0.1352
27137SOL    HW187247   5.093   8.344   5.977 -1.7639 -0.6105 -0.2216
27137SOL    HW287248   5.134   8.401   5.842 -0.4727 -1.4923 -0.2201
27138SOL     OW87249   4.574   8.936   9.073  0.0870  0.6143 -0.1698
27138SOL    HW187250   4.611   8.969   8.991 -1.0542 -0.1738 -1.0340
27138SOL    HW287251   4.630   8.862   9.096  1.5770  1.9619  0.8374
27139SOL     OW87252   0.508   6.747   7.800  0.3065 -0.2944 -0.5754
27139SOL    HW187253   0.532   6.781   7.713 -0.0660 -1.0492 -0.9786
27139SOL    HW287254   0.450   6.813   7.836  0.6288  0.1260 -0.8120
27140SOL     OW87255   5.392   9.763  10.864 -0.2378  0.1658 -0.1383
27140SOL    HW187256   5.435   9.827  10.922  0.9819 -0.8515  0.1451
27140SOL    HW287257   5.406   9.797  10.776 -0.2429  0.6712  0.0551
27141SOL     OW87258   5.051   2.602   5.395  0.3140 -0.4379  0.2094
27141SOL    HW187259   5.120   2.537   5.404 -0.0792 -1.2866 -2.2137
27141SOL    HW287260   4.990   2.563   5.333 -1.0046  1.4003  0.2880
27142SOL     OW87261   9.207  10.846   4.882 -0.4841  0.3455  0.6682
27142SOL    HW187262   9.146  10.917   4.863  0.0899  0.3971 -1.1608
27142SOL    HW287263   9.192  10.783   4.812  0.4175 -0.4012  1.1336
27143SOL     OW87264   2.846   3.840   6.740 -0.1457 -0.2117  0.4691
27143SOL    HW187265   2.866   3.887   6.659  2.0832  0.0824  1.1267
27143SOL    HW287266   2.829   3.908   6.804  2.5701 -0.1886  1.2934
27144SOL     OW87267  10.505   0.058   6.161  0.1728 -0.3489 -0.2489
27144SOL    HW187268  10.422   0.032   6.120 -0.1621  0.3112 -0.0094
27144SOL    HW287269  10.572   0.018   6.106 -0.2879 -0.2395 -0.9108
27145SOL     OW87270   2.349   9.137   7.939 -0.5619 -0.0756  0.4500
27145SOL    HW187271   2.413   9.136   8.010  0.2412 -0.5996 -0.2534
27145SOL    HW287272   2.372   9.061   7.886 -1.8233 -0.3171  0.2143
27146SOL     OW87273   5.168   1.164   9.543 -0.0512 -0.1516  0.6079
27146SOL    HW187274   5.138   1.231   9.483  2.3813  0.3859 -0.1307
27146SOL    HW287275   5.134   1.190   9.628  0.0073  1.4613  0.1620
27147SOL     OW87276   3.376   5.299   0.838 -0.2107  0.0600  0.6656
27147SOL    HW187277   3.377   5.384   0.794 -1.6322  1.1445  2.5848
27147SOL    HW287278   3.358   5.236   0.769 -2.0625  1.6448 -0.3887
27148SOL     OW87279   0.725   1.638   7.169 -0.1154 -0.3542 -0.2367
27148SOL    HW187280   0.637   1.660   7.138  0.0142 -1.4541 -1.4990
27148SOL    HW287281   0.769   1.604   7.092  1.0173 -0.9892  0.6591
27149SOL     OW87282   4.540   0.534   0.850  0.8188 -0.5527 -0.0895
27149SOL    HW187283   4.480   0.486   0.907  2.4364  0.3502  2.5857
27149SOL    HW287284   4.533   0.625   0.879  1.5438 -0.0004 -1.5346
27150SOL     OW87285   5.959   6.767   8.107  0.2206  0.2940  0.1904
27150SOL    HW187286   6.020   6.736   8.174 -0.1853 -1.5225 -0.2383
27150SOL    HW287287   6.003   6.843   8.068  0.7900  0.9399  1.9848
27151SOL     OW87288   8.721   6.802   5.507 -0.4700 -0.4087  0.2671
27151SOL    HW187289   8.660   6.730   5.523 -1.4691  0.2304 -0.5385
27151SOL    HW287290   8.782   6.798   5.580 -2.4158 -0.1005  2.0324
27152SOL     OW87291   7.984   4.525   8.595 -0.3870 -0.1368  0.6162
27152SOL    HW187292   7.983   4.585   8.520  0.2844 -1.9771 -0.9509
27152SOL    HW287293   8.073   4.532   8.630 -0.5355  0.3133  0.9208
27153SOL     OW87294   1.125   2.730   5.444 -0.1059 -0.2448 -0.5888
27153SOL    HW187295   1.034   2.733   5.471 -0.1465  2.1537 -0.8107
27153SOL    HW287296   1.123   2.700   5.353 -0.5888 -0.9113 -0.3633
27154SOL     OW87297  10.132   4.016   6.287  0.1091  0.1898  0.3235
27154SOL    HW187298  10.091   4.026   6.373 -0.5952 -2.0901  0.3091
27154SOL    HW287299  10.164   4.104   6.266 -0.7486  1.0632  2.3668
27155SOL     OW87300   8.789   7.000   7.789 -0.4715  0.0502 -0.5634
27155SOL    HW187301   8.871   6.952   7.802  0.1849  1.4400  0.8061
27155SOL    HW287302   8.739   6.985   7.869 -0.7886  0.6268 -0.6444
27156SOL     OW87303  10.494   1.238   0.250 -0.2139 -0.1207  0.1488
27156SOL    HW187304  10.504   1.321   0.202 -0.6566 -1.0059 -1.5540
27156SOL    HW287305  10.580   1.198   0.246 -0.5727 -0.8191 -1.1728
27157SOL     OW87306  10.766   4.418  10.672 -0.3829 -0.0144 -0.1515
27157SOL    HW187307  10.709   4.348  10.640 -0.3347  0.0366 -0.3466
27157SOL    HW287308  10.813   4.379  10.746 -2.6015  0.6971  1.7596
27158SOL     OW87309   1.785  10.090  10.553  0.3393  0.1141 -0.8129
27158SOL    HW187310   1.858  10.028  10.554  0.5314  0.3405  0.8292
27158SOL    HW287311   1.821  10.169  10.513  0.3990 -0.4289 -1.8829
27159SOL     OW87312   5.603   1.894   4.976 -0.5353 -0.1189  0.6269
27159SOL    HW187313   5.634   1.813   4.935 -0.3444  0.7560 -1.0027
27159SOL    HW287314   5.678   1.927   5.025  0.4036  0.6747 -1.2583
27160SOL     OW87315   2.439   1.745   8.165 -0.8514 -0.0681  0.1324
27160SOL    HW187316   2.453   1.687   8.240 -1.0831 -0.7258 -0.3131
27160SOL    HW287317   2.490   1.705   8.095 -1.7340 -0.2494 -0.4261
27161SOL     OW87318   2.066   7.975   5.788  0.1611  0.4277 -0.1906
27161SOL    HW187319   2.042   8.066   5.777  1.9265  0.7705 -1.6324
27161SOL    HW287320   2.005   7.942   5.854 -2.9310  1.6356 -2.2432
27162SOL     OW87321   7.131   4.745   9.772 -0.2628  0.0832  0.0041
27162SOL    HW187322   7.196   4.783   9.714 -0.0695  0.1173  0.2418
27162SOL    HW287323   7.172   4.665   9.804  0.1731  0.7475  1.1440
27163SOL     OW87324   6.641   6.064  10.851 -0.2470 -0.0694 -0.4330
27163SOL    HW187325   6.618   6.153  10.823 -1.1696 -0.2320 -0.2274
27163SOL    HW287326   6.557   6.018  10.856  0.1634 -0.7861  0.0426
27164SOL     OW87327   1.995   2.355   8.799 -0.2763 -0.4864 -0.4425
27164SOL    HW187328   1.971   2.350   8.892  1.3621 -0.8935 -0.0098
27164SOL    HW287329   2.076   2.306   8.793 -2.5327 -4.4238 -2.9418
27165SOL     OW87330   3.212  10.217   6.718 -0.5545  0.5998 -0.1477
27165SOL    HW187331   3.241  10.154   6.653  3.0172  0.5083  1.2896
27165SOL    HW287332   3.179  10.163   6.790  1.3600  0.2819  0.5728
27166SOL     OW87333  10.755   2.865  10.347  0.0363  0.2417 -0.2044
27166SOL    HW187334  10.758   2.786  10.294  1.4680 -0.7868  1.3008
27166SOL    HW287335  10.719   2.836  10.431  1.4109  0.9643  0.6695
27167SOL     OW87336   3.166  10.814   8.524 -0.1476 -0.1915  0.2008
27167SOL    HW187337   3.120  10.734   8.497 -1.3028  1.0210 -1.7415
27167SOL    HW287338   3.229  10.830   8.453 -0.1826  0.7855  0.3765
27168SOL     OW87339   2.366   0.706   2.849 -0.4296 -0.5588 -0.6655
27168SOL    HW187340   2.408   0.752   2.776  1.6029  0.1753  0.8719
27168SOL    HW287341   2.273   0.726   2.839 -0.0793  0.4094 -2.4206
27169SOL     OW87342   9.871   8.746   4.541 -0.1824 -0.0634  0.1620
27169SOL    HW187343   9.900   8.820   4.488  0.8766 -1.0300 -0.6752
27169SOL    HW287344   9.776   8.748   4.537 -0.1638  1.1937  0.0959
27170SOL     OW87345   7.628   5.657   1.408  0.2881 -0.1185  0.0051
27170SOL    HW187346   7.561   5.719   1.377 -0.5089 -0.2672  1.3466
27170SOL    HW287347   7.619   5.657   1.503  0.4092 -2.1473  0.0659
27171SOL     OW87348   3.705   0.805   1.881  0.3973 -0.1963 -0.0710
27171SOL    HW187349   3.773   0.872   1.893  0.4214 -0.4330  1.2662
27171SOL    HW287350   3.710   0.783   1.788  3.3295 -1.4022  0.2577
27172SOL     OW87351   7.601   7.384   4.543  0.0113  0.0596  0.1429
27172SOL    HW187352   7.623   7.406   4.452  1.4018  0.3155  0.5216
27172SOL    HW287353   7.668   7.427   4.595  0.8306 -2.2826  1.1223
27173SOL     OW87354   7.396   1.346   8.227  0.3134 -0.5197 -1.1653
27173SOL    HW187355   7.365   1.270   8.275  0.3158  0.0888 -0.1655
27173SOL    HW287356   7.445   1.310   8.153  0.6672 -1.4893 -0.4742
27174SOL     OW87357   0.827   5.585   6.156  0.0771 -0.2990 -0.3743
27174SOL    HW187358   0.740   5.564   6.123 -0.5945  0.8421  0.5989
27174SOL    HW287359   0.883   5.585   6.078 -0.9096 -0.4110 -1.1025
27175SOL     OW87360   5.659   8.426   0.018  0.4528 -0.4727  0.5112
27175SOL    HW187361   5.674   8.462  -0.069  1.8607 -1.6763  0.2321
27175SOL    HW287362   5.733   8.457   0.070 -1.1821  1.6212  1.8066
27176SOL     OW87363   8.135   7.288   3.307  0.1339  0.3368  0.5872
27176SOL    HW187364   8.070   7.231   3.348 -0.9656  1.3918  0.3490
27176SOL    HW287365   8.155   7.354   3.373  1.0179 -0.0070  0.6761
27177SOL     OW87366   0.916   5.782   6.332 -0.1072 -1.0737 -0.0996
27177SOL    HW187367   0.874   5.772   6.417 -1.9562  0.0435 -0.8261
27177SOL    HW287368   0.869   5.723   6.273 -0.5252 -0.0116 -0.8690
27178SOL     OW87369   6.546   4.042   2.032 -0.3295 -0.0209 -0.0749
27178SOL    HW187370   6.474   4.096   2.000 -0.2988 -1.2152 -2.3977
27178SOL    HW287371   6.625   4.095   2.019 -0.5074  0.2169 -0.1800
27179SOL     OW87372   8.312   3.509  10.368  0.6813 -0.2429  0.2892
27179SOL    HW187373   8.229   3.477  10.403  0.7697 -0.6736  0.1096
27179SOL    HW287374   8.293   3.526  10.276  0.2291  1.6461  0.6966
27180SOL     OW87375   1.455   3.263   4.540 -0.7974  0.1997 -0.2243
27180SOL    HW187376   1.429   3.288   4.629  0.1761  1.3682 -0.2359
27180SOL    HW287377   1.540   3.221   4.551 -1.5299 -1.3897 -0.4288
27181SOL     OW87378   3.820  10.414   6.475 -0.6930 -0.2002 -0.2540
27181SOL    HW187379   3.890  10.473   6.504 -1.4439  0.1115  0.9652
27181SOL    HW287380   3.814  10.429   6.381 -0.4204  1.1975 -0.0728
27182SOL     OW87381   8.576   4.870   7.302  0.3103 -0.2133  0.2265
27182SOL    HW187382   8.569   4.794   7.245  0.6938  0.5429 -0.8598
27182SOL    HW287383   8.487   4.888   7.331  0.4197 -2.1673  2.0085
27183SOL     OW87384   4.116   1.864  10.442  0.2939  0.0390 -0.2478
27183SOL    HW187385   4.172   1.806  10.390  1.1960  1.2694 -0.7051
27183SOL    HW287386   4.065   1.913  10.377 -0.1480  0.0623  0.1089
27184SOL     OW87387   6.789   6.749   4.010 -0.6640 -0.3485 -0.8293
27184SOL    HW187388   6.723   6.740   3.941 -0.7405 -1.7884 -0.5986
27184SOL    HW287389   6.761   6.687   4.077  0.9224 -0.9925 -0.7326
27185SOL     OW87390   7.598   0.137   7.801 -0.4518  0.1703  0.2036
27185SOL    HW187391   7.618   0.079   7.728 -2.0169  1.0311 -0.9816
27185SOL    HW287392   7.683   0.169   7.831  0.2004  0.2418 -1.6269
27186SOL     OW87393  10.699   9.857   3.985 -0.3822 -0.5645  0.1872
27186SOL    HW187394  10.625   9.912   3.958 -0.0723 -0.4311 -0.3993
27186SOL    HW287395  10.771   9.883   3.928 -0.0103 -1.0289  0.4344
27187SOL     OW87396   8.713   1.569   1.262 -0.3533 -0.1848  0.4251
27187SOL    HW187397   8.712   1.638   1.329 -2.6346 -0.2072  0.4861
27187SOL    HW287398   8.766   1.606   1.191  1.5163  0.1313  1.8705
27188SOL     OW87399   5.336   1.846   2.477 -0.2494  0.4998  0.1501
27188SOL    HW187400   5.282   1.889   2.544  0.9594  2.3254  0.0166
27188SOL    HW287401   5.363   1.764   2.518  0.0312  1.3391  1.7518
27189SOL     OW87402   9.505  10.711   0.877  0.2321 -0.2848 -0.1423
27189SOL    HW187403   9.599  10.721   0.888  0.0662  3.4655 -0.9322
27189SOL    HW287404   9.486  10.751   0.792 -1.9270 -2.6763 -0.9400
27190SOL     OW87405   8.516   6.031   4.583 -0.3577 -0.1876  0.0396
27190SOL    HW187406   8.606   6.026   4.615  0.3438 -1.4490 -1.9932
27190SOL    HW287407   8.505   6.123   4.558 -0.3792  0.4511  2.2005
27191SOL     OW87408  10.319   0.089   5.895  0.0436 -0.6423 -0.0573
27191SOL    HW187409  10.300   0.173   5.937  0.8125 -1.3099  1.7212
27191SOL    HW287410  10.347   0.112   5.807  1.9653  1.1284  0.9296
27192SOL     OW87411  10.058   5.473   3.455  0.3674 -0.5042 -0.0275
27192SOL    HW187412   9.996   5.431   3.395  1.4782 -0.5218 -1.2186
27192SOL    HW287413  10.123   5.405   3.474  0.9063 -0.0227 -0.1050
27193SOL     OW87414   1.140   1.109   9.486 -1.2389 -0.0780 -0.1116
27193SOL    HW187415   1.083   1.156   9.425 -0.5390 -0.8990 -1.4475
27193SOL    HW287416   1.080   1.065   9.546 -1.9410  0.8447 -0.1182
27194SOL     OW87417   1.582   9.303   6.369 -0.4267  0.2152 -0.0416
27194SOL    HW187418   1.667   9.326   6.331 -0.1528 -0.3094  0.2323
27194SOL    HW287419   1.555   9.382   6.416 -0.0749  0.3833 -0.1143
27195SOL     OW87420   5.260   7.549  10.844  0.5172  0.2500 -0.3102
27195SOL    HW187421   5.318   7.624  10.856  1.7876 -0.6548 -0.6362
27195SOL    HW287422   5.310   7.474  10.875 -0.3221 -0.6138 -0.9843
27196SOL     OW87423   9.330   0.995  10.804 -0.2009  0.4378  0.6281
27196SOL    HW187424   9.285   1.010  10.721 -2.4321  1.4521  1.9239
27196SOL    HW287425   9.394   0.927  10.785 -1.4661 -0.2218 -1.6369
27197SOL     OW87426   2.778   8.330   6.196 -0.1967 -0.0266  0.5901
27197SOL    HW187427   2.705   8.356   6.252  0.1147  0.9885  0.5486
27197SOL    HW287428   2.846   8.395   6.214  0.0312  0.1184 -0.7319
27198SOL     OW87429   0.812  10.647   9.467 -0.2399  0.0809  0.4923
27198SOL    HW187430   0.843  10.737   9.452  2.0082 -0.8718 -1.2254
27198SOL    HW287431   0.843  10.625   9.555  0.1795  0.6256  0.4860
27199SOL     OW87432   7.311   9.626   6.644 -0.6468 -0.0175 -0.1693
27199SOL    HW187433   7.309   9.634   6.548 -1.9870 -0.5888 -0.2087
27199SOL    HW287434   7.220   9.609   6.669 -0.1730 -0.8208  1.1216
27200SOL     OW87435   5.496   3.338   9.473 -0.0254  0.0667  0.0225
27200SOL    HW187436   5.455   3.406   9.525 -1.2314 -0.4846 -0.1705
27200SOL    HW287437   5.436   3.264   9.478  0.8374 -0.6960 -0.4678
27201SOL     OW87438   7.738   0.722   3.611 -0.2549  0.0446 -0.1692
27201SOL    HW187439   7.786   0.668   3.547 -0.3952  0.6922 -0.8361
27201SOL    HW287440   7.680   0.661   3.655 -1.2586 -0.1746 -1.7215
27202SOL     OW87441   0.970   0.664   9.887 -0.1208  0.3426  0.5641
27202SOL    HW187442   0.936   0.754   9.892 -2.1346 -0.4161  1.4148
27202SOL    HW287443   0.924   0.625   9.814 -0.1757 -0.3564  0.9657
27203SOL     OW87444   4.061   1.103   9.678 -0.2531  0.0621  0.1004
27203SOL    HW187445   4.097   1.092   9.590 -1.6907  1.9741 -0.8146
27203SOL    HW287446   4.050   1.014   9.712  1.3400 -0.6695 -1.2023
27204SOL     OW87447   9.133   0.139   9.198  0.7275  0.4570 -0.0193
27204SOL    HW187448   9.179   0.102   9.123  0.6295 -1.7407  0.9405
27204SOL    HW287449   9.171   0.095   9.274 -0.5535  1.1618  1.0661
27205SOL     OW87450   8.980  10.580  10.261 -0.5792  0.2386  0.0689
27205SOL    HW187451   9.072  10.583  10.287 -0.5203  0.8061 -0.1764
27205SOL    HW287452   8.934  10.549  10.339 -0.3673  1.5917  0.7751
27206SOL     OW87453   1.073   1.731   4.406  0.5003  0.2852  0.2128
27206SOL    HW187454   1.119   1.714   4.488  0.2327 -0.7777  0.1565
27206SOL    HW287455   1.140   1.724   4.339  0.7142  1.1303  0.3227
27207SOL     OW87456   3.921   8.248   2.475  0.5448  0.2545 -0.0934
27207SOL    HW187457   3.870   8.190   2.531  0.5811 -0.5041 -0.8190
27207SOL    HW287458   4.010   8.244   2.509  0.1518  1.6472  1.2313
27208SOL     OW87459   3.841   0.739   5.157 -0.6249  0.0790 -0.8916
27208SOL    HW187460   3.928   0.733   5.119  0.6671  2.0926  1.4287
27208SOL    HW287461   3.813   0.648   5.167  0.8619 -0.5940 -2.3468
27209SOL     OW87462   2.470   9.771   8.893 -0.2891  0.1109  0.3813
27209SOL    HW187463   2.443   9.681   8.877 -1.7608  0.5558  0.2476
27209SOL    HW287464   2.413   9.802   8.963 -0.9119  1.4230 -0.6565
27210SOL     OW87465   5.463   4.431   5.952 -0.3410  0.1204  0.2803
27210SOL    HW187466   5.523   4.474   5.891  1.1415 -1.0430  0.8491
27210SOL    HW287467   5.454   4.492   6.025 -0.8682  0.8404 -0.3796
27211SOL     OW87468   4.580   5.967   3.682  0.0221  0.0133 -0.1908
27211SOL    HW187469   4.580   5.918   3.765 -1.2721  2.4337  1.3416
27211SOL    HW287470   4.487   5.975   3.659  0.2672  0.9090 -0.9247
27212SOL     OW87471   1.770   9.777   8.206  0.4811  0.4351 -0.5973
27212SOL    HW187472   1.706   9.753   8.138  0.8183 -1.6567 -0.2336
27212SOL    HW287473   1.792   9.868   8.187  0.5416 -0.0646 -3.2838
27213SOL     OW87474   8.634   5.172   9.745  0.7394 -0.3491 -0.2999
27213SOL    HW187475   8.624   5.167   9.650  0.2876  1.0016 -0.3534
27213SOL    HW287476   8.561   5.121   9.780 -0.8461  1.5160 -0.7104
27214SOL     OW87477   0.669   5.239   1.804 -0.0232  0.3465  0.3578
27214SOL    HW187478   0.573   5.229   1.803  0.1273 -1.4866  0.3869
27214SOL    HW287479   0.691   5.252   1.896 -0.2796  1.6056  0.2664
27215SOL     OW87480   1.071   5.104   3.136 -0.7188  0.4645  0.6015
27215SOL    HW187481   1.143   5.042   3.118  0.5766  1.1678  2.9132
27215SOL    HW287482   1.075   5.167   3.065 -0.6526 -0.8699 -0.6228
27216SOL     OW87483   1.208   4.773   2.565  0.2743  0.2415  0.3059
27216SOL    HW187484   1.299   4.747   2.568  0.5465  1.1756  0.4906
27216SOL    HW287485   1.210   4.868   2.553 -0.6407  0.5730  2.3638
27217SOL     OW87486   0.165   4.199   9.107  0.0776 -0.4174  0.3390
27217SOL    HW187487   0.105   4.260   9.150  0.4454  0.2277 -0.0514
27217SOL    HW287488   0.251   4.240   9.114  0.5442 -1.4870  1.1799
27218SOL     OW87489   1.938   4.506   6.255 -0.5569  0.1525  0.0235
27218SOL    HW187490   1.954   4.577   6.317 -1.4478  0.9957 -0.6837
27218SOL    HW287491   1.882   4.545   6.188  0.5507 -0.6624 -1.4459
27219SOL     OW87492  10.316   4.239  10.029  0.4253  0.1954  0.2670
27219SOL    HW187493  10.264   4.244  10.109 -1.4742  0.1443 -0.9020
27219SOL    HW287494  10.379   4.169  10.046 -1.0080 -0.9449  1.1406
27220SOL     OW87495   5.722   6.244   6.154 -0.3369  0.1012  0.1235
27220SOL    HW187496   5.667   6.287   6.089  0.1887  0.1208 -0.3152
27220SOL    HW287497   5.767   6.175   6.105 -0.2868 -0.1847  0.5679
27221SOL     OW87498   8.511   2.739   6.386 -0.0682  0.3878 -0.2142
27221SOL    HW187499   8.591   2.699   6.421 -0.1951 -0.7240 -1.1504
27221SOL    HW287500   8.450   2.739   6.459  0.8448  1.4621  0.5835
27222SOL     OW87501   8.380   5.530   8.099 -0.4078 -0.2425 -0.2070
27222SOL    HW187502   8.362   5.562   8.188  0.9746 -0.2214  0.0899
27222SOL    HW287503   8.365   5.435   8.105 -0.4735 -0.2199  0.0121
27223SOL     OW87504  10.666   8.056   2.267 -0.6931  0.0573 -0.1617
27223SOL    HW187505  10.672   8.138   2.218 -0.2145  0.8253  1.1254
27223SOL    HW287506  10.689   7.988   2.204  1.7374  1.1638 -0.5523
27224SOL     OW87507   6.914   7.507   0.506  0.2438 -0.1432  0.0444
27224SOL    HW187508   6.847   7.536   0.568 -0.2872 -1.7987  0.3059
27224SOL    HW287509   6.996   7.539   0.543 -0.3196  1.2998  0.0953
27225SOL     OW87510   4.670   1.315   9.872  0.8563  0.2280  0.1772
27225SOL    HW187511   4.742   1.326   9.811  0.9435  1.2694  0.4556
27225SOL    HW287512   4.707   1.264   9.944  0.3094 -2.5994 -1.3654
27226SOL     OW87513   4.085   8.873   4.007  0.0654 -0.0864 -0.2445
27226SOL    HW187514   4.046   8.841   3.925  0.8781 -1.6888 -0.0303
27226SOL    HW287515   4.174   8.897   3.983 -0.0417  0.5161 -0.0526
27227SOL     OW87516   7.098   4.902   1.115  0.4643  0.4783 -0.0609
27227SOL    HW187517   7.057   4.899   1.028 -0.6963  1.7770  0.3982
27227SOL    HW287518   7.025   4.891   1.176  0.9647  1.5639  0.7725
27228SOL     OW87519   2.277   1.031   5.880 -0.7887  0.0369  0.0941
27228SOL    HW187520   2.210   1.077   5.931  0.2837  0.3660  1.2327
27228SOL    HW287521   2.266   0.939   5.903 -0.3024  0.1856  0.9424
27229SOL     OW87522   6.395   6.672   7.741 -0.0329  0.4440  0.2915
27229SOL    HW187523   6.326   6.640   7.684  0.5110  1.2244 -0.8351
27229SOL    HW287524   6.363   6.756   7.773 -0.2418  0.1104  0.9711
27230SOL     OW87525  10.711   2.763   0.268 -0.5907  0.7604  0.2688
27230SOL    HW187526  10.641   2.761   0.202  1.1214  0.7964 -1.6636
27230SOL    HW287527  10.760   2.683   0.254 -0.3254  0.6409  1.7248
27231SOL     OW87528   1.266   2.427   6.368  0.1218  0.0067 -0.1323
27231SOL    HW187529   1.234   2.380   6.290  0.0757  0.9590 -0.7053
27231SOL    HW287530   1.265   2.362   6.437 -2.3503 -0.2324 -0.3072
27232SOL     OW87531   0.927   5.913   0.808  0.3948 -0.3055  0.1473
27232SOL    HW187532   0.882   5.837   0.845 -1.7981  0.4613 -0.7804
27232SOL    HW287533   1.001   5.876   0.760 -1.1036 -1.9803 -0.9819
27233SOL     OW87534   3.320   9.293   6.086 -0.3342  0.1847  0.1804
27233SOL    HW187535   3.307   9.198   6.094  0.7034 -0.1536 -1.5734
27233SOL    HW287536   3.332   9.308   5.992  3.7694  1.4057  0.6802
27234SOL     OW87537   0.181   6.523   3.100 -0.0328 -0.5577 -0.3827
27234SOL    HW187538   0.207   6.439   3.138 -0.9632 -0.4148  0.6308
27234SOL    HW287539   0.145   6.572   3.174  0.1890  0.6170 -1.0219
27235SOL     OW87540   1.199   7.571   7.749  0.5411 -0.2661 -0.1770
27235SOL    HW187541   1.111   7.556   7.714  1.3251 -0.2082 -2.3396
27235SOL    HW287542   1.184   7.609   7.835 -1.5779  0.8732 -0.9643
27236SOL     OW87543   1.763   0.249   3.805  0.2116  0.0447 -0.4904
27236SOL    HW187544   1.733   0.258   3.896  1.0731 -0.4229 -0.1432
27236SOL    HW287545   1.858   0.238   3.813  0.3020  0.0876 -1.4579
27237SOL     OW87546   4.066   6.410   8.202  0.2934 -0.3261 -0.3246
27237SOL    HW187547   4.128   6.443   8.268  0.6422  0.7495 -1.1656
27237SOL    HW287548   4.119   6.393   8.125 -0.4133  0.3612 -0.9759
27238SOL     OW87549   1.298   3.943   4.874 -0.6252 -0.0308 -0.0877
27238SOL    HW187550   1.374   4.000   4.861  0.5033 -1.3657  0.3238
27238SOL    HW287551   1.276   3.952   4.967 -0.3460 -0.3687  0.0137
27239SOL     OW87552   3.737   6.184   0.830  0.0810  0.0757  0.5362
27239SOL    HW187553   3.828   6.214   0.831  0.7616 -1.8008  0.0255
27239SOL    HW287554   3.700   6.215   0.913  1.8439 -0.9552  1.7840
27240SOL     OW87555   2.585   2.952   9.599 -0.0991  0.3558 -0.0913
27240SOL    HW187556   2.610   3.018   9.664  1.6141  0.5371 -0.8852
27240SOL    HW287557   2.582   2.870   9.648  0.3590  0.6198  0.3932
27241SOL     OW87558   2.841   6.027   8.099  0.1340  0.7030 -0.0005
27241SOL    HW187559   2.827   5.933   8.111  0.7346  0.4618 -1.0847
27241SOL    HW287560   2.790   6.068   8.169 -1.0852 -0.3793 -0.2210
27242SOL     OW87561   4.947   9.071   9.512 -0.0477  0.8941 -0.2999
27242SOL    HW187562   4.865   9.021   9.518 -0.6164  1.7400 -0.8969
27242SOL    HW287563   5.015   9.004   9.519 -0.7856  0.0978 -0.4484
27243SOL     OW87564   9.567   9.446   0.769  0.2372  0.2070  0.0810
27243SOL    HW187565   9.487   9.440   0.717  0.7714  0.9607 -0.8490
27243SOL    HW287566   9.559   9.375   0.833 -0.5479 -0.6015 -0.8769
27244SOL     OW87567   0.678   3.518   6.316 -0.4292  0.3201 -0.0827
27244SOL    HW187568   0.630   3.501   6.397  0.0718  1.2198  0.4260
27244SOL    HW287569   0.613   3.553   6.256 -0.7007  0.1550  0.1152
27245SOL     OW87570   0.180   4.046   8.127  0.0104  0.3499  0.1875
27245SOL    HW187571   0.107   3.988   8.150  0.1847 -0.0206 -0.1778
27245SOL    HW287572   0.147   4.099   8.055  0.2257 -0.0989 -0.2527
27246SOL     OW87573   2.364   3.058   3.407 -0.6750 -0.2055  0.0578
27246SOL    HW187574   2.354   3.147   3.374  1.3994 -0.0803 -0.3666
27246SOL    HW287575   2.278   3.036   3.443 -1.3878  1.7475 -0.3248
27247SOL     OW87576   1.981  10.178   5.635  0.2192 -1.0024 -0.3473
27247SOL    HW187577   1.996  10.116   5.564 -1.7200  1.7142 -3.4002
27247SOL    HW287578   1.893  10.156   5.667  0.3978 -1.1336  0.0622
27248SOL     OW87579   1.969   3.162   0.519 -0.4864 -0.6425 -0.0129
27248SOL    HW187580   1.945   3.211   0.598 -0.0137 -0.6911  0.1678
27248SOL    HW287581   2.061   3.139   0.533 -1.0012 -2.6621  0.4858
27249SOL     OW87582   6.711  10.511   2.458 -0.1742  0.1861 -0.4617
27249SOL    HW187583   6.698  10.418   2.476  3.1860 -0.6088 -1.4761
27249SOL    HW287584   6.729  10.515   2.364  0.5203  1.7503 -0.3010
27250SOL     OW87585  10.752   0.800   4.760 -0.8498 -0.0634 -0.3785
27250SOL    HW187586  10.803   0.720   4.747 -1.3517 -0.7116  1.3442
27250SOL    HW287587  10.777   0.830   4.848 -0.4704  1.8525 -1.0810
27251SOL     OW87588   2.190  10.590   8.361 -0.1304 -1.0062 -0.6701
27251SOL    HW187589   2.161  10.569   8.450 -0.2197 -1.8645 -0.8915
27251SOL    HW287590   2.197  10.505   8.317  2.2389 -0.8153 -0.7911
27252SOL     OW87591   4.536   3.887   7.365  0.0989 -0.1168 -0.3341
27252SOL    HW187592   4.522   3.806   7.316 -0.9190  0.3725 -0.8961
27252SOL    HW287593   4.518   3.863   7.456 -1.7193 -0.2112 -0.6707
27253SOL     OW87594   1.994   3.407   1.833 -0.7922 -0.2330  0.4761
27253SOL    HW187595   2.046   3.381   1.757 -1.1353 -0.8089  0.4315
27253SOL    HW287596   2.055   3.455   1.889 -0.8880  1.5279 -0.8529
27254SOL     OW87597   7.927   4.102   0.225 -0.2017 -0.2696 -0.2805
27254SOL    HW187598   7.908   4.128   0.135 -2.6335 -1.1348 -0.0914
27254SOL    HW287599   7.954   4.010   0.218 -0.3875 -0.3355 -0.1234
27255SOL     OW87600   1.774   8.484   6.853 -0.3252  0.4822  0.0811
27255SOL    HW187601   1.858   8.440   6.841  0.0218  1.0026  0.5858
27255SOL    HW287602   1.728   8.430   6.918  0.1213  0.8866  0.7428
27256SOL     OW87603   4.777   7.511   1.739  0.7542  0.3463 -0.2233
27256SOL    HW187604   4.799   7.588   1.792  0.1424  0.7614 -0.5622
27256SOL    HW287605   4.784   7.437   1.800 -0.9856  0.9211  0.7385
27257SOL     OW87606   6.463   5.729   2.085 -0.1491  0.3055 -0.5852
27257SOL    HW187607   6.457   5.742   2.179 -0.9120  0.1146 -0.5986
27257SOL    HW287608   6.413   5.649   2.069 -0.8821  0.8817 -1.2659
27258SOL     OW87609   4.911   9.923   3.047 -0.2533  0.6040  0.1463
27258SOL    HW187610   4.951   9.930   3.133  0.6236 -0.8796 -0.1090
27258SOL    HW287611   4.851   9.849   3.054  0.0558  0.2773 -0.5941
27259SOL     OW87612   3.201  10.463   9.053  0.3607 -0.4322 -0.2818
27259SOL    HW187613   3.153  10.543   9.034  1.6793  0.6923  0.8647
27259SOL    HW287614   3.175  10.402   8.984 -0.5365  1.0413 -1.2930
27260SOL     OW87615   8.230   1.995   8.170  0.0116  0.2551  0.7570
27260SOL    HW187616   8.298   2.047   8.213  1.4705  1.7974 -2.9776
27260SOL    HW287617   8.165   2.059   8.141 -0.4541 -0.5566 -0.0425
27261SOL     OW87618   4.300   3.358   8.277 -0.0961 -0.2386  0.0011
27261SOL    HW187619   4.384   3.336   8.236  0.4354 -0.1144  0.9722
27261SOL    HW287620   4.240   3.289   8.250  0.8075 -1.3403  0.7376
27262SOL     OW87621   5.214   1.537   0.738  0.2992 -0.0179  0.5254
27262SOL    HW187622   5.273   1.474   0.696  0.8026 -0.3922  1.7399
27262SOL    HW287623   5.240   1.622   0.703 -1.1209 -0.4973 -2.0188
27263SOL     OW87624   0.555   8.834   2.463  0.0191 -0.3821 -0.3521
27263SOL    HW187625   0.495   8.900   2.430  0.0850 -0.3074 -0.3224
27263SOL    HW287626   0.500   8.775   2.515 -0.0957 -0.5340 -0.6431
27264SOL     OW87627   1.908   5.127   5.840  0.1253  0.2046 -0.5022
27264SOL    HW187628   1.844   5.084   5.897  0.6161 -1.2197 -0.9892
27264SOL    HW287629   1.863   5.139   5.757 -0.5353  2.1341  0.0698
27265SOL     OW87630   2.403   0.598   3.625  0.2098 -0.5437  0.3238
27265SOL    HW187631   2.450   0.600   3.708 -0.1635  1.7991  0.5602
27265SOL    HW287632   2.464   0.635   3.562 -0.7551  1.3311  0.3866
27266SOL     OW87633   1.808  10.726   7.094 -0.3329 -0.3662  1.1998
27266SOL    HW187634   1.774  10.748   7.007 -0.4352 -1.4780  0.9539
27266SOL    HW287635   1.733  10.739   7.153 -0.8854 -1.7246  0.8136
27267SOL     OW87636   3.377   5.928   1.066 -0.0925  0.7980  0.0331
27267SOL    HW187637   3.396   6.001   1.007 -3.1616  1.9667  0.2908
27267SOL    HW287638   3.408   5.958   1.151  2.6179 -0.1117 -0.5350
27268SOL     OW87639   6.422   6.384   5.854  0.3067  0.2036  0.1654
27268SOL    HW187640   6.489   6.393   5.785  0.4519 -3.0689 -0.3090
27268SOL    HW287641   6.345   6.427   5.818  0.7060 -0.4542 -1.6179
27269SOL     OW87642   3.153   7.592   6.954 -0.3127 -0.2617 -0.5799
27269SOL    HW187643   3.223   7.536   6.987 -1.1856 -1.0786 -0.0539
27269SOL    HW287644   3.147   7.571   6.861  0.0186 -0.3050 -0.5942
27270SOL     OW87645   7.850   0.437   7.419 -0.2512  0.1292  0.0519
27270SOL    HW187646   7.787   0.370   7.393  1.1544 -1.6086  0.9382
27270SOL    HW287647   7.887   0.405   7.501  1.0938  1.5560  0.0509
27271SOL     OW87648   4.563  10.263   9.113 -0.6749 -0.2565  0.4830
27271SOL    HW187649   4.588  10.337   9.058  0.0698 -0.4350  0.5686
27271SOL    HW287650   4.587  10.186   9.062  0.7202 -0.4245  1.3351
27272SOL     OW87651   7.505   1.501   5.715 -0.0797 -0.1894  0.0625
27272SOL    HW187652   7.581   1.470   5.763 -1.1108 -2.5044  0.3207
27272SOL    HW287653   7.509   1.456   5.631  0.1423  1.6188 -0.9638
27273SOL     OW87654  10.249   9.017   3.827  0.0177 -0.0491  0.0932
27273SOL    HW187655  10.177   8.955   3.838  0.4933 -0.6975 -0.3560
27273SOL    HW287656  10.327   8.963   3.825  0.5586  0.6770  0.8918
27274SOL     OW87657   6.356   4.866   8.312 -0.6397  0.2076 -0.0604
27274SOL    HW187658   6.337   4.930   8.243  2.8861 -0.0011 -1.4168
27274SOL    HW287659   6.306   4.788   8.286 -0.8176  0.7169 -1.3521
27275SOL     OW87660   3.381   1.621  10.261  0.2790 -0.1346 -0.1309
27275SOL    HW187661   3.370   1.587  10.350  0.3118  1.9263  0.7115
27275SOL    HW287662   3.466   1.586  10.233 -0.6894 -2.5845 -0.2494
27276SOL     OW87663  10.670   9.621   2.257  0.2945  0.0786  0.1838
27276SOL    HW187664  10.717   9.628   2.174 -0.1826 -1.9637 -0.3047
27276SOL    HW287665  10.725   9.566   2.312  0.5900  1.3871  1.2467
27277SOL     OW87666   7.308   4.977   5.446  0.2429 -1.0758 -0.2005
27277SOL    HW187667   7.252   5.002   5.373  0.3464 -1.6478 -0.4819
27277SOL    HW287668   7.310   5.054   5.502  0.9969 -0.2667 -1.3034
27278SOL     OW87669   1.783   4.036   0.427 -0.0973  0.2010 -0.1187
27278SOL    HW187670   1.810   4.120   0.392  1.5089 -0.0893  0.3616
27278SOL    HW287671   1.826   4.030   0.512 -1.1534 -0.5975  0.3907
27279SOL     OW87672   1.052   5.177   9.738 -0.9736 -0.0111 -0.0056
27279SOL    HW187673   0.978   5.220   9.781  0.7210  1.0017  2.0921
27279SOL    HW287674   1.099   5.249   9.695 -1.1881 -0.6485 -1.3499
27280SOL     OW87675  10.871   5.497   1.809 -0.2690 -0.2410 -0.0832
27280SOL    HW187676  10.954   5.543   1.800  0.0714 -0.9158 -0.4997
27280SOL    HW287677  10.859   5.488   1.904  0.3870 -0.5689 -0.0255
27281SOL     OW87678   4.850   5.273   5.591 -0.0308 -0.3055  0.3810
27281SOL    HW187679   4.758   5.296   5.608 -0.5743 -2.2645  0.3228
27281SOL    HW287680   4.858   5.276   5.496  0.4009  1.3022  0.4404
27282SOL     OW87681   0.771   2.351   0.428 -0.3445 -0.5999 -0.3798
27282SOL    HW187682   0.726   2.411   0.487 -1.0798 -0.0927 -1.4228
27282SOL    HW287683   0.737   2.264   0.450  0.5428 -0.6357  0.9683
27283SOL     OW87684   3.399   4.231   1.689  0.3703  0.4015  0.0104
27283SOL    HW187685   3.455   4.154   1.699 -0.1370  0.1075  0.6012
27283SOL    HW287686   3.457   4.305   1.709  0.3993  0.0652  1.2125
27284SOL     OW87687   4.562   2.170   4.575  0.4390 -0.1245  0.6390
27284SOL    HW187688   4.634   2.177   4.513  0.1288 -2.1097 -0.0146
27284SOL    HW287689   4.514   2.092   4.548 -2.7856  1.7989  0.1938
27285SOL     OW87690   4.645   5.021   5.473  0.3174 -0.0301  0.1012
27285SOL    HW187691   4.720   5.057   5.426  0.6011 -0.5957  0.1130
27285SOL    HW287692   4.569   5.061   5.432  0.5701 -0.3723 -0.7181
27286SOL     OW87693   7.927   9.827   9.165 -0.1348  0.4148 -0.1006
27286SOL    HW187694   7.934   9.764   9.093 -2.7328  0.7250 -0.7384
27286SOL    HW287695   7.978   9.787   9.236  1.3171 -0.5851 -1.6136
27287SOL     OW87696  10.392   2.257   2.501 -0.0011  0.7536 -0.2235
27287SOL    HW187697  10.454   2.233   2.432 -1.5164 -0.3230 -1.3018
27287SOL    HW287698  10.366   2.174   2.540 -0.0927  1.2597  0.8080
27288SOL     OW87699   9.169   1.177   9.969  0.0623 -0.1913  0.8303
27288SOL    HW187700   9.091   1.135  10.006  0.1101  1.7639  3.3841
27288SOL    HW287701   9.241   1.117   9.990 -0.3897 -0.7979  0.6894
27289SOL     OW87702   3.464   3.029   4.324 -0.1462  0.7476 -0.0361
27289SOL    HW187703   3.403   2.987   4.264 -0.4729  1.8047 -0.4495
27289SOL    HW287704   3.409   3.083   4.381  0.5029  3.0632 -1.5036
27290SOL     OW87705   1.619   5.775   9.359  0.9021  0.1697 -0.1321
27290SOL    HW187706   1.696   5.812   9.317  0.2584  2.6622  0.7047
27290SOL    HW287707   1.572   5.731   9.288  1.9972  0.4882 -1.0783
27291SOL     OW87708   1.691   8.833   4.556  0.1860  0.2678  0.2568
27291SOL    HW187709   1.685   8.774   4.631 -2.7434  0.9091  0.6375
27291SOL    HW287710   1.647   8.786   4.485  0.9141  0.6029 -0.4387
27292SOL     OW87711   9.655   6.807   8.426  0.0784  0.1262  0.1338
27292SOL    HW187712   9.702   6.858   8.492 -1.0499  1.2485  0.1305
27292SOL    HW287713   9.705   6.820   8.345  1.5462 -1.3761  0.7635
27293SOL     OW87714   4.553   9.241   5.706 -0.3191 -0.7841 -0.2533
27293SOL    HW187715   4.609   9.192   5.767 -1.2377  0.0418  1.3020
27293SOL    HW287716   4.464   9.212   5.727 -0.9811  2.0276  1.2676
27294SOL     OW87717  10.576   0.921   1.912  0.5279 -0.4756 -0.0104
27294SOL    HW187718  10.623   0.869   1.847 -0.7922 -2.5770  0.6067
27294SOL    HW287719  10.521   0.980   1.861  0.5509 -1.1156 -0.7820
27295SOL     OW87720   2.619   9.102   1.448 -0.2089 -0.7130 -0.2018
27295SOL    HW187721   2.578   9.043   1.511 -0.5028 -0.2029  0.0985
27295SOL    HW287722   2.641   9.180   1.500  0.4289 -0.6705 -0.5295
27296SOL     OW87723   8.934   0.046   9.915 -0.2816 -0.1552 -0.5012
27296SOL    HW187724   8.932  -0.039   9.960  2.5573 -0.7466 -1.3052
27296SOL    HW287725   8.930   0.023   9.822 -2.3892  0.8425 -0.7137
27297SOL     OW87726   5.831  10.248   9.150  0.0027 -0.0880  0.0479
27297SOL    HW187727   5.910  10.218   9.105 -1.2646 -0.7946 -1.8309
27297SOL    HW287728   5.759  10.200   9.108 -1.4404  0.5459  1.6716
27298SOL     OW87729   5.238   6.906   4.800  0.4491 -0.1391 -0.5088
27298SOL    HW187730   5.199   6.865   4.877 -0.1959 -1.7203 -1.6183
27298SOL    HW287731   5.168   6.958   4.762  0.4789 -0.1270 -0.5476
27299SOL     OW87732   1.022   1.446   0.570 -0.3586  0.1028  0.0028
27299SOL    HW187733   1.088   1.429   0.502  1.0211  0.2246  1.2418
27299SOL    HW287734   0.992   1.535   0.553 -0.2828  0.0104 -0.6475
27300SOL     OW87735   6.372   7.771   9.140 -0.0215  0.6196 -0.3021
27300SOL    HW187736   6.296   7.816   9.104  0.1328  0.0614 -1.3490
27300SOL    HW287737   6.343   7.681   9.152 -0.0553  0.7695  0.9695
27301SOL     OW87738   6.823   0.172   5.994  0.8377  0.6186  0.1259
27301SOL    HW187739   6.732   0.148   5.977  1.5900 -0.9621 -2.1366
27301SOL    HW287740   6.834   0.255   5.947  0.4661  1.0618  0.8043
27302SOL     OW87741   7.889   2.546   2.424 -0.1167 -0.5509  0.0373
27302SOL    HW187742   7.974   2.590   2.416  0.2800 -1.1816  0.7143
27302SOL    HW287743   7.855   2.574   2.509 -0.4707 -0.5016 -0.1194
27303SOL     OW87744   2.758   9.989   2.790 -0.4252  0.0652  0.4957
27303SOL    HW187745   2.842   9.970   2.831  0.4388  1.3486 -0.5910
27303SOL    HW287746   2.765  10.080   2.762 -1.3436 -0.4283 -1.5410
27304SOL     OW87747   6.595   6.343   6.089  0.1861  0.4341 -0.0211
27304SOL    HW187748   6.566   6.376   6.004 -0.6834 -0.0984  0.0532
27304SOL    HW287749   6.514   6.313   6.131  0.7405 -0.2377  0.5800
27305SOL     OW87750   5.983   5.578   8.464  0.2259  0.0712 -0.2962
27305SOL    HW187751   6.018   5.601   8.378 -2.4261  2.1376 -0.9699
27305SOL    HW287752   5.889   5.566   8.449 -0.1827 -0.3244  2.1817
27306SOL     OW87753   0.926   2.675   3.673 -0.8674 -0.6646  0.3519
27306SOL    HW187754   0.847   2.690   3.724 -0.5666 -1.0429  0.9418
27306SOL    HW287755   0.997   2.681   3.736 -0.2641  1.2471 -0.4326
27307SOL     OW87756   4.481  10.064   3.459  0.2740  0.2401  0.0117
27307SOL    HW187757   4.428   9.987   3.477 -0.0951  0.3419 -0.6186
27307SOL    HW287758   4.530  10.079   3.540 -1.0401  0.4549  0.7887
27308SOL     OW87759   4.800   1.787   5.103 -0.0801 -0.2969  0.5124
27308SOL    HW187760   4.857   1.802   5.178 -0.2339 -0.6161  0.6963
27308SOL    HW287761   4.851   1.733   5.043  1.3221  2.6634 -1.1699
27309SOL     OW87762   0.892   7.827   9.500  0.0060 -0.3035  0.6462
27309SOL    HW187763   0.953   7.777   9.446 -0.4272  0.7610 -0.8964
27309SOL    HW287764   0.811   7.830   9.448 -0.3811  0.9151  1.2733
27310SOL     OW87765   5.896   0.861  10.314  0.5281  0.0523 -0.3353
27310SOL    HW187766   5.930   0.835  10.399 -0.6466  2.1499  0.8670
27310SOL    HW287767   5.972   0.892  10.266  0.9471  0.8197  0.7765
27311SOL     OW87768   7.639   7.309   5.043 -0.1412  0.4277 -0.6380
27311SOL    HW187769   7.644   7.243   4.974  0.0188  1.3077 -1.4927
27311SOL    HW287770   7.562   7.361   5.020 -1.2193 -0.4105  0.9123
27312SOL     OW87771   5.416   0.398   3.274 -0.2428  0.3906  0.2253
27312SOL    HW187772   5.353   0.444   3.218  0.5964  1.0473 -0.1838
27312SOL    HW287773   5.484   0.369   3.214 -0.6423 -1.2328  0.4998
27313SOL     OW87774   6.276   4.833   3.899  0.2896  0.8328 -0.5533
27313SOL    HW187775   6.202   4.779   3.926 -0.0402  0.1097 -2.7609
27313SOL    HW287776   6.320   4.854   3.981 -0.6637 -1.1909  0.5659
27314SOL     OW87777   2.856   3.405   9.298 -0.4035  0.5925 -0.4243
27314SOL    HW187778   2.797   3.391   9.372  1.2322 -1.3209  0.6204
27314SOL    HW287779   2.821   3.349   9.229 -0.2649  0.0748 -0.0784
27315SOL     OW87780   2.327  10.761   0.679  0.3174  0.3886 -0.0063
27315SOL    HW187781   2.259  10.776   0.613  0.3835  0.5616 -0.0347
27315SOL    HW287782   2.402  10.728   0.629 -0.0634 -0.7566  0.1371
27316SOL     OW87783   2.283   7.152  10.270 -0.0698  0.2142  0.4202
27316SOL    HW187784   2.354   7.097  10.303 -1.3397 -1.1626  1.0086
27316SOL    HW287785   2.218   7.089  10.238 -0.9873  1.4313 -0.1753
27317SOL     OW87786   7.951   2.313   8.726  0.2678  0.5651 -0.2707
27317SOL    HW187787   8.005   2.254   8.779  0.8213  1.0586 -0.2685
27317SOL    HW287788   7.971   2.289   8.635 -0.6679 -0.2693 -0.2719
27318SOL     OW87789   6.511   4.414   9.956 -0.5875 -0.4469  0.1918
27318SOL    HW187790   6.602   4.442   9.964 -1.2426  1.6754  1.0367
27318SOL    HW287791   6.507   4.330  10.001  0.8555 -0.3787  0.4995
27319SOL     OW87792   6.407   3.605   7.502  0.6000 -0.1416 -0.5838
27319SOL    HW187793   6.479   3.626   7.442  1.6326 -0.8569  0.3766
27319SOL    HW287794   6.372   3.690   7.528  0.4021  0.1902 -1.8686
27320SOL     OW87795   1.252   5.533   1.756 -0.2156 -0.3218  0.1710
27320SOL    HW187796   1.324   5.539   1.694  0.0984 -0.4409  0.5219
27320SOL    HW287797   1.266   5.450   1.802 -1.0801 -0.7816 -0.3797
27321SOL     OW87798   5.168   8.368   5.347  0.9194 -0.4286 -0.1136
27321SOL    HW187799   5.162   8.322   5.431  0.0547  1.0936  0.6883
27321SOL    HW287800   5.207   8.304   5.288 -0.8916 -2.4645  0.7635
27322SOL     OW87801  10.312   7.204   7.232 -0.0306  0.6957  0.3671
27322SOL    HW187802  10.321   7.274   7.297 -1.9759 -1.5675  3.3524
27322SOL    HW287803  10.233   7.227   7.183  1.1360  2.1253 -0.9631
27323SOL     OW87804   9.126   5.231   0.573  0.3163  0.0198 -0.4942
27323SOL    HW187805   9.125   5.249   0.667 -1.1194  0.3280 -0.5529
27323SOL    HW287806   9.104   5.138   0.566 -2.2975  0.5719 -0.5948
27324SOL     OW87807   9.794   5.285   1.550  0.2847 -0.6006 -0.2277
27324SOL    HW187808   9.762   5.298   1.640 -1.2439 -3.3811 -0.2301
27324SOL    HW287809   9.890   5.290   1.558  0.1243  2.4820  0.8610
27325SOL     OW87810   5.251   9.440   9.395  0.2194 -0.5647  0.5960
27325SOL    HW187811   5.160   9.471   9.396 -0.1137 -1.5077  1.0669
27325SOL    HW287812   5.285   9.469   9.311 -0.9046 -1.2135 -0.1187
27326SOL     OW87813   3.086   2.685   2.701  0.5313  0.4398  0.7668
27326SOL    HW187814   3.168   2.646   2.673  1.0764  3.3400 -2.3617
27326SOL    HW287815   3.104   2.720   2.789  1.9942 -0.5347  0.8872
27327SOL     OW87816   7.482   3.806   3.607  0.4061  0.3084  0.1475
27327SOL    HW187817   7.531   3.787   3.527  1.3022  1.3363  0.4142
27327SOL    HW287818   7.535   3.873   3.651  0.2116 -0.6097  1.8601
27328SOL     OW87819   6.764   6.216   8.691  0.0521  0.0202  0.5961
27328SOL    HW187820   6.683   6.253   8.727 -0.8490  0.0711 -1.3337
27328SOL    HW287821   6.734   6.153   8.625  1.4380  2.6235 -2.8262
27329SOL     OW87822   3.303   5.129   8.775 -0.0138 -0.3843  0.3947
27329SOL    HW187823   3.213   5.096   8.775  0.1319 -0.7999  0.0896
27329SOL    HW287824   3.349   5.071   8.713  0.2552  0.3874 -0.1370
27330SOL     OW87825   4.553   5.545   5.319  0.2508  0.5539  0.3806
27330SOL    HW187826   4.536   5.634   5.348  1.0458  1.7683 -2.4827
27330SOL    HW287827   4.500   5.535   5.240  2.2956 -0.4471 -0.9589
27331SOL     OW87828   4.327   1.084   7.989 -0.6684 -0.1838  0.0708
27331SOL    HW187829   4.276   1.018   7.942  0.1255 -1.0069  0.3414
27331SOL    HW287830   4.396   1.109   7.928 -0.5793 -0.0888  0.2084
27332SOL     OW87831   5.358   7.318  10.033 -0.8273 -0.5197 -0.1202
27332SOL    HW187832   5.327   7.236  10.072 -0.2156 -0.9195 -0.4597
27332SOL    HW287833   5.357   7.301   9.938  0.5081 -0.5918 -0.1414
27333SOL     OW87834   7.320   8.933   7.881  0.4800  0.3618 -0.4927
27333SOL    HW187835   7.369   8.996   7.828 -1.4258  1.0507 -1.5237
27333SOL    HW287836   7.243   8.981   7.911  1.0058 -0.2891  2.2026
27334SOL     OW87837   7.865   4.136   3.303  0.7311  0.4789 -0.0697
27334SOL    HW187838   7.770   4.127   3.290  0.6459  1.6114 -0.3580
27334SOL    HW287839   7.885   4.076   3.374 -0.1737  0.0912 -0.1243
27335SOL     OW87840   9.714   0.771   4.678 -0.2109  0.0002 -0.0860
27335SOL    HW187841   9.746   0.860   4.663 -0.0660  0.0182  0.3093
27335SOL    HW287842   9.772   0.715   4.627  1.5257 -0.1208  1.9112
27336SOL     OW87843   5.475   3.953   3.241 -0.1861  0.0428 -0.0835
27336SOL    HW187844   5.485   3.962   3.336 -1.9116  2.7892 -0.0595
27336SOL    HW287845   5.402   3.892   3.230  0.9329 -1.4302  0.2378
27337SOL     OW87846  10.757   7.074   0.220  0.0158  0.5854  0.2669
27337SOL    HW187847  10.669   7.069   0.182 -0.2238 -1.1035  0.9424
27337SOL    HW287848  10.773   7.168   0.230 -1.5168  0.9456 -0.3029
27338SOL     OW87849   6.672   9.356   7.553 -0.1285  0.0925 -0.4886
27338SOL    HW187850   6.740   9.289   7.554 -0.1823  0.0309  0.3653
27338SOL    HW287851   6.590   9.307   7.547 -0.1860  0.0396  0.4635
27339SOL     OW87852   5.131   8.700   0.222  0.2695 -0.0211 -0.3546
27339SOL    HW187853   5.184   8.778   0.209  2.0105 -0.3762  3.3798
27339SOL    HW287854   5.170   8.635   0.163  1.1544  0.8986 -0.8261
27340SOL     OW87855   4.485  10.870   2.708 -0.2106 -0.1928  0.2637
27340SOL    HW187856   4.578  10.885   2.691 -0.2121  0.7603  0.9767
27340SOL    HW287857   4.485  10.810   2.783 -0.1797 -0.7270 -0.1597
27341SOL     OW87858   2.884  10.027   3.322  0.4610 -0.1250 -0.0894
27341SOL    HW187859   2.840  10.019   3.237  2.0661 -0.4862 -0.9464
27341SOL    HW287860   2.945  10.100   3.311 -0.8140  1.2604  1.5141
27342SOL     OW87861   0.809   2.236   0.729  0.3781  0.4470 -0.1294
27342SOL    HW187862   0.741   2.294   0.697  0.4400  1.1155  0.8914
27342SOL    HW287863   0.885   2.292   0.742 -0.3741  0.8627  3.6478
27343SOL     OW87864   2.845   2.194   3.944  0.3997 -0.4697  0.0528
27343SOL    HW187865   2.815   2.281   3.917 -1.3624 -0.4622  1.8297
27343SOL    HW287866   2.843   2.142   3.864 -2.3820  0.1275 -0.3658
27344SOL     OW87867   0.774   0.383   5.629 -1.2461 -0.0170 -0.1744
27344SOL    HW187868   0.704   0.408   5.569 -0.4191  1.1130 -0.6837
27344SOL    HW287869   0.853   0.382   5.576 -0.9663 -2.2231  0.1684
27345SOL     OW87870   0.974   4.366   1.037 -0.6649  0.3328  0.2288
27345SOL    HW187871   0.939   4.287   1.076 -2.1912  0.2938 -1.0690
27345SOL    HW287872   0.988   4.343   0.945  0.9790  0.9444  0.3023
27346SOL     OW87873   2.188  10.331   1.992  0.0520 -0.9718  0.1086
27346SOL    HW187874   2.183  10.414   2.039 -0.8763 -0.6456 -0.5381
27346SOL    HW287875   2.278  10.301   2.005 -0.2746 -1.1386  2.4760
27347SOL     OW87876   9.095   7.088   7.696  0.3593  0.1013 -0.1980
27347SOL    HW187877   9.009   7.127   7.710  0.4347  0.3819 -0.5162
27347SOL    HW287878   9.157   7.157   7.719  0.4864  0.4087 -1.4200
27348SOL     OW87879   7.255   6.602   2.659  0.2312 -0.7066  0.6381
27348SOL    HW187880   7.245   6.698   2.658 -0.7072 -0.7929  0.0731
27348SOL    HW287881   7.349   6.587   2.655  0.3363  0.1905 -1.0397
27349SOL     OW87882   2.628   8.277   9.611 -0.7062  0.3193 -0.4443
27349SOL    HW187883   2.668   8.253   9.527  0.3642 -1.8656  0.6234
27349SOL    HW287884   2.617   8.372   9.605  2.2797  0.6933 -1.8453
27350SOL     OW87885   2.583   8.022   1.092  0.0697  0.2935  0.5791
27350SOL    HW187886   2.614   8.112   1.104 -0.3658  0.5139  0.0736
27350SOL    HW287887   2.509   8.029   1.032 -0.3032 -0.3426  0.9410
27351SOL     OW87888   3.785   1.774   0.693 -0.1422  0.0281 -0.0150
27351SOL    HW187889   3.853   1.747   0.631  0.8828  0.9045  0.6809
27351SOL    HW287890   3.834   1.810   0.767 -1.3865  0.8410  0.4324
27352SOL     OW87891   5.221   3.168  10.497  0.6811 -0.5908 -1.0351
27352SOL    HW187892   5.279   3.209  10.561  0.6083 -0.5749 -0.9791
27352SOL    HW287893   5.150   3.231  10.485  1.4828  0.1179 -2.3076
27353SOL     OW87894   5.425   2.750   7.676 -0.1143  0.5391  0.2664
27353SOL    HW187895   5.419   2.827   7.733  0.5273 -1.1665  2.8179
27353SOL    HW287896   5.334   2.732   7.651 -0.3421  1.6641  0.2310
27354SOL     OW87897   0.814   7.929   4.830  0.0360 -0.2033  0.0252
27354SOL    HW187898   0.837   7.996   4.894 -2.3369  2.2974 -1.5328
27354SOL    HW287899   0.896   7.883   4.813  1.4155  1.1990  2.3946
27355SOL     OW87900   9.238   4.892   2.029  0.1958 -0.2786 -0.3986
27355SOL    HW187901   9.309   4.921   2.086  1.4058 -2.5424 -0.6088
27355SOL    HW287902   9.276   4.894   1.941 -0.1469 -1.0122 -0.5728
27356SOL     OW87903   5.548   1.958   2.791 -0.2228 -0.3124 -0.2666
27356SOL    HW187904   5.514   2.043   2.766  0.9731  0.5953  1.0082
27356SOL    HW287905   5.601   1.930   2.716  0.6232  0.8055 -0.1161
27357SOL     OW87906   8.819  10.765   9.382 -0.0947  0.2280 -0.1533
27357SOL    HW187907   8.778  10.845   9.414 -0.2476 -0.0688  0.4125
27357SOL    HW287908   8.812  10.770   9.287 -0.5012  0.6697 -0.1017
27358SOL     OW87909   2.013   1.456   8.574  0.0992 -0.0056  0.5304
27358SOL    HW187910   2.085   1.430   8.631  0.3082  1.6294  1.0623
27358SOL    HW287911   1.941   1.478   8.633  0.3437  1.7785  0.2267
27359SOL     OW87912   1.838   5.467   9.750 -0.8374 -0.6108 -0.0897
27359SOL    HW187913   1.850   5.488   9.657 -0.8133 -1.1198 -0.2012
27359SOL    HW287914   1.793   5.544   9.785 -0.2140 -0.1079 -0.3687
27360SOL     OW87915   5.046   4.624  10.747  0.0767  0.2466 -0.1155
27360SOL    HW187916   5.038   4.690  10.816 -2.3152  0.0871 -0.1567
27360SOL    HW287917   4.991   4.552  10.777  0.0326 -0.3681 -1.5850
27361SOL     OW87918   8.123   4.706   9.080  0.3705 -0.5222 -0.3620
27361SOL    HW187919   8.160   4.791   9.105 -1.0517  0.6107 -1.9146
27361SOL    HW287920   8.029   4.720   9.077  0.1028 -2.1755 -0.6267
27362SOL     OW87921   7.095   6.598   1.030  0.2576  0.0588 -0.1689
27362SOL    HW187922   7.165   6.534   1.015 -0.8134 -1.1859 -0.0715
27362SOL    HW287923   7.029   6.578   0.963 -0.6431  0.2398  0.6397
27363SOL     OW87924  10.602   7.784  10.915 -0.0580  0.0994 -0.2133
27363SOL    HW187925  10.528   7.751  10.863  0.5592  1.2139 -1.8744
27363SOL    HW287926  10.560   7.830  10.988 -1.0874  1.6701 -1.7213
27364SOL     OW87927   7.940   2.814   8.254  0.5775 -0.7032  0.2403
27364SOL    HW187928   7.852   2.822   8.290 -0.6034 -1.8107 -2.1532
27364SOL    HW287929   7.984   2.753   8.313 -0.1519  0.0180  1.5856
27365SOL     OW87930   2.912  10.767   5.533  0.1643  0.5281 -0.3431
27365SOL    HW187931   2.961  10.710   5.592 -0.0134  1.0423  0.3077
27365SOL    HW287932   2.905  10.717   5.452  1.4150  0.2746 -0.3224
27366SOL     OW87933   3.721   5.201   8.548  0.4121  0.4716  0.2482
27366SOL    HW187934   3.765   5.138   8.490  1.1284 -0.8364  2.1090
27366SOL    HW287935   3.636   5.161   8.567  1.2398 -0.4574  2.1859
27367SOL     OW87936   5.159  10.888   7.296 -0.0886  0.1999 -0.4001
27367SOL    HW187937   5.200  10.891   7.383 -1.6742  0.3409  0.3876
27367SOL    HW287938   5.193  10.965   7.251  0.0899  0.6132  0.4161
27368SOL     OW87939   2.973  10.085   3.891  0.2484 -0.6447  0.4712
27368SOL    HW187940   2.884  10.121   3.891  0.5151  0.0297  0.5438
27368SOL    HW287941   3.001  10.092   3.983  0.8773  0.4330  0.2176
27369SOL     OW87942   9.347   3.932   9.742 -0.1643 -0.8127  0.2212
27369SOL    HW187943   9.395   3.857   9.777 -1.2028 -1.0080  1.2746
27369SOL    HW287944   9.374   3.937   9.651  1.8606 -0.9153  0.7557
27370SOL     OW87945   1.643   8.650   0.282 -0.1354  0.3669 -0.2217
27370SOL    HW187946   1.619   8.587   0.214 -3.6373 -2.6132  3.2810
27370SOL    HW287947   1.568   8.710   0.286 -0.6393 -0.3094  1.6993
27371SOL     OW87948   3.288   4.450   2.680  0.1032 -0.2434  0.1089
27371SOL    HW187949   3.352   4.379   2.678 -0.7771 -1.0805  0.7730
27371SOL    HW287950   3.307   4.502   2.602  1.6920 -0.3731  0.3798
27372SOL     OW87951   2.119   0.878   7.844  0.1125  0.0417  0.7278
27372SOL    HW187952   2.205   0.842   7.867  0.1799 -1.8800 -2.0692
27372SOL    HW287953   2.058   0.807   7.860 -0.2179 -0.3289 -1.8400
27373SOL     OW87954   7.980   5.119   7.790  0.2557 -0.2338 -0.1795
27373SOL    HW187955   8.012   5.205   7.762  0.2274 -0.4214 -0.8108
27373SOL    HW287956   7.899   5.137   7.837  0.6591  0.1463  0.3755
27374SOL     OW87957   3.906   9.223   7.874  0.3332 -0.3342  0.2448
27374SOL    HW187958   3.819   9.189   7.891  0.2857 -0.0790  0.5154
27374SOL    HW287959   3.896   9.280   7.798  0.4947 -1.2633 -0.4849
27375SOL     OW87960   3.640   8.633   0.499  0.3167  0.4800 -0.3167
27375SOL    HW187961   3.638   8.621   0.404  0.0038 -0.6146 -0.1786
27375SOL    HW287962   3.699   8.708   0.512 -0.8403  1.6414 -1.4530
27376SOL     OW87963   8.531   6.108   4.070  0.5431  0.0536 -0.7162
27376SOL    HW187964   8.574   6.137   4.150  0.3637  0.1175 -0.6418
27376SOL    HW287965   8.593   6.047   4.029  0.2816 -0.6411 -0.0988
27377SOL     OW87966   9.446   8.350   2.400 -0.0761 -0.2985 -0.5972
27377SOL    HW187967   9.394   8.354   2.480 -0.7772  1.1205 -1.0936
27377SOL    HW287968   9.417   8.270   2.357  0.4776 -1.2055  0.6464
27378SOL     OW87969   3.745   9.322   7.256 -0.2148  0.5291 -0.2435
27378SOL    HW187970   3.687   9.265   7.308 -1.3895  1.5431 -0.3835
27378SOL    HW287971   3.779   9.386   7.320 -0.0653  0.5594 -0.3531
27379SOL     OW87972   1.618   1.215   1.762 -0.1292 -0.1041 -0.3983
27379SOL    HW187973   1.625   1.121   1.747 -0.2014 -0.1485 -0.1573
27379SOL    HW287974   1.542   1.243   1.711 -0.4845 -0.2848  0.0247
27380SOL     OW87975   9.822   1.438   4.100 -0.1611 -0.4276 -0.3838
27380SOL    HW187976   9.850   1.447   4.009  3.1815  0.7309  0.5901
27380SOL    HW287977   9.828   1.345   4.118 -0.9753 -0.6822 -1.3474
27381SOL     OW87978   2.625   3.569   6.150 -0.4464 -0.0878  0.1252
27381SOL    HW187979   2.611   3.647   6.204  1.4535 -0.1654  0.8246
27381SOL    HW287980   2.538   3.543   6.121 -1.0974  2.7280 -0.7505
27382SOL     OW87981   9.402  10.880   2.798 -0.1160  0.5158 -0.6009
27382SOL    HW187982   9.336  10.854   2.733 -0.4915  0.0636 -0.0507
27382SOL    HW287983   9.484  10.883   2.749 -0.1882 -0.9466 -0.8659
27383SOL     OW87984   0.960   1.976   7.946 -0.0333 -0.4466 -0.3737
27383SOL    HW187985   0.990   1.977   7.855 -0.9684 -0.8951 -0.7111
27383SOL    HW287986   1.023   1.921   7.992  1.3778  1.0771 -0.3780
27384SOL     OW87987   3.818   0.870   2.373  0.3507  0.3451 -0.5133
27384SOL    HW187988   3.877   0.812   2.422 -0.0808  0.2275 -0.1236
27384SOL    HW287989   3.766   0.811   2.318  1.8178  0.5731 -2.2323
27385SOL     OW87990   7.381  10.512   7.155  0.1700  0.6296  0.2769
27385SOL    HW187991   7.429  10.472   7.227 -0.2409  1.1215  0.8402
27385SOL    HW287992   7.425  10.595   7.139 -0.3408  0.9808  0.6473
27386SOL     OW87993   1.669   7.623   8.610  0.0316 -0.9277  0.2419
27386SOL    HW187994   1.733   7.622   8.540 -0.7957 -0.9594 -0.5369
27386SOL    HW287995   1.699   7.692   8.670 -0.0599  0.1889 -0.9413
27387SOL     OW87996   0.303   0.051   1.981  0.2132  0.5420 -0.0677
27387SOL    HW187997   0.213   0.082   1.983  0.8997  3.0219 -1.8888
27387SOL    HW287998   0.356   0.130   1.992  2.1895 -0.8620  1.0959
27388SOL     OW87999   3.862   5.192   0.586 -0.0949 -0.6516 -0.3048
27388SOL    HW188000   3.805   5.269   0.583  0.9938  0.1645 -0.8715
27388SOL    HW288001   3.883   5.182   0.679  1.4384  1.0569 -0.4152
27389SOL     OW88002   9.297   6.479   4.301 -0.5556 -0.7192 -0.5913
27389SOL    HW188003   9.317   6.559   4.350 -0.0228 -1.4786  0.4785
27389SOL    HW288004   9.204   6.487   4.279 -0.1968  0.7911 -1.6806
27390SOL     OW88005   7.034   7.904  10.348  0.3497  0.4837 -0.1247
27390SOL    HW188006   6.945   7.907  10.385  0.2073  0.0513 -0.4250
27390SOL    HW288007   7.088   7.947  10.414 -0.2684  1.9256 -0.5141
27391SOL     OW88008   1.677   4.888   9.471  0.0313  0.0260  0.0732
27391SOL    HW188009   1.773   4.885   9.477  0.1143  1.1247 -0.4521
27391SOL    HW288010   1.659   4.943   9.395 -1.0303 -1.3646 -0.7421
27392SOL     OW88011   5.069   9.097   1.709 -0.5487 -0.7201 -0.1313
27392SOL    HW188012   5.149   9.132   1.671 -1.0669  1.1086  0.3661
27392SOL    HW288013   5.004   9.105   1.639 -0.9446  0.4701  0.3436
27393SOL     OW88014   4.703   0.001   1.868 -0.2372 -0.0825 -0.3324
27393SOL    HW188015   4.756   0.081   1.863 -0.6422  0.1679 -0.6779
27393SOL    HW288016   4.718  -0.033   1.956 -0.8451  0.9110  0.1697
27394SOL     OW88017   7.414   2.901   7.272  0.0636  0.0860 -0.1989
27394SOL    HW188018   7.321   2.895   7.293  0.1305 -1.0490 -0.1856
27394SOL    HW288019   7.438   2.991   7.297 -0.5844 -0.1907  1.6191
27395SOL     OW88020   5.938   2.868   3.214  0.3203 -0.2448 -0.0720
27395SOL    HW188021   5.885   2.912   3.281  0.9591  0.2404  0.1205
27395SOL    HW288022   5.943   2.931   3.142  0.3932 -0.4036 -0.2051
27396SOL     OW88023   3.931   2.991  10.070 -0.1044  0.6385 -0.1891
27396SOL    HW188024   3.998   2.940  10.024  1.3243  2.8481 -0.7122
27396SOL    HW288025   3.855   2.988  10.013 -0.3870 -1.5855  0.2185
27397SOL     OW88026   5.120   6.140   5.638 -0.0714  0.4798 -0.1131
27397SOL    HW188027   5.105   6.208   5.572 -0.7932 -0.6564 -1.1402
27397SOL    HW288028   5.193   6.089   5.603 -0.3477 -0.0286  0.0559
27398SOL     OW88029   4.347   2.500   4.158  0.5905 -0.0328  0.5575
27398SOL    HW188030   4.338   2.488   4.253  0.0904  0.2275  0.5447
27398SOL    HW288031   4.340   2.595   4.145 -0.7245 -0.1733  0.1212
27399SOL     OW88032   1.891   4.088   4.453  0.1229  0.2708 -0.4042
27399SOL    HW188033   1.955   4.071   4.522 -1.4242 -1.6935  0.6522
27399SOL    HW288034   1.817   4.127   4.500  0.0421  1.3676 -1.4067
27400SOL     OW88035   7.254   5.888   2.310 -0.4880  0.1149 -0.0420
27400SOL    HW188036   7.163   5.878   2.339 -0.9805  1.3858 -1.0238
27400SOL    HW288037   7.269   5.816   2.250 -1.1342  0.3529 -0.5015
27401SOL     OW88038   1.211  10.207   3.511 -0.7198  0.0610 -0.2191
27401SOL    HW188039   1.223  10.298   3.540 -0.3947 -0.0966  0.1370
27401SOL    HW288040   1.266  10.155   3.570 -1.5789 -0.4564  0.1413
27402SOL     OW88041   5.929   8.149   7.740 -0.0790  0.3923  0.2235
27402SOL    HW188042   5.896   8.089   7.807 -0.2812 -1.0969 -1.1288
27402SOL    HW288043   5.896   8.112   7.658  1.6082  1.1420 -0.8337
27403SOL     OW88044   3.916   0.907   4.859 -0.0873 -0.2592  0.2191
27403SOL    HW188045   4.010   0.928   4.865 -0.2932  0.6915  0.3059
27403SOL    HW288046   3.876   0.956   4.931 -0.8528  0.6352 -0.7800
27404SOL     OW88047   6.054   4.999   4.466  0.0185  0.3013  0.4125
27404SOL    HW188048   5.982   4.976   4.525  0.3991 -0.0334  0.7654
27404SOL    HW288049   6.132   4.969   4.513  0.3758  0.5810 -0.0014
27405SOL     OW88050   8.927   9.268   5.184 -0.1496  0.0298  0.2682
27405SOL    HW188051   8.955   9.318   5.261  0.5580 -0.4078  0.2973
27405SOL    HW288052   8.907   9.335   5.119  0.9367  0.3638  0.2581
27406SOL     OW88053  10.369   5.362   8.011 -0.0556  0.3395  0.0473
27406SOL    HW188054  10.291   5.408   8.039  0.5239  1.6602 -0.4536
27406SOL    HW288055  10.436   5.430   8.002  0.7262 -0.5322 -1.0781
27407SOL     OW88056   6.970   3.965  10.053 -0.1850 -0.1012 -0.6683
27407SOL    HW188057   7.057   3.930  10.034 -0.4883 -0.1714 -2.0741
27407SOL    HW288058   6.983   4.060  10.055  0.0170 -0.1340 -0.3313
27408SOL     OW88059   7.910   4.059   4.010 -0.1787  0.4085 -0.0368
27408SOL    HW188060   7.914   3.997   3.937  1.3164 -0.1099  0.4633
27408SOL    HW288061   7.858   4.132   3.976  1.3860  0.6861 -2.0275
27409SOL     OW88062   9.591   1.988   2.619  0.1761 -0.1004 -0.7588
27409SOL    HW188063   9.505   1.979   2.578 -1.3070  0.8083  1.8441
27409SOL    HW288064   9.586   2.072   2.666  2.6903  0.1999 -0.9000
27410SOL     OW88065   4.968   3.985   7.041 -0.1390 -0.0270  0.2316
27410SOL    HW188066   4.891   3.933   7.021 -0.6690 -0.2424  2.5972
27410SOL    HW288067   5.012   3.997   6.957 -2.2648 -0.6483 -1.0145
27411SOL     OW88068   7.584   0.897   4.552 -0.3827 -0.0383  0.0337
27411SOL    HW188069   7.543   0.975   4.515 -1.8533 -0.5288  0.5685
27411SOL    HW288070   7.511   0.844   4.583  0.6768 -0.8516  1.2404
27412SOL     OW88071   4.064   1.927  10.879  0.3433 -0.5803  0.3917
27412SOL    HW188072   4.113   1.936  10.961 -2.1360  0.6912  1.8578
27412SOL    HW288073   4.034   1.836  10.880 -1.9146  0.0796  2.3903
27413SOL     OW88074   4.767   0.888   7.585  0.0978 -0.3875 -0.3940
27413SOL    HW188075   4.676   0.859   7.576  0.2248 -1.0792  0.4575
27413SOL    HW288076   4.805   0.830   7.651  0.8854  0.5219 -0.0143
27414SOL     OW88077   8.789   8.885   7.615 -0.5621 -0.0694  0.1069
27414SOL    HW188078   8.699   8.873   7.583 -1.2452 -2.7176  2.5886
27414SOL    HW288079   8.828   8.798   7.611  1.3497  0.7142  0.6339
27415SOL     OW88080   1.931   6.682   3.369  0.7703  0.3099  0.2087
27415SOL    HW188081   1.925   6.704   3.275  1.3532 -0.3046  0.0219
27415SOL    HW288082   1.979   6.600   3.371  1.2492  0.5998  1.0912
27416SOL     OW88083   7.717   8.088   6.361 -0.2759  0.0514 -0.5501
27416SOL    HW188084   7.760   8.010   6.398  0.9518  0.6671 -0.6482
27416SOL    HW288085   7.623   8.071   6.374 -0.1499 -2.1338 -1.9108
27417SOL     OW88086   3.179   8.064   9.228  0.2122  0.1256 -0.6761
27417SOL    HW188087   3.253   8.103   9.181  0.2112 -0.0022 -0.7843
27417SOL    HW288088   3.164   8.123   9.302 -0.3152  0.7734 -1.2890
27418SOL     OW88089   3.714   8.430   1.957 -0.0089 -0.7088  0.0863
27418SOL    HW188090   3.744   8.510   1.914 -2.5074  0.9887  1.2739
27418SOL    HW288091   3.724   8.448   2.051  2.9433 -3.3583  0.4520
27419SOL     OW88092   5.240   9.973   2.641 -0.1601 -0.3520  0.2264
27419SOL    HW188093   5.198   9.924   2.712  2.1399 -2.2855  0.3925
27419SOL    HW288094   5.205  10.061   2.649  0.4376 -0.2690  4.2286
27420SOL     OW88095   6.976   3.577   6.712 -0.4552  0.2741  0.6975
27420SOL    HW188096   7.068   3.586   6.737  0.1798  0.2257 -1.4149
27420SOL    HW288097   6.973   3.494   6.664 -1.6916  0.0919  1.0746
27421SOL     OW88098   8.869   7.369   6.128 -0.2956 -0.2160  0.0810
27421SOL    HW188099   8.801   7.305   6.106 -0.6007  0.1919 -0.1776
27421SOL    HW288100   8.834   7.416   6.203  0.0545 -0.5354  0.4543
27422SOL     OW88101   3.575   0.758   4.551 -0.0813  0.3139 -0.2413
27422SOL    HW188102   3.578   0.683   4.490  0.0805 -0.0903  0.2621
27422SOL    HW288103   3.499   0.808   4.522 -2.1703 -1.7316  1.3480
27423SOL     OW88104   7.387   8.604   1.591 -0.4373 -0.1549  0.3086
27423SOL    HW188105   7.317   8.542   1.611 -1.3986  0.9468  0.5151
27423SOL    HW288106   7.375   8.675   1.655 -0.3473  0.9824 -0.8925
27424SOL     OW88107   1.405  10.137   6.471 -0.3306  0.5091 -0.4450
27424SOL    HW188108   1.412  10.066   6.408  0.9883 -1.0549  1.3716
27424SOL    HW288109   1.312  10.141   6.493 -0.3826 -0.8742 -0.3488
27425SOL     OW88110  10.242   4.336   8.731  0.4717  0.2470  0.1363
27425SOL    HW188111  10.148   4.325   8.743  0.2225  1.4685 -0.6198
27425SOL    HW288112  10.258   4.316   8.639  0.7566  1.2030 -0.0356
27426SOL     OW88113   0.439   3.228  10.444 -0.4351  0.2321 -0.0540
27426SOL    HW188114   0.416   3.161  10.381  0.0527 -0.6416  0.6734
27426SOL    HW288115   0.357   3.277  10.458 -0.7838 -0.1848 -0.6126
27427SOL     OW88116   9.581   0.825   7.383 -0.6989  0.1404 -0.7658
27427SOL    HW188117   9.609   0.844   7.473 -2.1939  2.9711 -0.7906
27427SOL    HW288118   9.660   0.790   7.340  0.3852 -0.0899  1.2906
27428SOL     OW88119   6.651   0.376  10.481  0.5098 -0.2197  0.5327
27428SOL    HW188120   6.644   0.312  10.552  1.5041 -0.8632  0.0687
27428SOL    HW288121   6.734   0.355  10.438 -1.0729 -1.3159 -2.2502
27429SOL     OW88122   6.294   5.543   7.959 -0.0282  0.2806  0.2262
27429SOL    HW188123   6.251   5.476   8.014  1.5455 -1.3704 -0.4275
27429SOL    HW288124   6.359   5.582   8.017  0.3473 -0.1305  0.0909
27430SOL     OW88125   1.857   9.092   7.326  0.0781  0.4229  0.2770
27430SOL    HW188126   1.823   9.003   7.339 -1.8769  1.2335  1.0283
27430SOL    HW288127   1.914   9.107   7.402  1.5914 -0.6671 -0.5892
27431SOL     OW88128   1.350   4.668   3.967 -0.5959  0.4685  0.1356
27431SOL    HW188129   1.380   4.743   3.914 -0.0188 -0.7550 -1.3542
27431SOL    HW288130   1.427   4.642   4.017  0.0569 -0.7791 -1.4118
27432SOL     OW88131   1.531   0.098  10.349  0.7630  0.0951  0.4885
27432SOL    HW188132   1.607   0.087  10.406  0.4363 -1.4134  0.6790
27432SOL    HW288133   1.460   0.123  10.409  0.3474 -1.7880  0.8366
27433SOL     OW88134   6.660   8.490   3.176  0.4432  0.5454  0.3942
27433SOL    HW188135   6.601   8.430   3.221  2.9971 -2.3765  0.2009
27433SOL    HW288136   6.647   8.471   3.083  0.1006  1.5859  0.2089
27434SOL     OW88137  10.113   8.645   8.256 -0.2533 -0.2769  0.0254
27434SOL    HW188138  10.156   8.719   8.298 -0.5300 -0.1682  0.1222
27434SOL    HW288139  10.141   8.569   8.308 -0.3442 -0.1809  0.2191
27435SOL     OW88140   2.543  10.296   2.741  0.0807  0.5135  0.0484
27435SOL    HW188141   2.469  10.355   2.723  0.6640  1.1682 -0.2736
27435SOL    HW288142   2.568  10.263   2.656  0.9160  1.2389 -0.0044
27436SOL     OW88143   2.942   6.080   9.595  0.0379  0.4097 -0.2409
27436SOL    HW188144   3.006   6.033   9.541  0.3927 -0.2841  0.7694
27436SOL    HW288145   2.857   6.049   9.563  0.2079  0.8552 -1.1535
27437SOL     OW88146   3.996   0.812  10.664  0.0439 -0.6504 -0.4711
27437SOL    HW188147   4.072   0.776  10.709 -0.2835 -0.7899 -0.0211
27437SOL    HW288148   3.958   0.738  10.617 -0.5217 -0.8680  0.3029
27438SOL     OW88149   3.836   2.171  10.449  0.4313 -0.3792 -0.1909
27438SOL    HW188150   3.887   2.135  10.521  0.3350  1.6785  0.9987
27438SOL    HW288151   3.745   2.150  10.470  0.4473 -0.2359  0.0196
27439SOL     OW88152   8.523   0.006  10.672  0.1627 -0.1291 -0.3397
27439SOL    HW188153   8.463   0.033  10.741  2.6479  0.4840  1.7258
27439SOL    HW288154   8.599   0.063  10.682  2.2066 -2.5488 -1.1185
27440SOL     OW88155   6.924   8.566   6.675 -0.1020  0.1432  0.0038
27440SOL    HW188156   6.929   8.474   6.649 -1.1005 -0.2048  0.9466
27440SOL    HW288157   6.899   8.563   6.768  1.1122  1.3604  0.3960
27441SOL     OW88158   5.942   4.599   5.596 -0.5381  0.0092  0.4728
27441SOL    HW188159   5.909   4.509   5.593  2.7225 -1.2934 -1.4195
27441SOL    HW288160   5.952   4.624   5.504 -0.4394  1.9502  0.9729
27442SOL     OW88161  10.824  10.865   8.322 -0.5891  0.2376  0.0699
27442SOL    HW188162  10.730  10.885   8.314 -0.3474  0.8018 -1.8573
27442SOL    HW288163  10.858  10.875   8.233  1.5139  1.0121  0.9006
27443SOL     OW88164   1.106   9.488   0.600  0.0759 -0.2917 -0.2017
27443SOL    HW188165   1.130   9.534   0.520 -1.5938 -0.4106 -0.8243
27443SOL    HW288166   1.166   9.413   0.605 -0.3190 -0.7519 -1.8028
27444SOL     OW88167  10.919   2.547   5.623 -0.0483  0.3990 -0.4219
27444SOL    HW188168  10.914   2.464   5.575  0.8334 -0.2119  0.4947
27444SOL    HW288169  10.830   2.562   5.655  0.0498 -0.9442  0.5787
27445SOL     OW88170   0.757   1.487   1.834  0.0207  0.0360  0.1986
27445SOL    HW188171   0.697   1.459   1.903  0.0386  2.7409  1.4441
27445SOL    HW288172   0.700   1.528   1.769  0.3363  1.4853  0.7926
27446SOL     OW88173   4.739   7.855   4.079 -0.5477  0.2587 -0.4552
27446SOL    HW188174   4.706   7.765   4.083  2.6712 -1.1084 -1.4891
27446SOL    HW288175   4.738   7.885   4.170  2.9031 -2.7862  0.8195
27447SOL     OW88176   0.720   8.369   4.179  0.2826 -0.1082 -0.0049
27447SOL    HW188177   0.779   8.438   4.208  3.2702 -1.7327 -1.6304
27447SOL    HW288178   0.757   8.288   4.215 -1.9049 -1.1108  0.1770
27448SOL     OW88179   2.260   6.891   6.027 -0.8262  0.6622  0.4445
27448SOL    HW188180   2.174   6.852   6.015 -0.5449 -0.3234  1.4409
27448SOL    HW288181   2.264   6.961   5.963 -1.7606 -0.2881 -0.6979
27449SOL     OW88182   3.992   1.603   0.531 -0.3055  0.1936  0.2662
27449SOL    HW188183   3.966   1.511   0.542 -0.6139  0.0685 -1.1817
27449SOL    HW288184   4.002   1.613   0.436  0.3853  1.4909  0.4553
27450SOL     OW88185   9.301   5.025  10.509  0.0977  0.4603  0.1036
27450SOL    HW188186   9.225   4.994  10.458  1.9072 -1.7767 -1.4409
27450SOL    HW288187   9.318   5.113  10.474 -0.6109  0.2214 -0.9201
27451SOL     OW88188   4.615   2.431   3.996 -0.0907 -0.4334 -0.3826
27451SOL    HW188189   4.521   2.414   3.994  0.0114 -1.0256 -0.3580
27451SOL    HW288190   4.652   2.374   3.928  0.5448 -2.1954  1.3555
27452SOL     OW88191   8.907  10.216   4.393 -0.1907  0.1666  0.2470
27452SOL    HW188192   8.840  10.148   4.385  1.4241 -1.3534 -1.6122
27452SOL    HW288193   8.879  10.269   4.467 -3.1465 -0.6736 -0.1513
27453SOL     OW88194   0.633   4.793   6.380 -0.0101 -0.1807 -0.4575
27453SOL    HW188195   0.620   4.813   6.288 -0.8486 -0.2376 -0.3650
27453SOL    HW288196   0.710   4.843   6.406 -0.6478  1.0339 -0.8242
27454SOL     OW88197   3.128  10.236   3.048  0.8426  0.2562  0.5877
27454SOL    HW188198   3.145  10.262   3.138  1.7382 -0.4723  0.6433
27454SOL    HW288199   3.133  10.318   2.998 -0.2359  0.7474  1.2611
27455SOL     OW88200   7.718   5.439   4.536  0.3459  0.5130 -0.0154
27455SOL    HW188201   7.683   5.398   4.615 -1.6177 -0.6757 -1.4046
27455SOL    HW288202   7.673   5.523   4.531 -0.8779 -0.1463 -0.7175
27456SOL     OW88203   9.003  10.061   0.210  0.0549 -0.2940 -0.1150
27456SOL    HW188204   9.076  10.005   0.232 -1.1915 -1.6745  0.7081
27456SOL    HW288205   9.034  10.150   0.227  1.7659 -0.7810 -0.5833
27457SOL     OW88206   5.476   2.335   1.357 -0.4919 -0.0808  0.0959
27457SOL    HW188207   5.424   2.269   1.403 -1.0090  2.4167  3.4729
27457SOL    HW288208   5.412   2.398   1.326  0.1277 -0.1991 -1.5121
27458SOL     OW88209   6.297   6.845   7.313  0.0219 -0.9087 -0.6080
27458SOL    HW188210   6.238   6.875   7.244 -0.9327  0.5296  0.7602
27458SOL    HW288211   6.258   6.878   7.394  0.9394 -2.8000  0.6783
27459SOL     OW88212   1.685   5.888   3.413 -0.4515 -0.1814  0.2256
27459SOL    HW188213   1.641   5.886   3.498  0.0439  0.3194  0.5035
27459SOL    HW288214   1.697   5.796   3.390 -0.3869 -0.3247  0.8079
27460SOL     OW88215   6.705  10.317   4.006  0.3227  0.4378  0.4042
27460SOL    HW188216   6.757  10.301   4.085 -0.4593  0.4892  0.9405
27460SOL    HW288217   6.628  10.364   4.037  0.2649  0.9606 -0.4717
27461SOL     OW88218   3.382   8.606   6.837 -0.2031 -0.0241  0.5591
27461SOL    HW188219   3.334   8.559   6.905  1.8762 -2.6509  0.3805
27461SOL    HW288220   3.325   8.602   6.760 -0.4123 -1.7376  0.7488
27462SOL     OW88221   3.339   2.998   6.852 -0.2822 -0.3147  0.3525
27462SOL    HW188222   3.296   3.077   6.818 -1.3222 -1.1122 -0.2334
27462SOL    HW288223   3.432   3.021   6.854 -0.7274  1.6714  2.2242
27463SOL     OW88224   8.879   7.338   9.335 -0.7890  0.4288  0.0592
27463SOL    HW188225   8.795   7.380   9.320 -1.3370 -0.6256  0.0889
27463SOL    HW288226   8.895   7.286   9.255  0.0970  1.0497 -0.1810
27464SOL     OW88227   3.450   8.133   7.471 -0.2140 -0.0063 -0.0785
27464SOL    HW188228   3.471   8.148   7.378  0.1971  0.1722  0.0400
27464SOL    HW288229   3.434   8.039   7.477 -1.0187  0.0941 -0.4810
27465SOL     OW88230  10.411   8.691   4.848 -0.3881  0.0075  0.1361
27465SOL    HW188231  10.321   8.693   4.880 -0.5377  0.0228 -0.2782
27465SOL    HW288232  10.457   8.634   4.910 -0.2950  1.3211  1.3271
27466SOL     OW88233   5.886   9.442   5.011 -0.6004 -0.2335 -0.5022
27466SOL    HW188234   5.791   9.432   5.009 -0.8329  1.6144 -1.5582
27466SOL    HW288235   5.917   9.374   5.070 -2.6140 -0.5997  0.1920
27467SOL     OW88236   3.432   8.078   8.176 -0.2417 -0.2738 -0.1869
27467SOL    HW188237   3.433   8.158   8.229 -2.4906  0.4613 -1.1555
27467SOL    HW288238   3.490   8.097   8.103  1.4202 -0.6191  0.9738
27468SOL     OW88239   0.224   1.813   8.727 -0.0339  0.0454 -0.0580
27468SOL    HW188240   0.257   1.798   8.639 -0.0503 -0.5313  0.0340
27468SOL    HW288241   0.257   1.900   8.750 -0.0315  0.2014 -0.6285
27469SOL     OW88242   8.568   0.498   2.353 -0.6194 -0.3443 -0.2860
27469SOL    HW188243   8.588   0.415   2.309 -0.3082 -0.5090  0.1638
27469SOL    HW288244   8.486   0.481   2.400 -0.4455 -0.4587 -0.0253
27470SOL     OW88245   5.879   1.576   6.063 -0.5316  0.1985  0.6346
27470SOL    HW188246   5.951   1.622   6.106 -0.2018 -0.2028  0.5193
27470SOL    HW288247   5.829   1.536   6.134 -0.3774  0.0987  0.6865
27471SOL     OW88248   0.851   1.475  10.109 -0.1443 -0.3344 -0.1111
27471SOL    HW188249   0.895   1.391  10.097  0.7715  0.1792 -0.3931
27471SOL    HW288250   0.890   1.512  10.189  3.3150  2.1350 -2.6388
27472SOL     OW88251   7.346   0.147   3.067  0.7077  0.0639  0.9642
27472SOL    HW188252   7.314   0.067   3.109 -1.5584 -0.4919 -1.5532
27472SOL    HW288253   7.288   0.216   3.099  0.9485  0.2158  1.0791
27473SOL     OW88254   2.641  10.805   0.082 -0.6655 -0.3991  0.2955
27473SOL    HW188255   2.631  10.761  -0.003  3.5981  0.6980 -1.0322
27473SOL    HW288256   2.695  10.745   0.134  0.4067  0.7449  0.5528
27474SOL     OW88257   6.093   4.143   2.733  0.1800  0.5954  0.3011
27474SOL    HW188258   6.145   4.213   2.774  0.8472  0.8830 -1.0065
27474SOL    HW288259   6.022   4.189   2.689 -0.5301  0.2822  1.0890
27475SOL     OW88260   4.319   2.930   9.618 -0.2415  0.0092  0.3695
27475SOL    HW188261   4.411   2.907   9.607 -0.3779  0.3136 -2.2528
27475SOL    HW288262   4.317   3.026   9.610 -0.7289  0.0375  0.8042
27476SOL     OW88263  10.103   0.132   0.548 -0.1259  0.2474  0.0809
27476SOL    HW188264  10.190   0.116   0.510 -0.6019 -0.5466 -0.7046
27476SOL    HW288265  10.107   0.222   0.580  0.7021  0.5093 -0.7377
27477SOL     OW88266   1.850   2.462   6.825  0.1584  0.2802  0.0492
27477SOL    HW188267   1.870   2.369   6.837 -0.9863 -0.1427 -1.0481
27477SOL    HW288268   1.755   2.466   6.833  0.0874  1.1628 -1.0593
27478SOL     OW88269  10.053   5.183   9.263  0.1147 -0.5953  0.1246
27478SOL    HW188270   9.997   5.189   9.186 -0.9691 -0.0425  0.9289
27478SOL    HW288271  10.110   5.260   9.257  0.4549 -0.8798 -0.4239
27479SOL     OW88272   2.280   4.217   5.194  0.4280 -0.0186 -0.1317
27479SOL    HW188273   2.317   4.130   5.186  0.6293  0.0728 -0.1907
27479SOL    HW288274   2.198   4.213   5.144 -0.4628 -0.6864  1.3021
27480SOL     OW88275   3.453  10.622   3.138 -0.2538 -0.2753 -0.1504
27480SOL    HW188276   3.412  10.676   3.070  0.9382 -1.2215 -1.6704
27480SOL    HW288277   3.424  10.663   3.220 -2.8913  0.0571 -1.1338
27481SOL     OW88278   2.804   7.305   3.990  0.1211  0.2178 -0.4950
27481SOL    HW188279   2.768   7.227   4.032  3.3089 -1.1206  0.0567
27481SOL    HW288280   2.766   7.378   4.039 -0.3295 -1.1107  1.2546
27482SOL     OW88281   4.144   3.276  10.047  0.7228 -0.9386  1.0104
27482SOL    HW188282   4.228   3.241  10.018  1.0107 -0.8093  1.6550
27482SOL    HW288283   4.155   3.371  10.043  0.4090 -0.9238  0.5426
27483SOL     OW88284   2.635   4.528   5.855  0.0348 -0.5756 -0.0599
27483SOL    HW188285   2.614   4.621   5.863 -1.0089 -0.8828  1.0572
27483SOL    HW288286   2.725   4.521   5.887 -0.1830 -0.0546  0.7074
27484SOL     OW88287   4.946   7.054   2.532 -0.1669  0.2208 -0.3020
27484SOL    HW188288   5.010   7.019   2.470  2.0069  0.0112  1.9075
27484SOL    HW288289   4.902   6.976   2.568 -1.3536  0.3368 -1.4131
27485SOL     OW88290   9.409   6.898   9.109 -0.8263  0.2012 -0.2483
27485SOL    HW188291   9.463   6.922   9.033  0.8167  1.5197  1.2472
27485SOL    HW288292   9.465   6.842   9.161 -0.3858  2.4231  1.8507
27486SOL     OW88293   7.085   1.514  10.675  0.1699 -0.1001 -0.5306
27486SOL    HW188294   7.143   1.462  10.731  0.0280 -0.2373 -0.5105
27486SOL    HW288295   7.070   1.595  10.725  1.1462  0.3642 -0.9734
27487SOL     OW88296  10.039   0.206   5.567  0.5001 -0.8869 -0.6066
27487SOL    HW188297  10.020   0.112   5.563  0.1858 -0.8662  0.2275
27487SOL    HW288298   9.957   0.248   5.543 -0.3521 -0.8092  2.1028
27488SOL     OW88299   8.917   3.872  10.510  0.2307 -0.0133 -0.0799
27488SOL    HW188300   9.008   3.896  10.526  0.4596  0.1800 -1.5669
27488SOL    HW288301   8.897   3.907  10.423 -1.7905  1.4575  0.8801
27489SOL     OW88302   0.530   1.662   9.399  0.4605 -0.1505 -0.3161
27489SOL    HW188303   0.605   1.717   9.424  0.4852 -0.6500  0.7994
27489SOL    HW288304   0.551   1.628   9.313  1.6043 -0.4057  0.0507
27490SOL     OW88305   0.018   9.559   4.826  0.1840  0.2870  0.2054
27490SOL    HW188306   0.095   9.613   4.842  0.5234 -0.0721 -0.1871
27490SOL    HW288307   0.051   9.469   4.829 -0.6278  0.0022  2.2979
27491SOL     OW88308  10.523   5.280   6.621  0.4250  0.2199  0.0006
27491SOL    HW188309  10.576   5.243   6.691 -2.1482 -1.8270  1.0280
27491SOL    HW288310  10.586   5.324   6.563  2.7333  1.2705  3.0784
27492SOL     OW88311   1.877   2.454   0.039  0.0962  0.2001 -0.6367
27492SOL    HW188312   1.927   2.468   0.120  0.4584 -1.9507 -0.4239
27492SOL    HW288313   1.943   2.433  -0.027 -0.3970 -2.4188 -0.4112
27493SOL     OW88314   4.886   9.131   0.296 -0.3349  0.3294 -0.1247
27493SOL    HW188315   4.798   9.106   0.268 -0.0951 -0.8894  0.1437
27493SOL    HW288316   4.883   9.226   0.306 -0.8515  0.6633 -2.7765
27494SOL     OW88317   7.083   3.113   5.345 -0.0856  0.0046 -0.4615
27494SOL    HW188318   7.126   3.063   5.275  1.1589  0.2814  0.0709
27494SOL    HW288319   7.016   3.164   5.301  0.2779 -0.2798 -1.3661
27495SOL     OW88320   1.384   8.171   6.281 -0.1722  0.0725  0.6105
27495SOL    HW188321   1.425   8.240   6.333  2.3315 -0.0526 -1.0648
27495SOL    HW288322   1.456   8.114   6.255 -1.7574 -1.5039 -0.5741
27496SOL     OW88323   8.879   6.491   6.263 -0.1247 -0.0432 -0.0828
27496SOL    HW188324   8.832   6.571   6.287 -0.1156 -0.2648  0.6897
27496SOL    HW288325   8.971   6.516   6.265 -0.1598  0.1442 -0.6704
27497SOL     OW88326   7.040   0.922   3.431  0.1810  0.1309  0.8043
27497SOL    HW188327   7.012   0.854   3.370  2.1371  1.6905 -2.0443
27497SOL    HW288328   7.095   0.877   3.494 -0.9898 -1.3585  0.8114
27498SOL     OW88329   5.304   7.310   1.819  0.3264 -0.3785  0.8982
27498SOL    HW188330   5.282   7.268   1.735 -2.5022 -0.7333  1.7293
27498SOL    HW288331   5.221   7.341   1.853  1.6675  1.5091  2.7253
27499SOL     OW88332   0.262  10.437   9.305 -0.5707 -0.1599  0.0107
27499SOL    HW188333   0.239  10.351   9.338  0.2566  0.4239  2.3361
27499SOL    HW288334   0.340  10.422   9.252  0.9262 -0.6796  2.1849
27500SOL     OW88335   1.567   6.283   5.377 -0.5660  0.1406  0.8020
27500SOL    HW188336   1.507   6.341   5.331 -1.8284 -0.8303  1.1668
27500SOL    HW288337   1.654   6.317   5.357 -1.2485  1.8431  0.6138
27501SOL     OW88338   3.785   9.314   4.676  0.3287 -0.6068  0.4339
27501SOL    HW188339   3.694   9.301   4.703 -0.0454 -0.0381 -0.4777
27501SOL    HW288340   3.779   9.375   4.601  1.6109  1.1227  1.6486
27502SOL     OW88341   7.669   6.520   7.068 -0.2894  0.0426  0.4033
27502SOL    HW188342   7.634   6.462   7.137 -1.7045  0.2899 -0.0698
27502SOL    HW288343   7.741   6.567   7.111  0.0453 -1.1221  1.1740
27503SOL     OW88344   4.539   2.113   7.647 -0.2967  0.1820  0.2797
27503SOL    HW188345   4.628   2.079   7.642 -0.5110 -0.2330 -1.0462
27503SOL    HW288346   4.549   2.207   7.660  0.3203  0.0055  1.1497
27504SOL     OW88347   4.130   4.676   5.771 -0.1199  0.5558  0.2067
27504SOL    HW188348   4.148   4.739   5.701  0.8110  0.4750  0.3574
27504SOL    HW288349   4.085   4.604   5.727  0.4406  0.5143 -0.3173
27505SOL     OW88350   2.623   1.576   3.983 -0.6319 -0.4780  0.0158
27505SOL    HW188351   2.648   1.664   4.010 -0.5363 -0.7927  0.9920
27505SOL    HW288352   2.556   1.590   3.916  2.1880  0.3955 -2.8515
27506SOL     OW88353   8.052   6.796  10.814  0.3174  0.2213 -0.2523
27506SOL    HW188354   8.049   6.844  10.897 -0.7210  1.3030 -0.8776
27506SOL    HW288355   8.000   6.717  10.830  0.1149  0.4263  0.1225
27507SOL     OW88356   2.345  10.428   1.249  0.0417 -0.5637  0.6560
27507SOL    HW188357   2.303  10.508   1.217  0.8982 -0.0838  0.6800
27507SOL    HW288358   2.292  10.402   1.325 -0.6276 -0.3893  0.2528
27508SOL     OW88359   6.196   2.119   2.306 -0.4009 -0.0835  0.6455
27508SOL    HW188360   6.114   2.077   2.331 -0.1103 -0.5778  0.8006
27508SOL    HW288361   6.259   2.047   2.304 -0.0857  0.1979  0.0074
27509SOL     OW88362   8.796   6.139   3.508  0.3001  0.1159  0.1859
27509SOL    HW188363   8.785   6.210   3.445 -5.1837 -0.3696  0.1417
27509SOL    HW288364   8.841   6.179   3.582 -1.0961  3.2089 -0.5059
27510SOL     OW88365   0.920   8.282   4.757  0.0343 -0.2916 -0.1771
27510SOL    HW188366   0.981   8.258   4.687  1.0460 -0.0919  0.6168
27510SOL    HW288367   0.962   8.357   4.800 -2.0157  1.5854 -1.2348
27511SOL     OW88368   7.605   5.801  10.188 -0.2002 -0.2215 -0.6241
27511SOL    HW188369   7.653   5.818  10.270 -0.6921  0.1715 -0.4140
27511SOL    HW288370   7.532   5.745  10.214 -1.9226  2.0479 -0.2898
27512SOL     OW88371   4.819   7.629   7.776  0.1993  0.4743 -0.0396
27512SOL    HW188372   4.799   7.538   7.795  0.0693  0.4298 -0.3865
27512SOL    HW288373   4.737   7.665   7.742 -0.5954  1.4327  2.6240
27513SOL     OW88374   3.920   4.889   0.590  0.8015  0.4640 -0.6042
27513SOL    HW188375   3.975   4.889   0.669 -0.9237 -0.5053  0.6810
27513SOL    HW288376   3.881   4.977   0.588  0.3790  0.2981 -0.0011
27514SOL     OW88377   6.921   4.092   8.749  0.1979  0.3503 -0.6667
27514SOL    HW188378   6.838   4.107   8.794 -0.1149 -0.7603 -0.8354
27514SOL    HW288379   6.902   4.022   8.686  1.2603  0.0593 -0.6880
27515SOL     OW88380   5.980  10.421   9.740  0.4166 -0.0763  0.0672
27515SOL    HW188381   6.009  10.370   9.665  0.6253  2.1845 -1.4842
27515SOL    HW288382   6.006  10.368   9.816  3.0242 -1.0397 -1.3575
27516SOL     OW88383   5.007   7.625   1.268  0.1373  0.4944 -0.0263
27516SOL    HW188384   4.953   7.620   1.347 -0.5922  0.5005 -0.5152
27516SOL    HW288385   4.962   7.688   1.212 -1.2472 -1.8906 -1.8263
27517SOL     OW88386   9.635   3.586   6.075 -0.1055 -0.1445  0.8159
27517SOL    HW188387   9.640   3.490   6.074  1.7402 -0.0919  1.4247
27517SOL    HW288388   9.709   3.614   6.021 -1.1332  0.9590 -0.0664
27518SOL     OW88389   2.540   8.546   2.493 -0.2114 -0.1425 -0.0258
27518SOL    HW188390   2.605   8.501   2.548 -0.5516  0.8880  1.2692
27518SOL    HW288391   2.566   8.525   2.403  1.9911  0.3632  0.4424
27519SOL     OW88392   5.475   4.203   7.157 -0.0778  0.4634 -0.0517
27519SOL    HW188393   5.385   4.224   7.134 -0.6228  0.0821  1.5567
27519SOL    HW288394   5.508   4.281   7.202  0.9206  1.1543 -1.8653
27520SOL     OW88395  10.245   0.346   5.881 -0.1659  0.4444 -0.2836
27520SOL    HW188396  10.248   0.337   5.786 -1.3898 -0.9254 -0.2359
27520SOL    HW288397  10.151   0.344   5.902  0.1363 -1.3426  1.1002
27521SOL     OW88398   3.210  10.132  10.191  0.3532 -0.3002  0.1051
27521SOL    HW188399   3.228  10.164  10.279  0.9207 -2.5468  0.8704
27521SOL    HW288400   3.135  10.074  10.201  1.7790 -2.3287 -0.4336
27522SOL     OW88401  10.603  10.374   5.417  0.2451 -0.0026 -0.1188
27522SOL    HW188402  10.586  10.411   5.330  0.2095  1.0775  0.3335
27522SOL    HW288403  10.563  10.287   5.414 -1.7312  0.8661 -0.4517
27523SOL     OW88404   0.662   2.650  10.464  0.2899 -0.3283  0.1959
27523SOL    HW188405   0.728   2.588  10.495  1.3288  2.1295  3.4234
27523SOL    HW288406   0.580   2.619  10.502  1.0384  0.8797  3.0381
27524SOL     OW88407   3.579   8.906   1.559 -0.0210 -0.5034  0.6434
27524SOL    HW188408   3.660   8.956   1.564 -0.4581  0.4328 -0.9113
27524SOL    HW288409   3.563   8.876   1.648  3.1239 -2.5188  0.6846
27525SOL     OW88410   5.905   3.934   4.943 -0.3441  0.0438  0.0413
27525SOL    HW188411   5.881   3.867   4.879  2.7580 -0.5160 -0.6780
27525SOL    HW288412   5.882   3.896   5.028 -1.6008 -0.5214 -0.5166
27526SOL     OW88413   2.544   8.658   3.536 -0.1692 -0.3642  0.3015
27526SOL    HW188414   2.602   8.601   3.486 -0.8483  0.8210 -1.9914
27526SOL    HW288415   2.456   8.625   3.517 -0.4647  0.3752  0.3546
27527SOL     OW88416   8.823   2.913   1.021  0.2247 -0.1949 -0.1362
27527SOL    HW188417   8.829   2.915   0.926  0.3247 -0.0745 -0.1283
27527SOL    HW288418   8.855   2.999   1.049 -1.5166  0.4889 -0.0845
27528SOL     OW88419   4.843   6.419   3.774  0.1604 -0.1137 -0.8349
27528SOL    HW188420   4.870   6.481   3.706 -1.5839 -0.7079 -2.1357
27528SOL    HW288421   4.844   6.470   3.855  2.2236  0.6370 -1.2658
27529SOL     OW88422   4.159   9.105   1.070  0.3756 -0.3163  1.0031
27529SOL    HW188423   4.152   9.172   1.001 -0.9246 -1.2482  0.1996
27529SOL    HW288424   4.071   9.099   1.106  0.8715 -0.4125  2.2365
27530SOL     OW88425   4.291  10.348   8.953  0.0168  0.1209 -0.3441
27530SOL    HW188426   4.315  10.409   9.023 -1.5072 -1.0780  1.3237
27530SOL    HW288427   4.345  10.374   8.878 -0.3623  3.3268  0.3558
27531SOL     OW88428   2.142   2.271   4.127  0.2195  0.0303  0.2095
27531SOL    HW188429   2.223   2.244   4.170  0.2916 -0.0471  0.0278
27531SOL    HW288430   2.137   2.365   4.145 -0.4759 -0.2487  1.5546
27532SOL     OW88431   1.761   9.133   2.936  0.6015 -0.0718 -0.0633
27532SOL    HW188432   1.739   9.226   2.927 -0.1469 -0.0666  1.4745
27532SOL    HW288433   1.847   9.132   2.977  1.2278 -0.0928 -1.3124
27533SOL     OW88434   3.460   8.374   0.961  0.1963  0.0290  0.1320
27533SOL    HW188435   3.392   8.349   1.025  0.3103 -0.0888  0.2088
27533SOL    HW288436   3.413   8.382   0.878  0.4477 -2.3499 -0.3165
27534SOL     OW88437   7.507   5.973   6.958 -0.0347  0.0418  0.2716
27534SOL    HW188438   7.538   5.901   7.012 -1.3148 -1.2471 -0.6523
27534SOL    HW288439   7.442   5.934   6.900  1.4339  1.2808 -2.4090
27535SOL     OW88440   8.842   8.405   2.704 -0.2165 -0.2169 -0.3260
27535SOL    HW188441   8.924   8.449   2.725 -1.1730  1.8653 -0.6992
27535SOL    HW288442   8.788   8.416   2.782 -0.6194 -0.3788 -0.5777
27536SOL     OW88443   7.902   7.661   8.791 -0.5678 -0.3246 -0.0227
27536SOL    HW188444   7.985   7.642   8.746  0.7024  0.4755  1.8520
27536SOL    HW288445   7.871   7.576   8.821  0.5601 -0.4636  0.8385
27537SOL     OW88446   0.270   4.608   1.498  0.3491  0.2666  0.4888
27537SOL    HW188447   0.201   4.543   1.487 -1.0580  1.6354  0.9443
27537SOL    HW288448   0.287   4.609   1.592  1.1362 -0.1869  0.3601
27538SOL     OW88449   6.707   6.282   1.938  0.3493 -0.3758  0.5502
27538SOL    HW188450   6.768   6.354   1.954  1.7722 -1.4079 -0.1383
27538SOL    HW288451   6.678   6.256   2.026  2.3360 -1.0765  1.0422
27539SOL     OW88452   7.356   6.896   9.274 -0.0782  0.1839  0.9319
27539SOL    HW188453   7.306   6.937   9.204  0.8606  0.2827  0.3049
27539SOL    HW288454   7.309   6.814   9.292  0.3505 -0.4586 -0.6904
27540SOL     OW88455   2.314   7.174   6.989 -0.4330 -0.0042 -0.1965
27540SOL    HW188456   2.225   7.156   6.958 -0.2060  1.2869 -1.7749
27540SOL    HW288457   2.304   7.250   7.047 -0.3609  0.2247 -0.4792
27541SOL     OW88458   8.918   5.621   2.428  0.6272 -0.3635  0.0991
27541SOL    HW188459   8.989   5.682   2.445  1.4840 -1.1723 -0.5165
27541SOL    HW288460   8.849   5.674   2.388  1.7094  0.0446 -1.2713
27542SOL     OW88461   4.079   6.311   7.688 -0.2628  0.4458 -0.0553
27542SOL    HW188462   4.124   6.229   7.705 -0.4388  0.8149  2.6290
27542SOL    HW288463   4.123   6.348   7.611  0.3874 -1.7063 -0.7720
27543SOL     OW88464   3.642   8.848   3.507 -0.6069 -0.3731  0.1396
27543SOL    HW188465   3.600   8.791   3.572  0.3923 -0.4364  0.7434
27543SOL    HW288466   3.589   8.928   3.507 -0.5666 -0.3413  1.0981
27544SOL     OW88467   8.831   2.648   1.143  0.3748  0.1015 -0.0401
27544SOL    HW188468   8.750   2.653   1.194  1.0702 -1.4006  1.2870
27544SOL    HW288469   8.844   2.738   1.112 -0.1018  1.1436  2.4456
27545SOL     OW88470   4.015   5.967   6.829 -0.4939 -0.3748  0.3325
27545SOL    HW188471   4.027   6.009   6.744  0.3791 -0.7033  0.2826
27545SOL    HW288472   4.100   5.928   6.848 -0.2643  0.8065  1.9657
27546SOL     OW88473   3.560   6.444   5.055 -0.0245  0.3877 -0.2446
27546SOL    HW188474   3.520   6.507   4.994  0.6935  1.3638  0.2657
27546SOL    HW288475   3.556   6.488   5.140  1.3763  0.1657 -0.0402
27547SOL     OW88476   5.394   1.388   5.724 -0.1469 -0.9708  0.8339
27547SOL    HW188477   5.389   1.468   5.776 -0.4840 -1.0323  0.8989
27547SOL    HW288478   5.485   1.383   5.696 -0.3654  0.0679 -0.1494
27548SOL     OW88479   3.583   3.007  10.888  0.0627 -0.1967 -0.0759
27548SOL    HW188480   3.573   3.097  10.858 -1.3697 -0.0008  0.8911
27548SOL    HW288481   3.665   3.006  10.936  0.6197  0.3155 -0.9768
27549SOL     OW88482   8.716   0.270   6.361 -0.1761  0.4955 -0.4727
27549SOL    HW188483   8.629   0.247   6.327 -0.5081  1.4921 -0.3246
27549SOL    HW288484   8.714   0.244   6.453 -0.4294  0.8100 -0.3896
27550SOL     OW88485   5.407   4.132   6.891 -0.0162 -0.1684 -0.0915
27550SOL    HW188486   5.472   4.160   6.825  0.0715  0.9530  0.4370
27550SOL    HW288487   5.450   4.148   6.975 -1.3053  1.5990  0.3083
27551SOL     OW88488   8.549   0.625   5.648 -0.5293 -0.1012  0.3343
27551SOL    HW188489   8.501   0.630   5.731 -0.8031 -0.1099  0.1781
27551SOL    HW288490   8.484   0.649   5.581 -0.2017  0.3247  0.1604
27552SOL     OW88491  10.285   4.519   6.476 -0.0838 -0.0625  0.3751
27552SOL    HW188492  10.363   4.465   6.492  0.6136  0.6189 -0.5835
27552SOL    HW288493  10.303   4.600   6.524  0.7120  0.8595 -1.3986
27553SOL     OW88494   1.098   7.073  10.155 -0.0956 -0.2882  0.9056
27553SOL    HW188495   1.162   7.117  10.099  0.0785 -1.0325  0.5019
27553SOL    HW288496   1.054   7.143  10.201  1.1754  0.2393  1.3725
27554SOL     OW88497   1.590   9.868   3.913  0.4368 -0.5515  0.5544
27554SOL    HW188498   1.518   9.851   3.973  0.1682  1.1048  0.7396
27554SOL    HW288499   1.548   9.880   3.828  0.4176  0.9269  0.7560
27555SOL     OW88500   0.480   5.522   0.870  0.2912  0.0649  0.7701
27555SOL    HW188501   0.438   5.436   0.873  0.0975  0.1830  2.4002
27555SOL    HW288502   0.561   5.511   0.921  0.9803  0.4961 -0.1991
27556SOL     OW88503   2.244   5.081   3.999  0.1688 -0.3753 -0.1762
27556SOL    HW188504   2.256   4.986   4.001 -0.0655 -0.4009  0.3451
27556SOL    HW288505   2.158   5.094   4.039  1.3170  0.2208  2.3093
27557SOL     OW88506   1.296   4.112   6.303 -0.0925 -0.0831 -0.4388
27557SOL    HW188507   1.223   4.153   6.257 -0.3539 -0.9935 -0.8643
27557SOL    HW288508   1.319   4.175   6.372  0.2816  1.2824 -1.7622
27558SOL     OW88509  10.801   5.285   7.435  0.5032 -0.0570 -0.2124
27558SOL    HW188510  10.875   5.284   7.374  0.6795 -0.9193  0.0043
27558SOL    HW288511  10.820   5.358   7.494  0.3888  0.7193 -1.0983
27559SOL     OW88512  10.122   9.389   4.894  0.0316  0.5941  0.4486
27559SOL    HW188513  10.090   9.300   4.881 -0.3405  0.7476  0.2894
27559SOL    HW288514  10.084   9.439   4.822  0.3203  0.8608  0.4792
27560SOL     OW88515   9.571   7.820   7.244  0.2527 -0.1619 -0.0940
27560SOL    HW188516   9.562   7.781   7.157 -1.8562 -1.0658  0.4559
27560SOL    HW288517   9.560   7.914   7.230  1.5966 -0.1034 -0.9652
27561SOL     OW88518   2.595   1.037   5.890 -0.5661  0.5558  0.2875
27561SOL    HW188519   2.580   1.036   5.795  0.0746  2.1565  0.1483
27561SOL    HW288520   2.620   0.947   5.911  1.9305  0.7280 -1.5273
27562SOL     OW88521  10.655   3.373   7.646  0.4609  1.0345  0.3508
27562SOL    HW188522  10.583   3.324   7.606  0.9593  0.3517  0.2640
27562SOL    HW288523  10.734   3.326   7.618  0.8372  0.4864  2.1605
27563SOL     OW88524   6.415  10.576   0.194  0.0645 -0.6103  0.0522
27563SOL    HW188525   6.348  10.567   0.127 -2.3724 -1.5139  2.4572
27563SOL    HW288526   6.435  10.486   0.220  1.1219 -0.2771  0.4498
27564SOL     OW88527   9.134   0.249   8.470 -0.8155  0.0337 -0.4236
27564SOL    HW188528   9.109   0.266   8.380 -1.9757 -1.4282 -0.4265
27564SOL    HW288529   9.056   0.270   8.521  0.0571  1.5303  0.3423
27565SOL     OW88530   0.261   4.773   3.647  0.1636  0.0545  0.0275
27565SOL    HW188531   0.295   4.860   3.625  1.1580 -0.7908 -2.0356
27565SOL    HW288532   0.297   4.755   3.734  0.7721  1.2824  0.0608
27566SOL     OW88533   4.270   3.737   9.792  0.2547  0.5597 -0.2890
27566SOL    HW188534   4.255   3.826   9.823  0.3065  0.3248  0.4291
27566SOL    HW288535   4.285   3.686   9.871 -0.2507 -0.1782 -0.6544
27567SOL     OW88536   3.608   9.696   6.247 -0.4283 -0.1011  0.0093
27567SOL    HW188537   3.593   9.631   6.315  1.1953 -0.8020 -0.2644
27567SOL    HW288538   3.686   9.743   6.275 -1.8965  2.2328  0.5319
27568SOL     OW88539   6.229   7.383   3.778  0.7461  0.5114 -0.3884
27568SOL    HW188540   6.163   7.337   3.726 -1.1298  0.4231  1.9208
27568SOL    HW288541   6.277   7.314   3.823  1.3682  0.6580 -0.8046
27569SOL     OW88542   8.226   8.059   6.472 -0.0551 -0.0417  0.0718
27569SOL    HW188543   8.172   8.065   6.550 -0.8068 -0.8298 -0.3658
27569SOL    HW288544   8.289   8.131   6.480 -0.3340  0.0905  1.2239
27570SOL     OW88545   2.284   5.528   4.965  0.3067 -0.5204 -0.1744
27570SOL    HW188546   2.286   5.514   5.060  1.0784 -0.1147 -0.1178
27570SOL    HW288547   2.304   5.621   4.954  2.5136 -1.0133 -0.8036
27571SOL     OW88548   7.727   4.207  10.469  0.1687 -0.3268  0.6719
27571SOL    HW188549   7.748   4.202  10.376 -0.1531  2.0751  0.4150
27571SOL    HW288550   7.797   4.260  10.507 -0.5323  0.0396  1.4896
27572SOL     OW88551   8.792   2.310   2.532  0.3873 -0.7763  0.1156
27572SOL    HW188552   8.728   2.266   2.477 -0.1931 -0.1203  0.2521
27572SOL    HW288553   8.819   2.386   2.482 -1.1646  0.5958  1.2466
27573SOL     OW88554   5.913   8.470   5.013  0.6064 -0.2640  0.0000
27573SOL    HW188555   5.841   8.533   5.010  1.6081  0.9404  0.3992
27573SOL    HW288556   5.884   8.403   5.076  0.2444  0.7228  0.9106
27574SOL     OW88557  10.089   5.063   2.075  0.1927 -0.1969  0.5785
27574SOL    HW188558  10.184   5.072   2.066  0.0587  0.4299 -0.2964
27574SOL    HW288559  10.078   4.979   2.119  1.1201 -0.8481 -0.3673
27575SOL     OW88560   9.121   2.371   5.564  0.3654 -0.1262 -0.5336
27575SOL    HW188561   9.169   2.451   5.543 -1.2593  0.7055 -1.2840
27575SOL    HW288562   9.123   2.320   5.483  0.8596 -0.5604 -0.2504
27576SOL     OW88563   8.521   1.304  10.534 -0.1360 -0.1777  0.1848
27576SOL    HW188564   8.597   1.263  10.493  0.0377 -0.0757  0.4076
27576SOL    HW288565   8.527   1.396  10.508 -0.7198 -0.3560 -0.6111
27577SOL     OW88566   4.323   3.421   7.526  0.4340  0.3393  0.1950
27577SOL    HW188567   4.294   3.453   7.441  0.2528 -1.0338 -0.2893
27577SOL    HW288568   4.243   3.416   7.579 -0.5546 -3.8998 -1.2863
27578SOL     OW88569   7.345   9.511   9.956 -0.4526 -0.0146  0.5688
27578SOL    HW188570   7.295   9.467  10.025 -0.2192  0.4178  1.0214
27578SOL    HW288571   7.352   9.446   9.886 -0.4198 -0.5738  1.0839
27579SOL     OW88572   7.875   8.916   4.208  0.2949 -0.3963 -0.0208
27579SOL    HW188573   7.846   8.964   4.130  0.0082 -1.8759 -0.8653
27579SOL    HW288574   7.840   8.966   4.282  1.2075  1.4549 -0.7945
27580SOL     OW88575   2.003   3.623   4.544  0.0419 -0.4506  0.5860
27580SOL    HW188576   1.974   3.629   4.453 -1.0132 -0.2415  0.9149
27580SOL    HW288577   2.071   3.556   4.543  0.8471  0.3530 -0.5365
27581SOL     OW88578   1.334  10.651  10.191  0.1626 -0.6205  0.4901
27581SOL    HW188579   1.242  10.665  10.170 -0.0714  2.4830  2.9317
27581SOL    HW288580   1.380  10.721  10.145  0.7419  0.3175  2.4090
27582SOL     OW88581   4.514   9.771   9.543 -0.0150 -0.3296  0.1787
27582SOL    HW188582   4.536   9.718   9.466 -2.9223 -1.1979 -0.2037
27582SOL    HW288583   4.523   9.861   9.513  2.6908 -0.5587  0.0965
27583SOL     OW88584   2.540   4.148   0.780  0.2733  0.2891  0.4232
27583SOL    HW188585   2.534   4.239   0.751  0.5862  0.3673  0.6038
27583SOL    HW288586   2.618   4.114   0.736  0.0844  0.0710  0.2568
27584SOL     OW88587   6.286   9.436   7.398 -0.3950 -0.0556 -0.6525
27584SOL    HW188588   6.345   9.490   7.345  0.3856  0.6254  0.8398
27584SOL    HW288589   6.236   9.499   7.450  1.3978 -0.6651  2.0312
27585SOL     OW88590   7.093   9.594  10.276  0.2377  0.2311  0.0076
27585SOL    HW188591   7.047   9.514  10.250 -1.5822  0.4731  2.1217
27585SOL    HW288592   7.063   9.660  10.214 -0.1438 -0.2012 -0.2781
27586SOL     OW88593  10.886   7.764   7.787 -0.9713 -0.1912  0.5266
27586SOL    HW188594  10.926   7.840   7.745 -0.2912 -1.0298 -0.3882
27586SOL    HW288595  10.949   7.693   7.773 -1.4580 -0.8723  1.6089
27587SOL     OW88596  10.692   5.685   0.033 -0.1706  0.3050 -0.8465
27587SOL    HW188597  10.786   5.669   0.039 -0.3717 -0.3565  1.1713
27587SOL    HW288598  10.680   5.772   0.070 -0.6680 -1.0168  2.4265
27588SOL     OW88599   4.830   4.064   1.456  0.4591 -0.6224  0.1046
27588SOL    HW188600   4.843   3.969   1.451  0.1286 -0.7239  0.9495
27588SOL    HW288601   4.735   4.075   1.463  0.2683 -0.0775 -2.4571
27589SOL     OW88602   0.109  10.625   4.364  0.7804 -0.5010  0.0812
27589SOL    HW188603   0.031  10.679   4.369  1.3842  0.5547 -1.2987
27589SOL    HW288604   0.085  10.544   4.409 -0.8013  0.1451  0.4561
27590SOL     OW88605   6.547   6.989   9.255  0.7108 -0.6277 -0.2530
27590SOL    HW188606   6.465   6.966   9.300  0.1652  0.5402 -0.6060
27590SOL    HW288607   6.547   7.084   9.253  1.5154 -0.6365 -1.3098
27591SOL     OW88608   3.734   3.115   1.842  0.0651 -0.4994  0.3017
27591SOL    HW188609   3.664   3.132   1.905 -0.0642  1.2878 -0.2806
27591SOL    HW288610   3.813   3.105   1.895 -0.0160  1.1093  0.7793
27592SOL     OW88611  10.002   9.634   4.526  0.1029  0.3719  0.0273
27592SOL    HW188612  10.045   9.575   4.465 -2.5377 -0.3647 -1.2618
27592SOL    HW288613   9.949   9.691   4.471 -0.8112  1.0132  1.5150
27593SOL     OW88614   1.299   8.325   9.885 -0.1683 -0.0289 -0.1725
27593SOL    HW188615   1.392   8.309   9.898 -0.3257  1.1452  3.3743
27593SOL    HW288616   1.255   8.256   9.934 -1.1350  0.6827 -0.0019
27594SOL     OW88617   9.755   0.038   8.758 -0.0970 -0.1655  0.2730
27594SOL    HW188618   9.708   0.122   8.754 -0.1836 -0.2687 -1.1836
27594SOL    HW288619   9.826   0.048   8.695 -0.4640 -1.3949 -0.3596
27595SOL     OW88620  10.837   3.284   5.737 -0.4942 -0.7041 -0.1665
27595SOL    HW188621  10.839   3.207   5.679  0.2996 -1.0350  0.2892
27595SOL    HW288622  10.810   3.356   5.679 -0.0836 -1.1012 -0.8673
27596SOL     OW88623   1.765   3.107   8.400 -0.4118 -0.1333  0.2325
27596SOL    HW188624   1.849   3.146   8.425  0.0808 -0.3554 -0.9844
27596SOL    HW288625   1.786   3.016   8.379 -0.9296 -0.1593 -0.2074
27597SOL     OW88626   3.521   8.245   5.569  0.1809  0.1542  0.4870
27597SOL    HW188627   3.524   8.337   5.541 -1.3766  0.0845 -0.0446
27597SOL    HW288628   3.508   8.249   5.664  2.6794  0.4197  0.8857
27598SOL     OW88629   8.703   7.852   7.961 -0.1746 -0.3614  0.5875
27598SOL    HW188630   8.656   7.920   8.009  0.1767 -0.1095  0.5827
27598SOL    HW288631   8.676   7.864   7.870 -0.0025 -0.1256  0.5637
27599SOL     OW88632  10.358   2.723   5.163  0.1095 -0.1913 -0.0895
27599SOL    HW188633  10.414   2.657   5.121 -0.0245 -0.8449  0.7333
27599SOL    HW288634  10.405   2.806   5.150  0.1814 -0.4057 -1.3158
27600SOL     OW88635   4.586   1.155   8.583 -0.0492 -0.1788  0.5660
27600SOL    HW188636   4.518   1.203   8.537 -0.6482 -2.3836 -1.0304
27600SOL    HW288637   4.629   1.103   8.515  2.1126 -0.1567  1.8117
27601SOL     OW88638   8.965   0.011   2.663  0.8615  0.7342 -0.5435
27601SOL    HW188639   8.914  -0.070   2.675  1.8087  0.2886  0.6631
27601SOL    HW288640   8.999   0.004   2.574  0.8368 -0.1437 -0.4971
27602SOL     OW88641  10.634   3.089   8.493 -0.0279 -0.7024 -0.0290
27602SOL    HW188642  10.605   3.011   8.446  0.8441  0.1635 -2.1094
27602SOL    HW288643  10.587   3.086   8.576 -2.2809 -1.8620 -1.2713
27603SOL     OW88644   7.018   6.883   9.117 -0.4290 -0.6334 -0.2838
27603SOL    HW188645   7.076   6.866   9.043 -0.1818  0.9150 -0.4817
27603SOL    HW288646   6.971   6.963   9.093 -0.7011 -0.3758  1.0265
27604SOL     OW88647  10.241   1.213   6.902 -0.9465  0.5574 -0.2641
27604SOL    HW188648  10.277   1.200   6.989 -0.1327  1.3699 -0.4573
27604SOL    HW288649  10.281   1.145   6.848 -0.2950  0.9608 -0.3044
27605SOL     OW88650   0.237   7.793   0.946 -0.2459  0.4085 -0.6479
27605SOL    HW188651   0.253   7.702   0.921 -0.9901  0.0428  0.1546
27605SOL    HW288652   0.189   7.787   1.029 -0.1840  1.5352 -0.5161
27606SOL     OW88653   7.666   3.840   1.314 -0.2261 -0.2758  0.4578
27606SOL    HW188654   7.622   3.770   1.361 -1.3424 -0.7863 -1.2464
27606SOL    HW288655   7.641   3.920   1.361 -1.8245 -0.7031  0.3943
27607SOL     OW88656   4.242   3.281   3.411  0.7202 -0.2188  0.7010
27607SOL    HW188657   4.275   3.339   3.342  1.1103  0.0443  1.0963
27607SOL    HW288658   4.260   3.329   3.492  1.8694 -1.2647  1.1004
27608SOL     OW88659   9.297   0.637   9.097  0.1331  0.1504  0.4985
27608SOL    HW188660   9.370   0.610   9.043 -2.2158  0.3912 -3.1520
27608SOL    HW288661   9.274   0.559   9.147  2.7183  0.0641  1.6821
27609SOL     OW88662   3.825   7.951   9.062 -0.5652  0.2891 -0.0472
27609SOL    HW188663   3.881   8.006   9.007 -0.6340  0.1830 -0.2240
27609SOL    HW288664   3.880   7.925   9.136 -0.3431  0.0737 -0.2888
27610SOL     OW88665   5.603   0.954   4.875  0.3655 -0.1218  0.5461
27610SOL    HW188666   5.669   0.930   4.941 -0.0356 -3.7807 -0.1932
27610SOL    HW288667   5.637   0.918   4.793 -1.2971  0.3486 -0.3837
27611SOL     OW88668   7.896   6.457   0.517  0.5864  0.4451 -0.2922
27611SOL    HW188669   7.807   6.479   0.547  0.3882 -0.1864 -0.3878
27611SOL    HW288670   7.930   6.538   0.480 -0.6837  0.2697 -2.0240
27612SOL     OW88671   5.693   8.346   3.128 -0.3054 -0.6520 -0.4646
27612SOL    HW188672   5.652   8.281   3.184  0.6891  0.1961  1.3509
27612SOL    HW288673   5.687   8.309   3.040 -0.6471 -2.7318  0.3646
27613SOL     OW88674   9.710   3.979   1.403  0.1042  0.6698  0.1564
27613SOL    HW188675   9.733   4.072   1.400  2.1218  0.2136 -0.0216
27613SOL    HW288676   9.781   3.938   1.452  1.6886 -1.3803 -3.4239
27614SOL     OW88677   3.104   6.310   9.264 -0.7952  0.7774  0.3195
27614SOL    HW188678   3.039   6.249   9.300 -0.3284  0.1232  0.0852
27614SOL    HW288679   3.054   6.388   9.241 -1.3628  0.5837  0.8748
27615SOL     OW88680   0.466   8.991   1.746  0.0966  0.2064 -0.2398
27615SOL    HW188681   0.556   8.960   1.732  0.3469  0.7430  0.1324
27615SOL    HW288682   0.474   9.086   1.752 -0.7551  0.4517 -2.1385
27616SOL     OW88683   0.000   9.955   9.785 -0.5735 -0.1168 -0.4192
27616SOL    HW188684  -0.081  10.005   9.781 -0.2268  0.3746 -1.5587
27616SOL    HW288685  -0.024   9.866   9.759 -0.8663 -0.1293 -0.1060
27617SOL     OW88686   5.525   1.568   2.680 -0.2614 -0.3855  0.3319
27617SOL    HW188687   5.453   1.546   2.621 -0.4060 -0.3053  0.4798
27617SOL    HW288688   5.566   1.484   2.700  0.1729 -0.3490 -0.3823
27618SOL     OW88689   2.663   2.533   6.806  0.1951 -0.3252 -0.5073
27618SOL    HW188690   2.649   2.513   6.899 -2.0235 -0.2504 -0.7756
27618SOL    HW288691   2.648   2.450   6.761 -1.8420  0.2377 -1.0004
27619SOL     OW88692   7.729   1.521   0.434 -0.3933  0.6784  0.6343
27619SOL    HW188693   7.804   1.518   0.494 -0.0282  1.4887  0.2296
27619SOL    HW288694   7.766   1.494   0.350 -0.6016  0.8711  0.4811
27620SOL     OW88695   0.850   0.296   0.096  0.0524  0.2330 -0.0770
27620SOL    HW188696   0.875   0.365   0.035 -0.2818 -0.3732 -0.9144
27620SOL    HW288697   0.758   0.278   0.074  0.2360 -0.7040 -0.0789
27621SOL     OW88698   0.674   4.949   1.015  0.1385  0.1994 -0.1395
27621SOL    HW188699   0.702   4.858   1.025  1.4867  0.4198 -1.4641
27621SOL    HW288700   0.748   5.001   1.048 -0.9263  0.8484  1.3297
27622SOL     OW88701   7.907   9.000   6.977  0.3876 -0.2229 -0.3476
27622SOL    HW188702   7.977   9.027   6.917  1.1294 -0.3485  0.4475
27622SOL    HW288703   7.828   8.999   6.922  0.9556  0.1705 -1.1986
27623SOL     OW88704   0.512   8.612   6.997 -0.1616  0.2469 -0.1882
27623SOL    HW188705   0.470   8.546   7.051  1.3368  0.8155  1.7765
27623SOL    HW288706   0.445   8.638   6.933 -1.7767 -0.9155  0.9820
27624SOL     OW88707   8.589   6.909   1.618 -0.1324  0.1581 -0.1683
27624SOL    HW188708   8.558   6.940   1.703  1.1195  2.4939 -0.4948
27624SOL    HW288709   8.515   6.925   1.559 -0.1268  0.9104  0.0168
27625SOL     OW88710   8.762   3.234   8.932 -0.0636  0.3340 -0.3495
27625SOL    HW188711   8.706   3.308   8.906  0.3470  0.7151 -0.1616
27625SOL    HW288712   8.849   3.257   8.899  0.4802  0.8416  1.3461
27626SOL     OW88713   9.235   4.089   7.490  0.0823 -0.0608  0.1392
27626SOL    HW188714   9.248   4.068   7.398 -1.4529 -0.4206 -0.0245
27626SOL    HW288715   9.262   4.010   7.537 -2.9832 -1.5292 -0.3033
27627SOL     OW88716   3.498   2.227   4.470 -0.1876  0.1933 -0.1224
27627SOL    HW188717   3.500   2.291   4.541  0.1161 -0.0685  0.1062
27627SOL    HW288718   3.424   2.255   4.415 -0.7469  0.0979  0.5734
27628SOL     OW88719   2.050   6.473   5.205  0.5555  0.1619 -0.3847
27628SOL    HW188720   2.112   6.543   5.221  1.4572 -0.5398 -0.7119
27628SOL    HW288721   1.972   6.517   5.171  1.5405  0.9164 -1.7683
27629SOL     OW88722   0.634   5.983   9.039  0.3076 -0.1798 -0.2287
27629SOL    HW188723   0.604   5.897   9.010 -0.6691  0.1964 -0.3672
27629SOL    HW288724   0.637   6.035   8.959  1.6028 -0.2791 -0.2552
27630SOL     OW88725   3.952   6.631   8.394  0.0890  0.1642  0.0751
27630SOL    HW188726   3.870   6.630   8.345  0.2097  1.2354 -0.1748
27630SOL    HW288727   3.934   6.578   8.472 -1.1121  1.0444  0.4262
27631SOL     OW88728  10.308   2.357   5.594  0.2369 -0.4717  0.9258
27631SOL    HW188729  10.340   2.403   5.517  1.5386 -0.6399  1.3278
27631SOL    HW288730  10.379   2.366   5.658 -0.3944 -1.1829  1.7558
27632SOL     OW88731   9.773  10.269   8.540 -0.0689  0.2242  0.0681
27632SOL    HW188732   9.711  10.224   8.598 -1.3223  0.8411 -0.7236
27632SOL    HW288733   9.808  10.341   8.593 -1.7057  1.1959 -0.0747
27633SOL     OW88734   0.845   8.881  10.810  0.0130 -0.2166  0.4942
27633SOL    HW188735   0.850   8.793  10.847  0.4055  0.1931  1.4530
27633SOL    HW288736   0.915   8.884  10.745 -0.8724 -1.0407 -0.5362
27634SOL     OW88737   1.312   1.424  10.820  0.2811  0.1159  0.9763
27634SOL    HW188738   1.293   1.347  10.767 -2.8516  1.6030 -0.3181
27634SOL    HW288739   1.276   1.404  10.906 -0.1320 -0.0234  0.7716
27635SOL     OW88740   1.283   7.822   6.528  0.4140 -0.0037  0.2335
27635SOL    HW188741   1.207   7.872   6.559  0.5653  0.0019  0.6077
27635SOL    HW288742   1.354   7.848   6.587  0.6284 -0.2524  0.0889
27636SOL     OW88743   7.974   1.272   1.456 -0.0126 -0.2566 -0.3056
27636SOL    HW188744   8.028   1.351   1.450  1.5583 -0.9740  2.4830
27636SOL    HW288745   8.037   1.200   1.445 -1.1235 -1.1349 -1.0540
27637SOL     OW88746   9.667   1.139   4.644 -0.1524 -0.0275  0.1131
27637SOL    HW188747   9.706   1.140   4.731 -0.7946 -1.2559  0.4394
27637SOL    HW288748   9.725   1.082   4.593 -0.1807  0.1008 -0.0633
27638SOL     OW88749   0.345   2.604   6.110  0.0636  0.1172 -0.2508
27638SOL    HW188750   0.424   2.562   6.144  0.9713  1.5177 -0.5451
27638SOL    HW288751   0.377   2.662   6.040 -1.3049  0.1963 -0.8342
27639SOL     OW88752   5.353   0.778   7.325  0.1305  0.3090  0.1465
27639SOL    HW188753   5.415   0.716   7.365 -0.8938 -0.5142  0.4981
27639SOL    HW288754   5.403   0.859   7.316  2.5583 -1.3048 -3.1934
27640SOL     OW88755   9.100   6.540   8.159 -0.3178  0.0162 -0.1589
27640SOL    HW188756   9.048   6.608   8.116  0.3055 -0.0731 -1.0848
27640SOL    HW288757   9.119   6.476   8.090 -0.9105 -1.1266  0.7026
27641SOL     OW88758   9.453   9.606  10.860 -0.0587  0.3111 -0.4622
27641SOL    HW188759   9.520   9.539  10.846  0.4180  0.6859 -0.0224
27641SOL    HW288760   9.380   9.579  10.805  0.0597 -0.6685 -0.1543
27642SOL     OW88761  10.578   6.511   2.102 -0.1774 -0.6806  0.1098
27642SOL    HW188762  10.661   6.555   2.117 -0.4432 -0.2635  0.4027
27642SOL    HW288763  10.529   6.524   2.184 -0.7503 -0.4225 -0.2657
27643SOL     OW88764   2.066   8.558   1.535  0.5334  0.4770  0.7851
27643SOL    HW188765   2.015   8.558   1.616 -0.9738  1.4472 -0.1192
27643SOL    HW288766   2.089   8.466   1.521  1.3793  0.3659  2.6242
27644SOL     OW88767   9.353   7.741   5.082  0.0670  0.0171 -0.1228
27644SOL    HW188768   9.347   7.826   5.039 -0.0678  1.2715  2.1889
27644SOL    HW288769   9.265   7.728   5.120  0.5390 -0.3540  0.8841
27645SOL     OW88770   5.836   5.625   4.092  0.1447 -0.0071 -0.5904
27645SOL    HW188771   5.904   5.583   4.144 -0.7340 -0.9114 -0.1316
27645SOL    HW288772   5.800   5.692   4.150 -0.6628 -0.8444 -0.1009
27646SOL     OW88773   9.626   8.880  10.294 -0.3861 -0.2401  0.2092
27646SOL    HW188774   9.615   8.920  10.207 -2.0509  0.2764  0.6348
27646SOL    HW288775   9.637   8.954  10.353  3.4258 -0.5912  0.2214
27647SOL     OW88776   4.582   4.857   0.578 -0.9032 -0.0887 -0.3533
27647SOL    HW188777   4.568   4.762   0.578  1.8253 -0.5677 -0.7664
27647SOL    HW288778   4.524   4.889   0.508 -0.0094 -1.8208 -1.9942
27648SOL     OW88779   6.823   6.822   3.394 -0.1343 -0.0981 -0.4167
27648SOL    HW188780   6.914   6.793   3.381  0.2280  0.8679 -0.1808
27648SOL    HW288781   6.820   6.848   3.486 -0.7931 -0.5767 -0.2963
27649SOL     OW88782   5.975   0.059  10.458 -0.4590 -0.2371 -0.4523
27649SOL    HW188783   5.954   0.120  10.387  1.8764  0.3169 -0.7392
27649SOL    HW288784   5.895   0.007  10.469 -2.2241  2.1957 -0.8496
27650SOL     OW88785  10.199   2.821   5.783  0.2484  0.2026  0.1634
27650SOL    HW188786  10.269   2.807   5.720  0.2409 -0.6250  0.3311
27650SOL    HW288787  10.145   2.891   5.744  2.7938  3.0895  1.4135
27651SOL     OW88788   4.812   8.011   8.233  0.0129 -0.3548 -0.5739
27651SOL    HW188789   4.790   7.921   8.212 -0.8685 -0.1857 -0.3999
27651SOL    HW288790   4.771   8.027   8.318  1.1752 -0.1548 -0.0257
27652SOL     OW88791   0.371   0.619   4.362 -0.1300 -0.1897 -0.5572
27652SOL    HW188792   0.423   0.661   4.294  1.7010  0.2153  1.0024
27652SOL    HW288793   0.422   0.541   4.386 -1.9232 -1.6342 -1.2513
27653SOL     OW88794   2.097   3.157  10.611 -0.2291 -0.5141  0.1796
27653SOL    HW188795   2.155   3.216  10.659 -0.8762  0.1371  0.1887
27653SOL    HW288796   2.064   3.097  10.678 -1.1490  0.4097  0.5929
27654SOL     OW88797   0.668   9.775   5.638 -0.2079 -0.0712 -0.7140
27654SOL    HW188798   0.607   9.818   5.698  0.8826 -0.8249  0.9792
27654SOL    HW288799   0.730   9.843   5.614  1.0609 -0.4218  1.3536
27655SOL     OW88800  10.130   5.781   2.772  0.2832 -0.3687  0.1643
27655SOL    HW188801  10.038   5.758   2.760  0.8663 -2.3448 -1.1072
27655SOL    HW288802  10.155   5.823   2.690  0.2219  1.3937  1.0124
27656SOL     OW88803   2.079  10.637   5.464 -0.3323 -0.8227 -0.0752
27656SOL    HW188804   2.044  10.721   5.434 -1.0842 -1.0909  0.0291
27656SOL    HW288805   2.038  10.572   5.407 -2.5286 -1.4402  2.0070
27657SOL     OW88806   5.503   7.710   7.813 -0.1918 -0.4451  0.1122
27657SOL    HW188807   5.448   7.687   7.888 -0.7826  0.6672  0.0389
27657SOL    HW288808   5.511   7.628   7.764 -1.0177 -0.8391  0.6141
27658SOL     OW88809   0.644   7.213   9.133  0.0647 -0.2792 -0.9229
27658SOL    HW188810   0.680   7.127   9.111 -0.2551 -0.0680 -2.3336
27658SOL    HW288811   0.595   7.239   9.055 -0.6899  0.7371 -0.1269
27659SOL     OW88812   0.313   9.310   3.644  0.3483  0.2145  0.3270
27659SOL    HW188813   0.359   9.360   3.711  1.6028 -0.6438  0.1398
27659SOL    HW288814   0.343   9.220   3.656 -1.1424 -0.3484  0.0560
27660SOL     OW88815   4.277   6.495   3.838 -0.1011 -0.6183 -0.1685
27660SOL    HW188816   4.295   6.479   3.931 -1.1515 -1.5103 -0.1063
27660SOL    HW288817   4.210   6.563   3.837  0.0357 -0.4820 -0.2906
27661SOL     OW88818   6.646   8.543   9.886  0.1654 -0.2338 -0.2128
27661SOL    HW188819   6.646   8.467   9.827 -0.1698  0.3548 -0.9826
27661SOL    HW288820   6.664   8.618   9.829  0.6578  0.2529  0.5660
27662SOL     OW88821   9.447   2.246   9.508  0.1448  1.0010  0.0622
27662SOL    HW188822   9.474   2.338   9.511  0.5367  0.8932 -0.1358
27662SOL    HW288823   9.354   2.248   9.531 -0.7750  1.8415 -3.2229
27663SOL     OW88824   0.221   0.569   6.911  0.3341 -0.1701 -0.0678
27663SOL    HW188825   0.240   0.530   6.826  0.4752  0.1004 -0.1622
27663SOL    HW288826   0.262   0.656   6.907  0.7958 -0.3581  0.4633
27664SOL     OW88827   3.806   3.620   0.992 -0.3904 -0.6857 -0.1788
27664SOL    HW188828   3.858   3.543   1.017 -0.6370 -1.3914 -1.6886
27664SOL    HW288829   3.716   3.588   0.986 -0.4717 -0.3512 -0.9982
27665SOL     OW88830   0.584   0.351  10.434 -0.6159 -0.1796 -0.0349
27665SOL    HW188831   0.548   0.439  10.442 -0.8305 -0.3785  1.8167
27665SOL    HW288832   0.619   0.332  10.522  0.0386 -1.6791 -0.5808
27666SOL     OW88833  10.883   7.796   5.035 -0.0927  0.4034 -0.5499
27666SOL    HW188834  10.936   7.732   5.082  0.7693  1.3341 -0.2126
27666SOL    HW288835  10.807   7.747   5.005  0.0736 -0.5595  0.5261
27667SOL     OW88836   3.389   2.632   5.629 -0.0869  0.1414  0.3461
27667SOL    HW188837   3.386   2.727   5.632 -2.7361  0.1742  3.7729
27667SOL    HW288838   3.476   2.609   5.660  0.2268  1.4675  0.4798
27668SOL     OW88839   9.933   1.223   9.517 -0.5085 -0.4712 -0.4094
27668SOL    HW188840  10.025   1.247   9.528 -0.7482  0.3995 -0.2224
27668SOL    HW288841   9.885   1.297   9.554 -1.2981 -1.8664  1.5189
27669SOL     OW88842   4.887   8.145   1.933  0.5042 -0.1867 -0.1423
27669SOL    HW188843   4.837   8.222   1.906 -0.2147  0.2503  2.2468
27669SOL    HW288844   4.864   8.078   1.868 -1.2173  0.7274 -0.5290
27670SOL     OW88845   3.302   9.603   9.331 -0.1275 -0.9551 -0.5786
27670SOL    HW188846   3.332   9.559   9.252 -0.8915 -3.0753  0.2437
27670SOL    HW288847   3.289   9.532   9.395  0.8686  0.6962  1.5986
27671SOL     OW88848   6.012   2.469   8.178  0.1489  0.0465 -0.4818
27671SOL    HW188849   6.021   2.557   8.215  0.2657 -0.4267  0.6760
27671SOL    HW288850   5.935   2.433   8.222  0.9023 -0.9143  0.0869
27672SOL     OW88851   2.651   8.023   6.277 -0.3491  0.0035  0.1669
27672SOL    HW188852   2.618   7.933   6.270  1.7612 -0.8765  0.6635
27672SOL    HW288853   2.694   8.039   6.193 -0.3266  0.3695  0.2490
27673SOL     OW88854   9.333   4.939   2.835  0.1920  0.1268  0.3042
27673SOL    HW188855   9.384   4.912   2.911 -0.9589  0.3175  1.1654
27673SOL    HW288856   9.242   4.927   2.861 -0.2301  0.3714 -0.9797
27674SOL     OW88857   7.855   1.403   9.576  0.5144  0.2771 -0.3078
27674SOL    HW188858   7.854   1.497   9.590  2.6698  0.0089  2.3783
27674SOL    HW288859   7.918   1.390   9.505 -0.2577  0.8442 -1.1253
27675SOL     OW88860   6.713   0.449   5.900 -0.3757 -0.4100 -0.1332
27675SOL    HW188861   6.617   0.454   5.899 -0.4038 -0.7759  0.3219
27675SOL    HW288862   6.740   0.490   5.818 -0.8986  0.1985 -0.0073
27676SOL     OW88863   4.598   4.234   5.692  0.7987  0.0947 -0.0712
27676SOL    HW188864   4.577   4.210   5.602  0.4245  2.1162 -0.5810
27676SOL    HW288865   4.693   4.242   5.693  0.7922  0.2212 -0.3359
27677SOL     OW88866  10.591   2.219   6.012  0.4214  0.1530 -0.0157
27677SOL    HW188867  10.550   2.253   5.933  1.0195  0.8019 -0.0560
27677SOL    HW288868  10.526   2.233   6.081 -0.1201 -0.4579 -0.3921
27678SOL     OW88869   9.431   9.992   8.961 -0.4220 -0.1249 -0.0136
27678SOL    HW188870   9.459  10.036   8.880 -1.1778 -2.2011 -1.4768
27678SOL    HW288871   9.512   9.962   9.001 -0.0630  0.5577 -0.2011
27679SOL     OW88872   9.913   7.756   8.827 -0.3738  0.4100  0.0195
27679SOL    HW188873   9.854   7.715   8.764 -0.3392 -0.6417  0.6376
27679SOL    HW288874   9.893   7.712   8.910  0.6186  0.6983  0.4242
27680SOL     OW88875   1.182   1.287   8.418  0.1075 -0.1622  0.3981
27680SOL    HW188876   1.242   1.362   8.417  0.5720 -0.5367 -0.5559
27680SOL    HW288877   1.200   1.240   8.337 -1.2832 -0.4417  0.2186
27681SOL     OW88878   2.379   2.459   7.476 -0.1994 -0.2614  0.0615
27681SOL    HW188879   2.435   2.460   7.554 -0.3257 -1.2697  0.1775
27681SOL    HW288880   2.441   2.463   7.403 -0.0908  0.9714  0.1944
27682SOL     OW88881   8.651   3.081   3.318  0.6459 -0.2382 -0.2266
27682SOL    HW188882   8.636   3.062   3.411 -1.8695 -1.0265 -0.7305
27682SOL    HW288883   8.740   3.116   3.316 -0.0918  2.4107  2.8788
27683SOL     OW88884   1.778  10.758  10.615 -0.1359 -0.0731 -0.0534
27683SOL    HW188885   1.724  10.837  10.606  1.1718  1.1153  1.7625
27683SOL    HW288886   1.835  10.759  10.538 -0.3886  0.5681 -0.2386
27684SOL     OW88887   1.300  10.353  10.187 -0.0969  0.1989  0.0758
27684SOL    HW188888   1.333  10.421  10.128 -1.4292  0.1714 -0.7562
27684SOL    HW288889   1.378  10.313  10.225  0.7312  1.5693 -0.1400
27685SOL     OW88890   0.160  10.296   1.749  0.3253 -0.1007  0.2856
27685SOL    HW188891   0.094  10.242   1.706  2.0549  0.1632 -3.0262
27685SOL    HW288892   0.243  10.255   1.728  1.4224  0.8596  2.3715
27686SOL     OW88893   0.972   0.232   7.819  0.1899  0.2736  0.1757
27686SOL    HW188894   0.902   0.246   7.755  1.3320  1.9519 -0.7826
27686SOL    HW288895   0.945   0.282   7.895 -1.0368 -1.4969  0.9582
27687SOL     OW88896   0.076   2.001   6.136 -0.0099  0.8159 -0.0136
27687SOL    HW188897   0.131   2.070   6.099 -0.2317  0.8669 -0.2538
27687SOL    HW288898  -0.005   2.005   6.084 -0.5134  1.2054  0.7743
27688SOL     OW88899   6.236   2.988   4.221  0.3500 -0.2728  0.0705
27688SOL    HW188900   6.171   3.051   4.251 -0.2097 -0.3535 -0.9487
27688SOL    HW288901   6.317   3.015   4.265 -0.0688  0.6313  0.3105
27689SOL     OW88902   2.012   9.476   1.713  0.0415  0.1919 -0.2505
27689SOL    HW188903   1.976   9.431   1.637 -0.8947  0.8550 -0.2147
27689SOL    HW288904   1.986   9.422   1.788 -2.2737  1.4575 -0.0791
27690SOL     OW88905   8.330   8.643   5.492  0.3059  0.2820  0.2243
27690SOL    HW188906   8.329   8.738   5.478  1.8966  1.0492  4.0812
27690SOL    HW288907   8.421   8.617   5.476  0.3272 -0.1799  1.0204
27691SOL     OW88908   9.854   0.682   2.378 -0.0616 -0.2660 -0.0118
27691SOL    HW188909   9.844   0.708   2.469  1.1348  1.1849 -0.2564
27691SOL    HW288910   9.779   0.625   2.361 -0.7077  0.0365  1.6572
27692SOL     OW88911   9.398   3.445   2.889 -0.3350  0.3798 -0.2325
27692SOL    HW188912   9.360   3.533   2.895  2.3591  1.6686 -0.7727
27692SOL    HW288913   9.413   3.420   2.980 -3.1733 -0.5950  0.0754
27693SOL     OW88914  10.374   1.310   0.486 -0.3610 -0.0502 -0.2587
27693SOL    HW188915  10.278   1.306   0.490 -0.3940 -0.0820 -0.9873
27693SOL    HW288916  10.395   1.298   0.394  0.2791  1.4293 -0.3415
27694SOL     OW88917   3.036  10.541   1.256  1.0124 -0.1850  0.0796
27694SOL    HW188918   3.097  10.614   1.249 -0.0918  0.6643 -1.6941
27694SOL    HW288919   3.032  10.505   1.167 -1.3611  0.1057  0.0039
27695SOL     OW88920   3.870   6.111   7.463  0.0259  0.1181 -0.1203
27695SOL    HW188921   3.948   6.168   7.467  0.3996 -0.3896 -0.0785
27695SOL    HW288922   3.905   6.024   7.444 -0.3876 -0.4451  1.5619
27696SOL     OW88923   7.014   5.205   5.036  0.2338 -0.1158 -0.0024
27696SOL    HW188924   7.055   5.190   4.950 -0.0670 -0.9887 -0.0125
27696SOL    HW288925   6.930   5.246   5.015 -0.2171 -1.1038 -0.2024
27697SOL     OW88926   1.484   0.739   7.353  0.5798 -0.4001 -0.2441
27697SOL    HW188927   1.429   0.661   7.360  0.7600 -0.6365 -1.3394
27697SOL    HW288928   1.426   0.806   7.318  0.0613  0.3767  1.9303
27698SOL     OW88929   5.930   4.743   1.902  0.0483  0.4602 -0.5283
27698SOL    HW188930   5.943   4.828   1.944  0.1515 -0.4647  1.4309
27698SOL    HW288931   5.870   4.697   1.961 -0.3495 -0.6614 -1.7819
27699SOL     OW88932   5.857  10.108  10.493 -0.0662  0.0135 -0.0361
27699SOL    HW188933   5.869  10.156  10.411 -3.1816  0.4218 -0.3592
27699SOL    HW288934   5.880  10.171  10.562  1.3267  0.0683 -0.5043
27700SOL     OW88935   5.550   9.649   8.405 -0.1242 -0.5409 -0.0269
27700SOL    HW188936   5.575   9.609   8.322  1.1257  0.7088 -0.2727
27700SOL    HW288937   5.469   9.697   8.386  1.1746  1.3350 -1.0397
27701SOL     OW88938   0.598   5.123   4.521 -0.2924 -0.1940  0.4403
27701SOL    HW188939   0.512   5.086   4.503 -0.8471  0.6697  1.2306
27701SOL    HW288940   0.636   5.141   4.435 -0.9070 -0.5464  0.0918
27702SOL     OW88941   2.971   3.618   7.365  0.1880 -0.5058 -0.1193
27702SOL    HW188942   2.886   3.633   7.407 -0.4312 -0.3145 -1.3801
27702SOL    HW288943   2.968   3.671   7.285  1.5816 -0.3460 -0.0862
27703SOL     OW88944   2.978   8.310   2.218  0.1680 -0.6319  0.0639
27703SOL    HW188945   3.063   8.326   2.260  1.4312  0.9148 -2.7261
27703SOL    HW288946   2.996   8.243   2.152 -0.3264  0.7742 -1.5865
27704SOL     OW88947   4.276  10.227   6.865 -0.4387 -0.4476  0.3058
27704SOL    HW188948   4.268  10.133   6.850  0.6917 -0.6756  0.9461
27704SOL    HW288949   4.237  10.268   6.788  0.0726 -1.4641 -0.5214
27705SOL     OW88950   0.748   2.307   8.943  0.2093  0.6851 -0.1464
27705SOL    HW188951   0.689   2.371   8.984 -0.6407  0.5361 -1.1062
27705SOL    HW288952   0.782   2.352   8.866 -0.4911 -0.0406 -0.8996
27706SOL     OW88953   8.429   2.404   6.399  0.1500  0.1898 -0.1423
27706SOL    HW188954   8.506   2.442   6.441  1.4182 -0.7573 -1.4885
27706SOL    HW288955   8.465   2.349   6.329 -1.5926 -2.6375  1.0114
27707SOL     OW88956   6.673   7.535   8.750  0.4122  0.0255 -0.0194
27707SOL    HW188957   6.659   7.468   8.682  1.7165  1.1656 -1.4785
27707SOL    HW288958   6.768   7.546   8.754  0.3326  0.3496  1.6761
27708SOL     OW88959   4.607   3.179   1.473  0.5640 -0.1962  0.6444
27708SOL    HW188960   4.517   3.202   1.497  0.3349 -0.4968  0.0892
27708SOL    HW288961   4.630   3.109   1.535 -0.0709 -1.0604 -0.0647
27709SOL     OW88962   7.148   7.006  10.334  0.1956  0.3557  0.2737
27709SOL    HW188963   7.156   7.051  10.251 -0.2536 -0.5083 -0.2526
27709SOL    HW288964   7.201   6.926  10.323 -0.5936 -0.2054  0.4843
27710SOL     OW88965   7.179   3.402   1.663 -0.9277 -0.7127 -0.1425
27710SOL    HW188966   7.106   3.352   1.628  0.5220 -2.4841 -0.8160
27710SOL    HW288967   7.243   3.335   1.691 -0.3211  0.6962  2.1912
27711SOL     OW88968   4.451   2.714   0.186 -0.0600 -0.6466 -0.6817
27711SOL    HW188969   4.525   2.765   0.151  0.8291 -1.7195 -0.4112
27711SOL    HW288970   4.383   2.722   0.119  0.6160 -0.3498 -1.3463
27712SOL     OW88971   1.763   1.198   9.965  0.1205  0.0597 -0.0971
27712SOL    HW188972   1.727   1.184   9.877  0.4615  1.0099 -0.4069
27712SOL    HW288973   1.825   1.126   9.977 -0.0035 -0.1394 -0.5953
27713SOL     OW88974   6.434   0.238   7.065  0.9669  0.5204  0.2019
27713SOL    HW188975   6.498   0.202   7.003  2.1457  2.2657  0.3209
27713SOL    HW288976   6.356   0.253   7.012  1.0500 -0.4832 -0.2354
27714SOL     OW88977   0.256   0.498   2.607 -0.1433 -0.0215 -0.3029
27714SOL    HW188978   0.245   0.405   2.589  1.0907  0.1137 -1.9899
27714SOL    HW288979   0.252   0.540   2.521  1.7780  1.1835  0.1365
27715SOL     OW88980   3.947   5.025   5.403 -0.2245  0.2537 -0.1257
27715SOL    HW188981   4.024   5.075   5.376 -0.5088 -0.1636 -1.8369
27715SOL    HW288982   3.884   5.091   5.431  0.4569  0.6444  0.5424
27716SOL     OW88983   0.173   6.035   0.397 -0.1443  0.1078 -0.0206
27716SOL    HW188984   0.117   6.034   0.320 -2.5432 -0.4342  1.6144
27716SOL    HW288985   0.156   6.120   0.438  0.7678  0.2116  0.1729
27717SOL     OW88986   4.751   3.436   0.355 -0.9461 -0.2018 -0.2590
27717SOL    HW188987   4.704   3.519   0.353 -0.8080 -0.1354 -1.6005
27717SOL    HW288988   4.781   3.428   0.446 -2.7392  0.1834  0.4200
27718SOL     OW88989   9.280   3.712  10.669  0.6376  0.1397 -0.4649
27718SOL    HW188990   9.227   3.757  10.735 -0.5266 -0.3192 -1.0603
27718SOL    HW288991   9.342   3.659  10.720  0.2015  0.3020  0.2460
27719SOL     OW88992   3.955   8.784   3.744 -0.4761 -0.3330 -0.0053
27719SOL    HW188993   3.897   8.708   3.745 -0.0939 -0.6267 -0.0153
27719SOL    HW288994   3.976   8.797   3.651  0.6873 -1.1681  0.1136
27720SOL     OW88995   8.443   4.125   0.298 -0.1147 -0.3282 -0.0108
27720SOL    HW188996   8.398   4.147   0.216 -0.5225  0.4311  0.4078
27720SOL    HW288997   8.396   4.174   0.365  0.7598 -0.2530  0.5624
27721SOL     OW88998   2.108   7.120   8.085  0.2228 -0.5498  0.6107
27721SOL    HW188999   2.057   7.157   8.157 -0.2590  0.4696 -0.2151
27721SOL    HW289000   2.199   7.126   8.113  0.1141  0.7734  0.7407
27722SOL     OW89001   3.074   5.249   9.567 -0.3381 -0.2880  0.4920
27722SOL    HW189002   3.121   5.166   9.569 -0.1768 -0.1837  1.1964
27722SOL    HW289003   3.058   5.270   9.659  1.0713  1.2839  0.4147
27723SOL     OW89004   4.797   2.963   7.202  0.8550 -0.2971 -0.2230
27723SOL    HW189005   4.717   2.913   7.216 -1.0178  2.7367  0.9978
27723SOL    HW289006   4.845   2.956   7.284  0.5947 -0.1359 -0.0532
27724SOL     OW89007   8.248   0.650   6.742  0.1032  0.2746  0.0350
27724SOL    HW189008   8.300   0.570   6.747  1.8446  1.3106 -0.6853
27724SOL    HW289009   8.157   0.620   6.739  0.6487 -1.6083  1.0611
27725SOL     OW89010   9.483   5.030   0.543  0.0756 -0.2214 -0.3697
27725SOL    HW189011   9.499   5.062   0.454 -0.9463  0.7453 -0.2148
27725SOL    HW289012   9.471   5.109   0.596  0.6486 -0.7873  0.6333
27726SOL     OW89013   9.540   6.205   2.442 -0.0945  0.9058 -0.3206
27726SOL    HW189014   9.602   6.135   2.462 -1.5317 -0.6742 -1.0757
27726SOL    HW289015   9.575   6.282   2.486  1.0304 -0.5089  1.3993
27727SOL     OW89016   1.792   3.719   9.184 -0.4326 -0.1120  0.6902
27727SOL    HW189017   1.843   3.665   9.245 -1.3785 -0.1738  1.4461
27727SOL    HW289018   1.820   3.690   9.097 -0.2386 -1.1641  1.0910
27728SOL     OW89019   2.116   6.556   0.732  0.0806 -0.4396 -0.3792
27728SOL    HW189020   2.058   6.481   0.716  0.1897 -0.2574 -1.7888
27728SOL    HW289021   2.078   6.599   0.809  0.4564 -2.3316  0.9261
27729SOL     OW89022  10.058   6.497   9.511 -0.4236 -0.3101 -0.3429
27729SOL    HW189023   9.965   6.500   9.488 -0.0243 -0.5373 -2.0830
27729SOL    HW289024  10.061   6.439   9.587 -1.4959 -2.1832 -1.6324
27730SOL     OW89025   8.758   8.810   8.718  0.3036  0.1580 -0.1040
27730SOL    HW189026   8.797   8.861   8.647  1.3014  0.7240  0.8111
27730SOL    HW289027   8.812   8.831   8.795  0.4653 -1.9072  0.4188
27731SOL     OW89028   0.413   1.990   2.657 -0.4685 -0.1449 -0.1920
27731SOL    HW189029   0.391   1.903   2.623  1.6437 -1.2394  1.0469
27731SOL    HW289030   0.490   2.017   2.606  1.0033 -0.5746  1.6984
27732SOL     OW89031   3.483   4.875   9.514 -0.7228  0.7811 -0.0353
27732SOL    HW189032   3.497   4.783   9.493 -0.9851  0.1416  2.3164
27732SOL    HW289033   3.532   4.923   9.448  0.2147 -1.0664 -0.7360
27733SOL     OW89034   3.053   9.808   5.185 -0.4033 -0.0956  0.4745
27733SOL    HW189035   3.050   9.898   5.150 -1.6089  0.2421  1.3660
27733SOL    HW289036   3.022   9.753   5.113 -1.5702  0.4409  0.5408
27734SOL     OW89037   5.506   9.383   6.741 -0.1944 -0.1421  0.4988
27734SOL    HW189038   5.419   9.354   6.767  0.5576 -3.1490  0.0652
27734SOL    HW289039   5.501   9.391   6.646  0.1181 -0.9849  0.3967
27735SOL     OW89040   2.507   5.794   6.698 -0.2878  0.1265  0.0595
27735SOL    HW189041   2.466   5.878   6.722 -1.2687 -0.0906 -0.7518
27735SOL    HW289042   2.489   5.737   6.772  0.9453  0.7874  0.9076
27736SOL     OW89043   1.361   5.366   3.643  0.6066 -0.1769  0.2256
27736SOL    HW189044   1.326   5.427   3.708  0.6291 -0.9495  0.9858
27736SOL    HW289045   1.289   5.305   3.627  0.4800  0.2086 -0.7559
27737SOL     OW89046   0.631   8.106   4.451 -0.1077 -0.1429 -0.3001
27737SOL    HW189047   0.582   8.048   4.393  1.7999 -2.3431  0.1169
27737SOL    HW289048   0.603   8.194   4.427  0.1675 -0.9357 -4.1628
27738SOL     OW89049   1.444  10.614   1.431 -0.1485 -0.1374  0.0665
27738SOL    HW189050   1.447  10.529   1.388  1.2056  0.9968 -2.2421
27738SOL    HW289051   1.350  10.630   1.445 -0.3912 -2.5145  1.8101
27739SOL     OW89052   9.589   8.987   4.363  0.1970 -0.2401 -0.1450
27739SOL    HW189053   9.622   9.008   4.276  0.8499 -0.5108  0.0329
27739SOL    HW289054   9.507   8.940   4.346  0.0461  0.1781 -0.5984
27740SOL     OW89055   9.042   7.882   8.492 -0.4816  0.1450 -0.1632
27740SOL    HW189056   9.083   7.805   8.452 -0.7178  0.3992 -0.9181
27740SOL    HW289057   9.066   7.955   8.435 -0.3368  0.6183  0.4945
27741SOL     OW89058   0.559   3.776   5.459 -0.1457 -0.3336 -0.5129
27741SOL    HW189059   0.633   3.808   5.510  0.7620 -0.5779 -1.6322
27741SOL    HW289060   0.577   3.805   5.369 -1.8419  0.3342 -0.6657
27742SOL     OW89061   3.205   5.213  10.070  0.0454  0.3601 -0.0498
27742SOL    HW189062   3.265   5.235  10.141  0.3029 -0.4956  0.0019
27742SOL    HW289063   3.187   5.297  10.027  2.9948  0.3896 -1.4413
27743SOL     OW89064  10.183   7.774   6.706  0.4088  0.3878 -0.0491
27743SOL    HW189065  10.192   7.748   6.798 -0.6094  0.5401  0.1052
27743SOL    HW289066  10.166   7.692   6.660  0.0738  0.4110  0.0275
27744SOL     OW89067   2.905   4.776   7.560 -0.1280 -0.3141  0.0500
27744SOL    HW189068   2.862   4.783   7.475  0.9166  0.1602 -0.4569
27744SOL    HW289069   2.966   4.703   7.551  0.2562 -0.0277  0.2564
27745SOL     OW89070   5.463   8.961   3.728  0.5206 -0.2719 -0.2342
27745SOL    HW189071   5.534   9.013   3.691  1.4049 -0.5206  1.0240
27745SOL    HW289072   5.476   8.873   3.693 -0.1583  0.0338 -1.2859
27746SOL     OW89073   5.741   8.006   1.998 -0.1429 -0.1991 -0.5933
27746SOL    HW189074   5.775   7.932   2.050  0.8899 -0.1056 -1.1112
27746SOL    HW289075   5.717   7.967   1.914 -1.4819 -0.2854 -0.1911
27747SOL     OW89076   4.431   6.591   6.034 -0.4477 -0.2126 -0.2949
27747SOL    HW189077   4.390   6.568   6.117 -1.4419  1.6524 -0.2091
27747SOL    HW289078   4.515   6.629   6.057 -0.3590 -0.4662 -0.2006
27748SOL     OW89079   0.660   8.448   3.302 -0.1285 -0.5249 -0.0012
27748SOL    HW189080   0.603   8.386   3.257 -0.9188  0.4191 -0.3215
27748SOL    HW289081   0.747   8.430   3.266 -0.6640 -0.1171 -1.5847
27749SOL     OW89082   5.041  10.350   2.058  0.1100  0.4677 -0.4989
27749SOL    HW189083   5.095  10.375   1.983  0.7480  1.2421  0.2131
27749SOL    HW289084   5.095  10.289   2.108 -0.3601 -0.1377 -0.7086
27750SOL     OW89085   6.788   2.269   3.996 -0.5349  0.1563 -0.0587
27750SOL    HW189086   6.837   2.203   4.045 -1.3895 -1.0066 -0.7331
27750SOL    HW289087   6.846   2.293   3.924  0.4725  1.4215  1.0952
27751SOL     OW89088   1.657   7.048   6.251 -0.2271  0.4707  0.8504
27751SOL    HW189089   1.670   6.999   6.170  0.0121  2.1411 -0.1605
27751SOL    HW289090   1.672   6.983   6.320  0.7315 -0.7211 -0.4086
27752SOL     OW89091   3.234   2.795   2.063 -0.4063  0.0498  0.2214
27752SOL    HW189092   3.322   2.788   2.101 -0.1941 -0.2944 -0.3311
27752SOL    HW289093   3.175   2.768   2.134 -0.0696  0.2578  0.5832
27753SOL     OW89094   2.683   9.427   2.297  0.2130  0.2811  0.5313
27753SOL    HW189095   2.682   9.331   2.293  1.0561  0.1958  1.7928
27753SOL    HW289096   2.643   9.455   2.215  2.2250 -1.1426 -1.0604
27754SOL     OW89097   2.325   9.736   8.314  0.1384 -0.4037  0.2643
27754SOL    HW189098   2.283   9.821   8.327  2.0102  0.6716 -0.2934
27754SOL    HW289099   2.332   9.727   8.219  0.1602 -1.1112  0.3231
27755SOL     OW89100   4.363   9.770   1.079  0.0213 -0.1606 -0.0068
27755SOL    HW189101   4.271   9.792   1.063  0.7540  1.8467 -1.9806
27755SOL    HW289102   4.407   9.784   0.995  2.3206 -0.0331  1.1274
27756SOL     OW89103   1.905   3.947   5.067  0.0665  0.4928  0.0814
27756SOL    HW189104   1.895   3.853   5.056  3.2501  0.1612 -1.0401
27756SOL    HW289105   1.960   3.957   5.145  1.7119  1.2274 -1.1209
27757SOL     OW89106   0.420   7.876   9.562  0.5244 -0.2688  0.0378
27757SOL    HW189107   0.512   7.876   9.536  1.6548 -3.4296  3.2100
27757SOL    HW289108   0.388   7.789   9.537 -1.5067  0.5829 -0.5381
27758SOL     OW89109   5.379   1.610   7.095  0.2521  0.6401 -0.5084
27758SOL    HW189110   5.304   1.554   7.116  0.0780  1.1467  0.2520
27758SOL    HW289111   5.378   1.678   7.162  0.3543  1.6705 -1.5245
27759SOL     OW89112   2.432   0.044   5.172 -0.2633  0.3758  0.5615
27759SOL    HW189113   2.394   0.126   5.203  1.4111  1.7893 -0.8881
27759SOL    HW289114   2.431   0.051   5.076  2.9483  0.2995  0.4025
27760SOL     OW89115   1.939   6.704   3.728  0.5581  0.0921  0.2432
27760SOL    HW189116   1.932   6.771   3.661 -2.5367  0.2799  0.6452
27760SOL    HW289117   1.919   6.749   3.810  1.1235 -0.7828  0.8839
27761SOL     OW89118  10.649   5.648   6.031 -0.1405 -0.8672  0.4130
27761SOL    HW189119  10.702   5.696   6.095  0.7435 -1.5972  0.2594
27761SOL    HW289120  10.712   5.622   5.964 -0.8842 -0.9484 -0.2614
27762SOL     OW89121  10.626   7.169   9.366  0.1557 -0.0272  0.4153
27762SOL    HW189122  10.596   7.081   9.388  0.1770  0.3490  2.0323
27762SOL    HW289123  10.722   7.164   9.374  0.0777  0.4986  2.0194
27763SOL     OW89124   9.721   9.858   5.408 -0.0453  0.2704  0.2909
27763SOL    HW189125   9.767   9.803   5.345 -0.9679  2.3813 -2.4074
27763SOL    HW289126   9.629   9.836   5.396 -0.1443 -1.0515  2.7928
27764SOL     OW89127   6.730   5.077   7.685  0.2653  0.4891 -0.0027
27764SOL    HW189128   6.741   5.156   7.738  1.4399  1.9032 -2.1949
27764SOL    HW289129   6.811   5.072   7.633 -0.3594 -1.4205 -0.8782
27765SOL     OW89130   1.504   6.342   0.677 -0.1792 -0.6761  0.7759
27765SOL    HW189131   1.443   6.409   0.709  0.7961  0.6342  0.0024
27765SOL    HW289132   1.447   6.277   0.635 -1.0979  0.1401  0.7129
27766SOL     OW89133   8.735   4.848   9.736  0.0865  0.2603  0.1792
27766SOL    HW189134   8.751   4.830   9.643  1.4114  3.3338 -0.3038
27766SOL    HW289135   8.649   4.891   9.738  0.2636  0.6134  0.2992
27767SOL     OW89136   9.718   1.854  10.904  0.4965 -0.0249 -0.5399
27767SOL    HW189137   9.661   1.857  10.827 -0.5645 -0.3423  0.2129
27767SOL    HW289138   9.712   1.764  10.936  1.9969 -0.2589 -0.8482
27768SOL     OW89139   8.714   7.201   3.853 -0.0768  0.7553 -0.0006
27768SOL    HW189140   8.652   7.214   3.925 -0.4297 -0.1022 -0.1332
27768SOL    HW289141   8.779   7.140   3.887  0.5528  1.4331  0.0435
27769SOL     OW89142   7.297   6.530   9.101 -0.3897  0.8167 -0.1778
27769SOL    HW189143   7.270   6.476   9.027  0.3089 -0.3526  0.3958
27769SOL    HW289144   7.386   6.557   9.079 -0.4941  1.1923 -0.1506
27770SOL     OW89145   8.088   9.355  10.647 -0.2490 -0.2335 -0.6447
27770SOL    HW189146   8.164   9.298  10.663 -1.0279 -1.5293 -1.3575
27770SOL    HW289147   8.042   9.313  10.574  0.1331  2.3583 -2.5069
27771SOL     OW89148   3.914   3.037   2.039 -0.1160  0.1656  0.6268
27771SOL    HW189149   4.004   3.064   2.022 -0.7574  1.9290 -0.2026
27771SOL    HW289150   3.917   2.942   2.043  1.5730  0.1323 -0.6872
27772SOL     OW89151   6.308  10.255   4.988  0.1254  0.4738 -0.1382
27772SOL    HW189152   6.214  10.266   5.002  0.1153  1.3026 -0.7971
27772SOL    HW289153   6.330  10.173   5.033 -1.1462 -0.4012 -1.0660
27773SOL     OW89154   0.614   4.234   0.241  0.2753 -0.2741 -0.1563
27773SOL    HW189155   0.534   4.193   0.206 -0.4865  1.5562 -0.6422
27773SOL    HW289156   0.664   4.259   0.164  1.3840 -1.4298  0.1489
27774SOL     OW89157   3.062   7.254   6.376 -0.2057 -0.0878  0.5216
27774SOL    HW189158   3.146   7.297   6.392  0.5701 -1.4708  0.3167
27774SOL    HW289159   3.022   7.247   6.463  0.5116 -0.6370  0.8215
27775SOL     OW89160   1.401   8.791   6.968  0.5368 -0.8208  0.2331
27775SOL    HW189161   1.380   8.873   7.013 -0.1175 -1.2386  0.7022
27775SOL    HW289162   1.476   8.755   7.016 -0.4263 -1.4819  1.3044
27776SOL     OW89163  10.259   6.764  10.758 -0.4496 -0.2931  0.1395
27776SOL    HW189164  10.289   6.825  10.690 -0.4613 -0.1562  0.2575
27776SOL    HW289165  10.332   6.758  10.819 -0.2171 -0.8790 -0.2012
27777SOL     OW89166   1.144   6.770   6.807 -0.0349  0.7104  0.5330
27777SOL    HW189167   1.130   6.863   6.821 -2.0235  0.2897  1.7166
27777SOL    HW289168   1.139   6.731   6.894  1.9139 -0.3972  0.1920
27778SOL     OW89169   0.360   7.300   5.567 -0.0403 -0.0809  0.3671
27778SOL    HW189170   0.341   7.242   5.641 -0.1147 -0.1038  0.3310
27778SOL    HW289171   0.317   7.258   5.492 -2.8358  1.5911  0.8820
27779SOL     OW89172   9.227   0.052   6.878 -0.3151 -0.4348 -0.1148
27779SOL    HW189173   9.286  -0.014   6.843  0.8975  0.3957  0.3053
27779SOL    HW289174   9.200   0.102   6.801  0.8441  0.1976 -0.1355
27780SOL     OW89175   0.015   4.874   3.887 -0.3274 -0.0876 -0.5950
27780SOL    HW189176  -0.077   4.894   3.902 -0.2250 -0.3087  0.3763
27780SOL    HW289177   0.059   4.902   3.967  0.2180 -1.5058 -0.3640
27781SOL     OW89178   3.729   9.086   4.503  0.0523 -0.0694  0.0367
27781SOL    HW189179   3.650   9.040   4.532  1.2139 -1.5445  1.0264
27781SOL    HW289180   3.739   9.158   4.565 -0.3331 -0.0787  0.1110
27782SOL     OW89181   3.033   0.067  10.841 -0.0137  0.1458 -0.3958
27782SOL    HW189182   3.090   0.056  10.917 -0.3242 -2.6522 -0.4525
27782SOL    HW289183   3.074   0.013  10.773 -1.2455  0.3263 -1.3173
27783SOL     OW89184   8.732   3.434   6.777  0.1671  0.4036 -0.2033
27783SOL    HW189185   8.686   3.379   6.714  1.2005 -1.1525  0.3541
27783SOL    HW289186   8.769   3.505   6.724  1.2208 -0.9980 -1.4261
27784SOL     OW89187   7.244   2.470   8.126  0.3110  0.8654  0.0111
27784SOL    HW189188   7.188   2.400   8.094  0.0859  0.3624  1.4580
27784SOL    HW289189   7.198   2.550   8.100 -0.2280  0.4679 -0.2913
27785SOL     OW89190   4.924   2.303   2.928  0.3279 -0.3701  0.4268
27785SOL    HW189191   4.908   2.328   2.837 -0.0799 -0.9919  0.3228
27785SOL    HW289192   4.936   2.386   2.974 -0.8192  0.0158  0.0524
27786SOL     OW89193   7.456   6.914   8.551  0.2433 -0.7944 -0.8937
27786SOL    HW189194   7.446   6.935   8.644 -2.8263  0.5995 -1.3775
27786SOL    HW289195   7.528   6.969   8.522  1.2811 -1.2744  0.6261
27787SOL     OW89196   1.170   9.260   5.083  0.5317 -0.1387 -0.3426
27787SOL    HW189197   1.245   9.233   5.030  2.0992  0.7173  1.3209
27787SOL    HW289198   1.171   9.356   5.077 -0.0078 -0.0940  0.2516
27788SOL     OW89199   7.906   7.431   7.195 -0.4233 -0.0469 -0.0946
27788SOL    HW189200   7.963   7.377   7.249 -0.0700 -0.3347 -0.7365
27788SOL    HW289201   7.906   7.387   7.110  1.3189  1.8965 -1.1841
27789SOL     OW89202   3.711   0.355   2.765  0.0523  0.3689  0.2986
27789SOL    HW189203   3.682   0.405   2.841  1.2023  0.0564  0.9759
27789SOL    HW289204   3.786   0.404   2.731 -0.6908  0.7175 -0.8958
27790SOL     OW89205   5.078   5.839   9.878 -0.2367 -0.2754 -0.0765
27790SOL    HW189206   5.162   5.795   9.870 -0.2183 -0.1397 -0.7066
27790SOL    HW289207   5.099   5.924   9.916 -0.0599 -0.1657 -0.4144
27791SOL     OW89208   7.824   3.093   7.173  0.8655 -0.4295 -0.0555
27791SOL    HW189209   7.857   3.061   7.089  2.6356 -0.1306  0.4679
27791SOL    HW289210   7.810   3.014   7.225  1.8584 -0.5484  0.0620
27792SOL     OW89211   7.467   5.018   9.057 -0.0008 -0.4375 -0.0835
27792SOL    HW189212   7.500   5.091   9.005  1.5516 -0.7059  0.4698
27792SOL    HW289213   7.542   4.960   9.068 -0.8933 -1.5309  0.5034
27793SOL     OW89214   7.023   9.499   6.632  0.0079 -0.0334 -0.9877
27793SOL    HW189215   7.036   9.581   6.586 -0.1262  0.4165 -0.2462
27793SOL    HW289216   6.940   9.510   6.679 -1.3166 -1.5148 -2.8133
27794SOL     OW89217   9.613   6.037   6.282  0.0009 -0.1906 -0.7541
27794SOL    HW189218   9.524   6.069   6.292  0.4825  0.5678  1.7425
27794SOL    HW289219   9.664   6.115   6.258 -0.0892 -0.8221 -3.3849
27795SOL     OW89220   7.638   9.179   6.372  0.0241 -0.4516  0.3688
27795SOL    HW189221   7.686   9.249   6.416  1.3480 -2.3576  2.1232
27795SOL    HW289222   7.549   9.184   6.409 -0.2760  1.0186 -0.4529
27796SOL     OW89223   9.736   5.122   0.114 -0.1819 -0.1704  0.3209
27796SOL    HW189224   9.704   5.192   0.057  1.0404  0.6966  0.6730
27796SOL    HW289225   9.716   5.042   0.066 -1.4690  0.4023 -0.1590
27797SOL     OW89226   2.796   1.168   0.071 -0.3092 -0.0389 -0.9653
27797SOL    HW189227   2.862   1.112   0.111 -3.5592 -1.1987  3.6150
27797SOL    HW289228   2.735   1.107   0.028 -1.5647  0.2927  0.2637
27798SOL     OW89229   8.227   3.811   8.633  0.2142  0.1866 -0.7562
27798SOL    HW189230   8.241   3.730   8.681 -1.0815  0.9125  0.9912
27798SOL    HW289231   8.273   3.878   8.685 -2.3197  1.2076  0.3849
27799SOL     OW89232   2.242   4.932   2.409  0.0762 -0.1181 -0.0469
27799SOL    HW189233   2.186   4.953   2.483  0.7650  1.0366  0.1597
27799SOL    HW289234   2.218   4.842   2.386 -2.4701  0.5979 -0.5154
27800SOL     OW89235   1.864   7.368   3.142  0.1583  1.0355  0.3292
27800SOL    HW189236   1.842   7.347   3.051 -0.5557 -0.6492  0.8588
27800SOL    HW289237   1.954   7.400   3.138  0.8330 -0.8672 -0.7558
27801SOL     OW89238   6.071   3.585   8.998 -0.0129  0.3527  0.8390
27801SOL    HW189239   6.025   3.512   9.039 -0.7748 -0.2938 -1.0492
27801SOL    HW289240   6.086   3.648   9.069  1.0311 -1.7718  2.6171
27802SOL     OW89241   0.139   4.781   1.277 -0.3952 -0.2688 -0.2922
27802SOL    HW189242   0.056   4.753   1.237  0.9350 -2.2349 -1.8980
27802SOL    HW289243   0.125   4.774   1.371 -1.8863 -1.1103 -0.5495
27803SOL     OW89244   5.626   9.772   3.904 -0.1902 -0.4338  0.2891
27803SOL    HW189245   5.553   9.722   3.940  0.0384  0.5885  2.3097
27803SOL    HW289246   5.596   9.862   3.904 -0.0755 -0.3343 -1.9725
27804SOL     OW89247   5.836   2.429   0.984  0.1988  0.0161 -0.3874
27804SOL    HW189248   5.872   2.358   1.038  0.4999  0.7270  0.3762
27804SOL    HW289249   5.811   2.387   0.902  0.9649 -0.8555 -0.1887
27805SOL     OW89250   2.887   8.056  10.176 -0.1017 -0.1864  0.0494
27805SOL    HW189251   2.887   7.963  10.153 -0.0167 -0.3641  0.7433
27805SOL    HW289252   2.830   8.097  10.111 -0.6707 -0.8273  0.1377
27806SOL     OW89253   7.989  10.060   3.829 -0.0785  0.2116 -0.5078
27806SOL    HW189254   7.978   9.968   3.805  0.6003 -0.2235  0.7542
27806SOL    HW289255   8.048  10.095   3.763 -0.2816 -0.2672 -0.9577
27807SOL     OW89256   2.629   7.215   6.805 -0.0679 -0.2275  0.0431
27807SOL    HW189257   2.673   7.159   6.741 -1.5244 -1.0914 -0.2572
27807SOL    HW289258   2.590   7.154   6.868  1.8553  0.6043  2.1971
27808SOL     OW89259   3.561   3.399   6.976 -0.4227 -0.0171 -0.1834
27808SOL    HW189260   3.609   3.481   6.968  1.4035 -0.5997  3.0875
27808SOL    HW289261   3.600   3.342   6.909  2.2109  0.1740  1.0433
27809SOL     OW89262   3.452   8.073  10.766 -0.2272  0.3578 -0.2576
27809SOL    HW189263   3.520   8.035  10.821  0.3690 -1.0558 -1.8697
27809SOL    HW289264   3.393   8.117  10.827  0.1141 -1.5414  1.5474
27810SOL     OW89265   0.662   6.782   5.876 -0.4407 -0.0100 -0.5370
27810SOL    HW189266   0.574   6.746   5.860 -1.1927  0.9421  1.1605
27810SOL    HW289267   0.683   6.754   5.965  1.0160 -0.2309 -0.9298
27811SOL     OW89268   0.461  10.780   3.167  0.9790  0.4969  0.3629
27811SOL    HW189269   0.496  10.725   3.236  2.3001  1.9626  0.9241
27811SOL    HW289270   0.476  10.870   3.197  2.7812  1.2251 -2.3292
27812SOL     OW89271   8.777   7.708   4.836 -0.1932  0.8208 -0.2679
27812SOL    HW189272   8.709   7.707   4.903 -1.5297  0.0157 -1.5779
27812SOL    HW289273   8.729   7.709   4.753  1.3832  2.9289 -1.2593
27813SOL     OW89274   5.118   5.423  10.892 -0.3418 -0.3550 -0.0953
27813SOL    HW189275   5.052   5.411  10.960 -0.1005 -0.7525  0.0712
27813SOL    HW289276   5.071   5.411  10.809 -0.7838  0.8322 -0.0257
27814SOL     OW89277  10.541   6.050   4.334 -0.5346  0.1920 -0.3777
27814SOL    HW189278  10.536   6.050   4.238 -2.2816  1.0981 -0.3219
27814SOL    HW289279  10.470   5.991   4.361 -1.1123  1.2164  0.3742
27815SOL     OW89280   6.023   5.963   0.800  0.6230 -0.0501 -0.6227
27815SOL    HW189281   5.940   5.915   0.793  0.6409  0.1074 -2.5198
27815SOL    HW289282   6.028   6.013   0.719  2.4949  0.1039 -0.4518
27816SOL     OW89283   6.454   7.580   8.433  0.0444  0.4069 -0.2746
27816SOL    HW189284   6.399   7.608   8.506  2.5784  2.9035  0.8673
27816SOL    HW289285   6.506   7.508   8.469  0.8412  1.2227  0.2840
27817SOL     OW89286  10.137  10.372   6.288  0.2346  0.1109 -0.2006
27817SOL    HW189287  10.050  10.363   6.250  0.0490  0.1015  0.2277
27817SOL    HW289288  10.191  10.309   6.240  0.6900  2.1003 -2.5052
27818SOL     OW89289  10.604   8.053   0.333  0.6695  0.6944 -0.2930
27818SOL    HW189290  10.699   8.043   0.325  0.7254  0.2847  0.8161
27818SOL    HW289291  10.586   8.046   0.426 -0.6612 -1.1445 -0.6181
27819SOL     OW89292   5.338   6.160   9.557  0.0706 -0.1807  0.3887
27819SOL    HW189293   5.362   6.202   9.475  0.5302 -0.4539  0.3810
27819SOL    HW289294   5.420   6.149   9.604 -0.2942  0.8875  1.3347
27820SOL     OW89295   1.816   2.622   5.771  0.4871 -0.7826  0.4790
27820SOL    HW189296   1.882   2.685   5.801 -1.4918  0.8245  1.6995
27820SOL    HW289297   1.819   2.629   5.675  1.0607  0.3788  0.5624
27821SOL     OW89298   2.674   1.440   0.381 -0.6919 -0.4174 -0.3180
27821SOL    HW189299   2.727   1.376   0.429  0.9192  1.0654  0.0053
27821SOL    HW289300   2.639   1.497   0.448  0.8701  1.1587 -0.7543
27822SOL     OW89301   4.344   4.554  10.528 -0.1646 -0.9762  0.0852
27822SOL    HW189302   4.327   4.464  10.503 -0.1273 -0.5558 -1.5620
27822SOL    HW289303   4.386   4.593  10.452 -1.2239  0.7354  0.3146
27823SOL     OW89304   7.238   3.825   7.248  0.2205  0.6827 -0.3486
27823SOL    HW189305   7.262   3.755   7.309 -0.1252 -0.9935 -2.0652
27823SOL    HW289306   7.146   3.843   7.266  0.1654  0.3248 -0.2802
27824SOL     OW89307   6.388   1.558   0.373  0.5066 -0.2426  0.0037
27824SOL    HW189308   6.474   1.570   0.412  0.9052 -0.9638 -0.6205
27824SOL    HW289309   6.373   1.463   0.378 -0.8398  0.0001  1.3266
27825SOL     OW89310  10.683   3.152   7.303 -0.6358  0.3608  0.3587
27825SOL    HW189311  10.621   3.081   7.285  0.5876 -0.6611 -0.0239
27825SOL    HW289312  10.748   3.145   7.234  1.9622 -1.0566  2.7208
27826SOL     OW89313   3.209   1.788   2.748 -0.2131  0.1417 -1.2650
27826SOL    HW189314   3.290   1.821   2.711  0.3778 -1.0016 -1.0076
27826SOL    HW289315   3.205   1.827   2.835 -0.5558  1.1439 -1.7086
27827SOL     OW89316   6.617  10.718   5.224 -0.0563 -0.1493 -0.2557
27827SOL    HW189317   6.600  10.672   5.306  0.2078 -1.5804 -0.9768
27827SOL    HW289318   6.585  10.807   5.240  3.3725  0.8050  2.7178
27828SOL     OW89319   3.386   8.881   9.259  0.6131 -0.7508 -0.4537
27828SOL    HW189320   3.369   8.942   9.188  3.1299 -0.1698 -0.6440
27828SOL    HW289321   3.339   8.917   9.334 -2.8487 -1.8434 -1.8718
27829SOL     OW89322   7.599   8.850   5.364  0.5792 -0.1165  0.7473
27829SOL    HW189323   7.634   8.929   5.406 -0.4810  1.2364 -0.7449
27829SOL    HW289324   7.612   8.780   5.428  0.1828  1.5712  2.7938
27830SOL     OW89325   8.408   5.010   1.913  0.5217  0.7493 -0.3069
27830SOL    HW189326   8.392   5.099   1.882  0.6152  0.7333 -0.4010
27830SOL    HW289327   8.499   4.991   1.888  0.4630  0.5824 -0.3986
27831SOL     OW89328   7.990   0.071   3.665 -0.8512  0.0346  0.2829
27831SOL    HW189329   7.963   0.017   3.739 -2.2455  1.1843  0.6612
27831SOL    HW289330   8.066   0.120   3.697 -0.5141 -0.5830  0.4379
27832SOL     OW89331   2.839   1.689   0.604 -0.1780  0.2373 -0.2469
27832SOL    HW189332   2.920   1.702   0.555  0.7606  2.0154  1.5926
27832SOL    HW289333   2.855   1.611   0.657 -0.2707 -0.2901 -0.9872
27833SOL     OW89334   2.941   8.682   5.831 -0.6002 -0.1639  0.2987
27833SOL    HW189335   2.881   8.672   5.904  0.0613 -0.5897  0.7962
27833SOL    HW289336   2.974   8.593   5.815  2.9425  0.5075  2.6823
27834SOL     OW89337   3.598   5.553   9.485 -0.2491 -0.7666  0.0092
27834SOL    HW189338   3.657   5.510   9.424  1.5610  0.3498  0.9049
27834SOL    HW289339   3.583   5.489   9.554 -1.3705 -1.6048 -0.9650
27835SOL     OW89340   2.900   0.785  10.828  0.1046 -0.1784  0.1284
27835SOL    HW189341   2.885   0.819  10.739 -0.3400 -0.3641  0.1300
27835SOL    HW289342   2.826   0.726  10.844 -1.0202  1.4968  1.4486
27836SOL     OW89343   6.000   7.729   5.408 -0.2012 -0.3004  0.3669
27836SOL    HW189344   6.025   7.821   5.413  1.2862 -0.6556 -0.1601
27836SOL    HW289345   5.973   7.716   5.317  0.4825 -0.5982  0.2041
27837SOL     OW89346   8.077   0.812  10.000  0.1343  0.2212  0.5567
27837SOL    HW189347   8.015   0.739  10.006 -0.8245  1.0183  0.5731
27837SOL    HW289348   8.163   0.770  10.006 -0.3883 -0.9154  0.4719
27838SOL     OW89349  10.296   1.747  10.744 -0.4685 -0.4520 -0.5360
27838SOL    HW189350  10.341   1.703  10.672 -0.5308  0.5781 -1.2384
27838SOL    HW289351  10.224   1.688  10.767 -0.0402 -1.1140 -0.8554
27839SOL     OW89352   0.345   6.559   8.678 -0.2569  0.4331  0.3654
27839SOL    HW189353   0.304   6.514   8.604 -0.5229  1.9242 -0.4442
27839SOL    HW289354   0.370   6.644   8.643 -1.2744  1.5713  2.2220
27840SOL     OW89355   1.704   5.356   1.866 -0.5165  0.2582  0.3792
27840SOL    HW189356   1.788   5.311   1.876 -0.5723 -0.0293 -0.3726
27840SOL    HW289357   1.705   5.388   1.776 -1.2181  0.2307  0.3593
27841SOL     OW89358   2.420   0.470   9.420 -0.2720  0.1364  0.5193
27841SOL    HW189359   2.512   0.474   9.444 -0.6137 -2.2039  2.7439
27841SOL    HW289360   2.420   0.448   9.327  1.4303 -0.1699  0.5636
27842SOL     OW89361   6.765   4.217   6.139  0.0252 -0.4054  0.1163
27842SOL    HW189362   6.833   4.279   6.112 -0.3659  0.0542  0.1685
27842SOL    HW289363   6.700   4.222   6.069 -1.1924  1.0837  1.2640
27843SOL     OW89364   2.158   4.137   2.056  0.0216 -0.3325 -0.0847
27843SOL    HW189365   2.070   4.172   2.066  0.7022  1.1250  1.3042
27843SOL    HW289366   2.189   4.122   2.146  0.6496 -2.3382 -0.5647
27844SOL     OW89367   9.552   3.947   9.212 -0.1452 -0.0262 -0.5060
27844SOL    HW189368   9.527   3.928   9.122 -1.7670  1.5220 -0.4389
27844SOL    HW289369   9.596   4.032   9.207  2.5071 -1.2861 -0.1835
27845SOL     OW89370  10.531  10.123  10.670 -0.1428 -0.5601  0.1017
27845SOL    HW189371  10.624  10.129  10.651 -0.2329 -0.1340 -0.2158
27845SOL    HW289372  10.505  10.037  10.636  0.0819 -0.5733 -0.0360
27846SOL     OW89373   1.671   7.983   3.665  0.1638 -0.1657 -0.0313
27846SOL    HW189374   1.615   7.906   3.678  1.5599 -1.3280 -0.5485
27846SOL    HW289375   1.755   7.946   3.639  2.0540  1.3419  3.3684
27847SOL     OW89376   4.369   7.453  10.449  0.4318  0.1206  0.2344
27847SOL    HW189377   4.285   7.409  10.431 -1.5799  4.0463 -1.2289
27847SOL    HW289378   4.371   7.462  10.544  0.1727 -1.6312  0.4448
27848SOL     OW89379   3.010   4.206   7.977  0.0882 -0.2732  0.3949
27848SOL    HW189380   2.931   4.208   8.031  0.5862  0.2029  1.1305
27848SOL    HW289381   2.978   4.194   7.888 -0.7748 -0.7428  0.7512
27849SOL     OW89382   2.774   6.999   0.997 -0.3411  0.3414 -0.5479
27849SOL    HW189383   2.857   7.041   0.977  0.5745 -1.1128  0.0473
27849SOL    HW289384   2.721   7.010   0.918  0.8141  0.3249 -1.3410
27850SOL     OW89385   1.477   0.652   9.188 -0.0167 -0.8693  0.6691
27850SOL    HW189386   1.462   0.570   9.141  0.9920  0.0016 -1.2757
27850SOL    HW289387   1.422   0.645   9.266  0.7523 -3.7700  1.0621
27851SOL     OW89388   3.072   2.533   3.927  0.5228 -0.0031  0.0091
27851SOL    HW189389   3.105   2.491   3.848 -2.0515  0.5554 -1.5020
27851SOL    HW289390   3.116   2.618   3.928  0.8424 -0.1499 -0.6214
27852SOL     OW89391   5.698   8.677   5.471  0.2313  0.2430  0.4107
27852SOL    HW189392   5.696   8.675   5.375 -2.7617 -0.3232  0.3899
27852SOL    HW289393   5.639   8.749   5.494 -0.7480 -0.9395  1.7842
27853SOL     OW89394   3.970   1.523   9.389  0.1400  0.5316 -0.0748
27853SOL    HW189395   4.064   1.522   9.371  0.0804  0.2854 -0.3902
27853SOL    HW289396   3.959   1.589   9.457  0.9712 -1.6433  2.3439
27854SOL     OW89397   8.750   3.974   7.997 -0.1991  0.1299  0.7880
27854SOL    HW189398   8.770   3.893   8.045  1.4419  0.7516  1.2190
27854SOL    HW289399   8.703   4.028   8.061 -0.6418 -0.1769  0.7318
27855SOL     OW89400   2.270   9.200   9.832  0.3598  0.0003  0.3260
27855SOL    HW189401   2.255   9.125   9.890  0.3022 -0.9689 -0.8940
27855SOL    HW289402   2.345   9.245   9.870 -1.0245  0.7182  2.4011
27856SOL     OW89403   0.396   0.371   2.243  0.0216  0.4879  0.0517
27856SOL    HW189404   0.334   0.350   2.313 -0.0531  0.8452  0.0948
27856SOL    HW289405   0.482   0.363   2.285  0.0325 -0.3447 -0.0961
27857SOL     OW89406   1.688   7.397   5.756  0.3003  0.0405 -0.5822
27857SOL    HW189407   1.628   7.432   5.822 -0.4310  0.2694 -1.3544
27857SOL    HW289408   1.773   7.395   5.800  0.6059  3.6653 -0.7151
27858SOL     OW89409   0.249   3.410  10.453  0.4783 -0.6132  0.0010
27858SOL    HW189410   0.166   3.365  10.465 -0.2816  0.9650  1.0668
27858SOL    HW289411   0.239   3.456  10.370 -0.0311  0.1476  0.4655
27859SOL     OW89412   3.412   7.484   6.877 -0.0902 -0.1033 -0.6368
27859SOL    HW189413   3.480   7.498   6.811  0.4279 -0.6027 -0.2195
27859SOL    HW289414   3.360   7.412   6.842  1.3607 -1.7132  0.3725
27860SOL     OW89415   5.935   7.693   4.125 -0.1222  0.2698  0.0203
27860SOL    HW189416   5.856   7.743   4.102 -0.2943  0.3070  0.6722
27860SOL    HW289417   5.928   7.680   4.220  0.7281  0.3901  0.1013
27861SOL     OW89418   9.523  10.284   8.940 -0.2522 -0.2427 -0.2999
27861SOL    HW189419   9.523  10.243   8.854 -0.4680 -0.5763 -0.1411
27861SOL    HW289420   9.558  10.372   8.924  3.3472 -1.5006 -0.1558
27862SOL     OW89421   5.823   2.570   0.153 -0.5411  0.0269  0.2497
27862SOL    HW189422   5.807   2.630   0.081  0.2918 -0.3147 -0.2383
27862SOL    HW289423   5.795   2.485   0.120  0.9195 -0.3377 -0.1235
27863SOL     OW89424   4.567   3.184   8.483 -0.6933 -0.2909  0.0960
27863SOL    HW189425   4.630   3.226   8.540 -0.0106 -0.7846 -0.2719
27863SOL    HW289426   4.486   3.179   8.534  0.2906 -2.0327  1.5764
27864SOL     OW89427   9.863   1.505   1.273  0.7275  0.4992  0.1126
27864SOL    HW189428   9.953   1.534   1.261  0.5573  0.9347 -0.1389
27864SOL    HW289429   9.839   1.466   1.189  0.6666  0.4228  0.1653
27865SOL     OW89430  10.143   2.797   1.351 -0.1797 -0.3292  0.3149
27865SOL    HW189431  10.162   2.891   1.352  0.1299 -0.3794 -0.2366
27865SOL    HW289432  10.228   2.755   1.357 -0.0265 -0.5559 -2.1640
27866SOL     OW89433   1.603   3.673   9.982  0.8820  0.3659  0.5408
27866SOL    HW189434   1.533   3.718   9.936  0.6220  0.9418  1.4682
27866SOL    HW289435   1.676   3.671   9.920 -0.3557 -1.5242 -0.9890
27867SOL     OW89436   2.433   9.554  10.411 -0.3113 -0.0979 -0.4325
27867SOL    HW189437   2.352   9.551  10.462 -0.2632  0.9129 -0.2785
27867SOL    HW289438   2.503   9.558  10.476 -0.2713  1.8068 -0.5154
27868SOL     OW89439   4.333   7.050   0.594  0.2357  0.2404 -0.2554
27868SOL    HW189440   4.412   7.024   0.643  0.6335  0.0540 -0.9724
27868SOL    HW289441   4.349   7.017   0.505  0.7521  2.9222 -1.2350
27869SOL     OW89442   6.068   2.274   3.576  0.7324 -0.4441  0.1108
27869SOL    HW189443   6.042   2.364   3.592  1.0201 -0.4462  0.6324
27869SOL    HW289444   5.987   2.223   3.579  0.1803  0.0981 -2.7567
27870SOL     OW89445   4.492   0.077  10.639 -0.1682 -0.1999 -0.1639
27870SOL    HW189446   4.545   0.136  10.585  0.8111  0.2492  1.2458
27870SOL    HW289447   4.488   0.120  10.724 -1.6832 -0.8969  0.1457
27871SOL     OW89448   8.540   3.913  10.077 -0.3744 -0.3914  0.2510
27871SOL    HW189449   8.532   4.003  10.110  0.0123 -0.1794 -0.2280
27871SOL    HW289450   8.492   3.914   9.994 -0.6570 -0.7174  0.4101
27872SOL     OW89451   8.812  10.901   6.557 -0.2679 -0.2830 -0.1847
27872SOL    HW189452   8.905  10.908   6.579 -0.5823  0.9306  0.8558
27872SOL    HW289453   8.771  10.977   6.599 -1.7046 -0.6720 -0.8070
27873SOL     OW89454   8.046  10.791   6.441 -0.1084  0.3132 -0.5031
27873SOL    HW189455   8.117  10.735   6.409 -0.1662 -0.1563  0.1655
27873SOL    HW289456   8.087  10.876   6.454  0.5461 -0.1680  0.6932
27874SOL     OW89457   6.000   2.761   4.070  0.5764  0.4763  0.4608
27874SOL    HW189458   6.048   2.735   3.991  1.2897  0.9023  0.7461
27874SOL    HW289459   6.030   2.700   4.137  2.9546  2.4728  1.3711
27875SOL     OW89460   9.177   3.740   4.683  0.4432  0.1177  0.3814
27875SOL    HW189461   9.260   3.716   4.643 -0.2435 -0.7175 -0.5748
27875SOL    HW289462   9.136   3.656   4.706 -0.7567  0.4514 -0.4586
27876SOL     OW89463   1.153   6.488   9.423 -1.1533 -0.0696  0.1018
27876SOL    HW189464   1.166   6.400   9.460 -0.7249 -0.9711 -2.0136
27876SOL    HW289465   1.131   6.543   9.498  0.8007 -1.5004  1.8564
27877SOL     OW89466   2.726  10.015   1.103 -0.7098 -0.3598  0.5607
27877SOL    HW189467   2.782   9.940   1.085  2.7099  1.7246  1.4574
27877SOL    HW289468   2.741  10.075   1.030  0.3339  1.2588  1.9888
27878SOL     OW89469  10.296   8.916   5.290 -0.2361  0.0097 -0.0828
27878SOL    HW189470  10.343   8.886   5.368 -2.4004  1.2318  1.8031
27878SOL    HW289471  10.278   8.835   5.242  0.1216 -0.9340  1.2861
27879SOL     OW89472   3.342   8.728   5.221 -0.0181 -0.1166 -0.6670
27879SOL    HW189473   3.253   8.695   5.212 -0.7695  2.2014 -3.2898
27879SOL    HW289474   3.333   8.808   5.273  0.6895 -0.3607 -0.1525
27880SOL     OW89475   4.772   6.216   5.924  0.4779  0.3498  0.6335
27880SOL    HW189476   4.692   6.264   5.946  0.3456  0.2301  0.4194
27880SOL    HW289477   4.769   6.139   5.981  0.3196  0.2249  0.4586
27881SOL     OW89478   5.639   8.802  10.654 -0.2926 -0.3018  0.1422
27881SOL    HW189479   5.638   8.877  10.714 -0.7172 -0.1134 -0.0968
27881SOL    HW289480   5.582   8.828  10.582 -0.8910 -1.0759  0.3294
27882SOL     OW89481   9.211   3.766   2.524 -0.2580 -0.2746 -0.1225
27882SOL    HW189482   9.118   3.750   2.509 -0.7523  2.2265 -0.1824
27882SOL    HW289483   9.235   3.830   2.458  0.6889  1.4113  1.7267
27883SOL     OW89484   0.140   7.559   3.446  0.6165 -0.1011 -0.1036
27883SOL    HW189485   0.082   7.483   3.448 -1.2854  1.2875 -0.3950
27883SOL    HW289486   0.084   7.631   3.419  2.4544  1.3589 -0.1613
27884SOL     OW89487   3.905   2.007  10.658  0.0224  0.0719  0.3531
27884SOL    HW189488   3.854   2.047  10.728  0.4515 -0.9655  1.2882
27884SOL    HW289489   3.995   2.007  10.690  0.3018  0.0043 -0.4003
27885SOL     OW89490   4.354   5.174   3.970 -0.0427  0.5581 -0.2907
27885SOL    HW189491   4.438   5.156   4.013  1.0368  2.6751 -1.3610
27885SOL    HW289492   4.302   5.216   4.038 -0.3728 -1.0145  0.4609
27886SOL     OW89493   0.048   4.609   3.801 -0.3621  0.2489  0.4020
27886SOL    HW189494   0.059   4.704   3.805 -1.2318  0.3913 -0.2536
27886SOL    HW289495   0.119   4.579   3.744  0.2040  0.4444  0.9956
27887SOL     OW89496   9.741   3.063   1.092  0.8644  0.4948  0.0195
27887SOL    HW189497   9.783   2.981   1.063  0.4920  0.9621 -1.9817
27887SOL    HW289498   9.768   3.072   1.183  3.3348 -0.3591 -0.5442
27888SOL     OW89499   9.152   4.463  10.461  0.0032 -0.2653  0.0500
27888SOL    HW189500   9.057   4.453  10.454 -0.0399  0.0641  0.1620
27888SOL    HW289501   9.165   4.545  10.509  0.3631  0.8610 -1.8886
27889SOL     OW89502   7.022   3.536   3.198  0.4704  0.5337  0.3138
27889SOL    HW189503   7.011   3.510   3.289 -0.1151 -0.3317  0.0057
27889SOL    HW289504   6.974   3.470   3.148  3.2812 -0.8030 -0.8350
27890SOL     OW89505   6.450   6.526   1.416  0.4256  0.3042 -0.3983
27890SOL    HW189506   6.477   6.521   1.508 -0.7643  0.8723 -0.0032
27890SOL    HW289507   6.522   6.570   1.372  0.8566  0.3368  0.3256
27891SOL     OW89508   0.218   3.856   0.056  0.4417 -0.1896  0.8590
27891SOL    HW189509   0.255   3.772   0.085  0.3372  0.1420  1.9872
27891SOL    HW289510   0.158   3.881   0.126 -2.7408 -1.1628 -1.2930
27892SOL     OW89511   8.100   9.805   8.871 -0.6370 -0.7375  0.2724
27892SOL    HW189512   8.048   9.727   8.890 -1.3225 -0.4608 -0.4202
27892SOL    HW289513   8.170   9.804   8.937 -0.2290 -2.3026 -0.1506
27893SOL     OW89514   6.820   5.254   2.939 -0.2311  0.1246 -0.5966
27893SOL    HW189515   6.738   5.274   2.984  0.0040  1.5375 -0.7610
27893SOL    HW289516   6.886   5.303   2.987  0.3602 -0.1051 -1.1575
27894SOL     OW89517   9.292   3.557   8.552  0.1909 -0.2034 -0.0113
27894SOL    HW189518   9.317   3.559   8.459 -2.1254  1.6894 -0.7053
27894SOL    HW289519   9.349   3.621   8.594 -0.3247  0.6584 -0.6106
27895SOL     OW89520   1.227   0.263   7.691 -0.0599  0.2092  0.1013
27895SOL    HW189521   1.142   0.248   7.732 -0.2751 -1.1905 -0.7911
27895SOL    HW289522   1.267   0.333   7.743 -2.1628  1.6365 -0.0800
27896SOL     OW89523   3.896   1.406   8.190 -0.0282  0.3314  0.1289
27896SOL    HW189524   3.836   1.441   8.257 -0.1315  2.9113 -1.1826
27896SOL    HW289525   3.942   1.334   8.234 -3.5971 -1.4424  1.3997
27897SOL     OW89526   7.052   0.270   8.175 -0.2721  0.5430 -0.2166
27897SOL    HW189527   7.142   0.293   8.198 -0.8492  0.5099  2.4205
27897SOL    HW289528   7.016   0.351   8.139  1.0767  0.2366 -2.4371
27898SOL     OW89529   2.372   5.712   3.343  0.3133 -0.4731 -0.3531
27898SOL    HW189530   2.370   5.780   3.276  2.2377  0.1140  0.1347
27898SOL    HW289531   2.349   5.631   3.297 -2.2983  0.4615 -0.8908
27899SOL     OW89532   2.356   9.262   3.498  0.3149 -0.4027  0.8311
27899SOL    HW189533   2.329   9.180   3.539 -1.6025 -0.6458 -0.7830
27899SOL    HW289534   2.277   9.317   3.500  1.0759  0.7527  0.3116
27900SOL     OW89535   7.818   4.224   5.790  0.0631 -0.4275  0.5604
27900SOL    HW189536   7.767   4.147   5.765  0.6591 -0.7614  0.3579
27900SOL    HW289537   7.906   4.190   5.808  1.3687  0.5900 -2.9475
27901SOL     OW89538   6.095   7.735  10.480 -0.4038 -0.6109  0.0006
27901SOL    HW189539   6.039   7.800  10.436 -0.8775 -1.3763 -0.5461
27901SOL    HW289540   6.047   7.653  10.471  0.2673 -1.0672  0.5539
27902SOL     OW89541   0.348   5.483  10.614  0.0996  0.0419 -0.3572
27902SOL    HW189542   0.297   5.443  10.684 -1.6670  1.7483 -0.5779
27902SOL    HW289543   0.326   5.433  10.536 -0.8308  0.4133 -0.3411
27903SOL     OW89544   6.349   0.025   5.653  0.2038 -0.4393 -0.1339
27903SOL    HW189545   6.421   0.036   5.715  0.4993 -1.1004 -0.3457
27903SOL    HW289546   6.392  -0.002   5.572 -0.1097  1.1157 -0.8542
27904SOL     OW89547   0.530   4.275   5.392  0.1729  0.3914 -0.2582
27904SOL    HW189548   0.460   4.340   5.394  0.3429  0.5712 -0.1359
27904SOL    HW289549   0.501   4.210   5.328  0.8511  1.5642 -1.8192
27905SOL     OW89550   9.826   8.022   7.983  0.3766  0.1764 -0.0139
27905SOL    HW189551   9.877   8.102   7.975  0.3167  0.2386  0.2524
27905SOL    HW289552   9.890   7.952   7.967  0.6187  0.2390  0.6538
27906SOL     OW89553   4.888   8.681   5.924  0.1474  0.2476  0.0397
27906SOL    HW189554   4.908   8.681   5.830 -1.7061  0.2144 -0.3822
27906SOL    HW289555   4.948   8.617   5.961  0.2849 -0.4053 -1.2592
27907SOL     OW89556   0.628   2.419   3.163 -0.4574 -0.0102  0.2922
27907SOL    HW189557   0.565   2.490   3.171  0.0793  0.5991 -0.6867
27907SOL    HW289558   0.690   2.449   3.097  0.8356 -0.6257  1.1981
27908SOL     OW89559   8.286   7.191   2.333 -0.0248  0.7754 -0.1874
27908SOL    HW189560   8.315   7.114   2.285  0.3422  0.5526  0.3786
27908SOL    HW289561   8.196   7.170   2.361 -0.4945  1.1795 -1.3285
27909SOL     OW89562  10.896  10.630   8.801 -0.7844  0.3805 -0.0988
27909SOL    HW189563  10.824  10.677   8.843 -0.4126  0.9012 -0.0365
27909SOL    HW289564  10.898  10.545   8.845 -0.3308  0.9537  1.0248
27910SOL     OW89565   0.032   7.403   1.194 -0.2003  0.1863 -0.4166
27910SOL    HW189566   0.117   7.388   1.236 -1.1261 -3.7169  0.4125
27910SOL    HW289567   0.051   7.402   1.100  0.7681  0.0449 -0.2277
27911SOL     OW89568   4.504   2.379  10.415  0.3275  0.2872 -0.6104
27911SOL    HW189569   4.464   2.322  10.481 -1.6186  1.3330 -0.8280
27911SOL    HW289570   4.599   2.366  10.427  0.0474  0.2974  2.2649
27912SOL     OW89571   8.798   4.673   7.586 -0.5040 -0.6054 -0.2490
27912SOL    HW189572   8.741   4.674   7.509 -0.0320 -1.4359 -0.6160
27912SOL    HW289573   8.820   4.581   7.599  0.9585 -0.2815 -0.2627
27913SOL     OW89574   0.085   7.354   7.849  0.0110 -0.1667  0.3588
27913SOL    HW189575   0.103   7.444   7.822 -0.0183 -0.7936 -1.9797
27913SOL    HW289576   0.036   7.317   7.776  1.6957 -2.6448  0.3589
27914SOL     OW89577   4.647   8.224   3.525 -0.0166  0.0839 -0.2290
27914SOL    HW189578   4.696   8.143   3.542 -0.6738 -0.4847 -0.9427
27914SOL    HW289579   4.714   8.287   3.498  0.4496 -0.3835 -0.1848
27915SOL     OW89580   4.408   6.142   7.872  0.4146  0.5281 -1.1295
27915SOL    HW189581   4.457   6.119   7.951  0.2670  0.3293 -1.0961
27915SOL    HW289582   4.318   6.114   7.890  0.2778  0.9327 -1.1740
27916SOL     OW89583   7.032  10.568   2.690 -0.0776 -0.0197  0.0296
27916SOL    HW189584   7.078  10.497   2.645  0.4719  0.4476 -0.1543
27916SOL    HW289585   7.101  10.622   2.727 -0.4616  0.9017 -0.5757
27917SOL     OW89586   5.083  10.851   9.894 -0.1526  0.3475  0.0734
27917SOL    HW189587   5.097  10.779   9.832  2.0507  1.6273 -1.0384
27917SOL    HW289588   5.005  10.896   9.862 -0.3779 -0.3580 -0.4028
27918SOL     OW89589   1.929   9.317   7.529 -0.3297  0.2017  0.0888
27918SOL    HW189590   1.959   9.368   7.604 -1.4557  3.1730 -1.3343
27918SOL    HW289591   2.007   9.303   7.476  0.2191 -0.7406  1.1081
27919SOL     OW89592   7.613   2.070   3.249 -0.1807  0.2186 -0.4272
27919SOL    HW189593   7.656   2.030   3.173 -0.5778  2.7779 -2.1597
27919SOL    HW289594   7.521   2.078   3.222 -0.9367 -1.3229  1.5050
27920SOL     OW89595   6.843   6.675   6.578 -0.6111 -0.5153 -0.0319
27920SOL    HW189596   6.757   6.633   6.573 -0.8518  0.1074 -2.2063
27920SOL    HW289597   6.863   6.677   6.671 -2.5251 -1.5234  0.4625
27921SOL     OW89598   4.680   8.394   8.605 -0.5435  0.4981  0.1929
27921SOL    HW189599   4.751   8.456   8.588  1.0372 -0.5262  2.3851
27921SOL    HW289600   4.710   8.345   8.682 -2.6979 -1.4698 -0.0988
27922SOL     OW89601   9.572   5.964   5.217  0.0382 -0.2999  0.5240
27922SOL    HW189602   9.477   5.960   5.216 -0.0236 -2.0189  2.9458
27922SOL    HW289603   9.593   6.040   5.271  0.0988  0.5878 -0.7105
27923SOL     OW89604  10.412   2.609   8.931  0.0874  0.2248  0.1854
27923SOL    HW189605  10.346   2.541   8.947 -0.2875  0.4248 -0.4951
27923SOL    HW289606  10.496   2.564   8.941 -0.1573 -0.3161 -0.1513
27924SOL     OW89607   3.513   6.379   3.211 -0.2731  0.0052  0.1535
27924SOL    HW189608   3.584   6.401   3.150 -0.2075  1.8178  0.8236
27924SOL    HW289609   3.519   6.284   3.222  2.3045  0.1552  0.5105
27925SOL     OW89610   9.029   1.918   8.966 -0.3814  0.3800  0.4820
27925SOL    HW189611   9.125   1.916   8.969 -0.2940 -2.4595 -0.7136
27925SOL    HW289612   9.002   1.902   9.057  0.3478 -0.2993  0.5946
27926SOL     OW89613   3.251   1.420   3.072  0.0541  0.1936  0.4712
27926SOL    HW189614   3.347   1.424   3.079  0.0133  1.6970  0.4249
27926SOL    HW289615   3.235   1.391   2.983  0.4879  1.2343  0.0340
27927SOL     OW89616   0.554   4.942   1.304 -0.1374  0.2899  0.3426
27927SOL    HW189617   0.543   4.957   1.210 -0.3173 -2.9556 -0.2644
27927SOL    HW289618   0.465   4.929   1.337  0.0761 -1.4440  0.3306
27928SOL     OW89619   9.899   8.487   2.961  0.5980 -0.3334  1.2266
27928SOL    HW189620   9.935   8.535   2.887 -0.6932 -1.6673 -0.3622
27928SOL    HW289621   9.809   8.520   2.969  0.1593 -1.4351  1.0161
27929SOL     OW89622   5.720   0.482  10.043  0.3281  0.7539 -0.6937
27929SOL    HW189623   5.722   0.393  10.008  0.0349  1.5339 -2.8656
27929SOL    HW289624   5.648   0.481  10.106 -1.2029 -0.0179 -2.3541
27930SOL     OW89625   1.543   3.018   5.188 -0.0979  0.3043  0.4422
27930SOL    HW189626   1.558   3.112   5.181 -0.9078  0.4527  0.6290
27930SOL    HW289627   1.451   3.010   5.210  0.0688 -0.5249  0.8680
27931SOL     OW89628   9.228   5.927   8.116 -0.2182 -0.1737 -0.1207
27931SOL    HW189629   9.301   5.901   8.171 -0.6515  0.5879  0.8568
27931SOL    HW289630   9.155   5.872   8.144  0.1780 -1.5916 -1.7342
27932SOL     OW89631   2.324   4.290   2.436 -0.2224 -0.2489 -0.6368
27932SOL    HW189632   2.245   4.328   2.474 -0.0055  0.1999 -0.6226
27932SOL    HW289633   2.314   4.196   2.447  0.4197 -0.0987  1.7101
27933SOL     OW89634   4.462   6.747   0.688  0.6692 -0.7613  0.1274
27933SOL    HW189635   4.422   6.779   0.769  1.1823 -0.4715  0.2672
27933SOL    HW289636   4.531   6.688   0.718  1.5158  0.1121 -0.0744
27934SOL     OW89637  10.871   1.027   1.153 -0.1836 -0.6121 -0.1329
27934SOL    HW189638  10.922   0.961   1.200 -0.9733 -0.3214  1.1683
27934SOL    HW289639  10.782   0.992   1.150 -0.4709  0.0899 -0.0208
27935SOL     OW89640   1.421   1.099  10.709 -0.4282 -0.0869 -0.0044
27935SOL    HW189641   1.403   1.042  10.784  1.3869  0.3417  0.8228
27935SOL    HW289642   1.349   1.161  10.708  0.6869  1.4710  3.0089
27936SOL     OW89643  10.791   7.702   9.341  0.4391 -0.3625 -0.3620
27936SOL    HW189644  10.885   7.718   9.332 -0.0990  3.5245 -0.8671
27936SOL    HW289645  10.775   7.707   9.436  0.7531 -1.6470 -0.2174
27937SOL     OW89646   8.469  10.695   7.746 -0.0131  0.1820 -0.0204
27937SOL    HW189647   8.473  10.787   7.772  1.3641 -0.1821  1.2012
27937SOL    HW289648   8.499  10.695   7.655 -1.0343  1.0331 -0.3791
27938SOL     OW89649  10.141   0.851   8.820  0.5216  0.0127  0.4429
27938SOL    HW189650  10.098   0.838   8.736  2.9422 -2.9469 -0.5333
27938SOL    HW289651  10.070   0.857   8.883 -1.3257 -0.0810 -1.5371
27939SOL     OW89652  10.008   9.352   7.975 -0.1925  0.1757  0.0254
27939SOL    HW189653  10.032   9.270   8.017  1.1239 -0.3421 -1.6252
27939SOL    HW289654   9.915   9.342   7.954 -0.8366  0.3683  2.4669
27940SOL     OW89655   9.126   0.793   4.950 -0.8691 -0.0601  0.1506
27940SOL    HW189656   9.116   0.842   5.031 -1.4997 -0.0383  0.0610
27940SOL    HW289657   9.177   0.851   4.893 -1.3749  0.3826  0.1415
27941SOL     OW89658   1.849   4.668   4.768  0.3174  0.1164  0.4586
27941SOL    HW189659   1.910   4.709   4.707  0.6534 -4.2492 -2.6241
27941SOL    HW289660   1.905   4.623   4.832  0.3338 -1.4077 -0.5761
27942SOL     OW89661   9.046   2.518   8.541 -0.1043  0.1413 -0.0854
27942SOL    HW189662   9.040   2.461   8.618  0.5643  2.1110  1.5311
27942SOL    HW289663   8.982   2.588   8.558  1.0752  1.3902 -0.5889
27943SOL     OW89664   4.938   5.989   4.944  0.2243  0.6875 -0.5031
27943SOL    HW189665   4.877   5.999   5.017 -0.3611 -0.5671 -0.7946
27943SOL    HW289666   5.025   6.000   4.983 -0.1319  1.4631  0.1044
27944SOL     OW89667   1.357   3.843   3.536 -0.1008  0.3059  0.4744
27944SOL    HW189668   1.309   3.829   3.618 -0.7516  1.5702  0.3458
27944SOL    HW289669   1.447   3.819   3.557 -0.7289 -2.0867  0.7460
27945SOL     OW89670   7.053   7.921   7.002 -0.2221  0.6586 -0.4518
27945SOL    HW189671   7.048   7.848   6.940 -0.1859  1.4874 -1.4638
27945SOL    HW289672   7.123   7.897   7.062 -1.7286 -1.1948  0.6846
27946SOL     OW89673   1.091   5.785   0.613 -0.3736 -0.0074 -0.0856
27946SOL    HW189674   1.071   5.735   0.534 -1.9041  0.2923  0.0871
27946SOL    HW289675   1.101   5.875   0.582  0.0702 -0.0455 -0.0669
27947SOL     OW89676   5.874   7.147   5.931  0.3286  0.0295  0.0225
27947SOL    HW189677   5.964   7.171   5.906 -0.0379  0.7599 -0.6567
27947SOL    HW289678   5.857   7.066   5.883  0.6558 -0.1739  0.2406
27948SOL     OW89679   5.020   3.193   1.016 -0.1573  0.6509 -0.0480
27948SOL    HW189680   4.984   3.274   0.979  0.8500 -0.2505 -3.3175
27948SOL    HW289681   4.965   3.123   0.979  1.1806 -0.3480 -0.2183
27949SOL     OW89682   3.960   0.075  10.170  0.5007  0.3457 -0.5065
27949SOL    HW189683   3.919   0.009  10.226 -0.2349  0.6132 -0.7144
27949SOL    HW289684   3.891   0.141  10.158  0.3964 -0.0473 -2.3013
27950SOL     OW89685   4.375   5.662   1.674  0.3879  0.8071  0.7594
27950SOL    HW189686   4.309   5.668   1.743 -1.4171 -0.5561 -0.7446
27950SOL    HW289687   4.456   5.693   1.715 -0.4778 -0.4689  3.6366
27951SOL     OW89688   3.441   6.503   8.872  0.5706  0.2603 -0.1909
27951SOL    HW189689   3.358   6.485   8.917  1.8848 -1.0889  1.8747
27951SOL    HW289690   3.453   6.428   8.813 -0.0223  0.8602 -1.1039
27952SOL     OW89691   4.842   9.642   9.181  0.1340  0.0404  0.2818
27952SOL    HW189692   4.881   9.567   9.227 -2.3175 -1.3915  0.2041
27952SOL    HW289693   4.833   9.612   9.090 -1.4990  0.1123  0.3898
27953SOL     OW89694   4.065   5.541   5.644 -0.3399 -0.1607 -0.6945
27953SOL    HW189695   4.052   5.614   5.704  0.0194 -0.5358 -0.1557
27953SOL    HW289696   4.047   5.463   5.697  1.3237 -0.5620 -0.6893
27954SOL     OW89697   4.738   8.130   5.078  0.3467 -0.4158 -0.0391
27954SOL    HW189698   4.787   8.080   5.014 -0.5007  1.2579 -2.1089
27954SOL    HW289699   4.798   8.199   5.106 -0.1650  0.5113 -1.1640
27955SOL     OW89700   4.744  10.716   8.139 -0.0816 -0.0494  0.7356
27955SOL    HW189701   4.824  10.663   8.150 -0.9091 -1.3633  0.5914
27955SOL    HW289702   4.678  10.654   8.109 -1.0646  1.1083  0.4354
27956SOL     OW89703   7.339   4.463   7.222  0.5467  0.3130  0.1585
27956SOL    HW189704   7.263   4.407   7.238  1.2936 -0.9665 -0.5362
27956SOL    HW289705   7.304   4.542   7.183 -0.5469  0.3367  1.1393
27957SOL     OW89706   6.916   2.478   8.275  0.1118  0.4947  0.1234
27957SOL    HW189707   6.836   2.466   8.327  0.6587  0.8450  1.0739
27957SOL    HW289708   6.928   2.394   8.232 -0.8327  0.4736 -0.1277
27958SOL     OW89709   6.749   3.529   1.041  0.7944  0.3728  0.0923
27958SOL    HW189710   6.768   3.593   0.973  2.1722  1.0069  1.0417
27958SOL    HW289711   6.653   3.520   1.040  0.8235 -0.2317 -2.4254
27959SOL     OW89712   8.846   2.701   8.643  0.6098 -0.1802 -0.2692
27959SOL    HW189713   8.855   2.796   8.648  1.4395 -0.2909  0.5438
27959SOL    HW289714   8.864   2.670   8.732 -1.7685 -0.9437  0.0225
27960SOL     OW89715   1.825   2.957   7.641  0.0606  0.3765 -0.1129
27960SOL    HW189716   1.771   2.969   7.563 -0.3741  0.5375  0.2048
27960SOL    HW289717   1.901   2.909   7.611 -0.6625 -0.6094 -0.4181
27961SOL     OW89718   1.291   1.162   0.790  0.4049 -0.1985  0.2987
27961SOL    HW189719   1.205   1.134   0.758  0.8021  1.0512 -2.1870
27961SOL    HW289720   1.303   1.115   0.872 -2.4380 -0.7674  0.5091
27962SOL     OW89721   8.775   8.799   6.332 -0.0789 -0.5103  0.4867
27962SOL    HW189722   8.753   8.829   6.244  0.6926 -0.6616  0.2270
27962SOL    HW289723   8.696   8.755   6.364 -0.8377  0.7664  0.4287
27963SOL     OW89724   1.922   8.910   5.460 -0.2733  0.0449 -0.2569
27963SOL    HW189725   1.888   8.849   5.396  0.4550 -0.5213 -0.1147
27963SOL    HW289726   1.951   8.855   5.533 -1.5554  0.7061  0.7935
27964SOL     OW89727   9.407   6.229   0.478  0.1126 -0.2712  0.1274
27964SOL    HW189728   9.396   6.316   0.517  1.8213 -0.0939  0.2969
27964SOL    HW289729   9.318   6.194   0.470 -0.6381  1.6049 -0.2105
27965SOL     OW89730   1.655   1.051   2.423 -0.1004  0.0364  0.4776
27965SOL    HW189731   1.730   1.073   2.366 -1.1354 -1.4543 -1.6205
27965SOL    HW289732   1.692   0.993   2.490  0.7633 -0.1209 -0.1170
27966SOL     OW89733   0.201   3.345   8.079 -0.0597  0.1963  0.0273
27966SOL    HW189734   0.255   3.343   8.158  0.3714 -0.3726 -0.2688
27966SOL    HW289735   0.130   3.405   8.099  1.9005  2.8756 -0.3720
27967SOL     OW89736   3.451   7.286   0.449  0.5274 -0.2305  0.7559
27967SOL    HW189737   3.383   7.247   0.394 -0.9022  3.1838 -0.1670
27967SOL    HW289738   3.420   7.271   0.539  0.1431 -1.3329  0.4534
27968SOL     OW89739   3.990   1.698   9.171  1.0319  0.2341  0.3235
27968SOL    HW189740   3.972   1.629   9.235 -1.1209  1.7203  1.4481
27968SOL    HW289741   4.011   1.651   9.090  0.8616 -1.7113  1.3557
27969SOL     OW89742   1.991   0.782   8.615  0.3068  0.4309 -1.2627
27969SOL    HW189743   1.982   0.847   8.545 -1.3156  2.0914  0.3560
27969SOL    HW289744   2.008   0.834   8.694  2.8792 -1.4115 -0.4550
27970SOL     OW89745   5.068  10.048   9.771  0.4585 -0.1020 -0.1727
27970SOL    HW189746   5.153  10.080   9.802  0.4037 -0.2557  0.1430
27970SOL    HW289747   5.011  10.056   9.848  0.7145 -2.0060  0.2505
27971SOL     OW89748   1.938   8.696   9.101 -0.8668 -0.5946 -0.1248
27971SOL    HW189749   2.030   8.713   9.081 -0.9189 -0.7617 -0.5097
27971SOL    HW289750   1.920   8.748   9.180 -0.4344 -0.5918 -0.0300
27972SOL     OW89751   9.104   2.488   9.422  0.0262  0.8814  0.3941
27972SOL    HW189752   9.169   2.521   9.361 -0.9490  1.1120 -0.5505
27972SOL    HW289753   9.022   2.485   9.372  0.0865 -3.4618  0.1831
27973SOL     OW89754   8.501   0.246   8.419  0.0129 -0.6046  0.3038
27973SOL    HW189755   8.428   0.307   8.417  0.3018 -0.2663 -0.0621
27973SOL    HW289756   8.578   0.302   8.429  0.4496 -0.7599 -1.7925
27974SOL     OW89757   2.203   5.841  10.119  0.4258 -0.4657  0.5637
27974SOL    HW189758   2.113   5.814  10.135  0.4660  0.0654  1.7389
27974SOL    HW289759   2.206   5.858  10.025 -0.9597  0.4393  0.6482
27975SOL     OW89760   2.795   3.904   8.186  0.4946 -0.0357  0.2253
27975SOL    HW189761   2.725   3.856   8.231 -0.9526  0.4105 -1.4246
27975SOL    HW289762   2.847   3.836   8.143  2.3244 -0.5237  3.0091
27976SOL     OW89763   4.131   0.708   8.674  0.2215  0.1676 -0.2581
27976SOL    HW189764   4.086   0.627   8.699 -0.1645  0.3237 -0.4381
27976SOL    HW289765   4.082   0.777   8.719  0.6586  0.2884  0.0359
27977SOL     OW89766   5.643   3.480   3.764 -0.6065  0.6015 -0.2212
27977SOL    HW189767   5.701   3.556   3.767 -1.5949  1.4042 -1.0672
27977SOL    HW289768   5.629   3.458   3.856 -1.5733  2.4364  0.1206
27978SOL     OW89769   0.908  10.222   5.177  0.1217  0.4082 -0.4853
27978SOL    HW189770   0.889  10.175   5.096  0.4773 -0.0550 -0.3002
27978SOL    HW289771   0.825  10.265   5.199 -0.6728 -1.3684  0.1642
27979SOL     OW89772   0.724   5.059   6.938 -0.1240 -0.6877 -0.2410
27979SOL    HW189773   0.819   5.057   6.925  0.0091 -0.8365  0.6637
27979SOL    HW289774   0.702   5.152   6.936 -0.2502 -0.7303 -2.2807
27980SOL     OW89775   0.597   8.481   1.746  0.5479 -0.1269 -1.1618
27980SOL    HW189776   0.595   8.559   1.801 -1.4680 -0.2015 -1.0728
27980SOL    HW289777   0.682   8.441   1.765 -0.4738 -0.8673  2.9518
27981SOL     OW89778   5.008   8.318   3.753 -0.8586  0.1432 -0.2137
27981SOL    HW189779   4.931   8.318   3.811 -0.4847 -1.7493  0.3421
27981SOL    HW289780   4.974   8.285   3.670 -0.5796 -1.2089  0.1854
27982SOL     OW89781   0.763   3.318   5.010 -0.5856 -0.2690  0.1324
27982SOL    HW189782   0.773   3.402   4.964  1.6465 -0.7891 -0.4561
27982SOL    HW289783   0.787   3.337   5.101 -0.5704 -0.1649  0.1071
27983SOL     OW89784   4.663   4.439  10.252 -0.0797 -0.0573  0.6658
27983SOL    HW189785   4.725   4.465  10.184  0.0482 -2.3411 -0.1612
27983SOL    HW289786   4.594   4.392  10.206 -0.1638 -1.3853  2.0544
27984SOL     OW89787   4.784  10.533   4.172 -0.2177  0.0510  0.5714
27984SOL    HW189788   4.728  10.610   4.175 -0.5236 -0.1428 -0.1349
27984SOL    HW289789   4.724  10.458   4.174 -0.1588 -0.1761 -2.1499
27985SOL     OW89790   5.471   2.628   7.928 -0.5620  0.0136 -0.2118
27985SOL    HW189791   5.516   2.545   7.944  0.1205  0.5699  0.9054
27985SOL    HW289792   5.505   2.657   7.844 -0.6579 -0.7364 -0.5191
27986SOL     OW89793   6.974  10.843   5.395 -0.2189  0.0238  0.1372
27986SOL    HW189794   6.971  10.754   5.430  0.4420  0.2760  0.8353
27986SOL    HW289795   6.948  10.899   5.468  1.6520  0.5908  0.4249
27987SOL     OW89796   9.954   8.369   9.661  0.2779 -0.6351 -0.4134
27987SOL    HW189797   9.896   8.298   9.687  0.3945 -0.4366  0.4118
27987SOL    HW289798  10.023   8.370   9.727  0.4061  0.0968 -0.5453
27988SOL     OW89799   6.508   4.713   9.660  0.2054  0.5157 -0.2310
27988SOL    HW189800   6.569   4.662   9.607  0.3294  1.0000 -0.5660
27988SOL    HW289801   6.563   4.778   9.703  0.4092 -1.0233  2.0125
27989SOL     OW89802   6.645   2.352   3.260  0.3480 -0.5520  0.1748
27989SOL    HW189803   6.608   2.306   3.336  0.5060 -0.3492  0.3753
27989SOL    HW289804   6.648   2.443   3.287  1.4843 -0.6345  0.3518
27990SOL     OW89805   2.652   0.510   6.910 -0.0467  0.3694  0.1481
27990SOL    HW189806   2.595   0.530   6.836 -0.2879 -0.0905  0.2077
27990SOL    HW289807   2.710   0.586   6.916  0.2454  0.2270 -0.7685
27991SOL     OW89808   0.940   6.418   6.264  0.3240 -0.5017 -0.0999
27991SOL    HW189809   0.984   6.387   6.342  1.6176 -2.4262 -1.4953
27991SOL    HW289810   0.858   6.369   6.262  0.0605 -0.0817  0.2953
27992SOL     OW89811  10.466   0.142   5.666 -0.4360 -0.0979 -0.1673
27992SOL    HW189812  10.539   0.136   5.728 -1.4786  0.5259  1.1845
27992SOL    HW289813  10.475   0.065   5.611  1.3409  0.0603 -0.1569
27993SOL     OW89814   0.901   1.984   5.553  0.2632 -0.0053 -0.0553
27993SOL    HW189815   0.956   2.002   5.477 -2.0721 -0.9070 -2.0933
27993SOL    HW289816   0.877   2.070   5.586  1.7806  0.3963  0.0707
27994SOL     OW89817   2.659   6.376   3.746  0.4070 -0.4338  0.0816
27994SOL    HW189818   2.685   6.288   3.717 -0.0178 -0.5917  0.1658
27994SOL    HW289819   2.636   6.422   3.666 -0.1751 -0.6724  0.1048
27995SOL     OW89820   0.077   1.118   0.293 -0.2015  0.1223 -0.6161
27995SOL    HW189821   0.123   1.195   0.259 -1.9078  2.3528  1.7262
27995SOL    HW289822   0.119   1.101   0.377 -1.2499 -0.1163 -0.1298
27996SOL     OW89823   5.154   6.332   6.587 -0.6136 -0.1203 -0.4112
27996SOL    HW189824   5.217   6.347   6.516 -1.8329 -2.3092 -2.0867
27996SOL    HW289825   5.123   6.242   6.573 -1.9065 -0.1580  2.1342
27997SOL     OW89826   9.627   1.938   7.995 -0.2322  0.3320 -0.8577
27997SOL    HW189827   9.542   1.953   8.036 -0.6856  0.6959 -1.8967
27997SOL    HW289828   9.606   1.912   7.906  0.6453 -2.8515 -0.2530
27998SOL     OW89829   5.664   7.159   0.870 -0.0468 -0.5832  0.6775
27998SOL    HW189830   5.669   7.081   0.814  2.1630  0.2047 -0.3737
27998SOL    HW289831   5.619   7.224   0.816  0.0489 -0.5054  0.6899
27999SOL     OW89832   7.171   8.597   2.606 -1.0417  0.2721  0.0563
27999SOL    HW189833   7.208   8.610   2.694 -2.4842 -2.0559  1.0863
27999SOL    HW289834   7.126   8.513   2.611 -1.2193  0.1000 -2.9409
28000SOL     OW89835   4.664   5.039   9.195  0.0309 -0.1352  0.4350
28000SOL    HW189836   4.736   5.081   9.147 -0.0538 -1.8786 -1.3646
28000SOL    HW289837   4.626   5.110   9.247  2.1469  1.1509  0.3585
28001SOL     OW89838   7.165   3.928   1.333 -0.2523  0.2341 -0.2601
28001SOL    HW189839   7.225   3.962   1.267 -0.6831 -0.1530 -0.8642
28001SOL    HW289840   7.147   4.002   1.391  1.4495  0.1466  0.4239
28002SOL     OW89841   5.728   6.052   5.279 -0.3842 -0.0954 -0.1110
28002SOL    HW189842   5.777   6.131   5.258  0.5245 -0.7477 -0.5193
28002SOL    HW289843   5.760   5.986   5.216  0.2292 -1.2917  1.3967
28003SOL     OW89844  10.338   8.090   2.090  0.0098 -0.2678 -0.2404
28003SOL    HW189845  10.254   8.134   2.101  0.4580  0.2420  1.4623
28003SOL    HW289846  10.392   8.124   2.162  1.1126 -1.8623 -0.2684
28004SOL     OW89847   8.175   7.795   1.031 -0.0191 -0.3819  0.4693
28004SOL    HW189848   8.080   7.798   1.021 -0.1090  0.7085  1.4934
28004SOL    HW289849   8.189   7.743   1.110  0.1073  1.1369  1.4968
28005SOL     OW89850   2.485   3.036   1.980  0.0296  0.1373 -0.3416
28005SOL    HW189851   2.477   3.062   2.072 -0.0072  2.0034 -0.8193
28005SOL    HW289852   2.551   3.095   1.944 -0.2477 -0.2820 -1.6143
28006SOL     OW89853   1.585   5.270   2.470  0.4992 -0.3954  0.1625
28006SOL    HW189854   1.608   5.214   2.396 -2.0103  0.6045 -1.5133
28006SOL    HW289855   1.605   5.359   2.440 -0.1436 -0.0069  0.8520
28007SOL     OW89856   9.567   8.091   9.418  0.1063 -0.1631 -0.3224
28007SOL    HW189857   9.484   8.138   9.420 -0.3530 -0.8965 -1.2176
28007SOL    HW289858   9.559   8.031   9.344  0.9153 -1.1857  0.3763
28008SOL     OW89859   6.883   0.088   0.534  0.0702 -0.0813 -0.1801
28008SOL    HW189860   6.839   0.009   0.503 -1.3789  1.4233 -2.2190
28008SOL    HW289861   6.825   0.160   0.508  1.4427  1.6998  1.3833
28009SOL     OW89862   2.024   8.939   6.426 -0.0685 -0.2355  0.3034
28009SOL    HW189863   1.929   8.956   6.425  0.2411  1.6282 -0.4770
28009SOL    HW289864   2.051   8.949   6.335  0.9477 -0.3582  0.5858
28010SOL     OW89865   7.306   4.883   1.908 -0.2400 -0.3931  0.2192
28010SOL    HW189866   7.347   4.822   1.970  0.2439 -0.9657 -0.6567
28010SOL    HW289867   7.377   4.942   1.883 -0.8579  1.0283  1.6108
28011SOL     OW89868   2.840   9.654   3.068 -0.1881  0.6027 -0.3306
28011SOL    HW189869   2.798   9.613   2.992 -0.3463  0.4340 -0.1525
28011SOL    HW289870   2.769   9.700   3.113  0.1204  1.7128 -0.9409
28012SOL     OW89871   3.823   2.489   5.403  0.2981 -0.1969  0.8007
28012SOL    HW189872   3.889   2.545   5.445  1.2556  0.0538 -0.9686
28012SOL    HW289873   3.776   2.548   5.344  0.1430 -0.8869  0.2254
28013SOL     OW89874   3.212   1.537   6.468 -0.0320 -0.1386 -0.4401
28013SOL    HW189875   3.164   1.567   6.390 -0.0924  0.1417 -0.2946
28013SOL    HW289876   3.143   1.517   6.532 -0.0103 -0.8650 -0.6288
28014SOL     OW89877   3.634   5.453   9.013 -0.5892  0.2367 -0.5149
28014SOL    HW189878   3.664   5.533   8.970  2.9141 -1.2863 -1.2766
28014SOL    HW289879   3.577   5.410   8.948  0.6999  0.2851 -1.7062
28015SOL     OW89880   2.943  10.830   5.094 -0.0672 -0.4930  0.0231
28015SOL    HW189881   2.940  10.767   5.166 -0.8895 -1.2508 -0.6492
28015SOL    HW289882   2.923  10.915   5.135  0.8220 -0.6920  0.8953
28016SOL     OW89883  10.850  10.218   5.923  0.3898 -1.1400 -0.1002
28016SOL    HW189884  10.827  10.144   5.979 -0.9740 -0.6775 -0.0132
28016SOL    HW289885  10.877  10.178   5.840 -0.6503 -1.7425 -0.1700
28017SOL     OW89886   2.057   2.282  10.181  0.2019  0.1214  0.5843
28017SOL    HW189887   2.134   2.230  10.160 -0.3902 -0.2683 -0.6686
28017SOL    HW289888   1.997   2.220  10.224  0.4633  0.3570  1.3008
28018SOL     OW89889   6.569   2.858   8.126 -0.4007  0.3208 -0.6198
28018SOL    HW189890   6.608   2.882   8.042  0.4487  2.3486  0.2588
28018SOL    HW289891   6.565   2.941   8.175 -3.1474 -0.3231  0.4593
28019SOL     OW89892   0.074   1.900   9.106  0.5440 -0.0587  0.5453
28019SOL    HW189893   0.033   1.876   9.189 -0.5061 -1.4461 -0.3324
28019SOL    HW289894   0.014   1.965   9.068  0.0560 -0.7721  0.0698
28020SOL     OW89895  10.845   2.092  10.889 -0.2382  0.4091 -0.0948
28020SOL    HW189896  10.811   2.022  10.834 -1.7094  0.3476  0.8339
28020SOL    HW289897  10.817   2.173  10.846  2.8302  0.6071 -2.0616
28021SOL     OW89898  10.444   2.092   4.544 -0.0526  0.4207  0.7017
28021SOL    HW189899  10.515   2.130   4.493 -0.8874  1.3477  0.1951
28021SOL    HW289900  10.432   2.005   4.506  3.0133 -1.1834  2.9846
28022SOL     OW89901   7.960   9.601   9.623  0.1690  0.2705  0.0328
28022SOL    HW189902   7.970   9.507   9.608 -1.1322  0.1551 -0.1446
28022SOL    HW289903   8.032   9.640   9.573  0.9659 -0.6371  0.4329
28023SOL     OW89904   8.710   2.933   8.476 -0.3605 -0.1555  0.3644
28023SOL    HW189905   8.775   2.933   8.546  0.0108 -1.3885  0.0406
28023SOL    HW289906   8.735   2.860   8.420 -2.8244 -1.5750  0.9869
28024SOL     OW89907   4.757   8.033   3.706 -0.8062  0.7824 -0.0322
28024SOL    HW189908   4.845   8.031   3.743 -0.3536  1.0713 -1.0549
28024SOL    HW289909   4.705   7.976   3.763  0.4409 -0.7795 -0.4111
28025SOL     OW89910  10.696   8.152   2.003 -0.3908  0.2378  0.1808
28025SOL    HW189911  10.786   8.163   1.974 -0.2544 -0.6550  0.2377
28025SOL    HW289912  10.643   8.169   1.924  0.0351 -3.5974 -1.1193
28026SOL     OW89913   9.728   1.285  10.531  0.0138  0.2157  0.5512
28026SOL    HW189914   9.706   1.337  10.453 -0.4891  1.8161  1.7152
28026SOL    HW289915   9.814   1.318  10.558 -1.4335  2.5460  2.8566
28027SOL     OW89916   6.294   6.099   7.471  0.0761  0.8671  0.0757
28027SOL    HW189917   6.266   6.010   7.448  1.6567  0.8874 -2.2602
28027SOL    HW289918   6.321   6.093   7.562  0.4849 -1.1553 -0.1352
28028SOL     OW89919   2.663   4.525   7.819 -0.3222 -0.1627 -0.2842
28028SOL    HW189920   2.591   4.578   7.785  0.7711  2.1308  0.7416
28028SOL    HW289921   2.622   4.444   7.847 -2.4155  0.8164 -0.3221
28029SOL     OW89922  10.177   9.072   4.974  0.5685 -0.0615 -0.4621
28029SOL    HW189923  10.171   9.060   4.880 -0.1004 -0.5234 -0.3661
28029SOL    HW289924  10.217   8.992   5.006 -0.8652 -0.6883 -0.1712
28030SOL     OW89925   4.766   7.375   2.384  0.6038 -0.4265 -0.8173
28030SOL    HW189926   4.854   7.340   2.400  0.0340 -1.6733 -0.2758
28030SOL    HW289927   4.751   7.435   2.457  0.6534 -0.9412 -0.3708
28031SOL     OW89928   5.752   0.843   4.653 -0.7628 -0.3529  0.6369
28031SOL    HW189929   5.819   0.795   4.702 -1.0600 -0.8262  0.5819
28031SOL    HW289930   5.801   0.911   4.606 -0.4616  0.0281  1.4840
28032SOL     OW89931   9.659   8.228   0.991 -0.4390 -0.2510 -0.4017
28032SOL    HW189932   9.654   8.177   0.910  0.6293 -1.2171  0.1239
28032SOL    HW289933   9.672   8.163   1.060  2.7235  0.7795  0.1086
28033SOL     OW89934   5.499   6.951   8.011  0.2441  0.3116  0.1655
28033SOL    HW189935   5.593   6.947   7.991  0.0536 -0.0399 -0.7232
28033SOL    HW289936   5.457   6.959   7.925 -0.4516  2.6083  0.6474
28034SOL     OW89937   5.884   1.289   2.958 -0.5030 -0.3395  0.7492
28034SOL    HW189938   5.860   1.238   2.881  0.3550 -0.6934  0.7107
28034SOL    HW289939   5.815   1.270   3.022 -0.5861 -0.9599  0.4770
28035SOL     OW89940   9.736   4.076   7.858  0.1976 -0.4501 -0.3421
28035SOL    HW189941   9.704   4.009   7.798  1.9339 -0.1297 -1.7046
28035SOL    HW289942   9.735   4.157   7.807 -0.6948  0.3683  0.8940
28036SOL     OW89943   0.974   3.867   9.813 -0.4996  0.4506  0.3516
28036SOL    HW189944   1.042   3.824   9.761 -0.6420  0.4461  0.1675
28036SOL    HW289945   1.015   3.883   9.898 -0.5638 -0.4117  0.5567
28037SOL     OW89946   0.289  10.049   8.863 -0.5188  0.1510 -0.4336
28037SOL    HW189947   0.233  10.108   8.811 -0.8262 -1.5128 -2.1313
28037SOL    HW289948   0.329   9.991   8.798 -0.9640 -2.1106  1.1804
28038SOL     OW89949   8.067   7.507   0.070  0.0804 -0.0255  0.1579
28038SOL    HW189950   8.148   7.462   0.092 -1.1954 -1.5324  2.2076
28038SOL    HW289951   8.094   7.595   0.044  2.3409 -0.3625  1.1358
28039SOL     OW89952   7.035   0.321   2.214  0.0064 -0.1924 -0.1291
28039SOL    HW189953   7.098   0.384   2.246  0.9557 -0.7899 -0.7772
28039SOL    HW289954   7.075   0.236   2.230  0.1903 -0.5356 -2.1312
28040SOL     OW89955   1.867   2.100   8.524  0.0645 -0.3216  0.5768
28040SOL    HW189956   1.862   2.024   8.467  0.2419  0.1426 -0.0658
28040SOL    HW289957   1.849   2.066   8.611 -3.1314 -0.5888 -0.0971
28041SOL     OW89958   7.293   3.018   8.684 -0.0611 -0.2325  0.1851
28041SOL    HW189959   7.292   3.074   8.606  0.3981  1.0922  1.0997
28041SOL    HW289960   7.317   3.076   8.755 -3.6727 -0.5887  1.9567
28042SOL     OW89961   6.914   9.258   9.841 -0.6306  0.4556  0.1928
28042SOL    HW189962   6.903   9.167   9.866 -1.9893  0.1662 -1.3339
28042SOL    HW289963   6.933   9.304   9.924 -0.2573 -1.1266  1.0137
28043SOL     OW89964   5.991   8.082   8.090 -0.7448 -0.5140 -0.0528
28043SOL    HW189965   6.010   7.990   8.069 -1.0505 -0.5215 -0.2931
28043SOL    HW289966   6.039   8.097   8.172 -2.4470 -1.5503  1.2157
28044SOL     OW89967   5.180   9.263   3.503  0.1057 -0.0153  0.2739
28044SOL    HW189968   5.124   9.186   3.519  0.0512 -0.2445 -0.9173
28044SOL    HW289969   5.239   9.266   3.578 -0.9495 -0.2746  1.1336
28045SOL     OW89970   1.665  10.139   9.860  0.1228 -0.1091 -0.4260
28045SOL    HW189971   1.735  10.104   9.804  1.3041 -0.8751  1.4342
28045SOL    HW289972   1.696  10.226   9.885  0.8685 -0.7533  1.0424
28046SOL     OW89973   3.820  10.306   9.378  0.2445 -0.0259  0.0961
28046SOL    HW189974   3.911  10.334   9.367  0.3282  0.1048  1.0650
28046SOL    HW289975   3.826  10.225   9.429 -0.2135  0.3528  0.7594
28047SOL     OW89976   4.105   1.893   8.841 -0.7058  0.5684 -0.3188
28047SOL    HW189977   4.031   1.908   8.900 -1.6764 -0.4166 -1.2267
28047SOL    HW289978   4.068   1.906   8.754  0.2158  0.1285 -0.7836
28048SOL     OW89979   5.412   0.616   4.086  0.2259 -0.4793  0.4042
28048SOL    HW189980   5.467   0.537   4.084 -0.7457 -1.1823 -0.8322
28048SOL    HW289981   5.409   0.644   3.994 -2.2304 -1.0442  0.2602
28049SOL     OW89982   6.527   7.125   4.515  0.8695  0.1373 -0.1188
28049SOL    HW189983   6.577   7.076   4.581 -0.5993  1.9900  2.5791
28049SOL    HW289984   6.544   7.217   4.537 -1.9064  0.8081 -0.5150
28050SOL     OW89985   8.467   4.373   8.418  0.5676  0.7319 -0.0339
28050SOL    HW189986   8.465   4.308   8.348 -2.3790 -0.1417  0.7214
28050SOL    HW289987   8.507   4.327   8.492  1.2222  0.7875 -0.3434
28051SOL     OW89988   9.634   7.375   1.646  0.1046 -0.1655  0.0351
28051SOL    HW189989   9.551   7.415   1.674  1.0218  0.9720  1.2420
28051SOL    HW289990   9.639   7.294   1.696 -0.2671 -0.2362 -0.0351
28052SOL     OW89991   8.438   1.506   7.613  0.4461 -0.4530  0.5164
28052SOL    HW189992   8.523   1.499   7.570 -0.0538 -2.4190 -0.2817
28052SOL    HW289993   8.400   1.587   7.578  1.8114  0.2531  0.6033
28053SOL     OW89994   7.500   1.833   6.862  0.5968  0.8147 -0.2524
28053SOL    HW189995   7.417   1.861   6.823  1.0406  0.8539 -1.1990
28053SOL    HW289996   7.518   1.748   6.823  0.6268  0.4439  0.5422
28054SOL     OW89997   8.477   5.273   7.279 -0.0788  0.1677  0.0777
28054SOL    HW189998   8.496   5.305   7.191 -0.8964 -2.1366 -1.0337
28054SOL    HW289999   8.411   5.204   7.265 -1.0459  0.4756  2.6161
28055SOL     OW90000   8.854  10.344   9.457 -0.1980 -0.2772  0.0544
28055SOL    HW190001   8.890  10.309   9.376 -0.7537  0.9899 -0.7856
28055SOL    HW290002   8.762  10.361   9.437 -0.2533  0.4359  0.8185
28056SOL     OW90003   6.931   4.600   8.072  0.1765 -0.2521 -0.5106
28056SOL    HW190004   7.017   4.559   8.083 -0.3108 -0.9956  0.6161
28056SOL    HW290005   6.949   4.694   8.077  0.7675 -0.4217  1.0905
28057SOL     OW90006   9.025   6.338   0.740  0.0040  0.0251 -0.2506
28057SOL    HW190007   9.053   6.311   0.828  1.4238 -0.6811 -0.8815
28057SOL    HW290008   9.103   6.377   0.701 -1.2487  2.5625 -0.4020
28058SOL     OW90009   5.053   7.389   9.351 -0.0772  0.1081 -0.2719
28058SOL    HW190010   5.079   7.301   9.378 -1.0700 -0.5749 -1.4366
28058SOL    HW290011   5.002   7.423   9.424 -1.7792 -1.2725 -0.7400
28059SOL     OW90012  10.853   0.909   0.494  0.1586  0.6308 -0.7916
28059SOL    HW190013  10.767   0.877   0.468 -0.2147  1.8834 -1.1860
28059SOL    HW290014  10.845   1.004   0.491  1.1420  0.7843  0.5552
28060SOL     OW90015   6.049   3.802   0.104 -0.1687 -0.4165 -0.0910
28060SOL    HW190016   6.138   3.833   0.118 -0.5616  0.3489  0.8137
28060SOL    HW290017   6.004   3.875   0.063 -0.5784 -0.5258  0.1558
28061SOL     OW90018   7.813  10.557  10.386  0.5022  0.3227  0.2154
28061SOL    HW190019   7.897  10.553  10.340  1.0266 -0.4356  1.1852
28061SOL    HW290020   7.830  10.514  10.470 -0.4627  1.5205  1.0653
28062SOL     OW90021   9.082  10.389   0.794 -0.7268  0.1952 -0.4598
28062SOL    HW190022   9.138  10.360   0.866 -0.7644 -0.9604 -0.8669
28062SOL    HW290023   9.098  10.483   0.787 -1.2581  0.4622  1.5090
28063SOL     OW90024   4.496   1.978   6.923 -0.4256 -0.2418  0.0516
28063SOL    HW190025   4.468   1.970   7.014  0.5885  0.4001  0.4399
28063SOL    HW290026   4.553   2.055   6.922  0.7082 -1.0448 -0.8317
28064SOL     OW90027   9.998   6.719   8.258  0.1585 -0.2166  0.2568
28064SOL    HW190028  10.039   6.705   8.173 -0.5424  0.8157 -0.2672
28064SOL    HW290029   9.946   6.798   8.247 -0.9393 -0.7616  1.2890
28065SOL     OW90030   4.600   3.641   7.154 -0.1076 -0.3173 -0.1920
28065SOL    HW190031   4.609   3.596   7.237 -1.2675  0.9944  0.6941
28065SOL    HW290032   4.516   3.610   7.119 -1.0562  1.2871  0.5600
28066SOL     OW90033   7.522   2.831   2.812  0.3244 -0.0084 -0.1080
28066SOL    HW190034   7.598   2.802   2.861 -0.1168  0.3788  0.8298
28066SOL    HW290035   7.516   2.771   2.738  0.6527 -0.9908  0.6436
28067SOL     OW90036   7.113   4.438   2.961  0.0537  0.2791 -0.0175
28067SOL    HW190037   7.068   4.521   2.950  1.2509  0.7807 -1.4768
28067SOL    HW290038   7.192   4.446   2.909  1.2800 -0.9969  1.5270
28068SOL     OW90039   9.876   0.069   4.794  0.0980 -0.1985 -0.1901
28068SOL    HW190040   9.790   0.109   4.793  0.7921  1.3523 -1.0217
28068SOL    HW290041   9.930   0.127   4.847  1.0066 -0.2442 -1.0162
28069SOL     OW90042   2.168   0.370   9.452  0.0922 -0.0569 -0.1226
28069SOL    HW190043   2.166   0.289   9.402 -1.4880  0.6380 -1.2950
28069SOL    HW290044   2.261   0.394   9.456  0.7142 -2.4313  1.1965
28070SOL     OW90045   8.374   1.760   9.273  0.0532 -0.1275  0.0128
28070SOL    HW190046   8.357   1.670   9.246  1.9263 -0.4229 -0.3296
28070SOL    HW290047   8.317   1.814   9.219 -0.5786 -1.0658 -0.2632
28071SOL     OW90048  10.232   1.526   3.969 -0.3515  0.2843  0.0296
28071SOL    HW190049  10.171   1.517   4.042  0.4631  1.5012  0.9012
28071SOL    HW290050  10.264   1.616   3.975  1.9708 -0.4740 -0.0461
28072SOL     OW90051   8.589   6.336   5.277 -0.2211  0.1346 -0.6281
28072SOL    HW190052   8.615   6.379   5.358 -0.8714 -0.2787 -0.1865
28072SOL    HW290053   8.553   6.252   5.305 -0.9607  0.2149 -1.2964
28073SOL     OW90054   7.518  10.172   9.461 -0.0849  0.4430 -0.4130
28073SOL    HW190055   7.506  10.106   9.529  0.5283  0.0264 -0.6964
28073SOL    HW290056   7.510  10.255   9.506  0.2188  0.1668  0.1583
28074SOL     OW90057   0.954   2.103  10.057  0.3256 -0.1833 -0.0225
28074SOL    HW190058   0.992   2.163   9.994  0.9412 -1.1973 -0.6430
28074SOL    HW290059   1.021   2.036  10.071 -0.9668 -1.6911 -0.6921
28075SOL     OW90060   0.735   9.170   5.997 -0.0075  0.0589  0.1454
28075SOL    HW190061   0.824   9.162   6.033  0.1867 -2.1216 -0.6658
28075SOL    HW290062   0.736   9.253   5.949  1.1377  0.7635  1.3243
28076SOL     OW90063   5.585   6.727   1.955 -0.8555 -0.1018 -0.0533
28076SOL    HW190064   5.657   6.664   1.962 -0.8999  0.0464  2.2635
28076SOL    HW290065   5.608   6.797   2.015 -0.0350  3.0393 -3.6335
28077SOL     OW90066   6.690   9.737   9.312  0.9055  0.5535 -0.0350
28077SOL    HW190067   6.754   9.799   9.344  2.7682 -1.7676  1.0414
28077SOL    HW290068   6.713   9.654   9.354 -2.3728 -0.5830 -0.1712
28078SOL     OW90069   1.757   8.476   1.443  0.1216 -0.3338 -0.0724
28078SOL    HW190070   1.819   8.530   1.394  0.7297 -1.1093 -0.1848
28078SOL    HW290071   1.810   8.403   1.475 -0.3598 -0.0961  1.3434
28079SOL     OW90072   7.197   0.700   6.864  0.7237 -0.1773 -0.0703
28079SOL    HW190073   7.145   0.774   6.897 -0.1723 -0.3165 -1.1124
28079SOL    HW290074   7.183   0.631   6.930  0.6147  0.1980  0.3089
28080SOL     OW90075   7.292   0.260   4.193 -0.0352  0.4583  0.0193
28080SOL    HW190076   7.255   0.306   4.268  1.0960  1.2053  0.1530
28080SOL    HW290077   7.340   0.186   4.231  0.4818  0.7978  0.0330
28081SOL     OW90078  10.053   9.718   5.264  0.3130 -0.4556  0.3033
28081SOL    HW190079   9.968   9.678   5.281 -0.3381  0.4947 -0.5351
28081SOL    HW290080  10.111   9.645   5.242 -1.0592 -0.9241 -2.1070
28082SOL     OW90081  10.497   2.543   5.887 -0.4974 -0.3244  0.1945
28082SOL    HW190082  10.505   2.628   5.931  1.5241 -0.8096  0.9042
28082SOL    HW290083  10.562   2.547   5.816  1.1808 -1.9718  1.5380
28083SOL     OW90084   7.908   3.420   4.785  0.5704  0.2944  0.0645
28083SOL    HW190085   7.842   3.351   4.779  0.2227  0.6204  0.0685
28083SOL    HW290086   7.872   3.481   4.850 -0.1425  1.5700 -1.4692
28084SOL     OW90087   8.144   0.545   8.854 -0.6405  0.1784  0.4497
28084SOL    HW190088   8.212   0.494   8.811 -0.0250  1.2240  0.1487
28084SOL    HW290089   8.062   0.503   8.827 -0.1737 -0.4154 -0.0884
28085SOL     OW90090   1.232   1.192  10.292 -0.6798 -0.3946 -0.0351
28085SOL    HW190091   1.306   1.179  10.350 -0.2756  0.2755 -0.3894
28085SOL    HW290092   1.235   1.285  10.269 -1.4014 -0.4437 -0.3559
28086SOL     OW90093  10.074   5.093   0.200 -0.3959  0.0010  0.0716
28086SOL    HW190094  10.076   5.000   0.223 -1.2963 -0.3460 -1.1175
28086SOL    HW290095  10.130   5.100   0.123 -1.1401  0.2353 -0.4624
28087SOL     OW90096   2.456   6.994   0.346  0.2826 -0.3149 -0.3533
28087SOL    HW190097   2.363   7.016   0.351  0.6966  1.6960 -0.7015
28087SOL    HW290098   2.477   6.962   0.434 -0.6003 -0.2652 -0.1079
28088SOL     OW90099   1.219   9.205   0.360  0.0055 -0.1438  0.2053
28088SOL    HW190100   1.128   9.175   0.362 -0.2343  0.4328 -1.2058
28088SOL    HW290101   1.266   9.137   0.311 -0.1308  0.6652 -1.0988
28089SOL     OW90102   4.133   9.838   7.830 -0.2190 -0.2142 -0.0160
28089SOL    HW190103   4.080   9.769   7.791 -0.1995  0.6905 -1.7379
28089SOL    HW290104   4.222   9.822   7.797 -0.3944  1.1725 -1.2772
28090SOL     OW90105   1.331   9.624   9.640  0.1708  0.9209 -0.0833
28090SOL    HW190106   1.376   9.701   9.675  0.6045  0.1443  1.1378
28090SOL    HW290107   1.364   9.615   9.551  1.2837  1.2460  0.2799
28091SOL     OW90108   7.857   8.500   7.336 -0.8925 -0.1086  0.6980
28091SOL    HW190109   7.777   8.528   7.292 -0.2724  0.8487  0.1410
28091SOL    HW290110   7.911   8.461   7.268 -1.3007 -1.7487  1.2734
28092SOL     OW90111   6.746   1.700   4.166  0.0362  0.2935  0.6021
28092SOL    HW190112   6.662   1.667   4.199 -0.0185  0.9812  1.1864
28092SOL    HW290113   6.762   1.649   4.087  0.0594 -1.2822  1.5706
28093SOL     OW90114   9.998   9.364   3.510 -0.4486  0.7260 -0.7374
28093SOL    HW190115  10.063   9.315   3.461 -0.7194 -0.7525  0.3341
28093SOL    HW290116   9.991   9.448   3.463  1.0389  0.3034 -1.7809
28094SOL     OW90117   2.894   0.263   1.108  0.2293 -0.0243 -0.2001
28094SOL    HW190118   2.811   0.309   1.093  1.3585  1.3865 -2.6541
28094SOL    HW290119   2.951   0.328   1.149 -0.4810 -1.7048  3.9877
28095SOL     OW90120   6.474   0.767   0.190 -0.0481  0.1247  0.1010
28095SOL    HW190121   6.555   0.730   0.155  0.4254  0.1402  1.1449
28095SOL    HW290122   6.428   0.692   0.228 -0.0359  0.2804  0.4269
28096SOL     OW90123   5.867   7.951   9.747 -0.6849  0.1764 -0.1649
28096SOL    HW190124   5.772   7.941   9.738 -0.9819 -1.7491  3.2397
28096SOL    HW290125   5.878   8.021   9.811  0.2233  0.6056 -0.7710
28097SOL     OW90126   7.764   0.863  10.784 -0.0713  0.0663 -0.3727
28097SOL    HW190127   7.712   0.786  10.807 -0.2373  0.2997  0.0346
28097SOL    HW290128   7.747   0.925  10.855  1.1517 -0.0371  0.0290
28098SOL     OW90129   2.546   0.739   1.743 -0.3601 -0.2682 -0.1900
28098SOL    HW190130   2.637   0.715   1.758 -0.1319  0.6790  0.0482
28098SOL    HW290131   2.536   0.737   1.647 -0.2406 -0.8941 -0.1888
28099SOL     OW90132   3.397   5.066   5.756 -0.2829 -0.2518  0.0970
28099SOL    HW190133   3.314   5.066   5.804  0.0960 -1.7871  0.8179
28099SOL    HW290134   3.398   5.149   5.709 -1.0613  0.9467  2.0888
28100SOL     OW90135   5.535   9.564   3.485 -0.5346 -0.5833  0.5416
28100SOL    HW190136   5.504   9.552   3.575 -1.4729 -1.1105  0.1615
28100SOL    HW290137   5.524   9.479   3.444 -0.1556 -0.3323 -0.0896
28101SOL     OW90138   1.332   4.970   3.155  0.5065  0.4767 -0.6311
28101SOL    HW190139   1.373   4.883   3.150  1.3698  0.7177  1.1706
28101SOL    HW290140   1.381   5.015   3.225  2.2408  3.5960 -3.5686
28102SOL     OW90141   3.735   8.658   4.089  0.0326 -0.1617 -0.3709
28102SOL    HW190142   3.796   8.730   4.071 -0.0032 -0.1666 -0.5091
28102SOL    HW290143   3.790   8.580   4.087 -0.0415 -0.2052 -0.8622
28103SOL     OW90144   5.028   7.427   3.856 -0.1204 -0.2212 -0.1786
28103SOL    HW190145   5.020   7.393   3.945 -1.9421 -0.1655 -0.2925
28103SOL    HW290146   5.121   7.416   3.834  0.0099 -1.8597  1.0715
28104SOL     OW90147  10.460   6.437   4.893 -0.4139 -0.1240 -0.2978
28104SOL    HW190148  10.421   6.360   4.851 -0.3453 -0.7161  0.6750
28104SOL    HW290149  10.529   6.465   4.833 -1.5472  0.2264 -1.4841
28105SOL     OW90150   8.690   4.783   3.922  0.5060  0.3932 -0.5424
28105SOL    HW190151   8.664   4.709   3.866 -0.2380  0.7867 -0.7267
28105SOL    HW290152   8.658   4.860   3.877  0.9446  0.8096 -0.1547
28106SOL     OW90153  10.561   6.456   8.087  0.5681 -0.8479  0.1206
28106SOL    HW190154  10.480   6.418   8.122 -0.5838  1.2233 -0.1408
28106SOL    HW290155  10.621   6.457   8.162  0.2279 -1.9932  0.4379
28107SOL     OW90156   8.875   5.332   4.851 -0.0579  0.2355 -0.1388
28107SOL    HW190157   8.922   5.343   4.934 -1.1853  0.3722  0.5087
28107SOL    HW290158   8.934   5.280   4.797  0.3041 -0.7289  1.1156
28108SOL     OW90159   2.802   2.716   5.527 -0.3320  0.4233 -0.3851
28108SOL    HW190160   2.740   2.650   5.493  1.0889 -0.3722 -1.5634
28108SOL    HW290161   2.888   2.677   5.514  0.4296  1.2513  1.7894
28109SOL     OW90162   1.884   9.918   9.442  0.1726 -0.0084  0.1465
28109SOL    HW190163   1.931   9.840   9.415  0.5277  0.5762 -1.0006
28109SOL    HW290164   1.818   9.932   9.373  0.6093  1.1104 -0.0718
28110SOL     OW90165   6.237   5.895   3.663  1.3388  0.1806  0.1316
28110SOL    HW190166   6.272   5.972   3.617  1.1384 -0.2630 -0.7808
28110SOL    HW290167   6.309   5.833   3.665  0.9825 -0.2702 -0.6792
28111SOL     OW90168   0.529   1.657   7.779 -0.3452 -0.0017  0.1538
28111SOL    HW190169   0.530   1.673   7.685 -0.3458 -0.5454  0.0608
28111SOL    HW290170   0.617   1.627   7.800 -0.8101 -1.5043  0.0366
28112SOL     OW90171   0.027   5.494   9.752  0.6828  0.1171  0.0435
28112SOL    HW190172   0.121   5.505   9.740  0.4760  2.9419  0.1792
28112SOL    HW290173   0.016   5.487   9.847  0.8914 -3.1986 -0.0732
28113SOL     OW90174   5.637   6.479   3.415  0.2209 -0.3326 -0.5095
28113SOL    HW190175   5.705   6.518   3.361 -0.1172  1.0850  0.0439
28113SOL    HW290176   5.558   6.530   3.396  0.0310  0.0328  1.0709
28114SOL     OW90177   4.509   3.868   4.345 -0.3290  0.1304 -0.2073
28114SOL    HW190178   4.479   3.793   4.397 -0.5515  1.0935  1.0792
28114SOL    HW290179   4.604   3.863   4.347 -0.3294  0.2953  0.5178
28115SOL     OW90180   5.840   2.178   2.060  0.1774 -0.5983  0.1443
28115SOL    HW190181   5.832   2.227   1.978  0.8359 -0.1577  0.3419
28115SOL    HW290182   5.762   2.122   2.061  0.3928 -0.9546 -1.0075
28116SOL     OW90183   2.004   8.409   9.022 -0.1345 -0.3863  0.2733
28116SOL    HW190184   2.095   8.420   8.992 -0.7222  0.4601 -1.2919
28116SOL    HW290185   1.961   8.492   9.002 -1.6579 -1.3245 -0.5182
28117SOL     OW90186   6.390   5.730   7.148 -0.0397  0.9271 -0.0716
28117SOL    HW190187   6.400   5.661   7.083  1.9545  0.7268  0.3953
28117SOL    HW290188   6.361   5.807   7.098 -1.9674 -0.1101 -0.6377
28118SOL     OW90189   9.981   6.220   3.882 -0.0206  0.5433  0.3704
28118SOL    HW190190   9.956   6.259   3.966  0.7569  0.4927  0.6337
28118SOL    HW290191  10.044   6.281   3.845  1.0622 -0.3452  0.6976
28119SOL     OW90192   0.863   2.240   9.610  0.3040  0.1767  0.3643
28119SOL    HW190193   0.799   2.281   9.552 -1.0630 -1.2100  0.8173
28119SOL    HW290194   0.948   2.265   9.574 -0.4376  2.7115  0.1790
28120SOL     OW90195  10.580   6.483   9.153  0.6155 -0.1238 -0.1994
28120SOL    HW190196  10.556   6.484   9.060  2.2150 -0.6066 -0.6366
28120SOL    HW290197  10.552   6.569   9.185 -2.6805 -0.9787 -0.3392
28121SOL     OW90198   7.938   4.742   5.753 -0.5488  0.2992 -0.2101
28121SOL    HW190199   7.875   4.721   5.684 -0.1047 -0.0019 -0.5246
28121SOL    HW290200   7.914   4.685   5.826 -0.8528  0.4328 -0.2024
28122SOL     OW90201   2.735   9.257   8.888  0.7640 -0.4161 -0.0831
28122SOL    HW190202   2.706   9.247   8.797 -2.0068  1.2993  0.5014
28122SOL    HW290203   2.776   9.343   8.890 -1.3157  0.6249  0.6879
28123SOL     OW90204   2.480   4.071   6.566  0.5552  0.1131  0.0939
28123SOL    HW190205   2.499   4.165   6.564  1.2515 -0.0008  0.7992
28123SOL    HW290206   2.532   4.035   6.494 -1.8115  0.5953 -1.9650
28124SOL     OW90207   8.711   6.839   8.405  0.3750  0.5706 -0.0451
28124SOL    HW190208   8.761   6.768   8.365 -0.3183  0.3010 -0.4664
28124SOL    HW290209   8.738   6.917   8.357  0.6208  0.4745 -0.0627
28125SOL     OW90210   2.929   5.207   4.900  0.3327  0.6248 -0.0860
28125SOL    HW190211   2.843   5.246   4.886  0.4720  0.6116 -1.0608
28125SOL    HW290212   2.991   5.272   4.866  0.6923  0.4768  0.2669
28126SOL     OW90213   6.561   7.649   3.478  0.3698 -0.4598 -0.4284
28126SOL    HW190214   6.477   7.663   3.432 -0.8463 -0.6905  1.6009
28126SOL    HW290215   6.557   7.558   3.507 -0.3487  0.4508  2.7011
28127SOL     OW90216   8.337   6.056   9.787  0.3208  0.0352 -0.2032
28127SOL    HW190217   8.295   5.971   9.772  1.2091 -0.4696  0.0495
28127SOL    HW290218   8.281   6.119   9.743 -0.6208 -0.6257  0.0263
28128SOL     OW90219   6.826   8.146   4.819  0.1035  0.1273 -0.8459
28128SOL    HW190220   6.783   8.232   4.815  0.5371  0.3085 -2.3079
28128SOL    HW290221   6.756   8.084   4.799  0.0085  0.2369 -0.8550
28129SOL     OW90222   7.423   4.599   6.732  0.1770  0.1552  0.1497
28129SOL    HW190223   7.482   4.540   6.685 -0.2641  0.7092 -1.1447
28129SOL    HW290224   7.365   4.634   6.664 -1.9418 -0.6931  1.4296
28130SOL     OW90225   4.447   8.888   1.465  0.0121  0.2247 -0.7375
28130SOL    HW190226   4.476   8.798   1.452 -1.0657 -0.4246  0.9785
28130SOL    HW290227   4.360   8.890   1.425 -1.3066 -0.4587  1.8721
28131SOL     OW90228   2.229   4.261   9.058 -0.6803 -0.0210  0.3069
28131SOL    HW190229   2.228   4.227   8.969 -1.6890 -0.8226  0.6017
28131SOL    HW290230   2.162   4.210   9.104  1.2845 -1.1690  2.0922
28132SOL     OW90231   0.993   5.701   9.790  0.8476  0.3040 -0.4463
28132SOL    HW190232   0.983   5.612   9.823  0.4077  0.3746 -0.3793
28132SOL    HW290233   1.071   5.698   9.734  1.9573  0.3188  1.0627
28133SOL     OW90234   7.949   5.388   4.388 -0.5129  0.1833  0.1074
28133SOL    HW190235   7.967   5.295   4.402 -1.0588 -0.0004 -0.3628
28133SOL    HW290236   7.864   5.402   4.430 -0.4818  0.4456  0.0815
28134SOL     OW90237   9.563   1.245  10.048  0.2924  0.6193 -0.4747
28134SOL    HW190238   9.619   1.295  10.107  0.5086 -1.1648  0.9008
28134SOL    HW290239   9.618   1.173  10.018 -0.8848 -0.4944 -0.0328
28135SOL     OW90240   4.077   7.787   7.028 -0.5833  0.4230  0.2106
28135SOL    HW190241   3.985   7.775   7.004 -1.3994  2.0250  2.2631
28135SOL    HW290242   4.087   7.742   7.112  0.7336 -0.3863 -0.3433
28136SOL     OW90243   9.649   6.458   2.523 -0.4301 -0.6956 -0.2352
28136SOL    HW190244   9.613   6.513   2.454  1.0535 -0.7256 -1.0676
28136SOL    HW290245   9.703   6.517   2.576  1.5697 -1.3570 -1.4211
28137SOL     OW90246   2.886   5.485   9.938 -0.9988 -0.7246  0.2266
28137SOL    HW190247   2.832   5.523   9.869 -0.2184 -0.5910 -0.3225
28137SOL    HW290248   2.837   5.503  10.019 -1.3150  0.2518 -0.1607
28138SOL     OW90249   0.801   2.964   2.292 -0.2925 -0.1436  0.0688
28138SOL    HW190250   0.878   2.937   2.241 -1.3611 -0.0457 -1.6612
28138SOL    HW290251   0.804   2.910   2.370  1.3262 -0.4118 -0.1434
28139SOL     OW90252   5.804   7.280   4.871 -0.3846  0.6705 -0.6102
28139SOL    HW190253   5.740   7.218   4.907 -0.8927  0.8859 -1.1102
28139SOL    HW290254   5.771   7.298   4.783 -0.4645  1.9439 -0.3400
28140SOL     OW90255  10.766  10.295  10.003 -0.7165 -0.0419 -0.2409
28140SOL    HW190256  10.778  10.390   9.998 -1.2959 -0.0300 -2.8603
28140SOL    HW290257  10.710  10.282  10.080  2.3310  1.3070  2.4384
28141SOL     OW90258   2.588   7.558   9.198 -1.0342  0.4320 -0.4850
28141SOL    HW190259   2.571   7.616   9.273  0.3803 -0.3047  0.4406
28141SOL    HW290260   2.635   7.484   9.235 -0.7574 -0.2024 -2.0397
28142SOL     OW90261   6.955   9.687   8.850 -0.1103  0.3368 -0.2137
28142SOL    HW190262   6.889   9.728   8.907  0.6044  0.4472  0.5687
28142SOL    HW290263   7.011   9.760   8.822  0.3995  0.0923  0.1337
28143SOL     OW90264   3.528   0.655   3.275 -0.1613 -0.2862  0.2839
28143SOL    HW190265   3.512   0.747   3.257 -2.6948 -0.7892 -0.3645
28143SOL    HW290266   3.624   0.648   3.280  0.1887  1.9908 -1.6514
28144SOL     OW90267   7.750   5.622   2.167  0.2422 -0.0859  0.8469
28144SOL    HW190268   7.760   5.653   2.257  0.7455 -0.0410  0.7768
28144SOL    HW290269   7.656   5.604   2.158  0.2694 -0.6072  1.5531
28145SOL     OW90270  10.318   2.842   7.214 -0.1289  0.5929  0.2838
28145SOL    HW190271  10.411   2.827   7.196 -0.6320 -0.7086 -1.5199
28145SOL    HW290272  10.314   2.861   7.307  2.1888  2.9895  0.0115
28146SOL     OW90273   8.906   6.513   1.012  0.2797  0.3446 -0.2284
28146SOL    HW190274   8.822   6.477   0.985 -0.0252  0.2302  0.8344
28146SOL    HW290275   8.965   6.437   1.016  0.0830  0.2244  0.3472
28147SOL     OW90276   9.829  10.494  10.241  0.3685 -0.3607 -0.6614
28147SOL    HW190277   9.759  10.441  10.280  0.0264  1.0016  0.6609
28147SOL    HW290278   9.906  10.437  10.243  0.6038 -0.1479  2.9156
28148SOL     OW90279   8.601   2.038  10.785  0.2696 -0.6131 -0.2383
28148SOL    HW190280   8.671   1.977  10.807 -1.0787 -1.5881  1.6630
28148SOL    HW290281   8.521   1.986  10.791 -0.7105  0.6873 -1.4065
28149SOL     OW90282   0.169   8.418   0.022 -0.1211 -0.0058  0.2223
28149SOL    HW190283   0.238   8.480   0.045  0.3763 -1.0459  1.6283
28149SOL    HW290284   0.092   8.447   0.071 -0.5186  0.7180 -0.7784
28150SOL     OW90285   2.732   6.352   1.576  0.6732  0.3332  0.2625
28150SOL    HW190286   2.703   6.368   1.666  2.1412  1.1589  0.6156
28150SOL    HW290287   2.663   6.298   1.538 -0.4374  0.7676  1.5906
28151SOL     OW90288   0.728   1.189   7.430  0.1826 -0.9055 -0.3874
28151SOL    HW190289   0.711   1.099   7.457  0.0191 -0.7782 -0.0529
28151SOL    HW290290   0.815   1.209   7.464  0.1348 -0.8722 -0.2830
28152SOL     OW90291   8.834   5.727   1.057 -0.3297 -0.3080  0.3225
28152SOL    HW190292   8.824   5.719   0.962 -0.9526  2.2817  0.0853
28152SOL    HW290293   8.929   5.733   1.071 -0.0932 -2.7353  0.1458
28153SOL     OW90294   8.769   4.370   3.114  0.3308 -0.4150 -0.5277
28153SOL    HW190295   8.713   4.446   3.098 -0.9027 -1.3192 -0.6167
28153SOL    HW290296   8.712   4.306   3.156  1.2561 -1.4176 -0.7484
28154SOL     OW90297   1.736   7.870   8.801 -0.1343  0.2819 -0.3565
28154SOL    HW190298   1.694   7.907   8.878  0.0158  1.8521 -0.9771
28154SOL    HW290299   1.815   7.828   8.835 -1.9847 -2.5501  0.7976
28155SOL     OW90300   9.847   2.434   4.412  0.2357 -0.0670  0.3592
28155SOL    HW190301   9.770   2.415   4.465 -0.3944  1.2716 -0.0381
28155SOL    HW290302   9.861   2.528   4.422  1.4833 -0.1894 -0.0309
28156SOL     OW90303   1.548   8.510   5.183 -0.2650  0.4674 -0.0798
28156SOL    HW190304   1.595   8.440   5.138  0.6151  1.2637 -0.4335
28156SOL    HW290305   1.585   8.591   5.148 -1.0784  1.1188  0.5081
28157SOL     OW90306   3.208   7.732  10.462  0.5002  0.5356  0.6445
28157SOL    HW190307   3.206   7.821  10.425  0.2173  0.5963  0.7997
28157SOL    HW290308   3.116   7.704  10.462  0.4169  0.7499  1.8118
28158SOL     OW90309   4.582  10.370   4.154  0.0147  0.7499 -0.1398
28158SOL    HW190310   4.561  10.296   4.211  1.4434 -0.8475 -1.5939
28158SOL    HW290311   4.497  10.398   4.120 -0.4546 -1.0218 -0.5140
28159SOL     OW90312   3.415   0.095   6.943  0.1131 -0.3984 -0.1238
28159SOL    HW190313   3.410   0.183   6.981 -1.0713  0.3312 -1.8131
28159SOL    HW290314   3.492   0.097   6.886  1.2138 -1.1136  1.2963
28160SOL     OW90315   2.564   7.172   7.080  1.0744  0.3195 -0.2538
28160SOL    HW190316   2.480   7.193   7.041  0.0942 -1.6237  0.7046
28160SOL    HW290317   2.545   7.103   7.144  3.1181  1.0431  1.2455
28161SOL     OW90318   5.030   0.611   0.057 -0.0225  0.0131 -0.8973
28161SOL    HW190319   5.039   0.591  -0.036  1.8875  1.8172 -1.1735
28161SOL    HW290320   5.113   0.583   0.096 -0.9084 -0.9988  0.3688
28162SOL     OW90321   0.853   0.663   8.199 -0.2337  0.7194 -0.1159
28162SOL    HW190322   0.927   0.718   8.175  0.9873 -0.1477  1.4430
28162SOL    HW290323   0.859   0.588   8.139  0.2939  0.5568  0.1289
28163SOL     OW90324   4.937   1.889   0.894  0.5522 -0.2566  0.1900
28163SOL    HW190325   4.853   1.843   0.894  2.0278 -3.1621  0.6159
28163SOL    HW290326   4.944   1.926   0.982  0.6121 -1.8189  0.8612
28164SOL     OW90327   6.571   1.500   0.835 -0.1627  0.8846  0.9513
28164SOL    HW190328   6.607   1.515   0.922 -1.6831  3.3634  1.2491
28164SOL    HW290329   6.640   1.529   0.775  0.0424  1.3471  1.4053
28165SOL     OW90330  10.080   5.377   3.897  0.0782  0.2334  0.2688
28165SOL    HW190331  10.069   5.282   3.888  0.4313  0.3008 -1.1290
28165SOL    HW290332  10.171   5.393   3.874 -0.5901  1.1495 -1.9978
28166SOL     OW90333   3.103   8.618   0.625 -0.3642  0.1204  0.0601
28166SOL    HW190334   3.178   8.626   0.566 -0.4518  0.0589 -0.0591
28166SOL    HW290335   3.035   8.673   0.586 -0.8992 -1.0050 -0.6520
28167SOL     OW90336   0.499   3.104   7.546 -0.1324 -0.3143 -0.0936
28167SOL    HW190337   0.546   3.113   7.463 -0.5225  2.3283 -0.1257
28167SOL    HW290338   0.554   3.147   7.610 -0.4638 -1.1529  0.7784
28168SOL     OW90339  10.484   6.721   9.226  0.7191  0.3744 -0.3518
28168SOL    HW190340  10.529   6.789   9.175  1.1028  1.4783  1.3873
28168SOL    HW290341  10.402   6.762   9.252  1.5075  0.7223  1.8004
28169SOL     OW90342   0.170   3.027   3.168 -0.1475  0.0875 -0.0950
28169SOL    HW190343   0.242   3.012   3.108  0.7262 -0.3916  1.0436
28169SOL    HW290344   0.166   3.122   3.178 -0.1280  0.1539 -0.6803
28170SOL     OW90345   9.646   8.166   1.662  0.3397  0.4869  0.3249
28170SOL    HW190346   9.609   8.216   1.589  0.3702  0.7831  0.5111
28170SOL    HW290347   9.674   8.083   1.623 -1.1951 -0.0623  0.3090
28171SOL     OW90348   6.703   1.522   1.482  0.0218  0.4164 -0.1302
28171SOL    HW190349   6.638   1.570   1.532  0.6025 -0.2147  1.3095
28171SOL    HW290350   6.787   1.558   1.511  0.5143 -1.7347  1.4347
28172SOL     OW90351   8.367   8.323   8.914 -0.2203  0.5681  0.5075
28172SOL    HW190352   8.332   8.411   8.929 -0.9809  0.2234  0.8525
28172SOL    HW290353   8.341   8.302   8.824 -1.1862  0.2031  0.8566
28173SOL     OW90354   1.420   8.078   7.208 -0.2966 -0.0788 -0.1105
28173SOL    HW190355   1.390   8.032   7.286 -0.0044 -0.4647 -0.2255
28173SOL    HW290356   1.506   8.112   7.231  0.4301 -1.4213 -0.7288
28174SOL     OW90357   9.831   8.173  10.131  1.1487  0.4037 -0.6082
28174SOL    HW190358   9.903   8.110  10.137  0.1905 -0.6806 -0.0127
28174SOL    HW290359   9.852   8.228  10.055  1.9613 -0.7047 -1.2040
28175SOL     OW90360   3.407   9.534  10.502  0.1577 -0.3764 -0.0998
28175SOL    HW190361   3.367   9.454  10.469  0.6985  0.0179 -1.7714
28175SOL    HW290362   3.403   9.525  10.597 -1.9573 -1.2994 -0.2251
28176SOL     OW90363   5.599   1.628   7.732  0.1233  0.6108  0.3876
28176SOL    HW190364   5.662   1.572   7.777 -0.7520  0.8567  1.9734
28176SOL    HW290365   5.518   1.620   7.783 -1.0619  0.5412 -1.4310
28177SOL     OW90366   6.430   3.185   0.297 -0.4096  0.1744 -0.1938
28177SOL    HW190367   6.377   3.143   0.366 -0.8210 -0.9132 -1.1449
28177SOL    HW290368   6.387   3.269   0.283  0.1516  0.7708  1.4274
28178SOL     OW90369  10.822   9.297   8.838 -0.6397 -0.2406 -0.2271
28178SOL    HW190370  10.769   9.359   8.789 -0.9551 -0.6804 -0.4550
28178SOL    HW290371  10.767   9.219   8.845 -1.1141  0.2017  1.8589
28179SOL     OW90372   4.828   8.714   5.406 -0.1570  0.0455  0.5468
28179SOL    HW190373   4.761   8.700   5.473 -1.2775  0.4704 -0.4685
28179SOL    HW290374   4.789   8.681   5.325  1.8080 -2.0360  0.3423
28180SOL     OW90375   3.060   9.902   0.189  0.2288  0.4376  0.5020
28180SOL    HW190376   3.150   9.917   0.159 -0.0502 -1.7908 -1.8696
28180SOL    HW290377   3.061   9.812   0.223 -1.0418  0.4962  0.7434
28181SOL     OW90378  10.129   0.409   0.630 -0.1648  0.2432  0.1038
28181SOL    HW190379  10.110   0.502   0.625 -0.5416  0.0997 -1.6231
28181SOL    HW290380  10.070   0.377   0.699 -0.6313  1.1347  0.1355
28182SOL     OW90381   2.219   9.977   8.112 -0.2972 -0.1005 -0.1301
28182SOL    HW190382   2.209  10.006   8.202 -1.5036  0.1396 -0.3144
28182SOL    HW290383   2.174   9.892   8.109  1.1364 -0.8828 -0.1468
28183SOL     OW90384   8.586   1.853   3.759 -0.2675  0.6475 -0.0245
28183SOL    HW190385   8.677   1.830   3.773 -0.3537  0.0211 -0.4824
28183SOL    HW290386   8.536   1.777   3.788 -0.7161  1.3945  1.2665
28184SOL     OW90387   4.307   1.707   5.711  0.1768  0.4851 -0.2264
28184SOL    HW190388   4.356   1.627   5.690  1.1883  1.1657 -0.5217
28184SOL    HW290389   4.313   1.714   5.806 -1.2736 -0.6210 -0.0148
28185SOL     OW90390   2.284   0.587   3.353  0.3623  0.2764 -0.3790
28185SOL    HW190391   2.366   0.540   3.338  0.1216  0.7518 -4.3671
28185SOL    HW290392   2.224   0.553   3.286 -2.0343  1.5040  0.9878
28186SOL     OW90393   8.807   0.295   0.052  1.0436  0.1668 -0.1266
28186SOL    HW190394   8.764   0.242   0.119 -0.4246 -0.5871 -1.6085
28186SOL    HW290395   8.746   0.367   0.036  2.0311  1.1328  0.3123
28187SOL     OW90396   4.322   9.349   2.267  0.2090 -0.2268  0.1703
28187SOL    HW190397   4.294   9.440   2.263  0.6442 -0.1256 -1.2098
28187SOL    HW290398   4.305   9.315   2.179 -0.1438 -1.5476  0.7157
28188SOL     OW90399   0.445   0.911   7.757 -0.3607 -0.4253  0.0302
28188SOL    HW190400   0.526   0.961   7.750 -0.6728 -0.0916 -1.8056
28188SOL    HW290401   0.450   0.846   7.687 -0.8409 -1.6905  1.1284
28189SOL     OW90402   6.749  10.587  10.124 -0.3005 -0.3735  1.0917
28189SOL    HW190403   6.730  10.496  10.146 -0.2200 -0.6008  0.2453
28189SOL    HW290404   6.669  10.618  10.080 -0.5005  0.1033  1.7761
28190SOL     OW90405   1.658   3.108   4.446  1.3745  0.3270 -0.4911
28190SOL    HW190406   1.698   3.087   4.361 -2.0959  0.7307 -2.4179
28190SOL    HW290407   1.639   3.023   4.485  0.5835  0.0668 -1.4059
28191SOL     OW90408   4.598   1.748   4.417  0.5438 -0.2492  0.4401
28191SOL    HW190409   4.671   1.793   4.459  0.4366  1.3117 -0.9593
28191SOL    HW290410   4.639   1.697   4.346  0.2366  1.4141 -0.9892
28192SOL     OW90411   9.068   6.641   8.788 -0.3212  0.5666  0.5350
28192SOL    HW190412   9.070   6.607   8.878  0.3401  0.0869  0.3495
28192SOL    HW290413   9.160   6.653   8.765 -0.3976 -0.8283 -0.6334
28193SOL     OW90414   8.812   5.699   9.660  0.3265  0.1020 -0.1263
28193SOL    HW190415   8.762   5.655   9.591 -0.0004 -3.2541  2.0498
28193SOL    HW290416   8.902   5.667   9.648  0.9287  1.8973 -0.7505
28194SOL     OW90417   1.303   9.007   0.812  0.1561 -0.0365  0.1384
28194SOL    HW190418   1.330   9.047   0.895  0.9236 -4.3112  2.2634
28194SOL    HW290419   1.384   8.995   0.763  0.0408  0.3851 -0.1516
28195SOL     OW90420   0.769   7.046   4.997 -0.6898 -0.0316 -0.1704
28195SOL    HW190421   0.708   7.007   4.935 -0.9867  1.0037 -0.5330
28195SOL    HW290422   0.715   7.102   5.053 -0.0273  1.3107 -0.8236
28196SOL     OW90423   9.510   6.735   2.416 -0.0997  0.3784 -0.4737
28196SOL    HW190424   9.601   6.756   2.393 -0.2719  1.2650 -0.3875
28196SOL    HW290425   9.467   6.820   2.423 -1.2602 -0.0698 -1.7502
28197SOL     OW90426   5.111   0.987   1.826 -0.5354  0.4654  0.1956
28197SOL    HW190427   5.185   0.929   1.844 -1.3143 -0.3557  0.8530
28197SOL    HW290428   5.105   1.043   1.904 -0.9444  0.1447  0.4011
28198SOL     OW90429   4.729   7.493   2.153  0.8775  0.2078 -0.7592
28198SOL    HW190430   4.657   7.555   2.164  0.3754 -0.6084  0.9396
28198SOL    HW290431   4.736   7.448   2.238  1.5357 -1.7047 -1.7540
28199SOL     OW90432   4.840   6.178   8.991 -0.0770 -0.4804  0.5807
28199SOL    HW190433   4.899   6.181   8.915 -2.1343  1.3728 -1.0785
28199SOL    HW290434   4.777   6.109   8.969 -1.5850  1.0687 -0.2189
28200SOL     OW90435   5.548   1.157   1.941  0.1885  0.2517 -0.3038
28200SOL    HW190436   5.470   1.144   1.887 -0.3015  0.3640  0.3650
28200SOL    HW290437   5.534   1.242   1.983  0.3888 -0.0042  0.2928
28201SOL     OW90438  10.482   3.850   1.000  0.1132 -0.2972  0.1265
28201SOL    HW190439  10.421   3.886   1.065 -1.9577  1.0625 -2.4032
28201SOL    HW290440  10.479   3.756   1.014  0.2021 -0.0176  2.3566
28202SOL     OW90441   4.429   8.967   7.351 -0.4213 -0.5732 -0.2324
28202SOL    HW190442   4.499   8.935   7.295  0.2240  0.9403 -0.3321
28202SOL    HW290443   4.472   9.029   7.411 -1.5196 -0.2972  0.3016
28203SOL     OW90444   0.418   9.226   1.042 -0.0768 -0.5161  0.8453
28203SOL    HW190445   0.357   9.258   0.976 -1.0285 -0.5246  1.7039
28203SOL    HW290446   0.499   9.210   0.994 -1.0155 -1.4236 -0.5086
28204SOL     OW90447   0.241   0.593   1.379  0.5355  0.8017  0.7881
28204SOL    HW190448   0.242   0.546   1.296 -1.0325  0.5591  0.8679
28204SOL    HW290449   0.230   0.524   1.445 -0.6430  1.1506  0.9875
28205SOL     OW90450   8.998   5.671   6.323  0.2710  0.2256 -0.3629
28205SOL    HW190451   8.987   5.588   6.275  4.0377 -0.8275  0.2871
28205SOL    HW290452   9.002   5.737   6.254 -0.7805 -0.3612 -1.0282
28206SOL     OW90453   8.995   6.111   5.493  0.0409 -0.0859  0.1438
28206SOL    HW190454   9.058   6.151   5.433  1.7141 -0.9634  1.2417
28206SOL    HW290455   9.032   6.025   5.513 -1.2533 -0.4241  1.2312
28207SOL     OW90456   4.953   9.258   6.784  0.4629  0.5703 -0.1062
28207SOL    HW190457   4.867   9.225   6.757  1.1494 -2.9202  1.3339
28207SOL    HW290458   4.939   9.291   6.873  0.6326 -0.4735  0.3290
28208SOL     OW90459   8.966   4.120   1.396  0.2066  0.1153 -0.0557
28208SOL    HW190460   9.002   4.043   1.352  0.7379  0.1129  0.3790
28208SOL    HW290461   8.972   4.190   1.330  0.9576  0.1011 -0.0100
28209SOL     OW90462   7.905   2.179   4.937 -0.4448  0.4916 -0.1819
28209SOL    HW190463   7.960   2.162   4.860 -1.0842  0.7503 -0.7023
28209SOL    HW290464   7.967   2.204   5.006  0.5383 -3.0651  0.4395
28210SOL     OW90465   8.004   2.696   3.484  0.5929 -0.0083 -0.3936
28210SOL    HW190466   8.009   2.782   3.443 -0.9866  1.3081  1.9174
28210SOL    HW290467   8.090   2.683   3.524  0.0709  1.8630  1.5541
28211SOL     OW90468   4.078   9.846   9.263 -0.2687 -0.2112  0.0513
28211SOL    HW190469   4.035   9.848   9.178  0.1130  2.3418 -0.1649
28211SOL    HW290470   4.170   9.829   9.242  0.1756  2.2021 -0.3391
28212SOL     OW90471   3.733   3.425   0.427 -0.0614 -0.6255 -0.3454
28212SOL    HW190472   3.781   3.344   0.444  0.2220 -0.3720  0.0512
28212SOL    HW290473   3.725   3.467   0.512 -0.3743 -0.3220 -0.5215
28213SOL     OW90474   6.760   7.988   2.940 -0.0553  0.2979  0.4507
28213SOL    HW190475   6.705   7.958   3.012 -1.1233  0.2443 -0.3635
28213SOL    HW290476   6.820   7.916   2.923 -0.1415  0.1109  0.9516
28214SOL     OW90477   1.020   8.750   6.669  0.2675 -0.4638 -0.0301
28214SOL    HW190478   0.966   8.813   6.621 -1.2850 -0.5980  1.4137
28214SOL    HW290479   1.065   8.802   6.735 -0.5439 -0.7286  0.7661
28215SOL     OW90480   8.693   4.950  10.857 -0.2975 -0.0221  0.2472
28215SOL    HW190481   8.637   4.954  10.935 -0.0277  1.3685  0.3905
28215SOL    HW290482   8.776   4.989  10.886 -0.5299  1.4711 -1.0087
28216SOL     OW90483   4.360   2.681   7.275 -0.3430  0.1881 -1.4040
28216SOL    HW190484   4.321   2.757   7.318 -0.6714 -0.1961 -1.0134
28216SOL    HW290485   4.294   2.613   7.283  0.6687 -0.6909 -0.0946
28217SOL     OW90486   3.603   9.720   4.929  0.0712  0.0179  0.1261
28217SOL    HW190487   3.660   9.646   4.952  0.1493  0.4802  1.4782
28217SOL    HW290488   3.531   9.715   4.992 -1.7085 -0.8536 -1.8443
28218SOL     OW90489   5.942   9.254   7.659  0.1387  0.6637 -0.3415
28218SOL    HW190490   5.941   9.287   7.749 -0.7629 -0.1392 -0.0451
28218SOL    HW290491   6.022   9.203   7.652 -1.5077 -2.3303  1.1691
28219SOL     OW90492   8.003  10.804   1.707 -0.2833 -0.6758 -0.1801
28219SOL    HW190493   7.982  10.711   1.717  1.6500 -1.3022 -1.4103
28219SOL    HW290494   7.926  10.841   1.663 -1.7734 -1.2902  1.7764
28220SOL     OW90495   1.546  10.104   3.668  0.4599  0.1281 -0.5204
28220SOL    HW190496   1.580  10.193   3.674  2.3567 -0.5231 -0.7943
28220SOL    HW290497   1.623  10.048   3.683 -0.7163 -1.4618 -0.1623
28221SOL     OW90498   9.697   3.820   9.433 -0.0272 -0.6606 -0.0208
28221SOL    HW190499   9.790   3.823   9.410  0.0302  0.2869  0.2943
28221SOL    HW290500   9.652   3.842   9.352  0.0750  0.1172  0.1301
28222SOL     OW90501   3.039   8.861   7.822 -0.3555  0.1722 -0.1537
28222SOL    HW190502   2.992   8.826   7.747 -2.3276 -0.6506  1.3794
28222SOL    HW290503   3.047   8.955   7.804  1.9467 -0.3759 -2.7197
28223SOL     OW90504   0.603   6.202   3.499 -0.4569 -0.2273  0.5543
28223SOL    HW190505   0.513   6.219   3.529 -0.2896  0.0738  0.8882
28223SOL    HW290506   0.609   6.106   3.495 -1.2149 -0.2516 -0.7664
28224SOL     OW90507   4.593  10.121   2.546  0.4519 -0.6192 -0.0675
28224SOL    HW190508   4.637  10.180   2.485 -0.0894 -0.1463 -0.0015
28224SOL    HW290509   4.653  10.047   2.554  0.4203 -0.8143 -1.3708
28225SOL     OW90510  10.581   3.544   3.163 -0.9954 -0.3360 -0.0243
28225SOL    HW190511  10.551   3.634   3.171  1.7435  0.5552  1.1918
28225SOL    HW290512  10.546   3.500   3.241 -1.2291  0.0074  0.0643
28226SOL     OW90513   4.036   2.151   6.769  0.1829 -0.0919  0.5214
28226SOL    HW190514   3.942   2.159   6.786  0.2266 -1.2197  1.4080
28226SOL    HW290515   4.075   2.136   6.855  1.1379 -0.0180  0.1137
28227SOL     OW90516   3.199  10.502   7.144 -0.0852 -0.3197  0.1681
28227SOL    HW190517   3.203  10.597   7.155 -0.6384 -0.1811 -0.7590
28227SOL    HW290518   3.138  10.473   7.211 -0.3609  0.0492  0.0812
28228SOL     OW90519   6.470   3.529   5.666  0.6345 -0.6202  0.1208
28228SOL    HW190520   6.450   3.547   5.758  1.8299 -0.9262  0.4520
28228SOL    HW290521   6.457   3.613   5.622  1.0546 -0.2131  0.7540
28229SOL     OW90522   8.870   7.778   6.891 -0.1264  0.1966  0.0382
28229SOL    HW190523   8.777   7.771   6.913 -0.0510 -2.2021 -0.1839
28229SOL    HW290524   8.911   7.813   6.971 -1.1882  1.3793  0.1046
28230SOL     OW90525   3.951   3.934   1.628 -0.1414 -1.1590  0.0797
28230SOL    HW190526   3.913   3.960   1.544  0.9449 -2.0835 -0.7349
28230SOL    HW290527   3.887   3.961   1.693 -1.1756 -0.7408 -1.0800
28231SOL     OW90528   8.190   8.282   9.839 -0.2731 -0.5941  0.1790
28231SOL    HW190529   8.130   8.279   9.913 -1.2506 -1.9566 -0.6221
28231SOL    HW290530   8.270   8.241   9.870 -0.8608 -1.6405  0.3387
28232SOL     OW90531   4.238   0.514   1.517  0.5042  0.4121  0.2603
28232SOL    HW190532   4.294   0.500   1.594  0.3277 -0.8945  0.1729
28232SOL    HW290533   4.298   0.510   1.443  0.1805 -2.8231  0.0100
28233SOL     OW90534   4.985   5.699   5.854 -0.1461  0.6632  0.3430
28233SOL    HW190535   5.065   5.649   5.865  0.5235  1.9258  1.4728
28233SOL    HW290536   4.955   5.718   5.943 -0.9524  1.3654 -0.0584
28234SOL     OW90537   7.296   3.187   8.479 -0.2553 -0.2408  0.2321
28234SOL    HW190538   7.258   3.270   8.451  1.7320  0.8636  0.6851
28234SOL    HW290539   7.323   3.145   8.397  0.8103  0.6239  0.1206
28235SOL     OW90540   3.165   3.223   9.635  0.1879 -0.2471  0.0992
28235SOL    HW190541   3.102   3.155   9.656 -0.4080  0.2165 -0.1517
28235SOL    HW290542   3.134   3.260   9.552  1.3199 -0.6404 -0.5239
28236SOL     OW90543   5.152   4.005   3.375  0.0544 -0.2448  0.5289
28236SOL    HW190544   5.163   4.023   3.468  0.5278 -0.4361  0.5112
28236SOL    HW290545   5.109   3.919   3.372 -0.2376 -0.1024  0.5725
28237SOL     OW90546   0.699   4.638  10.263 -0.3397  0.2224  0.4522
28237SOL    HW190547   0.720   4.728  10.238 -0.0081  0.1703  0.5434
28237SOL    HW290548   0.638   4.647  10.336  0.9063  0.3788  1.4973
28238SOL     OW90549   4.387   8.069   4.264  0.0526  0.0234  0.0029
28238SOL    HW190550   4.362   7.979   4.246  0.1530 -0.1453  0.6756
28238SOL    HW290551   4.314   8.105   4.314  1.1728 -0.5462  2.2059
28239SOL     OW90552   1.695  10.791   2.814  0.2283 -0.1474 -0.1430
28239SOL    HW190553   1.643  10.742   2.878 -0.3449 -1.5650 -1.6182
28239SOL    HW290554   1.765  10.831   2.865  0.8422 -2.6802  1.1610
28240SOL     OW90555   1.899   0.752   6.768 -0.5278 -0.1112  0.0386
28240SOL    HW190556   1.945   0.738   6.851  0.1375 -0.2254 -0.3414
28240SOL    HW290557   1.865   0.665   6.745 -0.8846 -0.0378  0.2937
28241SOL     OW90558   1.305  10.067   9.293 -0.5706  0.1580 -0.4508
28241SOL    HW190559   1.257  10.016   9.359  1.1680  0.6382  1.2815
28241SOL    HW290560   1.315  10.154   9.333  0.5271  0.4669 -1.3525
28242SOL     OW90561   8.527   1.318   4.650 -0.0121 -0.1662  0.1682
28242SOL    HW190562   8.444   1.293   4.609  0.3798  0.5716 -1.1330
28242SOL    HW290563   8.592   1.308   4.581  0.3086  3.5158 -0.2356
28243SOL     OW90564   7.628   2.321   6.883  0.1442  0.2747  0.1921
28243SOL    HW190565   7.624   2.227   6.862  1.3659  0.2084  0.1891
28243SOL    HW290566   7.629   2.364   6.798  1.8972  0.1554  0.1097
28244SOL     OW90567   7.528   5.639   8.786  0.0296  0.5061 -0.1219
28244SOL    HW190568   7.535   5.650   8.691  1.9007 -3.0433 -0.5864
28244SOL    HW290569   7.481   5.556   8.797 -0.7790  1.1804  2.1364
28245SOL     OW90570  10.369   8.197   3.345  0.2962  0.2881 -0.5603
28245SOL    HW190571  10.362   8.175   3.438  1.3791  1.6137 -0.1121
28245SOL    HW290572  10.454   8.163   3.319  0.0520  0.0368 -1.0344
28246SOL     OW90573   7.902   6.191   9.067  0.3630 -0.5632 -0.2290
28246SOL    HW190574   7.874   6.250   8.997  0.1502 -0.1678  0.1876
28246SOL    HW290575   7.991   6.165   9.042 -0.3455 -1.8745 -1.6000
28247SOL     OW90576   3.739   8.802  10.421  0.2723  0.0675  0.6032
28247SOL    HW190577   3.794   8.842  10.489 -0.0340  0.5156  0.5911
28247SOL    HW290578   3.792   8.729  10.388 -1.0405 -2.7704  4.0667
28248SOL     OW90579   0.842   1.284   4.933 -0.0709 -0.2686 -0.0013
28248SOL    HW190580   0.926   1.256   4.970 -1.1480 -2.2848  1.1264
28248SOL    HW290581   0.855   1.280   4.838  1.1234 -0.4727  0.1578
28249SOL     OW90582   2.394  10.024   9.078 -0.1513  0.0892  0.3855
28249SOL    HW190583   2.487  10.006   9.082  0.1409  1.3527 -0.1077
28249SOL    HW290584   2.380  10.093   9.143 -0.5363  0.6499 -0.2838
28250SOL     OW90585   3.597   6.829   5.192  0.1859 -0.6375  0.0260
28250SOL    HW190586   3.536   6.887   5.237 -0.0444 -0.0284 -1.0271
28250SOL    HW290587   3.613   6.758   5.253 -1.6170 -0.8379  0.3198
28251SOL     OW90588   4.947   2.731   8.771 -0.1781 -0.5497 -0.3949
28251SOL    HW190589   4.945   2.732   8.867  1.7627  0.1633 -0.3124
28251SOL    HW290590   4.933   2.823   8.746 -1.7154 -0.8841 -0.8712
28252SOL     OW90591   7.656   8.606   7.086  0.3001  0.0245  0.3766
28252SOL    HW190592   7.591   8.666   7.048 -0.3514  0.9157  2.7302
28252SOL    HW290593   7.620   8.519   7.070  0.1894  0.3169 -1.1917
28253SOL     OW90594  10.853   2.607   0.600 -0.2848 -0.1762 -0.4219
28253SOL    HW190595  10.919   2.652   0.652  0.3538 -1.5000 -0.0463
28253SOL    HW290596  10.820   2.538   0.657 -0.6343 -0.7224 -1.2545
28254SOL     OW90597   0.244   6.781   9.863  0.5251  0.3792  0.4277
28254SOL    HW190598   0.178   6.723   9.825 -0.0115  2.8775 -2.9066
28254SOL    HW290599   0.299   6.722   9.915 -1.6041 -2.5821 -0.3455
28255SOL     OW90600   0.067   0.490   6.552  0.3060  0.1698  0.1453
28255SOL    HW190601   0.162   0.483   6.542  0.3325  1.2771 -0.5518
28255SOL    HW290602   0.032   0.440   6.479  0.3754  0.5600 -0.1595
28256SOL     OW90603   0.398   1.986   7.238 -0.4952 -0.2222  0.2023
28256SOL    HW190604   0.370   2.065   7.285  1.9142  0.0637  1.2700
28256SOL    HW290605   0.347   1.916   7.279 -1.5728  0.5585  0.2673
28257SOL     OW90606   5.633   9.923   9.407 -0.4639  0.0607 -0.0027
28257SOL    HW190607   5.646  10.016   9.426 -1.4657  0.1350  0.4052
28257SOL    HW290608   5.598   9.888   9.489  0.2392 -0.7536 -0.0431
28258SOL     OW90609   5.049   0.473   2.459  0.1192 -0.2555  0.3107
28258SOL    HW190610   4.982   0.433   2.515 -0.0364  1.5846  1.5003
28258SOL    HW290611   5.132   0.442   2.494 -0.0200 -0.2256  0.6648
28259SOL     OW90612   1.539   4.085  10.212 -0.2046 -0.0810  0.3124
28259SOL    HW190613   1.500   4.058  10.296 -0.8473  0.0497  0.0639
28259SOL    HW290614   1.606   4.020  10.194 -2.1448 -1.9298 -0.5996
28260SOL     OW90615   4.919   5.808   1.485 -0.6475  0.0397  0.1148
28260SOL    HW190616   4.932   5.900   1.462  0.8195 -0.2180 -0.1934
28260SOL    HW290617   4.831   5.804   1.520 -1.5640  1.1819 -1.8732
28261SOL     OW90618   1.730   3.025   8.707  0.2379  0.3607  0.1704
28261SOL    HW190619   1.688   3.038   8.622  0.7183 -1.6768 -0.4279
28261SOL    HW290620   1.667   3.059   8.771 -1.0313  0.0203 -0.8681
28262SOL     OW90621  10.729   1.192   6.771 -0.4177  0.1723  0.0420
28262SOL    HW190622  10.768   1.186   6.683  1.6544  0.2991  0.8864
28262SOL    HW290623  10.685   1.277   6.771 -0.0988  0.3529 -0.7584
28263SOL     OW90624   9.604   0.601   2.299  0.8893  0.0978  0.5133
28263SOL    HW190625   9.576   0.519   2.259  2.0935  0.1814 -0.5498
28263SOL    HW290626   9.537   0.664   2.272  0.9212 -0.1547 -0.1762
28264SOL     OW90627   6.112   1.815   5.308  0.2844  0.7828  0.1376
28264SOL    HW190628   6.144   1.766   5.231  0.4050 -2.3575  2.0055
28264SOL    HW290629   6.191   1.849   5.349  0.6716 -0.9613  0.9438
28265SOL     OW90630   5.702   9.801   5.481  0.0964  0.0690  0.0844
28265SOL    HW190631   5.759   9.871   5.513 -0.2389  0.9433 -1.1439
28265SOL    HW290632   5.757   9.723   5.481  0.6807  0.4660  0.8532
28266SOL     OW90633   2.259   5.939   6.424 -0.4044 -0.1829 -0.1478
28266SOL    HW190634   2.297   5.880   6.489 -0.0538  0.0787 -0.1139
28266SOL    HW290635   2.219   6.009   6.475 -0.6896 -0.3134 -0.1926
28267SOL     OW90636   6.353   0.686   3.056  0.8575 -0.0413  0.0658
28267SOL    HW190637   6.397   0.665   3.138  2.1901 -0.3940 -0.6956
28267SOL    HW290638   6.404   0.639   2.989 -0.7565 -0.5475 -0.8675
28268SOL     OW90639   8.740   4.282   1.119 -0.1874 -0.3597  0.1463
28268SOL    HW190640   8.736   4.357   1.059  0.3350 -0.0285  0.5210
28268SOL    HW290641   8.748   4.206   1.061  0.3117 -0.0423 -0.2050
28269SOL     OW90642   6.215   5.259   3.314 -0.7134 -0.3137 -0.0421
28269SOL    HW190643   6.193   5.303   3.232  1.5868 -1.2579 -1.2405
28269SOL    HW290644   6.245   5.329   3.372 -1.3812  0.2299 -0.3427
28270SOL     OW90645   1.675   5.466  10.699 -0.1022  0.0051  0.1420
28270SOL    HW190646   1.756   5.416  10.709 -0.2093 -0.3031 -0.4517
28270SOL    HW290647   1.681   5.536  10.763  1.8602  1.5753 -1.6365
28271SOL     OW90648   5.450   5.446   9.961  0.0402 -0.2858 -0.1320
28271SOL    HW190649   5.464   5.442   9.866  0.1920 -1.9785 -0.0727
28271SOL    HW290650   5.364   5.405   9.974  0.9657 -2.1203  0.6041
28272SOL     OW90651  10.856   4.382   3.050  0.5484 -0.1127 -0.2767
28272SOL    HW190652  10.843   4.330   3.130 -1.6520  1.1215  0.2541
28272SOL    HW290653  10.811   4.332   2.982 -1.1377  0.7668  0.1354
28273SOL     OW90654   3.891   2.990   6.234 -0.3744 -0.1879 -0.1843
28273SOL    HW190655   3.835   3.010   6.310  1.9745 -1.2036  1.9769
28273SOL    HW290656   3.887   2.894   6.226  0.4767 -0.2145 -0.4274
28274SOL     OW90657   3.085   9.540   3.105 -0.0525  0.1473  0.3382
28274SOL    HW190658   3.050   9.455   3.134 -0.4313  0.2907  0.3174
28274SOL    HW290659   3.009   9.599   3.109 -0.2214  0.0946 -1.2844
28275SOL     OW90660   3.421   9.039   8.022 -0.1148 -0.0116 -0.0756
28275SOL    HW190661   3.504   9.004   8.054  0.0016 -0.5593 -0.9229
28275SOL    HW290662   3.389   8.972   7.961 -2.1335 -0.7109  1.6488
28276SOL     OW90663   2.363   7.792   8.222 -0.1356 -0.0657  0.1801
28276SOL    HW190664   2.400   7.878   8.243 -1.2968  0.7428 -0.9481
28276SOL    HW290665   2.294   7.779   8.287  0.8423 -0.7263  1.1155
28277SOL     OW90666   5.152   9.587   7.749  0.5951  0.0791 -0.0638
28277SOL    HW190667   5.229   9.595   7.806  0.1296 -0.6552  0.6875
28277SOL    HW290668   5.182   9.533   7.676  1.0010  0.4380 -0.1658
28278SOL     OW90669   1.841  10.183   8.260 -0.0310  0.1249 -0.5089
28278SOL    HW190670   1.772  10.220   8.315  0.5146 -0.1028  0.3521
28278SOL    HW290671   1.871  10.106   8.307 -0.5676 -0.9716 -1.8737
28279SOL     OW90672   3.837   5.610   7.436  0.2374 -0.2330  0.4589
28279SOL    HW190673   3.790   5.676   7.386  0.4478  2.1048  3.0650
28279SOL    HW290674   3.797   5.527   7.411 -2.4890  1.2280 -0.4151
28280SOL     OW90675   5.525   1.166   8.300  0.2002  0.0378  0.0040
28280SOL    HW190676   5.598   1.227   8.290  0.2417 -0.3350 -3.1478
28280SOL    HW290677   5.483   1.191   8.382  1.1500  3.2905 -0.3661
28281SOL     OW90678   8.937   6.705   0.484 -0.1782 -0.0462  0.1777
28281SOL    HW190679   8.880   6.753   0.544  0.4503 -0.5357  1.1956
28281SOL    HW290680   8.992   6.773   0.445 -0.1222  0.2089  0.6840
28282SOL     OW90681   4.115  10.121   7.870  0.6074  0.1130  0.6323
28282SOL    HW190682   4.145  10.030   7.865 -0.7014 -0.4992  2.5553
28282SOL    HW290683   4.058  10.133   7.794  0.8764 -0.6491  0.3104
28283SOL     OW90684   6.503   1.914   8.046 -0.2575 -0.9878 -0.1638
28283SOL    HW190685   6.436   1.893   7.981 -0.5763  0.4967 -0.3609
28283SOL    HW290686   6.462   1.894   8.130 -1.5009  1.0997 -0.1928
28284SOL     OW90687   4.933   4.796   0.005  0.0676 -0.1169  0.4437
28284SOL    HW190688   4.866   4.781  -0.062  0.3467 -1.1344  0.3653
28284SOL    HW290689   4.885   4.805   0.086 -0.2089 -0.1372  0.2833
28285SOL     OW90690   0.540   4.181   7.255 -0.0285 -0.1918  0.1666
28285SOL    HW190691   0.625   4.194   7.298  0.3355 -1.3843 -0.1675
28285SOL    HW290692   0.542   4.090   7.224 -0.2774  0.5942 -2.3747
28286SOL     OW90693   2.559   5.171   2.700 -0.3052 -0.7194  0.2165
28286SOL    HW190694   2.556   5.123   2.617  0.8473 -2.2287  0.9994
28286SOL    HW290695   2.467   5.178   2.726 -0.9061  1.4680 -2.0399
28287SOL     OW90696   9.158   2.572   4.311  0.0851  0.2081 -0.5329
28287SOL    HW190697   9.130   2.546   4.223 -0.6083 -1.2841  0.0929
28287SOL    HW290698   9.103   2.647   4.333  0.9664  1.2395 -1.7515
28288SOL     OW90699  10.722   0.921   6.194 -0.4960  0.7376 -0.3806
28288SOL    HW190700  10.786   0.979   6.154 -0.8616  0.5135 -1.3168
28288SOL    HW290701  10.644   0.976   6.206 -0.9389  0.4001 -1.5317
28289SOL     OW90702   5.737   8.216   6.264  0.5576  0.5512 -0.0218
28289SOL    HW190703   5.745   8.272   6.187  0.3755 -0.1031 -0.5283
28289SOL    HW290704   5.823   8.176   6.275  0.6067  0.7049  0.1672
28290SOL     OW90705   7.913  10.486   5.720  0.0339  0.1936 -0.2458
28290SOL    HW190706   7.866  10.442   5.790  0.8800  0.4818  0.5138
28290SOL    HW290707   7.901  10.580   5.738  2.1405  0.3054  0.8540
28291SOL     OW90708   6.187  10.398  10.606 -0.0871  0.1764 -0.6188
28291SOL    HW190709   6.222  10.372  10.691 -1.1248 -3.0912 -1.0450
28291SOL    HW290710   6.264  10.405  10.550  0.4403  0.3159  0.1089
28292SOL     OW90711   0.772   6.006   5.018  1.1969  0.1258 -0.0089
28292SOL    HW190712   0.729   5.929   5.055  0.7872  0.2258 -0.2645
28292SOL    HW290713   0.856   6.012   5.065  2.7328 -2.3426 -2.1681
28293SOL     OW90714  10.733  10.546   3.225  0.5732 -0.0470 -0.6958
28293SOL    HW190715  10.739  10.514   3.135  0.3677 -0.4197 -0.5803
28293SOL    HW290716  10.823  10.539   3.259  0.2639 -2.0804 -0.1517
28294SOL     OW90717   1.469   2.425  10.243 -0.0408 -0.2756 -0.5422
28294SOL    HW190718   1.483   2.501  10.186 -0.1744  1.5313  1.6905
28294SOL    HW290719   1.378   2.433  10.272  0.1012 -1.0035  0.1241
28295SOL     OW90720   4.597   0.938   8.731  0.0230 -0.3139  0.0030
28295SOL    HW190721   4.518   0.899   8.768  0.0942  0.3835  0.9365
28295SOL    HW290722   4.566   1.016   8.685 -0.2224 -1.7893 -2.5498
28296SOL     OW90723   5.351   1.781   4.152  0.1260  0.1512  0.0736
28296SOL    HW190724   5.297   1.843   4.103 -1.0628  0.3336  1.5503
28296SOL    HW290725   5.418   1.836   4.193  0.7971  0.0682 -0.8954
28297SOL     OW90726   1.892   6.651   7.579 -0.1700  0.2077  0.2886
28297SOL    HW190727   1.919   6.731   7.533 -1.6346  1.1050  0.9411
28297SOL    HW290728   1.956   6.641   7.649 -0.4489  1.2868  0.7126
28298SOL     OW90729   9.036   8.371   1.795  0.6092  0.0528 -0.3876
28298SOL    HW190730   8.998   8.441   1.848  0.6652 -0.1144 -0.1254
28298SOL    HW290731   9.061   8.414   1.713 -0.3168  0.1292 -0.6435
28299SOL     OW90732   1.477  10.063   9.044 -0.1949  0.5758 -0.8115
28299SOL    HW190733   1.501   9.970   9.049 -0.4718  0.5109 -0.6943
28299SOL    HW290734   1.428  10.079   9.124  0.4517  0.9956 -0.4900
28300SOL     OW90735   2.571   0.249   2.107  0.2222  0.2651  0.6696
28300SOL    HW190736   2.571   0.217   2.017 -2.4000  0.2445  0.5981
28300SOL    HW290737   2.598   0.341   2.101  0.7513  0.0655 -0.0310
28301SOL     OW90738   2.769   1.405   9.499 -0.1161 -0.1389  0.3159
28301SOL    HW190739   2.747   1.362   9.581  0.0054  1.2399  1.0945
28301SOL    HW290740   2.836   1.470   9.523 -0.1259  0.3279 -0.8567
28302SOL     OW90741   8.050   9.941   4.264  0.0710 -0.6373 -0.1056
28302SOL    HW190742   8.030   9.992   4.185 -0.6984 -0.5480  0.1430
28302SOL    HW290743   8.036   9.850   4.237  0.5303 -0.6596 -0.2793
28303SOL     OW90744   0.494   2.508   7.628 -0.5209 -0.1780 -0.3449
28303SOL    HW190745   0.475   2.557   7.708  0.6935 -1.6307  0.9047
28303SOL    HW290746   0.514   2.575   7.563 -0.0929  1.0157  0.9706
28304SOL     OW90747   1.303   0.752   7.769  0.3548 -0.4467 -0.6620
28304SOL    HW190748   1.390   0.749   7.728  0.2902 -2.5723 -0.7591
28304SOL    HW290749   1.248   0.698   7.712 -0.3352 -1.4609  0.9053
28305SOL     OW90750   0.992  10.553   8.091 -0.3208 -0.0504  0.4493
28305SOL    HW190751   1.035  10.544   8.177  1.7524 -0.4397 -0.5516
28305SOL    HW290752   1.011  10.644   8.066 -2.0799  0.4831  0.9473
28306SOL     OW90753   4.989   2.853   8.179 -0.1408 -0.2180 -0.0771
28306SOL    HW190754   4.985   2.802   8.098 -0.2774 -0.9308  0.3682
28306SOL    HW290755   4.900   2.852   8.213 -0.6119  2.0924 -1.1047
28307SOL     OW90756   5.978   9.250   8.595 -0.2274 -0.0904  0.6524
28307SOL    HW190757   5.996   9.162   8.562  0.1219  0.1506  0.1883
28307SOL    HW290758   6.029   9.256   8.676 -1.5524 -0.8951  1.5785
28308SOL     OW90759   2.123   9.863   7.441 -0.0642 -0.0737 -0.1554
28308SOL    HW190760   2.199   9.805   7.444 -0.1768 -0.1811  2.2852
28308SOL    HW290761   2.160   9.951   7.444 -0.0191 -0.0880 -0.2625
28309SOL     OW90762   8.525   4.100   6.052  0.1398 -0.0193  0.3870
28309SOL    HW190763   8.458   4.162   6.081  0.6536  0.1548  1.2345
28309SOL    HW290764   8.598   4.113   6.113  1.3090  0.4454 -1.0632
28310SOL     OW90765   0.052   0.465   3.507 -0.2040  0.5017  0.1098
28310SOL    HW190766   0.024   0.436   3.594  1.5653  1.8069  1.1866
28310SOL    HW290767   0.097   0.548   3.523  0.8115  0.4080 -1.9697
28311SOL     OW90768   4.588   2.530   4.956 -0.0427  0.1078 -0.4552
28311SOL    HW190769   4.682   2.522   4.940  0.0430 -1.2270  0.6265
28311SOL    HW290770   4.547   2.483   4.884  0.1495 -0.3253 -0.2801
28312SOL     OW90771   3.345   9.003   4.310 -0.4147 -0.1270 -0.1031
28312SOL    HW190772   3.312   9.015   4.222 -0.9284 -0.7640  0.0007
28312SOL    HW290773   3.399   8.924   4.305  3.2075  2.1293 -0.8546
28313SOL     OW90774   0.900   4.923   2.061 -0.0869  0.2493  0.1750
28313SOL    HW190775   0.933   4.981   2.130  0.4178 -1.5157  1.5002
28313SOL    HW290776   0.977   4.900   2.010 -0.3157  0.8399 -0.4588
28314SOL     OW90777   7.526   9.809   7.004  0.2324  0.7669 -0.2520
28314SOL    HW190778   7.543   9.715   6.997  0.4779  0.8800 -1.2217
28314SOL    HW290779   7.469   9.829   6.930  0.0513  1.3633  0.0383
28315SOL     OW90780   1.862   0.500   4.933 -0.4056 -0.3323 -0.5734
28315SOL    HW190781   1.909   0.493   5.016 -0.5999 -1.1453 -0.5205
28315SOL    HW290782   1.802   0.574   4.946 -0.7797 -0.7490  0.1935
28316SOL     OW90783   9.289   1.425   2.759 -0.2914 -0.4602 -0.1370
28316SOL    HW190784   9.223   1.361   2.730 -1.1720  1.0946 -1.7425
28316SOL    HW290785   9.373   1.384   2.738 -0.8332 -1.1056 -1.1365
28317SOL     OW90786  10.361   4.246   1.121  0.2125 -0.1251 -0.3388
28317SOL    HW190787  10.454   4.270   1.123  0.4790 -1.1201  0.8519
28317SOL    HW290788  10.324   4.288   1.199  0.6054 -3.0199  1.5755
28318SOL     OW90789   1.249   5.855   2.389  0.3217 -0.5353  0.2093
28318SOL    HW190790   1.164   5.894   2.368 -0.4454 -2.3892 -0.3722
28318SOL    HW290791   1.260   5.870   2.483 -1.2924 -1.4171  0.5746
28319SOL     OW90792   8.305   1.268   4.166 -0.3241 -0.0990 -0.1267
28319SOL    HW190793   8.270   1.261   4.255 -1.1308  0.7827 -0.3569
28319SOL    HW290794   8.314   1.363   4.151 -0.0425 -0.2425 -0.9311
28320SOL     OW90795   6.570   5.925   0.698 -0.3390 -0.1805  0.4612
28320SOL    HW190796   6.563   5.959   0.787 -0.4580 -0.4396  0.5527
28320SOL    HW290797   6.506   5.975   0.647 -0.0110  0.2268  0.4373
28321SOL     OW90798  10.918   4.696   9.239  0.4400 -0.1290 -0.4197
28321SOL    HW190799  10.884   4.785   9.227 -0.9468 -0.5461  0.2413
28321SOL    HW290800  11.010   4.702   9.212  0.4259  1.5447 -0.2256
28322SOL     OW90801   1.632   5.237   3.907  0.1439  0.0992 -0.4704
28322SOL    HW190802   1.613   5.150   3.940  1.7846  0.2665  1.0925
28322SOL    HW290803   1.622   5.294   3.984 -0.5513  1.2498 -1.3802
28323SOL     OW90804   2.093   4.063   3.264 -0.2563  0.0442  0.1848
28323SOL    HW190805   2.014   4.116   3.272 -0.2563 -0.0011  0.4844
28323SOL    HW290806   2.164   4.119   3.295 -0.5103 -0.7840  2.4500
28324SOL     OW90807   6.106   5.104   9.791 -0.0708 -0.0575 -0.3655
28324SOL    HW190808   6.024   5.056   9.799  0.4963 -0.7814  1.5213
28324SOL    HW290809   6.169   5.054   9.842  1.0122  1.6784  0.1036
28325SOL     OW90810   1.655   8.378  10.291 -0.1864 -1.1082 -0.5791
28325SOL    HW190811   1.708   8.409  10.365  0.9804  0.7256 -2.0903
28325SOL    HW290812   1.696   8.294  10.267  1.5122 -0.1750 -1.1267
28326SOL     OW90813   7.375   9.840   7.789 -0.3952 -0.1952 -0.0774
28326SOL    HW190814   7.337   9.805   7.709  0.2290  2.4893 -1.6888
28326SOL    HW290815   7.300   9.865   7.842 -0.8671  0.4778 -1.0403
28327SOL     OW90816   0.669   1.882   5.404 -0.3775  0.5329  0.3247
28327SOL    HW190817   0.668   1.791   5.374  0.6549  1.3697 -2.4760
28327SOL    HW290818   0.733   1.883   5.474 -0.6742 -0.9426  0.6630
28328SOL     OW90819   0.875   9.518   0.434 -0.0848  0.2689 -0.5076
28328SOL    HW190820   0.792   9.548   0.471  0.4941  0.4575  0.6784
28328SOL    HW290821   0.936   9.517   0.508  1.0319  0.3345 -1.3962
28329SOL     OW90822   3.551   1.934   5.479  0.1928  0.5588  0.7662
28329SOL    HW190823   3.627   1.991   5.469  0.1362  0.8097  1.6758
28329SOL    HW290824   3.489   1.985   5.531 -0.7163  0.4544 -0.1833
28330SOL     OW90825   9.070   4.774   5.931 -0.1915  0.0774 -0.2704
28330SOL    HW190826   9.100   4.685   5.952  0.5419 -0.3845 -2.8859
28330SOL    HW290827   8.974   4.769   5.937 -0.2286 -1.2449 -1.4580
28331SOL     OW90828   9.411   0.404   8.579  0.4155  0.1260 -0.5145
28331SOL    HW190829   9.330   0.388   8.530 -0.9667  1.2998  1.2705
28331SOL    HW290830   9.389   0.473   8.640  2.3583 -0.5674  1.0770
28332SOL     OW90831   8.849   3.157   7.267  0.2622  0.1540  0.2639
28332SOL    HW190832   8.846   3.253   7.261 -1.2568  0.0893 -0.4248
28332SOL    HW290833   8.788   3.126   7.200 -3.3807 -1.1041  3.7180
28333SOL     OW90834   0.538  10.213   8.170 -0.5890 -0.0981 -0.0161
28333SOL    HW190835   0.455  10.173   8.144 -0.6279 -0.2558  0.3346
28333SOL    HW290836   0.603  10.144   8.157 -0.3640  0.3017 -1.1324
28334SOL     OW90837   5.273  10.712  10.855 -0.2880 -0.6284  0.0786
28334SOL    HW190838   5.289  10.741  10.945  1.1409 -0.0402 -0.3244
28334SOL    HW290839   5.349  10.745  10.806 -0.7101 -1.4982 -1.2130
28335SOL     OW90840   5.636   8.130   2.227 -0.6987  0.2005  0.2421
28335SOL    HW190841   5.645   8.222   2.203  1.1861 -0.0630 -0.2213
28335SOL    HW290842   5.663   8.082   2.149 -0.5401 -0.7192  0.8471
28336SOL     OW90843   7.262   1.283   5.952  0.5290  0.6390 -0.0938
28336SOL    HW190844   7.181   1.267   5.905  0.1003  0.9222  0.5343
28336SOL    HW290845   7.242   1.356   6.011  1.1858  0.6022  0.1898
28337SOL     OW90846   6.752   8.459   9.239 -0.2756  0.3921  0.2232
28337SOL    HW190847   6.752   8.430   9.148  0.2188 -0.5579  0.5138
28337SOL    HW290848   6.681   8.409   9.280 -0.7384  1.0880  0.2800
28338SOL     OW90849   1.783  10.605   8.832  0.4963  0.1775  0.5252
28338SOL    HW190850   1.796  10.532   8.892 -0.0592 -1.0194 -0.7501
28338SOL    HW290851   1.745  10.674   8.886 -1.0608 -1.2520  1.3371
28339SOL     OW90852   2.355   0.545   5.387 -0.3711 -0.1629 -0.3462
28339SOL    HW190853   2.262   0.564   5.398 -0.3406  1.7942 -2.5862
28339SOL    HW290854   2.400   0.612   5.438 -0.0757 -1.8309  1.7466
28340SOL     OW90855   3.406   7.531   9.335 -0.6672  0.0659  0.4707
28340SOL    HW190856   3.359   7.562   9.257 -0.1340  1.7151  0.7496
28340SOL    HW290857   3.344   7.546   9.407  0.0075  1.6593  0.7583
28341SOL     OW90858   7.902   0.584   4.478 -1.1106 -0.8653  0.3313
28341SOL    HW190859   7.884   0.546   4.564  1.3823 -0.8581  0.9273
28341SOL    HW290860   7.997   0.593   4.475 -1.1660 -0.3259 -2.2159
28342SOL     OW90861   6.447   6.132   2.603  0.2677  0.0799 -0.4035
28342SOL    HW190862   6.465   6.041   2.581  4.0968  0.3472  0.9307
28342SOL    HW290863   6.431   6.131   2.697  0.1113  0.7797 -0.4163
28343SOL     OW90864   1.440   1.391   6.202  0.2649  0.0597 -0.2651
28343SOL    HW190865   1.348   1.371   6.186 -0.3679  1.1233  1.7250
28343SOL    HW290866   1.451   1.480   6.169 -0.0569  0.7992  1.5188
28344SOL     OW90867  10.791   6.473   9.640  0.2936  0.1307  0.2917
28344SOL    HW190868  10.865   6.426   9.601 -0.1102  1.1479 -1.8849
28344SOL    HW290869  10.716   6.414   9.628  0.4887 -0.3581  1.3356
28345SOL     OW90870   3.886   8.577  10.301  0.3995  0.3445  0.3592
28345SOL    HW190871   3.891   8.503  10.362 -1.5637  0.0457  0.2191
28345SOL    HW290872   3.971   8.577  10.257  1.2210 -0.5032  1.8522
28346SOL     OW90873   0.710   5.724   8.835 -0.1564  0.4631  0.1745
28346SOL    HW190874   0.656   5.652   8.801  0.0493  0.7850 -0.8653
28346SOL    HW290875   0.685   5.800   8.782  2.1251  0.3746 -1.1739
28347SOL     OW90876   6.082   3.294   6.002  0.0230  0.2956  1.3385
28347SOL    HW190877   6.017   3.358   6.031  0.1784  0.9590  0.2996
28347SOL    HW290878   6.162   3.319   6.047 -0.4823 -0.7326  2.8930
28348SOL     OW90879   2.538   7.813   3.036  1.1480 -0.6876  0.1043
28348SOL    HW190880   2.543   7.819   2.941  0.2467 -0.2174  0.0757
28348SOL    HW290881   2.604   7.874   3.068  0.4147  0.2951 -0.2236
28349SOL     OW90882   2.437   3.053   7.018 -0.1923 -0.3259 -0.9120
28349SOL    HW190883   2.398   2.983   6.965  0.1874 -0.5774 -0.8620
28349SOL    HW290884   2.440   3.128   6.959 -1.2132 -0.1564 -0.7624
28350SOL     OW90885   3.983   5.364   2.367  0.6998  0.3437  0.0577
28350SOL    HW190886   4.053   5.411   2.412  0.8690 -0.7312  0.9666
28350SOL    HW290887   3.946   5.306   2.434  1.0681 -1.4435 -1.2128
28351SOL     OW90888   6.976   9.126   9.560 -0.2560 -0.5623  0.3153
28351SOL    HW190889   7.043   9.158   9.500 -0.3487 -1.2121 -0.1534
28351SOL    HW290890   6.999   9.163   9.645  0.4896 -0.4881  0.0872
28352SOL     OW90891   6.058   9.003   8.543  0.1025  0.9341 -0.1141
28352SOL    HW190892   6.015   8.918   8.552  0.1829  0.8862 -0.1885
28352SOL    HW290893   6.100   9.000   8.458 -0.4140  1.2848 -0.3860
28353SOL     OW90894   9.103  10.073   6.828  0.0682  0.2891  0.0552
28353SOL    HW190895   9.183  10.112   6.794  0.3991 -0.3621  0.0783
28353SOL    HW290896   9.129   9.987   6.859 -0.5781  0.1976  0.3611
28354SOL     OW90897   8.890   7.149   9.923 -0.2764 -0.0412  0.3761
28354SOL    HW190898   8.917   7.109  10.006  1.8804  0.6423  0.0673
28354SOL    HW290899   8.894   7.243   9.941  2.4137  0.2065 -1.0465
28355SOL     OW90900   5.784   8.496   4.549 -0.0621 -0.1178 -0.5255
28355SOL    HW190901   5.837   8.575   4.561 -1.2636  0.8901 -1.5186
28355SOL    HW290902   5.723   8.497   4.622  0.2085 -0.3820 -0.2929
28356SOL     OW90903   2.880   3.411   5.495 -0.5602 -0.4214  0.1516
28356SOL    HW190904   2.950   3.439   5.436 -0.7325  0.0397  0.1663
28356SOL    HW290905   2.844   3.492   5.531 -2.1956 -0.5285 -1.0995
28357SOL     OW90906   1.522   8.733   7.804  0.3156 -0.0308  0.0566
28357SOL    HW190907   1.510   8.729   7.709 -1.4542  0.2011  0.2270
28357SOL    HW290908   1.439   8.769   7.836  0.8662 -0.1786  1.6930
28358SOL     OW90909   2.686   2.423   5.779 -0.5456 -0.3971 -0.0386
28358SOL    HW190910   2.763   2.475   5.753 -1.5693  0.5275 -1.3588
28358SOL    HW290911   2.647   2.395   5.697 -0.8902 -2.0285  0.6347
28359SOL     OW90912   2.829   4.285   9.920  0.4627 -0.2795  0.2290
28359SOL    HW190913   2.903   4.237   9.884 -0.7915 -1.1971 -1.2554
28359SOL    HW290914   2.783   4.222   9.975 -0.5803 -0.4932 -0.8500
28360SOL     OW90915   7.668   8.973   8.469 -0.3643 -0.0306  0.3285
28360SOL    HW190916   7.712   8.891   8.447 -3.0046 -1.3533 -0.3540
28360SOL    HW290917   7.644   9.012   8.385 -1.6101 -0.0155  0.6635
28361SOL     OW90918   7.385   5.252   0.585  0.3376 -0.3685  0.3873
28361SOL    HW190919   7.451   5.282   0.647  0.1431  0.3798  0.2368
28361SOL    HW290920   7.319   5.208   0.638  0.6235 -0.5250  0.6108
28362SOL     OW90921   3.900   3.821   5.842  0.0691  0.1619 -0.1114
28362SOL    HW190922   3.987   3.861   5.842 -0.4458  1.3048  0.3405
28362SOL    HW290923   3.840   3.894   5.832 -0.8368 -0.6797 -1.0014
28363SOL     OW90924   0.159   9.772   7.935  0.1579 -0.1011 -0.0148
28363SOL    HW190925   0.205   9.850   7.905 -0.1020 -0.0048 -0.1637
28363SOL    HW290926   0.069   9.802   7.951 -0.0300 -0.4479 -0.4108
28364SOL     OW90927   8.921   2.588   2.822 -0.8728 -0.0596 -0.3391
28364SOL    HW190928   8.965   2.660   2.869  0.4134 -1.5008  0.7870
28364SOL    HW290929   8.987   2.557   2.760 -0.8993 -1.1416  0.1573
28365SOL     OW90930   0.876   6.054   2.908  0.4489  0.1631 -0.3354
28365SOL    HW190931   0.845   6.078   2.821  0.1897 -2.2286 -0.9671
28365SOL    HW290932   0.797   6.033   2.957  0.7385 -0.8598 -0.2971
28366SOL     OW90933   0.024   9.409   4.505 -0.5461 -0.2611  0.2721
28366SOL    HW190934  -0.010   9.475   4.565  0.7138  0.9222 -0.2473
28366SOL    HW290935  -0.053   9.376   4.460 -1.2591  0.5902  0.8238
28367SOL     OW90936   0.862   2.496   4.880 -0.2543  0.5092 -0.0973
28367SOL    HW190937   0.835   2.580   4.843  0.8475  0.0444 -2.1302
28367SOL    HW290938   0.798   2.434   4.847 -1.3350  0.5620  1.7757
28368SOL     OW90939   9.497   3.276   6.684  0.0093  0.1925 -0.6612
28368SOL    HW190940   9.553   3.329   6.627  0.2848 -0.7779 -1.3263
28368SOL    HW290941   9.465   3.337   6.750  0.3183  1.1818 -1.3965
28369SOL     OW90942   8.145   1.750   6.783  0.1891  0.2631  0.8945
28369SOL    HW190943   8.217   1.792   6.737 -0.4963  0.9481  0.4304
28369SOL    HW290944   8.186   1.706   6.858  0.8903  2.1288  1.6544
28370SOL     OW90945   7.872   3.912   7.558 -0.2664  0.0848 -0.9126
28370SOL    HW190946   7.868   4.005   7.578 -0.0654 -0.1165  0.1084
28370SOL    HW290947   7.938   3.877   7.619  0.0297 -0.6358 -1.6241
28371SOL     OW90948   7.605  10.452   9.434  0.5560  0.2641 -0.4794
28371SOL    HW190949   7.701  10.449   9.432  0.5892 -1.4364  0.9374
28371SOL    HW290950   7.578  10.397   9.361  0.7017 -0.4345 -0.0201
28372SOL     OW90951   0.789   4.348   0.011 -0.0662 -0.1014  0.5382
28372SOL    HW190952   0.793   4.253   0.009  1.9249 -0.1138  2.1168
28372SOL    HW290953   0.828   4.376  -0.072  3.9430 -0.7202  2.0120
28373SOL     OW90954   2.223  10.146   8.901 -0.1859  0.1724 -0.4131
28373SOL    HW190955   2.138  10.158   8.943 -0.3526  1.8247 -1.1276
28373SOL    HW290956   2.272  10.088   8.960 -1.3227  0.2868  0.6808
28374SOL     OW90957   4.078   6.383   0.086 -0.4155  0.2770  0.2767
28374SOL    HW190958   4.039   6.412   0.169 -0.7203 -0.4329  0.3963
28374SOL    HW290959   4.143   6.317   0.113 -1.6150 -1.1264 -0.1113
28375SOL     OW90960   5.019  10.736   2.014  0.0376 -0.5200  0.5665
28375SOL    HW190961   5.098  10.703   2.056 -0.1283 -2.7591 -0.7423
28375SOL    HW290962   4.968  10.658   1.993 -0.8723  0.5945 -1.8208
28376SOL     OW90963   4.265   7.044   3.591  0.4721 -0.3769 -0.1519
28376SOL    HW190964   4.184   7.055   3.541 -0.0480 -0.4890  0.6671
28376SOL    HW290965   4.334   7.064   3.527 -0.2033  0.1118 -0.7522
28377SOL     OW90966   4.487   5.668   9.064  0.0415 -0.1633 -0.3105
28377SOL    HW190967   4.547   5.605   9.103  1.2005  1.0513 -0.0638
28377SOL    HW290968   4.463   5.726   9.136 -2.4581 -1.3359 -0.1055
28378SOL     OW90969   7.195   6.267   0.325  0.2590  0.0753 -0.1619
28378SOL    HW190970   7.163   6.183   0.356 -1.0934 -0.1212 -1.9434
28378SOL    HW290971   7.228   6.250   0.236  1.9358  1.0324  0.2169
28379SOL     OW90972   8.187   2.006   2.084  0.2318 -0.4853 -0.0509
28379SOL    HW190973   8.166   1.913   2.068 -1.4883 -0.5447  2.0960
28379SOL    HW290974   8.102   2.050   2.084  0.9725  1.0083 -0.3949
28380SOL     OW90975   9.901   5.121  10.009 -0.1252  0.3227  0.7546
28380SOL    HW190976   9.894   5.118   9.913  0.5057  2.3220  0.5852
28380SOL    HW290977   9.824   5.074  10.040 -0.7777  0.3252 -0.7527
28381SOL     OW90978   8.576   9.842   0.681  1.2955  0.2557  0.1640
28381SOL    HW190979   8.580   9.874   0.591  1.1892 -1.0677 -0.3373
28381SOL    HW290980   8.661   9.863   0.719  1.2430  1.0643 -0.1415
28382SOL     OW90981   6.555   0.021  10.527  0.3537 -0.0710 -0.0852
28382SOL    HW190982   6.544   0.021  10.622  0.1319  0.7702 -0.1074
28382SOL    HW290983   6.600  -0.062  10.508  0.7273 -0.0732  0.7889
28383SOL     OW90984   9.655   0.260   9.470 -0.5414  0.4500 -0.3058
28383SOL    HW190985   9.683   0.185   9.523  0.9721  2.0016  1.2554
28383SOL    HW290986   9.561   0.248   9.457 -0.5015 -1.2048  0.7408
28384SOL     OW90987   9.095   8.872   7.477  0.3600  0.2367  0.6092
28384SOL    HW190988   9.117   8.781   7.501  0.8682  0.0523 -0.4880
28384SOL    HW290989   9.149   8.925   7.536  0.7310 -0.1835  0.6635
28385SOL     OW90990   0.556   3.630   1.263  0.3894 -0.2435 -0.0908
28385SOL    HW190991   0.614   3.600   1.333  0.7807 -0.7774 -0.6304
28385SOL    HW290992   0.536   3.551   1.213  0.0407  0.1128 -0.5264
28386SOL     OW90993   0.227   0.857  10.830 -0.3456 -0.5115  0.0902
28386SOL    HW190994   0.248   0.950  10.819  1.6920 -0.9010  0.3689
28386SOL    HW290995   0.232   0.820  10.742  0.5358 -0.6811  0.2120
28387SOL     OW90996   8.939   7.021   4.320  0.9968  0.2743  0.0822
28387SOL    HW190997   8.864   7.066   4.282 -1.6048 -2.9446  0.8884
28387SOL    HW290998   8.938   7.045   4.413  0.8456  0.1074  0.1246
28388SOL     OW90999   2.833   8.901   4.633  0.0156 -0.6543 -0.2826
28388SOL    HW191000   2.922   8.934   4.649 -0.3387 -0.6279  1.9232
28388SOL    HW291001   2.841   8.806   4.640  0.1106 -0.7619 -1.5927
28389SOL     OW91002   4.095   4.051   3.627 -0.2892  0.2365  0.0657
28389SOL    HW191003   4.078   4.133   3.674 -0.3241  0.8633 -1.0112
28389SOL    HW291004   4.074   4.070   3.536  1.0438 -0.5555 -0.4474
28390SOL     OW91005   4.192   7.333   3.613 -0.1159 -0.2293 -0.4545
28390SOL    HW191006   4.255   7.325   3.541 -0.9300  1.2586 -1.3874
28390SOL    HW291007   4.124   7.268   3.593  0.1957 -0.5586 -0.4448
28391SOL     OW91008   6.603   2.129  10.365 -0.3985 -0.3827  0.4106
28391SOL    HW191009   6.586   2.042  10.399 -1.0026 -0.5086 -0.1789
28391SOL    HW291010   6.612   2.184  10.442 -2.4477 -0.5243  0.8136
28392SOL     OW91011   0.866  10.518   7.841  0.2686  0.6461 -0.1611
28392SOL    HW191012   0.818  10.602   7.839  0.9383  1.0237 -0.6690
28392SOL    HW291013   0.943  10.537   7.894 -0.3070 -0.0637  0.9680
28393SOL     OW91014   5.381   2.409   8.789  0.0495 -0.0263  0.5579
28393SOL    HW191015   5.314   2.385   8.725  1.0116 -0.1060 -0.4519
28393SOL    HW291016   5.415   2.493   8.757  1.5563 -0.7674  0.1106
28394SOL     OW91017   8.855   5.415   8.555  0.0490  0.0201 -0.4988
28394SOL    HW191018   8.925   5.479   8.543  0.2817 -0.1013  0.2073
28394SOL    HW291019   8.899   5.333   8.576 -0.2384 -0.4418 -1.5976
28395SOL     OW91020   1.736   2.645   9.305  0.1213  0.5611 -0.0541
28395SOL    HW191021   1.778   2.714   9.253  0.7391  0.3502  0.1584
28395SOL    HW291022   1.805   2.582   9.323 -0.3860 -0.0126 -0.0568
28396SOL     OW91023   1.430   3.926   2.919  0.3032 -0.0166 -0.2748
28396SOL    HW191024   1.365   3.890   2.858  0.9460 -1.5927 -0.0534
28396SOL    HW291025   1.508   3.940   2.865 -0.0699  1.5389 -0.4600
28397SOL     OW91026   8.228   5.819  10.212  0.2542 -0.0199 -0.8408
28397SOL    HW191027   8.162   5.773  10.263  0.9443 -0.0600  0.0276
28397SOL    HW291028   8.275   5.750  10.165  2.0368 -0.3665  1.3331
28398SOL     OW91029   6.462   9.152   8.923  0.3757 -0.6022 -0.0095
28398SOL    HW191030   6.527   9.119   8.861  2.1453 -1.0632  1.9856
28398SOL    HW291031   6.508   9.221   8.971 -0.9021 -0.3289  0.8725
28399SOL     OW91032   2.195  10.830   4.768 -0.5950  0.3125  0.3476
28399SOL    HW191033   2.291  10.822   4.767 -0.5561  0.7222 -0.9246
28399SOL    HW291034   2.165  10.772   4.697 -1.4090 -0.8912  1.6275
28400SOL     OW91035   6.693   3.186   0.334  0.0304  0.4025 -0.4540
28400SOL    HW191036   6.691   3.194   0.429  0.9730 -1.2035 -0.2531
28400SOL    HW291037   6.602   3.170   0.309 -0.3066  1.3938  0.1078
28401SOL     OW91038   4.103   6.067   9.725 -0.7331  0.6759 -0.6021
28401SOL    HW191039   4.043   6.064   9.651  0.0725  1.0923 -1.2825
28401SOL    HW291040   4.055   6.023   9.796 -0.8036 -1.4068 -1.8684
28402SOL     OW91041   6.773   3.268   8.681 -0.5907  1.0803 -0.2654
28402SOL    HW191042   6.762   3.175   8.700  0.6402  0.8261 -0.7027
28402SOL    HW291043   6.734   3.313   8.756 -0.9485  0.2058  0.0802
28403SOL     OW91044   1.471   0.459   9.006 -0.5055  0.1832 -0.2867
28403SOL    HW191045   1.556   0.473   8.964 -0.1685 -0.1032  0.2890
28403SOL    HW291046   1.470   0.365   9.026  0.1851  0.6175  2.1222
28404SOL     OW91047   0.647   7.518   2.543 -0.5138 -0.1272 -0.3314
28404SOL    HW191048   0.633   7.501   2.450 -1.0426  0.0986 -0.2968
28404SOL    HW291049   0.657   7.613   2.549  0.9009 -0.2468 -0.3249
28405SOL     OW91050   5.785   3.717   3.757  0.4257 -0.3635  0.4851
28405SOL    HW191051   5.873   3.755   3.759  0.6243 -0.8152  0.5877
28405SOL    HW291052   5.728   3.788   3.786  0.5926  0.3563 -0.8537
28406SOL     OW91053   7.085   5.959  10.806  0.2287 -0.2930 -0.0244
28406SOL    HW191054   7.146   5.909  10.753 -1.1655  1.1190 -3.2058
28406SOL    HW291055   7.028   5.894  10.846  2.1113 -1.4659  0.8880
28407SOL     OW91056   6.776   6.173   4.365 -0.5966 -0.0038  0.1390
28407SOL    HW191057   6.710   6.226   4.320  0.0125 -0.4765 -1.3884
28407SOL    HW291058   6.844   6.235   4.390 -1.1815  0.3430  0.8755
28408SOL     OW91059  10.383   0.765   8.282 -0.1378  0.0007  0.7169
28408SOL    HW191060  10.461   0.768   8.337  0.3893  0.0858 -0.0174
28408SOL    HW291061  10.366   0.856   8.260  0.8016 -0.1669 -0.8216
28409SOL     OW91062   8.502   0.628   6.991 -0.0833  0.4976 -0.0818
28409SOL    HW191063   8.502   0.689   6.916 -1.5406 -0.3149 -0.7841
28409SOL    HW291064   8.512   0.542   6.951 -0.2887  0.1009  0.7142
28410SOL     OW91065   3.928   9.375   6.125  0.1405  0.3761  0.3031
28410SOL    HW191066   3.850   9.321   6.127  0.8212 -0.6631 -0.3187
28410SOL    HW291067   3.910   9.446   6.187 -1.1547 -0.0104  0.3967
28411SOL     OW91068  10.658  10.226   4.825 -0.5031  0.3421 -0.3751
28411SOL    HW191069  10.613  10.305   4.856 -2.0424 -0.5510 -0.2200
28411SOL    HW291070  10.614  10.205   4.742  1.3970  0.8807 -1.5640
28412SOL     OW91071   0.888   5.830   2.545  0.0968  0.1933  0.6298
28412SOL    HW191072   0.931   5.894   2.489 -0.2536  0.0495  0.1868
28412SOL    HW291073   0.813   5.877   2.583 -1.3158 -0.4360 -1.1959
28413SOL     OW91074   2.920   1.108   8.834  0.3858  0.1454 -0.0426
28413SOL    HW191075   2.837   1.075   8.870  1.3826 -1.7281  0.6639
28413SOL    HW291076   2.940   1.184   8.888  0.3477 -0.8615  1.4558
28414SOL     OW91077   8.533   3.986   6.507  0.1757  0.2591  0.1077
28414SOL    HW191078   8.471   3.940   6.449 -0.7491  0.9078  0.5615
28414SOL    HW291079   8.558   3.920   6.572 -0.9923  0.3139  0.6412
28415SOL     OW91080   0.890   2.010   7.473 -0.1076 -0.4522 -0.1317
28415SOL    HW191081   0.927   2.042   7.391  0.5241  3.1792  1.3645
28415SOL    HW291082   0.808   1.969   7.448  0.9613 -1.2101 -2.7141
28416SOL     OW91083   9.278   4.250   7.006 -0.1271  0.4872  0.5839
28416SOL    HW191084   9.295   4.267   6.913 -0.6984  0.3795  0.4531
28416SOL    HW291085   9.251   4.335   7.041  0.6094  0.6498  0.7824
28417SOL     OW91086   7.707   3.677   8.638  0.0947  0.0355 -0.5092
28417SOL    HW191087   7.768   3.604   8.633 -0.5039 -0.5943  0.7492
28417SOL    HW291088   7.628   3.645   8.595 -0.1831 -0.0946  0.0800
28418SOL     OW91089   5.695   0.144   8.814  0.1308 -0.4354  0.7738
28418SOL    HW191090   5.759   0.199   8.768 -1.2704  0.2701 -0.4040
28418SOL    HW291091   5.698   0.060   8.768  0.1964 -0.3932  0.7008
28419SOL     OW91092   0.040   5.665   0.137  0.0882 -0.0450  0.3529
28419SOL    HW191093   0.112   5.606   0.116  1.6071  2.0920 -0.7883
28419SOL    HW291094   0.073   5.718   0.210 -0.1529  1.2010 -0.4182
28420SOL     OW91095   8.454   3.298   3.461 -0.3831  0.1169 -0.4299
28420SOL    HW191096   8.454   3.259   3.374 -1.9336 -0.7946 -0.0601
28420SOL    HW291097   8.438   3.391   3.445  1.9094  0.4330 -1.2333
28421SOL     OW91098   9.163   8.523   7.251  0.1514  0.2603 -0.2030
28421SOL    HW191099   9.178   8.451   7.313  0.2313  0.5381  0.1012
28421SOL    HW291100   9.250   8.550   7.223  0.1556  0.7322  0.2538
28422SOL     OW91101   4.021   8.777   9.259  0.5299  0.9879 -0.2628
28422SOL    HW191102   3.945   8.734   9.299  0.3411  0.3334 -1.2919
28422SOL    HW291103   3.982   8.844   9.203  0.8292  3.1706  1.9489
28423SOL     OW91104   9.342  10.352   7.385 -0.2772  0.5067  0.3580
28423SOL    HW191105   9.402  10.425   7.369  0.6186  0.3746  2.7060
28423SOL    HW291106   9.385  10.300   7.453 -2.0479 -0.8296  0.5342
28424SOL     OW91107   3.236   9.766  10.438 -0.4434  0.0393  0.3822
28424SOL    HW191108   3.289   9.692  10.467 -0.1465  0.2771  0.4474
28424SOL    HW291109   3.297   9.840  10.435 -0.6604  0.2009 -0.0295
28425SOL     OW91110   9.754   4.928   0.572 -0.0009 -0.2235  0.4782
28425SOL    HW191111   9.665   4.964   0.571  0.8487  2.1056  1.4873
28425SOL    HW291112   9.776   4.918   0.480 -1.8513 -2.4493  0.1957
28426SOL     OW91113   4.197   7.281   8.808  0.0218 -0.2730  0.3470
28426SOL    HW191114   4.288   7.252   8.808  0.5901  1.3518  0.4559
28426SOL    HW291115   4.172   7.283   8.716 -0.0240 -1.0538  0.3395
28427SOL     OW91116   4.674   9.704   3.294  0.3180 -0.5900 -0.5690
28427SOL    HW191117   4.756   9.740   3.327 -0.7381  1.6134 -0.1425
28427SOL    HW291118   4.685   9.609   3.300  2.7706 -0.3602 -0.4628
28428SOL     OW91119   3.248   0.843   6.611  0.6142  0.2939  0.0374
28428SOL    HW191120   3.278   0.934   6.599 -0.5920  1.0374  2.1894
28428SOL    HW291121   3.299   0.812   6.686  0.6637 -0.6611 -0.3870
28429SOL     OW91122  10.732   4.508   0.179 -0.3306 -0.3813 -0.0183
28429SOL    HW191123  10.735   4.594   0.136  0.0461 -0.1653  0.4327
28429SOL    HW291124  10.689   4.451   0.115  1.5888 -0.4426 -1.3490
28430SOL     OW91125   1.427   2.878   2.634  0.0326 -0.7452  0.4317
28430SOL    HW191126   1.419   2.837   2.720 -0.7150 -0.0324  0.7159
28430SOL    HW291127   1.354   2.842   2.584  0.2048 -0.8241  0.2380
28431SOL     OW91128   6.333   6.950   6.008  0.8754 -0.1079  0.3487
28431SOL    HW191129   6.333   7.005   5.930 -0.7296 -0.6001 -0.0417
28431SOL    HW291130   6.280   6.998   6.071  0.6658 -0.5288  0.4999
28432SOL     OW91131   6.339   7.113   4.793  0.0790  0.1332  0.5132
28432SOL    HW191132   6.336   7.197   4.748 -1.1813 -0.3585 -0.3924
28432SOL    HW291133   6.355   7.049   4.723 -2.2905 -0.6873  0.6469
28433SOL     OW91134   2.033   9.944   3.204 -0.6585  0.2748 -0.0417
28433SOL    HW191135   1.982   9.906   3.275  1.1275 -0.4253  0.9435
28433SOL    HW291136   2.048  10.035   3.231  0.0267  0.0074  0.5095
28434SOL     OW91137   3.838   9.682   5.557 -0.5982  0.2066 -0.1833
28434SOL    HW191138   3.816   9.632   5.636 -0.8513 -0.9128 -0.9502
28434SOL    HW291139   3.757   9.684   5.506  0.3153 -1.7551 -1.8453
28435SOL     OW91140   6.346   4.656   5.614  0.0209 -0.1469  0.1465
28435SOL    HW191141   6.334   4.614   5.528  1.2936 -1.9653  0.7905
28435SOL    HW291142   6.433   4.696   5.609 -0.3930  0.7776  0.2026
28436SOL     OW91143   4.121   8.249   4.308  0.3205  0.0882 -0.4296
28436SOL    HW191144   4.201   8.302   4.310 -0.8894  1.9606  0.7502
28436SOL    HW291145   4.109   8.227   4.215  1.0651  1.5783 -0.9074
28437SOL     OW91146   7.834   2.196   6.043 -0.4598  0.2433  0.2473
28437SOL    HW191147   7.768   2.259   6.073 -1.1152  0.6011 -1.7860
28437SOL    HW291148   7.815   2.116   6.093 -0.5129  1.2133  1.8484
28438SOL     OW91149   0.955   6.332   6.750 -0.3589 -0.2165 -0.0786
28438SOL    HW191150   0.877   6.359   6.701 -0.1003 -1.4289 -1.2046
28438SOL    HW291151   1.020   6.314   6.683  0.1002 -1.6383  0.7200
28439SOL     OW91152   9.118   7.527   6.135 -0.3199 -0.5713 -0.3445
28439SOL    HW191153   9.205   7.536   6.174 -1.1158 -0.6889  1.5334
28439SOL    HW291154   9.075   7.611   6.150 -1.0989 -1.0552  0.2100
28440SOL     OW91155   2.868   6.972   2.497 -0.3400 -0.0245 -0.3526
28440SOL    HW191156   2.893   6.881   2.511  2.3838  0.1852 -2.8740
28440SOL    HW291157   2.917   7.021   2.563 -0.0971 -0.2156 -0.3912
28441SOL     OW91158   7.835   3.461   5.883 -0.3645 -0.2250  0.1019
28441SOL    HW191159   7.805   3.371   5.870 -1.9450  0.4068 -0.8192
28441SOL    HW291160   7.923   3.462   5.844 -0.0870 -1.4888  0.6397
28442SOL     OW91161   8.813   8.415   7.220 -0.1894 -0.1460 -0.4561
28442SOL    HW191162   8.756   8.482   7.181 -0.3509 -0.5029 -0.8409
28442SOL    HW291163   8.758   8.336   7.224  0.3505 -0.5616 -1.0593
28443SOL     OW91164   6.770   2.503   1.210  0.1586  0.2774 -0.2204
28443SOL    HW191165   6.860   2.482   1.234 -0.3320  0.9168  2.5129
28443SOL    HW291166   6.729   2.419   1.192  0.8108 -0.2032  0.4859
28444SOL     OW91167   3.430   4.779   8.196 -0.3488  0.4809 -0.2668
28444SOL    HW191168   3.419   4.855   8.253 -0.4543  0.9224 -0.8628
28444SOL    HW291169   3.524   4.761   8.197 -0.4169  0.1204  0.4991
28445SOL     OW91170   0.623   5.950   0.958  0.4394  0.0033 -1.0534
28445SOL    HW191171   0.682   6.022   0.983 -0.4834  1.1887 -2.1720
28445SOL    HW291172   0.555   5.951   1.026  1.0861 -0.6590 -0.3709
28446SOL     OW91173   8.200   1.671   2.996 -0.1343  0.1874 -0.6836
28446SOL    HW191174   8.275   1.692   3.053  0.1735 -1.1601 -0.5674
28446SOL    HW291175   8.125   1.668   3.056  0.0139 -0.2137 -0.5193
28447SOL     OW91176  10.636   0.885   1.238  0.0763  0.2648  0.3053
28447SOL    HW191177  10.685   0.827   1.297  1.0728  0.9585  0.1894
28447SOL    HW291178  10.617   0.962   1.291  1.8562  1.3308 -0.5044
28448SOL     OW91179   6.989   6.778   1.851 -0.2362 -0.4359 -0.6616
28448SOL    HW191180   6.999   6.873   1.852 -1.2424 -0.3046  0.9426
28448SOL    HW291181   6.921   6.762   1.785  0.4375 -0.1321 -1.4499
28449SOL     OW91182   0.545   2.726   8.133 -0.7575  0.3276 -0.2398
28449SOL    HW191183   0.531   2.819   8.118 -1.1406  0.3674  0.3301
28449SOL    HW291184   0.477   2.701   8.196 -0.3500 -0.2257 -0.0079
28450SOL     OW91185   3.021   7.719   1.907 -0.5621 -0.1381 -0.0867
28450SOL    HW191186   2.957   7.727   1.835 -0.0191 -0.1811 -0.5826
28450SOL    HW291187   2.996   7.787   1.969  0.3068  1.4092 -1.3679
28451SOL     OW91188   1.104   8.705   5.576 -0.4076 -0.1553 -0.4326
28451SOL    HW191189   1.158   8.704   5.497  3.9835  1.8239  2.1902
28451SOL    HW291190   1.065   8.618   5.579  2.5862 -1.7729 -2.7120
28452SOL     OW91191   6.012   2.724   5.107 -0.3294 -0.2174 -0.7564
28452SOL    HW191192   6.004   2.631   5.126 -0.6101  0.1034  0.8407
28452SOL    HW291193   6.027   2.765   5.192 -1.2174  1.2998 -1.2838
28453SOL     OW91194   5.230   6.914   9.066 -0.1735  0.6209  0.3320
28453SOL    HW191195   5.142   6.928   9.030 -1.0441  0.1505  2.1715
28453SOL    HW291196   5.228   6.824   9.099  1.2119  0.4038 -0.1232
28454SOL     OW91197   9.252   0.644  10.634 -0.2684  0.3469 -0.1679
28454SOL    HW191198   9.191   0.686  10.575 -2.1217 -0.2099  1.2526
28454SOL    HW291199   9.206   0.565  10.664  1.2958 -0.2962  0.6667
28455SOL     OW91200  10.331   5.309   8.716 -0.1180  0.8714 -0.0464
28455SOL    HW191201  10.372   5.330   8.800 -0.8038 -0.9662  0.7944
28455SOL    HW291202  10.345   5.215   8.704 -0.6390  0.9578 -1.6616
28456SOL     OW91203  10.614   4.156   1.031  0.0507 -0.3644  0.3328
28456SOL    HW191204  10.589   4.128   1.119 -0.4036  0.7004  0.5623
28456SOL    HW291205  10.685   4.219   1.046 -0.1276 -0.0689 -0.0438
28457SOL     OW91206   6.554   1.566   8.246 -0.1218 -0.4746 -0.6965
28457SOL    HW191207   6.461   1.570   8.224 -0.2246  0.8165 -0.1642
28457SOL    HW291208   6.557   1.518   8.328 -0.4229  0.1676 -0.2974
28458SOL     OW91209   2.096   9.216   6.596  0.3454 -0.2161 -0.7290
28458SOL    HW191210   2.140   9.264   6.667  1.4017 -0.1344 -1.4253
28458SOL    HW291211   2.134   9.252   6.516 -0.9118 -0.2372 -1.3533
28459SOL     OW91212   5.445   9.696   2.970  0.3118 -0.6276 -0.1368
28459SOL    HW191213   5.486   9.630   3.026 -0.6030 -0.1613  1.1272
28459SOL    HW291214   5.367   9.723   3.018  0.3300  0.9198 -0.9229
28460SOL     OW91215   7.195   2.901   9.330  0.4916  0.4329 -0.2398
28460SOL    HW191216   7.247   2.879   9.252 -0.2470  0.0523 -0.6381
28460SOL    HW291217   7.198   2.996   9.334  2.7876  0.3971  0.8491
28461SOL     OW91218   4.598   6.417   7.909 -0.0557 -0.4443 -0.5559
28461SOL    HW191219   4.503   6.433   7.913 -0.5182 -2.9314  0.6915
28461SOL    HW291220   4.616   6.403   7.816 -0.4064  2.3490 -1.1118
28462SOL     OW91221   3.777   2.471   8.413  0.8472  0.2501 -0.2750
28462SOL    HW191222   3.725   2.397   8.381  0.7016 -0.4086  1.3900
28462SOL    HW291223   3.860   2.432   8.440  1.4192  0.9764 -0.9375
28463SOL     OW91224   5.803  10.770   4.266 -0.4865 -0.0183  0.4376
28463SOL    HW191225   5.847  10.851   4.239  1.5451 -1.1431  0.1470
28463SOL    HW291226   5.843  10.747   4.349  0.6736 -1.8742 -0.5550
28464SOL     OW91227   5.026   7.256   7.681 -0.3922 -0.0863 -0.1292
28464SOL    HW191228   5.105   7.310   7.686 -1.4521  1.6191 -0.7115
28464SOL    HW291229   4.971   7.288   7.753 -0.7067 -0.9729  0.0276
28465SOL     OW91230   4.898   1.506   1.763  0.5723 -0.6488 -0.1171
28465SOL    HW191231   4.926   1.594   1.735 -2.1642  0.4221  0.2499
28465SOL    HW291232   4.969   1.476   1.820  1.1317  1.7667  0.5806
28466SOL     OW91233   1.548   9.891   5.149 -0.0681  0.3922  0.0730
28466SOL    HW191234   1.597   9.847   5.080 -0.8313 -0.6124  0.1560
28466SOL    HW291235   1.476   9.832   5.169 -0.3236  1.0462  1.1653
28467SOL     OW91236   8.876   3.304  10.762  0.1435  0.3216 -0.0747
28467SOL    HW191237   8.889   3.308  10.856  1.2184  1.5874 -0.2432
28467SOL    HW291238   8.784   3.281  10.751 -0.7121  2.7288  1.3103
28468SOL     OW91239   7.200   1.506   8.157  0.0688  0.1934  0.2625
28468SOL    HW191240   7.251   1.580   8.122 -1.9460  1.2970 -0.5429
28468SOL    HW291241   7.263   1.436   8.169  1.6313  1.2421 -1.4062
28469SOL     OW91242   8.580   3.053   9.764  0.6516 -0.1632  0.2805
28469SOL    HW191243   8.538   3.139   9.765  1.0973  0.0651 -0.2225
28469SOL    HW291244   8.631   3.052   9.684 -1.1938 -1.7986 -0.9822
28470SOL     OW91245   7.113   1.483   5.741  0.3754 -0.7448  0.1335
28470SOL    HW191246   7.192   1.437   5.713  1.4579  0.0439  1.7688
28470SOL    HW291247   7.135   1.521   5.826 -1.2066  0.9187 -0.1230
28471SOL     OW91248   5.151   9.688   3.379  0.0871 -0.3781 -0.1219
28471SOL    HW191249   5.224   9.638   3.343 -0.4611 -0.3471 -1.3284
28471SOL    HW291250   5.178   9.709   3.469  1.1939 -1.0691 -0.2729
28472SOL     OW91251   2.124   3.229   2.830 -0.1996 -0.2842  0.0796
28472SOL    HW191252   2.070   3.156   2.797  0.3765 -0.0822 -1.3780
28472SOL    HW291253   2.214   3.204   2.807  0.1641  0.1420  1.0222
28473SOL     OW91254   1.348   2.815  10.663 -0.0963  0.2628  0.4763
28473SOL    HW191255   1.425   2.862  10.696 -0.4239  0.9093  0.3238
28473SOL    HW291256   1.384   2.755  10.597  0.5049 -0.7272  1.6512
28474SOL     OW91257   9.346   1.834   7.243 -0.2842  0.2769  0.4260
28474SOL    HW191258   9.370   1.926   7.228 -1.9908  0.3429 -3.0382
28474SOL    HW291259   9.277   1.837   7.309 -1.1611  1.6862 -0.4936
28475SOL     OW91260   5.085   8.834   9.541 -0.2893 -0.8293  0.1766
28475SOL    HW191261   5.162   8.824   9.597 -0.8987 -1.4172  0.9301
28475SOL    HW291262   5.102   8.776   9.467  0.0065 -0.9267  0.3175
28476SOL     OW91263   0.656   4.591   4.166 -0.3962  0.0378 -0.8144
28476SOL    HW191264   0.704   4.520   4.207  0.1590  0.6080 -0.4486
28476SOL    HW291265   0.637   4.652   4.238  0.0408  0.7472 -1.2833
28477SOL     OW91266   7.313   2.507   4.104  0.3704 -0.3602  0.1211
28477SOL    HW191267   7.307   2.480   4.012 -0.7697 -0.0221  0.0836
28477SOL    HW291268   7.235   2.560   4.119  1.3787  1.0128  0.8229
28478SOL     OW91269   1.755   1.521   7.748  0.1272  0.0940  0.3055
28478SOL    HW191270   1.801   1.602   7.769  1.1053 -0.4381  0.2796
28478SOL    HW291271   1.737   1.527   7.654  0.8580 -0.0415  0.1545
28479SOL     OW91272   9.040   5.885   2.874 -0.2282  0.0863  0.1765
28479SOL    HW191273   8.954   5.913   2.841  0.3556  1.6583 -0.1226
28479SOL    HW291274   9.089   5.861   2.795  0.1317  0.7695  0.1880
28480SOL     OW91275   4.536   5.758   9.881  0.0703 -0.2318 -0.2345
28480SOL    HW191276   4.466   5.821   9.897 -0.7438 -1.4790  1.4599
28480SOL    HW291277   4.536   5.746   9.786 -2.2132 -0.3648 -0.2793
28481SOL     OW91278   8.743   6.900   3.984 -0.2547  0.3014 -0.1425
28481SOL    HW191279   8.736   6.888   4.079  1.3583 -1.6841 -0.2251
28481SOL    HW291280   8.661   6.864   3.950 -1.0875  1.5180  0.4883
28482SOL     OW91281   1.515   3.054   9.258 -0.0513  0.0210  0.2010
28482SOL    HW191282   1.437   3.104   9.233  0.3111 -0.0320 -1.1177
28482SOL    HW291283   1.484   2.992   9.323 -1.2008 -0.2644 -0.5875
28483SOL     OW91284   8.868   4.253   2.605 -0.4380 -0.5528 -0.1543
28483SOL    HW191285   8.909   4.339   2.593 -1.5267 -0.0389 -0.3211
28483SOL    HW291286   8.867   4.241   2.700  2.0603 -1.5859 -0.1757
28484SOL     OW91287   3.735  10.391   9.850 -0.3373 -0.1948  0.5826
28484SOL    HW191288   3.792  10.413   9.776 -0.6199  0.0988  0.4493
28484SOL    HW291289   3.667  10.458   9.849 -1.4868 -1.3157 -0.1220
28485SOL     OW91290   9.457   3.682   7.867 -0.0209 -0.2403  0.1646
28485SOL    HW191291   9.448   3.743   7.940  0.3176  0.6454 -0.5175
28485SOL    HW291292   9.367   3.661   7.842 -0.1626 -1.2894  1.4038
28486SOL     OW91293   6.035   4.389   6.811 -0.5995  0.0323 -0.5612
28486SOL    HW191294   5.948   4.427   6.817 -0.1349  1.1437 -0.6720
28486SOL    HW291295   6.087   4.453   6.762  0.5423 -0.1280  0.3801
28487SOL     OW91296   2.251   6.552  10.112 -0.8808  0.2067 -0.0818
28487SOL    HW191297   2.166   6.577  10.077 -2.0364 -0.6268  1.9551
28487SOL    HW291298   2.257   6.458  10.095  0.0401  0.4079 -0.9565
28488SOL     OW91299   0.309   3.635   9.690 -0.2649 -0.2023 -0.9119
28488SOL    HW191300   0.220   3.618   9.658  0.1179 -0.6291 -1.7763
28488SOL    HW291301   0.358   3.556   9.667  0.4420  0.2013 -0.8268
28489SOL     OW91302   6.725   6.128   9.093  0.9458  0.2910 -0.1853
28489SOL    HW191303   6.791   6.181   9.049  1.1238 -1.2631 -1.8461
28489SOL    HW291304   6.744   6.038   9.069  0.8323 -0.6598  2.8277
28490SOL     OW91305   3.428   9.924  10.094  0.1392  0.5172 -0.4848
28490SOL    HW191306   3.455   9.955  10.180 -0.6368 -1.6529  0.6151
28490SOL    HW291307   3.332   9.931  10.095  0.1534  0.9948 -1.4012
28491SOL     OW91308   0.201   3.670   1.459 -0.4612 -0.2656  0.0263
28491SOL    HW191309   0.193   3.750   1.511  0.0140 -0.1554 -0.0702
28491SOL    HW291310   0.283   3.631   1.488  0.1169  0.1088 -1.0774
28492SOL     OW91311   8.518   1.636  10.085 -0.3068 -0.2072  0.1171
28492SOL    HW191312   8.482   1.723  10.104  1.7010  0.5530  0.7655
28492SOL    HW291313   8.525   1.633   9.990 -2.4852 -0.6122 -0.0836
28493SOL     OW91314   1.857   4.390   5.659 -0.1283  0.1777 -0.1824
28493SOL    HW191315   1.862   4.462   5.596 -0.6990 -0.3130 -0.8049
28493SOL    HW291316   1.938   4.397   5.710 -0.2979  1.4174 -0.0560
28494SOL     OW91317   2.014  10.916   5.446 -0.2416 -0.0079  0.3539
28494SOL    HW191318   1.973  10.989   5.493 -1.6143 -0.7657  0.3923
28494SOL    HW291319   2.099  10.949   5.420 -0.7596  1.5479  0.5317
28495SOL     OW91320   2.205   9.133   5.673 -0.1831  0.1456 -0.9448
28495SOL    HW191321   2.190   9.060   5.733  1.2328  0.9102  0.4225
28495SOL    HW291322   2.158   9.207   5.713  0.3680  0.5456 -1.0198
28496SOL     OW91323   2.783   4.274   4.521  0.4177 -0.4579  0.4101
28496SOL    HW191324   2.863   4.222   4.527  0.0341 -1.0626  0.3597
28496SOL    HW291325   2.719   4.226   4.574 -0.0708 -0.2923 -0.0192
28497SOL     OW91326   7.786   9.999   9.770  0.2115  0.4051 -0.1145
28497SOL    HW191327   7.729   9.929   9.738  0.2033  0.4241 -0.1413
28497SOL    HW291328   7.745  10.080   9.740  0.5012  0.4001 -0.5351
28498SOL     OW91329   0.516   5.040   4.193 -0.1631  0.2106 -0.2681
28498SOL    HW191330   0.549   5.100   4.126 -1.0199  0.5895 -0.3640
28498SOL    HW291331   0.430   5.013   4.161 -1.7196  2.3181  1.7552
28499SOL     OW91332   9.933   7.276   0.635 -0.0249  0.3227  0.5533
28499SOL    HW191333   9.934   7.201   0.694 -1.3324  1.3642  1.9605
28499SOL    HW291334   9.974   7.346   0.685 -2.0594  1.4973  0.6884
28500SOL     OW91335   3.921   5.895   8.916  0.5781 -0.6614  0.4130
28500SOL    HW191336   3.937   5.894   8.821 -2.1713  0.1031 -0.1567
28500SOL    HW291337   3.938   5.986   8.941  0.9812 -0.7851  0.5865
28501SOL     OW91338  10.734   2.757   3.390  0.1868  0.0647 -0.2380
28501SOL    HW191339  10.799   2.817   3.427 -1.2929  1.1693  0.7120
28501SOL    HW291340  10.785   2.685   3.354  1.8430  0.1413  1.7880
28502SOL     OW91341   1.331   1.313   6.832  0.4180 -0.0049  0.1512
28502SOL    HW191342   1.356   1.403   6.807 -0.2455  0.1836  0.1531
28502SOL    HW291343   1.259   1.324   6.893 -0.6659 -0.5622 -0.9819
28503SOL     OW91344   3.540   9.220   2.363  0.2029  0.3706  0.2010
28503SOL    HW191345   3.484   9.295   2.381  0.9540  1.1304 -0.5135
28503SOL    HW291346   3.493   9.170   2.296 -0.9929 -0.6334  1.7217
28504SOL     OW91347   6.631   7.111   5.006 -0.2510 -0.2474 -1.0267
28504SOL    HW191348   6.713   7.081   5.043  0.0135 -0.1609 -1.5290
28504SOL    HW291349   6.619   7.199   5.042  2.1282  1.6292 -4.2329
28505SOL     OW91350  10.258   7.465   4.113 -0.0033 -0.1184  0.2594
28505SOL    HW191351  10.207   7.398   4.067 -0.9421 -0.4445  1.7065
28505SOL    HW291352  10.321   7.414   4.165 -1.6056 -0.0171  2.4179
28506SOL     OW91353   8.696  10.446   4.813  0.1446  0.3734  0.3384
28506SOL    HW191354   8.682  10.526   4.864  0.7683  0.2588  0.7019
28506SOL    HW291355   8.732  10.384   4.876 -1.6973 -0.6904  0.4116
28507SOL     OW91356   0.246   4.138   2.205 -0.1248  0.4005  0.1519
28507SOL    HW191357   0.217   4.047   2.207  1.0566 -0.0381 -0.9324
28507SOL    HW291358   0.190   4.183   2.267 -0.4650 -1.1517  1.0123
28508SOL     OW91359   0.826   7.487   0.531 -0.3212  0.0654  0.1341
28508SOL    HW191360   0.885   7.560   0.512  0.0833  0.2820  2.0103
28508SOL    HW291361   0.873   7.409   0.500 -0.0421  0.4419 -0.4023
28509SOL     OW91362  10.814   9.903   5.019  0.0373 -0.1071 -0.3749
28509SOL    HW191363  10.868   9.922   5.096  0.7844  1.0264 -1.1476
28509SOL    HW291364  10.874   9.912   4.945 -1.0654  0.5905 -1.2171
28510SOL     OW91365   6.673  10.128   3.824 -0.0350  0.7315 -0.2071
28510SOL    HW191366   6.741  10.129   3.757  1.4533 -1.1394  1.1788
28510SOL    HW291367   6.698  10.198   3.885  0.4485  0.2948  0.0998
28511SOL     OW91368   4.338   5.738   9.562  0.5526  0.3038 -0.0480
28511SOL    HW191369   4.320   5.646   9.544  0.6573  0.1559  0.5910
28511SOL    HW291370   4.421   5.738   9.610 -0.1550  0.6137  1.2090
28512SOL     OW91371   6.798   9.605   7.597 -0.2510 -0.2205  0.1132
28512SOL    HW191372   6.765   9.517   7.578 -0.7873  0.0706 -0.3141
28512SOL    HW291373   6.822   9.602   7.689  0.0509 -0.9159  0.0174
28513SOL     OW91374   0.588   7.468   9.885  0.1347  0.9574  0.5358
28513SOL    HW191375   0.534   7.396   9.851  0.5330  1.6222 -1.6466
28513SOL    HW291376   0.539   7.502   9.960 -2.7050  1.7386 -1.5123
28514SOL     OW91377   7.871   3.087   0.900 -0.1956 -0.3346  0.2682
28514SOL    HW191378   7.883   2.992   0.900  0.4783 -0.2998  2.1076
28514SOL    HW291379   7.920   3.117   0.824  0.7449 -1.3567  0.4366
28515SOL     OW91380   9.953   7.618  10.732 -0.0401  0.4677 -0.0483
28515SOL    HW191381   9.871   7.580  10.763 -0.7256 -0.2324 -2.5132
28515SOL    HW291382   9.964   7.697  10.785 -2.4034  0.6486  0.2814
28516SOL     OW91383   6.396   7.229   8.403 -0.5340 -0.3869 -0.2656
28516SOL    HW191384   6.314   7.265   8.371 -0.3607  0.3537  0.1122
28516SOL    HW291385   6.442   7.201   8.324 -0.8746 -0.2250 -0.5252
28517SOL     OW91386   4.776   3.148   1.189 -0.1624 -0.1108  0.2859
28517SOL    HW191387   4.776   3.099   1.271  1.1258 -2.2728 -0.8891
28517SOL    HW291388   4.858   3.198   1.191 -1.1312  1.4818  1.1772
28518SOL     OW91389   3.709   9.536   3.724 -0.3343 -0.1130  0.5004
28518SOL    HW191390   3.669   9.494   3.648 -0.2007  1.7677 -0.6582
28518SOL    HW291391   3.682   9.628   3.718 -0.7912  0.0016  3.0461
28519SOL     OW91392   3.777   6.743   2.694 -0.3616 -0.0660  0.8671
28519SOL    HW191393   3.789   6.664   2.641 -1.6282  0.8964 -0.9646
28519SOL    HW291394   3.813   6.814   2.641 -1.3556  0.8973  1.4212
28520SOL     OW91395   3.879   8.929   6.486  0.1976 -0.5978  0.4529
28520SOL    HW191396   3.933   8.964   6.416  0.8248 -0.8346  0.8149
28520SOL    HW291397   3.829   9.005   6.517  0.2825 -0.3898  0.0836
28521SOL     OW91398   8.655   9.127   0.700 -0.3812 -0.1270  0.6015
28521SOL    HW191399   8.615   9.122   0.613  0.0818 -0.1983  0.3875
28521SOL    HW291400   8.665   9.036   0.727  0.9487 -0.1823  0.0281
28522SOL     OW91401  10.369   2.966   0.402 -0.0061  0.0830  0.4261
28522SOL    HW191402  10.386   3.060   0.411 -0.3880  0.0157  2.2232
28522SOL    HW291403  10.281   2.961   0.364 -0.8412  0.5122  2.1771
28523SOL     OW91404   0.977   7.900   4.292 -0.1784 -0.1564  0.0899
28523SOL    HW191405   1.015   7.970   4.239 -0.0502  1.0278  1.6422
28523SOL    HW291406   1.040   7.829   4.289  0.5295  0.4724 -0.1283
28524SOL     OW91407   5.463   2.599   0.138  0.7463 -0.0109  0.1064
28524SOL    HW191408   5.377   2.632   0.111 -0.0084 -0.8805  1.3445
28524SOL    HW291409   5.524   2.640   0.077 -0.7864 -1.5600 -2.7080
28525SOL     OW91410   5.726   7.028   2.881  0.1318  0.4044 -0.1159
28525SOL    HW191411   5.806   6.998   2.923 -0.0728  0.0089 -0.0030
28525SOL    HW291412   5.728   6.986   2.795 -0.5919 -0.6748  0.3699
28526SOL     OW91413   1.827   6.202   5.771  0.1489  0.3743 -0.1102
28526SOL    HW191414   1.904   6.146   5.784  0.8212  1.1852 -0.5224
28526SOL    HW291415   1.753   6.142   5.777  0.8028 -0.4088  0.3840
28527SOL     OW91416   6.148   9.103   0.481  0.1084 -0.1301 -0.1515
28527SOL    HW191417   6.226   9.082   0.531 -0.2195 -1.4675 -0.1829
28527SOL    HW291418   6.148   9.199   0.478  1.2954 -0.0811  0.5386
28528SOL     OW91419   9.206   6.499   5.691  0.3364 -0.0860  0.4726
28528SOL    HW191420   9.259   6.528   5.766 -1.2688  1.7959  0.9661
28528SOL    HW291421   9.139   6.443   5.730 -0.6763  1.1286  0.5395
28529SOL     OW91422   1.442   3.345   9.407  0.3476 -0.2012 -0.0049
28529SOL    HW191423   1.384   3.302   9.344  0.6990 -0.9728  0.1904
28529SOL    HW291424   1.416   3.310   9.492  0.1126  0.5688  0.2499
28530SOL     OW91425   1.294   5.269   9.112 -0.2831 -0.2997  0.3007
28530SOL    HW191426   1.352   5.263   9.036  0.0272 -0.6880  0.5685
28530SOL    HW291427   1.262   5.180   9.125 -0.7389 -0.1375  0.3161
28531SOL     OW91428   0.899   7.564   1.706 -0.0844  0.4796 -0.1781
28531SOL    HW191429   0.974   7.560   1.765 -1.1627  0.1352  1.2331
28531SOL    HW291430   0.912   7.491   1.645 -0.5409 -1.2558  1.6919
28532SOL     OW91431  10.531   4.780   1.272  0.0745  0.0052 -0.3856
28532SOL    HW191432  10.609   4.756   1.323 -0.2078  0.4291  0.2503
28532SOL    HW291433  10.460   4.783   1.336 -0.2116  0.9313 -0.7293
28533SOL     OW91434   9.979   8.645   3.701  0.5313 -0.0909  0.4919
28533SOL    HW191435   9.985   8.578   3.633  2.9888  0.3343  0.1844
28533SOL    HW291436  10.060   8.636   3.751 -0.8499  0.0906  2.9619
28534SOL     OW91437   4.151   7.793   5.777 -0.3908  0.0892  0.2627
28534SOL    HW191438   4.155   7.698   5.787 -1.9169  0.0866  1.1062
28534SOL    HW291439   4.183   7.827   5.860  1.7666  0.3917 -0.6221
28535SOL     OW91440   6.666   4.964   3.943 -0.8582 -0.1990 -0.0136
28535SOL    HW191441   6.641   4.911   3.866  1.4899  0.5520 -1.3882
28535SOL    HW291442   6.632   5.051   3.924  0.6597  0.2568 -0.7809
28536SOL     OW91443   1.993   1.003  10.905 -0.4126  0.3231 -0.7928
28536SOL    HW191444   2.072   0.982  10.854 -0.8267  0.6457 -1.5682
28536SOL    HW291445   1.937   0.926  10.895  0.2353 -0.3982  0.6775
28537SOL     OW91446   5.203   4.835   2.268 -0.0557 -0.3324  0.0008
28537SOL    HW191447   5.219   4.783   2.189  0.8408  0.5715 -0.4280
28537SOL    HW291448   5.109   4.855   2.265 -0.4264 -1.8679  0.1648
28538SOL     OW91449   3.307   7.364   4.280 -0.0144 -0.6768 -0.1066
28538SOL    HW191450   3.328   7.308   4.355 -1.3647 -3.0442 -1.3526
28538SOL    HW291451   3.213   7.379   4.287 -0.5004 -2.3066 -2.0740
28539SOL     OW91452   7.229   6.049   9.480  0.0362 -0.2476  0.3246
28539SOL    HW191453   7.241   6.056   9.574  1.2901  0.6006  0.1217
28539SOL    HW291454   7.318   6.053   9.444 -0.4155 -0.6689 -0.8890
28540SOL     OW91455   4.634   9.924   5.697  0.4637 -0.8976  0.4331
28540SOL    HW191456   4.604   9.881   5.777 -1.1009  0.3440  0.5764
28540SOL    HW291457   4.663   9.853   5.640  1.1157 -1.8414  1.8921
28541SOL     OW91458   6.378   2.595   8.430 -0.1023  0.5233 -0.0538
28541SOL    HW191459   6.429   2.533   8.378 -1.1620  0.4764 -1.0675
28541SOL    HW291460   6.440   2.665   8.452  0.6674 -0.0559 -0.3231
28542SOL     OW91461   5.331   7.030  10.094  0.2992 -0.1902  0.1981
28542SOL    HW191462   5.358   6.942  10.119  2.3491  0.8966  2.2240
28542SOL    HW291463   5.267   7.054  10.161 -0.4069 -0.1918 -0.4679
28543SOL     OW91464   7.036   3.073   8.433  0.2774  0.2642 -0.2832
28543SOL    HW191465   7.027   3.025   8.351  1.9524  1.0456 -0.9683
28543SOL    HW291466   7.112   3.130   8.420 -0.8291  2.1476  0.9744
28544SOL     OW91467   5.626   5.468  10.202  0.1133 -0.3679 -0.5944
28544SOL    HW191468   5.683   5.544  10.193 -0.2148  0.1224  1.0298
28544SOL    HW291469   5.568   5.472  10.127 -2.8631  3.6271  1.5467
28545SOL     OW91470  10.876   0.547   5.437 -0.0365 -0.1827 -0.1852
28545SOL    HW191471  10.795   0.500   5.456 -0.3274  0.6236  0.5992
28545SOL    HW291472  10.875   0.623   5.495  1.1034  0.0436 -0.4283
28546SOL     OW91473   0.490   0.931   8.223  0.0806  0.6217  0.7303
28546SOL    HW191474   0.506   0.845   8.263 -0.6395  1.1031  2.1200
28546SOL    HW291475   0.539   0.928   8.141 -0.0058 -1.1494  0.6931
28547SOL     OW91476   2.856   6.404   7.997  0.7425  0.1006 -0.4331
28547SOL    HW191477   2.936   6.440   7.960  0.3271  1.3975 -0.1351
28547SOL    HW291478   2.799   6.480   8.011 -0.1756 -0.6724  0.2541
28548SOL     OW91479   6.658   2.830   5.370 -0.0036  0.1989 -0.0811
28548SOL    HW191480   6.720   2.758   5.364 -0.9526 -0.9339  2.3740
28548SOL    HW291481   6.625   2.840   5.281  3.3122  0.6197 -1.4096
28549SOL     OW91482   8.129   2.349   1.967  0.0922 -0.0672  0.1219
28549SOL    HW191483   8.175   2.387   2.042 -0.5075  1.8743 -0.4268
28549SOL    HW291484   8.052   2.307   2.005 -0.0788  0.6898  0.6404
28550SOL     OW91485   2.837   9.217   2.936 -0.1296 -0.4063 -0.0963
28550SOL    HW191486   2.905   9.213   2.868  1.4577 -1.0911  1.4681
28550SOL    HW291487   2.776   9.147   2.911 -1.0506  1.0359 -2.2307
28551SOL     OW91488   5.642   2.470   7.268  0.0234 -0.2361 -0.5801
28551SOL    HW191489   5.674   2.380   7.278  1.3513  0.3172  0.4043
28551SOL    HW291490   5.589   2.485   7.346 -0.6243 -0.3300 -0.9989
28552SOL     OW91491   8.209   8.799   6.379  0.1622  0.1816  0.2736
28552SOL    HW191492   8.216   8.721   6.323 -0.3046 -0.3665  0.9530
28552SOL    HW291493   8.132   8.782   6.434  0.0670  1.1161  0.4502
28553SOL     OW91494   6.028   0.432   6.993 -0.2563  0.3594  0.1506
28553SOL    HW191495   5.995   0.342   6.994 -0.6497  0.4184 -2.3848
28553SOL    HW291496   6.032   0.456   7.086  0.0101 -2.2988  0.9238
28554SOL     OW91497   1.468   5.425   5.210 -0.2632 -0.4476  0.0092
28554SOL    HW191498   1.463   5.520   5.200  0.4646 -0.3887  0.1473
28554SOL    HW291499   1.555   5.402   5.178 -0.2836 -1.0200  0.3526
28555SOL     OW91500   3.445   9.849  10.655  0.0092  1.0253  0.0162
28555SOL    HW191501   3.399   9.783  10.707  1.3334 -0.7119 -0.9399
28555SOL    HW291502   3.474   9.914  10.719 -0.0924 -0.0462  1.1795
28556SOL     OW91503   2.898   3.491   4.272 -0.4631  0.0336 -0.4127
28556SOL    HW191504   2.835   3.424   4.245  0.2304  0.1438 -2.4156
28556SOL    HW291505   2.969   3.485   4.209  2.0508 -0.6657  2.2509
28557SOL     OW91506   4.120   8.223   9.581  0.1181 -0.4642  0.0559
28557SOL    HW191507   4.215   8.236   9.584 -0.0073  0.5335 -0.0200
28557SOL    HW291508   4.104   8.149   9.641  0.7382  0.6094  1.6188
28558SOL     OW91509   8.310   2.257   5.464 -0.4607 -0.0741 -0.0359
28558SOL    HW191510   8.396   2.267   5.504 -0.6247 -1.1040  0.6268
28558SOL    HW291511   8.324   2.278   5.371  0.1862  1.1331  0.3226
28559SOL     OW91512   3.930   7.809   5.595  0.0147 -0.5935  0.1901
28559SOL    HW191513   3.910   7.872   5.526 -0.1511  0.2596  0.9986
28559SOL    HW291514   4.012   7.840   5.633  0.5754 -1.5642 -0.1940
28560SOL     OW91515   2.891   4.661   1.468  0.2311 -0.1972 -0.6007
28560SOL    HW191516   2.931   4.574   1.461 -1.7114 -1.4050  1.6195
28560SOL    HW291517   2.962   4.722   1.449  2.7821 -2.2070  1.6849
28561SOL     OW91518   9.200   2.775   4.053  0.1245 -0.0639 -0.4824
28561SOL    HW191519   9.194   2.828   4.133  0.9494 -0.6320 -0.0354
28561SOL    HW291520   9.135   2.706   4.065 -0.0068  0.0630 -0.4626
28562SOL     OW91521   9.440   2.190   8.291 -0.1580  0.3822 -0.0964
28562SOL    HW191522   9.496   2.120   8.324  1.3626  1.7579  0.3330
28562SOL    HW291523   9.390   2.219   8.367  0.5570  0.9918  0.1435
28563SOL     OW91524   3.687  10.230   4.924 -0.3758 -0.4696  0.1448
28563SOL    HW191525   3.700  10.148   4.970  1.3933 -1.0334 -1.2457
28563SOL    HW291526   3.724  10.216   4.837 -1.9550  1.1268 -0.8796
28564SOL     OW91527   0.535   7.737  10.544 -0.4067  0.3308  0.2213
28564SOL    HW191528   0.516   7.686  10.622 -0.1413  0.5322  0.4191
28564SOL    HW291529   0.456   7.788  10.529 -0.4063  0.3964  0.4405
28565SOL     OW91530   3.108   9.852   1.509  0.3747  0.0705  0.0098
28565SOL    HW191531   3.050   9.879   1.580  1.8509  1.2971  0.8103
28565SOL    HW291532   3.084   9.761   1.492 -2.1610  0.6675 -0.1233
28566SOL     OW91533   2.944   1.104   1.105  0.5300  0.3468 -0.1024
28566SOL    HW191534   2.970   1.043   1.173  1.1332 -0.9990 -1.4655
28566SOL    HW291535   2.956   1.191   1.144 -0.5577 -0.3771  1.9545
28567SOL     OW91536   7.564   5.153   2.503 -0.4015 -0.1875  0.1044
28567SOL    HW191537   7.483   5.191   2.468 -1.9287 -0.5985  2.8726
28567SOL    HW291538   7.634   5.206   2.467 -1.8710  0.2496 -2.3406
28568SOL     OW91539   0.752   5.545   8.242  0.0409  0.1693  0.6433
28568SOL    HW191540   0.752   5.450   8.250 -0.2748 -0.1233 -1.9018
28568SOL    HW291541   0.818   5.574   8.304 -0.2697 -1.6430  1.9010
28569SOL     OW91542   1.999   0.710   8.979  0.1760  0.5246  0.0161
28569SOL    HW191543   1.921   0.711   9.035 -0.4285 -0.4288 -0.7706
28569SOL    HW291544   1.987   0.785   8.921  0.0956  0.6803  0.2333
28570SOL     OW91545   3.286   9.835   0.815 -0.0977 -0.0149 -0.1872
28570SOL    HW191546   3.340   9.779   0.759 -0.9883 -0.9846 -0.1126
28570SOL    HW291547   3.196   9.819   0.785 -0.5460 -0.1660  1.1724
28571SOL     OW91548   0.055  10.056   5.267  0.5651 -0.1210 -0.2413
28571SOL    HW191549   0.100  10.042   5.183  1.2020  1.5010 -0.2105
28571SOL    HW291550   0.124  10.053   5.332  0.3190  0.2531  0.0414
28572SOL     OW91551   1.385   1.545   0.640  0.2434 -0.2752 -0.1863
28572SOL    HW191552   1.340   1.603   0.578  1.0961 -0.9418 -1.4618
28572SOL    HW291553   1.316   1.517   0.701 -0.7441 -0.0422 -1.1665
28573SOL     OW91554   5.736   6.191   3.097  0.1664  0.0931 -0.2046
28573SOL    HW191555   5.702   6.215   3.183  2.8751  1.0676  0.6929
28573SOL    HW291556   5.771   6.103   3.109 -1.2031 -0.5773 -0.8986
28574SOL     OW91557  10.147   3.833  10.651  0.4373  0.5682 -0.4359
28574SOL    HW191558  10.063   3.832  10.697  0.9321  1.0378  0.5181
28574SOL    HW291559  10.177   3.923  10.659 -0.1742  1.0804 -3.0737
28575SOL     OW91560  10.872   7.641   6.730 -0.0538 -0.2231 -0.6008
28575SOL    HW191561  10.796   7.667   6.678 -0.0369  2.6376  0.6182
28575SOL    HW291562  10.935   7.607   6.667 -0.3875  2.2277 -2.3903
28576SOL     OW91563   4.686   1.045   2.302  0.2467  0.3963  0.4620
28576SOL    HW191564   4.608   1.062   2.353 -0.4656  1.0754 -0.8097
28576SOL    HW291565   4.726   0.969   2.344 -1.7627 -0.7510  0.4232
28577SOL     OW91566   2.564   7.502   0.492  0.0574  0.5821 -0.0783
28577SOL    HW191567   2.614   7.557   0.552 -0.4571  0.1669  0.7347
28577SOL    HW291568   2.611   7.510   0.408  0.1654  1.9956  0.0986
28578SOL     OW91569   2.594   9.509   9.077  0.1421 -0.1476  0.4997
28578SOL    HW191570   2.524   9.563   9.114  0.6634  0.3719  0.7402
28578SOL    HW291571   2.620   9.451   9.149  0.7123  0.4200  0.7612
28579SOL     OW91572   3.034   1.014   7.306  0.2409 -0.1383  0.3524
28579SOL    HW191573   3.051   1.100   7.344 -0.9663  0.1551  0.2714
28579SOL    HW291574   2.952   0.986   7.346  0.9127 -1.5444  0.8397
28580SOL     OW91575   6.954   6.474   9.437 -0.4009  0.0085  0.2697
28580SOL    HW191576   6.906   6.557   9.434 -0.5887 -0.0847  0.6398
28580SOL    HW291577   7.045   6.499   9.420 -0.7675 -0.0111 -2.1262
28581SOL     OW91578   9.965   6.271   2.827  0.5584  0.0419 -0.6258
28581SOL    HW191579  10.035   6.239   2.884 -0.8098  0.3844  1.3777
28581SOL    HW291580   9.975   6.367   2.829  1.1320  0.0205 -1.8513
28582SOL     OW91581   5.915   6.822  10.138 -0.3385  0.4274  0.0464
28582SOL    HW191582   5.839   6.844  10.084  0.4698  1.5059 -0.6855
28582SOL    HW291583   5.896   6.862  10.223 -1.1429 -0.3863  0.2643
28583SOL     OW91584   0.263   5.407   7.039 -0.3397  0.2038 -0.1840
28583SOL    HW191585   0.170   5.386   7.032  0.0077 -1.3472 -0.6299
28583SOL    HW291586   0.278   5.472   6.970 -1.1365  0.6638  0.0684
28584SOL     OW91587   0.189  10.505   5.291 -0.9274  0.2925  0.0762
28584SOL    HW191588   0.122  10.438   5.296  0.0110 -0.7784 -0.9324
28584SOL    HW291589   0.231  10.491   5.205  0.0140  1.4620  0.3068
28585SOL     OW91590   1.998   1.972   3.800  0.4540  0.3939  0.1981
28585SOL    HW191591   2.064   2.007   3.859  0.4487 -0.3830  0.6810
28585SOL    HW291592   2.035   1.983   3.713  0.3060  1.8744  0.3104
28586SOL     OW91593   2.207   1.617   3.672 -0.3528 -0.1838  0.0130
28586SOL    HW191594   2.180   1.530   3.644  1.3326 -0.1325 -2.0436
28586SOL    HW291595   2.140   1.676   3.638  0.3191 -0.3939 -1.8038
28587SOL     OW91596   9.910   2.506   7.064  0.3825  0.0027 -0.1250
28587SOL    HW191597   9.871   2.515   7.151  0.7200 -2.0261  0.2733
28587SOL    HW291598   9.858   2.564   7.008 -1.5093 -0.6075  0.9138
28588SOL     OW91599   6.570   8.447   2.914 -0.5094  0.3795 -0.3233
28588SOL    HW191600   6.502   8.381   2.896 -0.3194  0.2741 -0.6743
28588SOL    HW291601   6.575   8.498   2.833  0.1300  0.1181 -0.4524
28589SOL     OW91602   4.345   7.304   2.249 -0.3412  0.1808  0.0692
28589SOL    HW191603   4.324   7.286   2.158 -0.7869 -0.5039  0.3015
28589SOL    HW291604   4.364   7.219   2.287  0.1860  0.5017  0.5356
28590SOL     OW91605   9.725   0.381   7.124  0.2951  0.3315 -0.5589
28590SOL    HW191606   9.813   0.414   7.107  0.3524  1.0990  0.9974
28590SOL    HW291607   9.723   0.365   7.219 -0.8131 -0.9878 -0.7595
28591SOL     OW91608   8.890   8.019   9.079  0.0643 -0.4002  0.6059
28591SOL    HW191609   8.889   7.940   9.134  0.3125  0.4492  1.8734
28591SOL    HW291610   8.807   8.061   9.097  0.3432  0.1190  0.6873
28592SOL     OW91611   3.845   8.306   7.729 -0.4369 -0.5814 -0.4773
28592SOL    HW191612   3.893   8.276   7.806  2.4938 -2.3031 -2.7515
28592SOL    HW291613   3.878   8.252   7.658 -4.1292 -0.1604 -2.7653
28593SOL     OW91614   7.451   3.114   1.265 -0.3906  0.1198  0.2332
28593SOL    HW191615   7.451   3.045   1.199 -1.2509 -0.9438  1.2905
28593SOL    HW291616   7.399   3.184   1.226 -1.1530 -0.6212 -0.1233
28594SOL     OW91617   3.242   5.124   7.830  0.0117 -0.7024 -0.4901
28594SOL    HW191618   3.158   5.152   7.791  0.0430  1.5590  0.8931
28594SOL    HW291619   3.217   5.081   7.912  0.1833  0.1076 -0.0035
28595SOL     OW91620   2.187   3.365   8.291 -0.4154  0.6448 -0.1668
28595SOL    HW191621   2.185   3.451   8.250 -0.2003  0.2390 -1.0565
28595SOL    HW291622   2.276   3.357   8.326 -0.5528  0.9276  0.2622
28596SOL     OW91623  10.811   9.092   3.875 -0.3795 -0.5024 -0.0815
28596SOL    HW191624  10.855   9.176   3.861  1.7367 -1.7308 -1.2745
28596SOL    HW291625  10.827   9.072   3.967  2.3266 -1.2369 -0.6290
28597SOL     OW91626  10.300   2.514   2.853 -0.4359  0.2634 -0.1008
28597SOL    HW191627  10.235   2.577   2.886 -1.0912  0.3644 -1.4996
28597SOL    HW291628  10.276   2.501   2.762 -0.6322 -2.4331  0.2665
28598SOL     OW91629   9.207   2.225   7.426  0.0917 -0.3325  0.1472
28598SOL    HW191630   9.254   2.289   7.480  0.1379 -2.3805  2.7471
28598SOL    HW291631   9.126   2.270   7.402 -0.1385  0.5921  2.3448
28599SOL     OW91632   7.876   4.790   6.949 -0.0953  0.2959  0.2590
28599SOL    HW191633   7.954   4.742   6.919  0.7549  1.3913  0.6469
28599SOL    HW291634   7.809   4.771   6.883  0.8036  0.1607 -0.6407
28600SOL     OW91635   3.979   5.870   1.342 -0.4409  0.7232  0.1520
28600SOL    HW191636   4.013   5.806   1.280 -1.9523  0.4695 -0.4702
28600SOL    HW291637   4.040   5.868   1.416 -1.2131 -2.5769  0.8652
28601SOL     OW91638   0.302   5.612   1.074  0.5117  0.3256  0.1155
28601SOL    HW191639   0.233   5.650   1.019 -0.2368  0.6854  1.2597
28601SOL    HW291640   0.370   5.584   1.013 -1.1011 -0.9994 -1.1403
28602SOL     OW91641   4.309   9.495   9.429 -0.3115 -0.7600 -0.1901
28602SOL    HW191642   4.260   9.417   9.454 -0.6299 -0.7277 -0.7036
28602SOL    HW291643   4.397   9.479   9.462 -0.6036 -0.9216  0.5308
28603SOL     OW91644   9.544   1.865   0.628 -0.1964  0.0640 -0.4806
28603SOL    HW191645   9.538   1.785   0.681  0.4772 -0.2577 -0.8811
28603SOL    HW291646   9.569   1.932   0.691  0.4099 -0.2789 -0.3459
28604SOL     OW91647   3.738   5.716   4.817  0.0454  0.1692  0.2153
28604SOL    HW191648   3.712   5.799   4.856  1.3290 -0.2148  2.0038
28604SOL    HW291649   3.678   5.652   4.855 -0.0844  0.0840 -0.1297
28605SOL     OW91650   0.850   3.539   3.523  0.3027 -0.1729  0.6901
28605SOL    HW191651   0.906   3.591   3.580  0.9170  0.2694 -0.3075
28605SOL    HW291652   0.816   3.469   3.581  1.6524 -0.2928  1.3700
28606SOL     OW91653   7.907   1.306   5.071 -0.3116  0.2942 -0.2377
28606SOL    HW191654   7.867   1.219   5.071 -0.8097  0.5013 -1.4618
28606SOL    HW291655   7.906   1.333   5.163 -3.1917  0.3742 -0.2129
28607SOL     OW91656   3.007   7.856   0.095  0.1899 -0.1858  0.0840
28607SOL    HW191657   2.924   7.847   0.142 -0.9837 -0.7228 -1.9964
28607SOL    HW291658   3.017   7.950   0.083 -0.1968 -0.1240  0.2124
28608SOL     OW91659   3.928   6.046   4.683  0.2857 -0.5261  0.2867
28608SOL    HW191660   3.941   5.951   4.681 -0.4990 -0.6422 -0.6673
28608SOL    HW291661   3.842   6.058   4.641  1.2155  0.7238 -1.3642
28609SOL     OW91662   2.754   4.025   6.215  0.1783 -0.0312 -0.2947
28609SOL    HW191663   2.805   3.997   6.139  0.9742 -0.2716  0.3139
28609SOL    HW291664   2.675   4.063   6.178 -0.3698 -1.9277 -1.2049
28610SOL     OW91665   8.305   9.109   7.545  0.3444 -0.2972 -0.0751
28610SOL    HW191666   8.394   9.092   7.516 -0.1081 -1.4183 -0.8827
28610SOL    HW291667   8.272   9.173   7.483  0.5187 -0.0368  0.0998
28611SOL     OW91668   5.736   1.485   1.115 -0.5677 -0.0860 -0.5623
28611SOL    HW191669   5.823   1.446   1.121 -0.5095  0.2618  1.4912
28611SOL    HW291670   5.722   1.526   1.200 -3.7131 -2.2024  0.0926
28612SOL     OW91671   5.758   6.295   5.855 -0.6102 -0.0918 -0.3654
28612SOL    HW191672   5.840   6.319   5.814 -0.6147 -0.8045 -0.8014
28612SOL    HW291673   5.765   6.201   5.872 -0.5989  0.1668  1.2870
28613SOL     OW91674   4.466   9.412   4.279  0.0626  0.0620  0.1606
28613SOL    HW191675   4.413   9.363   4.216 -1.2571  1.9481 -0.3018
28613SOL    HW291676   4.424   9.394   4.364  0.7877 -1.1155  0.2863
28614SOL     OW91677   4.435   1.487   8.123 -0.6200 -0.2664 -0.1995
28614SOL    HW191678   4.449   1.580   8.140 -0.1301 -0.1302 -1.2870
28614SOL    HW291679   4.350   1.483   8.081 -1.0515 -0.4187  0.6680
28615SOL     OW91680   2.778   8.064   8.350  0.4583 -0.2940  0.3054
28615SOL    HW191681   2.819   8.101   8.272 -0.6716 -2.9664 -1.7151
28615SOL    HW291682   2.684   8.067   8.332 -0.0476  1.4363  2.7904
28616SOL     OW91683   4.368   4.239   3.361 -0.0753  0.1318 -0.4482
28616SOL    HW191684   4.405   4.293   3.431  0.1626 -1.0723  0.3895
28616SOL    HW291685   4.302   4.294   3.320 -0.3579  0.7925  0.8541
28617SOL     OW91686   5.510   3.462   1.352 -0.0670 -0.6227 -0.3477
28617SOL    HW191687   5.473   3.542   1.313  0.5154 -0.0889  0.1801
28617SOL    HW291688   5.434   3.418   1.391 -0.1678  0.4969  0.7803
28618SOL     OW91689   0.418   7.917   0.550 -0.3964  0.0440  0.0895
28618SOL    HW191690   0.430   7.951   0.639 -0.8303  0.9833 -0.1961
28618SOL    HW291691   0.488   7.958   0.500 -0.2188 -0.3999 -0.0319
28619SOL     OW91692   0.417   4.621   3.418  0.2636 -0.1603  0.5343
28619SOL    HW191693   0.469   4.609   3.338  0.3761 -0.0712  0.5930
28619SOL    HW291694   0.353   4.688   3.395  0.1232 -0.3279  0.4369
28620SOL     OW91695   1.230   8.377   2.175  0.1891 -0.0375 -0.3922
28620SOL    HW191696   1.277   8.450   2.216  1.5807 -1.3963  0.5855
28620SOL    HW291697   1.158   8.358   2.235  0.6755 -0.3554  0.1021
28621SOL     OW91698   1.234   7.429  10.401 -0.0327 -0.8461  0.6328
28621SOL    HW191699   1.202   7.510  10.441 -0.3408 -0.3267 -0.6269
28621SOL    HW291700   1.294   7.393  10.466 -1.2209 -0.5236  1.9608
28622SOL     OW91701   2.493   4.423   0.741  0.5398  0.7853 -0.5521
28622SOL    HW191702   2.480   4.515   0.764  0.6065  0.5382  0.5668
28622SOL    HW291703   2.436   4.408   0.666 -2.5957  0.7456  1.6677
28623SOL     OW91704   1.102   9.325   7.875 -0.2805  0.3226  0.6232
28623SOL    HW191705   1.065   9.301   7.960 -2.3219 -1.4531 -0.6778
28623SOL    HW291706   1.028   9.360   7.826 -0.0771 -2.1156 -1.6353
28624SOL     OW91707   0.612   9.097   3.088 -0.6464 -0.7101 -0.0275
28624SOL    HW191708   0.568   9.165   3.038 -0.9649 -0.3958  0.6622
28624SOL    HW291709   0.703   9.101   3.060 -1.1223 -1.7363 -1.8851
28625SOL     OW91710   8.411   5.574   3.887  0.3579 -0.2544  0.2634
28625SOL    HW191711   8.349   5.557   3.957 -0.7915 -2.4009 -1.1586
28625SOL    HW291712   8.471   5.500   3.888  0.0931 -0.5256 -1.2120
28626SOL     OW91713  10.781   7.975   0.836  0.1760 -0.0649 -0.3655
28626SOL    HW191714  10.866   8.016   0.851  1.1861 -1.8198 -0.9921
28626SOL    HW291715  10.719   8.030   0.883  1.8017  0.6439  1.0580
28627SOL     OW91716   3.854  10.149   4.704 -0.0303 -0.4289 -0.0463
28627SOL    HW191717   3.867  10.136   4.610 -0.8093 -1.1827 -0.0582
28627SOL    HW291718   3.813  10.068   4.734 -0.8812  0.2620  0.7185
28628SOL     OW91719   1.784   1.690   0.440 -0.0816  0.0702 -0.0897
28628SOL    HW191720   1.743   1.648   0.516  1.4195  0.9864  1.2791
28628SOL    HW291721   1.730   1.768   0.424 -0.6633 -0.3596 -0.2697
28629SOL     OW91722   6.415   5.035   9.143 -0.1921  0.9247  0.1170
28629SOL    HW191723   6.460   4.963   9.100 -0.3177  1.0846 -0.2898
28629SOL    HW291724   6.327   5.035   9.105 -0.3290  1.0243  0.4260
28630SOL     OW91725   5.690   6.924   5.597  0.4181  0.5628 -0.1760
28630SOL    HW191726   5.732   6.926   5.511 -0.2126  1.6354 -0.4651
28630SOL    HW291727   5.610   6.975   5.587 -1.6949 -2.4315  0.0179
28631SOL     OW91728   4.770   6.848   3.134  0.4230  0.0542 -0.1411
28631SOL    HW191729   4.765   6.814   3.224 -1.7730  1.4186  0.3443
28631SOL    HW291730   4.683   6.830   3.097  0.2427  2.1913 -0.9170
28632SOL     OW91731   1.452   3.374   3.104 -0.3068  0.4905  0.1699
28632SOL    HW191732   1.410   3.448   3.060 -0.1833  1.0415  0.9533
28632SOL    HW291733   1.395   3.356   3.178  0.2322  0.5098  0.5980
28633SOL     OW91734   2.516   1.678   8.866  0.6672  0.2070  0.2143
28633SOL    HW191735   2.558   1.706   8.948 -0.0058  0.3259  0.5213
28633SOL    HW291736   2.469   1.755   8.835  0.0002 -0.1609  0.3015
28634SOL     OW91737   8.665   2.745   9.847  0.1062 -0.3235  0.1918
28634SOL    HW191738   8.656   2.840   9.846 -1.6144 -0.4584 -0.7582
28634SOL    HW291739   8.660   2.721   9.940  1.1788  0.5222  0.4980
28635SOL     OW91740   6.054   0.468   5.376 -0.3870 -0.1871  0.5317
28635SOL    HW191741   6.036   0.561   5.384 -0.3206  0.1354 -2.1983
28635SOL    HW291742   6.012   0.442   5.294  2.6578 -1.6794 -0.7168
28636SOL     OW91743   5.226   2.734   8.713  0.3776  0.0798  0.3121
28636SOL    HW191744   5.156   2.739   8.778  1.2372  0.0147  1.2608
28636SOL    HW291745   5.182   2.750   8.629 -0.6439  0.7586  0.9581
28637SOL     OW91746   3.172   7.990   4.019  0.6760 -0.0259  0.6905
28637SOL    HW191747   3.249   8.034   4.055  0.1678  1.9954 -0.5041
28637SOL    HW291748   3.102   8.006   4.083  0.4435  1.1540  0.1655
28638SOL     OW91749   3.559   1.809   2.127 -0.9187  0.3849 -0.1696
28638SOL    HW191750   3.531   1.900   2.141 -1.3972  0.2052  0.0577
28638SOL    HW291751   3.522   1.785   2.042 -2.1921 -0.1275  0.5105
28639SOL     OW91752   6.937   5.463   4.822 -0.3525 -0.1128  0.2473
28639SOL    HW191753   6.970   5.385   4.777 -2.0525  0.0016 -1.2698
28639SOL    HW291754   7.009   5.487   4.881  1.5768 -0.8604 -1.6407
28640SOL     OW91755   8.746   0.460   3.867 -0.2282 -0.4341  0.1716
28640SOL    HW191756   8.682   0.485   3.933 -0.1327  1.0049 -0.2472
28640SOL    HW291757   8.767   0.369   3.887 -1.5422 -0.5757  1.0028
28641SOL     OW91758   6.162   6.936   2.350  0.0192 -0.2860 -0.3350
28641SOL    HW191759   6.206   7.002   2.297 -0.2816 -1.6079 -2.3280
28641SOL    HW291760   6.213   6.932   2.431 -0.8149  3.3890  0.5485
28642SOL     OW91761   3.700   9.017   7.122  0.2340 -0.3116  0.1139
28642SOL    HW191762   3.658   8.934   7.097  0.1543 -0.8440  1.8870
28642SOL    HW291763   3.655   9.043   7.203  1.1581  0.7874  0.2970
28643SOL     OW91764   0.610   7.046   5.305 -0.2804  0.4068 -0.2437
28643SOL    HW191765   0.603   6.971   5.247 -0.7350  0.9021 -0.8450
28643SOL    HW291766   0.622   7.008   5.392 -1.7705 -0.3896 -0.3607
28644SOL     OW91767   7.717   4.437  10.810  0.1808  0.3024  0.4889
28644SOL    HW191768   7.765   4.499  10.865 -0.3319  1.8998 -0.7933
28644SOL    HW291769   7.783   4.402  10.750  0.5415 -0.7042  1.4382
28645SOL     OW91770   2.377   5.255   9.514  0.7043  0.0154 -0.3572
28645SOL    HW191771   2.419   5.218   9.592 -0.3593 -0.5892 -0.0539
28645SOL    HW291772   2.438   5.236   9.442  0.2381 -2.3090 -0.2008
28646SOL     OW91773   6.889   2.124   0.815 -0.2145 -0.0663  0.4533
28646SOL    HW191774   6.901   2.183   0.741 -0.3126  0.5009  0.8841
28646SOL    HW291775   6.895   2.036   0.777  0.5103  0.2175 -0.0976
28647SOL     OW91776   2.881   9.265   7.920  0.4636 -0.7380  0.1538
28647SOL    HW191777   2.962   9.233   7.882  0.3624  0.0778 -0.7690
28647SOL    HW291778   2.842   9.187   7.962  0.2983 -1.8239 -1.8787
28648SOL     OW91779  10.760   5.882   7.216  0.2740 -0.4977 -0.2979
28648SOL    HW191780  10.839   5.934   7.230 -0.7224  1.4212 -1.3799
28648SOL    HW291781  10.792   5.800   7.179  1.8031 -0.0999  0.0643
28649SOL     OW91782   8.511   6.456   1.037  0.5311 -0.0742  0.3409
28649SOL    HW191783   8.531   6.364   1.058 -0.8001 -1.2346 -2.7998
28649SOL    HW291784   8.430   6.451   0.985  0.9316  2.8114 -0.7196
28650SOL     OW91785   4.203   6.037  10.734  1.0334  0.2182  0.1639
28650SOL    HW191786   4.125   5.981  10.744  0.3360  0.7523 -1.7942
28650SOL    HW291787   4.245   6.035  10.819 -0.7909 -0.6122  1.0979
28651SOL     OW91788   9.050   2.782   0.040 -0.7298  0.3067 -0.4196
28651SOL    HW191789   9.093   2.863   0.013  0.9542 -0.5118 -0.2985
28651SOL    HW291790   9.043   2.788   0.135  0.8899 -0.3574 -0.2300
28652SOL     OW91791   1.584  10.357   8.910 -0.0174 -0.2213  0.8144
28652SOL    HW191792   1.634  10.308   8.975  0.3793  0.9121  1.3970
28652SOL    HW291793   1.493  10.340   8.931  0.1124 -1.4153  0.4431
28653SOL     OW91794   9.926   1.434   5.023 -0.1104 -0.0921  0.4039
28653SOL    HW191795   9.873   1.483   4.961  2.0749  0.8294 -0.8510
28653SOL    HW291796   9.868   1.420   5.099 -1.4513  2.7153  0.0373
28654SOL     OW91797   4.405   8.950   4.240 -0.8052 -0.5358  0.1427
28654SOL    HW191798   4.382   9.000   4.162 -0.4815  0.8826  0.9251
28654SOL    HW291799   4.380   9.006   4.313  1.1704 -0.7532  1.0490
28655SOL     OW91800   3.405   2.708   3.165 -0.4214  0.1197  0.0090
28655SOL    HW191801   3.431   2.750   3.247 -0.3974  0.5547 -0.2130
28655SOL    HW291802   3.484   2.663   3.135 -0.5035 -0.2567  0.3515
28656SOL     OW91803   7.214   1.260   6.803  0.3172 -0.2939  0.3133
28656SOL    HW191804   7.140   1.203   6.785  0.8501 -0.7595 -0.4531
28656SOL    HW291805   7.290   1.213   6.769  0.9520  0.2445  0.9356
28657SOL     OW91806   7.017   3.410  10.039  0.2491  1.0240 -0.4938
28657SOL    HW191807   7.068   3.466   9.981 -0.8516  1.0736 -1.4476
28657SOL    HW291808   7.043   3.321  10.015  1.1271  1.0722  0.2116
28658SOL     OW91809   8.471   4.590   8.693  0.2461  0.1106 -0.1715
28658SOL    HW191810   8.556   4.563   8.659  0.0115 -2.5668  1.1343
28658SOL    HW291811   8.490   4.624   8.781  0.0454  0.0691 -0.1111
28659SOL     OW91812   8.735   2.156   6.158  0.6071 -0.4014  0.1561
28659SOL    HW191813   8.660   2.184   6.105 -0.7147 -3.6676  0.0834
28659SOL    HW291814   8.807   2.147   6.096  0.5910  0.9614 -0.0906
28660SOL     OW91815   1.908   2.067   7.196 -0.0410 -0.4534 -0.2768
28660SOL    HW191816   1.877   2.044   7.283 -0.9175 -0.6303 -0.6168
28660SOL    HW291817   1.989   2.116   7.210  0.4410 -1.4610  0.5788
28661SOL     OW91818   8.438   9.425   7.410 -0.6834  0.1382 -0.1440
28661SOL    HW191819   8.508   9.394   7.467 -0.7381  0.4485  0.0936
28661SOL    HW291820   8.357   9.402   7.456 -0.7219  1.1713  0.3287
28662SOL     OW91821   2.982   3.508   8.217 -0.2415  0.5769 -0.3118
28662SOL    HW191822   2.961   3.430   8.268 -0.5713  0.4700 -0.6127
28662SOL    HW291823   2.973   3.481   8.126 -1.1407  1.1819 -0.4157
28663SOL     OW91824   8.842   1.386   8.068 -0.0542  0.8223  0.0980
28663SOL    HW191825   8.820   1.479   8.067  1.6655  1.2607  0.1645
28663SOL    HW291826   8.846   1.360   7.976 -1.0630  0.6649  0.0906
28664SOL     OW91827   6.273   1.446   1.063 -0.0574  0.2211  0.0273
28664SOL    HW191828   6.299   1.420   1.152  0.7617 -0.8545 -0.5037
28664SOL    HW291829   6.318   1.528   1.048  0.6864 -0.1453  0.2107
28665SOL     OW91830   1.186   9.283   2.560 -0.3544 -0.0703 -0.4387
28665SOL    HW191831   1.182   9.257   2.468 -1.3749 -0.9154 -0.1689
28665SOL    HW291832   1.161   9.205   2.608  0.6596  0.2187  0.5968
28666SOL     OW91833   1.841   5.805   7.572  0.2270  0.5697  0.2037
28666SOL    HW191834   1.870   5.720   7.605 -0.0375  0.3748 -0.0611
28666SOL    HW291835   1.820   5.856   7.651 -2.0287 -0.4598  0.3421
28667SOL     OW91836   2.114   6.433   0.107  0.7557 -0.4202 -0.0893
28667SOL    HW191837   2.046   6.412   0.172 -2.2546  1.3386 -2.3838
28667SOL    HW291838   2.164   6.504   0.147 -0.0109 -0.4287  0.9306
28668SOL     OW91839   6.915   9.452   9.260 -0.1111 -0.1542  0.2615
28668SOL    HW191840   7.000   9.496   9.262 -0.2378  0.1154 -0.1126
28668SOL    HW291841   6.862   9.505   9.201 -0.2735 -0.8058 -0.1894
28669SOL     OW91842   8.670   7.575   7.943 -0.5417 -0.6035 -0.1506
28669SOL    HW191843   8.574   7.571   7.940 -0.5821  0.1885 -2.5436
28669SOL    HW291844   8.690   7.666   7.961 -0.2769 -0.5526 -0.6699
28670SOL     OW91845   8.941   4.462  10.832 -0.7069 -0.0222 -0.1092
28670SOL    HW191846   8.879   4.470  10.759 -0.0295 -0.4837 -0.7544
28670SOL    HW291847   8.919   4.379  10.874 -0.2973 -0.3748 -0.5746
28671SOL     OW91848   0.782   3.579   4.648  0.2801  0.3983 -0.7408
28671SOL    HW191849   0.705   3.605   4.698  1.3023  1.2204  0.4776
28671SOL    HW291850   0.851   3.570   4.714  1.1756 -0.5669 -1.7676
28672SOL     OW91851   5.026  10.788  10.780  0.3191  0.5096  0.0921
28672SOL    HW191852   5.117  10.782  10.811  0.5781 -3.2614 -0.8863
28672SOL    HW291853   5.034  10.799  10.685 -0.3394  1.6300  0.1452
28673SOL     OW91854   5.815   6.923   4.032  0.2350 -0.1565 -0.1138
28673SOL    HW191855   5.795   6.834   4.002  0.5295  0.2023 -1.4638
28673SOL    HW291856   5.793   6.923   4.125  1.5359 -2.0333  0.2423
28674SOL     OW91857   6.806   6.740   0.552 -0.8421 -0.3203 -0.1581
28674SOL    HW191858   6.815   6.824   0.507 -2.2047  0.8751  1.6480
28674SOL    HW291859   6.851   6.752   0.635 -0.4358 -1.6550 -0.1599
28675SOL     OW91860   5.862   0.824   1.564  0.0562 -0.0442 -0.2829
28675SOL    HW191861   5.828   0.735   1.562  1.3330 -0.5566 -0.1612
28675SOL    HW291862   5.936   0.823   1.504  1.0215  0.5204  0.8578
28676SOL     OW91863   8.086   8.585   6.195  0.2789 -0.1917 -0.0168
28676SOL    HW191864   8.135   8.531   6.132 -0.6621 -0.2611 -0.7122
28676SOL    HW291865   8.056   8.660   6.144  1.2124  0.7941  0.8488
28677SOL     OW91866   6.905   1.864   8.934 -0.1204  0.7452  0.1907
28677SOL    HW191867   6.953   1.816   9.002  1.5569  0.3649 -1.1595
28677SOL    HW291868   6.834   1.908   8.980  0.8089  0.3256  2.1265
28678SOL     OW91869   3.844  10.395   1.641  0.2542 -0.2669  0.0085
28678SOL    HW191870   3.786  10.346   1.699  1.0925 -1.8560 -0.4465
28678SOL    HW291871   3.918  10.418   1.697  0.7392 -1.1929 -0.2395
28679SOL     OW91872   1.594  10.307   5.171  0.2258  0.2042 -0.0478
28679SOL    HW191873   1.539  10.243   5.125 -0.0708  1.0163 -0.8403
28679SOL    HW291874   1.664  10.327   5.109  0.1306  0.9037  0.0692
28680SOL     OW91875   8.449   6.293   5.829  0.3447  0.2928  0.4372
28680SOL    HW191876   8.374   6.337   5.870 -0.5171  0.5460 -1.3085
28680SOL    HW291877   8.523   6.350   5.849 -0.0434  0.4046  1.6226
28681SOL     OW91878   6.057   1.312   1.748  0.1078 -0.1097  0.0767
28681SOL    HW191879   6.030   1.245   1.811  0.7422  0.0397  0.5196
28681SOL    HW291880   6.139   1.346   1.783 -0.7903  1.7620  0.5476
28682SOL     OW91881   8.655   2.746  10.144 -0.2366 -0.0498  0.2029
28682SOL    HW191882   8.601   2.711  10.215  0.3448 -1.1700  0.1086
28682SOL    HW291883   8.740   2.762  10.185 -0.2857  0.5921  0.0695
28683SOL     OW91884   2.410   0.684   7.182 -0.0888  0.2385 -0.2980
28683SOL    HW191885   2.366   0.599   7.190 -0.3345  0.4117  0.3209
28683SOL    HW291886   2.397   0.710   7.091 -0.6419 -0.0511 -0.3046
28684SOL     OW91887   8.054   5.997   9.731  0.1289  0.3282 -0.1130
28684SOL    HW191888   8.099   5.936   9.790  0.5466 -0.5405 -1.2617
28684SOL    HW291889   7.961   5.977   9.742  0.0480  1.5321  1.6493
28685SOL     OW91890   2.966  10.686   3.819  0.1494 -0.4154 -0.0515
28685SOL    HW191891   2.941  10.778   3.833  3.5731  0.5056  1.0015
28685SOL    HW291892   2.925  10.639   3.892  2.0347  1.1495  2.1704
28686SOL     OW91893   9.692  10.575   8.136 -0.0526 -0.1942 -0.0868
28686SOL    HW191894   9.720  10.533   8.055 -1.1330 -2.4703  0.6205
28686SOL    HW291895   9.615  10.626   8.112  0.7229  0.6758 -0.7973
28687SOL     OW91896   3.257   3.449  10.188 -0.1063 -0.2521 -0.3259
28687SOL    HW191897   3.340   3.481  10.223  1.0282 -0.7752 -2.3383
28687SOL    HW291898   3.251   3.358  10.217 -0.2699 -0.0514  0.2812
28688SOL     OW91899   2.312   5.113  10.461 -0.3887  0.2631  0.1386
28688SOL    HW191900   2.391   5.062  10.443  0.4216  1.1924  0.9638
28688SOL    HW291901   2.248   5.081  10.397  0.6087 -0.5930 -0.4642
28689SOL     OW91902   2.892   9.787   1.146  0.0967 -0.1289 -0.5103
28689SOL    HW191903   2.886   9.735   1.226 -0.2924 -1.5751 -1.4489
28689SOL    HW291904   2.911   9.724   1.077  0.6227  1.1142 -1.5492
28690SOL     OW91905   5.458   4.286   2.499 -0.2316 -0.1142  0.5857
28690SOL    HW191906   5.450   4.270   2.405 -0.9219 -0.9181  0.7703
28690SOL    HW291907   5.426   4.206   2.540 -0.7316  0.5476  1.5210
28691SOL     OW91908   3.883   8.850   0.315  0.4955  0.1081 -0.0523
28691SOL    HW191909   3.834   8.780   0.272  1.7218 -0.2499 -0.8917
28691SOL    HW291910   3.864   8.928   0.263 -0.7670  0.4095  0.8084
28692SOL     OW91911   7.822   9.980  10.727  0.4759  0.3332  0.1517
28692SOL    HW191912   7.872  10.044  10.778  0.4068  0.9049 -0.4678
28692SOL    HW291913   7.843  10.002  10.636 -0.2482  0.0426 -0.0918
28693SOL     OW91914  10.329   0.002   5.076 -0.1896  0.2751 -0.3192
28693SOL    HW191915  10.362  -0.054   5.006  1.7431  0.5785  0.2908
28693SOL    HW291916  10.365   0.089   5.057  0.2313  0.3963  0.9388
28694SOL     OW91917  10.234   6.663   5.312  0.3216 -0.2140  0.4891
28694SOL    HW191918  10.260   6.605   5.240 -0.4654  2.8156 -2.4985
28694SOL    HW291919  10.315   6.705   5.340  0.4490 -0.3913  0.3878
28695SOL     OW91920   1.034   4.554   5.430 -0.1881 -0.2210  0.0692
28695SOL    HW191921   1.071   4.511   5.353  0.1554 -1.8494  1.0959
28695SOL    HW291922   1.033   4.647   5.407  1.5786 -0.4657 -1.2051
28696SOL     OW91923   7.366   3.075   5.697  0.4689  0.1414  0.4242
28696SOL    HW191924   7.280   3.100   5.664  0.2041  0.3900  1.2739
28696SOL    HW291925   7.428   3.118   5.638  0.0138  1.6542  1.0065
28697SOL     OW91926   8.819   9.132   9.565  0.4065 -0.4517 -0.5735
28697SOL    HW191927   8.880   9.167   9.630  1.0440 -1.1459 -0.7867
28697SOL    HW291928   8.854   9.045   9.543  0.1898 -0.2378 -1.8320
28698SOL     OW91929   2.266   3.397   4.170 -0.3456  0.0372 -0.3121
28698SOL    HW191930   2.276   3.471   4.110  0.1244 -0.4877 -0.9043
28698SOL    HW291931   2.310   3.324   4.126 -1.4689 -0.8029 -0.0991
28699SOL     OW91932  10.578   6.386   1.395  0.9408  0.1328 -0.4093
28699SOL    HW191933  10.610   6.354   1.311 -1.0778  0.0662 -1.2077
28699SOL    HW291934  10.596   6.316   1.456 -0.1129 -1.0391 -1.3877
28700SOL     OW91935   9.026   7.752   1.849 -0.1353 -0.6000  0.1703
28700SOL    HW191936   9.091   7.822   1.860  0.6344 -1.3590  0.5969
28700SOL    HW291937   9.038   7.696   1.925  1.5522 -2.9974 -1.6979
28701SOL     OW91938   6.645   9.556   5.006 -0.1253 -0.3712  0.2519
28701SOL    HW191939   6.550   9.560   5.018 -0.7380 -3.2070 -2.3735
28701SOL    HW291940   6.679   9.524   5.090 -1.4078  0.7772  1.2504
28702SOL     OW91941   9.700   7.263   0.231 -0.1203  0.1971  0.2117
28702SOL    HW191942   9.768   7.268   0.298 -0.0974 -1.6761  0.3740
28702SOL    HW291943   9.722   7.333   0.170  0.7704  0.9256  1.3189
28703SOL     OW91944   5.841   3.569   7.094 -0.3934 -0.5073  0.2694
28703SOL    HW191945   5.861   3.657   7.064 -0.8526 -0.1326  1.0368
28703SOL    HW291946   5.746   3.566   7.098 -0.5054 -1.6960 -1.6413
28704SOL     OW91947   3.449   0.449   9.567  0.1345  0.5058 -0.3451
28704SOL    HW191948   3.402   0.440   9.650 -2.2454 -0.1152 -1.6734
28704SOL    HW291949   3.487   0.537   9.571 -0.5472  0.7710  1.0969
28705SOL     OW91950  10.021  10.590   6.056  0.0373 -0.5596  0.0046
28705SOL    HW191951   9.929  10.614   6.063 -0.0288 -0.8706  0.1757
28705SOL    HW291952  10.062  10.666   6.014 -0.7631 -1.4536 -2.5891
28706SOL     OW91953   3.475  10.054   2.242  0.2390 -0.1659  0.3062
28706SOL    HW191954   3.549  10.041   2.302  0.8200  3.1225  0.4801
28706SOL    HW291955   3.398  10.051   2.299  0.4016 -1.3308  0.4873
28707SOL     OW91956   1.770   0.689   9.146 -0.1818  0.1769  0.2262
28707SOL    HW191957   1.787   0.742   9.224 -0.5063  1.9004 -0.8266
28707SOL    HW291958   1.674   0.686   9.140 -0.2169  2.0927 -1.3526
28708SOL     OW91959   6.034   6.629   8.931 -0.1707  0.3961 -0.2020
28708SOL    HW191960   6.113   6.683   8.939  0.5012 -0.5049 -0.5278
28708SOL    HW291961   5.962   6.689   8.947  0.5668  1.3359 -0.3080
28709SOL     OW91962   0.327  10.690   1.204 -0.3529  0.2775 -0.8526
28709SOL    HW191963   0.284  10.681   1.119  1.0798  0.5197 -1.6458
28709SOL    HW291964   0.409  10.641   1.195 -0.0835  0.4724  0.3199
28710SOL     OW91965   7.976  10.276   5.274  0.7021 -0.1979 -0.3516
28710SOL    HW191966   8.063  10.269   5.313  0.9911  1.0136 -0.7320
28710SOL    HW291967   7.925  10.326   5.338  0.3411 -0.7214 -0.2247
28711SOL     OW91968   3.690   3.484  10.565 -0.3825 -0.3223 -0.4470
28711SOL    HW191969   3.655   3.416  10.621 -0.5614  1.0363  1.1719
28711SOL    HW291970   3.749   3.438  10.505 -0.3260 -1.8501  0.7274
28712SOL     OW91971   6.636   3.680   7.326 -0.0400  0.2595  0.1529
28712SOL    HW191972   6.639   3.726   7.410  0.4178  0.7593 -0.1240
28712SOL    HW291973   6.727   3.653   7.310  0.2369  1.7404 -1.0057
28713SOL     OW91974   3.763   0.836   9.643  0.3321  0.3521 -0.5975
28713SOL    HW191975   3.845   0.857   9.687  0.2336  2.6862 -1.3850
28713SOL    HW291976   3.762   0.893   9.565 -1.4153 -0.5870 -1.3195
28714SOL     OW91977   1.290   5.190   5.210  0.5456  0.0620 -0.3061
28714SOL    HW191978   1.204   5.219   5.242  1.4169  1.0308  1.2881
28714SOL    HW291979   1.338   5.271   5.193  1.6560 -0.4473  0.2795
28715SOL     OW91980   0.016   8.741   1.776 -0.2146  0.1818 -0.0545
28715SOL    HW191981  -0.040   8.665   1.795 -1.9934  1.5394  0.3397
28715SOL    HW291982   0.100   8.718   1.815 -1.1035 -1.0325  1.2570
28716SOL     OW91983   2.193   4.347   1.711 -0.0244 -0.0361 -0.0180
28716SOL    HW191984   2.116   4.390   1.747  1.1788  0.6301  1.9104
28716SOL    HW291985   2.232   4.413   1.653 -0.2095  0.0890 -0.0011
28717SOL     OW91986   1.642   9.788   9.923  0.1764  0.1244 -0.4160
28717SOL    HW191987   1.692   9.706   9.920 -0.0798 -0.0542  0.0554
28717SOL    HW291988   1.703   9.851   9.962 -0.4713 -0.4908  1.7074
28718SOL     OW91989   0.940  10.190   4.129  0.3993 -0.1951  0.1027
28718SOL    HW191990   0.949  10.182   4.224 -1.4715  0.3505  0.3705
28718SOL    HW291991   1.007  10.253   4.104  0.2498  0.4489  1.2261
28719SOL     OW91992   7.719   6.042   1.512 -0.2200 -0.0006  0.1185
28719SOL    HW191993   7.781   6.016   1.445  0.3495 -2.4652  1.4761
28719SOL    HW291994   7.757   6.121   1.551  0.2084  0.5645 -1.3842
28720SOL     OW91995   2.040   0.665   3.015  0.7294 -0.4305  0.0669
28720SOL    HW191996   1.958   0.618   3.031  1.1687 -1.1798  0.1756
28720SOL    HW291997   2.050   0.723   3.091 -0.8250  1.3484 -1.0196
28721SOL     OW91998   8.860  10.249   0.754  0.0174 -0.3365  0.5905
28721SOL    HW191999   8.925  10.303   0.800  1.2868  0.4974 -1.9689
28721SOL    HW292000   8.883  10.159   0.777  0.9337  0.0309  1.1624
28722SOL     OW92001   4.748   7.632   7.430 -0.1049  0.6735 -0.1166
28722SOL    HW192002   4.761   7.548   7.475  0.1852  1.5048  1.4126
28722SOL    HW292003   4.820   7.687   7.461 -0.8359  1.7999 -0.3619
28723SOL     OW92004   3.798   3.385   9.877 -0.2051 -0.1128  0.3761
28723SOL    HW192005   3.704   3.378   9.858  0.1895 -0.4487 -1.7382
28723SOL    HW292006   3.834   3.434   9.803  1.6380 -2.1250 -0.1722
28724SOL     OW92007   1.623   1.008   3.115  0.2226 -0.1862 -0.4780
28724SOL    HW192008   1.665   0.993   3.031  0.1046  0.1996 -0.6091
28724SOL    HW292009   1.535   1.041   3.093 -0.9237 -2.8339 -0.2345
28725SOL     OW92010   3.286   4.326   6.396  0.1445  0.5842  0.0900
28725SOL    HW192011   3.297   4.419   6.375 -0.4569  0.7407  0.4458
28725SOL    HW292012   3.212   4.298   6.343 -0.9256  0.8034  1.4062
28726SOL     OW92013   6.961   0.267   6.818  0.1329  0.1652  0.0465
28726SOL    HW192014   6.999   0.333   6.876 -0.7305 -0.7444  1.7661
28726SOL    HW292015   7.006   0.278   6.735  1.9634  1.0920  1.0941
28727SOL     OW92016   7.658   4.793   4.434 -0.1572  0.0770 -0.1281
28727SOL    HW192017   7.751   4.789   4.411  0.6677  0.1649  2.8033
28727SOL    HW292018   7.626   4.870   4.388  1.4787  0.6397 -0.3973
28728SOL     OW92019   8.329   0.731   8.760 -0.1435  0.4743  0.1440
28728SOL    HW192020   8.303   0.656   8.815  1.8096 -0.0239  0.4672
28728SOL    HW292021   8.263   0.797   8.778 -1.2318 -0.7347  0.8155
28729SOL     OW92022   0.332   1.824   5.490 -0.2957 -0.2430  0.8048
28729SOL    HW192023   0.276   1.896   5.519 -0.0229 -0.0186  0.7738
28729SOL    HW292024   0.361   1.849   5.403  1.3876  0.5624  1.5407
28730SOL     OW92025   9.752   3.087   0.331 -0.0453 -0.7924  0.7777
28730SOL    HW192026   9.688   3.098   0.402 -0.6348  1.0906  0.0058
28730SOL    HW292027   9.832   3.129   0.364  0.5372 -2.2840  1.3514
28731SOL     OW92028   3.826   6.745   2.254 -0.4989  0.1148  0.2523
28731SOL    HW192029   3.751   6.764   2.309  0.1879  1.3277  0.7998
28731SOL    HW292030   3.801   6.778   2.167 -0.3875  1.0430  0.5639
28732SOL     OW92031   0.066   2.976  10.350  0.3581  0.7517 -0.0684
28732SOL    HW192032   0.081   3.062  10.389  1.3713  0.2300  0.7543
28732SOL    HW292033  -0.025   2.956  10.370  0.6865  0.7547  1.5726
28733SOL     OW92034   8.875   7.698   8.618 -0.8062  0.2939  0.2268
28733SOL    HW192035   8.871   7.686   8.713 -0.8612  1.8635  0.4503
28733SOL    HW292036   8.938   7.769   8.606  0.9717 -1.3790 -1.0857
28734SOL     OW92037   2.345  10.517   0.285 -0.1897 -0.3742  0.5384
28734SOL    HW192038   2.259  10.554   0.303 -0.2875 -0.2427 -0.1977
28734SOL    HW292039   2.335  10.423   0.300  0.2022 -0.1025  2.9990
28735SOL     OW92040   2.499   8.613   4.227  0.5265 -0.2935 -0.4924
28735SOL    HW192041   2.593   8.605   4.212  0.5144 -1.8020  0.1281
28735SOL    HW292042   2.491   8.645   4.317  0.4419  0.7533 -0.8556
28736SOL     OW92043   3.062   7.920   4.371  0.2544 -0.2560 -0.5815
28736SOL    HW192044   2.989   7.859   4.366  0.1994 -0.3321  0.7648
28736SOL    HW292045   3.030   7.999   4.328 -0.4749 -0.4254 -0.3661
28737SOL     OW92046   2.432   6.720   0.064 -0.1764 -0.1223  0.0500
28737SOL    HW192047   2.426   6.815   0.049 -0.5637 -0.3805 -1.7141
28737SOL    HW292048   2.388   6.706   0.147 -0.9563  1.1341 -0.1184
28738SOL     OW92049   5.075   0.807   1.288  0.1799 -0.1408 -0.1796
28738SOL    HW192050   5.064   0.826   1.381  0.3289 -4.1024  0.8398
28738SOL    HW292051   4.992   0.768   1.261 -0.2389  1.8618 -2.0996
28739SOL     OW92052   8.839   7.357   5.438  0.1023 -0.2029 -0.1089
28739SOL    HW192053   8.890   7.356   5.357  0.7464 -0.9290  0.2958
28739SOL    HW292054   8.903   7.340   5.507 -0.4474  0.3762  0.5569
28740SOL     OW92055   6.918   3.477   3.810 -0.5228  0.0343 -0.2406
28740SOL    HW192056   6.906   3.428   3.892  1.0118  0.8175  0.4933
28740SOL    HW292057   6.955   3.561   3.838  1.9576 -0.4278 -1.8693
28741SOL     OW92058   3.818  10.769  10.842 -0.2140  0.4927 -0.2751
28741SOL    HW192059   3.744  10.809  10.797  0.8132  1.7505 -0.9183
28741SOL    HW292060   3.874  10.735  10.771  0.2746  0.3963  0.1477
28742SOL     OW92061   7.205   5.357   0.878 -0.4260  0.1942  0.5067
28742SOL    HW192062   7.266   5.382   0.947 -0.2182  0.1022  0.3551
28742SOL    HW292063   7.212   5.428   0.814 -2.3980  1.5721  1.6902
28743SOL     OW92064  10.776   9.315   9.381 -0.2786 -0.0232 -0.6253
28743SOL    HW192065  10.755   9.322   9.288 -1.2355 -0.0085 -0.4179
28743SOL    HW292066  10.691   9.315   9.425  0.1389 -0.8074  0.2045
28744SOL     OW92067   4.225   3.216   9.113  0.2348  0.4380  0.0031
28744SOL    HW192068   4.153   3.273   9.141 -2.2026 -0.9664 -2.7794
28744SOL    HW292069   4.269   3.192   9.194 -0.5690  3.6511  1.6000
28745SOL     OW92070   1.637   5.514   2.820  0.9910  1.1917  0.1598
28745SOL    HW192071   1.666   5.464   2.896  0.0779 -1.4177 -1.0671
28745SOL    HW292072   1.717   5.532   2.770  1.1798 -1.6690 -0.7716
28746SOL     OW92073   1.539   8.506   2.379  0.3263  0.9098  0.0722
28746SOL    HW192074   1.466   8.527   2.437 -0.0389 -2.4720  1.0261
28746SOL    HW292075   1.528   8.566   2.305 -3.7182  0.2910 -0.0718
28747SOL     OW92076   6.048   7.052   6.605 -0.3023  0.3604 -0.4101
28747SOL    HW192077   6.063   6.983   6.541 -0.3446 -0.3987  0.3806
28747SOL    HW292078   5.972   7.100   6.572 -1.2981 -0.9736 -0.1731
28748SOL     OW92079   2.279   6.821   4.390 -0.3397  0.4982 -0.1313
28748SOL    HW192080   2.202   6.825   4.333 -1.1272  0.5448  0.8823
28748SOL    HW292081   2.249   6.864   4.471  1.4224  2.4693 -0.4392
28749SOL     OW92082   4.347   8.748   1.714 -0.9687  0.0782  0.0817
28749SOL    HW192083   4.292   8.816   1.752  0.2830  1.6894 -0.8668
28749SOL    HW292084   4.391   8.791   1.641 -0.4557 -1.8901 -0.8290
28750SOL     OW92085   6.373   0.504   5.933  0.5621 -0.5574  0.1358
28750SOL    HW192086   6.415   0.583   5.969  0.3203  0.2284 -1.2625
28750SOL    HW292087   6.396   0.504   5.840 -1.4985 -0.7667 -0.4221
28751SOL     OW92088   8.052   5.649   9.935  0.0055  0.5981 -0.3365
28751SOL    HW192089   8.139   5.651   9.975 -0.3312  2.4559  0.4139
28751SOL    HW292090   7.993   5.671  10.007 -0.9627  0.5215 -1.0983
28752SOL     OW92091   9.810   9.576   8.150 -0.2395  0.4762 -0.2214
28752SOL    HW192092   9.777   9.642   8.088  0.2572 -0.6402 -1.7444
28752SOL    HW292093   9.874   9.527   8.099 -0.1225 -0.7608  1.0814
28753SOL     OW92094   2.264   2.014   9.606 -0.7313 -0.2323 -0.0173
28753SOL    HW192095   2.311   2.052   9.532 -0.4937  0.4811  0.4953
28753SOL    HW292096   2.210   1.945   9.567  0.1737 -0.5579 -0.7095
28754SOL     OW92097   6.059  10.824   3.584 -0.5231  0.4774 -0.1443
28754SOL    HW192098   6.037  10.743   3.538  0.0186 -0.0273  0.4758
28754SOL    HW292099   6.106  10.876   3.519  2.7090 -1.3425  0.5516
28755SOL     OW92100   8.591   5.963   9.783 -0.6585 -0.1539  0.3415
28755SOL    HW192101   8.637   6.023   9.724 -0.0663 -1.9406 -1.1099
28755SOL    HW292102   8.499   5.987   9.775 -0.6599 -0.6501 -1.7760
28756SOL     OW92103   8.765   5.167   0.254 -0.4016  0.1021  0.5234
28756SOL    HW192104   8.744   5.234   0.319 -0.7215  0.7069 -0.1810
28756SOL    HW292105   8.739   5.206   0.170  0.1063 -0.6131  0.0179
28757SOL     OW92106   3.050   1.324  10.541  0.4602  0.6274 -0.2189
28757SOL    HW192107   3.138   1.357  10.528  1.4824 -0.8629  2.2103
28757SOL    HW292108   3.002   1.397  10.580  0.7150  1.3143 -1.1637
28758SOL     OW92109   9.819   6.042   0.914 -0.5079  0.6580 -0.9070
28758SOL    HW192110   9.896   6.078   0.871  0.2815 -0.8668 -0.8275
28758SOL    HW292111   9.774   6.119   0.949  2.1926  1.4938  1.1040
28759SOL     OW92112   1.455   3.348   4.823 -0.4745 -0.1638 -0.2933
28759SOL    HW192113   1.364   3.363   4.848 -1.5104 -2.0652 -2.5114
28759SOL    HW292114   1.488   3.434   4.800 -0.8480  0.9488  2.8218
28760SOL     OW92115  10.720   3.621   2.719 -0.2845 -0.7789  0.7382
28760SOL    HW192116  10.775   3.642   2.794 -1.0494 -1.1565  1.4191
28760SOL    HW292117  10.723   3.526   2.712  2.3065 -0.6593 -1.6824
28761SOL     OW92118   2.086   4.684  10.733 -0.4340 -0.5274  0.1010
28761SOL    HW192119   2.124   4.695  10.821  0.3478  1.4889 -0.4475
28761SOL    HW292120   2.162   4.686  10.674 -1.0646 -0.5359 -0.7209
28762SOL     OW92121  10.598   0.883   3.922  0.0177 -0.0571  0.2952
28762SOL    HW192122  10.629   0.892   3.832  3.0342 -0.9904  1.1240
28762SOL    HW292123  10.518   0.830   3.914 -0.8801  1.4438 -1.9084
28763SOL     OW92124   4.636   8.029   8.802  0.1132 -0.4661 -0.7248
28763SOL    HW192125   4.599   7.990   8.881 -3.3741  1.3578 -1.2404
28763SOL    HW292126   4.695   8.097   8.833  0.3078 -1.0646  0.2410
28764SOL     OW92127   7.907   4.357  10.612  0.1137  0.4245  0.0236
28764SOL    HW192128   7.978   4.294  10.623 -0.0283  0.5795  2.2310
28764SOL    HW292129   7.949   4.434  10.574  0.8929  0.0936  0.1930
28765SOL     OW92130  10.678   9.120   8.179 -0.0370 -0.3191 -0.7615
28765SOL    HW192131  10.751   9.180   8.162  0.1953 -0.2645  0.3434
28765SOL    HW292132  10.662   9.128   8.274 -1.3813 -0.4357 -0.9601
28766SOL     OW92133   8.446   0.990   4.895 -0.1859 -0.1096 -0.1650
28766SOL    HW192134   8.468   0.899   4.915  1.1387 -0.8161 -3.9563
28766SOL    HW292135   8.530   1.031   4.874 -0.9859  1.3725 -0.6245
28767SOL     OW92136   1.882   6.814   9.752  0.2451  0.0131  0.1913
28767SOL    HW192137   1.913   6.748   9.690  0.7423 -0.7344  1.2082
28767SOL    HW292138   1.802   6.776   9.789 -0.1332  0.5228 -0.0887
28768SOL     OW92139   4.409   0.556   5.671 -0.6553 -0.1215 -0.5095
28768SOL    HW192140   4.348   0.501   5.623 -0.8570  0.5029 -0.9805
28768SOL    HW292141   4.472   0.586   5.605 -0.6182  0.3012 -0.2889
28769SOL     OW92142   0.720   3.240   9.636 -0.0351  0.0257 -0.0412
28769SOL    HW192143   0.758   3.167   9.684 -0.3691 -0.3411 -0.3288
28769SOL    HW292144   0.728   3.315   9.695  0.8470 -0.1080  0.0311
28770SOL     OW92145   7.204   1.141  10.047 -0.0381 -0.0580 -0.8504
28770SOL    HW192146   7.283   1.177  10.088 -0.2808  0.6762 -1.0034
28770SOL    HW292147   7.192   1.195   9.969 -0.5757 -0.3023 -0.9382
28771SOL     OW92148   3.501   9.906   7.142  0.3526 -0.1621 -0.7974
28771SOL    HW192149   3.449   9.825   7.142  0.9258 -0.7720  3.5902
28771SOL    HW292150   3.439   9.975   7.163  0.4532  0.0351 -1.1236
28772SOL     OW92151  10.506   3.520   2.881 -0.1094  0.0196 -0.1797
28772SOL    HW192152  10.480   3.428   2.881  3.7797 -1.2988 -0.9794
28772SOL    HW292153  10.509   3.544   2.973 -0.8116 -0.7780  0.0660
28773SOL     OW92154   3.631  10.768   9.319  0.2281 -0.4405  1.1482
28773SOL    HW192155   3.538  10.782   9.302  0.3275 -1.0252  0.0118
28773SOL    HW292156   3.673  10.851   9.296  0.2207 -0.8589 -0.4633
28774SOL     OW92157   8.741   4.277   4.173  0.2450  0.2658  0.1593
28774SOL    HW192158   8.821   4.329   4.161  0.1164 -0.0627 -2.7431
28774SOL    HW292159   8.724   4.238   4.087 -2.7812 -0.0617  0.7835
28775SOL     OW92160   3.007   5.458   5.404  0.1948  0.1765  0.0583
28775SOL    HW192161   2.989   5.523   5.471 -1.2234  0.0631 -0.1772
28775SOL    HW292162   3.012   5.375   5.452 -3.1744 -0.2692 -0.1267
28776SOL     OW92163   7.806   9.516   9.246 -0.0046 -0.3606  0.5930
28776SOL    HW192164   7.791   9.525   9.340  1.3646 -0.2086  0.8190
28776SOL    HW292165   7.900   9.499   9.238 -0.3013 -1.5953 -0.6806
28777SOL     OW92166   9.797   4.633   1.542 -0.0788 -0.6751 -0.0333
28777SOL    HW192167   9.792   4.707   1.603  0.0338 -1.2298  0.6645
28777SOL    HW292168   9.763   4.667   1.460 -1.6209 -0.3076  0.7201
28778SOL     OW92169   8.764   0.919   9.901  0.4257 -0.0014  0.3390
28778SOL    HW192170   8.788   0.991   9.843 -0.6558 -0.0280 -0.1704
28778SOL    HW292171   8.808   0.939   9.984 -1.2822  2.2148  0.8011
28779SOL     OW92172   9.894   9.842   4.371  0.4344 -0.4248 -0.3597
28779SOL    HW192173   9.947   9.914   4.336  0.4066 -0.2775 -0.0993
28779SOL    HW292174   9.804   9.873   4.365  0.5590  0.7795  2.4265
28780SOL     OW92175   1.749   8.462   8.379  0.0045  0.5224 -0.3370
28780SOL    HW192176   1.779   8.448   8.468 -0.9845 -1.9823 -0.3220
28780SOL    HW292177   1.806   8.531   8.345  1.3543  0.5167  1.7432
28781SOL     OW92178   6.738   5.755   0.844 -0.4733  0.1805 -0.3264
28781SOL    HW192179   6.652   5.780   0.812 -0.3387 -0.8769 -1.5901
28781SOL    HW292180   6.741   5.787   0.934 -2.5486 -0.6245  0.0615
28782SOL     OW92181   3.827   1.789   8.230  0.7581 -0.0659  0.1535
28782SOL    HW192182   3.892   1.856   8.251  0.8700 -0.2362  0.3396
28782SOL    HW292183   3.743   1.836   8.235  0.9092  0.3786 -0.9574
28783SOL     OW92184   2.123   8.651   0.283  0.0095  0.2912  0.1857
28783SOL    HW192185   2.141   8.657   0.377 -1.1892 -3.3405  0.8037
28783SOL    HW292186   2.179   8.580   0.252 -1.2882 -0.1143 -1.3644
28784SOL     OW92187   9.035   2.437   9.089  0.1026 -0.4068 -0.8083
28784SOL    HW192188   9.115   2.439   9.141 -0.6226  2.0002  0.3610
28784SOL    HW292189   8.974   2.385   9.141 -0.1897  0.8491  0.1624
28785SOL     OW92190   3.572   2.948   2.683  0.2351 -0.0683  0.7273
28785SOL    HW192191   3.596   2.878   2.744 -0.5693 -0.7705  0.2627
28785SOL    HW292192   3.611   3.027   2.721  2.7006 -1.0026  0.3368
28786SOL     OW92193   1.734  10.038   6.451  0.1498  0.0173 -0.1871
28786SOL    HW192194   1.812  10.003   6.409  0.0155  0.8827 -1.2097
28786SOL    HW292195   1.767  10.085   6.527  0.5755 -0.0553 -0.3242
28787SOL     OW92196   7.024   4.494   3.826 -0.2565 -0.3865  0.7369
28787SOL    HW192197   6.951   4.496   3.764 -0.6547 -1.2489  1.1649
28787SOL    HW292198   7.101   4.512   3.772 -0.7627  0.4405  0.2650
28788SOL     OW92199   9.987   5.471   2.708 -0.0129  0.4504 -0.0942
28788SOL    HW192200   9.973   5.384   2.747 -2.6125  0.4604 -0.7818
28788SOL    HW292201   9.904   5.516   2.721  0.5925  2.0936 -1.5934
28789SOL     OW92202   8.568   8.232   9.611  0.2059  0.1689  0.2149
28789SOL    HW192203   8.642   8.194   9.563 -0.5615 -0.0060 -0.8857
28789SOL    HW292204   8.526   8.290   9.547 -0.9728 -0.2246  0.5960
28790SOL     OW92205   0.601   7.887   9.982 -0.1059 -0.2059  0.4794
28790SOL    HW192206   0.651   7.865   9.903  0.0269 -0.5496  0.6577
28790SOL    HW292207   0.589   7.982   9.977 -0.3050 -0.2561 -0.0761
28791SOL     OW92208  10.028   5.962   5.802  0.1292  0.4329  0.1190
28791SOL    HW192209  10.047   6.022   5.730  0.5022 -0.7996 -0.8570
28791SOL    HW292210  10.000   5.881   5.758  0.9544 -0.5448  1.3361
28792SOL     OW92211  10.757   3.947   0.041 -0.0139 -0.4532 -0.0557
28792SOL    HW192212  10.703   4.017   0.077 -0.1191 -0.8578  0.5825
28792SOL    HW292213  10.846   3.970   0.065 -0.0190 -0.3989 -0.0882
28793SOL     OW92214   9.391   8.036   2.704  0.0919  0.7047  0.0261
28793SOL    HW192215   9.368   8.046   2.797  2.0468  0.9072  0.5323
28793SOL    HW292216   9.354   7.952   2.679 -0.3020  0.5613  1.0559
28794SOL     OW92217   0.365   0.818   0.284  0.6039 -1.0564 -0.0238
28794SOL    HW192218   0.397   0.881   0.349 -1.3792 -1.3651  1.3427
28794SOL    HW292219   0.307   0.760   0.333 -0.2254 -1.8995 -1.8921
28795SOL     OW92220   7.322   9.871   6.762  0.0230 -0.0356  0.0609
28795SOL    HW192221   7.388   9.921   6.714  1.3142 -1.0297  0.7328
28795SOL    HW292222   7.310   9.791   6.711 -0.4559  0.0031  0.1040
28796SOL     OW92223  10.636   1.977   2.507 -0.4301 -0.4109 -0.1572
28796SOL    HW192224  10.562   1.962   2.449 -0.3349 -0.8478 -0.1724
28796SOL    HW292225  10.707   2.006   2.449 -0.7645  0.6510 -0.0634
28797SOL     OW92226   4.585   9.957   7.342  0.6166 -0.0681  0.7939
28797SOL    HW192227   4.495   9.940   7.369  0.9771 -3.3563  0.4157
28797SOL    HW292228   4.577  10.005   7.260 -0.5926  3.6670  2.8875
28798SOL     OW92229   5.924   9.855   1.837  0.1005 -0.3409 -0.5135
28798SOL    HW192230   5.966   9.940   1.825 -2.0265  0.6652 -1.3156
28798SOL    HW292231   5.834   9.868   1.809 -1.2836 -1.9148  2.7247
28799SOL     OW92232   5.891   8.675  10.489  0.2803 -0.1178  0.0882
28799SOL    HW192233   5.897   8.726  10.408 -1.6046 -1.1746 -0.7865
28799SOL    HW292234   5.846   8.734  10.550  2.7360  1.1168  0.8242
28800SOL     OW92235   2.515   2.408   5.064 -0.5393  0.9079  0.4357
28800SOL    HW192236   2.604   2.439   5.051 -0.3184  0.5906  1.2039
28800SOL    HW292237   2.471   2.480   5.109 -1.3547  2.0788 -2.0206
28801SOL     OW92238   3.342   5.175   2.316 -0.1862 -0.1016 -0.5299
28801SOL    HW192239   3.308   5.140   2.398  1.5953 -1.4833 -0.3206
28801SOL    HW292240   3.418   5.227   2.341  2.2830 -2.9820 -1.3621
28802SOL     OW92241  10.266   1.563   0.225  0.7218 -0.2025 -0.5142
28802SOL    HW192242  10.284   1.647   0.183  1.5146 -0.4957 -0.7677
28802SOL    HW292243  10.189   1.529   0.179 -0.1040  0.7396  0.1263
28803SOL     OW92244   3.700   6.023   0.134 -0.4010  0.0306 -0.4577
28803SOL    HW192245   3.774   6.076   0.104 -0.2910  1.9253  2.6878
28803SOL    HW292246   3.740   5.952   0.183 -0.6549 -0.2987 -0.7228
28804SOL     OW92247   1.330   8.470   1.174  0.1556  0.1587 -0.1878
28804SOL    HW192248   1.346   8.441   1.264  1.7345  1.9476  0.1916
28804SOL    HW292249   1.244   8.512   1.177 -0.4462 -1.0493  0.1114
28805SOL     OW92250   6.822   5.810   7.069  0.4520  1.0626 -0.2216
28805SOL    HW192251   6.825   5.792   6.975 -0.0219  0.4048 -0.1149
28805SOL    HW292252   6.842   5.726   7.111 -1.5757  0.7781  0.2869
28806SOL     OW92253   8.385   5.837   8.260  0.5618 -0.0256 -0.6666
28806SOL    HW192254   8.406   5.763   8.318 -0.1957 -1.0469 -1.6397
28806SOL    HW292255   8.414   5.914   8.308  0.8177 -0.9100  0.6610
28807SOL     OW92256  10.577  10.248  10.193  0.3267  0.0348 -0.6013
28807SOL    HW192257  10.555  10.190  10.266  1.7360 -0.9935 -0.9520
28807SOL    HW292258  10.514  10.226  10.125 -1.6480  1.6879  0.5656
28808SOL     OW92259   5.853   5.142   2.342 -0.2500  0.0824  0.2150
28808SOL    HW192260   5.922   5.200   2.311  0.8138 -0.8795  0.6972
28808SOL    HW292261   5.899   5.077   2.396 -1.7811  0.6751  2.3597
28809SOL     OW92262   4.107   3.407  10.804 -0.4433  0.2596 -0.1660
28809SOL    HW192263   4.134   3.445  10.887 -1.5670  3.0636 -0.9639
28809SOL    HW292264   4.083   3.317  10.826 -1.5974  1.1493  2.7842
28810SOL     OW92265   6.781   1.808   8.198 -0.0492  0.2306 -0.0515
28810SOL    HW192266   6.757   1.869   8.127 -0.4726  0.0736 -0.0453
28810SOL    HW292267   6.764   1.721   8.162 -2.8562  0.2004  1.1282
28811SOL     OW92268   6.975  10.163   9.054 -0.3503 -0.2514  0.8672
28811SOL    HW192269   6.920  10.199   9.124 -1.4968 -0.7463  0.2409
28811SOL    HW292270   7.030  10.098   9.098 -1.1782 -0.6760  1.2894
28812SOL     OW92271   2.015   0.930   7.385  0.5118  0.1870 -0.0443
28812SOL    HW192272   2.073   0.977   7.445  1.9248 -1.2754 -0.2063
28812SOL    HW292273   2.066   0.920   7.305 -0.1331 -0.7582 -0.3529
28813SOL     OW92274   2.832  10.157   2.094  0.1040 -0.7208 -0.8480
28813SOL    HW192275   2.774  10.216   2.142 -2.0804 -2.1805 -1.5779
28813SOL    HW292276   2.857  10.207   2.016  1.3993  0.5971  0.3396
28814SOL     OW92277   4.201   2.403   1.872  0.1354 -0.4534  0.3112
28814SOL    HW192278   4.129   2.346   1.898 -2.9650  2.6241 -0.6807
28814SOL    HW292279   4.195   2.407   1.777  1.1613  0.4525  0.2624
28815SOL     OW92280   8.326   1.849   5.494 -0.3974 -0.5637 -0.3775
28815SOL    HW192281   8.238   1.884   5.511 -0.4881 -1.0686  0.2339
28815SOL    HW292282   8.341   1.866   5.402 -0.9755 -0.0986 -0.3925
28816SOL     OW92283   7.748   5.852   8.072  0.3829 -0.2961  0.0527
28816SOL    HW192284   7.678   5.843   8.137 -0.0385 -0.5032 -0.4236
28816SOL    HW292285   7.802   5.924   8.106 -1.8757  2.1436 -1.1422
28817SOL     OW92286   7.474   1.679   0.425 -0.0307 -0.0146 -0.2953
28817SOL    HW192287   7.523   1.756   0.456  0.2090 -0.6576  0.9792
28817SOL    HW292288   7.542   1.617   0.398 -0.2174  0.0511 -0.9358
28818SOL     OW92289   2.711   3.143   8.384  0.1061  0.2697  0.3708
28818SOL    HW192290   2.728   3.050   8.366  1.3658  0.6097 -0.2752
28818SOL    HW292291   2.619   3.155   8.360 -0.9748 -1.4380  3.1388
28819SOL     OW92292   8.468   9.060   8.134  0.7688  0.3534  0.4235
28819SOL    HW192293   8.553   9.027   8.163  0.4829  0.1551  1.0665
28819SOL    HW292294   8.404   9.008   8.184  0.2825  0.8308  0.3097
28820SOL     OW92295   8.158   5.167   1.081 -0.1549 -0.6245  0.1134
28820SOL    HW192296   8.171   5.204   0.994 -0.0927 -0.1422  0.3286
28820SOL    HW292297   8.117   5.237   1.131  1.3644 -0.3036  0.9580
28821SOL     OW92298  10.516   2.921   4.139  0.4053  0.5878 -0.1197
28821SOL    HW192299  10.485   2.919   4.049  1.2670  0.6266 -0.4304
28821SOL    HW292300  10.594   2.866   4.138  0.8989  1.2587  0.4079
28822SOL     OW92301  10.005   3.746   6.299 -0.0101  0.0104 -0.2077
28822SOL    HW192302  10.049   3.829   6.315  0.6876 -0.7564  2.1782
28822SOL    HW292303   9.934   3.743   6.363  0.1895 -1.3912 -0.0193
28823SOL     OW92304   3.127   2.176   8.090 -0.5093  0.1171 -0.0030
28823SOL    HW192305   3.120   2.247   8.027 -1.1612 -0.5721 -0.7112
28823SOL    HW292306   3.037   2.151   8.109 -0.2843 -0.5773  0.1784
28824SOL     OW92307   1.829   7.688   8.380 -0.5879 -0.3023 -0.4578
28824SOL    HW192308   1.903   7.657   8.328 -0.5664  0.3177 -0.8042
28824SOL    HW292309   1.847   7.781   8.394 -2.1502  0.3074 -2.0545
28825SOL     OW92310   7.472   7.070   5.387 -0.3616  0.1050 -0.4509
28825SOL    HW192311   7.459   6.975   5.390 -0.6545  0.1576  0.1668
28825SOL    HW292312   7.564   7.083   5.407  0.2987 -0.1770 -3.0322
28826SOL     OW92313   8.060   1.647   5.584 -0.4861  0.2122  0.5421
28826SOL    HW192314   8.014   1.698   5.517 -1.0386 -0.4533  0.4039
28826SOL    HW292315   8.147   1.632   5.547 -0.5836  0.3766  0.2386
28827SOL     OW92316   6.300   2.154  10.303  0.2523  0.1486 -0.0081
28827SOL    HW192317   6.320   2.219  10.371 -1.3350  1.5890 -0.8456
28827SOL    HW292318   6.323   2.070  10.342  0.0939  1.0050  2.0210
28828SOL     OW92319  10.139   6.050   3.297 -0.1557 -0.5558  0.0615
28828SOL    HW192320  10.208   6.065   3.362  0.2652 -0.6428 -0.3583
28828SOL    HW292321  10.130   5.955   3.292  0.7167 -0.6062 -0.9255
28829SOL     OW92322   0.124   7.009  10.494  0.0632 -0.4289 -0.1290
28829SOL    HW192323   0.044   6.980  10.450 -0.0226 -1.0341  0.4069
28829SOL    HW292324   0.192   7.004  10.427 -0.6462  1.8524 -1.1375
28830SOL     OW92325   8.963   0.334   5.444  0.0017 -0.3916  0.1633
28830SOL    HW192326   8.897   0.353   5.510  0.0823 -1.1588  0.4773
28830SOL    HW292327   8.949   0.242   5.421  1.0392 -0.6122  0.3383
28831SOL     OW92328   7.733   7.941   1.703  0.3424 -0.5494 -0.2708
28831SOL    HW192329   7.775   7.928   1.788 -2.0862  2.1998  1.5484
28831SOL    HW292330   7.639   7.942   1.722 -0.2726  0.7742 -2.8537
28832SOL     OW92331   6.152   8.145   6.451 -0.3767 -0.1622  0.1947
28832SOL    HW192332   6.091   8.176   6.518 -0.5308 -0.8250  0.3654
28832SOL    HW292333   6.219   8.098   6.500 -1.6802 -2.6400 -0.2440
28833SOL     OW92334   3.332   2.619   9.083  0.7548 -0.3335  0.0522
28833SOL    HW192335   3.411   2.597   9.033  0.9043 -0.2477  0.2518
28833SOL    HW292336   3.350   2.588   9.171 -0.4172 -2.6356 -0.4293
28834SOL     OW92337   2.136   2.215   0.589  0.1543 -0.1535  0.1733
28834SOL    HW192338   2.118   2.121   0.582 -0.6965 -0.0117  0.4001
28834SOL    HW292339   2.090   2.243   0.668  0.5872  0.4158  0.2310
28835SOL     OW92340   2.854   2.816   3.361 -0.0698 -0.5465 -0.3940
28835SOL    HW192341   2.808   2.832   3.279 -0.3733  1.2925  0.1060
28835SOL    HW292342   2.787   2.781   3.420 -0.3675  0.1765 -0.2930
28836SOL     OW92343   0.581   2.990   4.430  0.1257 -0.3871 -0.3097
28836SOL    HW192344   0.649   3.004   4.364 -0.7295 -0.6779 -1.2786
28836SOL    HW292345   0.587   2.898   4.452  0.5599 -0.2413  0.1979
28837SOL     OW92346   9.188   4.490   7.397 -0.3823 -0.5698 -0.1595
28837SOL    HW192347   9.213   4.572   7.441  0.1602  0.0960 -1.6394
28837SOL    HW292348   9.270   4.442   7.386 -0.5659 -0.8938 -0.1245
28838SOL     OW92349   7.403   2.640   9.741 -0.2294  0.1115  0.0681
28838SOL    HW192350   7.406   2.701   9.667  0.6370 -0.2497 -0.2107
28838SOL    HW292351   7.419   2.694   9.818 -0.8511  0.4482 -0.0398
28839SOL     OW92352   5.033   4.604   4.579  0.1475  0.1111 -0.4200
28839SOL    HW192353   5.026   4.601   4.484  0.1326 -0.7374 -0.4029
28839SOL    HW292354   5.007   4.693   4.603  0.8509  0.5536 -1.2612
28840SOL     OW92355   8.256   9.892   7.459 -0.5956 -0.2833  0.4233
28840SOL    HW192356   8.258   9.911   7.553  0.5250 -0.3645  0.4239
28840SOL    HW292357   8.214   9.969   7.420 -1.7473 -0.5712  1.0500
28841SOL     OW92358  10.148   2.680   3.120 -0.1199  0.8161  0.0224
28841SOL    HW192359  10.056   2.661   3.137 -0.2123  0.3803 -0.9049
28841SOL    HW292360  10.196   2.605   3.154 -0.0448  1.3363  1.0897
28842SOL     OW92361   4.787   0.456   4.654  0.1897  0.5469  0.5494
28842SOL    HW192362   4.792   0.550   4.674  2.7251  0.3860  1.0994
28842SOL    HW292363   4.766   0.452   4.561 -1.2166  1.6096  0.7946
28843SOL     OW92364   3.135   6.852   4.954 -0.0767 -0.2761  0.1078
28843SOL    HW192365   3.081   6.781   4.986  1.8917 -2.1541 -0.4552
28843SOL    HW292366   3.196   6.871   5.026  0.0795  0.1116 -0.1211
28844SOL     OW92367   3.372   4.151  10.482  0.5450 -0.6178 -0.0983
28844SOL    HW192368   3.402   4.117  10.398 -2.9374 -0.6143 -1.5257
28844SOL    HW292369   3.352   4.243  10.465 -0.8036 -0.7762  0.5251
28845SOL     OW92370   9.563   9.820  10.198 -0.4131  0.2985 -0.2168
28845SOL    HW192371   9.514   9.822  10.280  0.8226 -1.6384  0.6587
28845SOL    HW292372   9.519   9.754  10.145  0.9981 -1.3141  0.4996
28846SOL     OW92373   1.390   7.799   5.056 -0.3371  0.7809  0.5979
28846SOL    HW192374   1.339   7.822   5.134 -0.8757 -0.9795  0.8190
28846SOL    HW292375   1.329   7.750   5.001  0.3944  0.9117 -0.3603
28847SOL     OW92376   6.098   5.043   8.136 -0.3361 -0.1611 -0.2742
28847SOL    HW192377   6.047   5.067   8.213 -1.4824 -1.1263 -0.6861
28847SOL    HW292378   6.160   5.114   8.125 -0.5188  0.2698  1.2088
28848SOL     OW92379  10.746   4.380   1.758 -0.6850  0.3740  0.0303
28848SOL    HW192380  10.783   4.348   1.840 -2.1211 -0.8669  0.2426
28848SOL    HW292381  10.769   4.313   1.694 -3.6493 -1.2210  0.4609
28849SOL     OW92382   0.310   9.725  10.606 -0.3669 -0.4798 -0.4720
28849SOL    HW192383   0.384   9.677  10.568 -0.4668 -0.7988 -0.2719
28849SOL    HW292384   0.275   9.665  10.673  1.8556  1.2805  2.5299
28850SOL     OW92385   1.219   1.474   7.571  0.0366 -0.1555  0.1861
28850SOL    HW192386   1.273   1.535   7.621 -0.0907  1.3670 -1.4472
28850SOL    HW292387   1.282   1.424   7.519 -0.0208  1.1145 -1.1672
28851SOL     OW92388   8.458   3.586   3.352 -0.1430  0.7232  0.0811
28851SOL    HW192389   8.507   3.667   3.345 -2.2960  2.0687 -0.3361
28851SOL    HW292390   8.384   3.607   3.410 -0.1951 -1.2355  0.8160
28852SOL     OW92391   9.219   9.384   8.671  0.3177 -0.2756  0.1922
28852SOL    HW192392   9.243   9.413   8.759 -3.4529 -0.7317  1.5778
28852SOL    HW292393   9.146   9.442   8.646  1.8174  0.4160 -3.0869
28853SOL     OW92394   1.834   7.537   3.826  0.6989  0.2878  0.3729
28853SOL    HW192395   1.896   7.467   3.848  2.4423  1.1735 -1.4188
28853SOL    HW292396   1.782   7.502   3.754  1.2657  0.6719 -0.2242
28854SOL     OW92397  10.717   9.929   5.975 -0.2953  0.2166 -0.1605
28854SOL    HW192398  10.669   9.960   6.052  0.9204 -1.0741  1.1835
28854SOL    HW292399  10.758   9.847   6.004 -0.3234 -0.6623 -2.3904
28855SOL     OW92400   0.817  10.663   3.874 -0.3634 -0.0266  0.4035
28855SOL    HW192401   0.733  10.618   3.871 -0.0255 -0.6641 -3.0830
28855SOL    HW292402   0.879  10.596   3.904 -0.6277 -0.4488  0.0127
28856SOL     OW92403   0.736   5.142   7.492 -0.0232  0.7287  0.0251
28856SOL    HW192404   0.712   5.150   7.584 -0.8696 -2.3229  0.1612
28856SOL    HW292405   0.739   5.048   7.476 -2.3294  1.0878 -3.6645
28857SOL     OW92406   3.193   7.669  10.088 -0.2843 -0.1706 -0.1757
28857SOL    HW192407   3.215   7.591  10.139  2.5097  1.0397  0.7287
28857SOL    HW292408   3.113   7.646  10.041  1.3395 -4.2327 -1.4202
28858SOL     OW92409   7.390   0.440  10.488 -0.7168  0.2033  0.1149
28858SOL    HW192410   7.474   0.483  10.496 -0.4950 -0.0547 -0.6909
28858SOL    HW292411   7.400   0.382  10.412 -0.3509 -2.7532  2.2240
28859SOL     OW92412   2.360  10.673   5.192 -0.2338 -0.3652  0.0436
28859SOL    HW192413   2.296  10.739   5.165 -0.2426  0.0753  1.0673
28859SOL    HW292414   2.445  10.713   5.173 -0.2236  0.2458  1.2603
28860SOL     OW92415   8.330   5.188  10.917 -0.1886 -0.2535 -0.3767
28860SOL    HW192416   8.362   5.174  11.006 -1.9259 -1.6245  0.1000
28860SOL    HW292417   8.398   5.240  10.874  0.2324  1.3576  2.0434
28861SOL     OW92418   4.226   3.220   7.926 -0.7130 -0.0015 -0.1951
28861SOL    HW192419   4.166   3.202   7.998 -0.2540 -0.0812  0.1665
28861SOL    HW292420   4.168   3.240   7.852 -1.1964 -0.5574  0.0237
28862SOL     OW92421   2.340   1.337   6.813 -0.5489  0.4110  0.7006
28862SOL    HW192422   2.407   1.280   6.851  0.0154  0.5862 -0.0016
28862SOL    HW292423   2.390   1.403   6.765 -1.2206 -0.1085 -0.7779
28863SOL     OW92424   2.349   9.684   9.138 -0.0656 -0.1276 -0.2259
28863SOL    HW192425   2.304   9.601   9.123 -1.5151  0.5257  0.2799
28863SOL    HW292426   2.280   9.750   9.127  0.3669  0.8175  2.2473
28864SOL     OW92427   9.943   1.763   8.086  0.1214  0.2569  0.1416
28864SOL    HW192428  10.023   1.712   8.072  0.9348  0.8377  2.2913
28864SOL    HW292429   9.926   1.755   8.179 -0.0690  3.3553  0.4634
28865SOL     OW92430  10.077   3.147   8.365 -0.8964  0.3490 -0.1702
28865SOL    HW192431  10.091   3.219   8.303 -1.1741  1.5307  1.1014
28865SOL    HW292432   9.987   3.119   8.349 -0.5354 -0.2899 -1.2179
28866SOL     OW92433   7.673   1.486   9.083 -0.1180  0.0176 -0.4067
28866SOL    HW192434   7.701   1.550   9.017 -1.1639 -1.0773 -1.9710
28866SOL    HW292435   7.672   1.536   9.165  1.9725  1.2211 -1.0353
28867SOL     OW92436   1.398   2.503   2.318 -0.4396 -0.4919 -0.4621
28867SOL    HW192437   1.484   2.478   2.285 -0.7088 -1.7200 -0.2625
28867SOL    HW292438   1.346   2.423   2.317 -1.1455 -0.0963  0.7934
28868SOL     OW92439   6.681   9.862  10.479 -0.2159 -0.2544  0.7087
28868SOL    HW192440   6.774   9.856  10.458 -0.1371 -1.2073  1.2826
28868SOL    HW292441   6.677   9.864  10.575 -0.7461  0.7687  0.6875
28869SOL     OW92442   8.892   5.512   7.727  0.6942  0.3138 -0.1992
28869SOL    HW192443   8.816   5.568   7.716 -0.0521 -0.6103  0.1619
28869SOL    HW292444   8.932   5.542   7.809 -0.4313 -0.4991  0.6713
28870SOL     OW92445   8.861   9.075  10.057  0.4289  0.0046 -0.4943
28870SOL    HW192446   8.860   9.155  10.004  0.7417 -1.1133 -2.2476
28870SOL    HW292447   8.950   9.070  10.091 -0.1526  1.4988  1.4610
28871SOL     OW92448   3.750   4.529   8.608  0.1311  0.2662  0.1997
28871SOL    HW192449   3.711   4.576   8.682 -0.5830  1.0370 -0.6538
28871SOL    HW292450   3.806   4.463   8.650 -0.9698  0.0664  1.4501
28872SOL     OW92451   2.730  10.234  10.274  0.2617 -0.1906 -0.1549
28872SOL    HW192452   2.784  10.312  10.257  0.4514  0.2075  2.0242
28872SOL    HW292453   2.668  10.262  10.341  0.4135 -1.9354  0.7688
28873SOL     OW92454   0.321   7.107   9.076  0.4940 -0.1217 -0.3969
28873SOL    HW192455   0.259   7.135   9.009 -1.2237 -1.3066  0.6073
28873SOL    HW292456   0.385   7.054   9.028  0.2264  0.3749 -1.3333
28874SOL     OW92457   5.963   1.555   6.356  0.2022  0.6249  0.6447
28874SOL    HW192458   6.012   1.546   6.274 -0.3011 -1.0225  0.4903
28874SOL    HW292459   5.976   1.471   6.400 -3.3260 -0.3340  0.1099
28875SOL     OW92460   3.073   2.906   4.699 -0.0724 -0.5058  0.4090
28875SOL    HW192461   3.092   2.945   4.613 -0.4723 -0.0829  0.5086
28875SOL    HW292462   3.029   2.823   4.679 -0.6734 -0.1422  0.2066
28876SOL     OW92463   2.231   6.263   6.794  0.1225 -0.0604  0.3601
28876SOL    HW192464   2.192   6.330   6.850  1.9897  0.0504  1.6452
28876SOL    HW292465   2.165   6.195   6.788 -0.7565  0.6702  1.3596
28877SOL     OW92466   6.435   4.022  10.347  0.3258  0.9245  0.3285
28877SOL    HW192467   6.434   4.083  10.421 -0.0355 -0.7159  1.7323
28877SOL    HW292468   6.366   3.959  10.367  0.6921  0.0235 -1.0831
28878SOL     OW92469   4.828   4.048   0.755 -0.1999  0.5488 -0.1415
28878SOL    HW192470   4.839   4.003   0.672  0.1875  1.4807 -0.6083
28878SOL    HW292471   4.791   4.133   0.732 -0.5324  0.6348  0.6814
28879SOL     OW92472   3.448   5.731   4.547  0.0879 -0.3507 -0.3114
28879SOL    HW192473   3.471   5.753   4.637 -0.7048  1.6700 -0.5448
28879SOL    HW292474   3.421   5.640   4.551  1.1679 -0.6426  1.2703
28880SOL     OW92475   3.587   4.858   6.188 -0.5681  0.0514 -0.4662
28880SOL    HW192476   3.568   4.951   6.172 -1.9263 -0.4332 -1.9427
28880SOL    HW292477   3.670   4.858   6.235 -0.9914  2.0590  0.3867
28881SOL     OW92478   9.749   8.822   3.693  0.0721 -0.1293 -0.8171
28881SOL    HW192479   9.786   8.878   3.626 -1.0568  2.3284  0.4724
28881SOL    HW292480   9.823   8.771   3.726  0.9486 -0.1642 -2.7093
28882SOL     OW92481   3.488   8.672   2.175  0.0871 -0.0916  0.4693
28882SOL    HW192482   3.473   8.691   2.267 -0.5675 -0.8554  0.5369
28882SOL    HW292483   3.574   8.630   2.172 -0.3057 -0.9400  0.8650
28883SOL     OW92484   4.700   9.667   1.721 -0.3134 -0.4204  0.0881
28883SOL    HW192485   4.629   9.657   1.658 -0.9351 -0.5066  0.7954
28883SOL    HW292486   4.691   9.756   1.755  0.9430  0.1668 -1.0321
28884SOL     OW92487   8.070   9.528   9.352  0.7328  0.6930  0.6994
28884SOL    HW192488   8.066   9.461   9.420  2.9867 -0.1199  0.1234
28884SOL    HW292489   8.129   9.492   9.285 -0.7388  1.7982 -1.3316
28885SOL     OW92490   5.572   1.863   1.650 -0.6994 -0.2417 -0.1761
28885SOL    HW192491   5.622   1.931   1.696  0.5957 -0.8558 -0.6198
28885SOL    HW292492   5.597   1.873   1.558  1.1908 -2.6035 -0.0301
28886SOL     OW92493   9.348  10.458   6.128  0.4104 -0.1706 -0.4169
28886SOL    HW192494   9.271  10.415   6.090 -0.4241 -0.5022  1.5322
28886SOL    HW292495   9.418  10.393   6.119 -0.0833 -0.7379 -0.2761
28887SOL     OW92496   6.803   1.691   2.303 -0.4635 -0.2562 -0.7819
28887SOL    HW192497   6.818   1.601   2.273  1.2930  0.2261 -1.5072
28887SOL    HW292498   6.786   1.683   2.397  1.1486 -1.2659 -0.5287
28888SOL     OW92499   1.041   5.522   4.370  0.4066 -0.0309 -0.6090
28888SOL    HW192500   1.064   5.480   4.287  1.7622 -1.1445  0.2787
28888SOL    HW292501   1.054   5.454   4.436  0.1869  1.0694  0.6187
28889SOL     OW92502   2.513   7.051   3.623 -0.5644  0.3723 -0.3781
28889SOL    HW192503   2.460   6.972   3.631  0.5956 -0.4251 -0.2038
28889SOL    HW292504   2.514   7.089   3.711 -0.0037 -0.1851 -0.1390
28890SOL     OW92505   6.143   1.326  10.294  0.2406  0.0663  0.3563
28890SOL    HW192506   6.214   1.390  10.304  0.0738  0.2915  0.0955
28890SOL    HW292507   6.160   1.261  10.362 -0.5990  1.3289  1.8347
28891SOL     OW92508   2.231  10.036   4.390 -0.0283 -0.2391 -0.4028
28891SOL    HW192509   2.197  10.111   4.340  0.0593 -0.5384 -0.9264
28891SOL    HW292510   2.179   9.962   4.358 -0.4128 -0.3377  0.4238
28892SOL     OW92511   3.839   4.227   6.414 -0.3364 -0.3277 -0.2154
28892SOL    HW192512   3.925   4.213   6.374 -0.5036  0.2759 -0.8145
28892SOL    HW292513   3.800   4.297   6.361 -1.3760 -0.9052 -0.2339
28893SOL     OW92514   3.141   8.254  10.581 -0.3763  0.4862 -0.6760
28893SOL    HW192515   3.220   8.289  10.539  0.8170 -0.8544  0.3530
28893SOL    HW292516   3.070   8.278  10.522  0.6931  2.2762 -1.3349
28894SOL     OW92517   9.946   7.516   2.243  0.1919 -0.3006  0.0687
28894SOL    HW192518   9.998   7.513   2.163 -2.1393 -0.6092 -1.5175
28894SOL    HW292519   9.899   7.433   2.245 -0.1361 -0.1124  1.5397
28895SOL     OW92520   8.316   0.276   6.092  0.5523 -0.2560 -0.3080
28895SOL    HW192521   8.296   0.250   6.002 -0.6511  0.6766 -0.3297
28895SOL    HW292522   8.240   0.247   6.142  1.0204 -0.3768  0.3440
28896SOL     OW92523   4.724   9.645   8.568  0.3225  0.4736  0.1950
28896SOL    HW192524   4.720   9.561   8.521 -0.2349  0.2440  0.6327
28896SOL    HW292525   4.632   9.668   8.583  0.4854  0.7399  0.8200
28897SOL     OW92526   3.684   8.751   6.469  0.3181 -0.2236 -0.3120
28897SOL    HW192527   3.757   8.813   6.480  2.0053 -2.4524  2.3262
28897SOL    HW292528   3.644   8.745   6.555  0.1913 -2.6932 -0.4714
28898SOL     OW92529   9.672   4.514   5.495  0.1021 -0.2842  0.1634
28898SOL    HW192530   9.605   4.519   5.427 -1.4971 -0.0483  1.6630
28898SOL    HW292531   9.705   4.604   5.502  0.7166 -0.4373 -0.7057
28899SOL     OW92532   7.294   4.707   7.025 -0.0734 -0.2365 -0.3157
28899SOL    HW192533   7.304   4.800   7.047 -1.5679 -0.0900 -0.0986
28899SOL    HW292534   7.351   4.694   6.950 -1.2572  1.3593 -1.5655
28900SOL     OW92535   2.970   0.858   0.807  0.3584 -0.3341  0.4260
28900SOL    HW192536   2.915   0.837   0.882  0.5000  0.5766  0.7939
28900SOL    HW292537   3.057   0.828   0.831  0.0887 -1.5618 -0.0613
28901SOL     OW92538   7.683   8.145  10.769 -0.3860 -0.0284  0.6260
28901SOL    HW192539   7.693   8.065  10.821  0.8780 -0.5706 -0.4008
28901SOL    HW292540   7.612   8.125  10.708  0.6902 -0.8584 -0.4209
28902SOL     OW92541  10.349   1.413   5.347  0.0952 -0.3297 -0.5022
28902SOL    HW192542  10.370   1.471   5.420  0.6560 -2.1781  0.8689
28902SOL    HW292543  10.269   1.451   5.309  0.8491  1.7396 -0.1860
28903SOL     OW92544   7.085   4.974   4.546 -0.0433 -0.2172  0.1348
28903SOL    HW192545   6.990   4.981   4.551 -0.4808 -1.3717 -3.5311
28903SOL    HW292546   7.105   4.885   4.574  0.0363  0.1248  1.2049
28904SOL     OW92547   4.865   2.744   4.496  0.7418  0.2191  0.2868
28904SOL    HW192548   4.785   2.709   4.536  0.3292 -0.9121 -1.4156
28904SOL    HW292549   4.870   2.835   4.528 -1.0827  0.2393  0.6353
28905SOL     OW92550   0.474  10.766   4.973  0.0938  0.4251 -0.4637
28905SOL    HW192551   0.551  10.738   4.924 -0.4092 -0.0687 -0.9840
28905SOL    HW292552   0.465  10.859   4.951  1.0733  0.7192  0.3332
28906SOL     OW92553   7.258   9.277   7.380  0.4411 -0.4882  0.6464
28906SOL    HW192554   7.260   9.216   7.307 -0.9338 -1.4029  1.3284
28906SOL    HW292555   7.167   9.305   7.386  0.8915  1.0831  0.8223
28907SOL     OW92556   2.736   3.151   2.578 -0.4325 -0.7927 -0.2294
28907SOL    HW192557   2.827   3.132   2.604  0.1330  0.5272 -1.1614
28907SOL    HW292558   2.712   3.079   2.520 -0.0676 -1.2807  0.2193
28908SOL     OW92559   2.644  10.131   5.329  0.5054  0.2187  0.1013
28908SOL    HW192560   2.626  10.116   5.236  1.5974  3.8367 -0.8625
28908SOL    HW292561   2.560  10.162   5.364  0.7022  1.3488 -0.3750
28909SOL     OW92562   1.179   8.587   9.509  0.1403  0.1966  0.6581
28909SOL    HW192563   1.260   8.556   9.469 -0.7104  0.6221 -1.5285
28909SOL    HW292564   1.114   8.522   9.483 -0.3102 -0.0012  2.1830
28910SOL     OW92565   0.504   8.318  10.924 -0.0168 -0.4520 -0.3754
28910SOL    HW192566   0.509   8.351  10.834  0.3911 -0.5548 -0.3927
28910SOL    HW292567   0.424   8.357  10.960 -0.2819 -0.5576 -0.8424
28911SOL     OW92568   3.139   0.116   1.176 -0.2289 -0.4183  0.0697
28911SOL    HW192569   3.052   0.150   1.155  0.2053  0.0857 -0.9873
28911SOL    HW292570   3.183   0.190   1.217  0.3747  0.0211 -1.3006
28912SOL     OW92571   2.028   8.927   0.846  0.0495  0.4804  0.3180
28912SOL    HW192572   2.100   8.867   0.867 -1.2136 -0.3492  2.7186
28912SOL    HW292573   1.985   8.887   0.770  0.2254 -0.7951  0.8574
28913SOL     OW92574   8.531   0.043   5.877  0.2543 -0.2747  0.6407
28913SOL    HW192575   8.584   0.040   5.797 -1.4836 -1.8489 -0.5356
28913SOL    HW292576   8.554  -0.036   5.925 -1.1800 -1.1807 -0.0669
28914SOL     OW92577   1.956   6.808  10.012  0.1013 -0.3542  0.1961
28914SOL    HW192578   1.960   6.713  10.026 -1.6183 -0.4580  0.1668
28914SOL    HW292579   1.946   6.819   9.918  0.6274 -0.1223  0.1636
28915SOL     OW92580   8.781   5.964   2.818 -0.4434  0.9566  0.3149
28915SOL    HW192581   8.705   6.007   2.857 -1.0003  0.5132 -0.2527
28915SOL    HW292582   8.757   5.871   2.817  0.4524  0.7056  0.8886
28916SOL     OW92583   7.039   8.978   8.420  1.1015 -0.3823  0.0735
28916SOL    HW192584   7.037   8.975   8.516 -0.3384 -2.6551  0.0234
28916SOL    HW292585   7.132   8.975   8.399  1.4737  0.7091  1.3713
28917SOL     OW92586   1.909   1.730   0.201  0.0327 -0.6114  0.5516
28917SOL    HW192587   1.867   1.724   0.287 -2.3693 -0.6875 -0.5301
28917SOL    HW292588   1.903   1.642   0.166 -1.4235 -0.0797 -0.6740
28918SOL     OW92589   2.285   5.961   6.148 -0.3410 -0.0958  0.2505
28918SOL    HW192590   2.225   5.888   6.158  1.0055 -1.1254  1.1119
28918SOL    HW292591   2.331   5.967   6.232  0.7298  0.6758 -0.3552
28919SOL     OW92592   0.229   9.719   4.901 -0.0024  0.6014  0.0165
28919SOL    HW192593   0.306   9.728   4.846  0.3143  1.2576  0.5521
28919SOL    HW292594   0.262   9.688   4.986 -0.3876  0.3821  0.0937
28920SOL     OW92595   9.322   9.132   3.013 -0.4232 -0.1161 -0.3421
28920SOL    HW192596   9.287   9.090   3.091 -1.0970  0.7555 -0.1524
28920SOL    HW292597   9.251   9.126   2.949  0.4691 -1.7252 -1.2694
28921SOL     OW92598   8.381   8.933   6.983  0.4533  0.3373  0.0423
28921SOL    HW192599   8.430   8.855   6.956 -3.2459 -1.5688 -2.1178
28921SOL    HW292600   8.390   8.993   6.909 -0.9281 -0.3781 -0.7697
28922SOL     OW92601   0.454   1.073   5.385 -0.2447  0.2761 -0.2018
28922SOL    HW192602   0.446   0.978   5.376  2.4964 -0.2862  2.0065
28922SOL    HW292603   0.544   1.092   5.358 -0.1875  1.9514  1.0293
28923SOL     OW92604   0.669   3.741   7.701 -0.6140 -0.3187  0.0672
28923SOL    HW192605   0.642   3.829   7.673 -2.2722 -0.9278 -0.3365
28923SOL    HW292606   0.765   3.747   7.707 -0.2937  0.5225 -3.5520
28924SOL     OW92607   4.917   1.840   9.309  0.0491 -0.1558 -0.5168
28924SOL    HW192608   5.011   1.831   9.289  0.0985  0.1975 -0.4425
28924SOL    HW292609   4.900   1.934   9.303 -0.2054 -0.1728 -0.0824
28925SOL     OW92610   8.477   8.159   6.101 -0.0232 -0.3085 -0.1353
28925SOL    HW192611   8.413   8.093   6.126  0.7899  0.1558  3.7662
28925SOL    HW292612   8.562   8.115   6.111  0.4583  0.7413  0.5463
28926SOL     OW92613   0.526   5.770   0.751  0.3531  0.0211  0.0414
28926SOL    HW192614   0.501   5.679   0.771 -0.8941  0.0576 -1.2087
28926SOL    HW292615   0.531   5.812   0.837  1.3515 -1.3182  0.6732
28927SOL     OW92616   7.657   6.493   4.334 -0.3241 -0.0112  0.1699
28927SOL    HW192617   7.580   6.465   4.383  0.8285 -2.0431  0.9245
28927SOL    HW292618   7.684   6.415   4.284  1.5960  0.4377  0.4069
28928SOL     OW92619   3.028   5.837   9.280  1.1267 -0.7142 -0.2715
28928SOL    HW192620   3.014   5.799   9.367  0.7873 -0.0624 -0.0299
28928SOL    HW292621   2.944   5.829   9.236  1.2944 -1.0273 -0.5364
28929SOL     OW92622   5.135   7.256   8.095  0.3762 -0.0762 -0.3987
28929SOL    HW192623   5.086   7.240   8.014 -0.2460  0.7926 -0.2099
28929SOL    HW292624   5.097   7.195   8.158  0.6138 -0.5002 -0.6592
28930SOL     OW92625   1.896   8.366   7.286  0.3996  0.3225 -0.6915
28930SOL    HW192626   1.968   8.307   7.265 -1.0198 -1.9649  0.4500
28930SOL    HW292627   1.909   8.389   7.378 -0.7984 -0.9237 -0.1748
28931SOL     OW92628   1.769  10.702  10.062 -0.0882 -0.3248 -0.2099
28931SOL    HW192629   1.700  10.636  10.069 -0.8955  0.5710  0.5387
28931SOL    HW292630   1.777  10.717   9.968  0.9785 -2.3444 -0.5005
28932SOL     OW92631   9.846   9.578   3.852  0.3904  0.1736 -0.5596
28932SOL    HW192632   9.890   9.628   3.921 -0.0152  0.3453 -0.4285
28932SOL    HW292633   9.782   9.524   3.899  1.4875 -1.2233 -0.5769
28933SOL     OW92634   0.854   5.070   9.539  0.1958 -0.2837  0.5456
28933SOL    HW192635   0.803   5.020   9.603  0.3601  0.8939  1.6431
28933SOL    HW292636   0.789   5.102   9.476  0.0832 -1.7774 -0.1436
28934SOL     OW92637   3.563   9.405   1.221 -0.0988  0.1705  0.0721
28934SOL    HW192638   3.594   9.475   1.163 -2.1673  1.5577  0.5155
28934SOL    HW292639   3.475   9.433   1.246 -0.6863 -2.2342  0.9320
28935SOL     OW92640   9.347  10.311   3.871 -0.0430 -0.1265  0.4605
28935SOL    HW192641   9.397  10.368   3.929 -0.6391  0.4953  0.3818
28935SOL    HW292642   9.380  10.329   3.784  1.3366 -1.5610  0.6301
28936SOL     OW92643   1.395   9.137   8.416 -0.3072 -0.3901  0.0365
28936SOL    HW192644   1.323   9.087   8.377 -0.6739 -0.6431  1.0163
28936SOL    HW292645   1.368   9.229   8.406 -0.1038 -0.4116 -0.8445
28937SOL     OW92646   0.607   3.597   7.196  0.5986  0.4692 -0.2111
28937SOL    HW192647   0.700   3.622   7.195  0.5499  0.6786 -2.0552
28937SOL    HW292648   0.608   3.501   7.205  1.0659  0.3229 -1.5818
28938SOL     OW92649   5.593   9.499   8.175  0.1058  0.0527  0.2041
28938SOL    HW192650   5.680   9.493   8.214  0.4339  0.7346 -0.4074
28938SOL    HW292651   5.609   9.489   8.081 -0.1082  3.0396 -0.2287
28939SOL     OW92652   9.470   2.527   0.953 -0.1487 -0.0065  0.1068
28939SOL    HW192653   9.521   2.596   0.995  1.5287 -0.5249 -1.0137
28939SOL    HW292654   9.381   2.540   0.987  0.8121  0.4722  2.6766
28940SOL     OW92655  10.883   1.141   2.773 -0.2941  0.4852 -0.2744
28940SOL    HW192656  10.865   1.228   2.808 -0.7236  0.7338 -1.0833
28940SOL    HW292657  10.799   1.113   2.735 -0.0112 -0.0470 -0.5164
28941SOL     OW92658   0.494   0.249   3.054  0.2118 -0.7030  0.2275
28941SOL    HW192659   0.419   0.271   2.999  0.1750  0.9215  0.8707
28941SOL    HW292660   0.554   0.204   2.995  0.3013  1.2573 -1.2784
28942SOL     OW92661   0.707   4.276   5.701  0.2662  0.2149 -0.1456
28942SOL    HW192662   0.784   4.289   5.757 -0.1146 -0.3391  0.5198
28942SOL    HW292663   0.636   4.257   5.762 -0.4251  0.7962 -0.7517
28943SOL     OW92664   6.462   3.468   9.759 -0.3314 -0.3748 -0.4342
28943SOL    HW192665   6.530   3.533   9.741  0.2823 -0.7610  0.4222
28943SOL    HW292666   6.438   3.434   9.673  0.7433 -0.4070 -0.7337
28944SOL     OW92667   0.484  10.296   5.701  0.1986 -0.1735 -0.0816
28944SOL    HW192668   0.575  10.268   5.690 -0.4238 -2.7796  0.6846
28944SOL    HW292669   0.457  10.326   5.614  1.9735  1.4133 -0.1427
28945SOL     OW92670   0.048   1.413   8.983  0.2045 -0.0226  0.1482
28945SOL    HW192671   0.069   1.344   8.920 -0.6633  0.3148 -0.5328
28945SOL    HW292672   0.076   1.494   8.941  0.6240  0.1074  0.6685
28946SOL     OW92673   9.041   8.780   4.442 -0.3966  0.1068 -0.5073
28946SOL    HW192674   8.971   8.840   4.467 -0.3263 -0.3549  0.8825
28946SOL    HW292675   9.032   8.770   4.348 -1.2897  1.1863 -0.5547
28947SOL     OW92676   3.041   2.444   9.303 -0.1720 -0.4541  0.2429
28947SOL    HW192677   3.039   2.360   9.256 -1.1478 -0.8233  0.9184
28947SOL    HW292678   3.128   2.445   9.345 -0.4450 -1.5105  0.8845
28948SOL     OW92679   8.783   3.017   5.741  0.8504  0.3979  0.3770
28948SOL    HW192680   8.722   3.005   5.815 -0.6700 -1.0335 -1.0208
28948SOL    HW292681   8.828   2.933   5.734  1.3212  0.6845 -0.0468
28949SOL     OW92682   3.433   8.509   8.230  0.1806 -0.1610  0.5605
28949SOL    HW192683   3.508   8.567   8.220  0.2071 -0.4761 -1.4117
28949SOL    HW292684   3.456   8.453   8.304  1.0270  0.9981  1.2087
28950SOL     OW92685  10.276   6.329   8.490  0.6105  0.0900  0.3803
28950SOL    HW192686  10.188   6.295   8.505  0.5777 -0.3594 -0.7021
28950SOL    HW292687  10.309   6.352   8.577 -1.1289  1.7223  0.6552
28951SOL     OW92688   2.062   9.062   0.419 -0.3158  0.1514 -0.3550
28951SOL    HW192689   2.086   9.072   0.511 -1.6356 -1.9106  0.2670
28951SOL    HW292690   1.981   9.012   0.420 -1.3142  1.5333 -2.6076
28952SOL     OW92691   5.231   1.641   8.891  0.7211 -0.2307  0.0808
28952SOL    HW192692   5.193   1.557   8.864 -0.0943  0.6699 -1.8197
28952SOL    HW292693   5.159   1.687   8.934 -0.0345  0.8932 -2.2049
28953SOL     OW92694   3.701   1.228   2.765 -0.5871 -0.0851 -0.1659
28953SOL    HW192695   3.641   1.294   2.731 -0.9461 -0.8919 -1.1713
28953SOL    HW292696   3.704   1.162   2.696 -0.5535 -1.3104  0.9737
28954SOL     OW92697   4.136   9.735   6.716 -0.0348  0.2785  0.3311
28954SOL    HW192698   4.218   9.779   6.692 -0.6658  0.5307 -1.4830
28954SOL    HW292699   4.072   9.806   6.724 -0.2263  0.0231  1.0991
28955SOL     OW92700   1.352  10.885  10.838  0.1443  0.4590 -0.3440
28955SOL    HW192701   1.326  10.868  10.747  0.7537  0.2846 -0.4912
28955SOL    HW292702   1.327  10.806  10.885  0.6272  0.1844 -0.5350
28956SOL     OW92703   2.331   7.278   2.533  0.4452 -0.3423  0.0680
28956SOL    HW192704   2.300   7.339   2.466  0.1430  0.1480  0.6427
28956SOL    HW292705   2.401   7.326   2.579 -0.1831 -0.1909  0.8951
28957SOL     OW92706   4.652   0.361   2.377  0.0442 -0.1624  0.3647
28957SOL    HW192707   4.643   0.444   2.330 -1.0193 -0.2429  0.4083
28957SOL    HW292708   4.610   0.296   2.320  2.6886 -1.0965 -0.6903
28958SOL     OW92709   3.108   4.416   9.962 -1.0310  0.1701 -0.3087
28958SOL    HW192710   3.123   4.452   9.875  0.4043 -4.2394 -2.1492
28958SOL    HW292711   3.013   4.415   9.972 -1.1683  2.1234 -1.1052
28959SOL     OW92712   1.203   4.100   4.523  0.4066 -0.0493 -0.7860
28959SOL    HW192713   1.239   4.138   4.603 -0.8378 -1.2261  0.3948
28959SOL    HW292714   1.161   4.173   4.478 -1.0613  0.2316  0.9272
28960SOL     OW92715  10.158   6.433   8.053 -0.2704  0.6001 -0.3579
28960SOL    HW192716  10.135   6.353   8.006  0.1069  0.7950 -0.8856
28960SOL    HW292717  10.220   6.404   8.120 -0.3672  0.4067 -0.3501
28961SOL     OW92718   1.696   9.804   9.606  0.9048  0.8762 -0.3379
28961SOL    HW192719   1.716   9.812   9.699  0.6662  1.0645 -0.3028
28961SOL    HW292720   1.758   9.864   9.563 -0.2455  2.2538 -0.1504
28962SOL     OW92721   1.847   4.971   3.797 -0.3803  0.3291 -0.1455
28962SOL    HW192722   1.771   4.988   3.742 -1.4609 -2.1394  0.4657
28962SOL    HW292723   1.816   4.987   3.886 -0.1338 -0.4595  0.0895
28963SOL     OW92724   9.434   8.144   3.229 -0.4401 -0.0624  0.1515
28963SOL    HW192725   9.503   8.184   3.282 -1.6074  3.1158 -0.4639
28963SOL    HW292726   9.478   8.114   3.149  0.1827  3.1940 -0.8695
28964SOL     OW92727   6.983   5.001   8.644  0.4910 -0.9544 -0.1784
28964SOL    HW192728   7.039   4.923   8.649 -1.2490 -2.1913  0.9025
28964SOL    HW292729   7.008   5.053   8.720 -0.6493 -2.1239  1.0446
28965SOL     OW92730   7.238   2.599   2.764 -0.0464  0.6397  0.0979
28965SOL    HW192731   7.145   2.576   2.762  0.1846 -0.3215 -0.2903
28965SOL    HW292732   7.279   2.533   2.708  1.0401  0.2714  1.2951
28966SOL     OW92733   8.473   7.753   9.218  0.4134 -0.0499  0.1413
28966SOL    HW192734   8.474   7.689   9.146 -0.8883 -1.0267  0.9473
28966SOL    HW292735   8.384   7.750   9.251  0.4798  1.8136  0.5768
28967SOL     OW92736   5.022   3.414   9.974 -0.2747  0.4421  0.1429
28967SOL    HW192737   5.056   3.495   9.937  0.2882  1.2328  2.2748
28967SOL    HW292738   4.938   3.438  10.014 -0.4637 -0.1879  0.1472
28968SOL     OW92739   7.251   5.638   9.814 -0.2803 -0.0593 -0.5714
28968SOL    HW192740   7.237   5.653   9.908 -0.0332  2.2150 -0.8524
28968SOL    HW292741   7.172   5.669   9.772 -0.0493 -0.2880 -1.1843
28969SOL     OW92742   0.245   8.623  10.100  0.0970  0.2248  0.1405
28969SOL    HW192743   0.216   8.615  10.009  0.6961  0.2036 -0.0497
28969SOL    HW292744   0.323   8.568  10.106  0.2081  0.4236  0.6038
28970SOL     OW92745   7.653   9.678   2.492 -0.1683 -0.1320  0.2376
28970SOL    HW192746   7.682   9.659   2.403  0.4259 -0.5831  0.5137
28970SOL    HW292747   7.597   9.604   2.515 -1.3177  0.5852 -0.1823
28971SOL     OW92748   6.321   4.751   4.634  0.2203 -0.1868  0.5100
28971SOL    HW192749   6.304   4.725   4.543  0.5393 -0.0079  0.3995
28971SOL    HW292750   6.334   4.846   4.630  1.3710 -0.3250  0.5684
28972SOL     OW92751   7.159   0.332   7.770 -0.0317 -0.2007 -0.3568
28972SOL    HW192752   7.210   0.258   7.803  0.1331  0.4803  0.9682
28972SOL    HW292753   7.113   0.297   7.693 -0.8860 -2.0021  0.9091
28973SOL     OW92754   2.268   6.460   5.562  0.0635 -0.3770 -0.6447
28973SOL    HW192755   2.323   6.402   5.614 -0.2390  1.6214  2.1499
28973SOL    HW292756   2.192   6.406   5.539 -0.0238 -1.2759  1.4865
28974SOL     OW92757   1.449   8.300   1.685  0.1547  0.0489  0.0624
28974SOL    HW192758   1.409   8.368   1.740  0.1585  0.0322  0.0853
28974SOL    HW292759   1.379   8.274   1.625  1.0063  2.3587 -2.1435
28975SOL     OW92760   4.370   4.134   2.793 -0.1685 -0.1073 -0.2336
28975SOL    HW192761   4.306   4.146   2.722 -0.6017 -1.5939 -0.1345
28975SOL    HW292762   4.407   4.048   2.776  1.7592  0.6779 -0.2149
28976SOL     OW92763   9.017   5.993   0.248  0.2129 -0.4278  0.2437
28976SOL    HW192764   8.925   5.972   0.236  0.1614 -0.2296  0.2889
28976SOL    HW292765   9.033   6.067   0.189  0.2282 -0.1619  0.5775
28977SOL     OW92766   9.177  10.314   7.963 -0.3077 -0.1448 -0.3432
28977SOL    HW192767   9.162  10.408   7.973  1.7226  0.2245 -0.2829
28977SOL    HW292768   9.090  10.276   7.960 -1.1726  1.6369  0.5726
28978SOL     OW92769   1.293   7.935   8.496 -0.0932 -0.2460 -0.3016
28978SOL    HW192770   1.216   7.990   8.482  0.1701 -0.0103 -0.8573
28978SOL    HW292771   1.273   7.855   8.447 -0.3471 -0.5324  0.2586
28979SOL     OW92772   0.867   9.523   3.005 -0.1209 -0.1111 -0.2200
28979SOL    HW192773   0.910   9.449   2.962 -0.1678 -1.0187  1.2356
28979SOL    HW292774   0.938   9.581   3.031  0.1764 -0.9791  1.0195
28980SOL     OW92775   4.807   6.607   9.529 -0.2000  0.9359 -0.6707
28980SOL    HW192776   4.865   6.557   9.587 -0.6029  0.8074 -0.3750
28980SOL    HW292777   4.865   6.672   9.488  0.5517 -0.4330 -1.8670
28981SOL     OW92778   8.242   4.953  10.768 -0.4895  0.5056 -0.5078
28981SOL    HW192779   8.267   5.038  10.806 -0.2154 -0.8584  2.7480
28981SOL    HW292780   8.147   4.949  10.782 -0.3334 -0.1596  0.4294
28982SOL     OW92781   6.071  10.154   9.022 -0.9427  0.5390 -0.1252
28982SOL    HW192782   6.145  10.180   9.078 -1.2090 -0.1691  0.5889
28982SOL    HW292783   6.086  10.199   8.939 -0.1942  1.1206  0.3111
28983SOL     OW92784   9.633   7.889   1.124 -0.1490  0.3441  0.6496
28983SOL    HW192785   9.540   7.906   1.134 -0.5728 -0.0384 -1.9700
28983SOL    HW292786   9.641   7.794   1.130  0.1697  0.4110  1.3849
28984SOL     OW92787   4.335   0.371   2.243 -0.1151  0.2129  0.4157
28984SOL    HW192788   4.327   0.405   2.154  1.2656 -0.8438 -0.1504
28984SOL    HW292789   4.359   0.279   2.231  0.2526  0.0992  1.8881
28985SOL     OW92790   0.322   2.409   7.169  0.5088  0.1875  0.8714
28985SOL    HW192791   0.309   2.323   7.130  0.7546 -0.4903  2.2400
28985SOL    HW292792   0.235   2.449   7.169  0.2466 -0.3772  0.9495
28986SOL     OW92793   6.000   0.157   8.805  0.3615 -0.1341  0.3135
28986SOL    HW192794   6.079   0.124   8.762 -0.5558 -1.8098 -0.1776
28986SOL    HW292795   5.988   0.100   8.880 -0.2860  0.2322  0.4901
28987SOL     OW92796   2.690   2.514   2.915 -0.0912  0.3036 -0.5214
28987SOL    HW192797   2.618   2.455   2.938  1.2401 -1.2664 -0.2029
28987SOL    HW292798   2.684   2.585   2.979 -0.6296 -0.4376  0.2732
28988SOL     OW92799   2.619   0.666   8.171  0.0054 -0.1646  0.3612
28988SOL    HW192800   2.575   0.750   8.184 -0.0578  0.1030 -1.3098
28988SOL    HW292801   2.599   0.642   8.080  2.0971 -0.7361 -0.0078
28989SOL     OW92802   4.648   2.575   4.593  0.7469 -0.4768  0.0575
28989SOL    HW192803   4.675   2.507   4.531 -1.4260 -1.0852 -0.3217
28989SOL    HW292804   4.576   2.536   4.642  1.4841  0.5027  2.0227
28990SOL     OW92805  10.376   4.658   2.152  0.2569  0.1324  0.4498
28990SOL    HW192806  10.354   4.626   2.240  0.6764 -2.3167 -0.2611
28990SOL    HW292807  10.350   4.587   2.093  0.8141  1.3332 -1.3501
28991SOL     OW92808   5.266   7.233   3.327 -0.4251 -0.0715  0.2260
28991SOL    HW192809   5.175   7.222   3.353 -0.5875 -1.1034 -0.6967
28991SOL    HW292810   5.262   7.283   3.246 -0.1407  0.1961  0.3751
28992SOL     OW92811   4.333   2.381   9.442  0.1276  0.5231  0.0969
28992SOL    HW192812   4.331   2.404   9.349 -1.1826  1.1156  0.2452
28992SOL    HW292813   4.243   2.359   9.463  0.4044  0.4107  1.2391
28993SOL     OW92814   8.091   7.671   0.701  0.4457 -0.1901  0.2558
28993SOL    HW192815   8.071   7.588   0.744  1.0713  0.6798  2.3398
28993SOL    HW292816   8.150   7.647   0.630 -0.5603 -1.6781 -0.1254
28994SOL     OW92817   8.879   9.586   4.387 -0.4352  0.0832  0.0649
28994SOL    HW192818   8.811   9.560   4.449  1.8571 -2.3971  1.7690
28994SOL    HW292819   8.935   9.646   4.436 -0.8658  1.4403 -1.0440
28995SOL     OW92820   7.350   6.770  10.014 -0.8393  0.3485 -0.1043
28995SOL    HW192821   7.422   6.797   9.958 -0.4582 -0.0065  0.2114
28995SOL    HW292822   7.279   6.747   9.953 -0.9862  1.5014 -0.3926
28996SOL     OW92823   9.896   6.271   5.662  0.5726 -0.0551  0.5777
28996SOL    HW192824   9.822   6.330   5.647  0.9439  0.3031  0.1345
28996SOL    HW292825   9.895   6.212   5.587  0.4402 -0.3656  0.8221
28997SOL     OW92826  10.551   7.088   7.160  0.6224  0.2154 -0.0548
28997SOL    HW192827  10.464   7.128   7.167  0.1969 -0.3047 -1.8620
28997SOL    HW292828  10.608   7.160   7.130  0.9074  0.6178  1.3613
28998SOL     OW92829   8.189   8.788   3.217 -0.0455 -0.0721 -0.0661
28998SOL    HW192830   8.238   8.801   3.299  0.2869 -0.8821 -0.1306
28998SOL    HW292831   8.143   8.871   3.204 -0.5566 -0.1195  1.2454
28999SOL     OW92832   5.685   7.449   9.710 -0.1994 -0.0899  0.3632
28999SOL    HW192833   5.622   7.513   9.744 -1.2297 -0.8601 -0.0481
28999SOL    HW292834   5.650   7.424   9.624  0.6975 -0.5057  0.1053
29000SOL     OW92835   1.525   8.079   7.853 -0.2982  0.0175  0.3793
29000SOL    HW192836   1.540   8.139   7.926  2.2780  1.4587 -1.1872
29000SOL    HW292837   1.463   8.125   7.797  1.0272  0.9153 -0.4020
29001SOL     OW92838   6.709   0.712   2.514 -0.1311  0.2623 -0.6758
29001SOL    HW192839   6.786   0.769   2.512  0.9936 -1.1621  0.4735
29001SOL    HW292840   6.712   0.664   2.431  0.2663  0.1541 -0.5988
29002SOL     OW92841   1.320  10.267   9.534  0.6676 -0.7495  0.4017
29002SOL    HW192842   1.254  10.329   9.505  1.2542 -0.6071 -0.6970
29002SOL    HW292843   1.271  10.191   9.565 -0.0474  0.0875  1.4111
29003SOL     OW92844  10.183   6.026   1.494  0.2207  0.0702  0.4998
29003SOL    HW192845  10.271   6.028   1.457 -1.2351  1.2243 -3.3377
29003SOL    HW292846  10.134   5.966   1.437 -1.8568  0.5896  1.6339
29004SOL     OW92847   0.258   3.818   4.578 -0.6888 -0.0730  0.2035
29004SOL    HW192848   0.204   3.745   4.546 -2.7099  1.2963  0.3221
29004SOL    HW292849   0.218   3.842   4.662 -0.4390  1.5295 -0.1042
29005SOL     OW92850   2.707   9.064   4.000 -0.2854  0.1607 -0.3804
29005SOL    HW192851   2.735   9.080   3.910 -1.4115 -1.4884 -1.0775
29005SOL    HW292852   2.682   8.971   4.001 -1.5620  0.4747  1.2733
29006SOL     OW92853   8.021   8.225   0.380 -0.2886  0.0491 -0.3156
29006SOL    HW192854   7.939   8.249   0.337 -1.0167 -1.8071 -0.0425
29006SOL    HW292855   8.083   8.211   0.309  0.1206  2.3907 -0.4962
29007SOL     OW92856   9.030   3.037   2.328  0.3795  0.1571 -0.2129
29007SOL    HW192857   8.943   2.999   2.312 -0.1004  1.3783 -0.6359
29007SOL    HW292858   9.091   2.974   2.290 -0.2834 -0.9264  0.4570
29008SOL     OW92859   7.725   8.468   4.656 -0.0162 -0.6204 -0.1180
29008SOL    HW192860   7.672   8.405   4.705 -0.5722 -0.5226 -0.5704
29008SOL    HW292861   7.662   8.533   4.624  0.4047 -0.3929 -0.5094
29009SOL     OW92862   8.379   8.969   6.094  0.4161  0.3320 -0.4910
29009SOL    HW192863   8.391   8.996   6.003 -1.3136  0.8908 -0.5940
29009SOL    HW292864   8.388   8.874   6.092  3.9896  0.5281 -0.5613
29010SOL     OW92865   1.940   4.399   6.606 -0.1252  0.1302  0.3539
29010SOL    HW192866   1.896   4.465   6.553  2.0079  0.1658 -1.4961
29010SOL    HW292867   1.973   4.335   6.543  0.3009 -1.2314  1.8724
29011SOL     OW92868   5.825  10.407   4.529  0.0553  0.1730  0.7728
29011SOL    HW192869   5.824  10.499   4.505  1.1436  0.3375  1.3007
29011SOL    HW292870   5.832  10.360   4.446  0.3513  0.5986  0.5528
29012SOL     OW92871   2.892   6.320   5.511 -0.4946 -0.3089 -0.3061
29012SOL    HW192872   2.984   6.330   5.486 -0.5938  2.8061  0.1155
29012SOL    HW292873   2.877   6.390   5.575 -3.1031 -0.8492 -0.2112
29013SOL     OW92874   0.511   4.679   3.041  0.2133  0.1026  0.2419
29013SOL    HW192875   0.498   4.748   2.976 -0.0045  0.2322  0.4188
29013SOL    HW292876   0.587   4.707   3.092 -0.2904  0.5594  0.7525
29014SOL     OW92877   3.640   9.847   6.876 -0.0596 -0.1650  0.3085
29014SOL    HW192878   3.628   9.819   6.967  0.5826  1.0098  0.7823
29014SOL    HW292879   3.730   9.822   6.855  0.9143  2.3403  1.1040
29015SOL     OW92880   8.726   7.151   4.215  0.5317  0.5571 -0.5233
29015SOL    HW192881   8.658   7.174   4.152 -0.3774  0.7362  0.4861
29015SOL    HW292882   8.704   7.202   4.293  1.8260  0.6010 -0.1705
29016SOL     OW92883   4.029   4.119  10.131 -0.1117  0.2821  0.2699
29016SOL    HW192884   3.994   4.166  10.207  2.2013  1.4864  0.6735
29016SOL    HW292885   4.004   4.028  10.146 -2.8641  0.9904  0.5535
29017SOL     OW92886   5.778   1.375   8.202 -0.2529  0.0913 -0.1059
29017SOL    HW192887   5.819   1.288   8.201  0.2053  0.2964  0.2354
29017SOL    HW292888   5.737   1.381   8.288  0.9575  0.7642  0.4550
29018SOL     OW92889   2.630   4.023   1.309  0.2578  0.3231  0.0866
29018SOL    HW192890   2.592   4.080   1.376  0.0437  0.2379  0.0380
29018SOL    HW292891   2.701   4.074   1.271 -0.3232  0.7915 -0.3832
29019SOL     OW92892   8.240  10.229   6.399  0.2757 -0.0172 -0.8649
29019SOL    HW192893   8.150  10.235   6.367 -1.0689 -2.3096  1.9716
29019SOL    HW292894   8.274  10.148   6.361  0.0861 -0.6445  0.2671
29020SOL     OW92895  10.879   7.515   4.620 -0.5132 -0.0110 -0.0152
29020SOL    HW192896  10.890   7.509   4.715  0.8706  2.5666  0.1059
29020SOL    HW292897  10.954   7.467   4.584  0.7704  1.6020  0.3537
29021SOL     OW92898   5.128   5.708   3.477  0.5291 -0.2303  0.2145
29021SOL    HW192899   5.082   5.778   3.432  1.4321  0.8136  0.8808
29021SOL    HW292900   5.160   5.651   3.406  1.1043  0.8641 -0.4298
29022SOL     OW92901   5.921   7.920   5.942  0.2611  0.4301  0.6577
29022SOL    HW192902   5.834   7.908   5.980  0.5364 -0.2908  1.0837
29022SOL    HW292903   5.906   7.920   5.848 -0.2926  1.1156  0.7346
29023SOL     OW92904   5.980   9.329  10.549  0.2186 -0.4364 -0.0938
29023SOL    HW192905   5.892   9.335  10.585  0.3532 -2.6768  0.7539
29023SOL    HW292906   6.001   9.235  10.551  1.5630 -0.2903 -2.8663
29024SOL     OW92907   7.936   3.626   7.251  0.2350 -0.0080 -0.0995
29024SOL    HW192908   7.999   3.605   7.320 -2.2501  0.8455  2.6212
29024SOL    HW292909   7.891   3.543   7.234 -1.3773  0.3913  1.8362
29025SOL     OW92910   6.309   3.188  10.039 -0.0047 -0.3018 -0.1953
29025SOL    HW192911   6.214   3.179  10.039  0.0317 -0.6966 -0.6859
29025SOL    HW292912   6.327   3.247  10.113 -0.5651 -0.9127  0.4465
29026SOL     OW92913   7.562   2.890   6.393  0.7395 -0.2233  0.1162
29026SOL    HW192914   7.547   2.902   6.299  0.6261 -0.8631  0.0465
29026SOL    HW292915   7.656   2.908   6.404  0.9286 -0.9121 -0.2592
29027SOL     OW92916   9.156   7.015   9.128 -0.1746 -0.3567 -0.0927
29027SOL    HW192917   9.242   6.976   9.112 -0.2576 -1.0661  1.0977
29027SOL    HW292918   9.127   6.976   9.210 -0.9399  1.0893  0.3508
29028SOL     OW92919   3.472   2.129   1.822 -0.7019  0.1598 -0.0781
29028SOL    HW192920   3.545   2.185   1.794  0.1956 -1.1373 -0.4452
29028SOL    HW292921   3.400   2.151   1.763  0.0105  0.1035 -0.9895
29029SOL     OW92922   8.530   2.598  10.380 -0.1299 -0.0366 -0.5779
29029SOL    HW192923   8.621   2.620  10.399  0.2116  0.2458 -2.3551
29029SOL    HW292924   8.508   2.531  10.445  2.0003 -1.5838 -1.3267
29030SOL     OW92925   9.625   0.381   1.709  0.1532  0.2724  0.1565
29030SOL    HW192926   9.607   0.454   1.651 -0.9229 -1.2490 -1.5458
29030SOL    HW292927   9.539   0.344   1.730  0.5692  0.3451  2.1790
29031SOL     OW92928   1.130   0.594   8.330  0.1416 -0.5173  0.1585
29031SOL    HW192929   1.209   0.572   8.379  0.3820 -3.1855 -1.2590
29031SOL    HW292930   1.066   0.618   8.397  1.4539 -0.5760  1.4903
29032SOL     OW92931   3.615   1.816   9.220 -0.0363 -0.5558  0.6162
29032SOL    HW192932   3.598   1.818   9.315  0.3588  0.1184  0.6789
29032SOL    HW292933   3.694   1.867   9.209 -0.2705 -0.3446 -0.1216
29033SOL     OW92934   8.694   8.030   2.427 -0.1774  0.0576 -0.1270
29033SOL    HW192935   8.600   8.014   2.414 -0.1585 -0.1868  0.0344
29033SOL    HW292936   8.717   8.094   2.359 -0.6332  0.7154  0.3185
29034SOL     OW92937   0.467   5.621   6.545 -0.0635 -0.2427 -0.1583
29034SOL    HW192938   0.415   5.543   6.566  0.0746 -0.7738 -1.6858
29034SOL    HW292939   0.520   5.635   6.623 -2.1568  0.0814  1.3080
29035SOL     OW92940  10.131   3.190  10.036 -0.1767  0.2599  0.5533
29035SOL    HW192941  10.172   3.261  10.085  0.4768  0.0525  0.3210
29035SOL    HW292942  10.064   3.155  10.094  1.2941 -0.6919  1.7489
29036SOL     OW92943   5.376   3.778   3.985 -0.2520 -0.6736 -0.4912
29036SOL    HW192944   5.344   3.695   3.951 -0.2345 -0.4695 -1.0170
29036SOL    HW292945   5.457   3.757   4.030 -0.8404 -1.1165  0.3900
29037SOL     OW92946   4.899   7.627   1.959 -0.4544  0.2606 -0.1250
29037SOL    HW192947   4.861   7.571   2.027 -3.6513  1.3443 -0.8799
29037SOL    HW292948   4.919   7.709   2.003 -0.8502  0.3648 -0.1442
29038SOL     OW92949   1.172   1.456   0.811  0.0886 -0.2089  0.2976
29038SOL    HW192950   1.110   1.444   0.739  0.6147  0.0190 -0.2079
29038SOL    HW292951   1.229   1.379   0.805  1.2420  0.6688 -0.6789
29039SOL     OW92952   0.073   5.611   3.159  0.3145  0.0801 -0.0173
29039SOL    HW192953   0.111   5.639   3.243 -0.3401 -1.7089  0.9133
29039SOL    HW292954   0.122   5.661   3.094  2.4299 -0.1472  1.2780
29040SOL     OW92955   7.302   2.547   6.144 -0.3530 -0.5162  0.8221
29040SOL    HW192956   7.354   2.580   6.217 -0.6801 -0.2407  0.9335
29040SOL    HW292957   7.284   2.456   6.167  2.3528 -1.4702 -0.4778
29041SOL     OW92958   0.328   6.302   3.519  0.2497 -0.0762  0.3296
29041SOL    HW192959   0.344   6.322   3.427 -0.0314 -1.3135 -0.0110
29041SOL    HW292960   0.242   6.340   3.538  0.4381  0.4356  0.1693
29042SOL     OW92961   5.480   2.080  10.525  0.7220  0.4465  0.0732
29042SOL    HW192962   5.490   1.999  10.576  0.3570  1.2621  1.5156
29042SOL    HW292963   5.564   2.092  10.482  0.2271 -1.6028 -1.6177
29043SOL     OW92964   6.624   9.420   6.293 -0.0581  0.0636 -0.2111
29043SOL    HW192965   6.633   9.357   6.364  0.9530  1.3887  0.8859
29043SOL    HW292966   6.624   9.505   6.336  0.7251  0.9191 -1.8138
29044SOL     OW92967   2.994   9.236   1.027 -0.6406  0.5668 -0.3233
29044SOL    HW192968   3.030   9.147   1.035  0.5321  1.1443  1.8170
29044SOL    HW292969   2.901   9.223   1.011 -0.8103 -1.1422  1.5609
29045SOL     OW92970   3.814   4.412   5.143 -0.2668 -0.6469 -0.3053
29045SOL    HW192971   3.846   4.494   5.105 -1.8474  0.0510 -0.2228
29045SOL    HW292972   3.885   4.384   5.202 -0.3866  1.6287  1.0491
29046SOL     OW92973   5.299   3.742   3.172 -0.2648 -0.3402  0.1268
29046SOL    HW192974   5.345   3.684   3.233  0.1632 -1.4923 -1.2236
29046SOL    HW292975   5.311   3.700   3.087 -0.5988  1.3707 -0.7978
29047SOL     OW92976   1.148   4.318   0.594 -0.2101  0.5459 -0.0217
29047SOL    HW192977   1.072   4.350   0.545 -0.5545  1.6825  1.1824
29047SOL    HW292978   1.207   4.393   0.597  0.4204  0.0521  0.1260
29048SOL     OW92979   7.713   3.912   2.628  0.1710 -0.0793  0.1798
29048SOL    HW192980   7.643   3.965   2.588 -0.7855 -2.5266 -1.6536
29048SOL    HW292981   7.745   3.966   2.700 -1.4626  2.4868 -0.8443
29049SOL     OW92982   8.037   5.471   1.815 -0.8913 -0.1441 -0.2963
29049SOL    HW192983   8.047   5.504   1.904  0.3565  0.1094 -0.4980
29049SOL    HW292984   7.974   5.530   1.774 -1.3000 -0.1239  0.3535
29050SOL     OW92985  10.359   4.330   4.845 -0.3758  0.3593 -0.0796
29050SOL    HW192986  10.305   4.403   4.814  0.7851  0.5251 -1.8778
29050SOL    HW292987  10.318   4.252   4.809 -0.1612  0.3705 -0.3525
29051SOL     OW92988   9.770   6.909   8.647  0.2609  0.1654  0.0545
29051SOL    HW192989   9.829   6.950   8.710 -0.8340  0.2044  1.0882
29051SOL    HW292990   9.705   6.864   8.701 -0.1399 -0.6307 -1.0573
29052SOL     OW92991   1.380   6.037   8.585 -0.7348  0.0454  0.2576
29052SOL    HW192992   1.350   6.126   8.565  2.1193  0.8971 -0.6062
29052SOL    HW292993   1.472   6.036   8.561 -0.8745 -3.4661 -0.6634
29053SOL     OW92994   0.052   3.426   9.199  0.0813  0.3136 -0.1187
29053SOL    HW192995  -0.034   3.456   9.169  0.4512  2.1654  0.5226
29053SOL    HW292996   0.032   3.360   9.265 -0.8226 -0.0483 -0.7283
29054SOL     OW92997   0.789   0.068   5.742  0.1615  0.2836  0.0345
29054SOL    HW192998   0.784   0.160   5.718 -0.8810  0.5136  0.9944
29054SOL    HW292999   0.729   0.024   5.682 -0.8800  0.5539  0.8375
29055SOL     OW93000   3.632   9.207   5.030 -1.2194  0.4210 -0.4140
29055SOL    HW193001   3.578   9.128   5.026  0.7205 -0.9052 -2.0330
29055SOL    HW293002   3.659   9.223   4.940  1.3168  0.8220  0.3347
29056SOL     OW93003   0.011   1.214   6.953 -0.1410  0.3612  0.2235
29056SOL    HW193004   0.095   1.232   6.911  1.7850 -4.1451  1.5320
29056SOL    HW293005  -0.054   1.230   6.883  2.1010  0.8879 -1.8803
29057SOL     OW93006   4.636   9.508   3.598 -0.4745 -0.3459  0.3911
29057SOL    HW193007   4.541   9.492   3.605 -0.3087 -1.6846 -0.0065
29057SOL    HW293008   4.675   9.429   3.635  0.4878  0.0047  0.1355
29058SOL     OW93009   3.105   8.311   6.811 -0.0710  0.6429  0.4982
29058SOL    HW193010   3.092   8.389   6.866  0.5656  0.5106  0.8512
29058SOL    HW293011   3.051   8.244   6.852  0.1686  0.6283  0.7980
29059SOL     OW93012   9.984   5.095   0.921 -0.0179  0.3444  0.5195
29059SOL    HW193013  10.001   5.089   0.827 -1.3476  0.1559  0.2601
29059SOL    HW293014  10.069   5.112   0.961  0.3693  1.9323 -0.8611
29060SOL     OW93015   8.760  10.886   0.759  0.2298 -0.4560  0.7463
29060SOL    HW193016   8.797  10.919   0.841  0.5732  2.3909 -0.4686
29060SOL    HW293017   8.665  10.893   0.771  0.2821  0.1363  0.8260
29061SOL     OW93018   5.507   5.675   1.452  0.1285  0.7234  0.3802
29061SOL    HW193019   5.485   5.685   1.360  1.4366 -0.2679 -0.0741
29061SOL    HW293020   5.425   5.690   1.499 -0.4575  1.6656 -0.9040
29062SOL     OW93021   9.080   4.588   7.955 -0.3797  0.2978 -0.2265
29062SOL    HW193022   9.114   4.607   7.868  1.4541 -1.7455 -0.0488
29062SOL    HW293023   9.133   4.643   8.014  0.4895 -0.5368 -0.2025
29063SOL     OW93024   9.311   4.903   0.858 -0.3227 -0.6528  0.0185
29063SOL    HW193025   9.303   4.817   0.816  1.3670 -1.0867  0.5331
29063SOL    HW293026   9.397   4.902   0.900  0.0412  1.5577 -0.5494
29064SOL     OW93027  10.313   9.511   1.479 -0.3023  0.0827 -0.0046
29064SOL    HW193028  10.275   9.511   1.391  1.4839 -0.4421 -0.8260
29064SOL    HW293029  10.365   9.431   1.483 -1.3140 -0.5320  2.0035
29065SOL     OW93030   3.657   2.994   5.467  0.9336 -0.2940  0.2668
29065SOL    HW193031   3.618   3.060   5.409 -0.7823 -1.9108 -0.5464
29065SOL    HW293032   3.601   2.995   5.545  0.9633 -0.6993  0.2955
29066SOL     OW93033   9.360  10.704   5.126  0.3179 -0.0364 -0.2803
29066SOL    HW193034   9.309  10.735   5.051 -0.4020 -0.6394 -0.0554
29066SOL    HW293035   9.402  10.782   5.160  0.5435  0.2690 -1.2263
29067SOL     OW93036   2.685   1.507  10.781  0.3921  0.1988  0.3266
29067SOL    HW193037   2.704   1.508  10.875 -0.2435  1.2557  0.4603
29067SOL    HW293038   2.645   1.592  10.763  2.1400  0.7532 -1.2616
29068SOL     OW93039   1.818  10.517   3.268 -0.3097 -0.2073 -0.1428
29068SOL    HW193040   1.883  10.568   3.316 -0.5441  1.5261 -1.5694
29068SOL    HW293041   1.755  10.490   3.335  0.6440  0.0624  0.8886
29069SOL     OW93042   2.814   6.098   3.352  0.2097  0.8457 -0.1210
29069SOL    HW193043   2.867   6.142   3.286  1.5145 -1.6188 -0.8327
29069SOL    HW293044   2.764   6.033   3.303 -1.6517  1.4167  0.8925
29070SOL     OW93045   1.217   1.327   0.124 -0.0855  0.3317  0.2459
29070SOL    HW193046   1.181   1.239   0.132 -0.4228  0.5349  1.0017
29070SOL    HW293047   1.241   1.351   0.213 -0.0048  1.0113  0.0443
29071SOL     OW93048   8.533  10.102   3.823 -0.2319  0.5381  0.1414
29071SOL    HW193049   8.613  10.155   3.817 -0.3349  0.6089 -0.6206
29071SOL    HW293050   8.564  10.015   3.848  0.3987 -0.1848 -2.8228
29072SOL     OW93051   3.935   9.598   4.237  0.1046  0.4307  0.1741
29072SOL    HW193052   3.883   9.569   4.163 -1.6187  2.4088  0.5356
29072SOL    HW293053   3.948   9.519   4.290 -0.1742 -0.6285 -1.2920
29073SOL     OW93054   9.522   5.260   0.998  0.0015 -0.4111 -0.3286
29073SOL    HW193055   9.498   5.330   1.060 -0.2720 -0.7336 -0.0611
29073SOL    HW293056   9.603   5.224   1.033 -0.8324 -1.4739  0.6174
29074SOL     OW93057   2.583   8.191   6.471 -0.5285  0.0205  0.0829
29074SOL    HW193058   2.596   8.142   6.390 -1.7942 -0.1900 -0.0143
29074SOL    HW293059   2.490   8.215   6.470 -0.7363 -0.5471  1.7594
29075SOL     OW93060   7.419   6.173   6.084  0.3582 -0.5371 -0.1704
29075SOL    HW193061   7.336   6.126   6.087  0.0889 -0.0767 -0.4186
29075SOL    HW293062   7.408   6.238   6.015  0.9726 -0.5645 -0.2994
29076SOL     OW93063   1.570   6.183   0.084 -0.3471  0.3463 -0.7421
29076SOL    HW193064   1.633   6.224   0.025  0.7872  0.8674  0.7521
29076SOL    HW293065   1.624   6.144   0.152 -1.4569 -2.6353 -1.4469
29077SOL     OW93066   2.228   3.182   1.742  0.1772 -0.5796 -0.1379
29077SOL    HW193067   2.212   3.254   1.681  0.0078 -1.2912 -0.9627
29077SOL    HW293068   2.322   3.189   1.762  0.9184 -1.9652 -2.7110
29078SOL     OW93069   8.077   0.976   6.424 -0.1339 -0.6594  0.1231
29078SOL    HW193070   8.152   0.940   6.472 -0.4028 -0.6313  0.5665
29078SOL    HW293071   8.022   0.899   6.405 -0.5167 -0.5474  0.7342
29079SOL     OW93072   7.886   1.976   9.154  0.0942 -0.0448  0.2543
29079SOL    HW193073   7.800   1.994   9.192  0.6950 -0.0949  1.7047
29079SOL    HW293074   7.948   2.017   9.214  1.1667 -1.4333  0.1531
29080SOL     OW93075  10.738   6.352   7.870 -0.2844  0.0827  0.0766
29080SOL    HW193076  10.662   6.400   7.905 -0.4218  0.2567 -0.4502
29080SOL    HW293077  10.715   6.334   7.779 -0.3282 -1.1888  0.3240
29081SOL     OW93078   2.664   4.305   8.656 -0.3132 -0.1073  0.1905
29081SOL    HW193079   2.683   4.359   8.732  2.9221  0.1171 -0.6380
29081SOL    HW293080   2.691   4.217   8.681 -1.3472 -0.4898  0.0157
29082SOL     OW93081   5.057   6.479   1.061  0.6225 -0.0975 -0.2457
29082SOL    HW193082   5.106   6.555   1.030  2.0961 -0.2284  1.5781
29082SOL    HW293083   5.003   6.513   1.133  1.7862 -0.8294  1.0294
29083SOL     OW93084   3.383   9.558   7.208  1.2277 -0.2259  0.4651
29083SOL    HW193085   3.333   9.637   7.185  0.4462 -0.5168  1.1173
29083SOL    HW293086   3.392   9.511   7.125 -0.6994 -0.7795  0.5139
29084SOL     OW93087   7.897   3.972   3.518 -0.1419  0.2633  0.1527
29084SOL    HW193088   7.860   3.960   3.605  1.4033 -0.2962  0.7607
29084SOL    HW293089   7.978   4.020   3.533 -1.3612  3.0310 -1.3070
29085SOL     OW93090   7.277   1.488   0.706 -0.4506  1.0642 -0.4443
29085SOL    HW193091   7.327   1.411   0.678 -0.0345  0.9528  0.5460
29085SOL    HW293092   7.307   1.559   0.649  0.0248  0.7490 -0.5928
29086SOL     OW93093   6.915   2.877   0.704  0.5495 -0.2208 -0.2472
29086SOL    HW193094   6.916   2.896   0.798 -0.0756 -2.0039  0.1628
29086SOL    HW293095   6.957   2.953   0.663  0.4824  0.7584  1.4318
29087SOL     OW93096   3.288   9.419   6.978 -0.0668  0.6875 -0.2821
29087SOL    HW193097   3.252   9.480   6.913  1.9529 -0.7847 -2.9898
29087SOL    HW293098   3.248   9.335   6.957  0.9494  0.0928  0.0852
29088SOL     OW93099   7.665   0.509   8.800  0.9338  0.2261  0.0344
29088SOL    HW193100   7.637   0.579   8.741  2.1084  1.4356  0.8604
29088SOL    HW293101   7.625   0.531   8.884  0.0163 -0.9870 -0.0572
29089SOL     OW93102   1.540   0.597   0.491  0.0112  0.4287 -0.2832
29089SOL    HW193103   1.526   0.600   0.396 -0.1339  0.1216 -0.2759
29089SOL    HW293104   1.633   0.578   0.501 -0.1892 -0.6879 -0.3868
29090SOL     OW93105   4.338   1.927   1.551  0.4196 -0.4217  0.5899
29090SOL    HW193106   4.323   1.866   1.479  2.2391 -1.9020  1.3929
29090SOL    HW293107   4.382   2.002   1.510 -0.3949 -0.3090 -0.1316
29091SOL     OW93108   9.866   9.040   8.280 -0.6025  0.2922  0.4350
29091SOL    HW193109   9.804   9.039   8.353 -1.2870 -0.5914 -0.1410
29091SOL    HW293110   9.844   9.118   8.230 -2.4284 -0.8970 -0.7242
29092SOL     OW93111   3.379   1.463   2.349  0.3547  0.8558 -0.0583
29092SOL    HW193112   3.332   1.455   2.432 -0.7094  1.6360 -0.5503
29092SOL    HW293113   3.400   1.374   2.323  1.0331  0.6284  1.2266
29093SOL     OW93114   4.294   2.833  10.902  0.1504 -0.5956 -0.6220
29093SOL    HW193115   4.257   2.913  10.863 -0.8200  0.2533  1.8312
29093SOL    HW293116   4.220   2.791  10.945  1.3748 -0.5429  1.7027
29094SOL     OW93117   1.218   7.778   4.164  0.1858 -0.3666  0.3574
29094SOL    HW193118   1.204   7.702   4.107 -2.1818 -1.1360  1.8366
29094SOL    HW293119   1.253   7.845   4.106  0.7703 -2.0415 -1.3414
29095SOL     OW93120   2.258   2.976   5.149 -0.5669  0.3897 -0.4117
29095SOL    HW193121   2.183   2.947   5.201 -1.8243 -0.6991 -2.7076
29095SOL    HW293122   2.331   2.980   5.212 -1.5198 -2.8082  1.0741
29096SOL     OW93123   2.073   3.546   3.329 -0.1267 -0.5718  0.0303
29096SOL    HW193124   2.046   3.524   3.240 -1.2800  4.2743 -1.0676
29096SOL    HW293125   2.003   3.512   3.384  0.2735 -3.0599 -0.8532
29097SOL     OW93126   2.596   9.612   9.545  0.3788  0.8436  0.4762
29097SOL    HW193127   2.544   9.667   9.487  2.2142  2.3264  0.1544
29097SOL    HW293128   2.630   9.543   9.488 -1.6026 -0.4829  0.8034
29098SOL     OW93129   5.195  10.292   5.740  0.2606 -0.6434 -0.2503
29098SOL    HW193130   5.105  10.284   5.771 -0.3260  0.6546 -1.5098
29098SOL    HW293131   5.242  10.219   5.782 -1.1593 -0.8183  1.1186
29099SOL     OW93132   3.698   5.087   1.667 -0.3624  0.7456  0.2075
29099SOL    HW193133   3.646   5.030   1.724 -0.2120 -1.5967 -1.8431
29099SOL    HW293134   3.639   5.109   1.595  0.3418  1.2530 -0.2257
29100SOL     OW93135   6.569   1.442   0.074  0.0873  0.3455 -0.2556
29100SOL    HW193136   6.614   1.412   0.153 -0.8661  2.6637  1.2822
29100SOL    HW293137   6.595   1.533   0.065 -1.1075  0.5842 -1.6876
29101SOL     OW93138   8.287   5.226   7.621  0.4875  0.1296 -0.4183
29101SOL    HW193139   8.247   5.148   7.582 -0.5716  0.7559 -0.6191
29101SOL    HW293140   8.279   5.211   7.716 -1.6126  0.8707 -0.4097
29102SOL     OW93141   7.834   9.975   2.137  0.2281 -0.3003  0.0087
29102SOL    HW193142   7.867   9.899   2.090 -1.0501 -0.8290 -0.0872
29102SOL    HW293143   7.832  10.045   2.072 -4.0031 -1.6435 -1.6905
29103SOL     OW93144   0.642   4.750   8.612  0.2726  0.2080 -0.4710
29103SOL    HW193145   0.640   4.759   8.707 -0.3093  2.1071 -0.6276
29103SOL    HW293146   0.724   4.704   8.594  0.9335  0.8105  0.8882
29104SOL     OW93147   5.037   3.334   1.360 -0.0503  0.5466  0.0916
29104SOL    HW193148   4.962   3.382   1.324 -0.0658  0.0674 -0.5201
29104SOL    HW293149   5.000   3.254   1.396  0.3226 -0.3195 -1.4026
29105SOL     OW93150  10.047   1.669   7.158 -0.8251 -0.3427 -0.6092
29105SOL    HW193151  10.129   1.621   7.146 -1.5784 -1.1352 -3.2599
29105SOL    HW293152   9.981   1.614   7.114 -2.3146  1.5180 -0.8094
29106SOL     OW93153  10.777   4.248   3.823  0.4065 -0.8020  0.0544
29106SOL    HW193154  10.730   4.282   3.747 -2.2237 -3.6317  0.2217
29106SOL    HW293155  10.835   4.180   3.787  1.3231 -0.1666  0.3036
29107SOL     OW93156   4.869   6.944  10.526 -0.4711 -0.2309 -0.8077
29107SOL    HW193157   4.868   6.853  10.496  1.3252 -0.2254 -1.0109
29107SOL    HW293158   4.906   6.939  10.615 -2.8757  0.0608  0.2743
29108SOL     OW93159   1.830   6.231   7.154 -0.4130 -0.0732  0.0214
29108SOL    HW193160   1.827   6.187   7.238 -1.4673 -1.5368 -0.7392
29108SOL    HW293161   1.831   6.325   7.175  2.5776 -0.3799  1.6985
29109SOL     OW93162   1.522   7.929   0.256 -0.2300 -0.0350  0.4006
29109SOL    HW193163   1.510   7.848   0.206  2.0005 -0.2220  0.0310
29109SOL    HW293164   1.609   7.919   0.295  0.2798  2.3612 -0.0152
29110SOL     OW93165   4.356   2.246  10.859  0.1298 -0.2830 -0.1929
29110SOL    HW193166   4.436   2.297  10.876  0.2764 -1.2103  2.4026
29110SOL    HW293167   4.386   2.171  10.809  0.6565  0.0214 -0.3477
29111SOL     OW93168   0.511   4.695   5.479 -0.0309  0.3311 -0.1455
29111SOL    HW193169   0.545   4.668   5.565 -0.9079 -1.0490 -0.1895
29111SOL    HW293170   0.581   4.674   5.418  0.0010 -0.1903  0.0602
29112SOL     OW93171   3.828   1.082   8.803 -0.0202 -0.0762  0.1677
29112SOL    HW193172   3.733   1.085   8.788 -0.0310 -1.8242 -0.3767
29112SOL    HW293173   3.857   1.005   8.754  1.6244  0.1849  0.6792
29113SOL     OW93174   4.718   5.194   2.823  0.1328 -0.3049  0.4442
29113SOL    HW193175   4.714   5.267   2.761 -0.4554 -0.9979 -0.3568
29113SOL    HW293176   4.768   5.126   2.776 -0.0423 -0.7184  0.8514
29114SOL     OW93177   4.593   6.725   5.289  0.5652 -0.0325 -0.6533
29114SOL    HW193178   4.517   6.776   5.319  0.2880  0.7247 -2.4729
29114SOL    HW293179   4.663   6.747   5.351 -0.1273  0.9256 -0.1798
29115SOL     OW93180  10.116   2.662   9.229  0.3821  0.0427  0.2261
29115SOL    HW193181  10.041   2.698   9.182  1.0134  2.5768  0.9864
29115SOL    HW293182  10.077   2.611   9.300 -0.6468  1.3048  0.6038
29116SOL     OW93183   3.472   9.212   2.994  0.0077 -0.2903 -0.0489
29116SOL    HW193184   3.477   9.174   2.906  1.1718  0.4027 -0.2953
29116SOL    HW293185   3.451   9.304   2.980  1.2012  0.0526  0.3431
29117SOL     OW93186   2.369  10.513   2.717 -0.4052 -0.2113 -0.4304
29117SOL    HW193187   2.312  10.585   2.743 -1.9033 -1.3066 -0.5939
29117SOL    HW293188   2.392  10.531   2.626  0.2984  0.7069 -0.0925
29118SOL     OW93189   9.199   3.384   7.372  0.2095  0.0317 -0.0360
29118SOL    HW193190   9.265   3.446   7.402  0.2363  0.1382 -0.3139
29118SOL    HW293191   9.216   3.305   7.423  0.4027  0.1350  0.0622
29119SOL     OW93192   9.507  10.757   9.351 -0.1505 -0.3661 -0.3391
29119SOL    HW193193   9.422  10.734   9.313 -1.5520  1.0694  1.7327
29119SOL    HW293194   9.520  10.693   9.421 -0.2320  0.2865  0.2832
29120SOL     OW93195   2.892  10.648   0.094 -0.4798 -0.4257 -0.1317
29120SOL    HW193196   2.909  10.669   0.002 -0.8750  0.2860 -0.0442
29120SOL    HW293197   2.913  10.555   0.101  1.2706 -0.0937 -0.5282
29121SOL     OW93198   8.761   4.195   4.810  0.3117 -0.1037  0.0105
29121SOL    HW193199   8.771   4.155   4.724 -1.1836  1.5150 -0.9624
29121SOL    HW293200   8.676   4.239   4.808  1.2924  2.0527  1.4271
29122SOL     OW93201   0.473   2.517   8.592  0.3184  0.2873  0.6627
29122SOL    HW193202   0.433   2.491   8.675  1.5158 -0.9941  0.8783
29122SOL    HW293203   0.405   2.501   8.526 -0.4467  0.7750  1.3141
29123SOL     OW93204  10.604   2.842   7.150  0.3164 -0.1064 -0.0624
29123SOL    HW193205  10.635   2.753   7.137 -0.8105 -0.4846 -0.3242
29123SOL    HW293206  10.672   2.898   7.113  0.8422 -0.8706 -0.2618
29124SOL     OW93207   0.113   2.914   0.738  0.0497 -0.2114 -0.3208
29124SOL    HW193208   0.099   2.826   0.772 -0.2951  0.2679  0.8056
29124SOL    HW293209   0.026   2.954   0.737  0.3115  0.3735 -0.1092
29125SOL     OW93210   6.764   7.909   7.227 -0.1531 -0.2677  0.0555
29125SOL    HW193211   6.836   7.905   7.290 -0.7886 -1.2635  0.7386
29125SOL    HW293212   6.714   7.987   7.252  1.4951  1.3863 -1.3878
29126SOL     OW93213   8.347   0.088   6.939 -0.6561  0.6179  0.0359
29126SOL    HW193214   8.371   0.096   6.847 -0.6326 -0.5126 -0.0652
29126SOL    HW293215   8.264   0.040   6.938  0.3129 -1.1680  0.6653
29127SOL     OW93216   8.539   1.732   5.621  0.2841 -0.3073  0.7177
29127SOL    HW193217   8.509   1.662   5.678  0.1543  0.4435  1.5804
29127SOL    HW293218   8.459   1.768   5.582  0.2175  0.3165  1.4083
29128SOL     OW93219   0.399   5.243   9.322  0.1704 -0.3100 -0.7841
29128SOL    HW193220   0.382   5.334   9.297  0.1373  0.3688  1.4292
29128SOL    HW293221   0.317   5.213   9.361  0.7966 -0.5379  0.4246
29129SOL     OW93222   2.480   4.261   7.571  0.1303 -0.0144  0.7839
29129SOL    HW193223   2.557   4.240   7.624  0.1573  1.8872  1.5507
29129SOL    HW293224   2.414   4.290   7.635 -0.2545  1.1226 -0.1053
29130SOL     OW93225   3.689   6.887   8.305 -0.0579 -0.1576 -0.6353
29130SOL    HW193226   3.703   6.794   8.325  0.1919  0.2025  0.9851
29130SOL    HW293227   3.774   6.928   8.318 -0.3134  0.4036 -0.6911
29131SOL     OW93228   2.552   8.776  10.565 -0.0958  0.0966  0.1323
29131SOL    HW193229   2.507   8.860  10.573 -0.5549  0.0304 -1.3811
29131SOL    HW293230   2.505   8.731  10.495  1.6819 -0.3994 -0.7911
29132SOL     OW93231   1.019   8.328   7.341  0.1222  0.3274  0.5679
29132SOL    HW193232   0.946   8.299   7.396 -0.8890 -3.5067 -2.3592
29132SOL    HW293233   0.990   8.410   7.303 -1.4105  0.3399  1.6605
29133SOL     OW93234   6.040   8.446  10.885  0.0206 -0.1278 -0.4779
29133SOL    HW193235   6.017   8.364  10.929 -1.5852  0.7051  0.3329
29133SOL    HW293236   6.006   8.436  10.796 -2.0106  0.3747  0.1882
29134SOL     OW93237  10.328   4.325   7.457  0.0233 -0.6637 -0.0759
29134SOL    HW193238  10.420   4.350   7.466 -0.5269  1.5792 -0.0549
29134SOL    HW293239  10.321   4.293   7.367  0.6673  0.0152 -0.3853
29135SOL     OW93240   5.949   3.739   2.610 -0.5367  0.1992  0.1239
29135SOL    HW193241   5.885   3.685   2.655 -0.5090  1.5936  1.9690
29135SOL    HW293242   6.021   3.680   2.589 -0.3672 -0.4638  2.3530
29136SOL     OW93243   5.264  10.528   3.988  0.3127 -0.3406  0.2970
29136SOL    HW193244   5.230  10.525   3.899  1.0553 -1.1191  0.0289
29136SOL    HW293245   5.250  10.618   4.016  1.8446  0.4477 -1.3125
29137SOL     OW93246  10.031   5.197   1.264 -0.2523  0.8570 -0.2536
29137SOL    HW193247  10.009   5.270   1.206  0.7273  1.5478  0.1955
29137SOL    HW293248  10.049   5.239   1.348  0.5327  0.1260 -0.0416
29138SOL     OW93249   3.349   8.762  10.471 -0.0446  0.4991 -0.4513
29138SOL    HW193250   3.267   8.760  10.421  0.1565  0.8275 -0.7989
29138SOL    HW293251   3.407   8.704  10.422 -0.7171 -1.4683  0.9647
29139SOL     OW93252   5.672   7.451   2.469  0.4579 -0.2387  0.1824
29139SOL    HW193253   5.591   7.429   2.423 -0.4458 -0.4711  1.8062
29139SOL    HW293254   5.670   7.399   2.549  1.9235  0.2162  0.5567
29140SOL     OW93255   0.906   7.803   2.596  0.2247 -0.3205  0.1237
29140SOL    HW193256   0.888   7.813   2.690 -2.6107 -1.4105 -0.2268
29140SOL    HW293257   0.963   7.726   2.591  0.9773  0.1574  0.9600
29141SOL     OW93258   3.158   5.352   8.054 -0.4464  0.1312  0.6015
29141SOL    HW193259   3.237   5.316   8.093 -1.1060 -1.2055  0.7530
29141SOL    HW293260   3.161   5.445   8.075  1.9740  0.4970 -0.9044
29142SOL     OW93261   4.816   7.878   2.740 -0.3814 -0.4160  0.3685
29142SOL    HW193262   4.802   7.826   2.661  0.2770 -0.8454  0.5290
29142SOL    HW293263   4.864   7.955   2.711  1.6362 -1.5159  0.6235
29143SOL     OW93264   2.647   6.389   5.040 -0.1266 -0.1843 -0.0486
29143SOL    HW193265   2.696   6.309   5.059  0.0394 -0.0885 -0.0731
29143SOL    HW293266   2.637   6.431   5.126 -2.8394 -1.7007  0.5109
29144SOL     OW93267   6.612  10.249   3.095  0.4696  0.6008  1.2021
29144SOL    HW193268   6.535  10.201   3.125  0.1105  0.3585 -0.0333
29144SOL    HW293269   6.673  10.180   3.067  0.6676  0.8158  1.1022
29145SOL     OW93270   6.459   0.101   5.001  0.0186 -0.3607 -0.5889
29145SOL    HW193271   6.425   0.189   4.981  0.8934  0.3846  0.9991
29145SOL    HW293272   6.533   0.090   4.941 -0.0751  0.0050 -0.7763
29146SOL     OW93273   8.834   1.669   1.062  0.6014 -0.5412  0.6411
29146SOL    HW193274   8.750   1.688   1.020  0.6102  0.0850  0.9027
29146SOL    HW293275   8.872   1.755   1.082  1.4934 -0.8056  0.1596
29147SOL     OW93276   0.741   0.445   2.972 -0.2326 -0.6815  0.5754
29147SOL    HW193277   0.671   0.462   2.908  1.4250 -1.3223 -1.5364
29147SOL    HW293278   0.696   0.441   3.056 -2.7468 -1.2453 -0.6939
29148SOL     OW93279   6.282   3.973   8.797 -0.6114 -0.0229  0.6459
29148SOL    HW193280   6.311   3.953   8.886 -1.4682  0.5136  1.0563
29148SOL    HW293281   6.224   3.901   8.774 -1.2270  0.3701  0.9358
29149SOL     OW93282   4.080   0.988   2.318  0.5872  0.0654 -0.4672
29149SOL    HW193283   4.110   0.922   2.255  1.1022  0.0466 -0.2116
29149SOL    HW293284   3.986   0.997   2.301  0.4893 -0.8177 -0.4214
29150SOL     OW93285   0.391   8.491   1.566  0.1506  0.1725  0.3614
29150SOL    HW193286   0.466   8.500   1.625  0.8788 -0.2449 -0.4836
29150SOL    HW293287   0.357   8.580   1.557 -0.3788  0.1526  1.9152
29151SOL     OW93288  10.476   1.652   6.081  0.5815 -0.3109  0.1849
29151SOL    HW193289  10.556   1.665   6.132  0.9015  0.4806 -0.5084
29151SOL    HW293290  10.447   1.564   6.106  1.3548 -0.3904  0.8635
29152SOL     OW93291  10.106   4.855   1.496  0.8107  0.3359  0.7971
29152SOL    HW193292  10.133   4.896   1.414 -0.1888  1.4089  0.9871
29152SOL    HW293293  10.144   4.911   1.564  0.2134  0.4164  1.0636
29153SOL     OW93294   1.488   6.852   0.337 -0.0528  0.0678  0.2225
29153SOL    HW193295   1.402   6.810   0.346 -0.6954  1.2250 -0.2047
29153SOL    HW293296   1.501   6.897   0.421 -0.5368  1.0591 -0.2190
29154SOL     OW93297   4.131   4.286   6.930  0.0930  0.1354  0.2434
29154SOL    HW193298   4.108   4.322   6.844 -0.7381  1.4035  0.9540
29154SOL    HW293299   4.226   4.301   6.938  0.8073 -2.6985 -1.6161
29155SOL     OW93300   4.682   2.611   5.671 -0.2551  0.0528 -0.2231
29155SOL    HW193301   4.712   2.627   5.582  2.6800 -0.8879  0.4637
29155SOL    HW293302   4.589   2.590   5.662 -0.0814  0.0750 -3.0386
29156SOL     OW93303   5.962   8.735   1.080  0.2640 -0.6290  0.3873
29156SOL    HW193304   5.913   8.659   1.111  0.1878 -0.5319  0.5063
29156SOL    HW293305   5.956   8.798   1.152  0.2745 -0.4866  0.2644
29157SOL     OW93306   4.938   2.507   7.643  0.4831 -0.2983 -0.2450
29157SOL    HW193307   4.880   2.582   7.629  1.0939  0.0494 -0.9832
29157SOL    HW293308   4.936   2.459   7.560 -0.7881 -1.7576  0.5689
29158SOL     OW93309   9.949   6.277  10.458  0.1971  0.1641 -0.1355
29158SOL    HW193310   9.944   6.371  10.478  1.5394  0.4133 -0.8134
29158SOL    HW293311  10.032   6.268  10.411  0.2713 -1.4307  0.2572
29159SOL     OW93312  10.217   7.083   3.638  0.1713  0.3181 -0.2480
29159SOL    HW193313  10.262   7.133   3.706 -0.2988  0.1730  0.1747
29159SOL    HW293314  10.286   7.029   3.598 -0.0674 -2.1734  2.3987
29160SOL     OW93315   3.852   4.114   9.171  0.9059 -0.1805  0.4764
29160SOL    HW193316   3.810   4.057   9.107  1.6014 -0.7148  0.4889
29160SOL    HW293317   3.944   4.116   9.145  1.1640 -0.2785  1.3613
29161SOL     OW93318   1.081   3.898  10.648  0.2542 -0.8186 -0.2454
29161SOL    HW193319   1.006   3.955  10.633  0.1221 -0.6955  0.7973
29161SOL    HW293320   1.150   3.957  10.679  0.3728 -1.1123  0.0512
29162SOL     OW93321   4.862   2.750   9.510 -0.0785  0.5105  0.2517
29162SOL    HW193322   4.834   2.711   9.593  2.4881 -1.5551  0.2657
29162SOL    HW293323   4.822   2.695   9.443  1.0931 -0.3600  0.2330
29163SOL     OW93324   9.589   8.097   7.891 -0.0374 -0.1222  0.4829
29163SOL    HW193325   9.664   8.056   7.933 -0.0063 -0.2048  0.3451
29163SOL    HW293326   9.521   8.029   7.891 -0.0509 -0.1089  0.4363
29164SOL     OW93327   0.670   9.880   6.929  0.3247 -0.1398  0.1906
29164SOL    HW193328   0.655   9.958   6.875 -3.2665 -0.9746 -0.2730
29164SOL    HW293329   0.687   9.914   7.016  2.0604  1.1471 -0.5880
29165SOL     OW93330   1.339   9.238   1.450 -0.6240  0.4507 -0.1742
29165SOL    HW193331   1.271   9.187   1.493 -2.0815  1.4239 -1.2251
29165SOL    HW293332   1.296   9.277   1.374  0.8798  1.7903 -0.4057
29166SOL     OW93333   9.024   3.473   0.853 -0.7603  0.0678  0.6795
29166SOL    HW193334   8.972   3.405   0.810 -0.2305 -0.2212  0.4920
29166SOL    HW293335   9.023   3.547   0.791  0.5306 -0.5702 -0.1418
29167SOL     OW93336   3.795  10.045   0.125  0.4481 -0.4236 -0.5962
29167SOL    HW193337   3.776  10.134   0.096 -1.1208 -0.0539  1.4020
29167SOL    HW293338   3.828  10.056   0.214 -0.6098 -1.8953 -0.0046
29168SOL     OW93339   9.256   5.587   0.116  0.0766 -0.4144  0.2520
29168SOL    HW193340   9.207   5.577   0.198  0.3450 -0.0038  0.4665
29168SOL    HW293341   9.348   5.590   0.143  0.2392 -1.2829 -0.1560
29169SOL     OW93342   5.662   3.631   7.875 -0.3409 -0.5702  0.4930
29169SOL    HW193343   5.750   3.607   7.903 -0.6840 -0.2092  2.0009
29169SOL    HW293344   5.648   3.719   7.911 -0.7492  0.0386 -1.0881
29170SOL     OW93345   9.603   4.520   6.886 -0.3059 -0.2544 -0.4616
29170SOL    HW193346   9.567   4.595   6.838 -0.5592 -0.0437  0.0464
29170SOL    HW293347   9.527   4.471   6.915 -0.1765 -0.1270  0.1136
29171SOL     OW93348   3.769   3.288   8.984 -0.1884 -0.0066  0.0855
29171SOL    HW193349   3.777   3.196   8.958  0.7150  0.3457 -0.9913
29171SOL    HW293350   3.754   3.285   9.078 -0.4269 -1.2645  0.0307
29172SOL     OW93351  10.779   5.387   3.680  0.3011 -0.3576  0.0478
29172SOL    HW193352  10.866   5.352   3.662  1.6724  2.5199  0.5155
29172SOL    HW293353  10.767   5.374   3.775 -0.1952 -1.5411 -0.1636
29173SOL     OW93354   0.058   5.110   3.714 -0.4996  0.2346 -0.0232
29173SOL    HW193355   0.042   5.023   3.751 -1.1945  0.8191  1.1179
29173SOL    HW293356   0.042   5.100   3.620 -3.2519 -0.2932  0.4074
29174SOL     OW93357   1.424   2.223   4.485 -0.5738 -0.2630 -0.7386
29174SOL    HW193358   1.443   2.146   4.431 -3.2691 -0.6265 -1.3138
29174SOL    HW293359   1.439   2.298   4.427  5.1292  0.1254  0.6715
29175SOL     OW93360   4.729   6.776   7.076  0.0883 -0.6541  0.3638
29175SOL    HW193361   4.760   6.777   7.166  0.8830  1.3767  0.1267
29175SOL    HW293362   4.642   6.816   7.080  0.7014  0.7561  0.0858
29176SOL     OW93363   5.107   2.095   4.662  0.3725  0.3516 -0.2212
29176SOL    HW193364   5.122   2.146   4.741 -1.4114 -1.5229  1.4479
29176SOL    HW293365   5.192   2.092   4.619  1.6895  0.5053  2.2086
29177SOL     OW93366   0.921   4.967   3.311  0.5221  0.1889 -0.4616
29177SOL    HW193367   0.980   4.925   3.374  0.8163  0.7202 -0.3734
29177SOL    HW293368   0.979   5.021   3.257  0.0592  1.1382 -0.0361
29178SOL     OW93369   0.518   7.643   5.731 -0.4804  0.1505  0.1591
29178SOL    HW193370   0.582   7.692   5.783 -2.1749  0.6446  1.9200
29178SOL    HW293371   0.520   7.685   5.645  0.0494  1.5535  0.8221
29179SOL     OW93372   7.370   6.413   2.430 -0.3077 -0.2132  0.2882
29179SOL    HW193373   7.434   6.359   2.476  0.9719 -0.0523 -1.2282
29179SOL    HW293374   7.285   6.388   2.468  0.7087  0.6109  3.3767
29180SOL     OW93375   0.261   9.680   3.308  0.5256 -0.2043 -0.8626
29180SOL    HW193376   0.338   9.623   3.311  0.5618 -0.3079 -2.6493
29180SOL    HW293377   0.187   9.623   3.330  1.0254  0.1824  2.2149
29181SOL     OW93378   9.586   3.932   8.357  0.1700 -0.4482 -0.6330
29181SOL    HW193379   9.536   4.007   8.326  1.7663  0.2619 -1.5716
29181SOL    HW293380   9.527   3.857   8.344 -1.5414  0.6207  0.5733
29182SOL     OW93381   3.899   0.045   0.834 -0.0386 -0.5864 -0.2299
29182SOL    HW193382   3.877   0.035   0.741 -1.5038 -0.9120  0.1234
29182SOL    HW293383   3.908  -0.044   0.866  1.0609 -0.4643 -0.1783
29183SOL     OW93384   7.598   3.534   1.715  0.0985 -0.2628 -0.0618
29183SOL    HW193385   7.621   3.446   1.683  1.5788 -0.0847  0.4136
29183SOL    HW293386   7.682   3.580   1.718 -0.7574  1.4310 -1.0297
29184SOL     OW93387   6.002  10.121   8.041  0.8342 -0.6278 -0.4117
29184SOL    HW193388   6.052  10.102   7.962  0.7623 -1.0879 -0.3474
29184SOL    HW293389   5.924  10.066   8.034 -1.1475  2.0941 -1.9048
29185SOL     OW93390  10.817   9.112   7.091  0.6157 -0.1426 -0.3760
29185SOL    HW193391  10.821   9.177   7.161  1.1260 -0.4133 -0.1477
29185SOL    HW293392  10.740   9.136   7.040 -1.2019 -1.3059  1.6289
29186SOL     OW93393   6.436   1.462   9.184 -0.1443 -0.1821  0.1907
29186SOL    HW193394   6.521   1.501   9.205  0.5525 -1.3246 -0.4440
29186SOL    HW293395   6.454   1.399   9.115 -1.3563 -1.1232  0.6924
29187SOL     OW93396  10.139   9.064   3.178 -0.3356  0.0812 -0.2522
29187SOL    HW193397  10.101   8.987   3.220 -0.0625  0.9332  1.6267
29187SOL    HW293398  10.174   9.031   3.095 -1.1632 -1.5903  0.0269
29188SOL     OW93399  10.600   2.015   1.814 -0.0175  0.6082 -0.0954
29188SOL    HW193400  10.511   1.980   1.811  0.7785 -1.6674  0.7151
29188SOL    HW293401  10.641   1.971   1.889  0.9376  3.8734  1.5070
29189SOL     OW93402  10.056  10.257   1.831  0.2735  0.2823  0.2859
29189SOL    HW193403   9.981  10.309   1.861 -0.8795  0.0383 -1.9534
29189SOL    HW293404  10.097  10.226   1.912 -2.6658 -0.4907  1.6314
29190SOL     OW93405   9.935   4.505   1.115 -0.1108  0.2311 -0.0277
29190SOL    HW193406  10.000   4.465   1.173  0.9038 -0.6484 -1.7081
29190SOL    HW293407   9.883   4.561   1.173  1.5633  0.2692  1.5261
29191SOL     OW93408   9.060   7.679   7.539  0.2835 -0.4397  0.0285
29191SOL    HW193409   9.111   7.598   7.536  0.1775 -0.5243  0.3991
29191SOL    HW293410   9.000   7.671   7.465  0.2038 -0.7518  0.1225
29192SOL     OW93411   1.708   4.569   6.103  0.2867  1.1147 -0.0090
29192SOL    HW193412   1.672   4.513   6.033  0.1630  1.4018 -0.1759
29192SOL    HW293413   1.659   4.544   6.181  1.5877 -0.4353  0.3706
29193SOL     OW93414   0.493   4.751  10.759 -0.6128 -0.0455 -0.3139
29193SOL    HW193415   0.553   4.781  10.690 -0.1112  1.0009  0.5534
29193SOL    HW293416   0.513   4.659  10.770  2.2215  0.6400  1.2516
29194SOL     OW93417   1.065   3.127   5.601 -0.4482  0.0665 -0.4809
29194SOL    HW193418   1.112   3.105   5.682 -0.4980 -2.4724 -1.0608
29194SOL    HW293419   1.110   3.077   5.533 -3.0081 -1.2879 -1.2926
29195SOL     OW93420  10.888   0.371   1.113  0.8343  0.5023 -0.6728
29195SOL    HW193421  10.835   0.414   1.046  1.6479  2.1354 -0.3192
29195SOL    HW293422  10.890   0.279   1.087 -0.0381  0.8535 -2.0831
29196SOL     OW93423   6.751   9.522  10.488 -0.0193  0.5428 -0.6075
29196SOL    HW193424   6.828   9.501  10.542  0.1474  0.6125 -0.8181
29196SOL    HW293425   6.680   9.534  10.552  0.5589  2.3956 -0.2751
29197SOL     OW93426   2.433   6.434   0.346 -0.1992 -0.5555  0.0069
29197SOL    HW193427   2.403   6.352   0.386  0.9306 -1.1243 -0.2782
29197SOL    HW293428   2.498   6.468   0.407 -0.2076 -0.1983 -0.1838
29198SOL     OW93429   4.212   2.231   1.616 -0.1317  0.5034 -0.2876
29198SOL    HW193430   4.278   2.172   1.652  0.1864  0.3624 -1.0870
29198SOL    HW293431   4.263   2.302   1.577 -0.4715  0.7014 -0.3720
29199SOL     OW93432  10.305  10.013   9.080 -0.6264 -0.3540  0.2838
29199SOL    HW193433  10.272   9.949   9.016  3.1213 -0.5641 -1.6781
29199SOL    HW293434  10.357   9.961   9.141  0.7837  0.5164 -0.1358
29200SOL     OW93435   5.715   1.782   7.556  0.1974  0.0770 -0.5771
29200SOL    HW193436   5.786   1.719   7.546  0.0871 -0.1529  0.0439
29200SOL    HW293437   5.662   1.747   7.627  0.1763  0.9006 -0.1721
29201SOL     OW93438   7.815   7.871   1.956 -0.3026 -0.0028  0.5033
29201SOL    HW193439   7.771   7.866   2.041  0.7052  0.0724  1.0429
29201SOL    HW293440   7.853   7.784   1.943  1.6815  0.6764  1.3382
29202SOL     OW93441   3.960   8.957   1.192  0.3798 -0.0270 -0.0547
29202SOL    HW193442   3.895   8.890   1.177  1.3673 -1.3081  1.1529
29202SOL    HW293443   3.916   9.023   1.246 -0.6570  0.4653 -1.4365
29203SOL     OW93444   3.791   9.525   4.995 -0.2529 -1.1927  0.4481
29203SOL    HW193445   3.846   9.492   4.923 -2.1668 -2.4167 -0.5529
29203SOL    HW293446   3.797   9.457   5.062 -0.4306 -1.2615  0.3938
29204SOL     OW93447  10.437   7.101   2.551  0.0832 -0.2475 -0.3985
29204SOL    HW193448  10.477   7.030   2.601  0.2526 -0.1073 -0.3296
29204SOL    HW293449  10.351   7.113   2.591 -0.2124 -0.8566 -0.8431
29205SOL     OW93450   0.778   8.470  10.180 -0.1532  0.0097  0.8629
29205SOL    HW193451   0.862   8.447  10.140 -0.8628 -0.1385 -0.6050
29205SOL    HW293452   0.802   8.508  10.264  1.4203  0.4051  0.2790
29206SOL     OW93453  10.066   8.631   0.967  0.7652  0.0148 -0.2256
29206SOL    HW193454  10.013   8.572   0.914  0.8233 -0.2768  0.0392
29206SOL    HW293455  10.009   8.706   0.983  0.5922 -0.0953 -0.3253
29207SOL     OW93456  10.423   6.283   5.426 -0.7161  0.0702 -0.0503
29207SOL    HW193457  10.339   6.327   5.409 -0.0779  1.2751 -0.1992
29207SOL    HW293458  10.475   6.349   5.472  0.1199 -0.7067  0.1300
29208SOL     OW93459   2.516   3.203  10.108 -0.1621  0.0738  0.1123
29208SOL    HW193460   2.570   3.134  10.147  0.1121 -0.4373 -1.1189
29208SOL    HW293461   2.445   3.216  10.171  0.2298 -0.7542  0.7528
29209SOL     OW93462   7.075   3.256   4.609  0.1006 -0.0877  0.5112
29209SOL    HW193463   7.061   3.264   4.703 -1.8102  0.0701  0.2607
29209SOL    HW293464   7.024   3.179   4.584 -2.5443  1.9391 -0.8829
29210SOL     OW93465   3.327   9.318   0.007 -0.1475  0.7571 -0.2994
29210SOL    HW193466   3.323   9.225  -0.015  2.1747  0.5999 -0.3100
29210SOL    HW293467   3.244   9.336   0.051 -1.0286 -1.0805 -1.0981
29211SOL     OW93468   0.997   9.296   2.900  0.4671 -0.1672  0.0579
29211SOL    HW193469   1.090   9.270   2.898  0.7030  0.4836 -2.8295
29211SOL    HW293470   0.953   9.228   2.848  0.2536  2.0811 -2.9946
29212SOL     OW93471   3.646   1.547   0.857  0.2452 -0.6339 -0.2766
29212SOL    HW193472   3.670   1.603   0.784  0.8529  1.5596  1.4925
29212SOL    HW293473   3.557   1.574   0.880  0.8189  0.2422  1.0733
29213SOL     OW93474   1.954   7.169   5.675 -0.3878  1.2445  0.3823
29213SOL    HW193475   1.979   7.120   5.753 -2.3938 -0.5639 -0.0064
29213SOL    HW293476   1.877   7.219   5.702 -1.5944 -0.0140 -0.5719
29214SOL     OW93477   0.455  10.420   5.456 -0.0858  0.7469 -0.0383
29214SOL    HW193478   0.485  10.366   5.384  2.3734  0.2245  1.2673
29214SOL    HW293479   0.473  10.510   5.429  3.3873  0.4509  0.8350
29215SOL     OW93480   6.074   6.237   2.935  0.1380  0.0961 -0.8564
29215SOL    HW193481   5.991   6.190   2.938 -0.9132  1.8801  0.7576
29215SOL    HW293482   6.106   6.225   2.846 -1.4133 -1.3674 -1.2575
29216SOL     OW93483   6.163   5.311   7.998 -0.0686 -0.5976 -0.1081
29216SOL    HW193484   6.086   5.311   7.942 -0.5107 -1.0782  0.4883
29216SOL    HW293485   6.203   5.225   7.985 -1.0367 -1.3286  1.4446
29217SOL     OW93486   0.391   9.881   8.162  0.1137 -0.0289 -0.4130
29217SOL    HW193487   0.448   9.901   8.089 -0.1935  1.4649 -0.2852
29217SOL    HW293488   0.437   9.916   8.239 -1.3871  2.1922 -0.4396
29218SOL     OW93489  10.367   2.956   8.146  0.0851  0.4378  0.0654
29218SOL    HW193490  10.370   3.046   8.180  0.9985  0.2829  0.4117
29218SOL    HW293491  10.457   2.937   8.120  0.1825 -0.8469  1.2574
29219SOL     OW93492   6.255   5.848   9.021  0.2859 -0.4746 -0.0971
29219SOL    HW193493   6.327   5.904   9.049 -0.0423 -0.2316  0.2804
29219SOL    HW293494   6.183   5.870   9.081 -0.2575 -0.3570 -0.7838
29220SOL     OW93495   9.364   1.873   5.275 -0.0743  0.5316  0.4301
29220SOL    HW193496   9.283   1.897   5.231 -0.1248 -1.9217 -0.9500
29220SOL    HW293497   9.337   1.828   5.354 -0.1149 -0.8041 -0.3190
29221SOL     OW93498   8.041   7.527   5.312  0.3346 -0.2887  0.4958
29221SOL    HW193499   8.096   7.561   5.242  0.8653 -0.3903  0.8579
29221SOL    HW293500   7.998   7.451   5.274  0.7478 -0.4403  0.3299
29222SOL     OW93501   2.585   9.732   3.217 -0.8818 -0.2636  0.0659
29222SOL    HW193502   2.517   9.760   3.279 -0.4452 -1.5655  1.1854
29222SOL    HW293503   2.616   9.813   3.178 -1.3700  0.5846  1.3552
29223SOL     OW93504   5.169   9.436   3.290  0.3928  0.4407 -0.0159
29223SOL    HW193505   5.182   9.376   3.364  0.8503 -1.7720 -1.8014
29223SOL    HW293506   5.075   9.456   3.292  0.0003 -1.3024 -0.0654
29224SOL     OW93507   2.980   5.356   6.510  0.1013 -0.3290 -0.1106
29224SOL    HW193508   3.029   5.385   6.433  0.1240 -0.5974 -0.1988
29224SOL    HW293509   2.889   5.378   6.490 -0.0092 -1.2056 -0.6003
29225SOL     OW93510   1.074   6.574   2.006  0.2284  0.4292 -0.6177
29225SOL    HW193511   0.985   6.539   2.003  0.8454 -2.1769  3.4852
29225SOL    HW293512   1.070   6.644   2.072  1.3318 -0.3661  0.3282
29226SOL     OW93513   2.029   6.920   2.866  0.6358 -0.2934  0.2317
29226SOL    HW193514   2.094   6.851   2.852  0.1208 -0.6031 -0.7110
29226SOL    HW293515   1.982   6.926   2.783  0.7448  1.2790  0.2472
29227SOL     OW93516   7.089   1.169   3.353  0.0767 -0.4196 -0.0707
29227SOL    HW193517   7.066   1.083   3.389  0.7352 -0.6785 -0.2652
29227SOL    HW293518   7.138   1.150   3.273  1.3360  0.1084  0.5430
29228SOL     OW93519   7.845   0.253   4.978  0.2693 -0.0734  0.0581
29228SOL    HW193520   7.821   0.342   5.004  0.8598 -0.3249  1.6013
29228SOL    HW293521   7.845   0.203   5.060  0.2559 -1.4272 -0.7336
29229SOL     OW93522   5.417   3.590   7.501 -1.0080  0.3672  0.1306
29229SOL    HW193523   5.379   3.515   7.457 -1.7800  0.4715  0.6081
29229SOL    HW293524   5.438   3.652   7.431  0.0416 -0.4499 -0.3108
29230SOL     OW93525  10.240   1.647   7.565 -0.0958  0.2437 -0.2710
29230SOL    HW193526  10.241   1.741   7.582 -1.5560  0.0306  1.2193
29230SOL    HW293527  10.147   1.624   7.561  0.2267 -1.2723  0.2329
29231SOL     OW93528   1.126   9.190   9.160 -0.3555 -0.1847 -0.5423
29231SOL    HW193529   1.062   9.261   9.161 -0.2831 -0.0754 -1.8521
29231SOL    HW293530   1.078   9.114   9.191 -0.6529  0.2644  0.1128
29232SOL     OW93531  10.675   1.603   2.570 -0.3442  0.0504 -0.3402
29232SOL    HW193532  10.672   1.520   2.522 -2.6036  0.4007 -0.9396
29232SOL    HW293533  10.600   1.598   2.629 -0.1646  1.4368  0.0250
29233SOL     OW93534   4.451   4.586   1.673  0.3924  0.1877  0.5193
29233SOL    HW193535   4.501   4.504   1.672  0.2275  0.0459 -1.8596
29233SOL    HW293536   4.518   4.654   1.661  0.3273  0.2329  0.4081
29234SOL     OW93537   1.097   6.910   2.621 -0.2615  0.4298 -0.5769
29234SOL    HW193538   1.054   6.831   2.653  2.3278 -0.1181  1.9544
29234SOL    HW293539   1.065   6.980   2.679  0.4413  0.4793 -0.2490
29235SOL     OW93540   4.443   5.938   5.990  0.8268 -0.1819  0.1291
29235SOL    HW193541   4.404   5.969   6.071 -0.4293  1.1702 -0.9264
29235SOL    HW293542   4.536   5.959   5.999  0.4959  1.1865  0.7194
29236SOL     OW93543   4.879   5.768   9.003 -0.5643  0.5048  0.3858
29236SOL    HW193544   4.799   5.819   9.011 -1.8321 -1.5633  1.9389
29236SOL    HW293545   4.925   5.782   9.086 -1.2866 -1.3178  1.1532
29237SOL     OW93546   4.177  10.193   0.919  0.4551  0.4839 -0.1718
29237SOL    HW193547   4.223  10.156   0.844 -1.6509 -1.3068 -0.6819
29237SOL    HW293548   4.088  10.208   0.887 -0.0466  1.3286  1.5067
29238SOL     OW93549   1.448   5.551   7.589  0.3994 -0.2054  0.0345
29238SOL    HW193550   1.466   5.640   7.558  2.8240 -0.0885  1.5048
29238SOL    HW293551   1.444   5.560   7.685 -1.6640 -1.3535  0.1057
29239SOL     OW93552   3.335   1.882   9.224  0.0124  0.3691 -0.2733
29239SOL    HW193553   3.268   1.815   9.216  0.6774 -0.4323  0.6846
29239SOL    HW293554   3.415   1.840   9.193  0.4683  0.6467  0.5033
29240SOL     OW93555   5.600   5.265   5.198  0.3597 -0.3115 -0.1509
29240SOL    HW193556   5.533   5.282   5.132  0.3454 -0.0348 -0.0663
29240SOL    HW293557   5.625   5.174   5.183  0.4778 -0.2034 -0.6550
29241SOL     OW93558   2.944   5.483   2.152 -0.1620 -0.3861  0.0616
29241SOL    HW193559   3.024   5.436   2.128  0.1660 -0.4575  1.2076
29241SOL    HW293560   2.873   5.423   2.130  0.1639 -0.7597  0.0153
29242SOL     OW93561   1.481   2.585   1.975  0.7038 -0.0449  0.6663
29242SOL    HW193562   1.557   2.583   2.032  0.7469  1.9801  0.7646
29242SOL    HW293563   1.419   2.644   2.018  0.1164  0.3319 -0.6107
29243SOL     OW93564   8.255   5.020   4.475 -0.5371 -0.2210 -0.1884
29243SOL    HW193565   8.280   5.072   4.398  0.1238  0.5113  0.5061
29243SOL    HW293566   8.172   4.980   4.450 -0.2918 -0.0726 -1.3221
29244SOL     OW93567   3.642   0.959   7.337 -0.3823 -0.0334 -0.8652
29244SOL    HW193568   3.615   0.874   7.303 -0.5005 -0.7506  0.9026
29244SOL    HW293569   3.662   1.011   7.259 -4.9590 -0.0244 -2.3215
29245SOL     OW93570   0.426   3.467   1.814  0.9322 -0.0889 -0.2196
29245SOL    HW193571   0.494   3.407   1.845 -0.9332 -2.0140  0.3655
29245SOL    HW293572   0.367   3.477   1.889  0.6483  1.7105 -0.6379
29246SOL     OW93573   1.081   5.039   0.586 -0.0860 -0.5050  0.5334
29246SOL    HW193574   1.142   5.028   0.513  0.3787  0.1279  0.8207
29246SOL    HW293575   1.065   5.134   0.590  1.4373 -0.2611  2.4820
29247SOL     OW93576   3.435   1.219   1.571  0.1832  0.1136 -0.1532
29247SOL    HW193577   3.391   1.296   1.534 -1.1404 -0.7508 -0.4575
29247SOL    HW293578   3.519   1.214   1.524  1.0742  2.3046  1.0510
29248SOL     OW93579   3.604   9.340   1.528  0.0729  0.6479 -0.0848
29248SOL    HW193580   3.618   9.347   1.433  0.7935  0.5067  0.0068
29248SOL    HW293581   3.626   9.427   1.561  0.5588  0.4838  0.0354
29249SOL     OW93582   3.780   5.270   3.234  0.1923 -0.0571 -0.2084
29249SOL    HW193583   3.832   5.252   3.312  1.6334 -1.5406 -1.4491
29249SOL    HW293584   3.693   5.237   3.255  0.3774  0.1587  0.9847
29250SOL     OW93585   3.174   0.732   9.292 -0.3218 -0.5067  0.4278
29250SOL    HW193586   3.084   0.701   9.305 -0.1292 -0.5551  1.7904
29250SOL    HW293587   3.227   0.652   9.292  0.0051 -0.3299  2.4065
29251SOL     OW93588   1.172   7.567   9.318 -0.0883 -0.3877 -0.1392
29251SOL    HW193589   1.129   7.482   9.316  1.3892 -1.1570 -0.2591
29251SOL    HW293590   1.229   7.568   9.241 -0.2365  0.8094 -0.2643
29252SOL     OW93591   4.452   4.432   7.305 -0.0551 -0.0097 -0.0027
29252SOL    HW193592   4.516   4.448   7.374  1.5070  1.2805 -1.6581
29252SOL    HW293593   4.486   4.355   7.258  0.3533  0.7328 -0.9445
29253SOL     OW93594   0.669   8.133   5.071  0.0523 -0.2051 -0.5781
29253SOL    HW193595   0.760   8.102   5.074 -0.0798 -0.5423  1.5113
29253SOL    HW293596   0.618   8.061   5.107 -0.9694  0.2842 -0.9958
29254SOL     OW93597   9.504   5.742   6.966  0.0720 -0.1651 -0.0390
29254SOL    HW193598   9.535   5.666   6.917 -0.1870 -0.9771  1.0265
29254SOL    HW293599   9.479   5.806   6.899 -0.1644 -1.1995 -0.9500
29255SOL     OW93600  10.003   4.780   7.733  0.1479  0.5607  0.5321
29255SOL    HW193601   9.913   4.779   7.698  0.2987  0.5588  0.1412
29255SOL    HW293602   9.995   4.825   7.817 -0.3445 -0.0763  0.8374
29256SOL     OW93603   2.841   2.612  10.364  0.6690  0.7315  0.1971
29256SOL    HW193604   2.914   2.618  10.303 -0.4568  0.5898 -1.2384
29256SOL    HW293605   2.764   2.631  10.311 -0.3591  0.7763  1.6334
29257SOL     OW93606   3.433  10.264   7.603 -0.2592  0.2481  0.5674
29257SOL    HW193607   3.477  10.339   7.564  1.6978 -0.5834  1.0831
29257SOL    HW293608   3.340  10.280   7.587  0.0757  2.8402  0.7861
29258SOL     OW93609   7.179   7.238   8.362  0.0096 -0.0911 -0.4925
29258SOL    HW193610   7.142   7.287   8.288 -2.0953 -0.6318  0.1557
29258SOL    HW293611   7.143   7.150   8.353 -1.1018  0.0968  1.7334
29259SOL     OW93612   1.681   1.049   2.838 -0.7686  0.7489 -0.3177
29259SOL    HW193613   1.638   1.134   2.827 -0.7722  1.0861  1.9346
29259SOL    HW293614   1.610   0.986   2.838 -0.9040  0.9011 -0.4436
29260SOL     OW93615   9.594   2.104   1.108 -0.1840 -0.1932  0.5308
29260SOL    HW193616   9.642   2.182   1.133 -1.1201  0.8835 -0.9084
29260SOL    HW293617   9.656   2.053   1.055 -0.4509  1.0124 -1.0091
29261SOL     OW93618   3.016   7.336   1.207 -0.5545 -0.0362 -0.2419
29261SOL    HW193619   3.032   7.420   1.250  4.3867 -1.3380  1.0151
29261SOL    HW293620   2.953   7.292   1.265 -0.3220  1.3632  1.1555
29262SOL     OW93621   8.066   3.803   7.092  0.0144  0.0877  0.6705
29262SOL    HW193622   8.026   3.728   7.136 -0.0818  1.3780  2.9246
29262SOL    HW293623   8.160   3.787   7.096 -0.0616 -0.7538 -0.5088
29263SOL     OW93624   1.057   0.845   8.109 -0.3149 -0.1373 -0.0150
29263SOL    HW193625   1.058   0.892   8.025 -1.1100  1.3177  0.7500
29263SOL    HW293626   1.114   0.896   8.166 -0.4053 -0.6618  0.5540
29264SOL     OW93627   3.461   1.557   6.371  1.2309  0.2525 -0.3673
29264SOL    HW193628   3.473   1.639   6.322  0.3227 -0.8205 -2.4773
29264SOL    HW293629   3.384   1.573   6.425 -0.2108  0.1613 -2.3078
29265SOL     OW93630  10.746   7.086   5.458  0.2211 -0.3330  0.2617
29265SOL    HW193631  10.796   7.143   5.516 -0.2143  2.1901 -1.6539
29265SOL    HW293632  10.805   7.069   5.385 -0.8854  0.8183 -0.9470
29266SOL     OW93633   7.068   4.491   8.837 -0.1345  0.4839 -0.4486
29266SOL    HW193634   7.072   4.462   8.928 -0.8156 -0.2872 -0.6496
29266SOL    HW293635   7.122   4.570   8.834  0.3402  0.2082  0.5018
29267SOL     OW93636   6.601   5.550  10.741 -0.0171 -0.3017  0.4268
29267SOL    HW193637   6.517   5.537  10.786 -0.7053  1.4871 -0.2339
29267SOL    HW293638   6.578   5.551  10.648  0.8294 -0.3645  0.2093
29268SOL     OW93639   0.354   2.377   9.592  0.3284 -0.1343 -0.0246
29268SOL    HW193640   0.397   2.313   9.650 -0.2730 -0.5435 -0.0220
29268SOL    HW293641   0.417   2.448   9.584  0.5597 -0.2279  0.8672
29269SOL     OW93642   3.759   7.866   3.207 -0.1544  0.1029  0.1299
29269SOL    HW193643   3.677   7.844   3.162  0.2493  1.6565 -1.4441
29269SOL    HW293644   3.733   7.882   3.297 -1.5385  0.2606 -0.2792
29270SOL     OW93645   5.956   8.353   5.864  1.1113  0.2695  0.1085
29270SOL    HW193646   5.987   8.279   5.812 -1.8981  0.0431 -1.5881
29270SOL    HW293647   5.896   8.400   5.806  0.5477  2.2662  2.1571
29271SOL     OW93648  10.199   7.385   4.420  0.1084 -0.3344  0.0180
29271SOL    HW193649  10.216   7.350   4.508 -0.6048 -0.0192  0.2935
29271SOL    HW293650  10.111   7.355   4.399  0.4932 -0.9021 -0.8521
29272SOL     OW93651   2.628   8.231  10.183 -0.2964 -0.7724  0.1459
29272SOL    HW193652   2.618   8.226  10.278  0.8668 -0.6108  0.2948
29272SOL    HW293653   2.549   8.190  10.148 -0.2261 -1.8440  1.1879
29273SOL     OW93654   7.689   3.249   1.249 -0.1758 -0.0277 -0.5318
29273SOL    HW193655   7.693   3.343   1.267  1.9017 -0.1086 -0.3322
29273SOL    HW293656   7.598   3.224   1.269 -0.7096  1.8774 -0.4168
29274SOL     OW93657   8.713   2.621   4.300  0.2342  0.0638  0.3677
29274SOL    HW193658   8.723   2.671   4.381  1.2103 -2.5403  1.9527
29274SOL    HW293659   8.786   2.651   4.245 -1.6745  3.4786 -0.6437
29275SOL     OW93660   5.737  10.289   7.696 -0.0584  0.4791  0.0210
29275SOL    HW193661   5.722  10.318   7.786 -0.2329  2.8118 -0.6976
29275SOL    HW293662   5.658  10.240   7.673 -0.6273  1.0604  0.6921
29276SOL     OW93663   5.274   8.966   8.823  0.1877 -0.1472  0.3807
29276SOL    HW193664   5.339   9.036   8.826  0.9572 -0.8654  2.0974
29276SOL    HW293665   5.194   9.006   8.858  0.4357  0.0531  0.7199
29277SOL     OW93666   3.308   0.381   9.797 -0.0171  0.0850 -0.5912
29277SOL    HW193667   3.215   0.370   9.779 -0.2222 -1.1194  0.9654
29277SOL    HW293668   3.314   0.467   9.839 -0.4929  0.0097 -0.3622
29278SOL     OW93669   0.784   0.440   0.594  0.2981 -0.2739  0.1336
29278SOL    HW193670   0.767   0.388   0.516 -1.6747  1.8139 -0.9262
29278SOL    HW293671   0.697   0.466   0.625  1.1761  2.3278  0.6105
29279SOL     OW93672   9.520   9.700   9.760 -0.2219 -0.3059 -0.0351
29279SOL    HW193673   9.598   9.729   9.712 -0.0636 -0.9735 -0.1919
29279SOL    HW293674   9.493   9.619   9.716 -0.0706 -0.9408  0.9940
29280SOL     OW93675   3.896   2.390   1.392 -0.0415  0.2472 -0.1852
29280SOL    HW193676   3.916   2.434   1.309 -1.5328 -0.8782 -1.2043
29280SOL    HW293677   3.807   2.420   1.413 -0.2550 -0.6244  0.2087
29281SOL     OW93678   4.774   0.970   9.094 -0.5289 -0.1896 -0.0881
29281SOL    HW193679   4.696   1.010   9.133 -0.8685 -0.4601 -0.4780
29281SOL    HW293680   4.771   0.879   9.124  2.2310  0.7647  3.9344
29282SOL     OW93681   4.413   0.584   3.072  0.2228 -0.5993  0.4654
29282SOL    HW193682   4.317   0.589   3.065  0.3752  1.7456 -1.2302
29282SOL    HW293683   4.431   0.591   3.166 -1.2512  1.7609  0.6691
29283SOL     OW93684   4.882   1.001   6.752 -0.3214 -0.4345  0.2292
29283SOL    HW193685   4.966   0.962   6.777 -0.0918  1.3605  2.6929
29283SOL    HW293686   4.899   1.042   6.667  1.2153 -0.4085  0.5136
29284SOL     OW93687   6.438   4.396   8.286  0.0261 -0.1584 -0.3533
29284SOL    HW193688   6.508   4.407   8.350  0.1712 -0.1750 -0.5077
29284SOL    HW293689   6.417   4.484   8.256  1.0165 -0.2534 -1.4091
29285SOL     OW93690   4.238  10.528   0.858  0.2117  0.0126  0.0605
29285SOL    HW193691   4.144  10.512   0.847  0.5460 -0.6417 -2.6354
29285SOL    HW293692   4.278  10.490   0.779  2.6686  0.9545  0.7616
29286SOL     OW93693  10.541   9.201   3.934 -0.4647  0.5633 -0.2630
29286SOL    HW193694  10.449   9.213   3.909 -0.5818  1.8552  0.6791
29286SOL    HW293695  10.589   9.259   3.875 -0.5908  2.3492  1.2936
29287SOL     OW93696   5.862   2.322   7.522  0.2020 -0.2352  0.2709
29287SOL    HW193697   5.840   2.363   7.606 -0.0325 -2.5602  1.3978
29287SOL    HW293698   5.783   2.275   7.497  1.0698 -1.6194  0.0360
29288SOL     OW93699   4.704   0.674   0.601 -0.7542  0.3485 -0.2614
29288SOL    HW193700   4.726   0.676   0.508 -1.6878  0.3780 -0.4911
29288SOL    HW293701   4.609   0.683   0.603 -0.9966 -1.7580  0.5903
29289SOL     OW93702   3.908   8.881   3.476  0.9531 -0.2545 -0.0260
29289SOL    HW193703   3.815   8.880   3.499  0.9607  3.6050  0.7417
29289SOL    HW293704   3.911   8.844   3.387 -1.2009 -1.0092  0.1645
29290SOL     OW93705   3.832   4.642   1.546  0.3447 -0.1066 -0.6166
29290SOL    HW193706   3.857   4.550   1.542  1.0075 -0.0900  1.7996
29290SOL    HW293707   3.894   4.687   1.490  0.9993 -0.9603 -0.5900
29291SOL     OW93708   0.740   8.767   8.722  0.1148  0.0603  0.4184
29291SOL    HW193709   0.817   8.799   8.676  0.9501 -1.4855  0.6720
29291SOL    HW293710   0.695   8.711   8.658 -0.9232  1.0818  0.2124
29292SOL     OW93711   6.779   4.031   5.491 -0.5438  0.4370 -0.0661
29292SOL    HW193712   6.825   4.111   5.468 -0.7067  0.5389 -0.0416
29292SOL    HW293713   6.843   3.961   5.478 -0.1403  0.6489  0.7214
29293SOL     OW93714   1.479   8.810   0.642  0.1144  0.1611 -0.0899
29293SOL    HW193715   1.561   8.761   0.638 -0.1544 -0.3873  0.9607
29293SOL    HW293716   1.501   8.896   0.606  1.0389 -0.1221 -0.2245
29294SOL     OW93717   5.388   5.161   6.246 -0.0243  0.2034 -0.0380
29294SOL    HW193718   5.479   5.152   6.275 -0.0869 -1.9281 -0.3535
29294SOL    HW293719   5.353   5.231   6.302  1.2099 -0.4231  1.6203
29295SOL     OW93720  10.061   6.762   9.470  0.0285 -0.0018 -0.2563
29295SOL    HW193721  10.082   6.670   9.488 -2.0038 -0.2647  1.1206
29295SOL    HW293722  10.115   6.812   9.530  1.1806 -0.2557 -1.0439
29296SOL     OW93723   1.527   4.063   4.200  0.7192 -0.2885 -0.0827
29296SOL    HW193724   1.606   4.010   4.197 -0.3121 -2.0681  1.6543
29296SOL    HW293725   1.464   4.010   4.250 -1.2883  1.4193 -0.6325
29297SOL     OW93726   3.859  10.186   5.589 -0.7808 -0.0406 -0.7587
29297SOL    HW193727   3.936  10.131   5.577 -1.5995 -1.2819 -0.4480
29297SOL    HW293728   3.894  10.275   5.599  0.4669 -0.1862 -3.1672
29298SOL     OW93729   7.402   2.904   1.866  0.0617  0.2568  0.7998
29298SOL    HW193730   7.428   2.812   1.861 -0.9647 -0.0225  0.1768
29298SOL    HW293731   7.482   2.953   1.845  0.6095 -0.4883  1.1092
29299SOL     OW93732   4.597   0.100   0.466 -0.5245 -0.1071 -0.2625
29299SOL    HW193733   4.542   0.167   0.506  0.2614  0.0844  0.5302
29299SOL    HW293734   4.544   0.066   0.393 -0.6462  1.9061 -1.1913
29300SOL     OW93735   0.798   5.739   1.015 -0.5669 -0.4751 -0.2850
29300SOL    HW193736   0.827   5.738   1.106 -0.5720  0.5631 -0.2568
29300SOL    HW293737   0.739   5.815   1.010  0.0330 -0.0544 -1.3188
29301SOL     OW93738   3.583   2.320   0.364  0.0891 -0.3208 -0.1596
29301SOL    HW193739   3.605   2.385   0.430 -2.2860  2.3516 -1.7600
29301SOL    HW293740   3.557   2.243   0.414 -1.1163  1.3996  2.0768
29302SOL     OW93741   0.188   3.412   9.531  0.1163 -0.0168  0.1189
29302SOL    HW193742   0.243   3.335   9.517  1.5248  0.7236  1.3503
29302SOL    HW293743   0.192   3.459   9.447  0.1894 -0.6814 -0.2618
29303SOL     OW93744   5.612   3.673   8.195  0.1764  0.3515  0.0491
29303SOL    HW193745   5.674   3.660   8.266 -1.9310  0.8248  2.0871
29303SOL    HW293746   5.530   3.636   8.228 -1.1374  1.5502 -1.7242
29304SOL     OW93747   0.309   7.951   3.269 -0.1064 -0.6696  0.2646
29304SOL    HW193748   0.243   8.007   3.229 -0.4375  0.6405  2.4979
29304SOL    HW293749   0.335   7.997   3.349 -0.4845 -3.6925  2.3147
29305SOL     OW93750   7.894   2.800   9.341  0.0084  0.4110 -0.4159
29305SOL    HW193751   7.865   2.712   9.367 -0.0751  0.1971 -1.2085
29305SOL    HW293752   7.985   2.788   9.315  0.6348  0.9468  1.3669
29306SOL     OW93753   5.175   8.872   1.840  0.0673  0.0166  0.3537
29306SOL    HW193754   5.121   8.930   1.786 -0.1786  0.0244  0.6114
29306SOL    HW293755   5.124   8.791   1.847  0.7482 -0.5246 -0.6608
29307SOL     OW93756   6.853   6.711   9.362  0.4142  0.3249 -0.2646
29307SOL    HW193757   6.875   6.800   9.389 -0.4009  0.3512  0.3474
29307SOL    HW293758   6.803   6.722   9.281  0.7067  0.3931 -0.4372
29308SOL     OW93759   8.055   1.984   0.465 -1.1020 -0.0170 -0.1800
29308SOL    HW193760   8.034   2.070   0.429  1.7482  0.4365 -0.9509
29308SOL    HW293761   8.002   1.979   0.545 -2.6619  1.6712 -1.0169
29309SOL     OW93762   4.327   2.582   0.670 -0.6263  0.2356  0.6521
29309SOL    HW193763   4.414   2.568   0.633 -0.7863 -0.0502  0.3808
29309SOL    HW293764   4.334   2.550   0.760 -0.2632  0.8509  0.8495
29310SOL     OW93765   0.432   4.150   6.921  0.4790  0.0659 -0.1703
29310SOL    HW193766   0.402   4.090   6.990  1.2668  0.4430  0.5263
29310SOL    HW293767   0.458   4.229   6.968 -1.0876  1.1940 -1.1372
29311SOL     OW93768   0.322   3.863   6.323  0.0041  0.0067 -0.3997
29311SOL    HW193769   0.357   3.949   6.345  2.1282 -0.5381 -1.3252
29311SOL    HW293770   0.342   3.809   6.399  0.5457 -0.1159 -0.6183
29312SOL     OW93771   8.948   9.407   8.832 -0.1558 -0.0934  0.0412
29312SOL    HW193772   9.022   9.431   8.888 -0.6705  0.4057  0.5126
29312SOL    HW293773   8.944   9.311   8.838  0.1451 -0.0859  0.4022
29313SOL     OW93774   7.321   1.587   7.178  0.0700 -0.1989 -0.2041
29313SOL    HW193775   7.347   1.582   7.270 -0.9094 -0.1802  0.0821
29313SOL    HW293776   7.394   1.547   7.131 -0.2401 -1.9680  0.7288
29314SOL     OW93777   0.132   8.685   2.295 -0.1311 -0.4518  0.5558
29314SOL    HW193778   0.161   8.760   2.243  1.2222 -0.3806  1.3470
29314SOL    HW293779   0.037   8.682   2.283  0.2435 -1.3870 -3.1345
29315SOL     OW93780   1.449   1.082   1.262 -0.4023  0.3351  0.4439
29315SOL    HW193781   1.414   0.999   1.231  3.0772 -1.7332  1.5516
29315SOL    HW293782   1.407   1.094   1.348 -0.0174 -0.9630  0.8355
29316SOL     OW93783   7.815   1.499   4.597  0.3740 -0.7315 -0.0642
29316SOL    HW193784   7.762   1.478   4.521 -0.3936 -1.8450  0.7589
29316SOL    HW293785   7.828   1.594   4.591 -0.8818 -0.5828 -0.8048
29317SOL     OW93786   2.723   5.410   6.774  0.4034 -0.1660 -0.2297
29317SOL    HW193787   2.734   5.334   6.831  2.5087  0.9101  0.9240
29317SOL    HW293788   2.770   5.481   6.819 -1.8763  1.9841 -0.9938
29318SOL     OW93789   5.706   6.613  10.631 -0.0174  0.5610  0.3063
29318SOL    HW193790   5.780   6.557  10.655 -0.4507 -1.1542 -2.0167
29318SOL    HW293791   5.714   6.624  10.537 -2.2409  1.0558  0.1229
29319SOL     OW93792   3.534  10.432   5.081 -0.5097 -0.4450  0.5511
29319SOL    HW193793   3.556  10.350   5.038  0.4043 -1.0540  2.1004
29319SOL    HW293794   3.480  10.406   5.156 -0.4499  0.3915  0.8987
29320SOL     OW93795   8.067   0.504   6.512 -0.5668 -0.3832  0.2376
29320SOL    HW193796   7.992   0.498   6.453 -1.3856 -0.1070  1.2166
29320SOL    HW293797   8.029   0.525   6.598  0.6368 -0.1381  0.7397
29321SOL     OW93798   3.989   0.797   7.267 -0.0003 -0.3720 -0.5173
29321SOL    HW193799   3.989   0.746   7.348 -3.0746 -0.6394 -0.5901
29321SOL    HW293800   3.908   0.773   7.223 -0.1063  2.3557 -2.0273
29322SOL     OW93801   0.790   7.339   0.748 -0.2367 -0.6372 -0.1941
29322SOL    HW193802   0.877   7.301   0.743 -0.0048  0.0234 -2.5115
29322SOL    HW293803   0.784   7.395   0.670 -1.8496  1.2383  1.1729
29323SOL     OW93804  10.454   3.125   0.713 -0.8346  0.6006  0.0668
29323SOL    HW193805  10.412   3.118   0.628  0.4123  0.9591 -0.6091
29323SOL    HW293806  10.422   3.207   0.750 -2.6879 -0.3759  0.7135
29324SOL     OW93807   3.178   3.831   6.534 -0.7312 -0.8623 -0.1959
29324SOL    HW193808   3.192   3.873   6.449  0.7241  0.2925  0.5921
29324SOL    HW293809   3.160   3.903   6.594 -1.4179 -1.6479  0.5703
29325SOL     OW93810   8.280   7.224  10.088 -0.4230  0.2533  0.1189
29325SOL    HW193811   8.282   7.177  10.005 -0.4577  0.6264 -0.0935
29325SOL    HW293812   8.372   7.231  10.114 -0.3410  0.9470 -0.3474
29326SOL     OW93813   7.741   6.717   6.535 -0.4928  0.1168  0.4235
29326SOL    HW193814   7.656   6.720   6.580 -2.2983  1.7090 -2.7775
29326SOL    HW293815   7.724   6.667   6.455  1.9820 -0.6652  0.3167
29327SOL     OW93816   4.891   4.224   0.150  0.2018 -1.1218  0.3362
29327SOL    HW193817   4.884   4.128   0.144 -0.5542 -1.0192 -0.7055
29327SOL    HW293818   4.828   4.248   0.217 -0.2831 -1.2828 -0.0563
29328SOL     OW93819   6.660   5.639   6.302 -0.3077 -0.0262 -0.2029
29328SOL    HW193820   6.608   5.655   6.224  1.0302 -0.8493 -1.3167
29328SOL    HW293821   6.704   5.556   6.285 -1.1158 -1.0176  2.0766
29329SOL     OW93822   7.589   0.171   8.949  0.1000  0.6524  0.0078
29329SOL    HW193823   7.519   0.207   9.003 -0.7946 -1.0481  0.0588
29329SOL    HW293824   7.576   0.212   8.863  1.2381  2.9938  0.8804
29330SOL     OW93825   5.105   9.155   7.906  0.2662  0.4561 -0.0441
29330SOL    HW193826   5.170   9.162   7.976  0.0144  0.7392  0.1625
29330SOL    HW293827   5.074   9.245   7.893 -1.0760  0.1379  0.8097
29331SOL     OW93828   3.196   5.456   6.669 -0.6050 -0.2321  0.6898
29331SOL    HW193829   3.123   5.425   6.616 -0.3289  0.3604 -0.0426
29331SOL    HW293830   3.158   5.470   6.756 -0.7039 -2.8272  1.1493
29332SOL     OW93831   4.386   7.755   8.766  0.4559 -0.3303 -0.0380
29332SOL    HW193832   4.315   7.728   8.708 -1.3052  0.0359  1.8517
29332SOL    HW293833   4.414   7.674   8.809  0.1006 -0.2584  0.3404
29333SOL     OW93834   1.197   3.212   7.021  0.2330  0.1333  0.4189
29333SOL    HW193835   1.117   3.250   7.057 -0.1945  0.4980 -0.8892
29333SOL    HW293836   1.185   3.213   6.926  1.0336 -1.4551  0.2538
29334SOL     OW93837   6.924   4.217   2.748  0.1164 -0.6372 -0.3542
29334SOL    HW193838   6.899   4.309   2.751  0.2587 -0.6053  1.7405
29334SOL    HW293839   7.017   4.218   2.726 -0.1268 -0.3617 -1.4113
29335SOL     OW93840  10.855   0.515   1.383 -0.3180 -0.0788 -0.1717
29335SOL    HW193841  10.901   0.449   1.434  0.2839  1.2054  1.0362
29335SOL    HW293842  10.873   0.492   1.292  3.7202  0.8814  0.1667
29336SOL     OW93843  10.677   8.998   5.434  0.3806  0.5838  0.6586
29336SOL    HW193844  10.671   9.087   5.470 -2.3125 -0.1977  2.3904
29336SOL    HW293845  10.671   8.940   5.510 -1.3486 -1.0902 -0.6463
29337SOL     OW93846   0.181   0.263   8.926  0.8936 -0.0691  0.4281
29337SOL    HW193847   0.211   0.178   8.892 -0.8402 -0.4473 -0.2753
29337SOL    HW293848   0.103   0.242   8.977  0.6462  1.0695  0.5395
29338SOL     OW93849   3.539   8.712   3.875 -0.2408 -0.4038  0.1024
29338SOL    HW193850   3.599   8.678   3.942 -0.0511 -0.1587  0.0567
29338SOL    HW293851   3.540   8.645   3.806  2.8852  1.2482 -1.6465
29339SOL     OW93852   1.331   7.466   3.036 -0.3215 -0.1380 -0.1366
29339SOL    HW193853   1.309   7.398   2.972  0.9468 -0.6285 -0.0857
29339SOL    HW293854   1.419   7.494   3.010 -0.0466  0.0963  1.0288
29340SOL     OW93855   6.138   3.355   8.255  0.0829 -0.4042  0.2054
29340SOL    HW193856   6.116   3.315   8.339 -0.8259 -1.0405 -0.3196
29340SOL    HW293857   6.109   3.446   8.262  0.5668 -0.2831  0.7795
29341SOL     OW93858   8.965   4.457   7.562  0.1507  0.0512  0.0103
29341SOL    HW193859   8.906   4.384   7.544 -0.1817 -0.7019  3.4568
29341SOL    HW293860   9.032   4.451   7.493 -0.4122 -2.8974 -0.4093
29342SOL     OW93861  10.097   1.482   4.235 -0.1003  0.0897  0.0162
29342SOL    HW193862  10.117   1.573   4.259  0.1620  0.0307  0.0183
29342SOL    HW293863  10.017   1.462   4.284 -1.6445  1.1476 -1.9300
29343SOL     OW93864   7.551   5.800   0.674 -0.2546  0.0819  0.6002
29343SOL    HW193865   7.638   5.838   0.661  0.2107 -0.3147  2.3816
29343SOL    HW293866   7.522   5.779   0.585  1.0753  1.0547 -0.1095
29344SOL     OW93867   5.543   5.418   9.073  0.1479  0.1322  0.0925
29344SOL    HW193868   5.621   5.364   9.059  1.3930  1.6005  0.9653
29344SOL    HW293869   5.510   5.435   8.985  0.3389 -1.1450 -0.2533
29345SOL     OW93870   1.190   3.686   5.933 -0.1359  0.2453 -0.1195
29345SOL    HW193871   1.270   3.637   5.952 -0.4218 -0.5335 -0.8585
29345SOL    HW293872   1.203   3.719   5.844 -0.9572 -0.5633 -0.5546
29346SOL     OW93873   0.629   5.553   9.313 -0.6353  0.2842 -0.4361
29346SOL    HW193874   0.635   5.460   9.289 -0.0730  0.3324 -0.4954
29346SOL    HW293875   0.654   5.555   9.406  1.4133  0.6230 -0.9593
29347SOL     OW93876   2.463   6.823   1.332  0.4883 -0.0072  0.1121
29347SOL    HW193877   2.451   6.831   1.426  1.8004 -0.6929  0.3498
29347SOL    HW293878   2.537   6.881   1.312  0.2469  0.1018 -0.4965
29348SOL     OW93879   1.873   2.156   1.284 -0.1885  0.2084  0.6675
29348SOL    HW193880   1.962   2.183   1.307  0.1547  0.0997 -0.4769
29348SOL    HW293881   1.852   2.088   1.348  0.8650 -0.3386  0.4482
29349SOL     OW93882   1.447   0.233   6.282 -0.6336 -0.4454 -0.3068
29349SOL    HW193883   1.452   0.197   6.371 -0.5170 -1.4226 -0.7010
29349SOL    HW293884   1.471   0.325   6.293 -1.0052 -0.4537  0.7317
29350SOL     OW93885   5.896   5.013   7.951 -0.0418  0.2287  0.1630
29350SOL    HW193886   5.975   5.036   8.000  0.5747 -0.8710 -0.2888
29350SOL    HW293887   5.830   5.075   7.983  0.6842  0.4108  1.3994
29351SOL     OW93888   9.532   6.267  10.118  0.1041 -0.7622  0.7801
29351SOL    HW193889   9.574   6.181  10.112  1.2936 -0.2235  1.0047
29351SOL    HW293890   9.443   6.249  10.147 -0.1216 -2.0210 -0.5811
29352SOL     OW93891   5.297   2.890   6.361  0.5527  0.5231  0.0305
29352SOL    HW193892   5.362   2.824   6.340 -1.1242 -0.7141 -1.5845
29352SOL    HW293893   5.249   2.852   6.435 -1.5068 -1.0209 -1.9427
29353SOL     OW93894   2.583   3.669   3.779 -0.6527 -0.0024 -0.1275
29353SOL    HW193895   2.525   3.593   3.777 -0.8983  0.1718  0.3468
29353SOL    HW293896   2.604   3.685   3.687 -1.1267 -0.2425 -0.2808
29354SOL     OW93897   9.621   5.080   3.692 -0.1611  0.2125 -0.2930
29354SOL    HW193898   9.534   5.121   3.689 -0.1314  0.4218  1.2959
29354SOL    HW293899   9.647   5.075   3.600 -1.6615  0.5519 -0.7761
29355SOL     OW93900   8.055   5.962   2.568 -0.1557  0.4038 -0.2162
29355SOL    HW193901   8.128   5.944   2.627 -2.1007  1.8224  2.9145
29355SOL    HW293902   8.085   6.035   2.514  2.2538 -1.9455 -2.3464
29356SOL     OW93903   2.902   2.036   2.059 -0.0762 -0.3042 -0.0955
29356SOL    HW193904   2.880   2.125   2.030  0.9259  0.9746  2.6764
29356SOL    HW293905   2.987   2.046   2.102  0.5603 -2.8548 -0.6365
29357SOL     OW93906  10.594   3.945   2.025 -0.1945 -0.1441  0.1210
29357SOL    HW193907  10.528   3.883   1.992  0.7174 -0.6454 -0.7933
29357SOL    HW293908  10.609   4.005   1.952 -0.5659  0.7680  0.7684
29358SOL     OW93909   6.860   6.495  10.212  0.5867  0.3493  0.4220
29358SOL    HW193910   6.913   6.436  10.265  0.3071  0.8259  1.2503
29358SOL    HW293911   6.853   6.451  10.127  0.7871 -0.5723  0.8677
29359SOL     OW93912  10.163   0.644   6.038  0.1025 -0.1669  0.6311
29359SOL    HW193913  10.167   0.699   6.116 -0.7883  0.2405  0.3939
29359SOL    HW293914  10.165   0.554   6.072  0.6739  0.0078  1.0657
29360SOL     OW93915   9.745   6.960   2.066 -0.3491  0.7074 -0.0817
29360SOL    HW193916   9.829   6.933   2.029 -0.6736  0.4733 -0.6616
29360SOL    HW293917   9.682   6.948   1.995 -0.7342  1.7107  0.0692
29361SOL     OW93918   0.347   4.789   4.317 -0.2120 -0.0431  0.4282
29361SOL    HW193919   0.334   4.723   4.384  2.6546 -0.2275  0.9229
29361SOL    HW293920   0.434   4.771   4.282 -0.6651  1.5092 -1.7027
29362SOL     OW93921   1.795  10.514   8.103  0.7269 -0.0127 -0.3600
29362SOL    HW193922   1.781  10.459   8.026 -2.2580 -1.7411  1.2178
29362SOL    HW293923   1.758  10.599   8.079 -1.2157 -0.8588 -0.5520
29363SOL     OW93924   5.559   9.071  10.828  0.0216  0.2162 -0.3050
29363SOL    HW193925   5.587   9.007  10.894 -1.0551  1.1532  1.1305
29363SOL    HW293926   5.641   9.109  10.796  0.5700  0.8574  1.6855
29364SOL     OW93927   9.343   4.725   3.139 -0.2855 -0.6620  0.3389
29364SOL    HW193928   9.290   4.794   3.178 -0.7693 -1.5159  1.2214
29364SOL    HW293929   9.432   4.745   3.168 -0.4651 -0.5699  0.8415
29365SOL     OW93930   9.066   0.127   6.497 -0.1933 -0.2418 -0.4771
29365SOL    HW193931   9.155   0.144   6.465 -0.3483 -0.4281 -1.0116
29365SOL    HW293932   9.011   0.189   6.450 -0.1182  1.2546  1.2841
29366SOL     OW93933   5.981   1.300   4.714 -0.6086 -0.5685 -0.2695
29366SOL    HW193934   5.959   1.239   4.644  0.2667 -2.7261  1.2268
29366SOL    HW293935   6.017   1.377   4.669  1.3745 -2.4746 -2.1783
29367SOL     OW93936  10.401   5.023   4.224  0.2215 -0.0408 -0.5184
29367SOL    HW193937  10.424   5.027   4.317  1.5859  1.2105 -0.8894
29367SOL    HW293938  10.335   5.091   4.213 -0.6368 -0.8093 -0.3132
29368SOL     OW93939  10.822   7.777   0.510  0.0252 -0.1787 -0.6310
29368SOL    HW193940  10.908   7.811   0.532  0.9283 -1.6798 -1.6744
29368SOL    HW293941  10.826   7.761   0.415 -1.5058 -0.0185 -0.7595
29369SOL     OW93942   7.133   3.153   9.013 -0.1300  0.2145 -0.4685
29369SOL    HW193943   7.087   3.151   9.097  0.0023 -0.0505 -0.4000
29369SOL    HW293944   7.068   3.187   8.951 -0.5670 -0.5628 -0.4562
29370SOL     OW93945   1.483  10.187   2.406 -0.2234 -0.2688 -0.6374
29370SOL    HW193946   1.479  10.282   2.419  0.4774 -0.2649 -0.3311
29370SOL    HW293947   1.392  10.158   2.408 -0.3619  0.0421  2.2581
29371SOL     OW93948   8.457   1.237   9.337  0.1310  0.0924 -0.7166
29371SOL    HW193949   8.429   1.180   9.409 -1.4373 -1.2404 -2.2806
29371SOL    HW293950   8.553   1.227   9.335  0.1911  0.0120  1.0265
29372SOL     OW93951   7.328   7.882   4.027 -0.2607 -0.8654 -0.2872
29372SOL    HW193952   7.234   7.866   4.038 -0.4048  0.1215  0.0711
29372SOL    HW293953   7.334   7.977   4.014  0.8074 -0.7262  1.0573
29373SOL     OW93954   4.688   5.789   6.251  0.3062  0.0242 -0.3348
29373SOL    HW193955   4.660   5.719   6.191  0.1599  0.3601 -0.6588
29373SOL    HW293956   4.621   5.789   6.320  1.1612 -1.2405  0.5562
29374SOL     OW93957   9.768   0.517   3.744  0.0959  0.1215  0.4327
29374SOL    HW193958   9.675   0.496   3.743 -0.3920  2.0116  1.5461
29374SOL    HW293959   9.807   0.450   3.800 -0.3729 -1.3207 -0.8901
29375SOL     OW93960   7.492   7.932   2.047  0.2820 -0.7915 -0.2862
29375SOL    HW193961   7.563   7.928   2.111 -0.9243  1.6878  1.3530
29375SOL    HW293962   7.431   7.864   2.075 -0.0822  0.0651  1.0637
29376SOL     OW93963   7.524   1.017   1.702  0.2515  0.1780 -0.6978
29376SOL    HW193964   7.473   1.097   1.689  1.0134  0.5350 -1.5862
29376SOL    HW293965   7.498   0.960   1.629 -1.4289 -1.0361  0.7476
29377SOL     OW93966   9.826   5.489   5.091 -0.3381  0.6111 -0.1423
29377SOL    HW193967   9.775   5.564   5.120  2.7722  2.0154  2.2727
29377SOL    HW293968   9.898   5.526   5.040 -0.0823 -0.9815 -1.0124
29378SOL     OW93969   7.232   5.092   0.797  0.2085  0.1704  0.2705
29378SOL    HW193970   7.247   5.175   0.844  0.7418  0.5402 -0.5236
29378SOL    HW293971   7.138   5.075   0.807  0.1859  0.6190  0.8557
29379SOL     OW93972  10.835   6.916   5.812  0.2778 -0.4080 -0.1945
29379SOL    HW193973  10.839   6.962   5.895  0.6929 -1.8227  0.5971
29379SOL    HW293974  10.902   6.958   5.758 -0.2620  0.7805  0.0161
29380SOL     OW93975  10.190   3.151   1.675 -0.3627 -0.0539  0.2468
29380SOL    HW193976  10.097   3.139   1.693 -0.3041 -1.0479 -0.0732
29380SOL    HW293977  10.195   3.176   1.583 -0.2862 -0.3834  0.1610
29381SOL     OW93978   8.848   4.176   8.674  0.0377  0.7652  1.0824
29381SOL    HW193979   8.841   4.251   8.733 -0.5266  1.4541  0.1548
29381SOL    HW293980   8.896   4.209   8.598 -1.4748  0.6177  0.0200
29382SOL     OW93981   7.914   9.969   6.573  0.1521  0.2795 -0.2143
29382SOL    HW193982   7.931  10.060   6.595  0.3324 -0.3493  2.6915
29382SOL    HW293983   8.000   9.928   6.570  0.0305  0.0500 -0.8732
29383SOL     OW93984   0.470  10.232   8.977 -0.5689 -0.2399  0.3179
29383SOL    HW193985   0.464  10.306   8.916 -0.9422 -0.7619 -0.2910
29383SOL    HW293986   0.389  10.183   8.963 -0.0623 -1.0902  0.2844
29384SOL     OW93987  10.780   6.517   2.791  0.3113 -0.0760 -0.7192
29384SOL    HW193988  10.689   6.515   2.762  0.0607 -0.6434  0.0782
29384SOL    HW293989  10.814   6.430   2.768  0.5688  0.0350 -0.7594
29385SOL     OW93990   0.449   9.954   4.272  0.1921 -0.2705 -0.3106
29385SOL    HW193991   0.355   9.954   4.254  0.3078  0.2634 -0.9802
29385SOL    HW293992   0.466  10.040   4.310 -0.0818 -1.4479  2.7638
29386SOL     OW93993   6.790   2.427   0.158  0.5440  0.9895 -0.6193
29386SOL    HW193994   6.719   2.366   0.140 -0.6386  2.7280 -2.3555
29386SOL    HW293995   6.783   2.445   0.252  0.6558 -1.1584 -0.1686
29387SOL     OW93996   6.999   1.302  10.540 -0.3419  0.1690  0.5553
29387SOL    HW193997   7.041   1.227  10.582  0.8623  0.7582  0.4393
29387SOL    HW293998   7.030   1.377  10.590  0.7044  0.8391 -1.0559
29388SOL     OW93999   4.304   8.722   7.375 -0.3260 -0.1865 -0.6333
29388SOL    HW194000   4.370   8.661   7.406 -0.0134  1.3301  2.0280
29388SOL    HW294001   4.345   8.808   7.383 -2.5232  0.8222  1.2004
29389SOL     OW94002   5.675   4.096   7.528 -0.4955  0.0772  0.9125
29389SOL    HW194003   5.753   4.043   7.544 -0.8117 -0.4247  0.8309
29389SOL    HW294004   5.602   4.041   7.557 -0.8077  0.6053  1.1434
29390SOL     OW94005   7.259   7.097   4.231 -0.4309 -0.0050  0.0768
29390SOL    HW194006   7.266   7.161   4.161  0.2685 -0.4807 -0.2963
29390SOL    HW294007   7.165   7.080   4.238 -0.6336  1.0753  0.2087
29391SOL     OW94008   4.987   7.965   5.970  0.2460 -0.3183 -0.4878
29391SOL    HW194009   4.928   7.976   5.895 -1.3393  1.6134  0.9458
29391SOL    HW294010   4.929   7.943   6.043  1.3607  0.8772  0.8123
29392SOL     OW94011   2.478   7.608   5.819  0.2087 -0.0047  0.2594
29392SOL    HW194012   2.496   7.519   5.787  0.6291 -0.0346  0.5645
29392SOL    HW294013   2.428   7.649   5.749  2.4373  0.4550 -1.1605
29393SOL     OW94014   5.442   1.617  10.083  0.3440  0.1249  0.5110
29393SOL    HW194015   5.509   1.573  10.136  0.4506  1.0712  1.2009
29393SOL    HW294016   5.395   1.673  10.146  0.0767  0.8236 -0.2943
29394SOL     OW94017   6.353   9.136   7.876  0.3385  0.0460  0.1161
29394SOL    HW194018   6.405   9.094   7.944  0.4440  0.8018  0.5064
29394SOL    HW294019   6.396   9.219   7.860 -0.0667  0.1639 -0.4121
29395SOL     OW94020   5.772   2.600   3.856  0.1926  0.3681 -0.3763
29395SOL    HW194021   5.756   2.581   3.948 -0.8800  2.1192 -0.1469
29395SOL    HW294022   5.765   2.695   3.850 -3.2307  0.1294 -2.8166
29396SOL     OW94023   1.247   7.777   9.766 -0.1894  0.1525 -0.0234
29396SOL    HW194024   1.273   7.702   9.712 -1.2774  0.1180 -0.5259
29396SOL    HW294025   1.168   7.748   9.811  0.6173  0.2376  1.5241
29397SOL     OW94026   2.616  10.368   4.370  0.5546 -0.0604 -0.5025
29397SOL    HW194027   2.575  10.434   4.314  0.0678 -0.7933 -1.0210
29397SOL    HW294028   2.571  10.287   4.348  1.2383 -0.5912  0.0350
29398SOL     OW94029   2.740   5.633   3.865 -0.0527  0.1920 -0.4021
29398SOL    HW194030   2.828   5.599   3.882 -0.4642 -1.6105 -1.5124
29398SOL    HW294031   2.689   5.607   3.941  0.4692  1.7724  0.5270
29399SOL     OW94032   8.077   5.832   8.218  0.1521 -0.7996 -0.6829
29399SOL    HW194033   8.050   5.902   8.158 -1.1000 -1.0683 -0.4499
29399SOL    HW294034   8.165   5.858   8.246 -0.9438  1.6681  0.8172
29400SOL     OW94035   2.983   8.278  10.352  0.1778  0.0179 -0.1949
29400SOL    HW194036   2.970   8.371  10.332 -2.1135 -0.0979  0.4702
29400SOL    HW294037   2.931   8.232  10.286  0.9707 -0.8013 -0.2693
29401SOL     OW94038   8.098   0.108   6.546 -0.2591  0.3287  0.2598
29401SOL    HW194039   8.025   0.126   6.604 -0.7967 -2.1750  0.4807
29401SOL    HW294040   8.174   0.099   6.604 -0.7938 -2.1600  0.6856
29402SOL     OW94041   5.732   9.296   6.839  0.5308  0.2764  0.3146
29402SOL    HW194042   5.782   9.303   6.758  0.6008 -3.5416 -0.1326
29402SOL    HW294043   5.642   9.316   6.813  0.5069 -1.1657 -0.8133
29403SOL     OW94044   3.812   7.440   6.423  0.1513 -0.2160 -0.1156
29403SOL    HW194045   3.753   7.445   6.348 -0.6003  1.6039  0.5260
29403SOL    HW294046   3.809   7.349   6.451 -1.6581 -0.3556 -0.6657
29404SOL     OW94047   2.399   7.549  10.160  0.1011  0.2308  0.1857
29404SOL    HW194048   2.370   7.459  10.144  0.2966  0.2767 -0.4739
29404SOL    HW294049   2.321   7.602  10.143  0.2866  0.2721 -0.5623
29405SOL     OW94050   0.865   8.176   1.392 -0.7577  0.6997 -0.1712
29405SOL    HW194051   0.783   8.209   1.356 -1.7171  0.6205  1.8177
29405SOL    HW294052   0.843   8.092   1.431  0.0923  1.0028  1.0259
29406SOL     OW94053   2.948   4.630   4.281  1.1210  0.7116 -0.2015
29406SOL    HW194054   2.864   4.596   4.312  1.1377  0.6817 -0.1887
29406SOL    HW294055   2.944   4.723   4.299  1.1511  0.6850 -0.0647
29407SOL     OW94056   8.155   6.440  10.291 -0.4050 -0.6837 -0.3564
29407SOL    HW194057   8.217   6.477  10.355  0.4231 -0.8415 -1.0592
29407SOL    HW294058   8.078   6.498  10.297  0.1267  0.0076 -0.0740
29408SOL     OW94059   4.288   2.177   7.429 -0.1919  0.1903 -0.3788
29408SOL    HW194060   4.316   2.172   7.520 -0.2074  1.0745 -0.3173
29408SOL    HW294061   4.199   2.142   7.429 -0.5862  1.1659  0.1368
29409SOL     OW94062   6.566   9.731   7.645  0.3283  0.1027  0.2566
29409SOL    HW194063   6.564   9.762   7.735 -1.4397  0.8814 -0.0090
29409SOL    HW294064   6.652   9.688   7.636  2.3412  3.5743  1.1070
29410SOL     OW94065   3.384   2.370   5.749  0.7681  0.0115 -0.0020
29410SOL    HW194066   3.391   2.390   5.842  1.5739 -0.4805  0.0508
29410SOL    HW294067   3.341   2.447   5.711 -0.0532 -0.0091  0.8474
29411SOL     OW94068  10.489   6.883   8.294  0.5858 -0.0001  0.1319
29411SOL    HW194069  10.569   6.830   8.291  1.4409  1.2738 -0.3776
29411SOL    HW294070  10.511   6.955   8.353 -0.0471  0.5798 -0.3348
29412SOL     OW94071  10.917   7.990   8.809 -0.1410 -0.2900 -0.4406
29412SOL    HW194072  10.838   7.936   8.812 -1.3108  1.3441 -0.6590
29412SOL    HW294073  10.923   8.019   8.718  1.7790 -1.8285 -0.8867
29413SOL     OW94074   5.331   7.584   2.184  0.7941  0.0831  0.0519
29413SOL    HW194075   5.320   7.521   2.255 -1.0366 -0.4393 -0.6711
29413SOL    HW294076   5.417   7.624   2.202  1.8596 -2.3232  0.7174
29414SOL     OW94077   9.212   8.775   8.717 -0.4146 -0.9294  0.1301
29414SOL    HW194078   9.196   8.816   8.632  0.1361  1.5005  1.1452
29414SOL    HW294079   9.225   8.847   8.777 -1.0886 -2.5753  2.3932
29415SOL     OW94080   5.305   7.559   6.288 -0.4901  0.4574 -0.8761
29415SOL    HW194081   5.383   7.603   6.322 -0.9238  1.2866 -0.9232
29415SOL    HW294082   5.282   7.609   6.209 -0.8573 -0.0050 -1.0691
29416SOL     OW94083  10.208   4.190   4.666 -0.0473 -0.5399  0.2808
29416SOL    HW194084  10.153   4.253   4.620 -0.8910  0.1743  2.1636
29416SOL    HW294085  10.152   4.156   4.736  1.3242 -1.1913  1.1062
29417SOL     OW94086   4.101   3.072   4.210  0.1145 -0.2532  0.0661
29417SOL    HW194087   4.097   3.151   4.156 -0.1283  1.1690  2.0805
29417SOL    HW294088   4.194   3.051   4.216  0.1540 -0.3666 -0.7722
29418SOL     OW94089   6.948   3.499   9.131 -0.1319  0.0931  0.4257
29418SOL    HW194090   6.921   3.432   9.067  0.4037 -0.8022  1.1145
29418SOL    HW294091   7.025   3.540   9.091  1.4540 -1.8280  1.3005
29419SOL     OW94092   1.348   5.274   1.740  0.4877  0.6135  0.3040
29419SOL    HW194093   1.400   5.194   1.749  0.0124  0.3268  0.5190
29419SOL    HW294094   1.389   5.321   1.667  0.4352 -0.0840 -0.1850
29420SOL     OW94095   7.941   6.885   2.768  0.0172  0.2989  0.0174
29420SOL    HW194096   8.027   6.851   2.793 -0.5526 -0.6620  0.7495
29420SOL    HW294097   7.960   6.953   2.704  1.2993 -0.2580 -0.2314
29421SOL     OW94098   2.627   7.727   3.520  0.1075 -0.3812  0.2528
29421SOL    HW194099   2.583   7.806   3.487  0.6058  0.1981  0.9550
29421SOL    HW294100   2.558   7.660   3.520 -0.7306  0.4415  1.0684
29422SOL     OW94101   8.726  10.009   0.169 -0.2002  1.4042  0.0980
29422SOL    HW194102   8.815  10.018   0.136 -0.0788 -0.6880 -0.2690
29422SOL    HW294103   8.732  10.037   0.261  1.0749  0.3203  0.3703
29423SOL     OW94104   1.245   8.045   9.667 -0.1740  0.0726 -0.3453
29423SOL    HW194105   1.329   8.073   9.703  1.4502 -0.8179 -3.1511
29423SOL    HW294106   1.223   7.965   9.716  0.1498  0.7601  0.9659
29424SOL     OW94107   9.016   6.651   9.365 -0.2307 -0.1623 -0.4189
29424SOL    HW194108   8.986   6.561   9.374 -2.0544  0.3919 -0.4447
29424SOL    HW294109   8.940   6.704   9.390  0.8321  1.3660 -0.2880
29425SOL     OW94110   9.570   3.191   0.522 -0.3974  0.3944  0.0033
29425SOL    HW194111   9.524   3.248   0.460  1.7150  1.0320 -1.0806
29425SOL    HW294112   9.518   3.110   0.523 -2.7478  1.8167  0.5931
29426SOL     OW94113  10.175   6.010  10.510  0.2077 -0.1075  0.1087
29426SOL    HW194114  10.105   6.020  10.574  0.5603  0.6018  0.4075
29426SOL    HW294115  10.240   6.075  10.537  0.1997  0.4672 -1.1833
29427SOL     OW94116   5.083   9.872   5.840 -0.1489  0.1750 -0.0599
29427SOL    HW194117   5.099   9.920   5.921  0.9962 -0.2272 -0.0352
29427SOL    HW294118   5.057   9.784   5.868 -1.1785  0.4399 -0.1242
29428SOL     OW94119   1.546   7.907   1.810 -0.4866  0.3567  0.5805
29428SOL    HW194120   1.556   7.966   1.885 -1.0879  1.9099 -0.4966
29428SOL    HW294121   1.614   7.936   1.749 -0.9514  0.0972 -0.0654
29429SOL     OW94122   4.394   5.800   0.235 -0.1149 -0.1944 -0.3810
29429SOL    HW194123   4.436   5.725   0.278 -0.3970  0.3587  0.8849
29429SOL    HW294124   4.416   5.789   0.142  2.2718 -0.2952  0.1310
29430SOL     OW94125  10.316   0.716   0.790 -0.0473  0.1523 -0.4690
29430SOL    HW194126  10.297   0.665   0.711 -0.5538  0.7060 -0.7087
29430SOL    HW294127  10.235   0.712   0.841 -0.3632  1.3430 -0.8441
29431SOL     OW94128   6.626   3.093   3.928 -0.3659  0.1605 -0.4394
29431SOL    HW194129   6.602   3.177   3.887 -1.9120 -0.3910 -0.7416
29431SOL    HW294130   6.545   3.062   3.968  0.3086 -0.9660  0.1005
29432SOL     OW94131   7.172   6.301   7.411 -0.4703  0.0789 -0.1036
29432SOL    HW194132   7.147   6.386   7.373  0.3516  1.2122  1.7399
29432SOL    HW294133   7.103   6.284   7.476 -0.4253 -0.4939 -0.2041
29433SOL     OW94134   7.986   1.939  10.528  0.3318  0.3987 -0.3488
29433SOL    HW194135   7.932   1.860  10.526 -0.4848  0.9564 -0.6423
29433SOL    HW294136   7.948   1.993  10.596  0.9467  0.5130 -0.0854
29434SOL     OW94137   9.104  10.338   7.682  0.5257 -0.2662 -0.0368
29434SOL    HW194138   9.139  10.427   7.687  2.1521 -0.7505 -1.6066
29434SOL    HW294139   9.181  10.282   7.688 -0.3781 -1.5310 -0.0057
29435SOL     OW94140   7.063   1.322   3.569  0.2864  1.0946  0.7821
29435SOL    HW194141   7.073   1.284   3.482 -1.1736 -2.0990  1.8210
29435SOL    HW294142   7.150   1.317   3.609  0.7087  1.4833 -0.0828
29436SOL     OW94143   3.422   8.510   4.332  0.2285 -0.3475  0.1351
29436SOL    HW194144   3.350   8.447   4.333  1.1783 -1.4705  1.9295
29436SOL    HW294145   3.463   8.502   4.418  1.6834  1.2418 -0.3419
29437SOL     OW94146  10.117   4.644   7.523  0.3645  0.4223  0.2361
29437SOL    HW194147  10.065   4.698   7.583 -1.4507 -0.3790 -0.5414
29437SOL    HW294148  10.120   4.558   7.565 -0.4569  0.0021 -0.5363
29438SOL     OW94149   1.125   2.884   8.044 -0.4165 -0.0355  0.4026
29438SOL    HW194150   1.147   2.977   8.043  0.9486 -0.3294  1.3319
29438SOL    HW294151   1.029   2.882   8.040 -0.5019  1.4334  1.1544
29439SOL     OW94152   0.279   2.099   9.049 -0.2056  0.1456  0.3496
29439SOL    HW194153   0.371   2.071   9.053 -0.5113 -0.7440  2.7516
29439SOL    HW294154   0.232   2.018   9.027 -0.6306 -0.0962  2.0388
29440SOL     OW94155   2.027   2.191   4.877 -0.3210 -0.7569  0.2660
29440SOL    HW194156   2.029   2.145   4.794  1.1024  0.4018 -0.3976
29440SOL    HW294157   2.120   2.205   4.898 -0.6937  0.5706  1.1187
29441SOL     OW94158   4.143   8.446   0.793 -0.1819 -0.0740 -0.3945
29441SOL    HW194159   4.095   8.491   0.862  2.0536  1.1886  0.4453
29441SOL    HW294160   4.174   8.516   0.736  0.7642 -0.8172 -0.8203
29442SOL     OW94161   6.052   7.585   3.024  0.6410 -0.0576  0.7913
29442SOL    HW194162   6.113   7.549   2.960 -0.4600  1.2752 -1.1061
29442SOL    HW294163   6.087   7.672   3.045 -0.3813  0.5993 -0.0947
29443SOL     OW94164   0.323   8.180   4.479  0.3231  0.0594 -0.1144
29443SOL    HW194165   0.277   8.126   4.415  2.7331 -0.9500 -1.1188
29443SOL    HW294166   0.382   8.235   4.427  0.5276  1.0595  1.1085
29444SOL     OW94167   9.580   7.999   5.043  0.2929  0.6507 -0.1603
29444SOL    HW194168   9.545   8.062   5.105  1.1572  1.8587 -0.8466
29444SOL    HW294169   9.673   8.022   5.034  0.3562  0.0583 -1.3379
29445SOL     OW94170   6.403   9.762   5.777 -0.3554 -0.2433  0.9678
29445SOL    HW194171   6.419   9.855   5.790  1.3383 -0.0456 -1.6699
29445SOL    HW294172   6.477   9.718   5.819  1.2776 -0.0255 -1.4547
29446SOL     OW94173   2.777   6.019   2.347  0.2685 -0.1911 -0.2194
29446SOL    HW194174   2.750   6.031   2.256 -1.6985 -0.6196  0.2590
29446SOL    HW294175   2.872   6.030   2.346  0.2388  0.1739 -2.2533
29447SOL     OW94176   5.232   1.069   6.435 -0.3981 -0.1745  0.5512
29447SOL    HW194177   5.215   1.083   6.342 -0.7145 -1.4843  0.4005
29447SOL    HW294178   5.326   1.081   6.444 -0.4416  0.5111  0.1742
29448SOL     OW94179   3.178   4.686   0.408 -0.8676 -0.2943  0.4992
29448SOL    HW194180   3.243   4.756   0.412 -0.3750 -0.7537  0.7495
29448SOL    HW294181   3.185   4.652   0.318 -0.8348 -0.2717  0.4930
29449SOL     OW94182   3.954   0.763  10.019  0.6771  0.1605  0.6003
29449SOL    HW194183   3.862   0.762  10.048  0.5251  0.5659  0.1450
29449SOL    HW294184   4.003   0.727  10.093  0.0345 -1.1323  0.4232
29450SOL     OW94185   3.203   6.599   7.477  0.5645 -0.2654 -0.3491
29450SOL    HW194186   3.184   6.693   7.482 -0.4670 -0.4796 -0.0401
29450SOL    HW294187   3.176   6.574   7.388 -1.3180 -0.7016  0.3038
29451SOL     OW94188  10.035   0.065   8.746 -0.1036 -0.2537 -0.2846
29451SOL    HW194189  10.001   0.080   8.658 -0.4877  2.6213  0.2417
29451SOL    HW294190  10.107   0.004   8.733 -0.0165  0.2254 -2.6346
29452SOL     OW94191   0.581   5.111   5.773 -0.1542  0.5492  0.2572
29452SOL    HW194192   0.561   5.179   5.837  1.7657 -0.5703  2.1840
29452SOL    HW294193   0.652   5.149   5.721  0.3891  0.3319  0.8280
29453SOL     OW94194   3.784   9.726   6.623  0.6128 -0.0938 -0.1103
29453SOL    HW194195   3.772   9.665   6.696  2.0126  0.8466  0.9655
29453SOL    HW294196   3.803   9.670   6.548 -0.6992 -1.0811  0.2628
29454SOL     OW94197   0.884   3.712   5.290  0.1833  0.2668  0.4472
29454SOL    HW194198   0.925   3.742   5.371  0.8878  0.3414  0.0728
29454SOL    HW294199   0.839   3.789   5.255  1.6037  0.7975 -0.2789
29455SOL     OW94200   7.507   9.824   8.770  0.1725  0.1464  0.0874
29455SOL    HW194201   7.472   9.764   8.836  1.0685 -0.2140  0.2399
29455SOL    HW294202   7.433   9.882   8.750 -0.5779 -0.7175  0.2599
29456SOL     OW94203   3.148  10.083   1.359 -0.5313  0.0871 -1.0639
29456SOL    HW194204   3.054  10.094   1.343 -0.8002  1.2163  0.9148
29456SOL    HW294205   3.153  10.016   1.427  0.1909 -0.6757 -1.8403
29457SOL     OW94206   2.721   1.509   4.936  0.3369  0.1680 -0.0277
29457SOL    HW194207   2.671   1.516   4.854  2.9143 -2.3784 -2.0214
29457SOL    HW294208   2.794   1.571   4.924  0.8052 -0.3241  0.2702
29458SOL     OW94209   2.922   9.143   1.458  0.6555  0.3342 -0.1678
29458SOL    HW194210   2.861   9.149   1.531 -0.0647  0.5214 -0.7661
29458SOL    HW294211   2.866   9.140   1.380  1.3807 -0.4748 -0.6810
29459SOL     OW94212   3.525   6.873  10.686 -0.2253  0.3346  0.6136
29459SOL    HW194213   3.524   6.966  10.710  2.0147  0.7989 -0.7339
29459SOL    HW294214   3.564   6.872  10.598 -0.9593 -1.8393  0.2498
29460SOL     OW94215   8.919   7.418   8.866 -0.1572  0.2049 -0.0546
29460SOL    HW194216   8.954   7.357   8.932  1.0616  1.8634  0.9086
29460SOL    HW294217   8.951   7.504   8.894 -2.0093  1.3382 -1.2434
29461SOL     OW94218   6.095   7.772   8.064  0.1595  0.2311 -0.3945
29461SOL    HW194219   6.071   7.773   8.157  0.8337  0.8124 -0.2215
29461SOL    HW294220   6.069   7.685   8.034 -0.2670  0.1156  0.2791
29462SOL     OW94221   0.084   4.064   8.667  0.3334 -0.2693  0.1288
29462SOL    HW194222   0.004   4.104   8.702  0.5184 -0.7746  1.1805
29462SOL    HW294223   0.098   3.988   8.723  1.9689  0.2252  0.4359
29463SOL     OW94224  10.375   4.523   0.133 -0.2454 -0.0587 -0.0838
29463SOL    HW194225  10.318   4.577   0.078  1.3613  1.1663 -0.6230
29463SOL    HW294226  10.448   4.500   0.076  0.8017  0.1073  1.1492
29464SOL     OW94227   8.466   5.451   9.379  0.2695  0.6141 -0.0465
29464SOL    HW194228   8.412   5.462   9.457 -0.7658 -1.6024 -0.3897
29464SOL    HW294229   8.412   5.400   9.319  1.7044  0.7637 -1.5428
29465SOL     OW94230   7.580   6.930   6.954 -0.5973 -0.3590  0.0521
29465SOL    HW194231   7.593   7.022   6.979 -2.0502  0.6865 -2.6561
29465SOL    HW294232   7.500   6.904   6.999 -0.3307 -0.2333  0.6085
29466SOL     OW94233   8.571  10.478   3.754  0.0746 -0.5522 -0.0501
29466SOL    HW194234   8.641  10.415   3.774 -0.4394 -1.0712  0.1552
29466SOL    HW294235   8.569  10.537   3.829  1.2254  0.3439 -0.6845
29467SOL     OW94236   5.902   2.260   4.648  0.1928 -0.5779 -0.1986
29467SOL    HW194237   5.810   2.267   4.676  0.6598  2.3917  0.9625
29467SOL    HW294238   5.947   2.221   4.723  0.4129  1.5575  0.8724
29468SOL     OW94239   5.992   0.159   5.332 -0.3739 -0.2545 -0.1190
29468SOL    HW194240   6.039   0.203   5.261 -0.5657  1.7211  0.9038
29468SOL    HW294241   6.053   0.162   5.406 -1.0050 -0.2844  0.4064
29469SOL     OW94242  10.906   2.256  10.474 -0.6684 -0.1165 -0.3386
29469SOL    HW194243  10.914   2.186  10.409 -1.4918 -0.9992  0.4828
29469SOL    HW294244  10.937   2.334  10.428 -2.2726 -0.4903 -2.2000
29470SOL     OW94245   0.227   9.043   3.721 -0.3197  1.0258 -0.6823
29470SOL    HW194246   0.310   9.005   3.695  0.3255  2.0623 -0.2110
29470SOL    HW294247   0.164   8.971   3.715 -0.0206  0.8957 -3.9047
29471SOL     OW94248   5.861   7.401   6.286  0.3910 -0.0908  0.2614
29471SOL    HW194249   5.813   7.469   6.333 -0.1586 -0.4068  0.1713
29471SOL    HW294250   5.866   7.433   6.196 -2.0636 -1.2499 -0.3713
29472SOL     OW94251   3.011   1.467   4.102 -0.3190  0.0341  0.3871
29472SOL    HW194252   3.075   1.525   4.060  2.7792 -3.3016 -0.0354
29472SOL    HW294253   2.981   1.410   4.032  1.4651 -2.6989  1.6778
29473SOL     OW94254   1.528  10.403   8.247  0.5475  0.2733  0.0232
29473SOL    HW194255   1.467  10.428   8.178  0.5588 -1.4613 -0.6765
29473SOL    HW294256   1.614  10.399   8.204  0.6292 -0.3799  0.2335
29474SOL     OW94257   7.814   1.869   2.210  0.0759  0.2846 -0.3707
29474SOL    HW194258   7.856   1.789   2.178 -1.7945 -0.4302 -1.2014
29474SOL    HW294259   7.832   1.870   2.304  1.6044 -0.1661 -0.6377
29475SOL     OW94260   9.319   8.097   0.954 -0.3494  0.9434 -0.0113
29475SOL    HW194261   9.366   8.020   0.985  0.7701  0.7432 -2.0455
29475SOL    HW294262   9.330   8.162   1.023  0.4809 -0.0438  0.8073
29476SOL     OW94263   9.029   6.292   1.297  0.0859 -0.0889  0.5446
29476SOL    HW194264   9.092   6.240   1.246 -1.5116 -0.4155 -1.1738
29476SOL    HW294265   8.967   6.227   1.331 -1.3709  0.5454 -0.8103
29477SOL     OW94266   4.455   1.995   2.774  0.0795 -0.3844 -0.0402
29477SOL    HW194267   4.414   1.947   2.701 -0.9506  1.5794 -0.8259
29477SOL    HW294268   4.387   1.998   2.842  0.6713 -1.2978  0.6111
29478SOL     OW94269   3.521   1.214   6.422 -0.2811 -0.2142 -0.3042
29478SOL    HW194270   3.502   1.248   6.510 -0.6574 -2.5270  0.5824
29478SOL    HW294271   3.574   1.136   6.438  0.5268 -0.1042 -2.2206
29479SOL     OW94272   1.544  10.183   4.787 -0.4985 -0.1747 -0.1059
29479SOL    HW194273   1.507  10.098   4.812  1.4009 -1.7194 -2.0736
29479SOL    HW294274   1.620  10.160   4.733 -0.1555  2.8209 -1.0547
29480SOL     OW94275   4.322   2.117   9.965 -0.1428 -0.0802 -0.9342
29480SOL    HW194276   4.254   2.051   9.977 -0.6701  0.4519 -0.9574
29480SOL    HW294277   4.356   2.132  10.054 -1.0272  0.6629 -0.7028
29481SOL     OW94278   9.000   6.602   9.067 -0.4220  0.4005 -0.1728
29481SOL    HW194279   9.040   6.645   9.143  1.1710 -1.0110 -0.1434
29481SOL    HW294280   8.924   6.556   9.103 -0.8502  1.3681  0.1860
29482SOL     OW94281  10.868   6.652  10.658  0.1422  0.3053  0.2727
29482SOL    HW194282  10.846   6.564  10.691  1.0726 -0.0922 -0.1160
29482SOL    HW294283  10.794   6.676  10.603 -0.5578  0.1693  1.1387
29483SOL     OW94284   2.592   6.951   1.730  0.1176  0.1512 -0.1625
29483SOL    HW194285   2.556   6.980   1.646  0.8301  1.0652 -0.1693
29483SOL    HW294286   2.584   7.028   1.787  1.0363  0.0240  0.1531
29484SOL     OW94287   2.043   5.491   0.637 -0.8911 -0.3484  0.0746
29484SOL    HW194288   2.044   5.463   0.729  0.3225  0.5148  0.3493
29484SOL    HW294289   2.003   5.578   0.638 -0.5158 -0.1698 -0.1578
29485SOL     OW94290  10.534   5.316   4.371  0.4362 -0.0550 -0.0697
29485SOL    HW194291  10.517   5.377   4.299 -0.3390  0.0717  0.2170
29485SOL    HW294292  10.610   5.266   4.341 -0.0708 -0.2351 -1.1332
29486SOL     OW94293  10.904   1.282   3.765  0.4462  0.3991 -0.2142
29486SOL    HW194294  10.870   1.275   3.854  1.0356  1.5893  0.1232
29486SOL    HW294295  10.999   1.269   3.774  0.5017  0.4560 -0.6745
29487SOL     OW94296   6.299   0.985   1.514 -0.0196  0.3092 -0.8346
29487SOL    HW194297   6.231   0.947   1.459  0.1753  1.0075 -1.5731
29487SOL    HW294298   6.274   0.962   1.603  0.1317 -1.6223 -1.2393
29488SOL     OW94299   5.582   2.867   5.842  0.4141  0.3749  0.3255
29488SOL    HW194300   5.634   2.925   5.786 -0.9539  0.5299 -0.8311
29488SOL    HW294301   5.584   2.782   5.798  0.3770  0.1616  0.7261
29489SOL     OW94302   5.631   2.032   6.524  0.0044 -0.3394  0.1306
29489SOL    HW194303   5.645   2.094   6.596  1.4518  0.0543 -0.4348
29489SOL    HW294304   5.668   1.950   6.556 -1.4328 -0.7952  0.6788
29490SOL     OW94305   1.762   4.764   2.128 -0.0986 -0.5847  0.1924
29490SOL    HW194306   1.720   4.678   2.121  1.9080 -1.6095 -0.0026
29490SOL    HW294307   1.856   4.744   2.136  0.7123  1.6196 -2.3840
29491SOL     OW94308  10.307   8.466   8.829 -0.6581  0.1240  0.0832
29491SOL    HW194309  10.355   8.398   8.875  0.0480  1.3392  1.2126
29491SOL    HW294310  10.355   8.547   8.849  0.7246  0.5925 -4.1396
29492SOL     OW94311   3.769   3.763   5.107  0.0016  0.6006  0.3292
29492SOL    HW194312   3.774   3.791   5.016  1.5030 -0.9049 -0.1114
29492SOL    HW294313   3.743   3.842   5.155  0.0350  1.6446 -1.2871
29493SOL     OW94314  10.354   1.568   1.201 -0.3265 -0.1846  0.8240
29493SOL    HW194315  10.399   1.563   1.286  0.1208 -0.8980  0.5541
29493SOL    HW294316  10.281   1.506   1.210 -0.7006  0.2703  0.9329
29494SOL     OW94317   2.458   5.834   0.176 -0.6522  0.0228  0.6898
29494SOL    HW194318   2.390   5.901   0.177 -0.5830  0.0926  0.7200
29494SOL    HW294319   2.481   5.825   0.084 -0.8555 -0.1573  0.6558
29495SOL     OW94320   6.368   7.139   6.274  0.1035 -0.3635  0.4508
29495SOL    HW194321   6.382   7.210   6.211  0.4776 -0.0574  0.8705
29495SOL    HW294322   6.283   7.101   6.249  1.1512 -1.5831 -1.5064
29496SOL     OW94323   2.277   6.154   5.966 -0.1859 -0.0818 -0.4950
29496SOL    HW194324   2.198   6.207   5.980 -0.2956 -0.4378  0.3094
29496SOL    HW294325   2.267   6.080   6.026  0.3719 -0.5648 -0.9860
29497SOL     OW94326   2.420   0.745   6.908  0.0895 -0.3196 -0.4690
29497SOL    HW194327   2.449   0.811   6.845  0.6173 -2.0006 -2.0787
29497SOL    HW294328   2.366   0.685   6.856 -0.9854 -0.7558  1.0980
29498SOL     OW94329   6.590   2.613   7.933  0.0766 -0.1403 -0.5134
29498SOL    HW194330   6.613   2.695   7.889  0.7493 -0.1179 -0.1314
29498SOL    HW294331   6.511   2.582   7.887 -0.4304  0.9252 -0.3845
29499SOL     OW94332   5.066   7.184   9.909  0.3380  0.3824 -0.4522
29499SOL    HW194333   4.995   7.197   9.971  0.5598  1.1888 -0.3600
29499SOL    HW294334   5.095   7.272   9.886  1.0516  0.0723 -0.7809
29500SOL     OW94335  10.046   4.890   7.396  0.6577 -0.6789 -0.5081
29500SOL    HW194336   9.988   4.819   7.425 -0.1602 -0.2085 -0.9704
29500SOL    HW294337  10.097   4.912   7.474 -0.3464 -0.5560  0.1243
29501SOL     OW94338   5.832   5.525   9.936 -0.2463  0.2854 -0.2313
29501SOL    HW194339   5.780   5.589   9.985  0.4449  2.2424 -1.9031
29501SOL    HW294340   5.922   5.553   9.948 -0.1098  1.9614 -3.8689
29502SOL     OW94341   9.747   4.078   0.395 -0.2679  0.3398  0.1289
29502SOL    HW194342   9.815   4.041   0.452 -2.7161 -0.4579  2.8154
29502SOL    HW294343   9.752   4.026   0.315  0.3967 -1.7274  1.4227
29503SOL     OW94344   1.780   2.808   3.843 -0.1345  0.3023 -0.0754
29503SOL    HW194345   1.840   2.754   3.894  0.6688  0.6294 -0.6619
29503SOL    HW294346   1.775   2.764   3.758 -1.7582 -0.4526  0.3701
29504SOL     OW94347   6.969   9.071  10.038  0.5090  0.1667 -0.0492
29504SOL    HW194348   7.001   9.115  10.117 -2.4718  2.0666  0.2686
29504SOL    HW294349   6.905   9.007  10.071  1.3379 -1.1007 -0.8194
29505SOL     OW94350   5.199   6.433   4.097 -0.1863  0.1520  0.1947
29505SOL    HW194351   5.294   6.435   4.100 -0.1184 -1.0057 -0.6564
29505SOL    HW294352   5.173   6.400   4.183  0.2342 -0.5032  0.0765
29506SOL     OW94353   9.204   3.010   5.101 -0.3680  0.1764  0.5289
29506SOL    HW194354   9.255   2.957   5.162 -0.1300 -0.9150 -0.5937
29506SOL    HW294355   9.249   3.095   5.100 -0.8071  0.4831  2.4030
29507SOL     OW94356   9.654   8.733   6.419  0.4580  0.1430  0.2988
29507SOL    HW194357   9.566   8.740   6.383  0.8151 -0.8577 -0.8283
29507SOL    HW294358   9.689   8.822   6.414 -0.6811  0.6836  1.3462
29508SOL     OW94359   1.896   0.384   7.825  0.2892 -1.0727  0.3189
29508SOL    HW194360   1.963   0.327   7.788 -0.2888 -0.7225 -1.3394
29508SOL    HW294361   1.836   0.401   7.753  2.1857  4.3422 -0.5058
29509SOL     OW94362  10.341   5.982   2.179  0.1362 -0.1984  0.0542
29509SOL    HW194363  10.259   6.024   2.152  1.0113  3.0625  1.8629
29509SOL    HW294364  10.316   5.921   2.247 -0.8576  0.5613  0.4010
29510SOL     OW94365   0.047  10.587   9.502 -0.1051  0.5065  0.3473
29510SOL    HW194366   0.060  10.547   9.588  1.0753  0.9848  0.4013
29510SOL    HW294367   0.127  10.635   9.485 -0.9449  1.7259 -0.3359
29511SOL     OW94368   2.832  10.122   0.874  0.1102  0.4878  0.4469
29511SOL    HW194369   2.891  10.177   0.823  1.2520  0.0205  1.2241
29511SOL    HW294370   2.855  10.032   0.850 -0.8447  0.3156  0.1573
29512SOL     OW94371   0.720   2.167   6.683 -0.2982 -0.1391 -0.2727
29512SOL    HW194372   0.680   2.255   6.681 -0.8140 -0.3369  0.7310
29512SOL    HW294373   0.811   2.182   6.657 -0.2914  0.7466  0.2087
29513SOL     OW94374   6.175   3.729   7.027 -0.1564  0.6566  0.4751
29513SOL    HW194375   6.089   3.756   7.060 -0.6902 -1.7537  1.3288
29513SOL    HW294376   6.176   3.757   6.936 -1.1583  2.1823  0.8922
29514SOL     OW94377   4.438   1.207   0.501  0.7299 -0.2541  0.7887
29514SOL    HW194378   4.432   1.288   0.552  0.7158 -0.8801  1.8206
29514SOL    HW294379   4.407   1.231   0.414 -1.9430  0.2611  1.7709
29515SOL     OW94380   6.491   1.631   4.219 -0.4122 -0.3449 -0.2251
29515SOL    HW194381   6.438   1.561   4.183 -0.2300 -0.3784 -0.4298
29515SOL    HW294382   6.428   1.700   4.241 -0.8914 -1.4548  2.1693
29516SOL     OW94383   1.604   0.783   5.696  0.5195  0.7426 -0.3353
29516SOL    HW194384   1.601   0.871   5.731  3.6919  0.9108 -0.2111
29516SOL    HW294385   1.660   0.789   5.619  0.3499 -1.0752 -0.6666
29517SOL     OW94386   6.892   0.284  10.369 -0.2363  0.0726  0.6305
29517SOL    HW194387   6.960   0.250  10.427  0.1524 -1.1448 -0.4956
29517SOL    HW294388   6.889   0.221  10.296 -2.1697  0.3990  0.3775
29518SOL     OW94389   3.097   9.923   9.931 -0.2198 -0.3185  0.1786
29518SOL    HW194390   3.104   9.863  10.005 -1.9432  0.3077  0.9009
29518SOL    HW294391   3.130   9.874   9.856 -1.3420 -2.0643  0.7948
29519SOL     OW94392   6.467  10.353   5.213  0.2834 -0.4474 -0.2921
29519SOL    HW194393   6.401  10.338   5.280 -0.7332 -1.6679 -1.5055
29519SOL    HW294394   6.417  10.370   5.133  1.4497  0.4635 -0.8744
29520SOL     OW94395   5.796   1.196   9.477  0.4994  0.3231 -0.3851
29520SOL    HW194396   5.832   1.173   9.563 -0.6330  0.7573  0.2297
29520SOL    HW294397   5.798   1.114   9.427 -0.8730 -0.4816  0.8137
29521SOL     OW94398   1.801   7.042  10.100 -0.0150  0.4355 -0.2276
29521SOL    HW194399   1.823   6.949  10.106 -0.5389  0.2389 -1.1911
29521SOL    HW294400   1.709   7.043  10.072  0.5963  1.2235 -2.3338
29522SOL     OW94401   7.244   8.993   5.824  0.5988  0.8867 -0.0276
29522SOL    HW194402   7.327   9.028   5.858  0.5150  0.2079  0.8964
29522SOL    HW294403   7.254   8.898   5.829  0.0149  0.7932 -0.5352
29523SOL     OW94404  10.212   8.157  10.613  0.5015 -0.2477 -0.1459
29523SOL    HW194405  10.194   8.188  10.702  2.7775  0.0170  0.2717
29523SOL    HW294406  10.294   8.109  10.620 -0.2766 -1.9449 -1.7759
29524SOL     OW94407   9.590   9.724   5.682  0.0324 -0.7066  0.2204
29524SOL    HW194408   9.606   9.795   5.620  1.8075 -0.3232  1.0759
29524SOL    HW294409   9.672   9.674   5.684 -0.0457 -0.8206  2.1058
29525SOL     OW94410   1.913   0.124   2.564  0.2083  0.4214 -0.2456
29525SOL    HW194411   2.004   0.149   2.576  0.1838  0.5399 -0.3041
29525SOL    HW294412   1.913   0.073   2.483  0.2029  0.5299 -0.3146
29526SOL     OW94413   4.994   6.152   1.116  0.6396  0.0397 -0.6088
29526SOL    HW194414   5.007   6.243   1.089  1.1887 -0.5144 -2.4188
29526SOL    HW294415   5.079   6.111   1.100  1.1844 -0.3115  2.5693
29527SOL     OW94416   8.595   1.141   9.711 -0.1030 -0.7833 -0.1626
29527SOL    HW194417   8.558   1.200   9.645 -0.9205 -0.9035  0.1772
29527SOL    HW294418   8.687   1.164   9.715 -0.1873 -0.3011 -0.8514
29528SOL     OW94419   8.336   6.428   1.868  0.2114  0.1112 -0.0074
29528SOL    HW194420   8.345   6.406   1.775 -2.6192 -1.4593 -0.0168
29528SOL    HW294421   8.254   6.477   1.873  1.1034  1.5426  1.5127
29529SOL     OW94422   8.895   9.578   2.989 -0.1367  0.9690  0.0480
29529SOL    HW194423   8.927   9.504   3.041 -0.5891 -0.3004 -1.3919
29529SOL    HW294424   8.850   9.634   3.053 -0.8887 -0.6478  1.0192
29530SOL     OW94425   8.058   5.668   7.944 -0.0642  0.1545  0.0449
29530SOL    HW194426   8.094   5.736   8.001  2.0609  1.0041 -2.0920
29530SOL    HW294427   8.135   5.634   7.896 -1.7120 -0.0929 -2.6418
29531SOL     OW94428   4.633   9.085   4.523  0.4198  0.4073  0.1091
29531SOL    HW194429   4.637   8.994   4.551  0.4204  1.1211  2.6733
29531SOL    HW294430   4.543   9.096   4.491  0.6820 -0.6634 -1.0947
29532SOL     OW94431   3.306   9.656   9.754  0.0382  0.3846 -0.1160
29532SOL    HW194432   3.228   9.612   9.787 -0.2254  1.4783  0.7565
29532SOL    HW294433   3.282   9.684   9.665  0.1923 -1.1305 -0.6677
29533SOL     OW94434   5.386   6.405   7.200  0.4745 -0.0198  0.8120
29533SOL    HW194435   5.296   6.372   7.200 -0.2365  1.7334 -0.6032
29533SOL    HW294436   5.432   6.350   7.138  0.3571 -0.8177  1.4136
29534SOL     OW94437   0.620   3.342   7.303  0.5210 -0.0777  0.2354
29534SOL    HW194438   0.607   3.387   7.386  2.2781 -0.4121  0.7249
29534SOL    HW294439   0.686   3.275   7.322 -0.4554 -1.4504 -0.9806
29535SOL     OW94440   4.130   2.704   1.430 -0.4113  0.0633  0.2850
29535SOL    HW194441   4.211   2.681   1.385 -0.4785 -1.0507  0.7097
29535SOL    HW294442   4.061   2.687   1.367 -0.5165 -1.6291  0.8142
29536SOL     OW94443   0.261   8.524   4.327 -0.5461 -0.4950  0.0978
29536SOL    HW194444   0.281   8.456   4.263 -0.5681  1.1088 -1.6938
29536SOL    HW294445   0.183   8.567   4.294 -0.8683  0.0566  1.4918
29537SOL     OW94446   6.511   4.797   4.370 -0.2590 -1.1939 -0.5518
29537SOL    HW194447   6.583   4.735   4.383 -0.7003 -1.6835 -0.3836
29537SOL    HW294448   6.432   4.743   4.377 -0.6607 -0.5606 -0.0911
29538SOL     OW94449  10.705   9.147   4.148 -0.1942 -0.3506 -0.2648
29538SOL    HW194450  10.681   9.064   4.189 -0.1195  0.5661  1.7512
29538SOL    HW294451  10.634   9.164   4.086 -0.4881 -1.6437 -0.3249
29539SOL     OW94452  10.507   1.228   9.127  0.0387  0.2053 -0.2635
29539SOL    HW194453  10.441   1.220   9.058 -0.9149 -0.4498  0.6892
29539SOL    HW294454  10.587   1.252   9.080 -0.6682  0.1871 -1.5478
29540SOL     OW94455   5.976   4.833   5.424  0.1464 -0.1662  0.1288
29540SOL    HW194456   6.071   4.843   5.414  0.2797 -1.9371 -0.9218
29540SOL    HW294457   5.954   4.887   5.499  1.6754  1.8317 -0.7506
29541SOL     OW94458   5.823   3.209   4.907  0.6722  0.7415 -0.1541
29541SOL    HW194459   5.794   3.284   4.959 -0.9453  0.3014 -0.3682
29541SOL    HW294460   5.918   3.205   4.921  0.6785  2.3504  0.4699
29542SOL     OW94461  10.128   3.512   3.517 -0.0916 -0.1402 -0.2678
29542SOL    HW194462  10.059   3.576   3.503  0.3481  0.6467  0.9799
29542SOL    HW294463  10.082   3.429   3.529 -0.6686 -0.0709 -1.8661
29543SOL     OW94464   2.462   3.667   8.025  0.0473 -0.3419 -0.4095
29543SOL    HW194465   2.464   3.579   7.986  2.5538  0.4991 -2.4606
29543SOL    HW294466   2.450   3.725   7.950  2.0396  1.2270  0.4056
29544SOL     OW94467   4.466   8.531   5.818 -0.3874  0.8660 -0.6206
29544SOL    HW194468   4.501   8.576   5.895  0.1590  1.5547 -1.2609
29544SOL    HW294469   4.491   8.439   5.831 -1.6217  0.6946  0.7515
29545SOL     OW94470   1.670   1.355   7.265  0.0868 -0.3742 -0.5270
29545SOL    HW194471   1.696   1.311   7.346 -2.9638  2.4659  2.2911
29545SOL    HW294472   1.595   1.304   7.233  1.4851 -1.6819 -1.8945
29546SOL     OW94473   7.551   1.483   4.764 -1.1316  0.5606  0.2460
29546SOL    HW194474   7.616   1.544   4.729 -0.2501 -0.6261 -0.2689
29546SOL    HW294475   7.534   1.513   4.853  1.3243  0.0291  0.9812
29547SOL     OW94476   2.798   6.741  10.266  0.1836 -0.0627  0.4588
29547SOL    HW194477   2.707   6.770  10.269 -0.4424 -1.8180 -0.1613
29547SOL    HW294478   2.838   6.795  10.197 -1.1214 -1.0846 -1.1732
29548SOL     OW94479   1.111   1.772   8.831  0.3756  0.1834  0.5745
29548SOL    HW194480   1.108   1.772   8.927  2.0131 -0.7751  0.6585
29548SOL    HW294481   1.197   1.737   8.809 -0.9655 -2.3087 -1.2572
29549SOL     OW94482   2.752   1.372   8.512  0.6804 -0.1174  0.4585
29549SOL    HW194483   2.829   1.315   8.511 -0.7201 -2.2329  2.5152
29549SOL    HW294484   2.690   1.327   8.570 -2.3588  1.1546 -1.5487
29550SOL     OW94485  10.231   8.177   4.977 -0.0368  0.3759 -0.7634
29550SOL    HW194486  10.195   8.243   5.037  0.2000 -0.1555 -0.0239
29550SOL    HW294487  10.165   8.108   4.976 -0.0606  0.4017 -1.1645
29551SOL     OW94488   8.362   2.853  10.723  0.2288  0.1537 -0.2401
29551SOL    HW194489   8.275   2.894  10.731  0.6907  1.2971 -0.8756
29551SOL    HW294490   8.348   2.781  10.661  0.0570  1.4003 -1.7132
29552SOL     OW94491   0.847   1.137   7.106  0.3028 -0.6906  0.9800
29552SOL    HW194492   0.843   1.220   7.153 -1.0001 -0.2256  0.0999
29552SOL    HW294493   0.767   1.091   7.131  0.2765 -1.0260  0.3075
29553SOL     OW94494   1.303   1.986   7.574 -0.2283  0.1513 -0.1151
29553SOL    HW194495   1.220   1.955   7.609  0.1053 -1.6254 -0.8200
29553SOL    HW294496   1.289   2.080   7.559 -2.8540 -0.4410 -2.1952
29554SOL     OW94497   7.069   8.600   5.600  0.2422  0.0531 -0.2802
29554SOL    HW194498   7.016   8.676   5.578 -0.8302 -1.0335 -1.6559
29554SOL    HW294499   7.038   8.573   5.686  0.0786  0.6932 -0.1311
29555SOL     OW94500   9.434   6.253   8.095  0.4823 -0.1681 -0.1651
29555SOL    HW194501   9.529   6.266   8.092  0.3238  1.0630 -0.8718
29555SOL    HW294502   9.418   6.211   8.179  1.3895  2.4215  1.4459
29556SOL     OW94503   4.995  10.583   2.618  0.1156  0.5349 -0.0807
29556SOL    HW194504   5.055  10.561   2.689  0.1476  0.5092 -0.1159
29556SOL    HW294505   5.020  10.525   2.546 -1.0209 -0.6979  0.4534
29557SOL     OW94506   0.065   8.351   3.633 -0.0214 -0.2308  0.0920
29557SOL    HW194507   0.063   8.255   3.631 -2.6227 -0.2206 -1.8903
29557SOL    HW294508  -0.005   8.376   3.693  2.0867  0.5530  2.4402
29558SOL     OW94509   1.687   6.744  10.888  0.3709 -0.6190  0.1225
29558SOL    HW194510   1.646   6.688  10.821 -0.0855 -0.9702  0.6775
29558SOL    HW294511   1.615   6.797  10.921  0.4046 -1.0599  0.9330
29559SOL     OW94512   2.656   5.606   4.802  0.0741  0.0743 -0.1007
29559SOL    HW194513   2.595   5.541   4.837  0.7025 -0.2584  0.4074
29559SOL    HW294514   2.743   5.571   4.824  0.4218  1.4649  0.8536
29560SOL     OW94515   8.947   8.881   9.832 -0.5247  0.5365  0.3649
29560SOL    HW194516   8.875   8.926   9.876  0.2833  1.1989  1.0387
29560SOL    HW294517   9.015   8.871   9.899 -1.3465 -3.4805  0.8435
29561SOL     OW94518   0.112   5.442   0.719 -0.6584  0.0897  0.9053
29561SOL    HW194519   0.192   5.434   0.667  0.1295 -0.9446  2.1834
29561SOL    HW294520   0.119   5.527   0.762 -0.3680  0.1172  0.8037
29562SOL     OW94521   5.390   0.003   5.208  1.1251  0.3040  0.1092
29562SOL    HW194522   5.422  -0.086   5.217  1.0236  0.4373  2.4145
29562SOL    HW294523   5.404   0.024   5.116  1.0462 -2.1041 -0.5200
29563SOL     OW94524   4.485   1.761   1.221 -0.2057  0.6080  0.6037
29563SOL    HW194525   4.464   1.674   1.186 -0.3583  0.8995 -0.0595
29563SOL    HW294526   4.399   1.800   1.239 -0.1111 -0.0910  2.7612
29564SOL     OW94527   1.248   8.381   7.489  0.0820 -0.6452  0.1091
29564SOL    HW194528   1.298   8.394   7.409  1.4253 -1.1121  0.8343
29564SOL    HW294529   1.160   8.355   7.460  0.1223  0.6033 -1.2047
29565SOL     OW94530   2.961   7.720   6.059  0.3022  0.6552  0.2749
29565SOL    HW194531   2.969   7.783   5.987 -0.0881 -1.0976 -1.4051
29565SOL    HW294532   2.867   7.718   6.078  0.4563  1.4451  1.1833
29566SOL     OW94533   5.686   7.337   5.479  0.1190 -0.4506 -0.6104
29566SOL    HW194534   5.673   7.399   5.408  0.0841 -1.7448 -1.7933
29566SOL    HW294535   5.774   7.355   5.512  0.3074 -0.1205 -1.2914
29567SOL     OW94536   2.618   7.672   5.056  0.4699 -0.4332 -0.4981
29567SOL    HW194537   2.680   7.623   5.110 -0.4353 -1.7305 -0.5869
29567SOL    HW294538   2.547   7.694   5.116 -0.0352 -0.9440 -0.9010
29568SOL     OW94539   0.930   1.089  10.742 -0.5063 -0.4265  0.7858
29568SOL    HW194540   0.904   1.175  10.775  1.4834 -0.0111  1.3949
29568SOL    HW294541   0.910   1.029  10.814 -1.2131 -0.3795  0.6391
29569SOL     OW94542   8.470   1.056   9.947 -0.0440  0.6559 -0.0758
29569SOL    HW194543   8.507   1.087   9.864 -0.6017 -0.9309 -0.9483
29569SOL    HW294544   8.462   0.961   9.937 -1.1863  0.5542  1.3753
29570SOL     OW94545   0.161   5.957   5.220 -0.5278  0.0704 -0.3063
29570SOL    HW194546   0.105   6.027   5.186 -0.0845  0.2048 -0.7832
29570SOL    HW294547   0.126   5.938   5.307 -0.9056  0.6033 -0.3355
29571SOL     OW94548   2.739   2.421   3.609 -0.4045 -0.1108  0.5397
29571SOL    HW194549   2.716   2.509   3.579  0.4104  0.1299  0.5896
29571SOL    HW294550   2.752   2.431   3.703  1.8989  0.2410  0.2441
29572SOL     OW94551  10.719   7.892   2.053 -0.4099 -0.4787 -0.3700
29572SOL    HW194552  10.692   7.977   2.021  0.3362 -0.1979 -0.2821
29572SOL    HW294553  10.751   7.846   1.976  2.6102  0.6654  0.0410
29573SOL     OW94554   4.872   5.167   7.036 -0.0040 -0.5005  0.1857
29573SOL    HW194555   4.855   5.179   6.943  1.5372 -3.1101 -0.5539
29573SOL    HW294556   4.870   5.072   7.048 -0.1905 -0.2394  2.8514
29574SOL     OW94557   2.073   0.921   0.999  0.0810  0.0653 -0.0498
29574SOL    HW194558   2.119   0.973   0.932  0.0132  0.6608  0.3576
29574SOL    HW294559   1.982   0.920   0.969  0.0732  0.2264 -0.0317
29575SOL     OW94560   9.629   0.772   8.430  0.0583  0.1732  0.1684
29575SOL    HW194561   9.681   0.698   8.460 -1.1890 -0.7788  0.0673
29575SOL    HW294562   9.691   0.845   8.426  1.6220 -1.1218 -0.8921
29576SOL     OW94563   1.085   5.872   5.328  0.2704  0.0443 -0.0313
29576SOL    HW194564   1.011   5.814   5.345 -0.4672  0.3786 -1.8356
29576SOL    HW294565   1.080   5.938   5.397 -1.3509  0.2682 -0.3112
29577SOL     OW94566   2.528   2.799   0.987  0.0708 -0.1004  0.0312
29577SOL    HW194567   2.433   2.788   0.991  0.1388 -0.4382  2.4265
29577SOL    HW294568   2.546   2.874   1.043  1.2083  0.2383 -0.7492
29578SOL     OW94569   4.605   1.504   0.314 -0.0023  0.5941  0.1887
29578SOL    HW194570   4.687   1.480   0.358  0.2913  0.6412 -0.3334
29578SOL    HW294571   4.622   1.592   0.279  0.0028  0.2741 -0.6201
29579SOL     OW94572   1.820   1.953   3.087  1.0413 -0.2108  0.2850
29579SOL    HW194573   1.803   2.047   3.099  1.7513  0.2130 -1.6464
29579SOL    HW294574   1.743   1.910   3.124  0.5069  1.1607  0.8395
29580SOL     OW94575   2.683   6.738   5.024  0.1486  0.3982  0.4405
29580SOL    HW194576   2.665   6.747   4.930  0.5426  1.8576  0.4936
29580SOL    HW294577   2.616   6.677   5.055 -0.5839  0.6425 -0.6014
29581SOL     OW94578  10.308   0.865   4.761 -0.4822  0.1559 -0.0957
29581SOL    HW194579  10.346   0.931   4.819  0.7508 -1.3483  0.8705
29581SOL    HW294580  10.281   0.795   4.820 -1.7652 -0.2436 -1.1108
29582SOL     OW94581  10.375   7.285  10.602 -0.1749  1.1422  0.4040
29582SOL    HW194582  10.414   7.359  10.649 -2.2895  1.6232  1.4905
29582SOL    HW294583  10.289   7.274  10.641 -0.2801 -1.3332 -0.3802
29583SOL     OW94584   2.487   9.772   0.798 -0.1004 -0.2563  0.0055
29583SOL    HW194585   2.441   9.791   0.880  1.3464  1.4854  0.4885
29583SOL    HW294586   2.521   9.857   0.770  1.1097 -1.1495 -1.3731
29584SOL     OW94587   5.081   6.788   7.739 -0.4402  0.2520  0.1532
29584SOL    HW194588   5.023   6.712   7.734  1.2557 -1.1084  0.0077
29584SOL    HW294589   5.041   6.853   7.681  0.0447 -1.9786 -2.9683
29585SOL     OW94590   4.937   7.747   3.458 -0.0228  0.1781  0.7566
29585SOL    HW194591   4.970   7.748   3.548 -0.6531 -0.3384  0.9982
29585SOL    HW294592   4.975   7.668   3.419 -0.6875 -0.2376  0.9350
29586SOL     OW94593   6.526   8.950   8.602  0.1699 -0.0667  0.0433
29586SOL    HW194594   6.484   8.872   8.640  0.9738  0.1910  1.5255
29586SOL    HW294595   6.599   8.969   8.661  1.1391  0.7089 -1.3431
29587SOL     OW94596   6.493   2.185   8.276  0.1431 -0.2136 -0.2625
29587SOL    HW194597   6.490   2.272   8.236  1.5306 -0.1578 -0.2640
29587SOL    HW294598   6.439   2.131   8.218  0.0728  0.4261 -0.8078
29588SOL     OW94599   2.522   3.014   2.830  0.4568 -0.0595 -0.6977
29588SOL    HW194600   2.614   3.030   2.850  0.1925  0.4173  0.1961
29588SOL    HW294601   2.484   2.986   2.914 -0.7578  2.2973 -0.3740
29589SOL     OW94602   9.712   4.472   4.839 -0.4983  0.5302 -0.1835
29589SOL    HW194603   9.620   4.486   4.814  0.1771  1.7830 -2.2961
29589SOL    HW294604   9.749   4.424   4.765  0.3454 -0.8298  1.0927
29590SOL     OW94605   9.735   4.788   7.667 -0.4569  0.8173  0.1086
29590SOL    HW194606   9.724   4.765   7.575 -0.8514  1.1328  0.0704
29590SOL    HW294607   9.655   4.754   7.709  0.9977 -1.9347  0.8685
29591SOL     OW94608   5.246   0.414  10.180 -0.0290  0.1853  0.3036
29591SOL    HW194609   5.165   0.362  10.186 -0.0169 -0.5114 -3.3574
29591SOL    HW294610   5.239   0.460  10.097  1.8182  3.0171  1.5600
29592SOL     OW94611   4.719   2.222   6.893 -0.1559 -0.3450 -0.0890
29592SOL    HW194612   4.807   2.194   6.868 -0.8102 -1.0212 -1.7579
29592SOL    HW294613   4.733   2.305   6.940  1.5378 -1.7139  1.9904
29593SOL     OW94614   3.600   0.538   1.207  0.0293 -0.7148 -0.1554
29593SOL    HW194615   3.653   0.531   1.128  0.3333  1.5577 -0.2240
29593SOL    HW294616   3.524   0.590   1.180 -0.6950 -1.3152  0.6720
29594SOL     OW94617   1.034   8.466  10.035  0.4405  0.6120 -0.0466
29594SOL    HW194618   1.120   8.504  10.049  1.7087 -0.9909 -2.6612
29594SOL    HW294619   1.052   8.374  10.013 -1.7916  0.5107 -1.8464
29595SOL     OW94620  10.333   8.903   2.984  0.2988  0.0893 -0.0174
29595SOL    HW194621  10.328   8.964   2.911  0.6534 -0.4112 -0.4706
29595SOL    HW294622  10.411   8.850   2.966  0.6032  0.1985  0.9161
29596SOL     OW94623   2.629   1.105   1.786 -0.0667  0.3232  0.1906
29596SOL    HW194624   2.676   1.175   1.741 -1.1945  0.0288 -1.5329
29596SOL    HW294625   2.551   1.147   1.822 -0.1847  0.1654  0.1214
29597SOL     OW94626   6.195   6.950   7.539  0.1892  0.2448 -0.2422
29597SOL    HW194627   6.169   6.995   7.619 -0.6123  1.8065 -1.3266
29597SOL    HW294628   6.176   6.858   7.556 -1.0926  0.6954  0.9304
29598SOL     OW94629   8.974  10.532   3.706 -0.2075 -0.0017 -0.1700
29598SOL    HW194630   8.982  10.443   3.739 -0.8612 -0.6052 -1.5408
29598SOL    HW294631   9.064  10.563   3.697  0.0176 -0.4439  0.5079
29599SOL     OW94632   8.705   4.067   1.866 -0.1694 -0.4481 -0.6297
29599SOL    HW194633   8.627   4.120   1.847  0.1876  0.3109 -0.0150
29599SOL    HW294634   8.761   4.079   1.789  0.8115  1.7712  0.3203
29600SOL     OW94635  10.651   8.377   1.386  0.1362  0.5944 -0.5509
29600SOL    HW194636  10.632   8.470   1.395  1.6678  0.9710 -0.8669
29600SOL    HW294637  10.718   8.359   1.452 -1.8306 -0.8815  1.1768
29601SOL     OW94638   7.939   8.920   1.043 -0.2208 -0.1016 -0.0663
29601SOL    HW194639   7.876   8.863   0.999  0.7991 -0.2338 -1.3927
29601SOL    HW294640   7.985   8.861   1.103  1.0382 -0.8045 -1.6479
29602SOL     OW94641   4.190  10.758   9.659  0.7100  0.4732  0.2909
29602SOL    HW194642   4.255  10.803   9.606 -0.6922  0.0500 -1.9040
29602SOL    HW294643   4.155  10.826   9.717  1.0548  1.3676 -0.5405
29603SOL     OW94644   2.987   8.396   5.081  0.0387  0.5708  0.2534
29603SOL    HW194645   3.062   8.379   5.024 -1.3335 -2.6804 -0.8257
29603SOL    HW294646   2.923   8.440   5.025  0.4047  1.6395  0.6515
29604SOL     OW94647   2.817   1.512   4.292 -0.4620  0.5933  0.3157
29604SOL    HW194648   2.812   1.603   4.322  2.9339  0.8063  0.6993
29604SOL    HW294649   2.882   1.515   4.222 -1.1868 -1.3903 -0.4821
29605SOL     OW94650  10.689   9.869   4.596  0.9128 -0.7320  0.1691
29605SOL    HW194651  10.678   9.850   4.689  0.5362 -1.1812  0.0326
29605SOL    HW294652  10.768   9.923   4.593  0.6364 -0.2710  0.8029
29606SOL     OW94653   5.488   7.374   6.603 -0.0106  0.4606  0.3939
29606SOL    HW194654   5.402   7.367   6.646 -0.3230  2.5895  0.2420
29606SOL    HW294655   5.550   7.384   6.676  0.1252 -0.9479  0.4985
29607SOL     OW94656   8.861   5.414   5.901 -0.0775 -0.3615 -0.1732
29607SOL    HW194657   8.807   5.452   5.831  0.8404  3.0660  0.8229
29607SOL    HW294658   8.929   5.365   5.855 -1.4675 -1.0972 -1.5442
29608SOL     OW94659   6.384   9.854   0.485 -0.0243 -0.1065 -0.1715
29608SOL    HW194660   6.393   9.932   0.539 -0.5293 -0.0775 -0.1204
29608SOL    HW294661   6.338   9.791   0.541 -0.1674 -0.2253 -0.4186
29609SOL     OW94662   4.742   2.616   6.174  0.5030  0.2311 -0.0756
29609SOL    HW194663   4.696   2.569   6.104  0.0007 -1.6912  1.4581
29609SOL    HW294664   4.801   2.675   6.128  0.0302 -0.7923 -2.1179
29610SOL     OW94665   4.976  10.086   5.110  0.6263  0.2576  0.4390
29610SOL    HW194666   4.911  10.156   5.102  1.2491  0.9340  1.1693
29610SOL    HW294667   4.983  10.071   5.205  0.0344 -1.2462  0.2718
29611SOL     OW94668   0.012   1.693   1.651 -0.2746  0.0988  0.6831
29611SOL    HW194669   0.059   1.627   1.600 -0.6634 -1.5235  2.3111
29611SOL    HW294670   0.038   1.676   1.742  2.1121  4.2523  0.9981
29612SOL     OW94671  10.745   8.918  10.516  0.6195  0.0896  0.1272
29612SOL    HW194672  10.694   8.933  10.436 -0.9754  0.3222  1.1541
29612SOL    HW294673  10.821   8.869  10.486  0.4699  0.8505 -1.6598
29613SOL     OW94674   4.827   0.852   2.463  0.2392 -0.4175 -0.1486
29613SOL    HW194675   4.912   0.808   2.473  0.4472  0.2392  1.1079
29613SOL    HW294676   4.802   0.876   2.552 -1.6023 -1.1999 -0.4104
29614SOL     OW94677   5.144   6.588   5.796 -0.1433 -0.0204 -0.6151
29614SOL    HW194678   5.108   6.647   5.862  0.4296  0.5083 -0.7647
29614SOL    HW294679   5.092   6.508   5.805 -1.2865  0.6775 -0.7620
29615SOL     OW94680   2.670   6.194   7.933  0.8151 -0.4727 -0.1162
29615SOL    HW194681   2.726   6.118   7.950  1.9479 -0.0302 -1.7268
29615SOL    HW294682   2.722   6.269   7.960  0.7734 -0.0997 -1.0369
29616SOL     OW94683   8.194   9.109  10.361 -0.0266 -0.9204  0.6756
29616SOL    HW194684   8.282   9.136  10.388 -0.7821 -1.1385  3.7097
29616SOL    HW294685   8.155   9.187  10.322  0.9180 -0.3543  0.8307
29617SOL     OW94686   1.748   9.398   7.829  0.4291 -0.8835  0.1908
29617SOL    HW194687   1.710   9.478   7.791  3.4283  0.4583 -0.3333
29617SOL    HW294688   1.718   9.398   7.920 -1.0644 -0.1612 -0.2675
29618SOL     OW94689   1.013   7.133   0.672 -0.7256  1.0427  0.9012
29618SOL    HW194690   1.026   7.038   0.671 -0.5442  1.0659  0.0278
29618SOL    HW294691   1.056   7.163   0.591  1.4261  2.1487  2.3481
29619SOL     OW94692   0.932   0.589   3.841 -0.4172 -0.1273  0.4503
29619SOL    HW194693   0.864   0.564   3.904 -0.2510 -0.5617  0.4638
29619SOL    HW294694   0.957   0.506   3.800 -1.8846  0.3376 -1.5706
29620SOL     OW94695   8.939  10.200   8.029  0.0817 -0.4136 -0.4566
29620SOL    HW194696   8.898  10.252   8.098  0.1876 -0.3221 -0.4617
29620SOL    HW294697   8.881  10.210   7.954 -0.0397 -0.5234 -0.3765
29621SOL     OW94698  10.129   6.050   3.721 -0.2514 -0.6945 -0.0507
29621SOL    HW194699  10.180   6.025   3.798 -1.3309 -0.0927  0.8938
29621SOL    HW294700  10.059   6.105   3.756 -0.7901 -0.4432 -1.4692
29622SOL     OW94701   9.023   4.004   6.836  0.0148 -0.0151 -0.4775
29622SOL    HW194702   9.025   4.094   6.868 -3.6435  0.4110 -1.0489
29622SOL    HW294703   9.106   3.993   6.790  0.1300  3.4303 -1.3259
29623SOL     OW94704   2.970   5.448   3.531  0.1343 -0.1342 -0.1723
29623SOL    HW194705   2.889   5.498   3.538  0.1354 -0.2314  0.5990
29623SOL    HW294706   3.015   5.485   3.455 -0.8384 -0.3792 -0.8860
29624SOL     OW94707   8.235   4.225   7.951 -0.5204 -0.1717  0.1550
29624SOL    HW194708   8.188   4.213   7.869  0.4971  2.1260 -0.8795
29624SOL    HW294709   8.219   4.317   7.974  1.7184  0.1107  0.8407
29625SOL     OW94710   6.366   6.543   3.732 -0.5217  0.2329  0.4554
29625SOL    HW194711   6.288   6.521   3.681 -0.1852 -1.1411  0.4962
29625SOL    HW294712   6.413   6.461   3.740  0.8312  0.9979  0.6283
29626SOL     OW94713   8.595   5.627   0.274  0.7018 -0.1250 -0.5660
29626SOL    HW194714   8.513   5.640   0.321  1.3271  0.6960  0.3342
29626SOL    HW294715   8.627   5.715   0.257  0.9942 -0.4296 -1.6555
29627SOL     OW94716   9.472   5.200   4.187  0.2280  0.1484  0.1921
29627SOL    HW194717   9.402   5.243   4.138 -1.4658 -1.9700  0.5931
29627SOL    HW294718   9.545   5.261   4.182 -0.2664  0.7140 -3.7361
29628SOL     OW94719   9.889   8.871   5.826  0.3540  0.3514 -0.5702
29628SOL    HW194720   9.984   8.860   5.825  0.2274 -1.2836  0.6870
29628SOL    HW294721   9.865   8.880   5.734  1.6145 -0.4849 -1.0154
29629SOL     OW94722   5.234   6.592   1.607  0.3794  0.0853  0.6155
29629SOL    HW194723   5.302   6.615   1.670 -0.9205 -0.8841  2.4485
29629SOL    HW294724   5.266   6.627   1.523  3.0822 -0.2926  1.4027
29630SOL     OW94725   9.856   2.701   0.769  0.2972  0.0432 -0.2716
29630SOL    HW194726   9.938   2.677   0.725 -0.0142 -1.4712 -0.0835
29630SOL    HW294727   9.817   2.768   0.712  1.2149  0.0956 -0.8600
29631SOL     OW94728   1.876   0.666   2.334 -0.0233  0.4605 -0.3624
29631SOL    HW194729   1.933   0.591   2.348  1.5289  1.3521 -1.4485
29631SOL    HW294730   1.878   0.714   2.417 -0.8274 -0.5405  0.2518
29632SOL     OW94731   9.046   0.618   6.071  0.4038 -0.0215  0.0516
29632SOL    HW194732   8.978   0.551   6.061  1.2082 -0.7715 -0.5958
29632SOL    HW294733   9.059   0.625   6.165  0.3399 -0.8286  0.1311
29633SOL     OW94734   5.757  10.181   9.805 -0.3392  0.4456 -0.1825
29633SOL    HW194735   5.750  10.262   9.856 -0.6461  1.0887 -1.2231
29633SOL    HW294736   5.843  10.147   9.828 -1.0408 -0.0799  1.8993
29634SOL     OW94737   1.362   1.694   9.804  0.4801 -0.7522  0.4311
29634SOL    HW194738   1.324   1.624   9.858 -0.3504  0.0774  0.9576
29634SOL    HW294739   1.456   1.681   9.810  0.3461 -1.5348  0.9215
29635SOL     OW94740   3.480   5.025   7.694 -0.3271 -0.4999 -0.5000
29635SOL    HW194741   3.488   5.091   7.625 -0.3578 -1.1005 -1.0907
29635SOL    HW294742   3.400   5.049   7.741  0.1099  0.3668 -0.1774
29636SOL     OW94743   2.733   4.814   0.685 -0.0687  0.3408  0.1403
29636SOL    HW194744   2.730   4.894   0.633 -0.8075 -1.3795 -2.6880
29636SOL    HW294745   2.826   4.800   0.702  0.3824  0.1619 -2.1782
29637SOL     OW94746  10.227   4.036   1.889 -0.0004 -0.4203  0.1891
29637SOL    HW194747  10.165   3.995   1.950  0.4160 -0.7655  0.3888
29637SOL    HW294748  10.313   4.024   1.931  0.0121  1.9377  0.9692
29638SOL     OW94749   7.894   1.501   8.360  0.3209 -0.3075  0.4786
29638SOL    HW194750   7.891   1.415   8.317 -0.0606 -1.1394  2.0863
29638SOL    HW294751   7.983   1.532   8.345  0.7901 -1.4648  0.7674
29639SOL     OW94752   5.611   8.029   0.852 -0.0138 -0.0691  0.3734
29639SOL    HW194753   5.665   7.978   0.912  0.0848 -2.3125 -1.4913
29639SOL    HW294754   5.674   8.082   0.802  0.3425 -1.2580 -0.4898
29640SOL     OW94755  10.434   7.821   2.668  0.1648 -0.0269 -0.4189
29640SOL    HW194756  10.510   7.813   2.611  1.1841  0.2763  0.8618
29640SOL    HW294757  10.366   7.858   2.612  1.1658  0.3603 -1.4086
29641SOL     OW94758   0.412   1.456   1.507  0.5966 -0.4345 -0.1932
29641SOL    HW194759   0.472   1.382   1.501  2.1341  0.8557 -3.3130
29641SOL    HW294760   0.369   1.458   1.422 -0.2014  1.5780  0.2063
29642SOL     OW94761   2.082   1.584   1.392  0.0260  0.1058  0.3410
29642SOL    HW194762   1.994   1.547   1.393 -0.2952  0.8133  1.9472
29642SOL    HW294763   2.100   1.603   1.300 -1.7241  0.4894  0.0472
29643SOL     OW94764   2.767   1.554   0.161  0.8224  0.2258  0.2488
29643SOL    HW194765   2.857   1.565   0.192  1.7878 -3.4604 -0.7592
29643SOL    HW294766   2.724   1.504   0.230  0.5081 -0.7114 -0.6049
29644SOL     OW94767   9.409  10.779   6.228 -0.7264 -0.4213 -0.3247
29644SOL    HW194768   9.389  10.845   6.162  0.8076 -1.9421 -2.4714
29644SOL    HW294769   9.343  10.711   6.214 -1.8836  0.2809  1.4149
29645SOL     OW94770   9.963   2.351   6.751  0.0946  0.2013 -0.3636
29645SOL    HW194771   9.901   2.404   6.700  1.2071  1.2697 -0.6617
29645SOL    HW294772   9.907   2.297   6.807 -1.1305  0.1760 -1.5388
29646SOL     OW94773   8.394   9.006   6.527 -0.7110  0.6238  0.3373
29646SOL    HW194774   8.467   8.948   6.549  0.5598  2.2342  0.5354
29646SOL    HW294775   8.330   8.949   6.484  0.2746 -1.0014  0.9537
29647SOL     OW94776   3.568   2.751   3.903  0.1048 -0.3823  0.1174
29647SOL    HW194777   3.508   2.799   3.847 -0.2586 -0.7365  0.1934
29647SOL    HW294778   3.650   2.749   3.855 -0.1412 -0.4893 -0.3041
29648SOL     OW94779   7.991  10.275   9.666  0.1076 -0.2104 -0.3060
29648SOL    HW194780   8.009  10.257   9.574 -0.9222  1.1937 -0.8083
29648SOL    HW294781   7.896  10.279   9.672  0.1713  2.1562  0.2658
29649SOL     OW94782   1.853   7.434   8.108 -0.1703  0.0583  0.2629
29649SOL    HW194783   1.844   7.338   8.102 -1.0356  0.1989 -1.1360
29649SOL    HW294784   1.763   7.466   8.111  0.0139  0.9495 -2.0916
29650SOL     OW94785   4.538   9.651  10.423  0.1351 -0.1933 -0.1628
29650SOL    HW194786   4.452   9.610  10.425  0.4043 -0.9399 -1.9676
29650SOL    HW294787   4.569   9.638  10.333  2.6042 -0.9267  0.7107
29651SOL     OW94788   5.620   4.568   9.751  0.5839 -0.2277  0.6766
29651SOL    HW194789   5.576   4.636   9.802 -2.2186 -2.1123  0.9827
29651SOL    HW294790   5.693   4.540   9.806  1.9195  2.4778  0.4851
29652SOL     OW94791   7.583   9.030   7.209 -0.2817  0.4873  0.0613
29652SOL    HW194792   7.541   8.950   7.244 -0.8064  0.6316 -0.2345
29652SOL    HW294793   7.540   9.101   7.256 -1.8285  0.7666 -1.6514
29653SOL     OW94794   0.543   3.416   8.444  0.1089 -0.2068  0.1325
29653SOL    HW194795   0.596   3.443   8.519  0.1720  1.8690 -0.6005
29653SOL    HW294796   0.605   3.375   8.385  0.1285 -1.5125  1.0234
29654SOL     OW94797   5.651   6.408   7.285  0.5677 -0.3777 -0.0749
29654SOL    HW194798   5.689   6.438   7.367  0.5861 -1.5732  0.3748
29654SOL    HW294799   5.556   6.415   7.299  0.5572 -1.0291  0.2466
29655SOL     OW94800   1.718   2.271   9.039  0.3068 -0.0414  0.2454
29655SOL    HW194801   1.671   2.280   9.122 -0.6379 -0.6759 -0.1896
29655SOL    HW294802   1.704   2.354   8.995 -0.2739 -0.1546  0.2015
29656SOL     OW94803   0.612   2.279   2.191  0.3180 -0.4778  0.6005
29656SOL    HW194804   0.571   2.243   2.270  2.1429 -1.8679  0.9875
29656SOL    HW294805   0.618   2.204   2.132  1.2408 -0.0269  0.1139
29657SOL     OW94806  10.629   8.233   6.763 -0.2817 -0.0136  0.2186
29657SOL    HW194807  10.638   8.328   6.752  0.9747 -0.1943 -0.5714
29657SOL    HW294808  10.548   8.222   6.812 -1.2668  1.3798 -1.0161
29658SOL     OW94809   5.708   9.085   8.600 -0.2278 -0.1310  0.2632
29658SOL    HW194810   5.706   9.146   8.526  1.0357  0.8081  0.9451
29658SOL    HW294811   5.641   9.020   8.581  0.6575 -0.4220 -2.1353
29659SOL     OW94812   9.158   3.756   5.739  0.2008  0.0358  0.8395
29659SOL    HW194813   9.203   3.679   5.703  0.1395  0.2353  0.3244
29659SOL    HW294814   9.091   3.777   5.674  1.4842  1.7186 -0.0323
29660SOL     OW94815   5.165   5.763   0.034  0.3554 -0.4392 -0.0916
29660SOL    HW194816   5.078   5.730   0.010  0.3429 -0.8750  0.5374
29660SOL    HW294817   5.151   5.808   0.117  0.3294  1.3574 -1.0146
29661SOL     OW94818   2.866   7.391   3.509  0.0603 -0.0524  0.1088
29661SOL    HW194819   2.851   7.483   3.484  0.5360 -0.0819 -0.2974
29661SOL    HW294820   2.831   7.385   3.598 -1.5887  0.0853 -0.4878
29662SOL     OW94821   5.001   8.007   3.812 -0.0774 -0.1910 -0.2964
29662SOL    HW194822   4.990   7.915   3.790 -1.0941 -0.7156  2.0286
29662SOL    HW294823   5.056   8.007   3.890 -0.1173  1.1537 -0.2383
29663SOL     OW94824   8.068   9.738   0.103  0.1716  0.0457  0.3573
29663SOL    HW194825   8.016   9.721   0.025 -1.8882 -1.8025  2.0237
29663SOL    HW294826   8.107   9.825   0.088  0.0027 -0.3185 -2.7335
29664SOL     OW94827   3.467   0.066   3.184  0.7804  0.3975 -0.3275
29664SOL    HW194828   3.485   0.033   3.272 -0.7586  0.2260 -0.0529
29664SOL    HW294829   3.377   0.097   3.188  1.7943  3.8367 -0.8350
29665SOL     OW94830   5.984   5.694   7.448  0.0976  0.1004 -0.2128
29665SOL    HW194831   5.945   5.712   7.533 -0.7680  0.3947 -0.6612
29665SOL    HW294832   5.962   5.770   7.394  2.5340  0.9947 -0.0978
29666SOL     OW94833   3.561   0.535   4.375 -0.1688 -0.5597 -0.2381
29666SOL    HW194834   3.518   0.465   4.325  3.1549 -1.3378 -2.3442
29666SOL    HW294835   3.574   0.605   4.311 -1.3393  1.0993  1.2548
29667SOL     OW94836   5.237   0.623   2.096  0.5164 -0.5927  0.0964
29667SOL    HW194837   5.155   0.607   2.144  1.3994 -0.2269  1.8192
29667SOL    HW294838   5.234   0.716   2.075  1.6115  0.0689  2.5266
29668SOL     OW94839   9.317   8.268   2.906  0.1581  0.4173 -0.3282
29668SOL    HW194840   9.340   8.350   2.949 -0.6615  0.9550 -0.8974
29668SOL    HW294841   9.299   8.208   2.978  1.4434  0.5142  0.1039
29669SOL     OW94842   1.389   1.085   3.022  0.9257  0.0372  0.4455
29669SOL    HW194843   1.353   1.057   2.938 -1.5922 -0.2264  1.5452
29669SOL    HW294844   1.359   1.176   3.032  2.1555  0.4511  0.5986
29670SOL     OW94845   0.751   7.943   1.483  0.1182  0.1488 -0.3990
29670SOL    HW194846   0.798   7.866   1.450 -1.0645 -1.6832  1.8804
29670SOL    HW294847   0.680   7.906   1.537  0.5971  2.7919  2.3090
29671SOL     OW94848   4.413   6.706   6.582 -0.2351 -0.1411 -0.3373
29671SOL    HW194849   4.466   6.742   6.654 -1.1645  0.9047 -0.1541
29671SOL    HW294850   4.447   6.618   6.570  1.3714  0.4076 -0.0479
29672SOL     OW94851   8.103   1.730   4.936  0.3200 -0.1681  0.1475
29672SOL    HW194852   8.111   1.687   5.020  1.0661 -0.9321 -0.3020
29672SOL    HW294853   8.011   1.755   4.930  0.4869  0.9537  1.6804
29673SOL     OW94854   2.388   6.874   8.538 -0.0811 -0.2254 -0.1303
29673SOL    HW194855   2.339   6.822   8.474 -0.1821  1.5624 -1.6064
29673SOL    HW294856   2.473   6.887   8.497 -0.8769  2.8543 -1.0820
29674SOL     OW94857   1.423   1.919   5.435  0.1673 -0.8146  0.3537
29674SOL    HW194858   1.457   1.936   5.523  0.0444  1.5362  0.0252
29674SOL    HW294859   1.353   1.984   5.424  0.3297 -0.9126 -1.5423
29675SOL     OW94860   5.933   3.396   9.161 -0.5400 -0.2112 -0.2233
29675SOL    HW194861   5.918   3.309   9.124  1.6230  0.0124 -1.8466
29675SOL    HW294862   5.972   3.379   9.247  0.4761 -0.9011 -0.7955
29676SOL     OW94863  10.827   3.625   1.857  0.6149  0.6058 -0.1896
29676SOL    HW194864  10.752   3.615   1.798  0.4925  0.0809  0.0525
29676SOL    HW294865  10.901   3.587   1.809  0.8450  1.5818 -0.6410
29677SOL     OW94866   2.949   3.455   5.171 -0.1305 -0.0527  0.0565
29677SOL    HW194867   3.041   3.481   5.169 -0.7414  2.5657  1.5035
29677SOL    HW294868   2.915   3.480   5.085  0.9109 -3.2415 -1.4430
29678SOL     OW94869   8.162   0.178   4.060 -0.4419  0.3711 -1.0409
29678SOL    HW194870   8.126   0.239   4.124 -1.0208 -1.3712  0.3731
29678SOL    HW294871   8.120   0.095   4.080  3.6499 -1.6890  0.2320
29679SOL     OW94872   2.011   7.439   7.011  0.3540 -0.2286  0.6025
29679SOL    HW194873   1.950   7.366   7.026  0.3498  0.0448  2.1192
29679SOL    HW294874   2.090   7.413   7.059  0.6541  0.3898  0.4445
29680SOL     OW94875   8.826   1.543   4.043 -0.1839 -0.2909  0.1508
29680SOL    HW194876   8.830   1.630   4.003 -0.3631  0.4524  1.6681
29680SOL    HW294877   8.908   1.500   4.018 -0.4283  0.0159 -1.2318
29681SOL     OW94878   7.737   3.170  10.041 -0.4937 -0.1808  0.0455
29681SOL    HW194879   7.668   3.137  10.099  1.8713 -0.2923  3.0483
29681SOL    HW294880   7.729   3.265  10.045 -1.0468 -0.2081 -0.3778
29682SOL     OW94881   8.225   8.392   6.018  0.1761  0.2527 -0.6401
29682SOL    HW194882   8.209   8.298   6.019  4.1488 -0.5945  0.6058
29682SOL    HW294883   8.264   8.408   5.932  1.1080  0.3705 -0.2076
29683SOL     OW94884   0.114   8.776   4.700 -0.6038 -0.2711 -0.4227
29683SOL    HW194885   0.066   8.730   4.769  0.3271 -0.2515  0.2546
29683SOL    HW294886   0.148   8.706   4.644 -1.0689 -0.2988 -0.6821
29684SOL     OW94887   4.361   6.466   4.095 -0.3726  0.1781 -0.3788
29684SOL    HW194888   4.435   6.406   4.085 -1.1639 -0.8258 -0.3305
29684SOL    HW294889   4.377   6.509   4.179 -0.4510 -0.9320  0.2321
29685SOL     OW94890   9.167   2.499   2.344 -0.4027 -0.3080  0.0948
29685SOL    HW194891   9.163   2.488   2.249 -0.8567 -1.4895  0.2328
29685SOL    HW294892   9.076   2.515   2.370 -0.2226  0.4057  0.2909
29686SOL     OW94893   0.744   9.400   8.637 -0.5817 -0.5091 -0.0604
29686SOL    HW194894   0.795   9.477   8.611  0.2297 -1.0741 -0.1729
29686SOL    HW294895   0.702   9.372   8.556 -2.1196  0.6866  0.2668
29687SOL     OW94896   8.536   2.001   7.697 -0.4099 -0.8882  0.4268
29687SOL    HW194897   8.589   1.934   7.653 -0.3361 -0.5528  0.0087
29687SOL    HW294898   8.451   1.959   7.709 -0.3936 -1.0253  0.0751
29688SOL     OW94899   6.284   4.101   1.866  0.0270  0.5012  0.5629
29688SOL    HW194900   6.263   4.008   1.855 -0.3890  0.7072 -0.4494
29688SOL    HW294901   6.314   4.129   1.780  0.6864  1.1800  1.0056
29689SOL     OW94902   9.974   6.806   1.131  0.8895  0.2001  0.3454
29689SOL    HW194903  10.052   6.753   1.118  0.6283 -0.3209  0.8696
29689SOL    HW294904   9.905   6.760   1.084  1.2479  1.6302 -1.7213
29690SOL     OW94905   7.129   5.198   1.133  0.0129  0.4036 -0.5637
29690SOL    HW194906   7.056   5.238   1.086  0.5167  0.2862 -1.4647
29690SOL    HW294907   7.120   5.104   1.117  1.3549  0.4977 -2.2110
29691SOL     OW94908   0.479   1.813   2.920 -0.3353 -0.0803  0.0759
29691SOL    HW194909   0.503   1.755   2.992 -0.6003  0.3079  0.4797
29691SOL    HW294910   0.386   1.832   2.935  0.4787  3.1461  1.8956
29692SOL     OW94911   5.466   4.051   9.593  0.5465 -0.3166 -0.6928
29692SOL    HW194912   5.503   3.972   9.553  1.7406 -0.4353  0.5482
29692SOL    HW294913   5.541   4.093   9.635 -0.1848  1.1746 -0.8295
29693SOL     OW94914   4.745   2.697  10.611  0.0341 -0.4101 -0.4656
29693SOL    HW194915   4.826   2.742  10.586  0.2985 -0.9026 -0.4936
29693SOL    HW294916   4.739   2.623  10.551 -1.9649  1.2199 -2.4498
29694SOL     OW94917   2.315   3.547  10.437 -0.3495 -0.3952  0.0903
29694SOL    HW194918   2.351   3.619  10.386  0.7435 -1.6839 -1.0291
29694SOL    HW294919   2.337   3.568  10.528  0.9908  0.1017 -0.3325
29695SOL     OW94920   8.958   4.285   7.166 -0.3919  0.1778  0.0589
29695SOL    HW194921   8.936   4.247   7.251  1.9761  0.8645  1.0868
29695SOL    HW294922   8.901   4.241   7.103 -1.2960 -1.3059  1.8422
29696SOL     OW94923   4.548   2.853   9.461 -0.3900 -0.5232  0.3175
29696SOL    HW194924   4.488   2.814   9.398  0.7457 -0.9841 -0.5076
29696SOL    HW294925   4.601   2.780   9.494  0.8898  0.0939 -0.2791
29697SOL     OW94926   2.182   4.241   3.787 -0.6372  0.0000 -0.0320
29697SOL    HW194927   2.183   4.155   3.828 -0.5631 -0.0101 -0.0551
29697SOL    HW294928   2.266   4.280   3.812  0.1197 -0.6086 -1.4619
29698SOL     OW94929   4.483   1.887   2.210  0.4131 -0.1389  0.2429
29698SOL    HW194930   4.410   1.913   2.265  1.3116  2.3354  0.3562
29698SOL    HW294931   4.562   1.910   2.260  1.2664 -0.1677 -1.0275
29699SOL     OW94932   4.691   7.897  10.255 -0.2676 -0.4550  0.1449
29699SOL    HW194933   4.754   7.830  10.229  0.3990 -0.0167  0.6048
29699SOL    HW294934   4.742   7.959  10.306 -0.7917  0.6203 -0.6122
29700SOL     OW94935   1.545   6.715   5.541  0.3146  0.3462  0.1956
29700SOL    HW194936   1.587   6.759   5.615 -0.2283 -0.2103  0.8495
29700SOL    HW294937   1.485   6.652   5.581  2.1630 -2.1292 -0.6770
29701SOL     OW94938   5.204   2.743   0.111  0.0555  0.2287  0.7249
29701SOL    HW194939   5.133   2.801   0.137  0.0399  1.3770 -1.6125
29701SOL    HW294940   5.271   2.802   0.076  0.3466 -1.0896 -1.0565
29702SOL     OW94941   9.860   7.917   1.630 -0.0680 -0.0179  0.0193
29702SOL    HW194942   9.870   8.003   1.590  0.7046 -0.6062 -1.0809
29702SOL    HW294943   9.948   7.881   1.635 -0.4498 -1.0393 -0.2034
29703SOL     OW94944   0.073   5.204   0.896 -0.9520 -0.1033  0.2162
29703SOL    HW194945   0.064   5.227   0.989 -1.3748  1.0368 -0.0874
29703SOL    HW294946   0.116   5.280   0.857  1.6366 -1.6094 -0.0921
29704SOL     OW94947   9.599   8.505   7.243  0.7536  0.1374 -0.2126
29704SOL    HW194948   9.679   8.552   7.217  1.8948 -1.1439  0.7976
29704SOL    HW294949   9.528   8.562   7.215  1.9520  0.6683 -2.5412
29705SOL     OW94950   4.010   1.661   2.367 -0.3971  0.2619  0.0409
29705SOL    HW194951   3.996   1.755   2.378 -0.4552  0.3895 -1.0413
29705SOL    HW294952   3.924   1.622   2.382 -0.9750  0.6325 -1.9914
29706SOL     OW94953  10.208   1.932   5.123  0.2772 -0.1728  0.0602
29706SOL    HW194954  10.251   1.913   5.039  1.5174  3.3041 -0.2892
29706SOL    HW294955  10.121   1.895   5.114  1.2166 -2.1711 -1.7057
29707SOL     OW94956   6.340   3.108   9.780 -0.0813  0.2984  0.2197
29707SOL    HW194957   6.260   3.122   9.730  0.8713  1.0135 -1.1417
29707SOL    HW294958   6.322   3.150   9.865 -1.6514 -0.8065  0.4830
29708SOL     OW94959   3.354   7.016   4.476 -0.1677 -0.1194  0.1299
29708SOL    HW194960   3.427   6.983   4.423  0.2613 -1.5125  1.5132
29708SOL    HW294961   3.279   6.963   4.450 -0.3976  0.4447 -0.3764
29709SOL     OW94962  10.446   0.602   3.285 -0.1777 -0.2255 -0.8279
29709SOL    HW194963  10.422   0.693   3.300 -0.8953 -0.5221 -0.0488
29709SOL    HW294964  10.488   0.574   3.366 -1.7412 -1.1200 -0.2657
29710SOL     OW94965   7.029   4.646   6.868 -0.3916  0.0687 -0.1011
29710SOL    HW194966   7.083   4.656   6.946  0.7947 -2.9371 -0.4075
29710SOL    HW294967   7.039   4.729   6.821  0.1447  1.3393  2.1257
29711SOL     OW94968   4.507   1.092   1.006  0.4608 -0.3425 -0.4476
29711SOL    HW194969   4.450   1.151   0.957  1.4506  1.7467  0.8029
29711SOL    HW294970   4.449   1.048   1.067  0.0996  1.7578  0.8144
29712SOL     OW94971   0.950   6.360   2.767 -0.0182  0.2012  0.5773
29712SOL    HW194972   0.859   6.340   2.748 -0.5136  0.8342  2.1220
29712SOL    HW294973   0.965   6.327   2.856  1.3768 -0.2195  0.2237
29713SOL     OW94974   9.743   1.274   6.469 -0.3155 -0.7057  0.1609
29713SOL    HW194975   9.692   1.198   6.497 -0.1817 -0.7022  0.4182
29713SOL    HW294976   9.820   1.274   6.526  0.1743 -0.9385 -0.4947
29714SOL     OW94977   8.481   6.386   9.039 -0.3252 -0.6849 -0.0080
29714SOL    HW194978   8.390   6.413   9.052 -0.3135 -1.1332  1.1223
29714SOL    HW294979   8.475   6.300   8.997 -0.3710  0.4492 -2.4790
29715SOL     OW94980   2.243   2.562   3.250  0.6080 -0.1155  0.1398
29715SOL    HW194981   2.158   2.577   3.209  0.5968  0.6842  0.4419
29715SOL    HW294982   2.276   2.483   3.208  0.7348  0.8402 -1.6370
29716SOL     OW94983   5.441  10.459   8.604 -0.1978 -0.6684  0.1280
29716SOL    HW194984   5.364  10.462   8.661 -0.5518  0.5091 -0.3865
29716SOL    HW294985   5.405  10.456   8.515  0.3306  0.3189 -0.1359
29717SOL     OW94986   2.238   3.471   4.488  0.0893  0.0109  0.2314
29717SOL    HW194987   2.308   3.498   4.429 -0.2509 -0.8752 -0.5980
29717SOL    HW294988   2.231   3.376   4.477 -1.7949  0.1664 -0.3394
29718SOL     OW94989   4.272   1.694   3.220  0.0443  0.0699  0.6571
29718SOL    HW194990   4.301   1.609   3.185  0.5231  0.4741  0.0526
29718SOL    HW294991   4.181   1.701   3.194 -0.4104 -0.8482  1.8673
29719SOL     OW94992   7.010   4.857   9.486  0.3643 -0.1874  0.3698
29719SOL    HW194993   6.933   4.914   9.479  1.4265  1.2940  0.1912
29719SOL    HW294994   7.077   4.912   9.526  0.7492 -2.0748  2.5562
29720SOL     OW94995   5.890  10.298   9.432  0.3944 -0.3387  0.5416
29720SOL    HW194996   5.866  10.283   9.341  0.9405  2.4890 -0.1657
29720SOL    HW294997   5.983  10.277   9.436 -0.1493 -3.1015  1.2236
29721SOL     OW94998   1.513   0.691   5.371 -0.3292  0.4837 -0.2472
29721SOL    HW194999   1.421   0.686   5.345  0.2138 -3.3585 -2.0788
29721SOL    HW295000   1.553   0.747   5.304 -0.8220 -0.4721 -1.3677
29722SOL     OW95001   9.385   4.587   1.559  0.1899  0.2397  0.0902
29722SOL    HW195002   9.405   4.594   1.652  2.4793 -2.6678 -0.0536
29722SOL    HW295003   9.328   4.511   1.552 -0.8700  1.0812 -0.8223
29723SOL     OW95004   0.537   7.218   6.010  0.0663  0.2614 -0.4850
29723SOL    HW195005   0.514   7.210   6.102  2.6205 -0.4522  0.1681
29723SOL    HW295006   0.496   7.300   5.982 -1.8980 -0.1899  0.8649
29724SOL     OW95007   7.986   0.094   9.315 -0.5622  0.2161  0.3881
29724SOL    HW195008   7.921   0.026   9.333  0.2841 -1.1947 -1.5968
29724SOL    HW295009   8.064   0.046   9.286  0.8159  1.9487  1.0323
29725SOL     OW95010   3.539   4.660   0.982 -0.2683 -0.2031  0.2734
29725SOL    HW195011   3.465   4.631   1.035 -2.4240  2.1283 -1.2404
29725SOL    HW295012   3.524   4.621   0.896  0.2502  0.3217 -0.0643
29726SOL     OW95013   0.095   9.034   7.536  0.3397 -0.0280 -0.2683
29726SOL    HW195014   0.082   9.025   7.442  0.9812 -0.1055 -0.3519
29726SOL    HW295015   0.006   9.044   7.572  0.1267  0.4974 -0.9264
29727SOL     OW95016   2.605   3.525   4.457 -0.2645  0.2023 -0.0592
29727SOL    HW195017   2.641   3.610   4.433 -0.1720  0.0644 -0.4211
29727SOL    HW295018   2.601   3.477   4.374 -0.7173  0.0065  0.0749
29728SOL     OW95019   6.402   7.285   2.037  0.3675 -0.1754 -0.0848
29728SOL    HW195020   6.364   7.198   2.028 -0.1568 -0.1256  1.3633
29728SOL    HW295021   6.462   7.293   1.963  1.1101 -2.1086  0.2490
29729SOL     OW95022   4.700   3.299   4.094  0.6743  0.8407 -0.0558
29729SOL    HW195023   4.693   3.207   4.068  3.2764  1.3457 -3.2073
29729SOL    HW295024   4.774   3.301   4.155  0.4918  0.8126  0.1657
29730SOL     OW95025  10.803   3.589   2.430 -0.0007  0.1495 -0.1070
29730SOL    HW195026  10.773   3.503   2.400 -3.0001  1.0150  0.0191
29730SOL    HW295027  10.773   3.595   2.520 -0.2966  1.4936 -0.2665
29731SOL     OW95028   1.887   0.055   5.890 -0.7891  0.0231  0.3562
29731SOL    HW195029   1.864   0.138   5.932 -1.3878 -0.0269  0.1380
29731SOL    HW295030   1.824   0.046   5.818 -0.3849 -0.3573  0.0439
29732SOL     OW95031  10.748   2.723   9.650 -0.0309 -0.2645 -0.3203
29732SOL    HW195032  10.657   2.754   9.644  0.7026  2.3631  0.5107
29732SOL    HW295033  10.752   2.678   9.735 -0.7894 -1.4088 -0.8674
29733SOL     OW95034   2.235   4.429   2.069  0.2946 -1.0794 -0.4678
29733SOL    HW195035   2.272   4.350   2.029  0.2683 -1.2990 -0.0661
29733SOL    HW295036   2.152   4.400   2.107 -0.3598 -0.5662 -1.4550
29734SOL     OW95037   8.663   6.645   3.749  0.2755 -0.0700  0.3404
29734SOL    HW195038   8.613   6.583   3.695  1.1191 -1.4729  1.0961
29734SOL    HW295039   8.602   6.716   3.766 -0.8151 -0.7933 -0.3870
29735SOL     OW95040   7.726   2.345   3.038  0.0843  0.1909  0.2283
29735SOL    HW195041   7.819   2.351   3.061  0.3080 -1.6680 -0.0485
29735SOL    HW295042   7.715   2.408   2.966  1.6401 -1.0410 -1.1738
29736SOL     OW95043   2.779  10.497   0.858  0.5542 -0.2807  0.1014
29736SOL    HW195044   2.735  10.477   0.775  0.0402 -2.3052  0.8232
29736SOL    HW295045   2.770  10.418   0.910 -0.7582  1.5227  2.8505
29737SOL     OW95046   5.237   4.197   9.510  0.3953  0.8988  0.3868
29737SOL    HW195047   5.235   4.142   9.431 -1.9563 -0.4410  1.2806
29737SOL    HW295048   5.324   4.182   9.547  0.3573 -1.0869 -0.2215
29738SOL     OW95049   6.250   0.121   7.224  0.1922  0.0668 -0.1999
29738SOL    HW195050   6.181   0.165   7.175 -0.2692 -0.5310 -0.1091
29738SOL    HW295051   6.330   0.138   7.175 -0.1109  0.3001 -0.6167
29739SOL     OW95052   7.643   4.572   3.657 -0.6606 -0.0138  0.2882
29739SOL    HW195053   7.715   4.564   3.596  0.4611  0.3685  1.5226
29739SOL    HW295054   7.586   4.639   3.619  0.2976  0.6125 -0.0825
29740SOL     OW95055   0.838   0.866   9.611  0.4737  0.3016  0.0864
29740SOL    HW195056   0.843   0.905   9.524  1.2268  2.0706  0.8659
29740SOL    HW295057   0.905   0.911   9.662  0.2201 -0.8560  1.5314
29741SOL     OW95058   6.757   8.477   4.945  0.0979  0.1265 -0.0297
29741SOL    HW195059   6.832   8.437   4.991  0.2077 -1.5588 -1.5410
29741SOL    HW295060   6.764   8.443   4.856 -2.6438 -0.3231 -0.1491
29742SOL     OW95061   6.754   3.218   4.177 -0.2255  0.1096  0.3194
29742SOL    HW195062   6.676   3.252   4.220  0.4254  1.0308  0.7911
29742SOL    HW295063   6.720   3.167   4.103 -1.2513  1.2335 -0.0201
29743SOL     OW95064   5.064   1.234   4.028  0.4310 -0.3239  0.0265
29743SOL    HW195065   5.002   1.200   4.092 -1.1904  0.6305 -0.9478
29743SOL    HW295066   5.121   1.293   4.078 -0.3078 -0.1904  0.7352
29744SOL     OW95067   3.890   6.879   2.495 -0.3387 -0.1717  0.0644
29744SOL    HW195068   3.982   6.906   2.501  0.2783 -2.4330  2.5460
29744SOL    HW295069   3.890   6.811   2.427 -0.5285  0.8592 -1.0079
29745SOL     OW95070   1.064   8.273   9.745  0.1484 -0.2969  0.0335
29745SOL    HW195071   1.140   8.308   9.792  0.0291 -1.0211  0.7754
29745SOL    HW295072   1.087   8.182   9.726 -0.5343 -0.5186  0.2546
29746SOL     OW95073   7.156   9.859   6.061  0.4086 -0.0966  0.0111
29746SOL    HW195074   7.233   9.803   6.071  0.6071 -0.2606 -1.9824
29746SOL    HW295075   7.190   9.940   6.023 -0.3012  0.0972 -0.2316
29747SOL     OW95076   9.784  10.797   0.964 -0.1598  0.2224 -0.1634
29747SOL    HW195077   9.827  10.859   0.905  1.1986  0.2956  0.8777
29747SOL    HW295078   9.824  10.713   0.944  0.7224  0.3431  1.0266
29748SOL     OW95079   5.211   2.054   8.783  0.7944 -0.0598 -0.1083
29748SOL    HW195080   5.288   2.078   8.730  1.9062  1.0401  1.8597
29748SOL    HW295081   5.151   2.128   8.772  1.5202  0.7281  1.0076
29749SOL     OW95082   8.996   9.493   7.712 -0.0219  0.3387 -0.4108
29749SOL    HW195083   8.935   9.534   7.652  1.1598  1.6222 -0.7873
29749SOL    HW295084   8.945   9.476   7.791 -1.6872 -1.6637 -1.8218
29750SOL     OW95085  10.919  10.892   3.212  0.2861 -0.4081 -0.0446
29750SOL    HW195086  10.972  10.868   3.137  1.5582 -2.0687  1.2992
29750SOL    HW295087  10.982  10.909   3.282 -0.8504  1.3395  0.6191
29751SOL     OW95088   7.522   5.573   0.122 -0.2278 -0.3506  0.6722
29751SOL    HW195089   7.528   5.668   0.131  2.1215 -0.3152 -0.4278
29751SOL    HW295090   7.560   5.539   0.203  0.7125 -0.2945  0.2714
29752SOL     OW95091   0.970   3.443   0.188 -0.0953  0.2755  0.1925
29752SOL    HW195092   0.932   3.527   0.213  0.9047  0.6302  0.5506
29752SOL    HW295093   1.049   3.435   0.241  0.2504 -0.5203 -0.4165
29753SOL     OW95094   2.528   4.527   1.625 -1.2294 -0.1921 -0.2512
29753SOL    HW195095   2.603   4.527   1.684 -0.8754 -0.3438 -0.6931
29753SOL    HW295096   2.482   4.609   1.645 -1.4249 -0.4963  0.6053
29754SOL     OW95097   9.532  10.226   8.107  0.1624  0.3009 -0.4544
29754SOL    HW195098   9.627  10.219   8.121  0.1694  2.1137  0.7348
29754SOL    HW295099   9.494  10.160   8.165  0.6505  0.2869 -0.1482
29755SOL     OW95100   4.042   3.975   9.576  0.3467 -0.2433 -0.1142
29755SOL    HW195101   3.961   4.024   9.560  0.3278 -0.5877 -1.1313
29755SOL    HW295102   4.103   4.040   9.609 -0.3540  0.0171  0.7091
29756SOL     OW95103   2.758   7.185  10.597  0.2449 -0.0341  0.8345
29756SOL    HW195104   2.734   7.093  10.585 -2.0827  0.5105  0.9126
29756SOL    HW295105   2.696   7.218  10.662 -0.4609  2.1476 -0.8297
29757SOL     OW95106   9.965   0.682   3.654 -0.2628  0.5519  0.3050
29757SOL    HW195107   9.886   0.631   3.671  0.3794 -0.2543  0.9464
29757SOL    HW295108  10.034   0.617   3.645 -0.0027  1.0879 -2.4888
29758SOL     OW95109   8.489   5.466   8.802  0.1231 -0.1912 -0.4402
29758SOL    HW195110   8.550   5.521   8.753  0.4193  1.0464  1.2320
29758SOL    HW295111   8.507   5.485   8.894 -2.5357 -0.0334  0.1503
29759SOL     OW95112   3.863   6.666   3.500  0.0268  0.0472 -0.0716
29759SOL    HW195113   3.843   6.625   3.416  2.2935  0.8022 -1.0456
29759SOL    HW295114   3.781   6.708   3.526 -0.6671 -0.0222 -1.9990
29760SOL     OW95115  10.460   7.384   5.895  0.1170  0.0032 -0.0891
29760SOL    HW195116  10.473   7.478   5.910  2.3333  0.0752 -1.9491
29760SOL    HW295117  10.376   7.379   5.848  0.1176  1.0953 -0.2325
29761SOL     OW95118   9.456   0.257   7.374  0.3325 -0.3087  0.3506
29761SOL    HW195119   9.496   0.339   7.403 -0.3690  0.1852 -0.0449
29761SOL    HW295120   9.378   0.284   7.325 -1.3630 -1.2319  2.3428
29762SOL     OW95121   9.978   7.786   2.619  0.1475  0.0268 -0.3167
29762SOL    HW195122  10.043   7.768   2.687 -1.2810  0.0034  1.0758
29762SOL    HW295123   9.980   7.709   2.563  0.4606 -0.4987  0.4049
29763SOL     OW95124   5.855   2.000   9.425  0.2560  0.2068  0.2804
29763SOL    HW195125   5.855   2.070   9.359 -2.3229  0.8642  0.8926
29763SOL    HW295126   5.856   1.919   9.374  1.6051  0.6547 -0.4671
29764SOL     OW95127   7.225   6.312   8.677 -0.1410 -0.6060  0.1029
29764SOL    HW195128   7.198   6.379   8.740  1.4325 -0.4834  0.6924
29764SOL    HW295129   7.172   6.330   8.599 -0.9350  0.2793  0.8163
29765SOL     OW95130  10.328   4.709   3.055  0.0197 -0.2030  0.1025
29765SOL    HW195131  10.242   4.669   3.042  0.0023  0.2818 -1.5122
29765SOL    HW295132  10.388   4.653   3.006  0.2555  0.7216 -0.7012
29766SOL     OW95133   7.586   2.800   7.531 -0.2922  0.1451  0.6336
29766SOL    HW195134   7.499   2.807   7.491  0.0327 -2.6925 -0.7736
29766SOL    HW295135   7.618   2.890   7.535 -3.6347  1.4382  2.1145
29767SOL     OW95136   8.805   1.336   9.082  0.1844  0.4264  0.0615
29767SOL    HW195137   8.857   1.342   9.162  1.4088 -0.2930 -0.6506
29767SOL    HW295138   8.837   1.256   9.038 -2.2309 -0.6281  0.0803
29768SOL     OW95139   1.813   5.659   0.876  1.0965  1.0978 -0.1768
29768SOL    HW195140   1.784   5.570   0.854  0.8759  0.8239  1.1820
29768SOL    HW295141   1.734   5.713   0.868  0.9630  0.9566  0.2047
29769SOL     OW95142   9.198   0.853   9.221  0.3081  0.3652 -0.1203
29769SOL    HW195143   9.247   0.785   9.175  0.7419  0.5915  0.0029
29769SOL    HW295144   9.191   0.924   9.158 -0.2049  0.1816 -0.2728
29770SOL     OW95145  10.327   1.177   8.668 -0.5294  0.2889  0.1045
29770SOL    HW195146  10.377   1.247   8.624  0.4072  0.8389  1.9471
29770SOL    HW295147  10.306   1.115   8.598  0.4552  1.3704 -1.2016
29771SOL     OW95148   0.030   0.082   9.360 -0.1170  0.3766  0.0442
29771SOL    HW195149  -0.056   0.064   9.323  0.4041  0.3266 -1.1766
29771SOL    HW295150   0.091   0.032   9.305  0.7158  0.6212  0.7222
29772SOL     OW95151   7.283   4.280   9.084  0.2859 -0.6485  0.8779
29772SOL    HW195152   7.320   4.224   9.016 -0.9530  1.2856 -1.5725
29772SOL    HW295153   7.189   4.264   9.080  0.1229  0.0664  1.5752
29773SOL     OW95154   8.069   4.681   1.150 -0.3797 -0.3389 -0.3188
29773SOL    HW195155   7.982   4.720   1.153  0.2938  1.2908 -0.7019
29773SOL    HW295156   8.099   4.697   1.061  0.3962 -0.6783 -0.1228
29774SOL     OW95157  10.492  10.037   8.490  0.1289  0.3189 -0.5971
29774SOL    HW195158  10.433   9.992   8.550 -0.8573  2.4017  0.1100
29774SOL    HW295159  10.568   9.979   8.482 -0.8683 -1.2117  0.5707
29775SOL     OW95160   2.454   0.190   1.206 -0.0733 -0.4466  0.2017
29775SOL    HW195161   2.419   0.232   1.127 -0.0676  0.2764  0.5786
29775SOL    HW295162   2.545   0.220   1.210 -0.5182  0.8522  1.3622
29776SOL     OW95163   5.513   7.704  10.844  0.4519  0.2047  0.0032
29776SOL    HW195164   5.604   7.676  10.831  0.0416 -0.8828 -0.6624
29776SOL    HW295165   5.520   7.788  10.889  1.8066  0.4434 -0.6032
29777SOL     OW95166   5.049   6.345   9.206 -0.1204 -0.0362 -0.0490
29777SOL    HW195167   5.023   6.401   9.133 -0.6631  0.5855  0.6021
29777SOL    HW295168   4.970   6.294   9.226 -0.1381  0.1855  0.4456
29778SOL     OW95169   4.675   1.822   0.970 -0.0794 -0.3098  0.1460
29778SOL    HW195170   4.647   1.740   1.009 -1.6426  0.8548  1.5776
29778SOL    HW295171   4.602   1.849   0.914  0.5348 -0.0017 -0.5404
29779SOL     OW95172   6.125   5.256   7.286 -0.2888 -0.4837 -0.1423
29779SOL    HW195173   6.124   5.291   7.375  1.3679 -1.6571  0.3894
29779SOL    HW295174   6.217   5.261   7.260 -0.5967 -1.0483 -1.4259
29780SOL     OW95175   4.250   4.055   2.128  0.0825  0.4438 -0.1305
29780SOL    HW195176   4.252   4.006   2.210 -0.4727  1.7176  0.6850
29780SOL    HW295177   4.216   3.993   2.064 -1.9983  0.1245  1.1698
29781SOL     OW95178   6.406   7.371   6.122  0.0914  0.1558 -0.5718
29781SOL    HW195179   6.432   7.355   6.031 -0.2419  1.3307 -0.8881
29781SOL    HW295180   6.317   7.405   6.115 -0.8166 -1.8584  0.3559
29782SOL     OW95181   5.864   0.953   0.606 -0.3929 -0.2618 -0.0584
29782SOL    HW195182   5.900   0.909   0.529 -0.0240 -0.1881  0.0713
29782SOL    HW295183   5.792   1.006   0.572  0.8561  1.1260 -0.6283
29783SOL     OW95184   5.118   9.778   9.665  0.5814 -0.5341  0.2344
29783SOL    HW195185   5.163   9.756   9.746 -0.5683  1.5491  1.5087
29783SOL    HW295186   5.078   9.863   9.681 -0.3449 -0.4062 -2.2619
29784SOL     OW95187   2.514   1.801   3.548  0.0371 -0.3179 -0.5882
29784SOL    HW195188   2.464   1.750   3.613 -2.4239 -0.0878 -2.1598
29784SOL    HW295189   2.505   1.751   3.467  2.0742 -0.0087 -1.0432
29785SOL     OW95190   9.127   6.866  10.513 -0.0303 -0.1986 -0.1032
29785SOL    HW195191   9.044   6.823  10.495 -0.7105  0.2859  1.6914
29785SOL    HW295192   9.103   6.957  10.533  1.0397  0.2111 -0.6178
29786SOL     OW95193   3.715   4.663   3.044  0.7003  0.3888 -0.3154
29786SOL    HW195194   3.694   4.749   3.009 -0.5081  0.2470  0.0073
29786SOL    HW295195   3.630   4.619   3.052  1.2249 -0.5724  0.1942
29787SOL     OW95196   5.378   3.351  10.122 -0.5486 -0.2569  0.3876
29787SOL    HW195197   5.389   3.273  10.176 -0.8342  0.1480  1.0437
29787SOL    HW295198   5.446   3.344  10.055  0.3764 -0.3404  1.3220
29788SOL     OW95199   3.594   6.696   5.529  0.1321  0.0900 -0.4779
29788SOL    HW195200   3.568   6.724   5.616  0.3279  0.6801 -0.6068
29788SOL    HW295201   3.687   6.675   5.537 -0.2327 -1.5379 -0.1370
29789SOL     OW95202   8.444   1.948   8.361 -0.4537 -0.1652  0.0062
29789SOL    HW195203   8.398   1.870   8.330  0.8735 -1.5409  1.3963
29789SOL    HW295204   8.486   1.922   8.442 -0.6750  2.2593  1.0039
29790SOL     OW95205  10.286   0.172   4.212  0.6001 -0.2716 -0.1031
29790SOL    HW195206  10.360   0.210   4.164 -0.0888  0.9383 -0.2519
29790SOL    HW295207  10.274   0.230   4.287 -0.7549  0.0716 -0.5594
29791SOL     OW95208   3.776   6.842   6.464 -0.0194  0.0290 -0.0382
29791SOL    HW195209   3.682   6.848   6.446 -0.2957 -1.4818  0.7306
29791SOL    HW295210   3.781   6.809   6.554  1.1708 -2.5770 -0.9472
29792SOL     OW95211  10.810   8.044   1.176  0.3345 -0.2000  0.0372
29792SOL    HW195212  10.828   7.956   1.208 -1.2882 -0.5454  0.1049
29792SOL    HW295213  10.882   8.097   1.209  1.1316 -1.4231  0.3227
29793SOL     OW95214   6.188   1.874   9.816  0.5827  0.2427 -0.2128
29793SOL    HW195215   6.278   1.906   9.813  1.3055 -1.2907  1.9668
29793SOL    HW295216   6.165   1.874   9.909 -1.5312  0.1670 -0.6700
29794SOL     OW95217   9.927  10.747   9.079 -0.3080 -0.2001 -0.0677
29794SOL    HW195218   9.971  10.811   9.135  1.8277 -0.6464 -1.1207
29794SOL    HW295219   9.993  10.680   9.062 -2.1828 -2.2681  0.2405
29795SOL     OW95220   2.148   6.408   8.263 -0.2577  0.1443  0.1473
29795SOL    HW195221   2.178   6.499   8.267 -1.0333  0.3743  0.9872
29795SOL    HW295222   2.185   6.367   8.342 -2.2297  0.4774  1.3029
29796SOL     OW95223   5.276   1.593   9.393 -0.1109 -0.6216 -0.4346
29796SOL    HW195224   5.357   1.563   9.353  0.1872 -0.6923  0.2038
29796SOL    HW295225   5.251   1.671   9.344  1.8631  1.1077  1.1239
29797SOL     OW95226  10.171   0.767   4.454 -0.3169  0.4890 -0.2406
29797SOL    HW195227  10.193   0.850   4.411 -0.6442  0.4920 -0.4064
29797SOL    HW295228  10.252   0.715   4.449 -0.6084  0.1340 -1.6821
29798SOL     OW95229   9.756   2.374   8.425  0.0246 -0.1220  0.7764
29798SOL    HW195230   9.722   2.443   8.482 -0.3301  0.1944  0.1830
29798SOL    HW295231   9.724   2.397   8.338 -0.2726 -1.1578  0.6077
29799SOL     OW95232   2.725   1.639   6.775 -0.4499 -0.4410  0.4033
29799SOL    HW195233   2.725   1.685   6.691 -2.4003  0.3097  0.7630
29799SOL    HW295234   2.760   1.702   6.838  2.8472 -1.6142 -0.0313
29800SOL     OW95235   7.461   5.350   1.384  0.9708  0.0907  0.1328
29800SOL    HW195236   7.467   5.258   1.408  0.0924  0.0717  0.3312
29800SOL    HW295237   7.514   5.396   1.449  0.8340 -0.2157  0.4638
29801SOL     OW95238   1.467   4.675   6.881  0.1958  0.1182  0.0222
29801SOL    HW195239   1.456   4.728   6.803 -2.6453  1.1085  0.9782
29801SOL    HW295240   1.540   4.716   6.928 -1.5585  2.9962  0.4675
29802SOL     OW95241   8.732   1.802   7.005 -0.2651 -0.3852  0.6438
29802SOL    HW195242   8.733   1.737   7.074  0.9895 -0.7828  0.2791
29802SOL    HW295243   8.669   1.868   7.034 -2.1015 -2.0869  0.6950
29803SOL     OW95244   3.802   8.305   9.936  0.6428 -0.2705 -0.2829
29803SOL    HW195245   3.861   8.237   9.968 -0.2844 -3.4692 -4.4687
29803SOL    HW295246   3.860   8.366   9.890  1.2304  0.5758  1.4743
29804SOL     OW95247   4.351   8.455   8.608 -0.2895  0.1973 -0.2603
29804SOL    HW195248   4.259   8.457   8.582 -0.9015 -0.0414  1.7190
29804SOL    HW295249   4.399   8.468   8.526 -2.0800  1.0587 -1.2429
29805SOL     OW95250   6.553   5.537   4.102 -0.3537 -0.3588 -0.1587
29805SOL    HW195251   6.564   5.632   4.115  0.3247 -0.2924 -1.0972
29805SOL    HW295252   6.532   5.504   4.189  2.1605  0.2999  0.7945
29806SOL     OW95253  10.773   6.230   2.675  0.1453 -0.0448  0.0770
29806SOL    HW195254  10.677   6.220   2.678  0.1920 -0.3267  2.0726
29806SOL    HW295255  10.794   6.228   2.582 -1.8214  0.3233 -0.4278
29807SOL     OW95256   8.236   6.455   2.153 -0.0087  0.5167  0.1152
29807SOL    HW195257   8.163   6.456   2.214 -0.4844  1.2654 -0.4416
29807SOL    HW295258   8.274   6.543   2.161  0.3959  0.3639 -0.1057
29808SOL     OW95259   3.452   9.327   0.623  0.2940 -0.1444 -0.5793
29808SOL    HW195260   3.498   9.307   0.704 -0.7090 -1.6086 -0.3348
29808SOL    HW295261   3.515   9.306   0.554  0.7151 -0.0809 -0.2210
29809SOL     OW95262   7.345   0.954   8.648  0.2124  0.3337  0.2665
29809SOL    HW195263   7.250   0.961   8.634  0.5664  2.5792 -1.6789
29809SOL    HW295264   7.357   0.982   8.738 -0.9058  1.0519  0.2200
29810SOL     OW95265   8.569   3.634   7.492 -0.3534  0.2752 -0.1145
29810SOL    HW195266   8.606   3.574   7.427  2.0525  2.4466 -0.9313
29810SOL    HW295267   8.535   3.707   7.441  0.4400  1.4459  0.9466
29811SOL     OW95268   0.585   5.893   3.853  0.1987  0.4181  0.0027
29811SOL    HW195269   0.504   5.910   3.902  0.1087 -1.0459  0.4116
29811SOL    HW295270   0.572   5.807   3.814  1.7199 -0.0454  0.4401
29812SOL     OW95271   0.435   8.125   5.460  0.1456  0.8663 -0.1212
29812SOL    HW195272   0.481   8.162   5.535 -0.1913  0.3793  0.3304
29812SOL    HW295273   0.469   8.036   5.453  1.0506  1.2794 -1.2824
29813SOL     OW95274   1.035   3.470   3.301  0.2488  0.0049  0.6504
29813SOL    HW195275   1.125   3.475   3.332  0.3439  0.4768  0.3105
29813SOL    HW295276   0.982   3.476   3.380  0.4931  0.7525  0.7649
29814SOL     OW95277   2.241   0.111  10.774  0.3996  0.3622  0.2529
29814SOL    HW195278   2.198   0.137  10.693 -0.4843  1.6283  1.0818
29814SOL    HW295279   2.322   0.068  10.746  0.1070  0.7535 -1.2832
29815SOL     OW95280   8.001   4.981   2.103 -0.0846  0.2306  0.0101
29815SOL    HW195281   8.087   5.019   2.122  0.2397  0.3189 -1.5038
29815SOL    HW295282   8.020   4.894   2.069 -0.6728 -0.1683  0.6667
29816SOL     OW95283   1.880   1.448   1.250  0.6433 -0.1495 -0.2504
29816SOL    HW195284   1.802   1.505   1.250 -0.7104 -1.9119  1.1653
29816SOL    HW295285   1.868   1.391   1.174 -0.0052 -1.1026  0.5478
29817SOL     OW95286  10.903   3.319   7.241  0.3553 -0.2091  0.3354
29817SOL    HW195287  10.814   3.349   7.261 -0.1664 -1.5106  0.0891
29817SOL    HW295288  10.909   3.323   7.146 -0.8835 -3.6871 -0.0667
29818SOL     OW95289   0.301   7.573   4.997 -0.0644  0.1907 -0.1802
29818SOL    HW195290   0.336   7.655   4.962 -0.7176  0.3438 -0.4972
29818SOL    HW295291   0.342   7.505   4.944  1.9704  0.1574  1.3150
29819SOL     OW95292   7.995   5.686   2.007  0.3874 -0.0969  0.0937
29819SOL    HW195293   7.922   5.673   2.067  1.0134 -0.0381  0.8792
29819SOL    HW295294   8.072   5.690   2.063  1.0359 -0.5015 -0.7544
29820SOL     OW95295   1.707   2.313   4.700 -0.0430  0.3092  0.0406
29820SOL    HW195296   1.653   2.234   4.704  0.6258 -0.1513  0.2730
29820SOL    HW295297   1.700   2.343   4.610 -0.7793  0.3292  0.0983
29821SOL     OW95298   0.373   6.963   1.402  0.0532 -0.6369  0.4974
29821SOL    HW195299   0.317   6.921   1.337 -0.2728 -1.2165  1.1434
29821SOL    HW295300   0.459   6.968   1.360 -0.5425  0.5907 -0.6354
29822SOL     OW95301   7.708   3.118   0.484 -0.2717  0.4424 -0.1753
29822SOL    HW195302   7.763   3.043   0.504  0.0855  0.6089 -0.5172
29822SOL    HW295303   7.762   3.173   0.428  0.0823  1.7734  1.4125
29823SOL     OW95304   9.953   9.392   9.460 -0.5249 -0.7194  0.0808
29823SOL    HW195305   9.965   9.305   9.422 -0.6189 -0.8992  0.4616
29823SOL    HW295306  10.021   9.399   9.527  0.8285  0.2986 -1.3114
29824SOL     OW95307   0.568   9.740   3.522  0.0003  0.3276  0.5458
29824SOL    HW195308   0.487   9.761   3.569 -1.1747 -0.7645 -0.8973
29824SOL    HW295309   0.565   9.646   3.509  1.2296  0.3492 -0.0421
29825SOL     OW95310   9.841   2.831   1.005  0.6497  0.3455 -0.2303
29825SOL    HW195311   9.920   2.793   1.042  0.4545  0.7000  0.5878
29825SOL    HW295312   9.849   2.817   0.910  2.4732  1.7952 -0.3575
29826SOL     OW95313   6.130   4.146   6.933  0.4047 -0.4978  0.4222
29826SOL    HW195314   6.135   4.159   7.028  0.6766 -1.4299  0.5489
29826SOL    HW295315   6.089   4.226   6.900 -0.0124 -0.3105  1.3569
29827SOL     OW95316   1.528   1.243  10.107 -0.0062 -0.1755 -0.1403
29827SOL    HW195317   1.547   1.246  10.200  0.4998 -1.4451 -0.1739
29827SOL    HW295318   1.614   1.232  10.065 -0.1849  0.7845 -0.7902
29828SOL     OW95319   6.442   9.616   7.251 -0.0931 -0.1137 -0.1511
29828SOL    HW195320   6.442   9.700   7.205  0.6998  0.2535  0.4958
29828SOL    HW295321   6.534   9.599   7.269 -0.1008 -1.7545 -1.3838
29829SOL     OW95322   1.064  10.619  10.257 -0.1548  0.3786 -0.2127
29829SOL    HW195323   1.082  10.544  10.313  0.8403  0.3661 -0.5377
29829SOL    HW295324   1.014  10.679  10.313 -4.2295 -1.9511 -0.9485
29830SOL     OW95325   7.683   3.896  10.578 -0.3497 -0.1932 -0.0054
29830SOL    HW195326   7.702   3.985  10.547  0.6611 -0.0073  1.0629
29830SOL    HW295327   7.727   3.839  10.515 -0.4609  0.0824 -0.3352
29831SOL     OW95328   2.309   4.298   8.302 -0.2089 -0.3021  0.1608
29831SOL    HW195329   2.240   4.294   8.369  0.4303 -0.1164  0.8359
29831SOL    HW295330   2.383   4.339   8.346 -0.4512  1.8476 -1.2474
29832SOL     OW95331   9.367   7.327   5.350 -0.2185 -0.3027  0.4348
29832SOL    HW195332   9.330   7.409   5.383 -0.3629 -0.2886  0.2445
29832SOL    HW295333   9.404   7.284   5.426 -0.8298 -0.4239  0.6747
29833SOL     OW95334   9.505   2.430   8.193 -0.2519 -0.1190  0.7505
29833SOL    HW195335   9.464   2.347   8.217 -1.0577 -0.4506 -1.4828
29833SOL    HW295336   9.588   2.405   8.154  0.2422  0.2554  1.5562
29834SOL     OW95337   9.987  10.873   7.389  0.1769  0.1668 -0.2013
29834SOL    HW195338  10.021  10.954   7.350 -0.3303  1.1520  1.2955
29834SOL    HW295339  10.057  10.844   7.448  0.0688 -0.0940 -0.2026
29835SOL     OW95340   1.095   1.342   4.088  0.2573  0.5119  0.3043
29835SOL    HW195341   1.068   1.294   4.009 -0.4298  3.6528 -1.5419
29835SOL    HW295342   1.016   1.385   4.118  0.4344 -0.8452  3.0347
29836SOL     OW95343   7.489   1.436   0.929 -0.7720 -0.1737  0.0786
29836SOL    HW195344   7.466   1.366   0.868  1.2734 -0.4526 -0.4451
29836SOL    HW295345   7.505   1.512   0.873 -0.3265 -0.0353  0.3840
29837SOL     OW95346   8.754   6.334   0.864  0.2497 -0.3844  0.1470
29837SOL    HW195347   8.800   6.254   0.892  1.5833  1.2258  3.0152
29837SOL    HW295348   8.818   6.380   0.809  0.1480 -0.4584 -0.0356
29838SOL     OW95349   5.945   4.669   4.750  0.4700  0.2210  0.2045
29838SOL    HW195350   5.912   4.744   4.702  0.5778  1.8639  2.5298
29838SOL    HW295351   5.867   4.616   4.768  0.5117 -0.8233 -2.2143
29839SOL     OW95352   9.367   4.582   4.141 -0.6508  0.1888  0.1894
29839SOL    HW195353   9.341   4.514   4.203 -0.7151  0.1005  0.0670
29839SOL    HW295354   9.462   4.573   4.134 -0.4929  0.9158  1.1131
29840SOL     OW95355   4.978   4.809   0.710  0.6239  0.2100 -0.2495
29840SOL    HW195356   5.050   4.871   0.713  0.0392  0.8759  0.4376
29840SOL    HW295357   4.988   4.764   0.626  1.1196  1.1573 -0.7136
29841SOL     OW95358   0.786   3.302   3.798 -0.4730 -0.8320 -0.2161
29841SOL    HW195359   0.862   3.298   3.856  0.8564  3.3936 -1.2839
29841SOL    HW295360   0.736   3.378   3.828 -4.2012 -3.1331  0.1255
29842SOL     OW95361   2.631   5.610   5.286 -0.0961 -0.6865 -0.3129
29842SOL    HW195362   2.686   5.680   5.252  2.2281 -1.5085  1.4756
29842SOL    HW295363   2.611   5.636   5.376  0.5354 -2.1093  0.2728
29843SOL     OW95364   3.927  10.688   5.521  0.6279  0.3111  0.5441
29843SOL    HW195365   3.932  10.664   5.428  0.7626  0.9827  0.3735
29843SOL    HW295366   4.016  10.715   5.543  0.2783  1.5406  0.4851
29844SOL     OW95367   4.816   6.326   9.466  0.4936 -0.4083 -0.0089
29844SOL    HW195368   4.801   6.420   9.477  0.0715 -0.6401  1.7120
29844SOL    HW295369   4.789   6.308   9.376 -0.3489  0.9499 -0.0670
29845SOL     OW95370   1.984   0.283  10.610  0.1117  1.1160 -0.1223
29845SOL    HW195371   2.072   0.282  10.575 -0.0626 -0.8289 -0.6074
29845SOL    HW295372   1.927   0.262  10.536 -0.5773  0.4264  0.5770
29846SOL     OW95373   0.289   2.071   1.199  0.2555  0.4707 -0.6415
29846SOL    HW195374   0.300   2.076   1.294  2.4147 -3.0862 -0.5061
29846SOL    HW295375   0.358   2.127   1.164  2.3115 -1.4704  0.0547
29847SOL     OW95376   3.631   2.698   6.037 -0.2987 -0.7259 -0.1051
29847SOL    HW195377   3.639   2.758   5.962  0.0730 -1.8285 -0.9721
29847SOL    HW295378   3.720   2.675   6.059 -0.2004  1.6201  2.4452
29848SOL     OW95379   5.962   4.532   0.696  0.0433  0.4159  0.1446
29848SOL    HW195380   5.986   4.624   0.712  0.9633  0.0227  1.1557
29848SOL    HW295381   5.866   4.533   0.696 -0.0044  1.1174  1.9819
29849SOL     OW95382   5.749   8.161   6.750  0.1057 -0.1122 -0.0416
29849SOL    HW195383   5.744   8.172   6.845  0.3843 -2.3477  0.2761
29849SOL    HW295384   5.658   8.161   6.721 -0.1511 -2.0200  0.6192
29850SOL     OW95385   7.064   2.428   1.332  0.0677  0.0389 -0.7572
29850SOL    HW195386   7.148   2.382   1.334 -0.3861 -0.7979 -0.3845
29850SOL    HW295387   7.038   2.433   1.424  0.2838  1.3941 -0.7536
29851SOL     OW95388   3.999  10.806   2.152  0.1939  0.3339 -0.0142
29851SOL    HW195389   4.027  10.878   2.208 -0.8217  0.6390  0.1339
29851SOL    HW295390   3.925  10.766   2.199 -0.1096  0.0475 -0.7185
29852SOL     OW95391   4.116   0.495   3.636  0.0850  0.8832  0.0251
29852SOL    HW195392   4.021   0.506   3.642 -0.3418 -2.1242  0.5123
29852SOL    HW295393   4.145   0.487   3.726  0.5880  0.4917 -0.1653
29853SOL     OW95394   0.090   6.086   0.749 -0.0368  0.1411 -0.5746
29853SOL    HW195395   0.058   6.126   0.668  0.2671  0.4023 -0.5649
29853SOL    HW295396   0.185   6.091   0.744 -0.0109  0.0194 -0.2719
29854SOL     OW95397   9.605   1.103   6.230 -0.1446 -0.0020  0.1929
29854SOL    HW195398   9.519   1.082   6.268 -0.5864  0.5069 -0.4969
29854SOL    HW295399   9.584   1.155   6.152  0.8227  1.3766  0.8120
29855SOL     OW95400  10.662   1.247   0.854  0.7215  0.0200  0.4229
29855SOL    HW195401  10.609   1.173   0.825  0.4755 -0.0369  1.0177
29855SOL    HW295402  10.697   1.284   0.773 -1.6018  1.1041 -0.1771
29856SOL     OW95403   2.846  10.924   6.371  0.0912 -0.0633 -0.3111
29856SOL    HW195404   2.871  10.863   6.440  1.8343  1.1848  0.1996
29856SOL    HW295405   2.900  11.002   6.385 -0.5869  0.8188 -2.1775
29857SOL     OW95406   7.128   0.745   8.965 -0.1523  0.0191 -0.0403
29857SOL    HW195407   7.080   0.684   9.020 -2.4430  1.9842  0.3054
29857SOL    HW295408   7.218   0.740   8.997 -1.0986 -0.0008  2.9553
29858SOL     OW95409   8.986   4.397   1.212 -0.1234  0.7724  0.5073
29858SOL    HW195410   9.009   4.446   1.133  1.0335 -0.7494 -0.1549
29858SOL    HW295411   8.905   4.352   1.189  1.0000 -0.8851 -0.4443
29859SOL     OW95412   7.407   3.950   0.740 -0.3074 -0.3784  0.1737
29859SOL    HW195413   7.377   3.885   0.804 -0.0526 -0.4170  0.2539
29859SOL    HW295414   7.479   3.996   0.784 -0.2410 -0.2919 -0.0223
29860SOL     OW95415   2.679   9.449  10.028 -0.3481 -0.4132 -0.7369
29860SOL    HW195416   2.634   9.427  10.109 -0.0332  0.6423 -0.2669
29860SOL    HW295417   2.677   9.367   9.977  1.8626 -1.9710  1.4282
29861SOL     OW95418   1.739   0.604   8.577  0.3436  1.0276 -0.3891
29861SOL    HW195419   1.823   0.648   8.589  0.1956  2.3745 -3.3108
29861SOL    HW295420   1.732   0.590   8.482 -2.0049 -0.5726 -0.0851
29862SOL     OW95421   4.063   7.915   1.311 -0.6436  0.5112  0.2032
29862SOL    HW195422   4.008   7.960   1.247 -0.6290  2.5117  1.5172
29862SOL    HW295423   4.142   7.967   1.316 -0.7527  0.5692  2.0166
29863SOL     OW95424   8.862  10.356  10.765 -0.3069  0.8122 -0.4655
29863SOL    HW195425   8.907  10.402  10.836 -1.0759 -1.7149  1.8043
29863SOL    HW295426   8.900  10.268  10.765 -3.1551 -0.5106 -0.3967
29864SOL     OW95427   0.019  10.154   4.774 -0.1360 -0.3578 -0.3650
29864SOL    HW195428   0.015  10.062   4.748 -0.5537 -0.8632  1.3443
29864SOL    HW295429  -0.072  10.179   4.789  0.1133 -0.5608  1.9165
29865SOL     OW95430   7.833   0.284   7.846  0.4133  0.1394  0.2930
29865SOL    HW195431   7.766   0.351   7.864  0.2587  0.4341 -1.2444
29865SOL    HW295432   7.906   0.308   7.903 -0.0217  1.0200  0.5045
29866SOL     OW95433   8.257   9.955   5.994  0.5997 -0.6263  0.0056
29866SOL    HW195434   8.325   9.958   5.927  0.0624 -1.7564 -0.6019
29866SOL    HW295435   8.260   9.866   6.029  0.4552 -0.2351  1.0548
29867SOL     OW95436  10.821   5.417   2.070 -0.1682 -0.1772  0.5830
29867SOL    HW195437  10.882   5.465   2.126 -1.8731 -0.3508  2.7491
29867SOL    HW295438  10.872   5.344   2.035  1.4750  1.0883  0.2530
29868SOL     OW95439   9.057   8.658   2.447  0.0691  0.1675  0.0674
29868SOL    HW195440   9.061   8.589   2.381  0.2894  0.6388 -0.4195
29868SOL    HW295441   9.122   8.634   2.512  1.7310  1.0457 -1.2112
29869SOL     OW95442   4.110   5.927   1.002 -0.0780 -0.0423 -0.3278
29869SOL    HW195443   4.163   5.850   1.019  0.5624 -0.0339 -2.1416
29869SOL    HW295444   4.033   5.894   0.956 -0.0486  0.3335 -0.6569
29870SOL     OW95445   7.986   5.799   2.363 -0.3268  0.5717  0.1064
29870SOL    HW195446   7.975   5.858   2.438 -2.3591  0.4341 -0.0208
29870SOL    HW295447   7.927   5.835   2.296 -0.5773 -0.8328 -0.4560
29871SOL     OW95448   0.740   3.439   9.800  0.1228 -0.5797 -0.0573
29871SOL    HW195449   0.798   3.451   9.875 -1.4829 -0.0260  1.1633
29871SOL    HW295450   0.744   3.523   9.753 -0.6984 -0.0492  0.7918
29872SOL     OW95451   3.729   7.557   0.711  1.0354  0.5709 -0.1307
29872SOL    HW195452   3.776   7.479   0.683 -0.3356 -0.9630  1.5570
29872SOL    HW295453   3.757   7.571   0.802  0.6229  1.5267 -0.1353
29873SOL     OW95454   9.772  10.452   8.759  0.3492  0.5183 -0.9034
29873SOL    HW195455   9.833  10.524   8.776 -1.2551  1.9161 -0.9079
29873SOL    HW295456   9.688  10.484   8.790  0.0529 -2.4549  1.8138
29874SOL     OW95457   3.477   0.696   0.727 -0.2158 -0.2914  0.3027
29874SOL    HW195458   3.557   0.669   0.683 -1.2222  0.0226 -1.8738
29874SOL    HW295459   3.485   0.790   0.736 -0.3725 -0.2436 -0.0290
29875SOL     OW95460   4.336   1.684   2.879 -0.2125 -0.7011 -0.3780
29875SOL    HW195461   4.414   1.645   2.918  0.1899 -1.5681 -1.9702
29875SOL    HW295462   4.263   1.647   2.929  0.3603  0.0786  1.0941
29876SOL     OW95463   7.994   6.679   6.102 -0.0004 -0.6899 -0.2601
29876SOL    HW195464   7.984   6.771   6.125 -2.2725 -0.7668 -0.7971
29876SOL    HW295465   8.086   6.660   6.122  0.9664  2.0686 -1.6105
29877SOL     OW95466   8.714   0.223  10.369  0.0564  0.3278 -0.6875
29877SOL    HW195467   8.772   0.182  10.433  0.1279 -1.6074 -1.9000
29877SOL    HW295468   8.627   0.218  10.409  0.3525  0.8929  0.0474
29878SOL     OW95469   6.612   4.855  10.684 -0.0056 -0.0243 -0.3807
29878SOL    HW195470   6.675   4.815  10.743  0.9269  1.4978 -0.2856
29878SOL    HW295471   6.646   4.943  10.668 -1.6349  0.5352 -1.0544
29879SOL     OW95472  10.726   6.073   6.986  0.0463  0.1148  0.4383
29879SOL    HW195473  10.697   6.016   7.057 -0.2701 -0.0199  0.2010
29879SOL    HW295474  10.646   6.100   6.942  0.2665 -0.1351 -0.1225
29880SOL     OW95475   5.958   0.459   4.527  0.5183  0.1824  1.4814
29880SOL    HW195476   5.865   0.477   4.518  0.2934 -0.2920  2.6537
29880SOL    HW295477   5.967   0.367   4.503  0.4258 -0.1855  2.7706
29881SOL     OW95478   0.615   5.866   5.622  0.2153  0.2708  0.5892
29881SOL    HW195479   0.551   5.933   5.599  1.9850  1.5540 -0.9435
29881SOL    HW295480   0.634   5.881   5.715 -0.5651  0.8649  0.6602
29882SOL     OW95481   1.767   3.459   7.117 -0.0820 -0.0020 -0.0202
29882SOL    HW195482   1.721   3.517   7.177 -0.9170 -2.4035  1.8462
29882SOL    HW295483   1.763   3.503   7.032  0.0299  2.9499  1.3789
29883SOL     OW95484   6.990   7.866   2.818  0.0582 -0.6505 -0.3490
29883SOL    HW195485   7.024   7.951   2.846 -0.4330 -0.8020  0.7374
29883SOL    HW295486   7.068   7.812   2.806  0.3072 -0.4275  0.2429
29884SOL     OW95487   6.036   1.200  10.070 -0.4153 -0.4944 -0.5547
29884SOL    HW195488   6.044   1.249  10.152  0.3481  0.4357 -1.1617
29884SOL    HW295489   6.122   1.161  10.056  0.0198  0.8155 -1.7831
29885SOL     OW95490   4.359   9.397   5.549  0.1340 -0.0359  0.4140
29885SOL    HW195491   4.423   9.331   5.576 -2.3913 -2.6229  0.5186
29885SOL    HW295492   4.282   9.379   5.603 -0.2694  3.9640  1.4412
29886SOL     OW95493   1.827  10.806   4.830 -0.2443  0.5036 -0.0838
29886SOL    HW195494   1.920  10.830   4.835 -0.7466  2.5906  0.1938
29886SOL    HW295495   1.793  10.826   4.917 -1.2395  1.0338 -0.5871
29887SOL     OW95496   0.207   0.141   5.648  0.1907 -0.2862  0.0904
29887SOL    HW195497   0.290   0.104   5.616  0.1012  0.0210 -0.5098
29887SOL    HW295498   0.190   0.095   5.730  1.2442  0.0360  0.5094
29888SOL     OW95499   4.430   7.314   5.408  0.3751 -0.6707 -0.4763
29888SOL    HW195500   4.421   7.396   5.360 -1.9540  0.2452  1.3507
29888SOL    HW295501   4.381   7.250   5.355  2.7289 -1.1546 -2.2392
29889SOL     OW95502   3.586   7.813   3.964  0.1820 -0.0862 -0.3177
29889SOL    HW195503   3.619   7.773   4.044 -0.7642 -0.3168 -0.0323
29889SOL    HW295504   3.493   7.790   3.962 -0.6791  2.9379  0.4027
29890SOL     OW95505   2.907   0.361   5.552 -0.1139  0.4772  0.7505
29890SOL    HW195506   2.940   0.275   5.525  0.2650  0.8753 -0.0969
29890SOL    HW295507   2.812   0.352   5.551 -0.0782  0.1014  0.5577
29891SOL     OW95508   4.147   3.331   2.253 -0.0371  0.8055  0.4103
29891SOL    HW195509   4.163   3.322   2.347 -0.1637 -0.2326  0.3524
29891SOL    HW295510   4.185   3.252   2.215  0.5240  1.4937 -0.4866
29892SOL     OW95511   0.506   2.217   7.583 -0.1587 -0.1850 -0.2240
29892SOL    HW195512   0.599   2.198   7.569 -0.7356 -2.1659 -1.7837
29892SOL    HW295513   0.504   2.309   7.609  2.3355 -0.4656  1.3078
29893SOL     OW95514  10.299  10.289   6.805 -0.2832 -0.6865 -0.0295
29893SOL    HW195515  10.248  10.237   6.742 -0.4550 -0.6882  0.1074
29893SOL    HW295516  10.233  10.339   6.853 -0.3200 -1.8691  1.2341
29894SOL     OW95517   6.432   5.842   3.359 -0.1739  0.2266 -0.1654
29894SOL    HW195518   6.413   5.750   3.375 -1.3732  0.4772 -0.0748
29894SOL    HW295519   6.408   5.886   3.441  0.4398  0.6191 -0.1901
29895SOL     OW95520   1.628   7.522   6.692 -0.9082 -0.3496 -0.2983
29895SOL    HW195521   1.632   7.589   6.760  0.6302 -0.1045 -0.6000
29895SOL    HW295522   1.605   7.442   6.738 -0.4666 -0.0685  0.4334
29896SOL     OW95523   9.134   0.051   3.501 -0.5063  0.0059  0.1831
29896SOL    HW195524   9.087   0.104   3.436 -0.6584 -0.3183  0.0257
29896SOL    HW295525   9.226   0.065   3.481 -0.5614 -0.5468 -0.4737
29897SOL     OW95526   1.040   2.922   2.160 -0.2974 -0.6622 -0.0607
29897SOL    HW195527   1.045   2.986   2.089 -0.8643 -1.6441 -1.0262
29897SOL    HW295528   1.075   2.967   2.236 -0.1346  0.5896 -0.8529
29898SOL     OW95529   1.508   6.874   9.684  0.6042  0.3879  0.1506
29898SOL    HW195530   1.488   6.802   9.624  0.6897 -0.8921  1.5975
29898SOL    HW295531   1.559   6.833   9.754  0.0162  1.7085  1.4009
29899SOL     OW95532   6.748   8.206   6.863 -0.1072 -0.0712  0.2217
29899SOL    HW195533   6.686   8.133   6.864 -0.2774  0.0758  0.7722
29899SOL    HW295534   6.692   8.284   6.861  0.0740  0.0457 -0.8524
29900SOL     OW95535   1.134   2.754   1.116 -0.0630 -0.2845 -0.2065
29900SOL    HW195536   1.225   2.773   1.136 -0.1745  0.0283  0.0103
29900SOL    HW295537   1.113   2.811   1.042 -0.2407  0.0543  0.0999
29901SOL     OW95538   0.968   8.682   1.098  0.0581 -0.5501 -0.0944
29901SOL    HW195539   1.027   8.742   1.144 -0.1915 -0.6092  0.3052
29901SOL    HW295540   0.910   8.648   1.167  0.3071 -1.3762 -0.2872
29902SOL     OW95541   5.588   7.790   4.703  0.5074 -0.3022  0.5281
29902SOL    HW195542   5.599   7.729   4.630  1.9964 -1.0928  1.3642
29902SOL    HW295543   5.507   7.762   4.746  0.9994 -1.4919  0.7044
29903SOL     OW95544  10.118  10.329  10.148 -0.1161  0.2026 -0.0919
29903SOL    HW195545  10.145  10.368  10.231  0.7993  1.1149 -0.8023
29903SOL    HW295546  10.075  10.247  10.173  1.4241 -0.2612  1.2074
29904SOL     OW95547   8.458   0.175   3.785  0.7686  0.4574 -0.4287
29904SOL    HW195548   8.420   0.093   3.755  1.6571 -0.1501  0.0430
29904SOL    HW295549   8.458   0.167   3.881 -1.5094  2.1113 -0.2039
29905SOL     OW95550   5.413   2.013   0.937  0.1369 -0.6233 -0.0152
29905SOL    HW195551   5.351   1.954   0.895 -0.4334  0.7957 -1.2762
29905SOL    HW295552   5.493   2.004   0.886  0.2582 -0.7853  0.2024
29906SOL     OW95553   9.309   1.482   6.426  0.1820  0.5059 -0.5378
29906SOL    HW195554   9.311   1.578   6.434  1.7827  1.0716 -4.9069
29906SOL    HW295555   9.360   1.451   6.501 -0.1327  3.0540  0.8540
29907SOL     OW95556   9.633   9.639   1.535 -0.1224 -0.5702 -0.2507
29907SOL    HW195557   9.710   9.693   1.550 -0.0980 -0.8694  0.7547
29907SOL    HW295558   9.618   9.644   1.440 -1.7824  3.4824  0.0268
29908SOL     OW95559  10.193   9.490   6.139 -0.0059 -0.1008  0.2741
29908SOL    HW195560  10.222   9.542   6.214  1.1535  0.6828 -0.6721
29908SOL    HW295561  10.131   9.427   6.175 -2.9166  3.0460  1.2574
29909SOL     OW95562   3.111  10.168   4.847 -0.5402  0.5772 -0.0470
29909SOL    HW195563   3.050  10.102   4.813 -1.4739  0.3662  1.8760
29909SOL    HW295564   3.073  10.251   4.820  0.0154  0.3976 -1.4840
29910SOL     OW95565   6.457  10.435   3.746 -0.1617  0.1190 -0.2038
29910SOL    HW195566   6.489  10.509   3.799 -1.0106  2.1470 -2.3174
29910SOL    HW295567   6.433  10.368   3.810  0.8381  1.5825  1.8252
29911SOL     OW95568   3.682   5.111   7.853 -0.0362  0.6840  0.2874
29911SOL    HW195569   3.679   5.040   7.918  0.0817 -0.2291 -0.6752
29911SOL    HW295570   3.600   5.103   7.805  0.9867 -0.3352 -1.3743
29912SOL     OW95571   0.454   1.000   5.726 -0.3959  0.1397 -0.0349
29912SOL    HW195572   0.376   1.022   5.777  0.9869  2.2903  1.3747
29912SOL    HW295573   0.421   0.966   5.643 -2.7700 -0.9254  1.2599
29913SOL     OW95574   9.131  10.806  10.717  0.1898 -0.4329 -0.9440
29913SOL    HW195575   9.051  10.764  10.685 -0.1668 -0.1254 -0.4783
29913SOL    HW295576   9.150  10.763  10.800  1.2048 -1.3390 -1.6272
29914SOL     OW95577   4.565   4.341  10.862  0.4996  0.3983  0.5322
29914SOL    HW195578   4.554   4.259  10.814  1.5324  0.4216  0.2271
29914SOL    HW295579   4.495   4.397  10.829 -1.0650 -0.7734  1.7255
29915SOL     OW95580   2.756   9.874   3.499 -0.5163  0.4297 -0.2362
29915SOL    HW195581   2.811   9.916   3.432  1.9041 -0.1520  1.2399
29915SOL    HW295582   2.718   9.947   3.548 -1.7426  0.8543 -1.7449
29916SOL     OW95583  10.569   0.159  10.517 -0.7616 -0.3151  0.5510
29916SOL    HW195584  10.664   0.154  10.524 -0.6139 -0.4847 -1.1014
29916SOL    HW295585  10.537   0.121  10.598  0.5826 -0.7743  0.9004
29917SOL     OW95586  10.416   8.593   6.800  0.4529 -1.2157  0.4540
29917SOL    HW195587  10.340   8.630   6.755  1.3255  1.5578  1.0291
29917SOL    HW295588  10.380   8.533   6.865 -1.2661 -0.1567  0.5321
29918SOL     OW95589   8.350   9.448   9.208 -0.4489 -0.1636  0.0325
29918SOL    HW195590   8.344   9.371   9.150 -0.1996 -0.4039  0.3255
29918SOL    HW295591   8.392   9.415   9.287  1.5713  0.7174 -0.6075
29919SOL     OW95592   5.878  10.906   2.034 -0.6881  0.2156 -0.0054
29919SOL    HW195593   5.963  10.869   2.013  0.1565  1.3423  1.2108
29919SOL    HW295594   5.857  10.871   2.121 -0.3462  1.7266  0.7154
29920SOL     OW95595   9.887   3.476   8.126 -0.5378  0.2251  0.2185
29920SOL    HW195596   9.846   3.473   8.212 -1.1068  3.3985  0.2019
29920SOL    HW295597   9.970   3.429   8.136 -0.8681  0.0290  2.3122
29921SOL     OW95598   1.237  10.844   2.500  0.4917  0.2651  0.2717
29921SOL    HW195599   1.285  10.853   2.418  0.2215  0.0264  0.0849
29921SOL    HW295600   1.254  10.926   2.547  0.7811  0.3329  0.0507
29922SOL     OW95601   4.714   1.225   5.844 -0.6259  0.0753 -0.0166
29922SOL    HW195602   4.799   1.182   5.857 -1.0459 -0.8481 -0.1961
29922SOL    HW295603   4.696   1.268   5.927 -0.3351 -0.3844  0.2924
29923SOL     OW95604   3.236   2.504   8.309  0.3519 -0.0139  0.4461
29923SOL    HW195605   3.200   2.417   8.323  0.9039 -0.0041  2.0443
29923SOL    HW295606   3.319   2.489   8.264 -2.0961  0.0224 -4.9243
29924SOL     OW95607   2.304   0.560   6.511  0.2644  0.5219 -0.0783
29924SOL    HW195608   2.337   0.564   6.422 -0.7573  4.0883 -0.4466
29924SOL    HW295609   2.213   0.589   6.504  0.3795  1.6542  2.1787
29925SOL     OW95610   2.346   8.287   9.499  0.1828  0.3101 -0.3243
29925SOL    HW195611   2.399   8.224   9.547  0.0872 -0.7430 -1.5341
29925SOL    HW295612   2.409   8.331   9.441 -0.2146 -1.1422 -1.9702
29926SOL     OW95613   6.644   3.882   3.838 -0.1180 -0.0795  0.0137
29926SOL    HW195614   6.637   3.904   3.745  0.7226  0.8956  0.1590
29926SOL    HW295615   6.679   3.793   3.839  0.7644  0.2420 -0.6211
29927SOL     OW95616   8.252   2.404   9.774  0.4057  0.2091 -0.3128
29927SOL    HW195617   8.293   2.365   9.852 -1.2831 -2.3766 -0.5838
29927SOL    HW295618   8.188   2.465   9.809  0.2411 -0.3110  0.3202
29928SOL     OW95619   3.932   3.898   4.827  0.4225  0.4433  0.0047
29928SOL    HW195620   3.959   3.818   4.781  0.4064 -0.0394  0.8139
29928SOL    HW295621   3.933   3.966   4.760  1.5132 -0.0160 -0.4633
29929SOL     OW95622   2.625   1.830   2.858 -0.2698 -0.0528 -0.4949
29929SOL    HW195623   2.652   1.773   2.930 -1.4958 -0.4638 -0.3416
29929SOL    HW295624   2.576   1.901   2.900 -2.4224 -1.1650 -1.0201
29930SOL     OW95625   7.566   3.920   9.638  0.3682 -0.3895  0.5157
29930SOL    HW195626   7.477   3.888   9.621  0.9152 -0.8980 -1.7140
29930SOL    HW295627   7.622   3.864   9.584  2.0189  0.1968  1.5552
29931SOL     OW95628   3.677   1.179   7.153  0.0404 -0.6200 -0.0053
29931SOL    HW195629   3.659   1.197   7.061  0.7246  1.3975  0.2030
29931SOL    HW295630   3.685   1.265   7.193 -0.6470 -1.4459  2.0492
29932SOL     OW95631   5.154   8.807   6.423  0.6240 -0.2041  0.9668
29932SOL    HW195632   5.237   8.809   6.470  0.9051 -1.1499  0.5166
29932SOL    HW295633   5.178   8.811   6.331  0.0951  1.0878  0.8618
29933SOL     OW95634   0.399   1.046   9.126 -0.0066 -0.1790  0.3637
29933SOL    HW195635   0.329   0.982   9.119 -0.6400  0.2885  1.9835
29933SOL    HW295636   0.434   1.054   9.037 -0.2636 -2.3417  0.0157
29934SOL     OW95637   5.867   4.016   5.721  0.9838 -0.2435 -0.5216
29934SOL    HW195638   5.928   4.088   5.740  0.3828 -0.1413  1.1714
29934SOL    HW295639   5.825   4.041   5.638  1.7704  0.6717 -0.6614
29935SOL     OW95640   0.472   0.601   8.690 -0.5436 -0.7472 -0.2341
29935SOL    HW195641   0.421   0.524   8.663 -1.2578 -0.1512 -0.5944
29935SOL    HW295642   0.438   0.673   8.638 -0.3583 -0.0379  0.5912
29936SOL     OW95643   8.033   1.490   1.821  0.0375  0.4702 -0.2774
29936SOL    HW195644   8.045   1.450   1.907  3.6718  1.0333 -0.3587
29936SOL    HW295645   7.949   1.535   1.828 -0.3167 -0.3811  2.5844
29937SOL     OW95646   9.427   9.813  10.412 -0.1255 -0.0328 -0.1148
29937SOL    HW195647   9.431   9.849  10.501  0.2524 -1.1032  0.3240
29937SOL    HW295648   9.335   9.792  10.399 -0.6239  2.3920 -0.9468
29938SOL     OW95649   3.224   4.484   2.237  0.4769 -0.1280  0.7626
29938SOL    HW195650   3.143   4.469   2.189  0.1506  0.2678  1.1875
29938SOL    HW295651   3.291   4.493   2.169  0.1356 -0.2656  0.4065
29939SOL     OW95652   7.473   2.947   0.606 -0.1142 -0.1682 -0.0706
29939SOL    HW195653   7.512   3.013   0.548 -2.5154  1.1943 -0.2915
29939SOL    HW295654   7.547   2.909   0.652  1.5381  1.5622 -1.1337
29940SOL     OW95655   5.855   8.041   4.175 -0.1015  0.7558 -0.2449
29940SOL    HW195656   5.784   7.978   4.160 -0.2684  0.4953  1.4601
29940SOL    HW295657   5.865   8.043   4.270  3.0142 -0.1002 -0.4569
29941SOL     OW95658   4.535   0.186   1.711  0.2517 -0.3443 -0.0089
29941SOL    HW195659   4.594   0.120   1.747 -0.0963 -0.7788 -0.2207
29941SOL    HW295660   4.448   0.155   1.733  0.0956  1.1907  1.8656
29942SOL     OW95661   1.534   3.074   2.854  0.4187 -0.4762 -0.1203
29942SOL    HW195662   1.447   3.111   2.838 -0.8424 -3.1806 -0.0805
29942SOL    HW295663   1.591   3.150   2.863 -1.7431  1.3867 -1.1437
29943SOL     OW95664   3.577   6.426   2.739 -0.2896 -0.3208 -0.1496
29943SOL    HW195665   3.629   6.353   2.705 -0.1258 -0.5895  0.6586
29943SOL    HW295666   3.589   6.496   2.675  1.2849 -0.2861  0.1587
29944SOL     OW95667   9.082   3.202   3.995  0.3313  0.2740  0.1188
29944SOL    HW195668   9.023   3.145   3.947  1.4363 -0.8339  0.0383
29944SOL    HW295669   9.049   3.201   4.085 -0.0921  0.1025 -0.0380
29945SOL     OW95670   8.417   2.358   3.276 -0.3379  0.1508  0.2761
29945SOL    HW195671   8.416   2.453   3.274 -1.3468  0.1524  0.2191
29945SOL    HW295672   8.469   2.332   3.200 -1.4400  0.6443 -0.6686
29946SOL     OW95673   7.334   9.498   6.203 -0.1498  0.5846 -0.2681
29946SOL    HW195674   7.258   9.520   6.149 -1.1320  0.4293  0.9823
29946SOL    HW295675   7.298   9.492   6.292  1.0208 -1.1155  0.1293
29947SOL     OW95676   0.495   7.414   8.967 -0.0961  0.0562  0.6536
29947SOL    HW195677   0.410   7.439   9.004  0.5210  1.7882  0.9644
29947SOL    HW295678   0.549   7.492   8.975  0.7022 -0.0894 -2.1171
29948SOL     OW95679   2.661   9.296  10.547 -0.3185 -0.4522 -0.4964
29948SOL    HW195680   2.658   9.213  10.595  1.6623 -0.7810 -0.8484
29948SOL    HW295681   2.753   9.307  10.525 -0.5441  1.8660 -0.4630
29949SOL     OW95682   4.912   6.521   8.558  0.2082 -0.0320  0.3401
29949SOL    HW195683   4.896   6.528   8.464 -0.5080 -0.3538  0.4274
29949SOL    HW295684   4.880   6.603   8.595  0.4104  0.0588  0.3148
29950SOL     OW95685   9.584   3.697   2.708 -0.0799  0.2860 -0.6683
29950SOL    HW195686   9.506   3.720   2.758 -0.1691 -0.4210 -0.4708
29950SOL    HW295687   9.652   3.685   2.774 -0.5678 -2.2052 -0.5160
29951SOL     OW95688   9.958   3.991   9.154 -0.3810 -0.6650 -0.0942
29951SOL    HW195689  10.008   4.042   9.090 -1.5597 -0.0967 -0.5968
29951SOL    HW295690   9.914   4.056   9.208 -1.3954 -1.1207 -0.3306
29952SOL     OW95691   1.125  10.168   8.371  0.1621  0.2027  0.1368
29952SOL    HW195692   1.102  10.186   8.462  2.0824 -3.1947  1.4857
29952SOL    HW295693   1.211  10.207   8.359  1.5609 -2.3430  1.0956
29953SOL     OW95694   4.663   6.581   1.465  0.2681  0.1558 -0.6412
29953SOL    HW195695   4.662   6.660   1.411 -1.5339  0.4450 -0.2670
29953SOL    HW295696   4.700   6.608   1.549  0.1382  0.4816 -0.6900
29954SOL     OW95697   1.875   9.219   9.707 -0.2340  0.0252 -0.5045
29954SOL    HW195698   1.906   9.138   9.748  1.4656  0.4490 -0.8618
29954SOL    HW295699   1.797   9.193   9.657 -1.2366 -0.8532  1.4251
29955SOL     OW95700   4.466   2.406   4.703  0.3316  0.1390 -0.2593
29955SOL    HW195701   4.483   2.320   4.666 -0.7668  0.4919 -1.6532
29955SOL    HW295702   4.384   2.395   4.751  1.3860 -0.1389  1.6122
29956SOL     OW95703  10.064  10.623   6.667  0.0340  0.4922  0.0428
29956SOL    HW195704  10.113  10.549   6.631  1.5047  0.4558  2.0007
29956SOL    HW295705   9.977  10.586   6.686  0.1423 -0.2161 -0.7411
29957SOL     OW95706   6.245   0.280   2.742 -0.4693  0.1334 -0.1512
29957SOL    HW195707   6.278   0.344   2.679 -1.0902  0.0243 -0.5984
29957SOL    HW295708   6.178   0.327   2.791 -0.6067 -0.0353 -0.1735
29958SOL     OW95709   5.362  10.316   5.171  0.0840 -0.0881 -0.2915
29958SOL    HW195710   5.336  10.407   5.185 -0.6409 -0.3244 -0.1065
29958SOL    HW295711   5.382  10.283   5.258  2.1711  0.4151 -0.5063
29959SOL     OW95712   0.441  10.726  10.093 -0.4979  0.0706  0.5123
29959SOL    HW195713   0.405  10.770  10.170 -0.5317 -0.2284  0.6714
29959SOL    HW295714   0.432  10.789  10.022  0.2634  0.6466  0.9227
29960SOL     OW95715   2.069   7.367   2.053  0.0762  0.1867  0.1364
29960SOL    HW195716   2.057   7.447   2.106 -1.5862  0.2448 -0.2825
29960SOL    HW295717   2.041   7.296   2.111  1.6926 -0.1602  0.5602
29961SOL     OW95718  10.063   9.754  10.438  0.2952  0.5001  0.1040
29961SOL    HW195719   9.980   9.781  10.399  0.3400 -1.0810 -1.2082
29961SOL    HW295720  10.116   9.725  10.363  2.2039  1.8312  0.8585
29962SOL     OW95721   5.552   3.818   1.052 -0.4122  0.2505  0.0624
29962SOL    HW195722   5.573   3.881   1.121 -0.4089 -1.9331  2.1710
29962SOL    HW295723   5.636   3.801   1.010 -0.3430  1.3149 -0.2701
29963SOL     OW95724   5.628   1.925  10.212 -0.1645 -0.0096  0.8594
29963SOL    HW195725   5.621   2.020  10.223  2.6746  0.3472  0.5045
29963SOL    HW295726   5.541   1.891  10.232 -1.0770  2.6019  1.6686
29964SOL     OW95727   1.597   1.585  10.176  0.0193  0.3925 -0.1779
29964SOL    HW195728   1.645   1.655  10.219  0.5559 -0.0729 -0.0134
29964SOL    HW295729   1.516   1.627  10.145 -0.5463  0.6719  1.5682
29965SOL     OW95730   5.774   4.042   3.068 -0.2413 -0.6801 -0.4235
29965SOL    HW195731   5.687   4.072   3.041 -0.7197 -0.8970  0.7819
29965SOL    HW295732   5.826   4.043   2.988 -0.6990  1.7321 -0.7730
29966SOL     OW95733  10.901   1.484   6.155 -0.4204 -0.1678 -0.0505
29966SOL    HW195734  10.885   1.430   6.078 -0.1720 -0.7843  0.3238
29966SOL    HW295735  10.941   1.564   6.120 -0.3828 -0.4085 -0.5678
29967SOL     OW95736   3.265   0.404   4.699  0.0966  0.5072  0.1164
29967SOL    HW195737   3.180   0.363   4.715 -0.0777  0.8335  0.0455
29967SOL    HW295738   3.297   0.426   4.786  0.1463  0.3052  0.1482
29968SOL     OW95739   7.672  10.901  10.477  0.0583  0.2819  0.2809
29968SOL    HW195740   7.644  10.845  10.406  3.1197 -0.2422 -0.6475
29968SOL    HW295741   7.627  10.866  10.555 -1.0990 -0.9358 -0.8881
29969SOL     OW95742   3.621   6.700   5.823 -0.8488  0.3357  0.2898
29969SOL    HW195743   3.658   6.759   5.889  0.1366  1.0912 -0.8936
29969SOL    HW295744   3.594   6.622   5.872  1.9357 -0.0973  1.3271
29970SOL     OW95745   4.288  10.373   7.117  0.2574 -0.2559 -0.3801
29970SOL    HW195746   4.213  10.338   7.164 -0.5921  1.0643 -0.6926
29970SOL    HW295747   4.260  10.375   7.025  0.0393  1.6672 -0.3254
29971SOL     OW95748  10.643   8.207   5.487 -0.0667 -0.0769  0.2779
29971SOL    HW195749  10.653   8.302   5.498 -0.7205  0.1398 -0.8357
29971SOL    HW295750  10.725   8.179   5.448  0.2704 -0.0317  0.9481
29972SOL     OW95751   7.026   2.352   3.780  0.3260 -0.1923 -0.0186
29972SOL    HW195752   7.105   2.385   3.737  1.2984 -0.7412  1.2810
29972SOL    HW295753   7.036   2.257   3.780 -0.0589 -0.2377  0.6620
29973SOL     OW95754   3.809   2.680   7.990 -0.4880 -0.2396  0.1206
29973SOL    HW195755   3.867   2.756   7.991 -0.3849 -0.2964 -0.8775
29973SOL    HW295756   3.799   2.657   8.082  1.0368 -0.2022  0.3237
29974SOL     OW95757   6.501   7.086   9.829  0.1608 -0.2329  0.0802
29974SOL    HW195758   6.432   7.152   9.824  1.3360  1.1618  1.4008
29974SOL    HW295759   6.455   7.004   9.850 -1.0112  0.8202  1.7953
29975SOL     OW95760   5.399   0.683   9.927 -0.3900 -0.8450  0.3212
29975SOL    HW195761   5.365   0.616   9.867 -0.1093 -0.8451  0.1614
29975SOL    HW295762   5.403   0.638  10.012  0.3301 -1.2090  0.1024
29976SOL     OW95763   9.634   7.830   8.082  0.3900 -0.5508  0.0688
29976SOL    HW195764   9.678   7.891   8.142 -1.3228 -0.4452  1.2785
29976SOL    HW295765   9.680   7.842   7.998  1.4351  0.8789  0.8009
29977SOL     OW95766   5.300  10.549   5.872 -0.1582 -0.2656 -0.0662
29977SOL    HW195767   5.289  10.591   5.787  0.7870  0.5622  0.2064
29977SOL    HW295768   5.391  10.568   5.897 -0.4706 -0.3555  1.1980
29978SOL     OW95769   6.775   1.244  10.408 -0.4395 -0.7649 -0.2139
29978SOL    HW195770   6.852   1.273  10.456 -1.1113 -1.2227  1.1940
29978SOL    HW295771   6.808   1.184  10.341  0.3050 -2.1805  1.3572
29979SOL     OW95772   3.002   6.643   7.125  0.1742  0.7878 -0.0019
29979SOL    HW195773   3.007   6.596   7.042 -0.2441 -1.2474  1.0677
29979SOL    HW295774   3.092   6.665   7.146  0.3772  0.4729 -0.5228
29980SOL     OW95775   3.976   5.659   1.939 -0.4921 -0.1738 -0.2505
29980SOL    HW195776   3.940   5.576   1.971  1.8894 -1.7258 -1.3684
29980SOL    HW295777   3.985   5.647   1.845  2.3115  0.3029 -0.1192
29981SOL     OW95778   1.318   1.175   7.856 -0.0776  0.1288  0.5431
29981SOL    HW195779   1.342   1.132   7.773 -2.8533  0.9913 -0.8276
29981SOL    HW295780   1.384   1.244   7.865 -1.0975  1.6764 -2.3955
29982SOL     OW95781   7.956   2.658   8.975 -0.1155  0.1123 -0.0086
29982SOL    HW195782   7.885   2.629   8.917  0.8551 -0.6490 -0.8591
29982SOL    HW295783   7.973   2.748   8.949  1.3583 -0.6844 -2.0686
29983SOL     OW95784   4.721   4.450   9.672  0.0571 -0.1866 -0.0392
29983SOL    HW195785   4.719   4.383   9.604 -0.6649 -0.4168  0.2058
29983SOL    HW295786   4.760   4.406   9.748 -0.0445 -0.2083 -0.0005
29984SOL     OW95787   7.176  10.313   4.755 -0.0004  0.2214  0.4210
29984SOL    HW195788   7.219  10.255   4.691 -1.1721  0.8592 -0.9937
29984SOL    HW295789   7.192  10.401   4.721 -0.9593  0.5499  0.8159
29985SOL     OW95790   4.348   8.275  10.330  0.0652 -0.1929  0.0151
29985SOL    HW195791   4.395   8.354  10.359 -2.7969  0.9566  2.0112
29985SOL    HW295792   4.318   8.234  10.411 -1.6319 -1.3065 -1.1136
29986SOL     OW95793   6.588   3.227   0.953  0.0714 -0.3406  0.2911
29986SOL    HW195794   6.598   3.146   1.003 -1.0463  1.0180  2.9813
29986SOL    HW295795   6.678   3.258   0.940  0.4297 -1.0516  0.9492
29987SOL     OW95796   0.879   4.564  10.009  0.1131  0.0703  0.1195
29987SOL    HW195797   0.832   4.565  10.093 -0.4575 -1.7743 -0.1312
29987SOL    HW295798   0.931   4.483  10.012 -0.4079 -0.3557 -1.5398
29988SOL     OW95799   4.206   2.942   8.873 -0.7663 -0.4492 -0.2231
29988SOL    HW195800   4.268   2.916   8.804 -0.1288  1.2016 -0.3076
29988SOL    HW295801   4.120   2.938   8.832 -0.5498 -1.0428 -0.6274
29989SOL     OW95802   8.995   5.070   8.163 -0.4363 -0.6986 -0.3926
29989SOL    HW195803   8.921   5.086   8.223  0.1655 -0.4808  0.3078
29989SOL    HW295804   8.953   5.053   8.079 -1.2796  0.1491 -0.1770
29990SOL     OW95805   0.181   7.268   8.906  0.4243 -0.0762 -0.6216
29990SOL    HW195806   0.148   7.297   8.992 -0.2572 -0.8749 -0.6019
29990SOL    HW295807   0.122   7.311   8.843  0.8476  0.4103 -0.6948
29991SOL     OW95808   7.224   2.834   5.215  0.0010  0.0477 -0.5604
29991SOL    HW195809   7.130   2.819   5.228 -0.2307  1.5894 -0.3372
29991SOL    HW295810   7.255   2.754   5.172 -0.9767 -1.4109  1.2692
29992SOL     OW95811  10.715   3.305   8.363  0.4102 -0.3624 -0.3313
29992SOL    HW195812  10.639   3.362   8.377 -0.7029 -1.4556 -1.5501
29992SOL    HW295813  10.694   3.225   8.412  1.7352  0.0525  0.9751
29993SOL     OW95814   2.693   5.234   9.923 -0.4059 -0.4482  0.4101
29993SOL    HW195815   2.779   5.212   9.960 -1.5338 -3.9179  1.2536
29993SOL    HW295816   2.634   5.235   9.998 -1.5692 -0.7864 -0.4737
29994SOL     OW95817   3.467   9.455   8.835 -0.1794  1.0796  0.2363
29994SOL    HW195818   3.434   9.524   8.778  0.7416 -0.4137 -2.2403
29994SOL    HW295819   3.416   9.377   8.811  2.5074 -0.3887 -1.0664
29995SOL     OW95820   4.201   0.270   4.351  0.5721  0.2311  0.4449
29995SOL    HW195821   4.261   0.205   4.313  1.0126 -0.1925  1.8089
29995SOL    HW295822   4.127   0.219   4.382 -0.2520  0.6923 -0.7082
29996SOL     OW95823   1.425   4.982   9.030 -0.3168 -0.4245  0.3981
29996SOL    HW195824   1.498   4.921   9.018  0.2265  0.1687  0.6683
29996SOL    HW295825   1.347   4.926   9.031 -0.0887 -0.8933 -2.0222
29997SOL     OW95826   7.711   3.709  10.808 -0.1799 -0.2453 -0.1439
29997SOL    HW195827   7.700   3.777  10.742 -1.5919 -0.0838  0.2270
29997SOL    HW295828   7.806   3.702  10.820 -0.0039  1.5806 -0.2532
29998SOL     OW95829   2.677   1.245   4.267 -0.1088  0.1571  0.1300
29998SOL    HW195830   2.606   1.306   4.247  0.1621  0.2098 -0.7392
29998SOL    HW295831   2.749   1.301   4.295  0.0633  0.2326 -0.4396
29999SOL     OW95832   1.015   5.732   9.449 -0.2674 -0.0694 -0.2866
29999SOL    HW195833   1.017   5.636   9.444  1.5393 -0.0214 -1.0038
29999SOL    HW295834   1.093   5.755   9.499 -0.9593  1.0286  0.3289
30000SOL     OW95835   2.212   6.938   7.908  0.3526  0.2388  0.1454
30000SOL    HW195836   2.288   6.931   7.966 -0.0181  0.4197  0.6536
30000SOL    HW295837   2.148   6.988   7.957 -0.2989 -0.3568 -0.0742
30001SOL     OW95838   1.316   0.001   6.126 -0.0713  0.4385  1.2029
30001SOL    HW195839   1.377  -0.072   6.137  1.4352  1.7413  1.9903
30001SOL    HW295840   1.235  -0.030   6.166  0.6258 -0.7044  1.8067
30002SOL     OW95841   6.634   3.479   0.733 -0.2886 -1.1853 -0.1535
30002SOL    HW195842   6.618   3.567   0.699  2.2909 -0.4203  0.4412
30002SOL    HW295843   6.584   3.475   0.815  0.0547 -0.0457  0.1251
30003SOL     OW95844   8.878   9.055   7.406 -0.2470 -0.5596  0.9412
30003SOL    HW195845   8.903   8.972   7.445  1.8481 -0.3738  0.1185
30003SOL    HW295846   8.915   9.121   7.463  2.8487 -0.2830 -1.1323
30004SOL     OW95847   9.167   4.878   9.909  0.4825 -0.5525  0.2367
30004SOL    HW195848   9.234   4.820   9.943 -0.4392 -0.3699  2.5624
30004SOL    HW295849   9.100   4.881   9.978 -0.2937  1.9311 -0.4992
30005SOL     OW95850   8.718   7.204   1.113 -0.5026 -0.1107 -0.1146
30005SOL    HW195851   8.769   7.126   1.134  1.0974  1.0435  0.4888
30005SOL    HW295852   8.630   7.186   1.148 -0.0854 -1.4984  0.2798
30006SOL     OW95853   1.142   5.357   4.188 -0.2552  0.6644 -0.1529
30006SOL    HW195854   1.216   5.298   4.202 -1.0297 -0.0631  1.0569
30006SOL    HW295855   1.100   5.324   4.109 -1.2003 -1.0337  0.9858
30007SOL     OW95856   2.866   4.858   6.916 -0.0626 -0.1723  0.1391
30007SOL    HW195857   2.825   4.912   6.983 -1.9428 -0.3237 -0.8212
30007SOL    HW295858   2.796   4.801   6.884  0.5323  0.4211 -2.4853
30008SOL     OW95859   4.720   5.983   6.489 -0.5741  0.2022 -0.0609
30008SOL    HW195860   4.666   5.917   6.531  1.9652 -0.9826  1.6071
30008SOL    HW295861   4.792   5.934   6.450  1.3638  1.8919  1.1587
30009SOL     OW95862   6.094   2.768   4.817 -0.5494 -0.1233 -0.3401
30009SOL    HW195863   6.077   2.730   4.903 -1.5146  0.5294 -0.2293
30009SOL    HW295864   6.168   2.717   4.783  0.9563  0.6852  1.5541
30010SOL     OW95865   7.238   2.682   5.910 -0.5478 -0.2038 -0.3179
30010SOL    HW195866   7.146   2.706   5.904 -0.0908  2.4014  1.3713
30010SOL    HW295867   7.247   2.642   5.997 -0.0245 -0.1154 -0.3270
30011SOL     OW95868   1.183   8.141  10.084  0.3223  0.4769  0.1506
30011SOL    HW195869   1.245   8.170  10.151 -1.3988 -0.2155  2.1590
30011SOL    HW295870   1.193   8.046  10.082 -0.3495  0.4057  0.1501
30012SOL     OW95871   9.090   8.919   2.407 -0.2557  0.1258 -0.4055
30012SOL    HW195872   9.080   8.824   2.410 -1.5722  0.2547  0.0961
30012SOL    HW295873   9.014   8.949   2.357  0.2351  0.9132 -0.7033
30013SOL     OW95874   1.260   2.461   2.767 -0.3105 -0.3151 -0.8715
30013SOL    HW195875   1.259   2.557   2.767  0.5084 -0.2416  1.9406
30013SOL    HW295876   1.172   2.437   2.737 -1.4604  1.4015  0.8532
30014SOL     OW95877   8.498   6.598   3.512 -0.1156 -0.1719 -0.2954
30014SOL    HW195878   8.486   6.549   3.430  0.3728  2.2026 -1.8869
30014SOL    HW295879   8.411   6.601   3.550 -0.8811  0.6442 -1.9736
30015SOL     OW95880   7.690   3.020  10.452  0.4371  1.1814  0.3396
30015SOL    HW195881   7.777   2.980  10.453  1.4271  3.1649  0.2131
30015SOL    HW295882   7.684   3.066  10.536  0.8154  3.5021 -0.8087
30016SOL     OW95883   2.244   2.763   8.544 -0.1656 -0.5931 -0.0350
30016SOL    HW195884   2.193   2.716   8.479  0.0585  1.2786 -1.6747
30016SOL    HW295885   2.190   2.839   8.568  2.7256  3.3768 -4.3056
30017SOL     OW95886   7.186   8.833   9.063 -0.0528 -0.2398  0.1656
30017SOL    HW195887   7.213   8.818   8.972  0.5792 -2.2006  0.6365
30017SOL    HW295888   7.145   8.751   9.090 -0.1200  0.2660  1.7012
30018SOL     OW95889   7.999   9.873   7.909 -0.0784 -0.0801 -0.1967
30018SOL    HW195890   7.930   9.805   7.911 -1.1787  0.9961 -0.2231
30018SOL    HW295891   7.956   9.950   7.945  0.6875  1.0069 -1.5427
30019SOL     OW95892  10.688   6.651   7.927 -0.2701  0.2322  0.3610
30019SOL    HW195893  10.650   6.591   7.991  1.0666 -0.8608  0.1888
30019SOL    HW295894  10.781   6.655   7.951 -0.1436  1.4160 -0.2828
30020SOL     OW95895   6.861   9.892   5.137  0.7844  0.2488  0.2832
30020SOL    HW195896   6.891   9.979   5.163  0.7604  0.5023 -0.5324
30020SOL    HW295897   6.921   9.832   5.183  0.6146  0.6750  1.0856
30021SOL     OW95898   3.420   4.744   8.542  0.0141  0.6624  0.3272
30021SOL    HW195899   3.375   4.828   8.547 -0.5352  0.4631 -0.9158
30021SOL    HW295900   3.350   4.679   8.539  0.4182  0.2224  0.3357
30022SOL     OW95901  10.406   9.738   7.525 -0.2570 -0.2461 -0.5055
30022SOL    HW195902  10.415   9.642   7.530 -0.5829 -0.2673 -0.3451
30022SOL    HW295903  10.312   9.754   7.533 -0.0860  0.1702  0.7397
30023SOL     OW95904   1.866   6.682   5.104  0.3198  0.2528 -0.4506
30023SOL    HW195905   1.888   6.764   5.060  3.4434 -0.5450 -0.6611
30023SOL    HW295906   1.842   6.707   5.193  0.6997  1.4460 -0.6736
30024SOL     OW95907   7.721   9.137   7.467  0.6426 -0.4634  0.2404
30024SOL    HW195908   7.770   9.070   7.420  2.0333  1.1928 -0.7999
30024SOL    HW295909   7.704   9.205   7.402  0.8152  0.9845  1.6452
30025SOL     OW95910   3.973   7.205   5.310 -0.1660  0.1287 -0.1963
30025SOL    HW195911   4.003   7.261   5.382  2.5329 -2.0850  0.5943
30025SOL    HW295912   3.900   7.155   5.346 -0.6785  1.0216  0.0307
30026SOL     OW95913   1.611   5.718   5.522 -0.1315 -0.2187  0.2192
30026SOL    HW195914   1.623   5.628   5.492 -2.9389 -0.8057  0.5237
30026SOL    HW295915   1.550   5.756   5.458 -2.6426 -0.0890  2.5011
30027SOL     OW95916   8.383   9.577  10.445  0.3140  0.1379 -0.1648
30027SOL    HW195917   8.365   9.660  10.490  1.2971  0.0918  0.3380
30027SOL    HW295918   8.301   9.557  10.399 -0.1855  1.0049  0.3076
30028SOL     OW95919   8.154   8.735   5.128  0.2141  0.4283 -0.3901
30028SOL    HW195920   8.159   8.727   5.033  1.0512 -1.2947 -0.2489
30028SOL    HW295921   8.061   8.726   5.148  0.0569  0.5874 -1.0451
30029SOL     OW95922   4.636   1.646   6.604  0.0322  0.3542 -0.0364
30029SOL    HW195923   4.603   1.703   6.534 -3.1491 -0.2423  0.8169
30029SOL    HW295924   4.658   1.705   6.675  1.8113  0.8461 -0.9454
30030SOL     OW95925   9.451   4.135   8.233 -0.0383  0.9422  0.5602
30030SOL    HW195926   9.486   4.191   8.164  1.3368  1.1990  1.4361
30030SOL    HW295927   9.359   4.122   8.209  0.4687  0.7582 -1.4805
30031SOL     OW95928   6.744   7.377   5.682  0.5577 -0.3541 -0.0761
30031SOL    HW195929   6.821   7.349   5.633  1.5796  2.2425 -0.0897
30031SOL    HW295930   6.778   7.409   5.765 -0.6784 -0.4661  0.4942
30032SOL     OW95931   9.998  10.106  10.752 -0.2997  0.6842 -0.5805
30032SOL    HW195932   9.913  10.069  10.728  0.6381 -1.6420 -0.5800
30032SOL    HW295933  10.034  10.044  10.816  2.8458 -0.3635 -3.1064
30033SOL     OW95934   3.471   2.979   4.852  0.1480  0.3450 -0.0838
30033SOL    HW195935   3.458   2.951   4.761  0.0530  2.7022 -0.8866
30033SOL    HW295936   3.532   2.915   4.888 -0.6123 -1.2554 -1.4603
30034SOL     OW95937   8.449  10.872   3.612  0.5455  0.3373 -0.0616
30034SOL    HW195938   8.411  10.795   3.569  1.9180 -0.2715 -0.2318
30034SOL    HW295939   8.503  10.914   3.545  0.0131  1.3236  0.1032
30035SOL     OW95940   0.562   5.533   2.019 -0.0302  0.3140 -0.1854
30035SOL    HW195941   0.639   5.480   2.041 -0.2666  0.3016  0.6605
30035SOL    HW295942   0.556   5.596   2.091  0.8533  2.1906 -1.6815
30036SOL     OW95943   3.936   7.147   2.969 -0.1945 -0.2797 -0.2693
30036SOL    HW195944   3.900   7.093   3.040  0.6800  0.2312  0.5987
30036SOL    HW295945   3.861   7.167   2.913 -1.0843  0.0249  0.9935
30037SOL     OW95946   3.327   2.237   0.227 -0.0099  0.2111  0.5636
30037SOL    HW195947   3.291   2.281   0.304  2.0138  0.1351  1.6186
30037SOL    HW295948   3.418   2.264   0.224 -0.5496  2.3795 -3.4328
30038SOL     OW95949   0.945   8.484   6.707  0.1254  0.3513 -0.2867
30038SOL    HW195950   0.985   8.566   6.678 -0.9829  0.9676 -0.1314
30038SOL    HW295951   0.854   8.507   6.725  0.3943 -0.2973  2.3688
30039SOL     OW95952   7.296   7.607   5.808  0.1371 -0.1014 -0.1536
30039SOL    HW195953   7.303   7.584   5.715  0.1846 -1.1833  0.1127
30039SOL    HW295954   7.331   7.531   5.855  0.9998  0.8033  0.7393
30040SOL     OW95955   6.143   2.919   3.804 -0.4144 -0.3225 -0.0728
30040SOL    HW195956   6.222   2.918   3.857 -1.1681  0.3681  1.1040
30040SOL    HW295957   6.083   2.978   3.850 -0.9036  0.7595 -1.9869
30041SOL     OW95958   9.561   0.617   2.579  0.4385 -0.4149 -0.3996
30041SOL    HW195959   9.473   0.582   2.576  1.7723 -4.8229  2.3169
30041SOL    HW295960   9.594   0.608   2.489 -1.1017 -0.9337 -0.9423
30042SOL     OW95961   3.674   2.130   3.285  0.5297  0.4062 -0.0746
30042SOL    HW195962   3.664   2.037   3.306  0.3159  0.1321 -1.2635
30042SOL    HW295963   3.594   2.171   3.318  0.2505  0.0169 -0.2510
30043SOL     OW95964   3.801   3.801   6.924 -0.0343 -0.2775 -0.2831
30043SOL    HW195965   3.829   3.887   6.892 -1.7433  0.4258  0.0376
30043SOL    HW295966   3.737   3.820   6.992  0.4978 -1.8091  0.6900
30044SOL     OW95967   2.526  10.873   7.737 -0.3866  0.1948 -0.0091
30044SOL    HW195968   2.560  10.802   7.790 -2.0031  0.0416  0.9026
30044SOL    HW295969   2.433  10.878   7.761 -0.8681  0.9906 -1.8699
30045SOL     OW95970   8.733   6.038   4.318 -0.3043 -0.2105 -0.1085
30045SOL    HW195971   8.777   6.024   4.234 -0.7625 -0.7365 -0.2650
30045SOL    HW295972   8.695   5.953   4.340  0.3878 -0.2609  0.9752
30046SOL     OW95973   2.727   7.274   0.115 -0.6339  0.5580 -0.7858
30046SOL    HW195974   2.789   7.238   0.179 -2.3290 -0.9084  0.1029
30046SOL    HW295975   2.762   7.361   0.095 -0.4064  1.4284  2.7142
30047SOL     OW95976   9.300   8.057   6.274  0.8409  0.1031 -0.0690
30047SOL    HW195977   9.346   8.002   6.210  1.8953  0.3640  0.4393
30047SOL    HW295978   9.332   8.026   6.359  0.7654  0.8983  0.2567
30048SOL     OW95979   1.886   7.868   5.987  0.0777  0.4956  0.3129
30048SOL    HW195980   1.925   7.837   6.068  0.2877  1.9984  0.8054
30048SOL    HW295981   1.802   7.905   6.013 -0.7545 -0.7537 -0.4464
30049SOL     OW95982   1.866   6.440   7.411  0.3570 -0.9018 -0.1079
30049SOL    HW195983   1.887   6.505   7.479  2.1634 -2.1717  0.6068
30049SOL    HW295984   1.780   6.468   7.379 -0.0174  0.4558  1.8346
30050SOL     OW95985   7.072   2.729   4.903  0.6261 -0.0035 -0.1397
30050SOL    HW195986   7.153   2.703   4.946  1.4598 -1.1290 -2.2656
30050SOL    HW295987   7.099   2.795   4.839 -0.1462 -0.3413 -0.8243
30051SOL     OW95988   1.253   1.156   4.923 -0.4967  0.4809  0.3794
30051SOL    HW195989   1.245   1.095   4.850 -1.4909 -1.4034  1.9897
30051SOL    HW295990   1.222   1.240   4.887  1.9945  0.4462 -2.2201
30052SOL     OW95991   6.302   7.659  10.210 -0.7271  0.6269  0.0946
30052SOL    HW195992   6.233   7.647  10.144 -1.2818 -0.1012  0.7858
30052SOL    HW295993   6.370   7.596  10.185  0.1442  2.0023 -1.1381
30053SOL     OW95994   9.544   1.059   1.977  0.6284 -0.3591 -0.4965
30053SOL    HW195995   9.465   1.057   2.031  1.0313 -1.9380  0.0904
30053SOL    HW295996   9.526   0.997   1.906  1.8356 -1.8514  0.4377
30054SOL     OW95997   1.611   4.799   4.312  0.7550 -0.4971 -0.3395
30054SOL    HW195998   1.692   4.845   4.290  1.8841 -0.9034  2.5204
30054SOL    HW295999   1.609   4.798   4.408 -0.5571 -4.0281 -0.2418
30055SOL     OW96000   1.307   5.150   6.278 -0.6581 -0.1549 -0.2402
30055SOL    HW196001   1.349   5.079   6.228 -2.2733  0.0694 -2.0163
30055SOL    HW296002   1.351   5.148   6.363  3.7073  0.7296 -2.2050
30056SOL     OW96003   6.591   1.216   7.913 -0.0613  0.2328 -0.1381
30056SOL    HW196004   6.548   1.297   7.940 -0.6077 -0.1164  0.0697
30056SOL    HW296005   6.578   1.156   7.987 -0.3985 -0.3086 -0.6201
30057SOL     OW96006   1.861   7.213   1.131 -0.3882 -0.2764  0.3263
30057SOL    HW196007   1.859   7.234   1.224  1.9029  0.6420  0.2420
30057SOL    HW296008   1.824   7.290   1.088 -0.8350 -0.4269  0.4348
30058SOL     OW96009   6.244   1.661   7.323  0.0346 -0.7910 -0.1868
30058SOL    HW196010   6.268   1.627   7.237  0.6543 -0.2116 -0.2508
30058SOL    HW296011   6.253   1.586   7.382  1.6018 -0.7217 -0.2910
30059SOL     OW96012   5.622   0.743   6.251  0.1357 -0.1421  0.4923
30059SOL    HW196013   5.564   0.715   6.322 -0.0588 -0.5913  0.1642
30059SOL    HW296014   5.703   0.692   6.265  0.8765  1.2703  1.5794
30060SOL     OW96015   6.362   0.672   2.300 -0.1292 -0.1055  0.2770
30060SOL    HW196016   6.269   0.678   2.280 -0.3830 -4.0062 -0.6173
30060SOL    HW296017   6.405   0.732   2.239 -1.9803  1.1181  0.1262
30061SOL     OW96018   5.533   6.253   5.153  0.6251 -0.5447 -0.0278
30061SOL    HW196019   5.480   6.290   5.223 -0.9638  0.1638 -1.5506
30061SOL    HW296020   5.509   6.160   5.151  0.6000 -0.5444  0.2890
30062SOL     OW96021   8.785   7.467   3.262 -0.4201  0.2240 -0.1330
30062SOL    HW196022   8.836   7.548   3.267  2.3071 -1.3291 -0.5113
30062SOL    HW296023   8.723   7.483   3.191  0.4664  1.7762 -0.6307
30063SOL     OW96024   7.060   6.123   2.992 -0.2999 -0.1483 -0.0530
30063SOL    HW196025   7.115   6.192   2.957  0.5470 -1.2358 -0.9407
30063SOL    HW296026   6.982   6.123   2.936  0.5360 -1.1183 -1.2744
30064SOL     OW96027   2.233   1.064   6.891 -0.2640  0.2535  0.1767
30064SOL    HW196028   2.184   0.987   6.862 -0.8519  1.0470 -1.0605
30064SOL    HW296029   2.318   1.055   6.849 -0.8123  0.9476 -1.1677
30065SOL     OW96030  10.715   3.057   3.721  0.1440  0.1320 -0.2101
30065SOL    HW196031  10.748   3.019   3.640  0.1578 -0.3208  0.0054
30065SOL    HW296032  10.707   2.983   3.782  0.7713  0.5605  0.4141
30066SOL     OW96033   8.403  10.198   9.774 -0.3329 -0.2474  0.0047
30066SOL    HW196034   8.423  10.291   9.788  0.8503 -0.5430  0.3714
30066SOL    HW296035   8.478  10.152   9.812 -0.4584 -1.3228 -1.0215
30067SOL     OW96036   2.499   7.549   8.407  0.6290  0.0041  0.5196
30067SOL    HW196037   2.532   7.467   8.371  1.5584  0.3356  0.5920
30067SOL    HW296038   2.463   7.596   8.332 -1.2209 -1.0484  0.6825
30068SOL     OW96039   8.640  10.144   5.792 -0.1943 -0.5865  0.1335
30068SOL    HW196040   8.722  10.192   5.792  0.3294 -1.4463  0.6901
30068SOL    HW296041   8.582  10.194   5.849  0.0565 -0.1659  0.0177
30069SOL     OW96042   0.576   8.247   5.665  0.3685  0.6747  0.0079
30069SOL    HW196043   0.557   8.340   5.654 -0.5070  0.7934  2.0934
30069SOL    HW296044   0.628   8.243   5.746 -1.3690 -0.7752  1.1323
30070SOL     OW96045   9.945   5.784   9.579 -0.4418  0.1648  0.0573
30070SOL    HW196046   9.993   5.756   9.657 -0.9859 -3.0970 -0.6492
30070SOL    HW296047  10.013   5.801   9.514 -0.0856 -1.8306 -0.1441
30071SOL     OW96048   0.136   7.457   0.675  0.1295  0.3735  0.2218
30071SOL    HW196049   0.218   7.494   0.708 -0.1097  0.8664  0.2656
30071SOL    HW296050   0.129   7.490   0.586 -0.1980  0.6245  0.3380
30072SOL     OW96051   1.357   7.887   4.359 -0.1374  0.5614 -0.1343
30072SOL    HW196052   1.289   7.849   4.303  0.7637 -0.0765 -0.8303
30072SOL    HW296053   1.320   7.970   4.389 -1.0151  0.4782 -0.9282
30073SOL     OW96054   9.456   2.175   0.103  0.6831 -0.0754  0.1487
30073SOL    HW196055   9.550   2.183   0.087  0.6351 -1.1410 -0.7299
30073SOL    HW296056   9.445   2.088   0.141 -0.0097 -0.1633 -0.2372
30074SOL     OW96057   6.176   6.767   0.767  0.5207  0.0602 -0.0911
30074SOL    HW196058   6.247   6.793   0.708  2.8636 -0.0038  2.4654
30074SOL    HW296059   6.179   6.672   0.769  0.0712  0.0403 -0.2877
30075SOL     OW96060   9.443   1.195   6.000 -0.3540 -0.4235 -0.1775
30075SOL    HW196061   9.357   1.218   5.964 -0.2178  0.9232  0.2998
30075SOL    HW296062   9.453   1.252   6.076  0.0167 -2.1419  1.1319
30076SOL     OW96063   8.036   8.725   7.408 -0.2192 -0.2382  0.0349
30076SOL    HW196064   8.002   8.755   7.324  0.7506 -0.2501 -0.3747
30076SOL    HW296065   7.980   8.651   7.431  1.7229 -2.7158 -2.4586
30077SOL     OW96066   5.226   5.794   1.598  0.2719  0.0265 -0.3898
30077SOL    HW196067   5.254   5.851   1.527  1.2832  0.8518  0.6134
30077SOL    HW296068   5.215   5.708   1.558 -0.4408  0.7381 -1.7699
30078SOL     OW96069   0.729   6.082   9.812  0.0897 -0.3962  0.6455
30078SOL    HW196070   0.707   6.113   9.724 -0.7165 -0.1880  0.9112
30078SOL    HW296071   0.678   6.138   9.870  1.2392  0.0091  1.2964
30079SOL     OW96072  10.286   2.772   4.748  0.1703  0.1429 -0.0969
30079SOL    HW196073  10.325   2.684   4.752  1.6822  0.7789 -0.4515
30079SOL    HW296074  10.197   2.756   4.715  0.8264 -1.1471 -1.3954
30080SOL     OW96075  10.921   5.080   1.757 -0.2141 -0.5241  0.1281
30080SOL    HW196076  10.972   5.005   1.724  0.9570 -0.6026  1.9475
30080SOL    HW296077  10.853   5.094   1.691  0.4639 -2.2248 -1.0062
30081SOL     OW96078   6.066   3.148   4.333  0.2617 -0.2615  0.0838
30081SOL    HW196079   5.988   3.157   4.278  0.4309 -0.4266 -0.1873
30081SOL    HW296080   6.032   3.131   4.421 -0.0104 -1.3615 -0.2219
30082SOL     OW96081   5.974   2.168   4.374  0.1427 -0.0461  0.0253
30082SOL    HW196082   6.069   2.170   4.380  0.0786  2.0403  1.1347
30082SOL    HW296083   5.943   2.193   4.461 -1.3969  0.8933 -0.7420
30083SOL     OW96084   6.616   2.426   1.574 -0.3496  0.4716 -0.0626
30083SOL    HW196085   6.533   2.445   1.617  0.1988  1.4629  0.6134
30083SOL    HW296086   6.651   2.513   1.552  1.0234  0.1342  0.6884
30084SOL     OW96087   8.463   0.816   9.876 -0.0519 -0.2967 -0.2950
30084SOL    HW196088   8.400   0.766   9.825 -0.9676 -0.5031  1.0089
30084SOL    HW296089   8.548   0.789   9.841 -0.5872 -1.6336 -0.6218
30085SOL     OW96090   6.200   7.781   5.993  0.2314  0.6466 -0.2861
30085SOL    HW196091   6.230   7.823   5.912  0.7248  1.1884  0.1712
30085SOL    HW296092   6.110   7.812   6.003  0.1091  0.4439 -0.7111
30086SOL     OW96093   9.377   5.067   6.427 -0.0016  0.2974  0.1873
30086SOL    HW196094   9.424   5.050   6.509 -1.6018 -2.6219  0.6494
30086SOL    HW296095   9.286   5.080   6.454 -0.1774  1.8093 -0.9934
30087SOL     OW96096   1.648   5.396   3.092 -0.0249 -0.1872 -1.1414
30087SOL    HW196097   1.734   5.409   3.133  0.2989 -2.4609 -0.9673
30087SOL    HW296098   1.630   5.303   3.104 -3.7790  0.6139  1.2707
30088SOL     OW96099   8.143   3.815   3.235 -0.2044  0.0322  0.1611
30088SOL    HW196100   8.131   3.735   3.183  2.1349 -0.7650  0.7317
30088SOL    HW296101   8.149   3.784   3.325 -1.4764  1.1271  0.6534
30089SOL     OW96102  10.512   0.597   5.611 -0.2228 -0.3545 -0.0450
30089SOL    HW196103  10.590   0.578   5.664 -0.3562 -1.1195 -0.1140
30089SOL    HW296104  10.453   0.642   5.671  0.9226  1.8158 -0.4314
30090SOL     OW96105   7.188   2.084   1.674  0.4168 -0.3923  0.5220
30090SOL    HW196106   7.245   2.072   1.750  0.3105  0.7279  0.7896
30090SOL    HW296107   7.244   2.121   1.607 -0.0462  1.0555  0.9003
30091SOL     OW96108   8.561   4.862   1.683 -0.0777  0.5594  0.0584
30091SOL    HW196109   8.620   4.915   1.737 -1.1122  1.5916  0.2095
30091SOL    HW296110   8.578   4.772   1.711 -0.3875  1.0362  1.9338
30092SOL     OW96111   6.863   4.724   5.331  0.0427  0.1088  0.1930
30092SOL    HW196112   6.813   4.744   5.252  2.5324  1.6245 -1.1616
30092SOL    HW296113   6.945   4.686   5.299  1.7914  2.1696  1.8132
30093SOL     OW96114   5.426   4.884   2.986  0.3065  0.1888 -0.1738
30093SOL    HW196115   5.330   4.890   2.991  0.2442  1.4639 -1.8029
30093SOL    HW296116   5.445   4.791   2.996 -1.0397 -0.0069  0.8266
30094SOL     OW96117   2.296  10.396   8.907 -0.5411 -0.3016  0.2007
30094SOL    HW196118   2.263  10.313   8.873 -2.3693  0.7041 -0.6767
30094SOL    HW296119   2.366  10.372   8.967  1.7332 -2.2960 -2.9543
30095SOL     OW96120   6.180   9.144   6.016  0.2322  0.0808  0.0021
30095SOL    HW196121   6.211   9.209   5.952 -1.9011 -1.2105 -2.5463
30095SOL    HW296122   6.256   9.089   6.031  2.3234  3.3005  2.7393
30096SOL     OW96123   1.607   5.646   9.111  0.0017  0.4345 -0.2013
30096SOL    HW196124   1.649   5.568   9.074 -0.0211  0.9159 -1.2982
30096SOL    HW296125   1.524   5.615   9.146  0.2331 -0.1230 -0.1313
30097SOL     OW96126   5.211   3.210   0.007  0.0244  0.3395  0.0566
30097SOL    HW196127   5.282   3.255   0.053  1.2828 -0.9122 -0.5778
30097SOL    HW296128   5.154   3.177   0.077  0.8553  0.1089  0.6350
30098SOL     OW96129   3.858   2.493   4.842  0.5588 -0.5433  0.4778
30098SOL    HW196130   3.921   2.493   4.915  0.2409  0.1702  0.7699
30098SOL    HW296131   3.904   2.448   4.771  1.7936  0.7868  0.3671
30099SOL     OW96132   4.105   4.891   4.233 -0.2307  0.1450  0.3118
30099SOL    HW196133   4.175   4.956   4.232 -0.5351  0.4843  0.5669
30099SOL    HW296134   4.146   4.811   4.201  0.3011  0.3092  0.5632
30100SOL     OW96135   3.023   5.961   2.049 -0.7554  0.5623 -0.0589
30100SOL    HW196136   3.107   5.919   2.068 -0.7972  0.3536 -0.3257
30100SOL    HW296137   2.967   5.890   2.019 -1.0513  0.6894  0.1922
30101SOL     OW96138   3.356   9.823   1.617 -0.2465 -0.5994 -0.4323
30101SOL    HW196139   3.267   9.824   1.581 -0.3788 -0.8616 -0.1231
30101SOL    HW296140   3.407   9.879   1.558  0.1268 -2.9531 -2.5721
30102SOL     OW96141   7.035   1.999   5.398  0.1941  0.3863 -0.1930
30102SOL    HW196142   7.121   1.974   5.364  0.6972  1.1173  0.5000
30102SOL    HW296143   7.034   1.966   5.488  0.5233  2.0095  0.4431
30103SOL     OW96144   0.065   1.367   0.642  0.1111 -0.3664 -0.2236
30103SOL    HW196145  -0.014   1.328   0.604  0.0448  0.5398 -1.0598
30103SOL    HW296146   0.043   1.382   0.734  0.1405 -2.2443  0.1389
30104SOL     OW96147   8.290   5.915   6.610  0.0854 -0.0528  0.0104
30104SOL    HW196148   8.284   6.008   6.632 -1.1929 -0.3994  1.2976
30104SOL    HW296149   8.202   5.881   6.627  0.4548 -1.4500 -0.7388
30105SOL     OW96150   0.120   5.379   6.755 -0.2242  0.1122  0.0081
30105SOL    HW196151   0.064   5.326   6.698 -0.4861  2.6102 -2.2854
30105SOL    HW296152   0.205   5.381   6.709 -0.3863  2.0459 -0.3107
30106SOL     OW96153   8.820   9.252   4.512 -0.3858 -0.4197 -0.0004
30106SOL    HW196154   8.864   9.296   4.585  0.1475 -0.2715 -0.4037
30106SOL    HW296155   8.729   9.279   4.520 -0.0332  0.9490 -0.3664
30107SOL     OW96156   7.694   2.503   8.482 -0.4770  0.0941  0.2584
30107SOL    HW196157   7.600   2.498   8.503 -0.3847  0.9905  0.8888
30107SOL    HW296158   7.712   2.420   8.436 -2.1509  0.9625 -2.2126
30108SOL     OW96159   3.744  10.381   3.094 -0.0737  0.4084 -0.0837
30108SOL    HW196160   3.673  10.329   3.056 -0.3747  1.2203 -0.6661
30108SOL    HW296161   3.822  10.328   3.082 -0.1763  0.5916 -1.7825
30109SOL     OW96162   4.636   6.881   8.132 -0.0446 -0.5537  0.3696
30109SOL    HW196163   4.721   6.910   8.166 -0.2416  0.3841  0.0903
30109SOL    HW296164   4.658   6.839   8.049  0.5699 -3.8915  2.0646
30110SOL     OW96165  10.025   6.192   6.994 -0.2430  0.1257  0.0484
30110SOL    HW196166   9.930   6.200   7.003 -0.2520  0.2494 -0.1416
30110SOL    HW296167  10.055   6.166   7.081 -0.2222  2.2650  0.7527
30111SOL     OW96168   6.237   5.725   8.567  0.2505  1.1070 -0.0921
30111SOL    HW196169   6.153   5.695   8.533 -0.1373  0.7276  1.1556
30111SOL    HW296170   6.216   5.804   8.616  0.5951  0.9337  0.3414
30112SOL     OW96171   6.119   4.821   1.155  0.4065 -0.2208 -0.2519
30112SOL    HW196172   6.211   4.794   1.164  0.6503  0.6098 -0.1822
30112SOL    HW296173   6.117   4.872   1.074 -0.2550 -1.2709 -0.9224
30113SOL     OW96174   5.914  10.349   5.954  0.2821 -0.0178  0.2261
30113SOL    HW196175   5.884  10.352   5.863  0.4204 -0.0943  0.1777
30113SOL    HW296176   5.887  10.263   5.986  0.5117 -0.1177  0.1593
30114SOL     OW96177   3.870   6.172   8.670  0.5860  0.5220 -0.0476
30114SOL    HW196178   3.789   6.121   8.667  0.8276  0.1164  0.3733
30114SOL    HW296179   3.940   6.108   8.664  0.8989  0.7592  0.8974
30115SOL     OW96180   8.449   5.280   5.991  0.1241  0.1710 -0.2779
30115SOL    HW196181   8.416   5.230   6.065 -2.2483  0.1167 -1.2786
30115SOL    HW296182   8.450   5.218   5.918  3.8985 -0.2064 -0.1039
30116SOL     OW96183   7.800   3.948   1.590  0.2872  0.1260 -0.0700
30116SOL    HW196184   7.855   3.914   1.520 -0.3387  0.7200 -0.8619
30116SOL    HW296185   7.777   3.870   1.641  0.6432 -0.3308 -0.5916
30117SOL     OW96186   3.498   1.061   8.016 -0.4101  0.6923 -0.1174
30117SOL    HW196187   3.507   0.993   7.950  0.0147  0.0845  0.5632
30117SOL    HW296188   3.418   1.108   7.991  0.4072  1.2918 -1.7889
30118SOL     OW96189   9.239   1.149   3.967  0.0952  0.0592 -0.3137
30118SOL    HW196190   9.238   1.223   4.027  0.5926  0.3870 -0.6958
30118SOL    HW296191   9.315   1.097   3.993 -1.0557 -1.1045  0.8615
30119SOL     OW96192   7.587   2.151   8.869 -0.1555  0.8290 -0.1973
30119SOL    HW196193   7.652   2.125   8.803  0.2853  0.6318  0.3030
30119SOL    HW296194   7.595   2.246   8.874  1.7864  0.6621  1.5115
30120SOL     OW96195   9.047   6.606   6.754  0.1940 -0.4775  0.1106
30120SOL    HW196196   9.030   6.538   6.818  1.5859  0.0122  1.0457
30120SOL    HW296197   8.984   6.589   6.683 -0.8160 -1.5097  1.2178
30121SOL     OW96198   3.324   3.361   5.142  0.0315  0.1437  0.3994
30121SOL    HW196199   3.286   3.286   5.096  0.3754  0.0738  0.2261
30121SOL    HW296200   3.257   3.429   5.136  0.7176  0.6817 -1.6290
30122SOL     OW96201   0.603   2.190   4.226 -0.0506 -0.1390  0.0446
30122SOL    HW196202   0.677   2.225   4.175 -1.3970  1.5906 -0.8310
30122SOL    HW296203   0.628   2.100   4.245  2.0397  0.2239 -0.6958
30123SOL     OW96204   3.340  10.680   3.443  0.1188  0.6997  0.0439
30123SOL    HW196205   3.347  10.775   3.441  1.7764  0.6449 -3.6793
30123SOL    HW296206   3.430  10.649   3.439 -0.3776 -1.1257  1.3513
30124SOL     OW96207   3.990   1.233  10.696 -0.0420  0.1236 -0.2804
30124SOL    HW196208   3.905   1.193  10.713  0.6105 -1.5921 -0.8919
30124SOL    HW296209   4.031   1.240  10.782 -0.5554  0.4329 -0.0516
30125SOL     OW96210   9.807   3.255   2.947  0.2833 -0.7652  0.0310
30125SOL    HW196211   9.878   3.246   2.883  0.1085 -0.7416 -0.1692
30125SOL    HW296212   9.814   3.345   2.978  1.1747 -1.1516  1.0092
30126SOL     OW96213   3.734   1.498   5.669 -0.1877 -0.1629 -0.0372
30126SOL    HW196214   3.670   1.559   5.705 -0.4729 -0.6647  0.3065
30126SOL    HW296215   3.714   1.414   5.709 -1.8295 -1.2439 -2.8426
30127SOL     OW96216   3.463   1.189   5.264 -0.5008 -0.1536  0.6144
30127SOL    HW196217   3.404   1.261   5.243 -1.1631 -1.0488 -0.7184
30127SOL    HW296218   3.407   1.111   5.266  0.6848 -1.1647 -1.5188
30128SOL     OW96219   9.053   7.119   3.129  0.1774  0.6796  0.3724
30128SOL    HW196220   9.051   7.024   3.114 -0.3633  0.9654 -1.7665
30128SOL    HW296221   9.144   7.144   3.114  0.0041  0.7016 -0.6875
30129SOL     OW96222   0.522   6.942   8.983 -0.6217 -0.1389 -0.0474
30129SOL    HW196223   0.570   6.936   8.900  0.8754  0.4423  0.7459
30129SOL    HW296224   0.500   6.851   9.004  1.2197 -0.5761  0.1619
30130SOL     OW96225   5.440   8.246   4.857  0.1491  0.4914  0.0822
30130SOL    HW196226   5.504   8.178   4.836  1.2460  0.1381  3.8388
30130SOL    HW296227   5.355   8.202   4.849  0.4899  0.0646 -1.8568
30131SOL     OW96228   4.605   6.971   0.878  0.5372 -0.4624  0.1526
30131SOL    HW196229   4.518   6.933   0.892 -0.1395  1.0121  0.1839
30131SOL    HW296230   4.660   6.930   0.944 -0.6968  0.3014  1.7251
30132SOL     OW96231   2.233   2.950   3.989 -0.4113  0.4275  0.6536
30132SOL    HW196232   2.190   2.980   3.909  0.8293  1.0165  0.1896
30132SOL    HW296233   2.308   3.009   4.000  1.1233 -1.4252  0.6527
30133SOL     OW96234   2.221   3.284   3.331  0.5096 -0.3267 -0.2893
30133SOL    HW196235   2.239   3.378   3.328 -0.0305 -0.0561  2.4194
30133SOL    HW296236   2.159   3.269   3.259 -0.5493  1.6884  0.1302
30134SOL     OW96237   1.034   2.252  10.397  0.0049 -0.4008 -0.5370
30134SOL    HW196238   0.950   2.215  10.369 -0.5141 -1.1724  1.8476
30134SOL    HW296239   1.041   2.334  10.348 -3.3411  0.9411  0.8819
30135SOL     OW96240   2.308   7.563   2.927 -0.7423 -0.0163  0.6231
30135SOL    HW196241   2.213   7.563   2.917 -1.1869  4.9294  2.1775
30135SOL    HW296242   2.340   7.614   2.853  0.6765 -1.0356  0.4944
30136SOL     OW96243  10.386   8.166   8.390  0.3523  0.2002  0.2492
30136SOL    HW196244  10.453   8.098   8.393  0.8855  0.5918 -1.3256
30136SOL    HW296245  10.303   8.118   8.386  0.5888 -0.3054  1.1208
30137SOL     OW96246   1.984   1.543   9.198  0.1711 -0.2142 -0.0100
30137SOL    HW196247   2.030   1.556   9.115  0.2377  1.4230  0.2585
30137SOL    HW296248   1.932   1.622   9.210 -2.1852 -1.6834  0.0763
30138SOL     OW96249   0.285   0.151   4.516  0.2642 -0.1657  0.3915
30138SOL    HW196250   0.250   0.090   4.451  0.8198 -0.7394  0.6186
30138SOL    HW296251   0.236   0.130   4.597 -1.9503  1.9641 -0.2855
30139SOL     OW96252   1.636   9.921   3.079  0.3969 -0.1506  0.2287
30139SOL    HW196253   1.610   9.864   3.151 -2.7453 -1.0159 -1.4237
30139SOL    HW296254   1.636   9.865   3.002  2.4918  1.0114 -0.6948
30140SOL     OW96255   0.485   0.118   5.559  0.3830  0.0853 -0.5720
30140SOL    HW196256   0.538   0.042   5.581 -2.5338 -1.5175  1.7147
30140SOL    HW296257   0.445   0.096   5.475  0.3339 -0.4419 -0.4117
30141SOL     OW96258   6.102   8.087   9.647  0.4517 -0.0124  0.2393
30141SOL    HW196259   6.094   8.167   9.700  3.2728  0.2319  0.4129
30141SOL    HW296260   6.019   8.041   9.663 -0.8465  2.3608  0.9346
30142SOL     OW96261   8.726   0.512   4.337 -0.3723  0.3069 -0.2180
30142SOL    HW196262   8.820   0.501   4.321 -0.3477  2.6658 -2.4966
30142SOL    HW296263   8.719   0.530   4.431  1.2586 -1.1824  0.2376
30143SOL     OW96264   8.229   4.607   4.303 -0.5044 -0.0649 -0.0408
30143SOL    HW196265   8.178   4.567   4.233 -0.6084 -2.4300  1.3070
30143SOL    HW296266   8.277   4.678   4.260 -0.6240 -1.3740 -2.4829
30144SOL     OW96267   0.487   9.060   5.956  0.1849  0.2373  0.0477
30144SOL    HW196268   0.484   9.092   5.866  1.2140 -0.0908 -0.1215
30144SOL    HW296269   0.578   9.076   5.984  0.0814 -0.3650  0.7643
30145SOL     OW96270   7.507   7.401   0.563  0.1392 -0.3153  0.3119
30145SOL    HW196271   7.494   7.336   0.632 -1.6254  0.6618  0.9650
30145SOL    HW296272   7.563   7.357   0.499  0.4629 -1.8260  1.5635
30146SOL     OW96273   4.049  10.594   9.077  0.2987  0.4242  0.0500
30146SOL    HW196274   3.969  10.641   9.100 -0.6905 -0.8446 -0.6819
30146SOL    HW296275   4.117  10.636   9.131 -0.8859  1.3248  0.9206
30147SOL     OW96276   3.005   3.267   5.691  0.6886 -1.0212 -0.3105
30147SOL    HW196277   2.993   3.336   5.756 -0.1286  0.1096 -1.5924
30147SOL    HW296278   2.979   3.308   5.608  1.3492 -2.5153 -1.2950
30148SOL     OW96279  10.519  10.361   6.607 -0.2514 -0.0298  0.5484
30148SOL    HW196280  10.482  10.312   6.681 -0.4468 -0.2554  0.3021
30148SOL    HW296281  10.612  10.337   6.606 -0.5385 -1.1291 -0.1543
30149SOL     OW96282   8.257  10.892   9.298 -0.3175 -0.0231 -0.0946
30149SOL    HW196283   8.325  10.940   9.346 -0.6050  1.3151 -0.9741
30149SOL    HW296284   8.303  10.853   9.223 -0.6244  1.6331 -1.1975
30150SOL     OW96285   7.546   9.661   5.698  0.3154  0.4882 -0.2455
30150SOL    HW196286   7.563   9.593   5.762 -0.1759 -0.1702 -0.7934
30150SOL    HW296287   7.615   9.651   5.632  0.7642  1.1003  0.1218
30151SOL     OW96288   4.823   8.287   5.891 -0.6465  0.3442 -0.1708
30151SOL    HW196289   4.897   8.348   5.889 -0.8654  0.6051 -0.4742
30151SOL    HW296290   4.853   8.211   5.840 -1.1817  1.1582 -1.7916
30152SOL     OW96291   0.860   4.368   6.165 -0.9055  0.3235  0.1836
30152SOL    HW196292   0.828   4.328   6.246  1.0140 -0.4251  0.6267
30152SOL    HW296293   0.948   4.397   6.186 -0.8938  1.4285 -1.2537
30153SOL     OW96294   6.637   9.199   8.409  0.1980  0.5444  0.6995
30153SOL    HW196295   6.552   9.229   8.441  0.4713  1.6991  0.3633
30153SOL    HW296296   6.657   9.123   8.464 -1.2879 -0.0785  0.4211
30154SOL     OW96297   5.637   4.564   5.778  0.0613  0.3064  0.2283
30154SOL    HW196298   5.617   4.640   5.832 -0.3993  1.1187 -1.0615
30154SOL    HW296299   5.722   4.534   5.810 -0.6958  0.0840  2.1348
30155SOL     OW96300   1.859   2.199   6.912 -0.1990 -0.2207 -0.2066
30155SOL    HW196301   1.939   2.172   6.868  2.6604 -0.5378  4.4867
30155SOL    HW296302   1.844   2.132   6.979 -2.9259  1.1664  0.7548
30156SOL     OW96303   3.575   9.041  10.417 -0.0991 -0.5988 -0.0599
30156SOL    HW196304   3.655   9.062  10.369  0.3673 -0.0734  0.9352
30156SOL    HW296305   3.570   8.946  10.416 -0.4184 -0.5931 -1.6587
30157SOL     OW96306   7.993   0.074   0.239  0.1169 -0.4405  0.2015
30157SOL    HW196307   7.903   0.062   0.209 -0.3466  0.8753  0.9884
30157SOL    HW296308   8.004   0.012   0.310 -0.1259 -0.6924  0.0201
30158SOL     OW96309   9.003   0.203   7.837 -0.2926 -0.4328 -0.1701
30158SOL    HW196310   8.970   0.119   7.866  0.2601 -0.6379 -0.1153
30158SOL    HW296311   8.992   0.202   7.742 -0.6943 -0.3850 -0.1245
30159SOL     OW96312   9.150   6.004   0.511 -0.0441 -0.2313 -0.3091
30159SOL    HW196313   9.119   6.001   0.420 -1.2565 -1.6469  0.1086
30159SOL    HW296314   9.234   5.960   0.510  0.2902  0.4080 -0.8587
30160SOL     OW96315   9.521   8.699   4.652 -0.2224  0.5792 -0.0712
30160SOL    HW196316   9.541   8.616   4.695  0.7776  0.1949 -1.2188
30160SOL    HW296317   9.428   8.694   4.631 -0.3649  0.1234  0.6388
30161SOL     OW96318   8.156   4.279   1.860  0.1155 -0.6344  0.5062
30161SOL    HW196319   8.177   4.360   1.814 -0.2093 -1.3590 -0.9862
30161SOL    HW296320   8.124   4.307   1.945 -0.0069  0.8082  0.0079
30162SOL     OW96321   2.026   2.998   2.747  0.2925 -0.3722  0.3627
30162SOL    HW196322   2.006   2.917   2.794 -2.1273 -0.4074 -0.6278
30162SOL    HW296323   1.950   3.014   2.692  2.3406  0.4842 -2.4757
30163SOL     OW96324   5.435   7.804   6.223 -0.2603 -0.2948 -0.0168
30163SOL    HW196325   5.483   7.734   6.180 -0.8344 -0.1027 -0.9853
30163SOL    HW296326   5.449   7.881   6.168  1.4620  0.7316  1.7285
30164SOL     OW96327   5.577   7.044   2.345  0.1590 -0.2459  1.4555
30164SOL    HW196328   5.653   7.070   2.397 -0.0917  1.6148  0.9387
30164SOL    HW296329   5.553   7.122   2.296 -2.2637 -0.7073  1.7830
30165SOL     OW96330   8.350   3.923   3.971 -0.4190 -0.1770  0.6271
30165SOL    HW196331   8.429   3.965   4.004  0.5246  0.2208 -1.8986
30165SOL    HW296332   8.283   3.940   4.037  1.3700  0.2156  2.4250
30166SOL     OW96333   0.296   8.042   7.895  0.0827  0.0975  0.2501
30166SOL    HW196334   0.271   8.041   7.988 -0.2637 -1.5858  0.1697
30166SOL    HW296335   0.360   8.113   7.889 -0.2030  0.5198  1.6886
30167SOL     OW96336   0.115   0.810   5.067 -0.0452 -0.6553  0.2389
30167SOL    HW196337   0.135   0.752   4.994  0.1415 -0.3054  0.0104
30167SOL    HW296338   0.105   0.751   5.142 -1.2764 -1.1072 -0.2640
30168SOL     OW96339  10.181   6.111   4.347 -0.3096  0.4011 -0.2700
30168SOL    HW196340  10.113   6.098   4.281 -1.7504  0.7831  1.0741
30168SOL    HW296341  10.253   6.054   4.320 -1.4443 -0.5669 -1.3410
30169SOL     OW96342   5.288   9.125   8.407  0.4628  0.0875  0.1950
30169SOL    HW196343   5.368   9.108   8.456  0.3433  0.3998  0.5002
30169SOL    HW296344   5.238   9.185   8.462  0.5040  0.7514 -0.4744
30170SOL     OW96345   8.210   2.617   0.749  0.3146  0.0891 -0.6047
30170SOL    HW196346   8.288   2.562   0.736 -1.4671 -2.0980 -3.0428
30170SOL    HW296347   8.206   2.671   0.670  0.2092  1.4076  0.2696
30171SOL     OW96348   6.478   1.252   0.418 -0.4739 -0.0838  0.3480
30171SOL    HW196349   6.438   1.172   0.384 -4.6094  1.9959 -0.4175
30171SOL    HW296350   6.485   1.238   0.512 -1.6053 -1.1812  0.2903
30172SOL     OW96351   0.599   8.831   1.374 -0.6163 -0.0778 -0.2533
30172SOL    HW196352   0.581   8.813   1.282 -0.1898 -0.4572 -0.2668
30172SOL    HW296353   0.686   8.794   1.389 -1.0509 -0.8209  0.5164
30173SOL     OW96354   5.500   1.519   0.596  0.2386  0.0351  0.4683
30173SOL    HW196355   5.567   1.462   0.633  0.8341  0.4726  0.0744
30173SOL    HW296356   5.476   1.478   0.513  0.1650 -0.0056  0.5088
30174SOL     OW96357   2.826   9.010   0.223 -0.7209 -0.9588  0.2979
30174SOL    HW196358   2.780   9.077   0.173 -2.4283 -2.4029 -0.1776
30174SOL    HW296359   2.838   9.048   0.310  0.5820  0.8689 -0.6169
30175SOL     OW96360   0.867   9.030   8.189 -0.2529 -0.0423  0.1235
30175SOL    HW196361   0.804   8.996   8.126 -0.2606 -0.4179  0.3270
30175SOL    HW296362   0.949   8.984   8.168 -0.2486 -0.1477  0.3674
30176SOL     OW96363   5.878   4.502   8.501 -0.1763 -0.6814  0.3623
30176SOL    HW196364   5.880   4.418   8.546 -0.5024 -0.6918  0.3565
30176SOL    HW296365   5.937   4.557   8.552  0.9685 -1.2474 -0.3149
30177SOL     OW96366   2.805   0.664   5.133  0.5693 -0.2511 -0.1711
30177SOL    HW196367   2.865   0.731   5.099 -0.2377  0.5187 -0.0936
30177SOL    HW296368   2.844   0.637   5.216  0.5351  0.6345  0.1445
30178SOL     OW96369   4.591   9.520   2.897 -0.0385  0.1480 -0.2986
30178SOL    HW196370   4.554   9.454   2.838  1.0920  0.8520 -1.8636
30178SOL    HW296371   4.520   9.542   2.956 -0.9228 -1.3050 -0.7711
30179SOL     OW96372  10.006   6.564   9.117 -0.2532  0.3114  0.2708
30179SOL    HW196373   9.961   6.609   9.045 -0.1560 -0.5264 -0.3204
30179SOL    HW296374  10.058   6.633   9.159  0.2993  0.6578 -0.9386
30180SOL     OW96375   2.934   7.267   2.148  0.2030 -0.5724 -0.4808
30180SOL    HW196376   2.923   7.177   2.119  1.0214 -0.9904  0.4571
30180SOL    HW296377   3.003   7.302   2.091  0.5842 -0.8490 -0.1911
30181SOL     OW96378   9.016   2.109  10.761  0.0938 -0.2813  0.3245
30181SOL    HW196379   8.977   2.099  10.848  0.5471  0.6546  0.6477
30181SOL    HW296380   9.096   2.160  10.776  0.2966 -0.3003 -0.6129
30182SOL     OW96381   9.412   7.732   6.654 -0.0196  0.2875  0.1576
30182SOL    HW196382   9.374   7.649   6.626  0.5373 -0.5178  1.6874
30182SOL    HW296383   9.342   7.775   6.703 -0.5917  1.1535 -1.3353
30183SOL     OW96384   7.882   6.053   7.248  0.6195  0.6594 -0.0512
30183SOL    HW196385   7.815   6.077   7.312  1.3013  1.4899  0.3598
30183SOL    HW296386   7.901   5.961   7.268 -1.1871  0.0502 -0.9103
30184SOL     OW96387   9.022   1.443   7.532  0.4870  0.1605 -0.8607
30184SOL    HW196388   8.996   1.524   7.490 -4.4819  0.0666  1.2699
30184SOL    HW296389   8.976   1.375   7.483  1.1893 -0.8778 -0.1253
30185SOL     OW96390   0.458   5.472   3.655  0.7677  0.5632 -0.7563
30185SOL    HW196391   0.423   5.516   3.578  0.2976  1.1383 -0.2200
30185SOL    HW296392   0.521   5.535   3.691  1.5630 -0.0173 -1.0945
30186SOL     OW96393   8.177   1.553   8.286 -0.1045 -0.2549  0.3084
30186SOL    HW196394   8.264   1.593   8.288 -0.4777  0.6497  2.8609
30186SOL    HW296395   8.195   1.459   8.283  0.9090 -0.0386 -0.8752
30187SOL     OW96396   5.588  10.577   6.759  0.2286 -0.1703  0.3019
30187SOL    HW196397   5.669  10.529   6.742 -0.0712 -0.1094 -1.4296
30187SOL    HW296398   5.522  10.532   6.707 -0.0766  2.0592 -1.3712
30188SOL     OW96399   5.305  10.227   3.257  0.0035  0.5686 -0.3153
30188SOL    HW196400   5.344  10.235   3.344  0.7087  1.4016 -0.7029
30188SOL    HW296401   5.307  10.133   3.239 -0.9617  0.2746  0.9210
30189SOL     OW96402   5.358   2.425   3.359 -0.4454 -0.1957 -0.0683
30189SOL    HW196403   5.356   2.514   3.322 -0.5889 -0.0013  0.3936
30189SOL    HW296404   5.364   2.439   3.453 -1.2901 -0.6705  0.0705
30190SOL     OW96405   7.718   1.602   6.182  0.2187 -0.3797  0.2868
30190SOL    HW196406   7.684   1.523   6.225  0.1104 -0.6665 -0.3174
30190SOL    HW296407   7.734   1.575   6.092  1.6593 -0.1326  0.4518
30191SOL     OW96408   0.573   3.814   5.186  0.4688 -0.5380 -0.1054
30191SOL    HW196409   0.527   3.791   5.105 -1.2734  0.5997  0.5046
30191SOL    HW296410   0.630   3.887   5.161 -0.1434 -0.1207 -0.2918
30192SOL     OW96411   1.622  10.409   9.671 -0.9015 -0.0972 -0.1451
30192SOL    HW196412   1.575  10.490   9.687 -0.6934 -0.2751  1.5407
30192SOL    HW296413   1.575  10.343   9.723 -0.5878 -0.8964 -0.8445
30193SOL     OW96414   5.510   6.557   8.188  0.4161  0.7176  0.1332
30193SOL    HW196415   5.592   6.603   8.174 -0.8124  3.2904  0.7800
30193SOL    HW296416   5.444   6.627   8.198 -1.4968 -1.1615  1.7530
30194SOL     OW96417   0.003   4.829   8.036  0.0804 -0.4263 -0.0596
30194SOL    HW196418  -0.079   4.866   8.001 -0.2611 -1.1246 -0.0013
30194SOL    HW296419   0.010   4.866   8.124 -1.0096 -1.6122  0.5519
30195SOL     OW96420   5.759   2.977   1.950 -0.2285  0.1202  0.2342
30195SOL    HW196421   5.793   2.981   2.039  0.5248  0.2276 -0.0524
30195SOL    HW296422   5.670   2.942   1.959  0.3297 -1.1794  0.8891
30196SOL     OW96423   8.782   0.094   8.531  0.2368 -0.1059  0.6080
30196SOL    HW196424   8.849   0.136   8.478  0.4872 -0.4639  0.6404
30196SOL    HW296425   8.805   0.001   8.532 -1.7238 -0.7203 -1.6004
30197SOL     OW96426   7.877   8.438   5.414 -0.0795  0.2968 -0.2847
30197SOL    HW196427   7.815   8.442   5.342 -0.4098  0.5644  0.0141
30197SOL    HW296428   7.949   8.383   5.380  0.3120  1.3401 -1.2336
30198SOL     OW96429   1.072   1.847   9.855 -0.1122 -0.6966 -0.4958
30198SOL    HW196430   1.047   1.755   9.857 -1.3823 -0.3736 -0.8640
30198SOL    HW296431   1.004   1.889   9.802 -0.1993  0.6443  0.6397
30199SOL     OW96432   2.703   2.380  10.491 -0.0244 -0.2363  0.1176
30199SOL    HW196433   2.782   2.431  10.509 -0.5388  0.8855 -0.6357
30199SOL    HW296434   2.722   2.336  10.408  0.6824 -1.8693  1.1121
30200SOL     OW96435   7.414   7.687  10.455  0.0695 -0.4551 -0.1125
30200SOL    HW196436   7.320   7.670  10.462 -0.2183  0.8113 -0.7142
30200SOL    HW296437   7.446   7.622  10.392  0.1272 -2.6542  2.0334
30201SOL     OW96438   1.686   2.928   9.078 -0.0447 -0.0613 -1.0225
30201SOL    HW196439   1.632   2.853   9.053  1.1911 -1.4536  0.2533
30201SOL    HW296440   1.641   2.966   9.153  0.4865 -0.9787 -0.2077
30202SOL     OW96441   4.428   4.214   6.087 -0.8430  0.3859  0.5452
30202SOL    HW196442   4.482   4.148   6.129  2.0631  1.6472 -0.9427
30202SOL    HW296443   4.343   4.171   6.075  0.5952 -2.6966  0.5272
30203SOL     OW96444   9.594   3.667   3.604  0.8142  0.0953 -0.2817
30203SOL    HW196445   9.602   3.725   3.680  3.2947 -0.2708 -0.1859
30203SOL    HW296446   9.565   3.583   3.640 -1.0323  0.7123 -0.1978
30204SOL     OW96447   8.541   0.003   9.409 -0.8728  0.4229  0.1803
30204SOL    HW196448   8.524   0.089   9.371 -0.5634  1.0489  1.4163
30204SOL    HW296449   8.556   0.020   9.502 -1.3450 -1.0299  0.5532
30205SOL     OW96450   0.010   1.919   9.892 -0.1251  0.4314 -0.2752
30205SOL    HW196451  -0.038   1.924   9.809  0.0582 -2.1370 -0.6077
30205SOL    HW296452   0.099   1.894   9.867 -0.8013 -3.6696  0.7269
30206SOL     OW96453   9.218   0.313   7.258  0.0835  0.1949 -0.3673
30206SOL    HW196454   9.203   0.224   7.226  0.6804 -0.1837  0.3608
30206SOL    HW296455   9.168   0.369   7.199  1.5029 -0.4167 -2.2636
30207SOL     OW96456   7.519   3.513   7.206 -0.2436 -0.2750 -0.2505
30207SOL    HW196457   7.602   3.478   7.239 -0.4998 -0.0977  0.6003
30207SOL    HW296458   7.466   3.527   7.284  1.0651  5.5108  0.0354
30208SOL     OW96459   9.340   5.032   1.815  0.1431 -0.1191 -0.3671
30208SOL    HW196460   9.429   5.065   1.806  0.5725 -1.3641 -0.8966
30208SOL    HW296461   9.314   5.010   1.726 -1.4006  1.8986 -0.4964
30209SOL     OW96462  10.819   0.667   9.282 -0.2683 -0.0657 -0.0876
30209SOL    HW196463  10.754   0.713   9.229 -0.4842 -1.1724 -0.8281
30209SOL    HW296464  10.773   0.645   9.363  0.0730  1.6677  0.6140
30210SOL     OW96465  10.075   4.803   3.615 -0.0396 -0.7742 -0.1546
30210SOL    HW196466   9.987   4.806   3.578  0.3167  0.3897 -0.9500
30210SOL    HW296467  10.062   4.773   3.706 -1.2859 -0.1958 -0.1244
30211SOL     OW96468   9.213   5.953   4.576  0.2888  0.3012  0.0948
30211SOL    HW196469   9.215   5.968   4.671  0.9648  0.6120  0.0436
30211SOL    HW296470   9.191   6.039   4.539 -0.5244  0.0478 -0.0052
30212SOL     OW96471  10.197   1.828   5.724 -0.1056 -0.0307  0.2029
30212SOL    HW196472  10.291   1.823   5.704 -0.4371  0.8642 -1.8399
30212SOL    HW296473  10.187   1.910   5.773  0.1494 -0.0413  0.2740
30213SOL     OW96474   9.932   6.207  10.174 -0.3572  0.2175  0.4622
30213SOL    HW196475   9.847   6.228  10.213 -0.5645 -0.7681  0.5687
30213SOL    HW296476   9.955   6.285  10.123 -2.3121 -0.2408 -1.2502
30214SOL     OW96477   9.432   7.552   7.067  0.4944 -0.5441  0.2008
30214SOL    HW196478   9.425   7.470   7.018 -0.4740 -0.2890 -0.1227
30214SOL    HW296479   9.487   7.608   7.013  2.8259 -1.6137  1.3539
30215SOL     OW96480   6.897   2.027   1.530 -0.2537  0.3206  0.1793
30215SOL    HW196481   6.950   2.067   1.599 -0.9590  0.9757  0.3512
30215SOL    HW296482   6.808   2.028   1.564 -0.5394  0.1973 -0.5433
30216SOL     OW96483   9.492   1.030   3.559 -0.4307 -0.6107 -0.4837
30216SOL    HW196484   9.525   0.998   3.475 -0.1034 -0.6570 -0.3381
30216SOL    HW296485   9.409   0.984   3.572 -0.6800 -0.3091 -0.9709
30217SOL     OW96486   1.864   7.818   7.587  0.8896  0.1144 -0.2399
30217SOL    HW196487   1.826   7.866   7.661 -0.5560  0.3214 -1.0800
30217SOL    HW296488   1.879   7.884   7.520 -0.5414 -0.4518 -1.1802
30218SOL     OW96489  10.104   4.078   5.239 -0.0029  0.6028 -0.0575
30218SOL    HW196490  10.076   4.170   5.243 -0.9863  0.3321 -0.4249
30218SOL    HW296491  10.026   4.028   5.262 -1.0223 -0.3226 -4.6321
30219SOL     OW96492   2.936   2.952   9.142  0.0983  0.1022  0.2657
30219SOL    HW196493   2.852   2.969   9.101  0.4504  0.1744 -0.4321
30219SOL    HW296494   2.984   2.899   9.078  0.9715  0.9389  0.2118
30220SOL     OW96495   1.286   9.766   0.868 -0.3092  0.0587 -0.0205
30220SOL    HW196496   1.353   9.784   0.802 -0.1396 -0.7842 -0.0911
30220SOL    HW296497   1.321   9.804   0.948  1.3708 -2.2585  0.4815
30221SOL     OW96498   7.316   5.456   0.396 -0.1927  0.4479  0.2080
30221SOL    HW196499   7.239   5.412   0.361  1.2851 -1.9757 -0.1861
30221SOL    HW296500   7.336   5.409   0.477  0.6839  1.2557  0.4817
30222SOL     OW96501   4.462   6.103   6.461  0.3145 -0.0448  0.0931
30222SOL    HW196502   4.428   6.126   6.547 -0.7733 -1.1886 -0.0045
30222SOL    HW296503   4.554   6.080   6.477 -0.2139 -1.5787  1.2189
30223SOL     OW96504   7.596   3.312   3.752 -0.4487  0.5195 -0.0933
30223SOL    HW196505   7.638   3.396   3.738 -0.0562  0.1497 -1.3063
30223SOL    HW296506   7.502   3.330   3.746 -0.3840  0.4011 -3.9441
30224SOL     OW96507   7.904   2.240   4.078  1.0094 -0.2377 -0.2536
30224SOL    HW196508   7.852   2.320   4.080  1.5464  0.1482 -1.2739
30224SOL    HW296509   7.992   2.267   4.105  0.7772 -0.8543  1.2737
30225SOL     OW96510   5.642   5.914   7.639  0.2512  0.0084 -0.0495
30225SOL    HW196511   5.552   5.881   7.641  1.1271 -2.5886  0.5240
30225SOL    HW296512   5.649   5.969   7.716 -0.7028 -0.1873  0.1974
30226SOL     OW96513   9.568   8.233   6.102  0.4902 -0.2138 -0.0016
30226SOL    HW196514   9.514   8.312   6.094  1.9052  1.0760  2.0251
30226SOL    HW296515   9.512   8.162   6.071 -1.7208  1.2608  0.3894
30227SOL     OW96516   3.503   8.995   5.753 -0.4162  0.2695  0.1364
30227SOL    HW196517   3.501   8.963   5.662 -2.6730  2.8109 -0.8484
30227SOL    HW296518   3.453   8.929   5.801 -1.1474 -0.0074 -0.9404
30228SOL     OW96519   5.233   5.337   6.377  0.6870  0.0306  0.0851
30228SOL    HW196520   5.191   5.368   6.457  1.0928  0.8633 -0.0099
30228SOL    HW296521   5.254   5.417   6.328  1.6112 -0.3953 -0.2473
30229SOL     OW96522   8.175   8.855   9.507 -0.4221  0.1835 -0.4288
30229SOL    HW196523   8.140   8.872   9.594  0.2506  0.6740 -0.2385
30229SOL    HW296524   8.123   8.910   9.448  0.5415  1.5619 -0.0463
30230SOL     OW96525   7.839   3.032   1.179 -0.0287  0.4477 -0.2566
30230SOL    HW196526   7.807   3.110   1.224  1.4545 -0.3476  2.3875
30230SOL    HW296527   7.844   3.058   1.087 -1.8189  2.6570  0.1755
30231SOL     OW96528   5.340   3.696   1.198  0.2234 -0.5915  0.2859
30231SOL    HW196529   5.399   3.730   1.131  0.1461 -1.3375 -0.1736
30231SOL    HW296530   5.354   3.752   1.274  0.7317 -0.0932 -0.1716
30232SOL     OW96531   0.506   2.648   9.578  0.3902 -0.0748 -0.3980
30232SOL    HW196532   0.536   2.614   9.493 -0.5864 -1.3172 -0.2702
30232SOL    HW296533   0.428   2.700   9.557 -1.3974 -2.4425 -0.0844
30233SOL     OW96534   2.139   9.464   9.056 -0.2538  0.1184  1.0111
30233SOL    HW196535   2.186   9.382   9.066 -0.0596  0.1012  0.0382
30233SOL    HW296536   2.047   9.440   9.062 -0.2755 -0.4734 -1.1224
30234SOL     OW96537  10.395   2.016   0.630  0.0934  0.0767 -0.5504
30234SOL    HW196538  10.375   1.954   0.701  1.9332 -1.4594 -1.2684
30234SOL    HW296539  10.320   2.074   0.627 -0.3282 -0.1694  2.2638
30235SOL     OW96540  10.068   0.194   4.930 -0.1000 -0.2483 -0.1031
30235SOL    HW196541  10.114   0.268   4.969 -0.7591  0.0589  0.1128
30235SOL    HW296542  10.061   0.130   5.001  0.8326 -0.6988 -0.4033
30236SOL     OW96543   5.644   4.398   3.881  0.5765 -0.2952  0.0113
30236SOL    HW196544   5.602   4.475   3.841  1.2422 -0.1568 -0.4399
30236SOL    HW296545   5.632   4.328   3.815  0.3664 -0.4641  0.2260
30237SOL     OW96546   9.691   9.620   4.172  0.7794  0.3393 -0.0183
30237SOL    HW196547   9.763   9.676   4.142  0.4481  0.3183 -0.8504
30237SOL    HW296548   9.671   9.564   4.097 -1.2857  1.5235 -0.4282
30238SOL     OW96549   4.384   6.342   4.423  0.0854  0.1016  0.0541
30238SOL    HW196550   4.308   6.348   4.481 -0.4555  1.8233 -0.7622
30238SOL    HW296551   4.398   6.432   4.392  1.8332 -0.3570 -0.6200
30239SOL     OW96552  10.048   5.522   2.450 -0.1424 -0.0265 -0.5771
30239SOL    HW196553  10.085   5.436   2.428  0.7853  0.2684 -0.2287
30239SOL    HW296554  10.052   5.526   2.546  0.6676  0.7567 -0.6311
30240SOL     OW96555   5.356   6.309   3.786  0.4101  0.4111 -0.8679
30240SOL    HW196556   5.363   6.220   3.751 -0.0530 -0.2604  0.6604
30240SOL    HW296557   5.442   6.327   3.823 -0.3238 -0.6482  1.5453
30241SOL     OW96558   1.088   8.958  10.697  0.4460  0.6557  0.1939
30241SOL    HW196559   1.138   9.021  10.645  0.0845 -0.3204 -1.3958
30241SOL    HW296560   1.086   8.879  10.643 -1.2144  0.0738  1.0573
30242SOL     OW96561   0.222   0.783   5.473 -0.2271 -0.0342 -0.1015
30242SOL    HW196562   0.136   0.741   5.469  0.4406 -1.5084  0.3124
30242SOL    HW296563   0.251   0.787   5.382 -1.0438  1.2014 -0.3315
30243SOL     OW96564   3.260   1.084   2.057  0.0797  0.0171 -0.4544
30243SOL    HW196565   3.262   0.995   2.021 -1.5008 -0.3977  0.3916
30243SOL    HW296566   3.305   1.138   1.992 -0.8944 -1.0390 -2.0600
30244SOL     OW96567   8.670  10.626   6.638  0.0688 -0.3430  0.4471
30244SOL    HW196568   8.605  10.681   6.683  2.3830  0.9538  2.4775
30244SOL    HW296569   8.733  10.689   6.602  0.8608 -1.5822 -0.3888
30245SOL     OW96570   8.102   0.322   0.290 -0.1094 -0.4626  0.4257
30245SOL    HW196571   8.093   0.337   0.384 -0.8936  0.9762  0.1434
30245SOL    HW296572   8.067   0.234   0.277 -2.8050  0.3900  1.1074
30246SOL     OW96573   1.912  10.033   5.001 -0.0722  0.3337  0.7048
30246SOL    HW196574   2.001  10.022   4.967 -0.3333 -0.2191  0.1824
30246SOL    HW296575   1.899   9.958   5.058 -1.0136 -0.8983 -1.0287
30247SOL     OW96576   3.462   6.790  10.274 -0.1019  0.0208 -0.8817
30247SOL    HW196577   3.432   6.710  10.316 -0.7286  1.4055  1.4855
30247SOL    HW296578   3.536   6.763  10.220  0.5553 -1.9484  0.8878
30248SOL     OW96579  10.535   6.869   2.917  0.1241 -0.0751  0.0536
30248SOL    HW196580  10.466   6.929   2.946 -1.3476 -1.9372  0.5980
30248SOL    HW296581  10.529   6.871   2.821 -0.5657 -0.0696  0.0912
30249SOL     OW96582   8.408   5.529   0.651 -0.7971 -0.1953 -0.3166
30249SOL    HW196583   8.487   5.581   0.660 -1.4338  1.4726 -3.0241
30249SOL    HW296584   8.337   5.591   0.670 -1.5456 -0.0984 -2.9987
30250SOL     OW96585   7.696  10.176   7.736  0.0892 -0.0139 -0.4004
30250SOL    HW196586   7.641  10.227   7.795 -0.5048  0.1284 -1.0642
30250SOL    HW296587   7.635  10.144   7.668  0.5971 -0.8932 -0.4575
30251SOL     OW96588   8.616   7.320   2.643  0.5473 -0.1162 -0.5382
30251SOL    HW196589   8.541   7.313   2.702 -0.3230 -0.2855 -1.6248
30251SOL    HW296590   8.689   7.283   2.692 -0.6301 -2.4156 -0.3869
30252SOL     OW96591   6.090   6.242   9.926 -0.4010 -0.4657 -0.2965
30252SOL    HW196592   6.048   6.242   9.840  0.2113 -0.2167 -0.6033
30252SOL    HW296593   6.020   6.262   9.987 -0.9592 -1.1947 -0.6765
30253SOL     OW96594   0.894   1.586   2.447  0.1696 -0.3316  0.6098
30253SOL    HW196595   0.803   1.599   2.473 -0.2132 -1.0203 -0.3231
30253SOL    HW296596   0.938   1.667   2.470 -0.5631 -0.1932  1.5719
30254SOL     OW96597   9.733   7.804   2.805 -0.3293 -0.2056 -0.8654
30254SOL    HW196598   9.659   7.787   2.747  1.0086 -2.5579 -1.9946
30254SOL    HW296599   9.808   7.813   2.747  0.6690 -0.2410  0.3718
30255SOL     OW96600   0.336   0.828   2.260 -0.5487 -0.2976  0.4000
30255SOL    HW196601   0.280   0.886   2.208  0.8959 -1.1518 -2.3656
30255SOL    HW296602   0.278   0.757   2.288 -0.8001 -2.0669 -3.8213
30256SOL     OW96603  10.183   4.748   6.085 -0.0586 -0.2375 -0.0845
30256SOL    HW196604  10.227   4.771   6.003  1.1272 -1.0228  0.3010
30256SOL    HW296605  10.159   4.656   6.074  0.0537 -0.3297  0.4178
30257SOL     OW96606   9.154   9.831   8.967 -0.1627 -0.0409 -0.0816
30257SOL    HW196607   9.154   9.891   8.892  0.0205  0.9837  0.7205
30257SOL    HW296608   9.244   9.799   8.972  0.3790  1.5601  0.9872
30258SOL     OW96609   9.080  10.624   6.679 -0.3686 -0.2233 -0.4040
30258SOL    HW196610   9.072  10.660   6.590 -0.7038 -0.6302 -0.5415
30258SOL    HW296611   9.061  10.531   6.669  1.7053 -0.7113 -0.2575
30259SOL     OW96612   7.031   6.036   8.536  0.2504 -0.3107  0.2948
30259SOL    HW196613   6.997   6.028   8.625 -0.5969  1.6104  0.2068
30259SOL    HW296614   6.992   6.118   8.503 -0.6551 -1.6958 -2.3707
30260SOL     OW96615   9.519   5.133   0.300 -0.3776 -0.4067 -0.2420
30260SOL    HW196616   9.441   5.164   0.254 -0.0984 -2.0283 -1.9357
30260SOL    HW296617   9.588   5.136   0.233  0.5547 -0.8308  0.6834
30261SOL     OW96618   7.185   1.787   4.812  0.9497 -0.0998 -0.8593
30261SOL    HW196619   7.197   1.765   4.720  1.7518  0.4797 -0.9059
30261SOL    HW296620   7.142   1.872   4.811  2.7653  0.8673 -0.7399
30262SOL     OW96621   6.391   2.322   0.917  0.7877 -0.5975 -0.9608
30262SOL    HW196622   6.458   2.347   0.980  2.4095 -0.9438 -2.4526
30262SOL    HW296623   6.384   2.396   0.857 -0.9030 -0.1690 -0.2911
30263SOL     OW96624   8.110   6.508  10.631  0.1997 -0.7121  0.1325
30263SOL    HW196625   8.056   6.552  10.566  1.5566 -0.5474 -0.9160
30263SOL    HW296626   8.050   6.447  10.675 -1.5654  1.6305  1.1701
30264SOL     OW96627   6.228   6.884  10.309 -0.2529 -0.3347  0.0309
30264SOL    HW196628   6.213   6.978  10.299 -0.0522 -0.4626 -1.7954
30264SOL    HW296629   6.222   6.869  10.404  3.1693  2.1242  0.8418
30265SOL     OW96630   0.924   6.100   8.622  0.0518  0.1087 -0.2786
30265SOL    HW196631   0.861   6.142   8.564  0.8444  0.6172 -0.7890
30265SOL    HW296632   0.899   6.007   8.622 -1.3219  0.4606  0.3615
30266SOL     OW96633   4.120   4.443   6.700 -0.5379  0.1231  0.0337
30266SOL    HW196634   4.147   4.474   6.614  0.2529 -0.7094 -0.0335
30266SOL    HW296635   4.138   4.516   6.759 -1.2294  0.7485 -0.5349
30267SOL     OW96636   3.057   9.949   3.661  0.1822 -0.2972 -0.0069
30267SOL    HW196637   3.046   9.995   3.745  0.5238 -0.2418  0.0124
30267SOL    HW296638   2.989   9.985   3.605 -1.0203 -1.4236  0.6943
30268SOL     OW96639   7.366   9.055  10.323 -0.0849 -0.0409 -0.2358
30268SOL    HW196640   7.300   8.987  10.333 -0.6756  0.3695 -1.1435
30268SOL    HW296641   7.319   9.127  10.281  0.6850  0.6739  0.1053
30269SOL     OW96642   2.762   2.592   6.242 -0.1228  0.3426  0.6378
30269SOL    HW196643   2.767   2.566   6.335  3.6643 -1.6723  0.0937
30269SOL    HW296644   2.696   2.535   6.205  1.6051 -2.2847  1.3245
30270SOL     OW96645   8.517   5.332   3.077  0.0455  0.3215 -0.3581
30270SOL    HW196646   8.429   5.369   3.074 -0.3078 -0.5176 -0.9341
30270SOL    HW296647   8.574   5.403   3.047 -0.4715  0.7693 -0.2959
30271SOL     OW96648   8.545   0.713   7.470  0.5880  0.4408  0.0920
30271SOL    HW196649   8.587   0.692   7.387 -0.7954 -1.4937 -0.2048
30271SOL    HW296650   8.454   0.732   7.447  0.1736 -0.1542  1.1410
30272SOL     OW96651   2.949   6.065  10.833  0.0510  0.1153  0.0920
30272SOL    HW196652   2.996   6.079  10.915  0.9379 -2.5570  0.1361
30272SOL    HW296653   3.002   6.001  10.785 -2.5579 -1.6553 -0.6506
30273SOL     OW96654   7.802  10.446   4.740 -0.4635  0.4788 -0.4042
30273SOL    HW196655   7.773  10.384   4.806  0.6192  1.1785  0.7735
30273SOL    HW296656   7.838  10.520   4.790  1.8878  0.3290 -1.7235
30274SOL     OW96657   2.037   0.375   6.728  0.1038  0.7082  0.5021
30274SOL    HW196658   2.068   0.284   6.732  0.4762  0.8198  0.2225
30274SOL    HW296659   2.007   0.394   6.817 -0.0917  0.2724  0.5317
30275SOL     OW96660   3.942   3.874   1.965 -0.1927  0.2810 -0.3785
30275SOL    HW196661   3.973   3.806   1.904  0.7538  0.9679 -0.6889
30275SOL    HW296662   3.913   3.825   2.042 -0.4152 -0.5326 -0.9657
30276SOL     OW96663   3.578   2.189   7.117  0.0564  0.2613 -0.0821
30276SOL    HW196664   3.645   2.253   7.143  0.7298 -0.7199  0.6904
30276SOL    HW296665   3.505   2.205   7.177 -0.0306  0.7291 -0.3142
30277SOL     OW96666   5.169   3.295   7.701  0.4732  0.1778 -0.1031
30277SOL    HW196667   5.259   3.265   7.704 -0.2378 -2.1626 -0.0842
30277SOL    HW296668   5.140   3.293   7.792  0.1821  0.1711 -0.1941
30278SOL     OW96669   1.675   8.088   2.917 -0.1749 -0.5376  0.0849
30278SOL    HW196670   1.695   8.169   2.964  1.4887 -1.3625  0.8545
30278SOL    HW296671   1.741   8.084   2.848 -0.7444 -0.8590 -0.4475
30279SOL     OW96672   9.226   1.193   4.476 -0.1319  0.5325 -0.3422
30279SOL    HW196673   9.209   1.259   4.544 -0.4410 -0.5476  0.6605
30279SOL    HW296674   9.296   1.139   4.513  0.3283  0.4649 -1.2837
30280SOL     OW96675   5.575   0.927   7.613 -0.3211  0.0225  0.1714
30280SOL    HW196676   5.618   0.957   7.693  1.9353 -0.4533 -0.7510
30280SOL    HW296677   5.526   0.849   7.640 -0.2509  0.3272  1.2334
30281SOL     OW96678   5.937   5.678   2.062 -0.8534 -0.4254  0.5109
30281SOL    HW196679   5.865   5.711   2.009 -0.5628  0.0354  0.4027
30281SOL    HW296680   6.015   5.718   2.025 -0.5896 -0.5323  0.9396
30282SOL     OW96681   4.005   5.655   9.495  0.2453  0.6817 -0.2014
30282SOL    HW196682   4.061   5.719   9.450  2.2545 -0.9283 -0.1557
30282SOL    HW296683   4.021   5.573   9.448 -1.7736  0.0630  0.1340
30283SOL     OW96684   8.562   0.321   4.255 -0.2451 -0.0723 -0.1964
30283SOL    HW196685   8.631   0.384   4.277 -1.4018  1.1135  0.2168
30283SOL    HW296686   8.559   0.262   4.330 -0.4334  0.5796  0.3232
30284SOL     OW96687   2.377   9.090   8.770  0.2357  0.2628 -0.4485
30284SOL    HW196688   2.302   9.043   8.807 -0.2408  0.8903 -0.5977
30284SOL    HW296689   2.397   9.157   8.836  0.0944  0.6654 -0.8085
30285SOL     OW96690   6.884   0.121   4.939  0.2020  0.6159 -0.0535
30285SOL    HW196691   6.818   0.078   4.884 -0.4722  1.2623  0.2200
30285SOL    HW296692   6.888   0.067   5.018  1.9036 -0.8830 -1.1077
30286SOL     OW96693   5.416   3.186   7.691 -0.6479 -0.4271  0.5849
30286SOL    HW196694   5.455   3.245   7.755 -2.1516 -0.3227  1.4616
30286SOL    HW296695   5.433   3.098   7.725 -0.3820 -0.4137  0.4838
30287SOL     OW96696   8.777   1.081   3.200  0.1494 -1.1883 -0.1011
30287SOL    HW196697   8.841   1.046   3.262  0.8012 -1.5768 -0.9696
30287SOL    HW296698   8.707   1.016   3.198 -0.7707 -0.3190  1.5566
30288SOL     OW96699   6.391   2.440   1.719 -0.2268  0.5974 -0.3017
30288SOL    HW196700   6.318   2.474   1.666 -0.8827  1.0767  0.8740
30288SOL    HW296701   6.352   2.369   1.770 -0.1047  1.4168  0.9736
30289SOL     OW96702   9.900   7.611   6.985  0.1255  0.2061 -0.1592
30289SOL    HW196703   9.971   7.674   6.999 -0.4866  0.8112  0.2817
30289SOL    HW296704   9.859   7.601   7.071  0.5360 -1.2148 -0.0992
30290SOL     OW96705   8.384   0.734   4.699  0.6203  0.1992  0.0536
30290SOL    HW196706   8.318   0.737   4.768 -0.7794  0.1210 -1.2374
30290SOL    HW296707   8.397   0.826   4.675 -1.6207  0.0746 -2.0127
30291SOL     OW96708   6.576   7.743   7.350 -0.1090  0.2704 -0.1345
30291SOL    HW196709   6.493   7.790   7.347 -0.0705  0.3281 -0.2923
30291SOL    HW296710   6.636   7.796   7.298 -0.4201 -0.6453 -1.4625
30292SOL     OW96711   0.002   4.703   2.542 -0.1460 -0.1962  0.0820
30292SOL    HW196712  -0.028   4.624   2.497  0.4107 -0.3148 -0.0842
30292SOL    HW296713   0.057   4.748   2.478 -0.8153  0.5599  0.0182
30293SOL     OW96714   0.165   3.653   8.006 -0.5388  0.6549 -0.3848
30293SOL    HW196715   0.144   3.580   7.949  0.0396 -1.0572  1.4577
30293SOL    HW296716   0.260   3.647   8.020 -0.2170  2.6571 -1.2965
30294SOL     OW96717   7.346   5.589   8.371  0.7127  0.2720  0.6825
30294SOL    HW196718   7.275   5.524   8.368  2.0744 -1.2552 -1.6175
30294SOL    HW296719   7.319   5.650   8.439 -2.7299 -0.3190  0.0579
30295SOL     OW96720   1.921   0.643   8.309  0.0643  0.1418  0.3722
30295SOL    HW196721   1.952   0.565   8.355  0.0652  0.0794  0.2661
30295SOL    HW296722   1.987   0.659   8.241  0.4756  0.6991  0.9016
30296SOL     OW96723   6.097   0.673   9.353  0.3679  0.5633 -0.5672
30296SOL    HW196724   6.104   0.664   9.448 -3.5309 -1.0254 -0.2281
30296SOL    HW296725   6.163   0.614   9.318 -0.5986 -1.7511  1.2772
30297SOL     OW96726  10.904  10.778   3.730  0.1641  0.3246  0.1439
30297SOL    HW196727  10.843  10.836   3.775  0.4079  1.1920 -0.6229
30297SOL    HW296728  10.848  10.715   3.685 -0.1150  0.1876  0.6697
30298SOL     OW96729   2.342   1.445   9.040  0.0381 -0.6036 -0.4133
30298SOL    HW196730   2.369   1.464   9.130 -0.2790  1.6344 -0.7299
30298SOL    HW296731   2.407   1.384   9.007  1.2541  0.0311  0.7383
30299SOL     OW96732   4.262   0.603   7.657  0.1293 -0.1281 -0.7376
30299SOL    HW196733   4.306   0.535   7.605  0.6704  0.6739 -1.3581
30299SOL    HW296734   4.223   0.555   7.730  2.2476 -0.8652 -0.0040
30300SOL     OW96735   4.286   0.960   3.887 -0.3552  0.5856  0.5425
30300SOL    HW196736   4.318   0.888   3.942  0.4557  0.9687  0.5766
30300SOL    HW296737   4.227   0.917   3.825  2.3704 -0.6312 -1.3913
30301SOL     OW96738   2.521   2.328   3.030 -0.4147 -0.4646 -0.0575
30301SOL    HW196739   2.506   2.317   3.124  1.2336  0.8226  0.3954
30301SOL    HW296740   2.585   2.260   3.008 -1.3421 -1.2441 -0.4428
30302SOL     OW96741   5.691   7.076   8.996  0.0555  0.2011 -0.0772
30302SOL    HW196742   5.601   7.048   9.013 -0.2917 -1.7156 -4.0371
30302SOL    HW296743   5.684   7.165   8.963 -1.0898 -1.2271 -4.2316
30303SOL     OW96744   7.703   6.268   5.828  0.1881 -0.3783  0.6712
30303SOL    HW196745   7.762   6.248   5.900  1.4929 -0.9934 -0.5304
30303SOL    HW296746   7.757   6.260   5.750 -1.1619  0.3972 -0.3757
30304SOL     OW96747   0.090   2.687   5.036  0.0214 -0.1160 -0.9965
30304SOL    HW196748   0.088   2.754   4.968  1.3077  0.3199 -0.6286
30304SOL    HW296749   0.168   2.635   5.017  0.8376  0.4708  0.5458
30305SOL     OW96750   7.863   1.018  10.041 -0.1294 -0.6514 -0.7234
30305SOL    HW196751   7.878   1.103  10.002 -1.9815  0.8647  1.5373
30305SOL    HW296752   7.944   0.997  10.087  0.0674  0.3172 -0.6146
30306SOL     OW96753   4.716   4.635   2.172  0.3561  0.7347  0.2420
30306SOL    HW196754   4.760   4.710   2.132 -0.1021 -0.6411 -3.1702
30306SOL    HW296755   4.631   4.670   2.199 -0.6003  1.2593 -2.9523
30307SOL     OW96756   1.021   6.104   5.568  0.0600 -0.5668 -0.5903
30307SOL    HW196757   1.094   6.160   5.594  0.8477 -1.8016 -0.0628
30307SOL    HW296758   0.954   6.120   5.634  0.8154 -1.2648  0.3662
30308SOL     OW96759   3.577   0.670   2.557  0.2029  0.2322 -0.2224
30308SOL    HW196760   3.511   0.723   2.511 -0.5428 -0.6288 -0.1628
30308SOL    HW296761   3.632   0.734   2.602  0.2002  1.0364 -1.3118
30309SOL     OW96762  10.493   6.989   8.819 -0.2884  0.2197  0.4680
30309SOL    HW196763  10.481   6.921   8.752  0.1844  0.5449  0.0370
30309SOL    HW296764  10.575   7.031   8.794 -0.3324  0.6303  1.0127
30310SOL     OW96765   0.065   5.237   7.211  0.0717  0.2124 -0.7638
30310SOL    HW196766   0.127   5.209   7.278 -0.4168 -0.6142 -0.6394
30310SOL    HW296767  -0.005   5.172   7.214  0.0043  0.1994 -2.0361
30311SOL     OW96768   3.418   2.647   6.212 -0.6341  0.0645 -0.2895
30311SOL    HW196769   3.498   2.699   6.202 -0.2947 -0.5340 -0.7078
30311SOL    HW296770   3.374   2.653   6.127 -0.1820 -1.0034 -0.6098
30312SOL     OW96771   7.388   6.803   3.218  0.4590 -0.1123 -0.1842
30312SOL    HW196772   7.303   6.847   3.223  0.3740 -0.3363  0.5992
30312SOL    HW296773   7.387   6.743   3.293  1.5814  0.3761  0.2339
30313SOL     OW96774   3.411   6.153   8.825  0.3847 -0.5896  0.1397
30313SOL    HW196775   3.483   6.127   8.883  1.0027  0.1612 -0.2622
30313SOL    HW296776   3.333   6.118   8.867  1.0069 -1.6345  0.4580
30314SOL     OW96777   4.789   8.821   6.280 -0.1831  0.0936 -0.0139
30314SOL    HW196778   4.733   8.807   6.357  0.8713 -0.0745  0.7489
30314SOL    HW296779   4.861   8.759   6.292  0.5547  0.8277 -0.5865
30315SOL     OW96780   7.514   9.806   3.587 -0.0305  0.2437  0.2808
30315SOL    HW196781   7.594   9.848   3.619 -0.6584  1.2309  0.6048
30315SOL    HW296782   7.545   9.727   3.544  1.1722  0.8463 -0.0293
30316SOL     OW96783   7.343   6.555   7.347 -0.5702  0.2343  0.1355
30316SOL    HW196784   7.344   6.514   7.433  0.7410  0.1989  0.1302
30316SOL    HW296785   7.419   6.613   7.347  0.8316 -1.4533 -1.7740
30317SOL     OW96786   9.997   7.437   4.833  0.4051  0.0581  0.0663
30317SOL    HW196787   9.983   7.348   4.865  1.1437 -0.1493 -0.1622
30317SOL    HW296788   9.975   7.432   4.740 -0.0158  0.2285  0.1571
30318SOL     OW96789   6.281   2.430   6.436 -0.7147  0.7574 -0.8515
30318SOL    HW196790   6.302   2.423   6.529  0.2148 -0.6672 -1.1381
30318SOL    HW296791   6.188   2.405   6.430 -0.0438 -2.1003 -0.6017
30319SOL     OW96792   8.939   2.138  10.165  0.5545 -0.6250 -0.2968
30319SOL    HW196793   8.937   2.233  10.155 -0.9682 -0.7137 -1.0239
30319SOL    HW296794   8.893   2.121  10.247  3.2349 -0.6127  1.3157
30320SOL     OW96795   9.660   2.351   3.519 -0.4543  0.0120 -0.3241
30320SOL    HW196796   9.673   2.267   3.475  0.0023  0.1608 -0.4807
30320SOL    HW296797   9.697   2.339   3.606 -2.0186 -0.5168  0.3053
30321SOL     OW96798   3.644   8.332  10.275 -0.1391  0.5663 -0.3300
30321SOL    HW196799   3.709   8.262  10.267 -0.0109  0.7490 -1.0075
30321SOL    HW296800   3.694   8.409  10.301 -0.1209  0.6478 -0.6020
30322SOL     OW96801   2.472   8.860   8.337  0.2357 -0.3893 -0.4468
30322SOL    HW196802   2.455   8.771   8.368 -0.4202 -0.4941 -1.0750
30322SOL    HW296803   2.386   8.894   8.312  0.5954  0.0841 -1.0827
30323SOL     OW96804   6.980   7.676   5.855  0.0580 -0.4926  0.0766
30323SOL    HW196805   6.936   7.701   5.774 -1.6336 -1.1768  0.7406
30323SOL    HW296806   6.971   7.581   5.861 -2.3819 -0.2378  2.3719
30324SOL     OW96807   6.251   0.271   3.179 -0.1729  0.2216  0.1766
30324SOL    HW196808   6.338   0.249   3.213 -0.8271 -1.1391  1.0378
30324SOL    HW296809   6.223   0.346   3.232  0.5653  0.8146 -0.2623
30325SOL     OW96810   3.846   7.206   6.562 -0.0052  0.0546  0.0217
30325SOL    HW196811   3.874   7.145   6.495 -0.4591  0.1925 -0.2991
30325SOL    HW296812   3.755   7.182   6.581 -0.5192  1.2351 -0.8169
30326SOL     OW96813   6.473   7.178   1.174 -0.1724 -0.0285 -0.6843
30326SOL    HW196814   6.544   7.119   1.147  1.0016  0.4818  1.1032
30326SOL    HW296815   6.405   7.120   1.207  0.6310 -0.4315  0.2902
30327SOL     OW96816   9.651   6.188   8.477  0.3151 -0.6892 -0.4045
30327SOL    HW196817   9.740   6.179   8.443  0.4892 -0.0706 -0.1315
30327SOL    HW296818   9.663   6.230   8.562 -0.1767 -1.4195  0.0392
30328SOL     OW96819  10.598   8.305   4.764 -0.2588  0.3807  0.1183
30328SOL    HW196820  10.508   8.277   4.779 -0.1962  1.4713  3.1737
30328SOL    HW296821  10.651   8.244   4.816  0.6499  0.5689 -0.5645
30329SOL     OW96822   3.170   0.330   2.894  0.6555  0.4660  0.1459
30329SOL    HW196823   3.102   0.362   2.953  1.0686  2.0285 -0.1792
30329SOL    HW296824   3.123   0.307   2.814  0.2255 -0.7210  0.7129
30330SOL     OW96825   2.220   1.894   8.009  0.6105 -0.0677 -0.2024
30330SOL    HW196826   2.280   1.837   7.960  0.9810  2.8955 -3.6233
30330SOL    HW296827   2.278   1.952   8.058  0.4038  0.0769 -0.1311
30331SOL     OW96828   5.077   6.968   0.085 -0.1800 -0.1935 -0.5187
30331SOL    HW196829   5.044   6.947   0.172 -0.3349  0.7856 -0.3337
30331SOL    HW296830   5.133   7.044   0.098 -1.8828  1.3323 -1.5475
30332SOL     OW96831   4.970   0.167   2.940 -0.0557  0.4477  0.6190
30332SOL    HW196832   5.006   0.079   2.932 -1.5742 -0.1984  0.7488
30332SOL    HW296833   4.993   0.195   3.029  3.5481  1.6623 -0.5043
30333SOL     OW96834   5.854   6.798   5.035  0.6141 -0.6211 -0.5847
30333SOL    HW196835   5.939   6.774   5.071  0.5932 -0.6156 -0.5316
30333SOL    HW296836   5.791   6.767   5.100  0.6425  0.7494  0.1404
30334SOL     OW96837   0.893   0.477   6.674 -0.3313 -0.1425  0.2107
30334SOL    HW196838   0.861   0.564   6.698 -0.1844 -0.0607  0.1147
30334SOL    HW296839   0.954   0.454   6.744  0.5716  0.3604 -0.3775
30335SOL     OW96840   5.293   3.024   2.281  0.6166  0.2003  0.4548
30335SOL    HW196841   5.199   3.023   2.303  0.2539 -0.1827 -1.0111
30335SOL    HW296842   5.317   3.117   2.286 -0.5833  0.7301 -1.9514
30336SOL     OW96843   0.233   2.269   2.296  0.0575 -0.0100 -0.6270
30336SOL    HW196844   0.194   2.262   2.383  1.2687 -1.3808 -0.1535
30336SOL    HW296845   0.233   2.362   2.277  0.3610  0.3915  1.1428
30337SOL     OW96846   7.025   5.317  10.670  0.1892 -0.2954  0.1199
30337SOL    HW196847   7.103   5.352  10.713  0.2867  0.6150 -0.7617
30337SOL    HW296848   6.955   5.332  10.734  0.5644 -0.2135  0.5170
30338SOL     OW96849   2.248   6.189   9.779  0.0991  0.6863 -0.8961
30338SOL    HW196850   2.265   6.191   9.685 -1.1683 -1.1967 -1.2361
30338SOL    HW296851   2.162   6.147   9.787  0.4531  0.2133  1.1220
30339SOL     OW96852  10.636   8.537   8.438 -0.0455 -0.5992 -0.4965
30339SOL    HW196853  10.556   8.497   8.469  1.4778 -2.0119  1.9497
30339SOL    HW296854  10.666   8.481   8.367 -0.7283 -0.6086 -0.7758
30340SOL     OW96855   3.082   6.170   6.788  0.5513 -0.1173  0.0259
30340SOL    HW196856   3.147   6.240   6.796 -0.6086  0.9542  0.3775
30340SOL    HW296857   3.037   6.189   6.706 -0.0499 -0.2145  0.3339
30341SOL     OW96858   9.890   7.242   2.261  0.4742 -0.3829  0.1524
30341SOL    HW196859   9.921   7.237   2.351 -0.9432  1.4497  0.8006
30341SOL    HW296860   9.809   7.191   2.260 -0.1334  0.5628  0.2289
30342SOL     OW96861   9.046   7.406   1.925  0.0411 -0.0033  0.6019
30342SOL    HW196862   9.001   7.414   1.841  0.1754  1.5074  0.6484
30342SOL    HW296863   9.091   7.321   1.920 -1.0969 -0.5919 -0.2680
30343SOL     OW96864   1.480  10.448   2.420  0.3531 -0.0015 -0.0121
30343SOL    HW196865   1.532  10.519   2.458  1.4647 -0.4078 -0.7208
30343SOL    HW296866   1.430  10.489   2.349  0.0251  0.3033  0.3872
30344SOL     OW96867   6.228   8.646   5.162  0.4192  0.6513  0.2960
30344SOL    HW196868   6.267   8.584   5.100  1.2608  0.5081  0.9677
30344SOL    HW296869   6.162   8.594   5.209  0.6015  0.4587  0.3392
30345SOL     OW96870   5.535   6.954   5.235 -0.1502  0.0095  0.4048
30345SOL    HW196871   5.521   6.892   5.307  0.5274  0.3391  0.8214
30345SOL    HW296872   5.465   7.018   5.245 -0.5059 -0.3551  0.3176
30346SOL     OW96873   2.865   5.250   4.050 -0.5908 -0.6334 -0.4135
30346SOL    HW196874   2.823   5.266   4.134 -0.9204 -1.5544 -0.3918
30346SOL    HW296875   2.809   5.185   4.007 -0.9903  0.5675 -1.7801
30347SOL     OW96876   6.264   5.788   2.643  0.3553 -0.1267 -0.0498
30347SOL    HW196877   6.352   5.762   2.670  0.3170  1.2243  1.5996
30347SOL    HW296878   6.215   5.707   2.639  0.8067 -0.6386  2.5625
30348SOL     OW96879   3.418   2.151  10.336  0.2091 -0.1022  0.3331
30348SOL    HW196880   3.484   2.148  10.267 -1.0714 -0.2957 -0.9346
30348SOL    HW296881   3.403   2.059  10.358 -1.8485 -0.3311 -1.6508
30349SOL     OW96882  10.522   6.723   5.169  0.0483  0.3503 -0.2078
30349SOL    HW196883  10.447   6.670   5.142  0.4495  0.1740 -0.9936
30349SOL    HW296884  10.598   6.676   5.136  0.4355  1.2111 -0.5818
30350SOL     OW96885   6.482   4.519   7.748  0.7904 -0.3353 -0.2220
30350SOL    HW196886   6.502   4.594   7.804 -0.0180 -1.5503  1.8346
30350SOL    HW296887   6.566   4.476   7.735  1.3955  1.2935 -2.0889
30351SOL     OW96888  10.045   8.020  10.167 -0.0163  0.0577  0.0942
30351SOL    HW196889  10.067   7.986  10.254 -1.5980  0.4741  0.6810
30351SOL    HW296890  10.107   8.092  10.153  1.7950 -1.4593 -0.1606
30352SOL     OW96891   2.449   3.979   1.697  0.3346  0.9964 -0.1048
30352SOL    HW196892   2.518   3.972   1.763  0.8036  0.7003 -0.6178
30352SOL    HW296893   2.477   3.920   1.627 -0.5865  0.6460 -0.1919
30353SOL     OW96894   8.161  10.892   7.690  0.2423  0.1864 -0.1773
30353SOL    HW196895   8.124  10.912   7.776  1.8165  1.0552  0.3344
30353SOL    HW296896   8.256  10.896   7.703  0.5428  1.8713 -2.2865
30354SOL     OW96897   9.549   3.626   1.536  0.4164 -0.8305  0.0923
30354SOL    HW196898   9.467   3.613   1.582  1.2387 -1.0304  1.5482
30354SOL    HW296899   9.614   3.640   1.605  1.2625  1.4775 -1.0478
30355SOL     OW96900   8.216   6.130   6.074 -0.3888 -0.0297 -0.3668
30355SOL    HW196901   8.230   6.124   6.169 -1.3493  0.4724 -0.1816
30355SOL    HW296902   8.154   6.060   6.055 -0.8610  0.4132 -0.4758
30356SOL     OW96903   2.103   9.448   9.418 -0.1849 -0.1103  0.0153
30356SOL    HW196904   2.108   9.387   9.344  2.0875 -0.5518  0.4542
30356SOL    HW296905   2.120   9.393   9.495  2.2862  1.0582  0.3850
30357SOL     OW96906   7.911   6.127   5.254  0.3659 -0.1845 -0.2309
30357SOL    HW196907   7.917   6.139   5.349  1.1742  0.4337 -0.3551
30357SOL    HW296908   8.000   6.138   5.222  0.0594 -0.1246 -1.0975
30358SOL     OW96909   6.975   3.760   3.821  0.2169  0.2768  0.7573
30358SOL    HW196910   7.070   3.765   3.817  0.2552 -0.7814 -0.2240
30358SOL    HW296911   6.946   3.774   3.731 -0.2994 -2.9188  0.3061
30359SOL     OW96912   0.712   8.054   4.004 -0.1600  0.1610  0.4051
30359SOL    HW196913   0.708   7.962   3.979  0.0647  0.2772 -0.0899
30359SOL    HW296914   0.770   8.093   3.938 -2.1368  1.1221 -0.8830
30360SOL     OW96915   3.117   8.957   8.709 -0.1714 -0.4650  0.1605
30360SOL    HW196916   3.156   8.884   8.757  0.6380 -0.7495 -0.8680
30360SOL    HW296917   3.186   8.984   8.647 -0.5489  0.9937  0.3312
30361SOL     OW96918   4.264   5.683   2.848  0.7527  0.2115 -0.2056
30361SOL    HW196919   4.243   5.756   2.789  1.5121  0.5435 -0.0693
30361SOL    HW296920   4.330   5.633   2.802  0.9629  0.1732  0.1343
30362SOL     OW96921   1.596   7.404   9.802 -0.3762  0.0372  0.0323
30362SOL    HW196922   1.624   7.322   9.762  1.9317  0.5513  0.4479
30362SOL    HW296923   1.597   7.387   9.896 -1.5197  0.0934  0.0708
30363SOL     OW96924   5.892   6.122   3.452  0.5705 -0.0609 -0.0232
30363SOL    HW196925   5.887   6.036   3.412  0.3462  0.7476 -1.8438
30363SOL    HW296926   5.983   6.129   3.482  0.5180 -1.0096  0.3952
30364SOL     OW96927   3.059   8.892   1.176  0.0353  0.3065  0.0913
30364SOL    HW196928   3.088   8.850   1.257 -1.9010 -1.2475  0.0587
30364SOL    HW296929   2.969   8.919   1.194 -0.0749  0.8878 -1.2219
30365SOL     OW96930   4.376   5.782   9.286  0.4656 -0.0679 -1.0876
30365SOL    HW196931   4.355   5.774   9.379 -1.4855  0.2097 -1.4589
30365SOL    HW296932   4.304   5.737   9.241  0.9855  0.4243 -2.4872
30366SOL     OW96933   2.478   3.635   6.808  0.3618  0.3309  0.0589
30366SOL    HW196934   2.429   3.707   6.769  1.8752  2.1589  1.3540
30366SOL    HW296935   2.547   3.677   6.858 -0.5781 -1.8492  3.5916
30367SOL     OW96936   1.417   8.870   5.058  0.6522 -0.1767  0.7756
30367SOL    HW196937   1.392   8.902   5.144  0.0128  1.3973  0.0320
30367SOL    HW296938   1.500   8.823   5.073  0.2862 -0.3871  2.3015
30368SOL     OW96939   8.026   7.067   7.968  0.5022  0.0838 -0.3831
30368SOL    HW196940   7.955   7.008   7.992 -1.4866  1.6639 -2.0042
30368SOL    HW296941   8.077   7.019   7.903  0.1582 -0.6021 -0.1559
30369SOL     OW96942   6.943   0.799   5.681  0.9008 -0.5483  0.2555
30369SOL    HW196943   6.966   0.787   5.773  0.5285 -0.1328  0.4055
30369SOL    HW296944   7.008   0.860   5.647  0.2664  0.3273  0.5811
30370SOL     OW96945   5.079   5.471   3.089  0.2804  0.0424  0.3036
30370SOL    HW196946   5.015   5.471   3.160 -1.0463  3.7240 -0.6935
30370SOL    HW296947   5.028   5.447   3.011  0.8026  0.0972 -0.0585
30371SOL     OW96948   2.476   8.760   6.584  0.5032 -0.3556  0.3462
30371SOL    HW196949   2.547   8.732   6.526  1.2405 -0.1155  1.1220
30371SOL    HW296950   2.508   8.839   6.627 -0.8933  0.7423 -0.5281
30372SOL     OW96951   9.626   2.406   5.728  0.3252  0.2263 -0.7885
30372SOL    HW196952   9.719   2.426   5.730  0.7804 -1.6256 -1.2177
30372SOL    HW296953   9.620   2.325   5.678 -1.4996  0.1719 -0.5633
30373SOL     OW96954  10.544   7.846   5.308 -0.4033 -0.3213  0.0556
30373SOL    HW196955  10.459   7.838   5.263  0.0724  0.8510 -1.1220
30373SOL    HW296956  10.592   7.767   5.282 -0.2635  0.1705 -1.2915
30374SOL     OW96957   1.402   4.744  10.892 -0.2850 -0.0398 -0.1886
30374SOL    HW196958   1.476   4.800  10.917 -1.0466  0.3853  1.2046
30374SOL    HW296959   1.427   4.657  10.922 -0.7566  0.2851  1.1934
30375SOL     OW96960   8.745   3.669   0.305 -0.0327  0.0629 -0.0170
30375SOL    HW196961   8.682   3.632   0.366 -1.6188  1.0521 -0.9785
30375SOL    HW296962   8.793   3.594   0.271 -0.3869 -0.6684  1.0471
30376SOL     OW96963   2.058   8.503   6.981 -0.1115  0.3618  0.0693
30376SOL    HW196964   2.145   8.487   7.016  0.1161  2.4747  0.5704
30376SOL    HW296965   2.073   8.539   6.894 -0.5568 -0.7478 -0.4873
30377SOL     OW96966   8.049  10.035  10.907 -0.0749 -0.3159  0.3456
30377SOL    HW196967   8.120  10.052  10.969  0.0898  0.5097 -0.0464
30377SOL    HW296968   8.092   9.998  10.830 -0.0899 -0.0614  0.2102
30378SOL     OW96969   9.000   2.517   3.128 -0.2476  0.3817 -0.2594
30378SOL    HW196970   8.997   2.421   3.121  0.5582  0.2790  0.5977
30378SOL    HW296971   8.995   2.534   3.222 -1.2495  1.2328 -0.4553
30379SOL     OW96972   9.201  10.756   8.022 -0.0880 -0.2809  0.4398
30379SOL    HW196973   9.157  10.677   7.992 -0.6418  0.8167 -1.8523
30379SOL    HW296974   9.135  10.803   8.072 -1.1575  0.6473 -1.7245
30380SOL     OW96975   0.106   9.062   3.179  0.3154 -0.5592  0.6790
30380SOL    HW196976   0.130   9.147   3.214  1.4677 -0.8347  0.5936
30380SOL    HW296977   0.057   9.019   3.249 -0.4406  0.2298  0.6526
30381SOL     OW96978   9.705   5.119   1.315  0.1273 -0.3795  0.4134
30381SOL    HW196979   9.718   5.151   1.226 -0.3166 -1.8681 -0.2156
30381SOL    HW296980   9.759   5.041   1.321  1.2389  0.4495  1.9341
30382SOL     OW96981   5.442   4.345   4.163 -0.0611  0.2464  0.3287
30382SOL    HW196982   5.381   4.342   4.237  0.3839 -0.9836  0.6575
30382SOL    HW296983   5.432   4.434   4.128 -2.7437 -0.1709 -0.2102
30383SOL     OW96984   9.574   4.141   4.066 -0.3215 -0.2939  0.0886
30383SOL    HW196985   9.555   4.048   4.054  0.0594 -0.4542  0.6757
30383SOL    HW296986   9.653   4.156   4.014  0.6535 -0.7223  1.3802
30384SOL     OW96987   4.864   2.457  10.888  0.1258 -0.6633  0.2514
30384SOL    HW196988   4.948   2.452  10.934  1.2680 -0.0066 -1.6473
30384SOL    HW296989   4.886   2.442  10.796 -2.1003 -2.1589 -0.1081
30385SOL     OW96990   3.929   9.515   9.697  0.0623  0.2966 -0.1467
30385SOL    HW196991   3.894   9.491   9.611  0.9796 -1.3351 -0.0971
30385SOL    HW296992   3.965   9.603   9.685 -0.6951  0.4865 -1.1568
30386SOL     OW96993  10.231   0.096   6.517  0.0674  0.1185  0.0714
30386SOL    HW196994  10.305   0.126   6.570  0.3458 -1.0771  0.3859
30386SOL    HW296995  10.156   0.146   6.550  0.7167  1.3529 -0.2654
30387SOL     OW96996   4.685   6.121   2.861 -0.2349  0.3760 -0.3624
30387SOL    HW196997   4.766   6.098   2.906 -0.3203  2.3609  0.9362
30387SOL    HW296998   4.624   6.051   2.883  0.7753 -0.5364 -0.3917
30388SOL     OW96999   2.734   5.804   9.543  0.9366 -0.3539 -0.3895
30388SOL    HW197000   2.679   5.740   9.497  0.9831  0.8245 -2.2021
30388SOL    HW297001   2.823   5.773   9.531  0.9322 -0.1667 -0.9544
30389SOL     OW97002   0.057   8.293   1.947 -0.5493  0.5258 -0.5042
30389SOL    HW197003   0.140   8.319   1.906 -1.0370 -0.5606 -2.3080
30389SOL    HW297004   0.065   8.198   1.959 -1.4605  0.4419 -0.5220
30390SOL     OW97005   2.664   4.119  10.082 -0.1463  0.0862  0.1454
30390SOL    HW197006   2.587   4.075  10.046 -0.3661  0.7554 -0.2171
30390SOL    HW297007   2.629   4.190  10.136  0.1868 -0.6769  1.4049
30391SOL     OW97008   4.389  10.185   7.414 -0.4052 -0.6658 -0.0756
30391SOL    HW197009   4.320  10.119   7.406 -1.1944  0.0959  0.3278
30391SOL    HW297010   4.379  10.240   7.337 -0.3791 -0.4242  0.0925
30392SOL     OW97011   3.008   0.819   9.556  0.1314 -0.0594  0.2469
30392SOL    HW197012   2.992   0.895   9.499  1.0855  1.7713  2.2918
30392SOL    HW297013   2.974   0.846   9.641 -1.1690 -2.7002  0.6605
30393SOL     OW97014   6.472  10.600  10.734  0.3731  0.3008  0.4153
30393SOL    HW197015   6.405  10.540  10.766 -0.0087 -0.1330 -1.0903
30393SOL    HW297016   6.466  10.593  10.638  0.6254  2.3915  0.2055
30394SOL     OW97017   5.569   5.941   4.921 -0.2509 -0.1750  0.1691
30394SOL    HW197018   5.620   5.890   4.858 -1.5735  0.9788 -1.9767
30394SOL    HW297019   5.608   6.028   4.918  0.3293 -0.3558  1.7916
30395SOL     OW97020   4.073   1.781   3.018  0.0136 -0.5747  0.0859
30395SOL    HW197021   4.067   1.736   2.934 -1.5112  0.1225 -0.2057
30395SOL    HW297022   3.988   1.768   3.059  0.2527  0.2878  0.8971
30396SOL     OW97023   5.787   7.196   9.986 -0.6258 -0.1625 -0.0137
30396SOL    HW197024   5.786   7.175  10.079  1.6338 -1.7477 -0.2435
30396SOL    HW297025   5.697   7.182   9.957 -1.5441  1.0572  2.0110
30397SOL     OW97026   6.628   2.325  10.593 -0.9090 -0.0864 -0.7255
30397SOL    HW197027   6.585   2.322  10.678  1.5661 -0.6698  0.6015
30397SOL    HW297028   6.589   2.400  10.549 -0.8485  1.5311  1.7748
30398SOL     OW97029   2.644   5.563   0.192  0.5634  0.0790  0.2457
30398SOL    HW197030   2.616   5.617   0.117 -0.0459 -0.5068  0.0396
30398SOL    HW297031   2.612   5.611   0.268 -0.7011 -0.3828  0.0284
30399SOL     OW97032   4.493   8.761   8.528  0.2809 -0.2379  0.2378
30399SOL    HW197033   4.561   8.694   8.537  0.9472  0.3975 -0.0435
30399SOL    HW297034   4.518   8.812   8.452 -0.7006 -0.1965 -0.0757
30400SOL     OW97035  10.879   3.646   8.645 -0.1551 -0.4462 -0.4415
30400SOL    HW197036  10.869   3.557   8.610  0.1439 -0.2809 -0.9737
30400SOL    HW297037  10.894   3.700   8.567  1.4943 -0.2011  0.0053
30401SOL     OW97038   2.370   8.075   5.810 -0.2613 -0.2218 -0.4336
30401SOL    HW197039   2.332   8.074   5.898 -1.0420  0.0348 -0.7645
30401SOL    HW297040   2.321   8.009   5.761  1.7666 -2.1153 -0.0422
30402SOL     OW97041   6.694   3.999  10.116 -0.0727  0.1536  0.8295
30402SOL    HW197042   6.777   3.953  10.115  0.4800  1.1313  0.0583
30402SOL    HW297043   6.666   3.996  10.208  1.0553  0.2401  1.1888
30403SOL     OW97044  10.903   5.024   0.492  0.1443 -0.3469  0.2000
30403SOL    HW197045  10.989   4.985   0.476 -1.2338 -3.3082 -0.5776
30403SOL    HW297046  10.890   5.016   0.586  1.7863  2.7875  0.8430
30404SOL     OW97047   8.148   3.969   4.131  0.1585 -0.0637  0.3267
30404SOL    HW197048   8.142   3.895   4.191 -1.3122 -0.7454 -0.5979
30404SOL    HW297049   8.056   3.994   4.115  0.4867 -0.0590 -1.8050
30405SOL     OW97050   4.019   3.377   9.173 -0.1697 -0.3700 -0.0817
30405SOL    HW197051   3.985   3.465   9.191 -0.8415 -0.3999 -1.1014
30405SOL    HW297052   3.968   3.320   9.230 -0.1548 -0.1607  0.1438
30406SOL     OW97053   5.022   4.238   6.106 -0.6061 -0.1328 -0.2301
30406SOL    HW197054   5.090   4.173   6.088 -0.1315  0.5254 -0.8753
30406SOL    HW297055   5.031   4.258   6.199 -0.0478 -0.2048 -0.2682
30407SOL     OW97056   7.705   1.207   0.803 -0.7445  0.5551  0.4216
30407SOL    HW197057   7.774   1.162   0.753 -0.6097  0.0049  1.0880
30407SOL    HW297058   7.640   1.232   0.737  0.0541  1.0228 -0.2111
30408SOL     OW97059   0.541   9.533   9.163  0.2886  0.2088  0.4678
30408SOL    HW197060   0.596   9.547   9.240 -0.0040 -0.3899  0.7963
30408SOL    HW297061   0.477   9.466   9.191  0.4006 -0.2776 -0.3951
30409SOL     OW97062   9.162  10.775  10.054 -0.2708  0.4678  0.4192
30409SOL    HW197063   9.102  10.841  10.090  0.6053  1.2226  0.5307
30409SOL    HW297064   9.193  10.812   9.972  0.0597  0.0889  0.3673
30410SOL     OW97065   2.495   5.376   4.856 -0.6832 -0.3542  0.0049
30410SOL    HW197066   2.427   5.437   4.884 -1.6676 -1.2135 -0.4503
30410SOL    HW297067   2.484   5.300   4.912  0.9478  0.0931  0.9955
30411SOL     OW97068   5.109   2.821   7.879  0.2481  0.5606  0.1935
30411SOL    HW197069   5.060   2.880   7.821  0.6479 -0.1749 -0.9207
30411SOL    HW297070   5.168   2.879   7.927  1.6079  1.0087 -1.8448
30412SOL     OW97071   7.518   4.560   4.322 -0.1974  0.2332  0.3146
30412SOL    HW197072   7.569   4.627   4.367 -0.4338 -0.4002  1.5918
30412SOL    HW297073   7.510   4.591   4.232 -1.9380  2.9023  1.2715
30413SOL     OW97074   8.580  10.352   8.889  0.5808 -0.4424 -0.1352
30413SOL    HW197075   8.615  10.404   8.817  0.7847 -0.3607  0.0256
30413SOL    HW297076   8.627  10.269   8.884  2.2668  0.3830  1.3252
30414SOL     OW97077   0.013   0.026   6.131 -0.6858  0.3310 -0.0810
30414SOL    HW197078   0.068  -0.051   6.124 -0.9397  0.2630 -1.8622
30414SOL    HW297079   0.075   0.099   6.137 -0.4044  0.1864 -1.1108
30415SOL     OW97080   2.588   4.573   3.063 -0.6717  0.1672  0.3428
30415SOL    HW197081   2.623   4.506   3.005 -3.0007 -1.6054  0.8314
30415SOL    HW297082   2.527   4.622   3.009 -0.4554  0.6212  0.5042
30416SOL     OW97083   1.319   9.200   8.848  0.1624 -0.2864 -0.1306
30416SOL    HW197084   1.275   9.189   8.933  0.8969  0.7764  0.3977
30416SOL    HW297085   1.262   9.259   8.800  0.3512  0.0590  0.0690
30417SOL     OW97086   1.025   1.027   5.051  0.0574  0.9426  0.0058
30417SOL    HW197087   1.117   1.054   5.055  0.3769 -0.1735  0.6640
30417SOL    HW297088   0.988   1.054   5.135 -0.1487  1.1416 -0.1474
30418SOL     OW97089   3.674  10.271   0.473 -0.3329 -0.0743  0.4432
30418SOL    HW197090   3.743  10.204   0.474 -1.9464 -1.8246  1.3395
30418SOL    HW297091   3.594  10.223   0.494 -1.5909  2.1730  1.0869
30419SOL     OW97092  10.565   7.293   5.270  0.1437 -0.3536 -0.2293
30419SOL    HW197093  10.501   7.279   5.200 -1.1539 -1.4828  1.1204
30419SOL    HW297094  10.650   7.290   5.226 -0.6696  2.1341 -2.2366
30420SOL     OW97095   2.431   5.158   4.319 -0.6011  0.1091  0.7179
30420SOL    HW197096   2.411   5.199   4.404  1.1419 -1.0726  1.7648
30420SOL    HW297097   2.367   5.087   4.312  0.6887 -1.3140  2.2734
30421SOL     OW97098   4.548   9.422   4.605  0.4252  0.5799 -0.4268
30421SOL    HW197099   4.620   9.461   4.557 -0.6655 -0.0063 -2.6583
30421SOL    HW297100   4.469   9.453   4.560 -0.6927  0.3614  1.2813
30422SOL     OW97101   6.772  10.693   6.384  0.3463  0.5828 -0.4406
30422SOL    HW197102   6.693  10.642   6.402  1.0783 -0.5731 -0.3865
30422SOL    HW297103   6.770  10.709   6.290  1.2889 -1.6572 -0.8989
30423SOL     OW97104   6.833   8.651   9.038  0.0757  0.1319  0.0209
30423SOL    HW197105   6.780   8.573   9.018  1.4556 -0.6631 -0.6663
30423SOL    HW297106   6.769   8.720   9.051 -1.1352 -0.7434 -1.0184
30424SOL     OW97107   0.153   9.740   2.840  0.2433  0.0775 -0.2637
30424SOL    HW197108   0.118   9.817   2.794 -1.4654  0.1845  1.1162
30424SOL    HW297109   0.184   9.775   2.923  0.2264 -0.6006  0.0284
30425SOL     OW97110   1.808   9.763   2.745  0.4091 -0.5026  0.0356
30425SOL    HW197111   1.787   9.807   2.663  0.3483 -0.2541  0.1834
30425SOL    HW297112   1.865   9.824   2.791 -2.2924  0.9469  1.7161
30426SOL     OW97113   2.558   6.119   0.098 -0.8445 -0.5930 -0.1802
30426SOL    HW197114   2.517   6.195   0.056 -0.3161  0.4909  1.1940
30426SOL    HW297115   2.492   6.085   0.157 -1.2092 -1.4572 -1.0614
30427SOL     OW97116   0.886   7.268   4.040 -0.1079 -0.4717 -0.4583
30427SOL    HW197117   0.894   7.256   4.135  0.9088 -0.8864 -0.5828
30427SOL    HW297118   0.925   7.189   4.003  1.5505  0.6688 -1.2477
30428SOL     OW97119   5.510   2.990   7.838  0.0092 -0.2717 -0.0318
30428SOL    HW197120   5.508   3.066   7.896  0.8684 -0.6152  0.4560
30428SOL    HW297121   5.599   2.957   7.843 -0.2195 -1.0272 -0.6245
30429SOL     OW97122   8.158   0.426   5.854 -0.2633 -0.4765  0.1337
30429SOL    HW197123   8.188   0.336   5.846 -0.8029 -0.6453 -0.0032
30429SOL    HW297124   8.064   0.419   5.869 -0.2884  0.0579  0.2579
30430SOL     OW97125   8.100   7.020   6.966  0.1345  1.1602 -0.9202
30430SOL    HW197126   8.090   6.930   6.935 -0.2391  1.6167 -2.1860
30430SOL    HW297127   8.193   7.029   6.984  0.1639  0.5013 -0.7154
30431SOL     OW97128   6.827   4.476   2.712 -0.0159  0.1656 -0.4959
30431SOL    HW197129   6.905   4.506   2.665  1.1856 -1.8610  0.0795
30431SOL    HW297130   6.830   4.524   2.795  2.2120 -1.7848  0.6718
30432SOL     OW97131   1.789   3.965   9.349 -0.5551  0.2223 -0.0403
30432SOL    HW197132   1.797   4.049   9.304  2.2119  0.0372 -0.1104
30432SOL    HW297133   1.776   3.901   9.279 -2.2192  0.5116 -0.0223
30433SOL     OW97134   1.421   2.757   6.936  0.5380  0.4136  0.1820
30433SOL    HW197135   1.474   2.726   6.862 -1.0407  0.3247 -0.9705
30433SOL    HW297136   1.386   2.841   6.907  0.7073  0.8683  1.2609
30434SOL     OW97137   3.569   4.405   1.782  0.2589 -0.1093  0.3908
30434SOL    HW197138   3.663   4.415   1.796  0.3276  0.6541 -0.5047
30434SOL    HW297139   3.542   4.488   1.742 -0.7907 -0.3302  0.6222
30435SOL     OW97140   7.989  10.537   3.475 -0.9949  0.1253 -0.2993
30435SOL    HW197141   7.907  10.585   3.466 -0.6735  0.4892 -1.4137
30435SOL    HW297142   8.030  10.541   3.388 -0.0276 -0.4686  0.1033
30436SOL     OW97143   7.199   1.481   8.687 -0.1660 -0.0124 -0.0681
30436SOL    HW197144   7.170   1.472   8.596 -0.5402 -0.6333  0.1103
30436SOL    HW297145   7.207   1.575   8.701 -2.5850  0.2214  0.0384
30437SOL     OW97146   7.715   7.980   3.934 -0.3206  0.1581 -0.2511
30437SOL    HW197147   7.652   8.048   3.961  0.0964  0.6974 -0.6231
30437SOL    HW297148   7.724   7.993   3.839  0.4628  0.1769 -0.1750
30438SOL     OW97149   1.193   3.275   7.404 -0.1091 -0.0346  0.0813
30438SOL    HW197150   1.288   3.282   7.403 -0.1806  1.1584 -0.7050
30438SOL    HW297151   1.173   3.211   7.335  0.0397  1.4940 -1.4300
30439SOL     OW97152   0.530   3.501   5.299  0.3384  0.2965  0.0683
30439SOL    HW197153   0.566   3.588   5.285 -1.4806  0.6031 -4.0911
30439SOL    HW297154   0.605   3.442   5.285  0.7403  1.0937 -1.3132
30440SOL     OW97155   5.226   9.301   6.840 -0.4273 -0.4248  0.5261
30440SOL    HW197156   5.284   9.228   6.819  0.5792  0.6605 -0.6260
30440SOL    HW297157   5.140   9.274   6.807 -0.4671 -1.7384  1.5921
30441SOL     OW97158   7.955   9.600   3.906  0.1342  0.0247  0.0589
30441SOL    HW197159   7.977   9.513   3.871  0.3886 -0.1426  0.6222
30441SOL    HW297160   7.860   9.601   3.910  0.1079 -0.0310 -0.4394
30442SOL     OW97161   3.799   0.894   8.598 -0.0232 -0.6476 -0.1782
30442SOL    HW197162   3.796   0.819   8.537  0.0125  0.6630 -1.8727
30442SOL    HW297163   3.785   0.970   8.542 -2.0293  0.5154  1.7672
30443SOL     OW97164  10.704   8.504   6.836  0.2918  0.7862 -0.1510
30443SOL    HW197165  10.619   8.545   6.821 -0.7192 -0.3935  1.9155
30443SOL    HW297166  10.740   8.550   6.913  1.2026  0.7678 -0.5485
30444SOL     OW97167   6.071   0.827   4.437 -0.4506  0.4210  0.6081
30444SOL    HW197168   6.020   0.764   4.488 -0.2674  0.5913  1.0025
30444SOL    HW297169   6.111   0.884   4.502  2.1882 -1.1271  0.4821
30445SOL     OW97170   5.388   5.570   7.792  0.2781  0.0982  0.5571
30445SOL    HW197171   5.385   5.590   7.698 -1.4816 -0.1069  0.5290
30445SOL    HW297172   5.359   5.650   7.835 -2.0184 -0.7274  0.7034
30446SOL     OW97173   5.591   8.468   3.922 -0.1203 -0.5471 -0.2359
30446SOL    HW197174   5.667   8.478   3.979 -0.6275 -1.1439  0.5765
30446SOL    HW297175   5.516   8.482   3.980 -0.6331 -0.1624 -0.9796
30447SOL     OW97176   4.886   2.167   9.168 -0.0629 -0.2935 -0.1093
30447SOL    HW197177   4.822   2.158   9.239 -1.1860  0.0687 -1.0383
30447SOL    HW297178   4.949   2.231   9.201 -0.9499  0.3866  0.3152
30448SOL     OW97179   6.879   7.980   7.758  0.1305 -0.2033  0.6938
30448SOL    HW197180   6.785   7.993   7.768 -0.6302 -3.5595 -1.0234
30448SOL    HW297181   6.909   7.953   7.845 -0.9302 -1.2793  0.7338
30449SOL     OW97182   7.706   8.444   8.509  0.4423 -0.3928  0.0106
30449SOL    HW197183   7.723   8.350   8.500  0.6372 -0.2177 -1.6663
30449SOL    HW297184   7.627   8.460   8.457  0.4440  0.3884  0.2270
30450SOL     OW97185   2.859   7.165   1.371  0.4333 -0.7680  0.3270
30450SOL    HW197186   2.929   7.100   1.376  0.1630 -1.0564  0.3921
30450SOL    HW297187   2.833   7.179   1.462  1.9931  1.0914  0.5510
30451SOL     OW97188   6.199  10.594   9.818 -0.3234 -0.1243  0.1230
30451SOL    HW197189   6.229  10.679   9.786  0.4470  0.0637  1.2890
30451SOL    HW297190   6.128  10.570   9.758  0.3405  0.7009 -1.0455
30452SOL     OW97191   5.932   4.436   7.369 -0.3176  0.4303 -0.3227
30452SOL    HW197192   6.007   4.409   7.422 -0.4828  0.4727 -0.0660
30452SOL    HW297193   5.926   4.531   7.382 -0.0171  0.5300 -0.8626
30453SOL     OW97194   9.313   5.417   2.204  0.4975 -0.0354  0.6572
30453SOL    HW197195   9.270   5.341   2.163  1.9034 -1.0471  0.9779
30453SOL    HW297196   9.289   5.491   2.149  0.0319 -0.9012 -0.3325
30454SOL     OW97197  10.708   6.285   0.790  0.2226 -0.5570 -0.4665
30454SOL    HW197198  10.653   6.238   0.727 -0.5967  0.4861 -0.5506
30454SOL    HW297199  10.742   6.360   0.742  0.3761 -0.2835  0.0618
30455SOL     OW97200   8.859   5.600   3.450 -0.2476  0.3249 -0.6566
30455SOL    HW197201   8.945   5.586   3.411 -0.1420  0.2017 -0.3795
30455SOL    HW297202   8.802   5.620   3.375 -0.5000 -1.9547 -1.1670
30456SOL     OW97203  10.262   2.199   6.977 -0.1762  0.2102 -0.2261
30456SOL    HW197204  10.256   2.260   6.903 -0.2391 -0.4711 -0.7929
30456SOL    HW297205  10.223   2.247   7.050 -1.0364  0.5356 -0.8695
30457SOL     OW97206   2.374   6.263   5.730 -0.1588 -0.1545 -0.6784
30457SOL    HW197207   2.438   6.301   5.791  3.1591 -1.8572 -2.7877
30457SOL    HW297208   2.312   6.217   5.786  1.5291  0.0586  1.5246
30458SOL     OW97209   5.926  10.587   9.177  0.1393  0.2715  0.2656
30458SOL    HW197210   5.991  10.576   9.107 -0.4626  0.1223 -0.2844
30458SOL    HW297211   5.846  10.548   9.141  0.3638 -1.8592  1.8909
30459SOL     OW97212   6.386   6.539   5.098 -0.4084 -0.5630 -0.2971
30459SOL    HW197213   6.385   6.443   5.092 -2.0077 -0.5538 -0.5573
30459SOL    HW297214   6.326   6.559   5.170 -0.8183  0.2719 -0.8545
30460SOL     OW97215   4.440   7.693   1.014 -0.1397  0.0436 -0.0575
30460SOL    HW197216   4.450   7.600   0.992 -1.1781 -0.3246  0.9146
30460SOL    HW297217   4.482   7.703   1.100 -1.0920  0.1879  0.4060
30461SOL     OW97218   2.516   7.877   8.893 -0.0918  0.7316 -0.0265
30461SOL    HW197219   2.565   7.910   8.969  1.3578 -0.3380 -0.4645
30461SOL    HW297220   2.424   7.898   8.913  0.3594  1.3369  1.5591
30462SOL     OW97221   5.566   3.934   0.249  0.0557  0.6143  0.0831
30462SOL    HW197222   5.480   3.918   0.212 -0.9591  1.8191  1.7803
30462SOL    HW297223   5.602   3.847   0.267 -0.5075  0.0918 -1.2198
30463SOL     OW97224   4.665   6.025   1.393 -0.0729 -0.0067  0.5599
30463SOL    HW197225   4.758   6.042   1.379 -0.2643 -0.1026 -1.0302
30463SOL    HW297226   4.630   6.107   1.427  0.5730  0.0244  1.1912
30464SOL     OW97227   4.615   0.949   2.631  0.1515 -0.7649  0.3371
30464SOL    HW197228   4.559   0.916   2.701 -1.1509  0.2500 -0.1923
30464SOL    HW297229   4.667   1.019   2.672  0.0199 -0.7535  0.4836
30465SOL     OW97230   0.656   0.762  10.127  0.2282  0.0294  0.2760
30465SOL    HW197231   0.673   0.799  10.040  0.0910 -1.8640 -0.6091
30465SOL    HW297232   0.742   0.754  10.167  0.2013  1.9561  0.8114
30466SOL     OW97233   8.428   7.407   7.586  0.0567  0.4483 -0.8865
30466SOL    HW197234   8.339   7.420   7.619  0.1173 -0.6174 -0.2470
30466SOL    HW297235   8.428   7.319   7.551  1.1945 -0.0655  0.3081
30467SOL     OW97236  10.429   2.304   3.916  0.1567  0.7108  0.0211
30467SOL    HW197237  10.410   2.374   3.854 -0.2019 -0.4483 -1.2124
30467SOL    HW297238  10.362   2.313   3.984 -0.7705  0.7127 -0.8708
30468SOL     OW97239   0.885   6.503   4.072 -0.2857  0.0643 -0.4592
30468SOL    HW197240   0.805   6.472   4.116 -0.7103  0.2854 -1.0646
30468SOL    HW297241   0.853   6.548   3.994  0.4144  0.5767 -0.4507
30469SOL     OW97242   2.988   4.925   8.957  0.0935  0.1251  0.2777
30469SOL    HW197243   3.066   4.896   8.910 -0.3461 -0.6947  0.0384
30469SOL    HW297244   2.947   4.844   8.987 -0.5417  0.5622  0.6073
30470SOL     OW97245   2.653   6.156   4.395 -0.5291  0.0089  0.1658
30470SOL    HW197246   2.564   6.188   4.387 -0.6729 -0.4909 -0.2655
30470SOL    HW297247   2.694   6.215   4.460 -1.6708 -0.8314  1.7140
30471SOL     OW97248   0.014   6.858   2.361  0.0612 -0.1194  0.7235
30471SOL    HW197249   0.106   6.878   2.344 -0.2794  1.5333  0.6701
30471SOL    HW297250   0.012   6.830   2.452  0.9899 -2.9912 -0.0349
30472SOL     OW97251   0.361  10.768   9.022 -0.1314  0.0103  0.0695
30472SOL    HW197252   0.397  10.857   9.030  0.8652 -0.3649 -0.1648
30472SOL    HW297253   0.312  10.755   9.103 -0.5984  0.9005 -0.0484
30473SOL     OW97254   0.832   6.670   5.136  0.1389 -0.1722  0.0826
30473SOL    HW197255   0.752   6.695   5.091  0.5021  1.2906  0.1971
30473SOL    HW297256   0.901   6.677   5.070  0.3424 -0.2697  0.2818
30474SOL     OW97257   3.924   0.844   7.959 -0.9402 -0.1971  0.4846
30474SOL    HW197258   3.906   0.927   8.003 -2.3057 -0.4175  0.3973
30474SOL    HW297259   3.980   0.796   8.019 -0.2462  0.7175  0.5970
30475SOL     OW97260   4.148   1.266   3.400 -0.0053 -0.1973 -0.5028
30475SOL    HW197261   4.089   1.305   3.336 -1.0047  0.9748  1.0508
30475SOL    HW297262   4.093   1.206   3.450  0.4997 -0.3300 -0.0910
30476SOL     OW97263   5.174   7.005   1.545 -0.0657  0.6641 -0.4908
30476SOL    HW197264   5.247   7.040   1.494  0.4071  0.2550 -0.1070
30476SOL    HW297265   5.107   6.983   1.480  0.2949  0.7070 -0.8788
30477SOL     OW97266   4.635   1.292   4.891  0.4802  0.1825 -0.5139
30477SOL    HW197267   4.670   1.206   4.914 -0.3302 -0.1813 -0.5873
30477SOL    HW297268   4.541   1.276   4.878  0.1366  1.2803  0.4890
30478SOL     OW97269   3.340   6.841   8.416  0.1078  0.2883 -0.3286
30478SOL    HW197270   3.297   6.846   8.332  0.1199  1.2557 -0.2822
30478SOL    HW297271   3.343   6.747   8.436 -0.0379  0.0676 -1.3185
30479SOL     OW97272   3.438   1.936   9.599 -0.1358 -0.0034  0.1739
30479SOL    HW197273   3.523   1.916   9.559  0.9578  1.0804  1.8076
30479SOL    HW297274   3.391   1.853   9.598  0.6473 -0.4642 -1.4320
30480SOL     OW97275   3.832   3.128   4.810 -0.0340  0.5907 -0.1146
30480SOL    HW197276   3.797   3.111   4.723  0.5824 -0.2361 -0.2109
30480SOL    HW297277   3.894   3.056   4.826 -0.0877  0.7622  0.9713
30481SOL     OW97278   0.354   0.476   6.273  0.1401 -0.1561 -0.6143
30481SOL    HW197279   0.354   0.516   6.360  1.0473 -1.6290  0.0948
30481SOL    HW297280   0.378   0.548   6.214 -1.4502  1.1066  0.1837
30482SOL     OW97281   2.846   0.998   7.113 -0.6952 -0.7937  0.4414
30482SOL    HW197282   2.926   0.993   7.165 -0.6658 -2.1045  0.3187
30482SOL    HW297283   2.777   1.019   7.176 -0.4413 -0.9565  0.7753
30483SOL     OW97284   3.436   7.286   5.098  0.2178  0.3917  0.3060
30483SOL    HW197285   3.503   7.217   5.103  0.7113  0.8781  0.5441
30483SOL    HW297286   3.436   7.325   5.186 -0.8642 -0.0494  0.5109
30484SOL     OW97287   3.399   1.253   0.942 -0.3571  0.0026  0.2295
30484SOL    HW197288   3.318   1.202   0.933 -0.8257  0.7413  0.2378
30484SOL    HW297289   3.441   1.217   1.020 -0.4031 -0.7519 -0.0837
30485SOL     OW97290   4.550   2.533   9.267  0.1143  0.0412  0.1852
30485SOL    HW197291   4.526   2.444   9.292 -1.5109 -0.2837 -2.2630
30485SOL    HW297292   4.471   2.585   9.281  1.6215  1.7456  3.7314
30486SOL     OW97293   1.028   7.231   7.650  0.4084  0.1673  0.1608
30486SOL    HW197294   1.016   7.262   7.740 -0.8901 -0.2772  0.1672
30486SOL    HW297295   0.957   7.167   7.638  1.4920 -0.9126 -0.6767
30487SOL     OW97296   2.915   7.031   7.091 -0.3055  0.3832 -0.0360
30487SOL    HW197297   2.893   6.957   7.148  2.4386  0.0677  0.7362
30487SOL    HW297298   2.941   7.101   7.151 -0.5051  1.1608 -0.8348
30488SOL     OW97299   4.023   4.712   8.132 -0.7681 -0.3619  0.6201
30488SOL    HW197300   4.116   4.718   8.153 -0.7921 -0.2970  0.7100
30488SOL    HW297301   4.007   4.783   8.070 -0.3472 -1.5543 -0.9276
30489SOL     OW97302   6.504   7.486   7.496  0.4012 -0.0807  0.1405
30489SOL    HW197303   6.475   7.562   7.447 -0.7218  0.0195  0.9095
30489SOL    HW297304   6.589   7.512   7.532 -0.0228  0.8682  0.4995
30490SOL     OW97305   7.863   6.774   9.935  0.4630 -0.3864 -0.7085
30490SOL    HW197306   7.814   6.707   9.983  0.2461  0.1555 -0.1692
30490SOL    HW297307   7.919   6.814  10.000 -0.4298  0.9243 -0.7094
30491SOL     OW97308   4.027   2.526   4.302 -0.1707  0.0742  0.3990
30491SOL    HW197309   3.969   2.491   4.234  0.2676 -0.5721  0.3574
30491SOL    HW297310   3.994   2.615   4.317 -0.2151  0.2775 -0.7426
30492SOL     OW97311   6.265   1.382   9.393 -0.3019 -0.0914 -0.1448
30492SOL    HW197312   6.333   1.401   9.329 -1.6688  0.3947 -1.5194
30492SOL    HW297313   6.261   1.287   9.397  0.2394 -0.1206 -0.2801
30493SOL     OW97314   5.406   2.108   3.544 -0.5128  0.8708  0.2842
30493SOL    HW197315   5.387   2.148   3.628  0.4602 -0.7470  1.3332
30493SOL    HW297316   5.489   2.147   3.517  0.5146 -0.4699  1.3792
30494SOL     OW97317   5.400   8.359   3.052 -0.0119  0.3271 -0.2814
30494SOL    HW197318   5.453   8.350   3.130 -0.2307 -0.3396 -0.2014
30494SOL    HW297319   5.429   8.441   3.011 -0.8614  1.4403  1.2308
30495SOL     OW97320   1.328   9.526   2.639  0.0885  0.2865 -0.6889
30495SOL    HW197321   1.285   9.441   2.633 -0.3974  0.4404  0.3525
30495SOL    HW297322   1.256   9.589   2.647  0.4409  0.4473  2.3082
30496SOL     OW97323   2.281   4.129   4.127  0.0907 -0.9577  0.6655
30496SOL    HW197324   2.278   4.167   4.039  1.6106  0.0768  1.0075
30496SOL    HW297325   2.273   4.204   4.186 -2.5789 -1.7832  1.5000
30497SOL     OW97326   0.669   6.971   8.756 -0.4409  0.2200  0.5201
30497SOL    HW197327   0.597   7.027   8.727 -1.4142 -1.0616  0.3661
30497SOL    HW297328   0.695   6.922   8.678  1.0901  1.1528  0.4113
30498SOL     OW97329   0.703   9.859   0.275  0.1414 -0.3099 -0.1438
30498SOL    HW197330   0.750   9.784   0.241  0.0541  0.2961 -1.6512
30498SOL    HW297331   0.683   9.913   0.199 -1.2621  0.4294  0.6824
30499SOL     OW97332   0.291   0.081   0.766  0.6823 -0.0246 -0.0492
30499SOL    HW197333   0.380   0.052   0.784  0.0738 -1.0227  1.4932
30499SOL    HW297334   0.235   0.014   0.805 -0.7658  0.1577 -1.6897
30500SOL     OW97335   8.514   3.026   5.125  0.1644 -0.0949 -0.1072
30500SOL    HW197336   8.597   3.022   5.174  0.9544  3.1830 -0.9081
30500SOL    HW297337   8.448   3.045   5.192  0.7675  1.4532  0.0790
30501SOL     OW97338   6.624   7.822   3.727  0.3905 -0.2544  0.2652
30501SOL    HW197339   6.667   7.883   3.787  1.1969  0.3291 -0.8909
30501SOL    HW297340   6.666   7.738   3.744  0.1726 -0.2332  0.9492
30502SOL     OW97341   3.306   0.019  10.653  0.9153  0.0543 -0.7249
30502SOL    HW197342   3.305  -0.075  10.670 -1.5223 -0.0199 -0.8505
30502SOL    HW297343   3.273   0.028  10.563 -1.5807  1.0617  0.1878
30503SOL     OW97344   1.984   4.960   2.602  0.1076 -0.1509 -0.0125
30503SOL    HW197345   1.906   5.014   2.615 -0.1587 -0.6102  0.3152
30503SOL    HW297346   1.950   4.873   2.580  0.5176 -0.4117  0.3681
30504SOL     OW97347   5.093   6.359   2.215  0.7005 -0.8493  0.5598
30504SOL    HW197348   5.163   6.297   2.235 -0.1051 -1.6163  1.0621
30504SOL    HW297349   5.013   6.317   2.247  0.0228  0.0797  0.1471
30505SOL     OW97350   0.081   4.046   3.812  0.0145 -0.3392 -0.0017
30505SOL    HW197351   0.046   3.964   3.779  0.1007 -1.4063  2.3183
30505SOL    HW297352   0.163   4.021   3.856 -0.7689  0.6651  2.1689
30506SOL     OW97353   7.676   9.615   3.777 -0.2692 -0.2435 -0.2229
30506SOL    HW197354   7.716   9.698   3.751 -1.3150  0.5527  0.6202
30506SOL    HW297355   7.624   9.637   3.854  1.2311 -2.1022  1.4446
30507SOL     OW97356   1.908   3.617   2.271  0.0543  0.3335 -0.1521
30507SOL    HW197357   1.822   3.635   2.234 -0.1661 -1.2144 -0.4739
30507SOL    HW297358   1.897   3.626   2.366 -0.6839 -0.6737 -0.1340
30508SOL     OW97359   9.550   8.653   4.375  0.4443 -0.1434 -0.2969
30508SOL    HW197360   9.556   8.684   4.466  1.7696 -0.1038 -0.3756
30508SOL    HW297361   9.485   8.709   4.334  0.2704  0.2308  0.4711
30509SOL     OW97362   5.675   5.784   6.478 -0.0119  0.0569 -0.0853
30509SOL    HW197363   5.713   5.847   6.416 -0.5474  0.3407 -0.1308
30509SOL    HW297364   5.716   5.806   6.562  1.1000 -0.6597 -0.4245
30510SOL     OW97365  10.556   1.584   2.937  0.3692  0.2495  0.9154
30510SOL    HW197366  10.536   1.517   3.002  0.5558 -0.9142 -0.1826
30510SOL    HW297367  10.516   1.552   2.856  1.8958  0.6157 -0.0334
30511SOL     OW97368  10.674   9.263   6.915 -0.0238  0.3717  0.0567
30511SOL    HW197369  10.627   9.281   6.833 -0.1748 -0.2041  0.0136
30511SOL    HW297370  10.729   9.340   6.928  2.5623 -0.8742 -2.3522
30512SOL     OW97371   2.518  10.177   3.012  0.6617  0.7623 -0.1119
30512SOL    HW197372   2.555  10.256   3.051  1.2188  1.7429 -2.4586
30512SOL    HW297373   2.429  10.203   2.985  0.2124  0.0495  0.6205
30513SOL     OW97374   2.344  10.130   5.394  0.5346  0.5367 -0.0873
30513SOL    HW197375   2.342  10.134   5.298  0.6654  1.1199 -0.0655
30513SOL    HW297376   2.344  10.036   5.413 -0.4195  0.4127 -0.6353
30514SOL     OW97377   2.704   3.042   8.922  0.4970  0.3522  0.4175
30514SOL    HW197378   2.647   3.004   8.855  0.9406 -0.5232  0.5244
30514SOL    HW297379   2.793   3.020   8.894  0.7931  1.5599  0.3382
30515SOL     OW97380   5.432   7.763   9.310 -0.2179 -0.0845  0.0333
30515SOL    HW197381   5.426   7.774   9.215  0.6951  1.3578  0.1087
30515SOL    HW297382   5.522   7.791   9.331 -0.7889  0.7853  1.4512
30516SOL     OW97383   2.501   4.130   3.041  0.2327 -0.1455 -0.1747
30516SOL    HW197384   2.544   4.168   2.965  0.4317  0.4944  0.2466
30516SOL    HW297385   2.459   4.051   3.008 -1.2487  1.0798 -1.3539
30517SOL     OW97386   2.651   2.918  10.038 -0.3207  0.0007 -0.1648
30517SOL    HW197387   2.592   2.939   9.966 -0.3702  1.0550  0.1544
30517SOL    HW297388   2.604   2.946  10.117 -0.4280 -1.4841  0.3265
30518SOL     OW97389   9.448   1.373   6.193 -0.6699  0.2914 -0.1943
30518SOL    HW197390   9.447   1.461   6.154 -1.1473 -0.3080 -1.6001
30518SOL    HW297391   9.400   1.383   6.275  1.2729  1.8299  0.8489
30519SOL     OW97392   3.091   5.953   6.975  1.1533 -0.2335 -0.3680
30519SOL    HW197393   3.058   5.879   6.923  0.5294  0.2843 -0.7244
30519SOL    HW297394   3.053   6.030   6.933 -1.3764  0.1141  2.2420
30520SOL     OW97395   2.015   6.869   7.491  0.3273  0.5770 -0.2789
30520SOL    HW197396   2.070   6.941   7.523  0.3600  0.6242 -0.4376
30520SOL    HW297397   1.934   6.911   7.464  0.2023  0.5031 -0.0197
30521SOL     OW97398   7.383   1.809   0.091  0.1275 -0.0059 -0.2264
30521SOL    HW197399   7.468   1.773   0.065 -0.0165 -0.1608 -0.4882
30521SOL    HW297400   7.403   1.873   0.159  0.3606 -0.9121  0.5910
30522SOL     OW97401   2.945  10.397   7.260 -0.0974  0.1764  0.2400
30522SOL    HW197402   2.874  10.389   7.197 -1.2566 -0.5880  1.5764
30522SOL    HW297403   2.911  10.459   7.325  1.0524  0.9255  0.1535
30523SOL     OW97404   1.562   0.679   7.782 -0.2396  0.3329  0.3721
30523SOL    HW197405   1.574   0.667   7.876 -2.6618  3.5122  1.2598
30523SOL    HW297406   1.635   0.735   7.756  0.6303 -0.8339  0.2341
30524SOL     OW97407   2.923   5.841   3.164 -0.4917  0.5799  0.6917
30524SOL    HW197408   2.940   5.812   3.075 -0.9007 -1.0836  1.1130
30524SOL    HW297409   2.833   5.874   3.162 -1.1642 -1.1558  0.8448
30525SOL     OW97410   2.469  10.577  10.509  0.0657 -0.3970 -0.0724
30525SOL    HW197411   2.524  10.644  10.548  1.0906 -1.3989  0.2745
30525SOL    HW297412   2.383  10.589  10.549  0.3352  0.4440  0.2666
30526SOL     OW97413   4.447   7.431   0.902  0.8387 -0.1713  0.0039
30526SOL    HW197414   4.494   7.428   0.819  0.7987  2.7203 -0.2312
30526SOL    HW297415   4.357   7.410   0.880  1.0696 -0.6876 -0.4590
30527SOL     OW97416   9.547   2.952   9.159 -0.2914 -0.3362 -0.3672
30527SOL    HW197417   9.565   2.986   9.247 -0.6426  0.3827 -0.5630
30527SOL    HW297418   9.468   2.999   9.131 -0.1809 -0.5523 -1.0691
30528SOL     OW97419   1.229  10.455   5.965 -0.0022  0.5260 -0.0031
30528SOL    HW197420   1.154  10.398   5.981 -0.0493  0.9164  1.3467
30528SOL    HW297421   1.304  10.396   5.964 -0.2754  0.1820 -0.9354
30529SOL     OW97422   0.003   6.154   5.201 -0.2700 -0.1092  0.0567
30529SOL    HW197423  -0.050   6.185   5.127 -0.2495 -0.8131 -0.2676
30529SOL    HW297424  -0.051   6.171   5.278  0.0624  1.4140 -0.0203
30530SOL     OW97425   6.547  10.337   9.068  0.3013 -0.2621 -0.3391
30530SOL    HW197426   6.497  10.381   9.137  1.7989 -1.0207  1.3127
30530SOL    HW297427   6.629  10.385   9.064 -0.5458  1.2047 -3.2760
30531SOL     OW97428  10.779  10.755   4.785 -0.3755  0.9788  0.2949
30531SOL    HW197429  10.860  10.790   4.747  0.3084  1.2170  1.8675
30531SOL    HW297430  10.784  10.779   4.878 -0.2994 -2.4264  1.3110
30532SOL     OW97431   3.401   7.532   8.260 -0.0332  0.4712 -0.3928
30532SOL    HW197432   3.437   7.463   8.204  0.8333  0.7854 -0.2429
30532SOL    HW297433   3.368   7.485   8.337 -0.0676  0.1624 -0.5917
30533SOL     OW97434   7.752   8.941   6.476  0.1213 -0.4348 -0.1653
30533SOL    HW197435   7.687   8.886   6.434 -1.4082  1.6413 -0.7073
30533SOL    HW297436   7.744   9.026   6.432  4.0080 -0.3361 -1.0144
30534SOL     OW97437   6.848   7.265   7.209  0.1477  0.7676  0.2076
30534SOL    HW197438   6.820   7.185   7.253 -0.2143  0.6671 -0.2003
30534SOL    HW297439   6.878   7.236   7.123 -0.8376  1.1811 -0.2798
30535SOL     OW97440   3.865   1.757   7.971 -0.0216 -0.4892 -0.3581
30535SOL    HW197441   3.830   1.748   8.060  1.3659 -1.0697  0.1708
30535SOL    HW297442   3.802   1.711   7.916 -0.0962 -1.5393  0.5565
30536SOL     OW97443   5.825   5.314   0.092  0.1998  0.4522  0.0687
30536SOL    HW197444   5.795   5.405   0.098  1.0004  0.8162 -1.1636
30536SOL    HW297445   5.753   5.268   0.048  0.0148  0.5956  0.2188
30537SOL     OW97446   4.760   6.737   1.724  0.3299 -0.2006 -0.3116
30537SOL    HW197447   4.845   6.694   1.724  0.3254 -0.2111 -0.1692
30537SOL    HW297448   4.779   6.829   1.703  0.5211  0.0710  0.9439
30538SOL     OW97449   9.675   6.869   3.372  0.1020 -0.0736  0.1240
30538SOL    HW197450   9.624   6.900   3.298 -1.8578 -0.1256  1.3675
30538SOL    HW297451   9.763   6.906   3.359 -0.8562  1.9995 -0.9021
30539SOL     OW97452   3.309   5.694   3.040  0.2571  0.2098  0.0735
30539SOL    HW197453   3.267   5.739   3.113 -0.3111 -2.2789  1.4239
30539SOL    HW297454   3.359   5.761   2.995 -2.1477  2.5649  0.6569
30540SOL     OW97455   8.706   1.555   6.442 -0.1253  0.3028 -0.0544
30540SOL    HW197456   8.698   1.646   6.414 -1.1738 -0.6801 -3.4620
30540SOL    HW297457   8.798   1.533   6.426 -0.3803  0.1788 -1.4249
30541SOL     OW97458   8.276   1.570   3.431  0.5057 -0.4263 -0.0338
30541SOL    HW197459   8.223   1.644   3.403 -0.6349 -1.2944 -0.2603
30541SOL    HW297460   8.222   1.525   3.496  0.4264 -2.0038 -1.1300
30542SOL     OW97461   1.705   9.528   2.851  0.0850 -0.0598  0.0455
30542SOL    HW197462   1.770   9.598   2.855 -0.5471  0.5861 -0.6386
30542SOL    HW297463   1.726   9.481   2.770  0.0079 -0.1554  0.0811
30543SOL     OW97464   6.506  10.041   0.669  0.2049  0.0724  0.0184
30543SOL    HW197465   6.481  10.016   0.758  0.3524 -0.8723 -0.1950
30543SOL    HW297466   6.484  10.134   0.663  1.4403  0.5101  1.4895
30544SOL     OW97467   7.941   3.816   6.551  0.2284  0.1752 -0.2353
30544SOL    HW197468   7.923   3.848   6.639 -0.4719 -0.9050  0.0418
30544SOL    HW297469   7.861   3.836   6.502 -0.6809 -1.9999  0.2225
30545SOL     OW97470   1.753   8.149   0.116 -0.3293 -0.3956 -0.0220
30545SOL    HW197471   1.664   8.178   0.099 -0.7016 -0.6738  1.2815
30545SOL    HW297472   1.746   8.098   0.197  0.9826 -0.5831 -0.0014
30546SOL     OW97473   7.359   3.991  10.600  0.3194 -0.7274  0.0007
30546SOL    HW197474   7.430   4.050  10.629  0.7238 -2.0197  1.8368
30546SOL    HW297475   7.281   4.024  10.644  0.3437 -0.9615  0.2195
30547SOL     OW97476   5.119  10.458   8.425  0.4380 -0.2838  0.1627
30547SOL    HW197477   5.071  10.538   8.407  0.0981 -0.3635  0.6712
30547SOL    HW297478   5.051  10.392   8.440  0.6928 -0.2986  1.3280
30548SOL     OW97479   5.666   8.921   4.555  0.8019 -0.2307  0.4420
30548SOL    HW197480   5.611   8.858   4.508  0.0520 -0.0937  1.1120
30548SOL    HW297481   5.605   8.968   4.613  1.7598 -0.7245  1.9095
30549SOL     OW97482   6.112   5.976   2.264 -0.2593 -0.2874  0.7771
30549SOL    HW197483   6.107   5.995   2.358 -0.4952 -0.2974  0.7666
30549SOL    HW297484   6.157   5.892   2.258 -0.6747 -0.5256  0.9082
30550SOL     OW97485   0.027   5.570  10.626 -0.1826 -0.5693 -0.2647
30550SOL    HW197486   0.103   5.621  10.597 -0.0617 -1.1400 -0.9723
30550SOL    HW297487  -0.046   5.632  10.621  0.1656 -0.1246  0.0498
30551SOL     OW97488   6.590   2.223   6.555  0.4230 -0.0032  0.3164
30551SOL    HW197489   6.674   2.242   6.596  0.2152 -0.4327  0.9436
30551SOL    HW297490   6.548   2.160   6.613 -0.7972  1.0294  0.5845
30552SOL     OW97491   4.647   9.395   0.745 -0.3545 -0.4923 -0.2754
30552SOL    HW197492   4.727   9.349   0.721  0.9631  0.5323  1.8415
30552SOL    HW297493   4.659   9.484   0.713 -0.5547 -0.3022  0.1591
30553SOL     OW97494   6.542   9.608   8.910 -0.5363 -0.5562  0.8110
30553SOL    HW197495   6.484   9.619   8.985  0.5450 -0.1290  1.6135
30553SOL    HW297496   6.627   9.639   8.941  0.2483 -1.6387 -0.1587
30554SOL     OW97497   0.395   4.756   6.631 -0.1077  0.5211 -0.1240
30554SOL    HW197498   0.480   4.795   6.611  1.4992 -2.8539 -0.6455
30554SOL    HW297499   0.348   4.757   6.548  0.0750  0.9638 -0.2228
30555SOL     OW97500   8.371   2.847   9.739  0.1581 -0.0355 -0.2137
30555SOL    HW197501   8.382   2.843   9.834  0.8628 -1.4406 -0.3304
30555SOL    HW297502   8.413   2.929   9.713 -0.6694  0.7199  0.7499
30556SOL     OW97503   6.631   1.184   7.629 -0.2698 -0.8645  0.0958
30556SOL    HW197504   6.605   1.181   7.721 -1.2780 -0.6781 -0.1688
30556SOL    HW297505   6.722   1.152   7.629 -0.0890 -0.4053  1.2033
30557SOL     OW97506   0.221   5.140   2.477 -0.2386  0.2400 -0.7232
30557SOL    HW197507   0.130   5.125   2.504 -0.8748  0.5863 -2.5666
30557SOL    HW297508   0.215   5.163   2.385  1.8293 -0.7574 -1.1504
30558SOL     OW97509   2.364   7.489   5.282  0.0901  0.5118 -0.7437
30558SOL    HW197510   2.331   7.531   5.362 -0.3573  1.6078 -1.4752
30558SOL    HW297511   2.350   7.396   5.296 -0.6843  0.7505  0.1533
30559SOL     OW97512   0.823   7.565   8.122 -0.0128 -0.4402 -0.6476
30559SOL    HW197513   0.837   7.629   8.052  1.9199 -0.8662 -0.7129
30559SOL    HW297514   0.908   7.523   8.133 -0.5007 -1.0272  1.3306
30560SOL     OW97515   3.297   8.507   3.908  0.9578 -0.7783 -0.5436
30560SOL    HW197516   3.237   8.546   3.844 -0.8486 -0.3429  1.3183
30560SOL    HW297517   3.365   8.465   3.855 -0.2393 -0.1028 -2.7185
30561SOL     OW97518   6.643   5.269   0.374  0.2719 -0.7088  0.0983
30561SOL    HW197519   6.678   5.192   0.329 -0.7638 -0.9964 -0.2310
30561SOL    HW297520   6.591   5.314   0.308  0.6097  0.1058  0.3799
30562SOL     OW97521   9.158  10.338   9.593 -0.1801 -0.2674 -0.2164
30562SOL    HW197522   9.166  10.250   9.557 -2.2189 -0.6407  0.1042
30562SOL    HW297523   9.235  10.385   9.562  1.3945 -2.3825  0.2822
30563SOL     OW97524   0.334   3.289   7.790  0.1065 -0.8427  0.2314
30563SOL    HW197525   0.310   3.198   7.771  0.5789 -0.9558  0.1528
30563SOL    HW297526   0.281   3.313   7.865 -1.0626 -0.7113 -0.6163
30564SOL     OW97527   3.760   7.918  10.873 -1.0183 -0.0956  0.3243
30564SOL    HW197528   3.704   7.885  10.803 -0.6960  0.6448 -0.2987
30564SOL    HW297529   3.705   7.917  10.951 -1.4156 -0.8258  0.0426
30565SOL     OW97530   1.153   6.917   0.064 -0.6797  0.5591  0.2814
30565SOL    HW197531   1.156   6.951   0.153  2.8785 -0.1403  0.5875
30565SOL    HW297532   1.088   6.846   0.067 -0.0041 -0.0434  2.5730
30566SOL     OW97533   9.424   0.364   8.163  0.0818 -0.4435 -0.2826
30566SOL    HW197534   9.405   0.457   8.172 -1.1369 -0.7843  1.1503
30566SOL    HW297535   9.354   0.331   8.107  0.0435 -0.6423 -0.1177
30567SOL     OW97536   4.557   7.775   4.448  0.0358  0.1947 -0.5973
30567SOL    HW197537   4.588   7.691   4.416 -0.4530 -0.0150 -0.5268
30567SOL    HW297538   4.466   7.760   4.473  0.0890  0.6230 -0.1221
30568SOL     OW97539   5.984   3.812  10.020 -0.4930  0.5498  0.0066
30568SOL    HW197540   5.943   3.864  10.089 -1.6235 -1.6768  1.1415
30568SOL    HW297541   6.055   3.766  10.065  0.4902  1.0801 -0.9675
30569SOL     OW97542   2.091   4.193   7.532  0.0998  0.6228 -0.0937
30569SOL    HW197543   2.071   4.260   7.467  0.2456 -0.3540 -1.1851
30569SOL    HW297544   2.173   4.154   7.502 -1.2398 -1.7786 -0.9818
30570SOL     OW97545   1.933   1.740   2.976 -0.0121 -0.4769  0.2460
30570SOL    HW197546   1.892   1.808   3.029  0.9816 -0.8650  1.5813
30570SOL    HW297547   1.885   1.741   2.894  0.7409  2.7128 -0.2948
30571SOL     OW97548   9.050   9.833   5.392 -0.1082 -0.0094  0.1199
30571SOL    HW197549   9.077   9.742   5.403 -0.1842 -0.0970 -0.4203
30571SOL    HW297550   9.095   9.879   5.463  0.4227 -0.3694  0.0264
30572SOL     OW97551   5.742   6.801   6.042 -0.0353  0.5685 -0.1906
30572SOL    HW197552   5.765   6.708   6.050 -0.3510  0.5876  1.0466
30572SOL    HW297553   5.786   6.829   5.962  0.5492 -0.5035 -0.2638
30573SOL     OW97554   2.114   9.582   6.704  0.3731  0.4451 -0.6185
30573SOL    HW197555   2.120   9.654   6.767  3.0902  1.3219 -1.7350
30573SOL    HW297556   2.023   9.583   6.674  0.1546  2.9324 -0.0575
30574SOL     OW97557   5.684   9.113   3.651 -0.2372 -0.0675  0.0593
30574SOL    HW197558   5.695   9.206   3.669  0.7843  0.0313 -0.9771
30574SOL    HW297559   5.765   9.087   3.607 -1.0967 -1.1284 -0.9640
30575SOL     OW97560  10.044  10.502   2.854  0.3452  0.8533 -0.0035
30575SOL    HW197561  10.053  10.513   2.949 -0.3029 -0.0861  0.1744
30575SOL    HW297562   9.953  10.477   2.841  0.3607  1.2416 -0.9062
30576SOL     OW97563   7.115   2.154   0.520  0.5880 -0.5178  0.0596
30576SOL    HW197564   7.123   2.065   0.485 -0.3103  0.2608 -2.3578
30576SOL    HW297565   7.202   2.191   0.511  0.6130 -0.6771 -0.4380
30577SOL     OW97566   7.856   0.476   5.946  0.2854  0.0218 -0.1072
30577SOL    HW197567   7.903   0.558   5.935 -1.3696  0.9878 -0.3666
30577SOL    HW297568   7.787   0.479   5.880  0.3787 -1.7339 -0.3272
30578SOL     OW97569   1.849   5.454   2.347 -0.1565  0.4774  0.7210
30578SOL    HW197570   1.775   5.505   2.380  1.1335  1.9438  1.4664
30578SOL    HW297571   1.924   5.487   2.395  1.0830 -0.5967 -0.4028
30579SOL     OW97572   2.469   9.751   0.499  0.2165  0.1761  0.2402
30579SOL    HW197573   2.527   9.675   0.488  0.3751  0.4620 -1.0932
30579SOL    HW297574   2.464   9.764   0.593  1.0013 -0.8694  0.4463
30580SOL     OW97575   0.393   9.962   5.693  0.1677  0.1736  0.1472
30580SOL    HW197576   0.360   9.913   5.769  2.2960 -0.1344  0.9540
30580SOL    HW297577   0.410  10.050   5.726 -1.8327  0.9699 -0.8164
30581SOL     OW97578   3.725  10.271   9.080 -0.2503 -0.1387  0.0288
30581SOL    HW197579   3.715  10.176   9.075  1.1064 -0.3178  0.3765
30581SOL    HW297580   3.814  10.288   9.049 -1.0077  1.1943 -1.6143
30582SOL     OW97581   7.497  10.914   2.903  0.1679 -0.0250  0.1433
30582SOL    HW197582   7.428  10.962   2.948 -0.6351 -0.3630 -0.6916
30582SOL    HW297583   7.551  10.879   2.973  0.0213  0.9927  0.7964
30583SOL     OW97584   2.390   9.258  10.865  0.1336 -0.4066  0.1278
30583SOL    HW197585   2.399   9.352  10.874 -2.0987 -0.2086  0.9857
30583SOL    HW297586   2.405   9.223  10.952  1.1656 -0.8998 -0.2293
30584SOL     OW97587   5.033   0.307   9.652  0.0409 -0.6123 -0.4408
30584SOL    HW197588   5.000   0.218   9.661 -1.5629  0.1130  1.3846
30584SOL    HW297589   5.011   0.331   9.562 -1.2155 -1.4243 -0.3747
30585SOL     OW97590   6.685   8.984   8.814  0.0166  0.3406 -0.0505
30585SOL    HW197591   6.774   9.003   8.785 -0.4588 -1.4963 -3.1900
30585SOL    HW297592   6.696   8.940   8.898  1.9505  1.3273  0.2607
30586SOL     OW97593   5.247   6.402   3.416 -0.1112  0.0613  0.2702
30586SOL    HW197594   5.261   6.308   3.408  1.1658  0.2173  0.4496
30586SOL    HW297595   5.266   6.422   3.508  1.1649  0.7110 -0.1099
30587SOL     OW97596   4.383   0.003   5.024  0.1836 -0.0526  0.5598
30587SOL    HW197597   4.431   0.086   5.029 -0.6896  0.6976 -1.8361
30587SOL    HW297598   4.444  -0.057   4.979 -1.2975  1.2850 -3.7443
30588SOL     OW97599   5.144   3.035   4.759 -0.7372  0.0444 -0.8247
30588SOL    HW197600   5.236   3.061   4.761 -0.5867 -0.3648 -1.8333
30588SOL    HW297601   5.101   3.106   4.711 -1.0663  0.5326  0.1584
30589SOL     OW97602   3.229   8.283   6.520  0.0839  0.0212  0.5436
30589SOL    HW197603   3.194   8.301   6.607  1.3295  0.7226  0.9165
30589SOL    HW297604   3.323   8.300   6.527  0.1804  0.3138 -0.9949
30590SOL     OW97605   1.718   7.166   1.960  0.5841 -0.3134  0.4768
30590SOL    HW197606   1.791   7.161   1.899  0.3066  1.1594 -0.0082
30590SOL    HW297607   1.734   7.094   2.022  0.9596 -1.7339 -1.1914
30591SOL     OW97608   0.041   1.511   1.379  0.2736  0.3163 -0.2345
30591SOL    HW197609  -0.011   1.543   1.305 -1.8701  0.2807  1.2046
30591SOL    HW297610   0.131   1.509   1.345 -0.2871  2.5371 -2.1052
30592SOL     OW97611   7.143   1.319   0.064  0.6900  0.2945  0.5702
30592SOL    HW197612   7.207   1.385   0.037 -0.2760  1.3952  0.9187
30592SOL    HW297613   7.068   1.369   0.095 -1.0315 -0.9427 -1.3219
30593SOL     OW97614   8.366   8.697   9.666 -0.4604  0.5425 -0.3464
30593SOL    HW197615   8.288   8.672   9.617  0.7839  0.1746 -2.2802
30593SOL    HW297616   8.431   8.718   9.599  0.9521  1.3813  1.1843
30594SOL     OW97617   3.918   8.055   7.203  0.2823 -0.4820  0.2746
30594SOL    HW197618   4.011   8.040   7.182  0.4233  0.1139  0.4495
30594SOL    HW297619   3.895   7.983   7.262  0.9459 -0.0278  1.1153
30595SOL     OW97620   2.120   9.711  10.674  0.0440 -0.2421 -0.5065
30595SOL    HW197621   2.142   9.769  10.747  1.1013 -0.4032 -0.6739
30595SOL    HW297622   2.027   9.725  10.658  0.4830  2.3144 -1.3008
30596SOL     OW97623   5.599   3.814  10.260  0.1059 -0.0314  0.5110
30596SOL    HW197624   5.665   3.802  10.329  1.4715 -1.0178 -0.9090
30596SOL    HW297625   5.590   3.909  10.253  0.0846  0.0910  1.9069
30597SOL     OW97626  10.587   0.427  10.444  0.3371 -0.3109  0.2918
30597SOL    HW197627  10.591   0.334  10.466  1.1683 -0.2521  0.4029
30597SOL    HW297628  10.568   0.471  10.527  0.3444 -0.3500  0.3146
30598SOL     OW97629   6.521   3.315   0.012  0.0412  0.1734  0.7291
30598SOL    HW197630   6.518   3.243   0.075 -0.2081  0.0491  0.5809
30598SOL    HW297631   6.559   3.388   0.060  0.4981 -0.1212  0.8167
30599SOL     OW97632   0.198   9.650   5.386 -0.1769  0.7224  0.0520
30599SOL    HW197633   0.286   9.634   5.420  0.0387  2.8678  0.7002
30599SOL    HW297634   0.150   9.686   5.461 -0.9710  1.5612 -0.8335
30600SOL     OW97635   9.784   3.471   0.341 -0.1341 -0.1380  0.0554
30600SOL    HW197636   9.843   3.546   0.342 -0.8845  0.4666  0.4718
30600SOL    HW297637   9.700   3.507   0.312 -0.4042 -0.8991 -0.1440
30601SOL     OW97638   4.087   8.289   3.756 -0.2064 -0.0330  0.0255
30601SOL    HW197639   4.168   8.260   3.715  0.8877  2.0493  0.5428
30601SOL    HW297640   4.070   8.375   3.717 -1.4333  0.1372  0.8756
30602SOL     OW97641   2.694  10.177   3.818  0.2055 -0.3353 -0.1843
30602SOL    HW197642   2.747  10.162   3.740 -1.2340 -1.6243 -0.9603
30602SOL    HW297643   2.625  10.237   3.788 -0.9762 -1.6755 -0.2220
30603SOL     OW97644   3.526  10.313  10.686 -0.7303  0.5714 -0.1011
30603SOL    HW197645   3.575  10.231  10.694  0.1554  1.1994  1.0381
30603SOL    HW297646   3.566  10.358  10.612  1.7917  1.9507  1.9672
30604SOL     OW97647  10.409   2.640  10.728  0.6293 -0.3317 -0.1124
30604SOL    HW197648  10.479   2.660  10.790  0.4113  3.1515 -0.7538
30604SOL    HW297649  10.341   2.705  10.748 -1.7185 -2.4764 -0.6591
30605SOL     OW97650   8.588   8.522   5.666 -0.0375  0.2571 -0.0489
30605SOL    HW197651   8.622   8.480   5.587  4.0914  0.9774  1.0965
30605SOL    HW297652   8.601   8.616   5.651  2.5069  0.3504  1.9648
30606SOL     OW97653   3.726  10.295   0.917  0.0264 -0.1159 -0.0352
30606SOL    HW197654   3.663  10.258   0.979 -0.1046 -2.7274 -1.5350
30606SOL    HW297655   3.675  10.310   0.838  0.3201  2.5637  0.1993
30607SOL     OW97656   7.071  10.501   6.565  0.2416  0.4959 -0.6998
30607SOL    HW197657   7.052  10.491   6.472 -0.5160  0.2802 -0.5258
30607SOL    HW297658   7.107  10.416   6.591 -0.3311  0.2799 -0.6108
30608SOL     OW97659   9.297   6.250   8.779 -0.3571 -0.3979 -0.0993
30608SOL    HW197660   9.262   6.218   8.696 -2.3695  2.2677 -0.4276
30608SOL    HW297661   9.243   6.209   8.846 -2.6030  1.7180 -0.4886
30609SOL     OW97662   0.568   8.630  10.089 -0.0043 -0.1936 -0.3175
30609SOL    HW197663   0.621   8.564  10.135 -1.5936 -2.2894 -1.3397
30609SOL    HW297664   0.605   8.632  10.001  0.5473  0.9484 -0.0848
30610SOL     OW97665   1.855   0.196   4.374  0.0133 -0.2386 -0.3563
30610SOL    HW197666   1.858   0.287   4.344 -1.5370  0.1411  0.5330
30610SOL    HW297667   1.860   0.202   4.469 -0.2625 -1.0787 -0.2791
30611SOL     OW97668   1.864   4.976   9.940  0.1845  0.5876 -0.3500
30611SOL    HW197669   1.806   4.900   9.940  1.2458 -0.3703 -3.0032
30611SOL    HW297670   1.808   5.050   9.918 -0.5726  0.2722  0.4947
30612SOL     OW97671   3.812   0.309   3.916  0.1696 -0.0007  0.2962
30612SOL    HW197672   3.836   0.396   3.947  2.3813 -0.0256 -1.1665
30612SOL    HW297673   3.865   0.250   3.969  0.4596 -0.3102 -0.3308
30613SOL     OW97674   3.706   5.287   9.228 -0.2510 -0.6767  0.1283
30613SOL    HW197675   3.709   5.362   9.169  0.3756 -1.1528 -0.4588
30613SOL    HW297676   3.796   5.277   9.259  0.0598 -2.2254 -1.1528
30614SOL     OW97677   4.755   1.918   8.764 -0.8086 -0.1940  0.0595
30614SOL    HW197678   4.775   1.928   8.857 -2.3953 -3.5733  0.9414
30614SOL    HW297679   4.818   1.853   8.733 -0.2716  0.9236 -1.2927
30615SOL     OW97680   9.863   9.860   8.267  0.0365 -0.7988 -0.5176
30615SOL    HW197681   9.918   9.907   8.205  0.2962 -0.6194 -0.1544
30615SOL    HW297682   9.809   9.927   8.308  1.3481 -0.6028  0.9747
30616SOL     OW97683   6.576   8.044   9.911  0.2294 -0.3262 -0.0103
30616SOL    HW197684   6.552   7.993   9.834  1.6273  0.6015 -1.1388
30616SOL    HW297685   6.556   7.988   9.985 -1.1125 -1.2770 -1.0507
30617SOL     OW97686   8.955   2.740   7.163  0.7087  0.1587  0.2916
30617SOL    HW197687   8.980   2.809   7.224  1.3587  0.5869 -0.4361
30617SOL    HW297688   8.915   2.673   7.218  1.9003  0.2204  1.2915
30618SOL     OW97689   0.457   1.738  10.241  0.3032  0.6176  0.1876
30618SOL    HW197690   0.510   1.716  10.317  0.6484  0.1280 -0.1838
30618SOL    HW297691   0.513   1.717  10.166 -0.5427 -0.2760 -0.2262
30619SOL     OW97692   4.447   1.301  10.243  0.5161  0.2033  0.5998
30619SOL    HW197693   4.378   1.332  10.184  1.3445 -3.0854 -2.4094
30619SOL    HW297694   4.403   1.238  10.300  0.4775  0.4628  0.8628
30620SOL     OW97695   0.761   5.202   4.309  0.3592 -0.4659  0.2590
30620SOL    HW197696   0.842   5.162   4.339 -0.6291 -3.9875 -1.2508
30620SOL    HW297697   0.776   5.224   4.217 -0.5899 -2.1226 -0.3496
30621SOL     OW97698   6.634   2.040   6.998  0.0402 -0.1614 -0.1875
30621SOL    HW197699   6.604   1.978   7.066  2.6123 -0.5449  0.7236
30621SOL    HW297700   6.631   1.989   6.917  0.3103 -0.8882  0.2439
30622SOL     OW97701   3.735   9.424  10.825 -0.3474  0.5196  0.0012
30622SOL    HW197702   3.682   9.503  10.826 -0.5752  0.3672  0.3142
30622SOL    HW297703   3.824   9.454  10.808 -0.1780  1.0101  1.5561
30623SOL     OW97704   9.508   3.617   7.069  0.1701 -0.5650  0.4814
30623SOL    HW197705   9.506   3.522   7.083 -0.4284 -0.4162  1.4903
30623SOL    HW297706   9.421   3.647   7.097 -0.2658  0.0813 -1.4370
30624SOL     OW97707  10.244   3.307   3.776  0.0953  0.1887  0.4327
30624SOL    HW197708  10.318   3.319   3.716 -1.8605  3.0429 -1.6301
30624SOL    HW297709  10.168   3.334   3.726 -2.3266 -1.7067  2.7956
30625SOL     OW97710   3.512   1.994   3.999  0.7012  0.0718  0.6520
30625SOL    HW197711   3.559   2.003   3.916  1.0287  0.1794  0.8459
30625SOL    HW297712   3.532   1.904   4.027  0.7483  0.0993  0.7072
30626SOL     OW97713   6.489  10.669   8.341  0.2551 -0.0523  0.3661
30626SOL    HW197714   6.454  10.754   8.312  1.0849  0.0243 -0.5024
30626SOL    HW297715   6.458  10.607   8.275 -3.1707 -1.1309  2.7439
30627SOL     OW97716   4.840   0.760   3.135  0.0333  0.6655 -0.0633
30627SOL    HW197717   4.830   0.791   3.225 -0.9350 -0.0232  0.0824
30627SOL    HW297718   4.934   0.752   3.123  0.2395  2.1422  0.4052
30628SOL     OW97719   9.064   3.154   5.897  0.4429 -0.2766  0.1619
30628SOL    HW197720   9.085   3.131   5.806 -0.3377  0.3365 -0.1872
30628SOL    HW297721   8.974   3.188   5.893  0.6235  0.3431  1.0633
30629SOL     OW97722  10.824  10.082   7.909 -0.0015  0.3519 -0.2326
30629SOL    HW197723  10.847   9.992   7.886 -0.0442  0.6184 -1.3428
30629SOL    HW297724  10.862  10.136   7.839 -1.0828  1.0884 -0.2712
30630SOL     OW97725   9.460   3.752  10.138 -0.3982 -0.3770 -0.0650
30630SOL    HW197726   9.456   3.723  10.047 -0.3008  1.7249 -0.7798
30630SOL    HW297727   9.459   3.670  10.189 -0.6311 -1.5890 -1.9175
30631SOL     OW97728   5.334   0.763   4.721  0.2316  0.4111  0.0696
30631SOL    HW197729   5.429   0.746   4.718  0.6446  1.6463  3.0172
30631SOL    HW297730   5.323   0.845   4.674  0.2591 -0.6722 -1.9615
30632SOL     OW97731   0.458   3.567   2.726 -0.3258 -0.4617  0.5134
30632SOL    HW197732   0.511   3.576   2.805 -0.8437 -1.0680  0.9347
30632SOL    HW297733   0.505   3.503   2.673 -0.7289 -1.1506  0.9753
30633SOL     OW97734   1.795   3.726   1.237  0.3758  0.3131  0.1421
30633SOL    HW197735   1.709   3.743   1.197  0.4556  1.1720  0.3163
30633SOL    HW297736   1.774   3.687   1.322  0.1668  0.1975  0.0391
30634SOL     OW97737  10.819   1.488   5.409 -0.5799  0.4806  0.7834
30634SOL    HW197738  10.768   1.525   5.481  1.0088  2.4828  0.9415
30634SOL    HW297739  10.888   1.437   5.452 -0.3965  0.6155  0.6475
30635SOL     OW97740   8.329   6.533  10.079  0.0145 -0.5217 -0.2590
30635SOL    HW197741   8.389   6.458  10.068  0.3297 -0.5210  1.1986
30635SOL    HW297742   8.255   6.497  10.128 -0.2512 -0.0808 -0.3372
30636SOL     OW97743   0.118  10.368   4.908 -0.1012  0.4718  0.7198
30636SOL    HW197744   0.050  10.411   4.855  0.4125  1.6109  0.9442
30636SOL    HW297745   0.118  10.277   4.879 -1.2843  0.5993  0.2683
30637SOL     OW97746   6.697  10.104   0.425  0.6176  0.1218  0.4615
30637SOL    HW197747   6.634  10.054   0.477 -0.4770  2.4720  1.5777
30637SOL    HW297748   6.686  10.070   0.336 -0.9760 -0.7338  0.9327
30638SOL     OW97749   2.937   5.775   0.199 -0.6096 -0.6927 -1.0438
30638SOL    HW197750   2.883   5.765   0.120  1.1374 -0.6421 -2.3042
30638SOL    HW297751   3.027   5.778   0.166  0.2202 -1.3476  1.0197
30639SOL     OW97752   4.324   2.355   7.987 -0.4094 -0.4940  0.4788
30639SOL    HW197753   4.362   2.414   7.922  0.5555  0.1046  1.5623
30639SOL    HW297754   4.335   2.268   7.948 -2.4624  0.0036 -1.4396
30640SOL     OW97755   7.663   4.121   6.513 -0.4935 -0.5935 -0.2732
30640SOL    HW197756   7.666   4.038   6.466  1.3356 -0.4569 -0.4459
30640SOL    HW297757   7.620   4.181   6.452 -1.1932 -1.2149 -0.4174
30641SOL     OW97758   0.242   3.881   0.947 -0.1507  0.2593 -0.5561
30641SOL    HW197759   0.234   3.934   1.026 -2.0257 -0.2668 -0.3438
30641SOL    HW297760   0.335   3.862   0.940  0.2675  1.7459  0.5687
30642SOL     OW97761  10.635  10.881   8.687 -0.4154 -0.8040 -0.5545
30642SOL    HW197762  10.659  10.846   8.773 -1.0326  1.2120  0.4802
30642SOL    HW297763  10.579  10.813   8.649  0.4145 -2.0240  0.3274
30643SOL     OW97764   3.834   6.519   1.981  0.1377  0.1368  0.3826
30643SOL    HW197765   3.804   6.585   1.919  0.2631 -0.8938 -0.7980
30643SOL    HW297766   3.756   6.496   2.031  0.1370  1.3162  0.9635
30644SOL     OW97767   9.874   6.318   7.762  0.3297  0.4636 -0.1440
30644SOL    HW197768   9.864   6.405   7.724 -2.6860  0.2828  0.0263
30644SOL    HW297769   9.858   6.330   7.855  1.7120 -0.0450  0.1908
30645SOL     OW97770   8.323   3.703   7.877  0.4085 -0.7971 -0.3455
30645SOL    HW197771   8.417   3.713   7.891  0.6625  0.5226 -2.5396
30645SOL    HW297772   8.316   3.628   7.818 -0.0121 -1.3791  0.4196
30646SOL     OW97773   7.357   3.432   1.468 -0.1273 -0.1545  0.5360
30646SOL    HW197774   7.297   3.447   1.541  1.5248  0.5784  1.8075
30646SOL    HW297775   7.410   3.511   1.465  0.0656 -0.3198 -1.2813
30647SOL     OW97776   3.410   1.855  10.427 -0.0354  0.0905  0.1429
30647SOL    HW197777   3.402   1.805  10.508 -2.1039  0.0181 -0.0429
30647SOL    HW297778   3.393   1.791  10.358 -0.0489  0.5169 -0.2501
30648SOL     OW97779   3.215   8.968   0.560 -0.2400  0.3377 -0.5428
30648SOL    HW197780   3.166   9.046   0.586  0.4605  1.2669 -1.8900
30648SOL    HW297781   3.274   8.951   0.633 -2.9323 -1.2408  1.4507
30649SOL     OW97782   9.709   7.705   3.735 -0.4621  0.2154 -0.7922
30649SOL    HW197783   9.693   7.616   3.704 -2.2188 -0.1652  1.0016
30649SOL    HW297784   9.750   7.693   3.821 -0.4691  1.1454 -0.6503
30650SOL     OW97785   6.276   6.431   9.019  0.1535  0.5378 -0.0834
30650SOL    HW197786   6.277   6.513   9.067 -0.2394  0.5148 -0.0346
30650SOL    HW297787   6.347   6.380   9.058  0.8963  1.1364 -0.6244
30651SOL     OW97788   6.507   4.999   8.064 -0.2537 -0.1028 -0.1423
30651SOL    HW197789   6.553   4.921   8.098 -0.8233 -0.3331  0.1047
30651SOL    HW297790   6.554   5.073   8.103  0.3742 -0.3113 -0.4780
30652SOL     OW97791   5.099   1.609   4.118 -0.5340 -0.7525  0.0763
30652SOL    HW197792   5.146   1.541   4.167 -0.0478 -0.2502  0.3168
30652SOL    HW297793   5.148   1.619   4.037 -0.1441 -0.1439  0.3789
30653SOL     OW97794   6.829   5.785   6.789  0.0458  0.0816  0.1896
30653SOL    HW197795   6.908   5.836   6.770 -0.7013  0.8981 -0.8641
30653SOL    HW297796   6.836   5.708   6.733  0.5146 -0.2851  0.7507
30654SOL     OW97797   8.387  10.077   0.637 -0.2485  0.5590 -0.2507
30654SOL    HW197798   8.424  10.025   0.708  0.6193 -2.3841 -2.6774
30654SOL    HW297799   8.460  10.131   0.606  0.5147 -0.9816 -1.2780
30655SOL     OW97800   5.679   9.016   1.675 -0.0002  0.5801  0.3561
30655SOL    HW197801   5.614   8.965   1.625 -0.6826  0.3162  1.4769
30655SOL    HW297802   5.704   8.958   1.747  0.4463  1.2133  0.7139
30656SOL     OW97803  10.139   3.574   6.512  0.1910 -0.3263 -0.0095
30656SOL    HW197804  10.113   3.632   6.441 -3.6627 -0.3256  1.1339
30656SOL    HW297805  10.196   3.627   6.568  1.4780  0.3602 -1.8886
30657SOL     OW97806   3.938   9.113   8.284  0.6191 -0.3739  0.2995
30657SOL    HW197807   3.955   9.165   8.363  0.3157  2.6015 -1.4520
30657SOL    HW297808   3.857   9.150   8.248  2.2699  0.4043 -2.9466
30658SOL     OW97809   5.057   5.997   3.714 -0.0143 -0.2348  0.3474
30658SOL    HW197810   4.969   6.002   3.675  0.0858  0.6624  0.2144
30658SOL    HW297811   5.073   6.085   3.749  0.8367 -0.3894  0.3720
30659SOL     OW97812   7.886   8.705   5.145 -0.3116 -0.4064  0.3085
30659SOL    HW197813   7.927   8.729   5.228  3.4749 -0.3049 -1.4118
30659SOL    HW297814   7.849   8.618   5.161  0.5112 -0.4877  2.0159
30660SOL     OW97815   8.645   6.467   2.673 -0.6075 -0.0911  0.2423
30660SOL    HW197816   8.720   6.481   2.730 -0.1663 -0.3947 -0.2542
30660SOL    HW297817   8.589   6.543   2.688 -0.7751 -0.4288  1.4876
30661SOL     OW97818   9.182   7.183   3.398  1.2463  0.3330 -0.8745
30661SOL    HW197819   9.172   7.277   3.384  1.9303  0.3363 -1.3820
30661SOL    HW297820   9.225   7.150   3.319  2.1118 -0.2030 -0.2064
30662SOL     OW97821   4.376   9.008   4.954 -0.3351  0.5085 -0.0991
30662SOL    HW197822   4.324   8.989   4.876  0.1850 -0.3699 -0.2433
30662SOL    HW297823   4.461   9.036   4.920 -0.0720  0.0209  0.1353
30663SOL     OW97824   7.753   2.946   8.758 -0.0680  0.0252  0.2739
30663SOL    HW197825   7.709   3.031   8.760  1.2788  0.7936 -1.2843
30663SOL    HW297826   7.691   2.888   8.712  0.4896  1.1123 -1.9738
30664SOL     OW97827   9.633   8.252   4.694 -0.4746  0.5179 -0.2213
30664SOL    HW197828   9.660   8.240   4.603 -2.0021 -0.8201 -0.5441
30664SOL    HW297829   9.613   8.164   4.725 -0.0921  0.9618  1.3890
30665SOL     OW97830   8.458   7.747   5.421 -0.2044 -1.1061  0.4879
30665SOL    HW197831   8.446   7.663   5.376  3.3580 -2.8901  2.5081
30665SOL    HW297832   8.399   7.742   5.497 -0.0965 -1.7397  0.5368
30666SOL     OW97833   0.565  10.464   3.142 -0.2526  0.3761 -0.2807
30666SOL    HW197834   0.659  10.459   3.127  0.3408  1.0781  2.6253
30666SOL    HW297835   0.535  10.538   3.090  0.9646  0.7041 -0.5319
30667SOL     OW97836   3.087   7.639   4.574 -0.1032  0.1438  0.2414
30667SOL    HW197837   3.066   7.729   4.549 -0.1051  0.4192  1.2094
30667SOL    HW297838   3.167   7.647   4.626 -1.4157 -0.1080  2.4045
30668SOL     OW97839   5.154   1.400   8.790  0.0977  0.1670  0.3944
30668SOL    HW197840   5.155   1.376   8.697 -0.9009 -0.1262  0.4421
30668SOL    HW297841   5.126   1.320   8.835 -0.0115  0.4726  0.8828
30669SOL     OW97842   9.119   6.859   7.889  0.6112 -0.5071 -0.1708
30669SOL    HW197843   9.111   6.913   7.810  0.3762 -0.0406  0.1603
30669SOL    HW297844   9.167   6.782   7.861 -1.5304 -1.5129 -1.3585
30670SOL     OW97845   4.761   5.948   1.800 -0.4536 -0.2663 -0.0554
30670SOL    HW197846   4.742   5.865   1.757  2.2924 -0.6030 -0.8128
30670SOL    HW297847   4.800   5.924   1.884  0.7199  0.2263 -0.4451
30671SOL     OW97848   8.197   3.450   8.444 -0.2632  0.1005  0.3801
30671SOL    HW197849   8.220   3.376   8.501 -0.3199  0.5255  0.9747
30671SOL    HW297850   8.180   3.411   8.359  0.1834 -0.5138  0.5669
30672SOL     OW97851   5.225   0.818   4.981 -0.0570  0.0829  0.2834
30672SOL    HW197852   5.208   0.794   4.890  0.6566  0.7963 -0.0581
30672SOL    HW297853   5.286   0.892   4.975 -1.8119  1.7081  1.2727
30673SOL     OW97854   6.959   7.157   3.089 -0.1910 -0.2733  0.5032
30673SOL    HW197855   6.909   7.222   3.139  0.3459  0.4194  0.1469
30673SOL    HW297856   6.902   7.080   3.087 -0.9996  0.3130  0.5972
30674SOL     OW97857   4.564   2.673   4.366  0.6639  0.4731 -0.7144
30674SOL    HW197858   4.484   2.622   4.377  0.8086 -0.0888 -2.1088
30674SOL    HW297859   4.613   2.659   4.448 -0.0968 -0.1876 -0.3622
30675SOL     OW97860   3.827   6.266   7.762 -0.3893 -0.3890  0.7685
30675SOL    HW197861   3.916   6.284   7.734 -0.5778  0.8710  0.9215
30675SOL    HW297862   3.833   6.183   7.810  0.4771 -0.9089 -0.2198
30676SOL     OW97863   3.109   0.510   8.684  0.1990  0.4112 -0.6210
30676SOL    HW197864   3.181   0.496   8.746  0.9484  0.4818 -1.4589
30676SOL    HW297865   3.113   0.435   8.625  0.2028  0.9060 -1.2633
30677SOL     OW97866   4.189   1.275   1.607  0.6079  0.5005 -0.3125
30677SOL    HW197867   4.243   1.351   1.628 -1.8984  1.6422  2.8401
30677SOL    HW297868   4.212   1.210   1.674 -0.5770  0.3070 -0.0771
30678SOL     OW97869   5.086   7.991   4.330 -0.2451  0.0489 -0.4296
30678SOL    HW197870   5.043   7.946   4.403  1.0262  0.3182  0.5254
30678SOL    HW297871   5.145   7.925   4.292 -0.6150  0.0262 -0.9842
30679SOL     OW97872   0.515   0.479   4.806  0.1852  0.1959 -0.1807
30679SOL    HW197873   0.467   0.431   4.739  0.2594 -0.3411  0.1403
30679SOL    HW297874   0.507   0.571   4.781 -1.3778  0.1691  0.0923
30680SOL     OW97875   5.048   8.857  10.856  0.5185 -0.4716 -0.3660
30680SOL    HW197876   5.080   8.913  10.927 -0.2112 -0.7867  0.2292
30680SOL    HW297877   5.126   8.834  10.806  0.8794  0.7429 -0.3789
30681SOL     OW97878   4.155   1.230   7.120 -0.4859 -0.2170 -0.3118
30681SOL    HW197879   4.080   1.189   7.162  0.5514  0.6750  2.6496
30681SOL    HW297880   4.231   1.193   7.165  0.7320  0.7016 -1.5379
30682SOL     OW97881   3.996   6.091   1.752 -0.3918 -0.2239 -0.3294
30682SOL    HW197882   4.059   6.061   1.818 -0.3607 -0.3453 -0.4131
30682SOL    HW297883   3.943   6.156   1.797  2.2278  2.8136 -1.2620
30683SOL     OW97884   8.196   8.497   6.828  0.3506 -0.0487 -0.0950
30683SOL    HW197885   8.254   8.530   6.760  0.8502 -0.5128  0.0977
30683SOL    HW297886   8.158   8.575   6.868  0.3862  0.2396 -0.6115
30684SOL     OW97887   6.919   7.000   3.953  0.0342  0.1507 -0.6253
30684SOL    HW197888   6.857   6.931   3.978 -0.2132  1.1961  1.9407
30684SOL    HW297889   6.878   7.081   3.982  1.2201  1.2116 -1.7660
30685SOL     OW97890   2.849   0.820   1.585 -0.1959 -0.4506 -0.5403
30685SOL    HW197891   2.822   0.728   1.592 -2.1663  0.0024 -1.3383
30685SOL    HW297892   2.772   0.864   1.548  1.2105  1.2883 -1.5092
30686SOL     OW97893   2.614   8.767   9.163 -0.9761  0.1179  0.4523
30686SOL    HW197894   2.625   8.703   9.234 -0.3201 -0.3429 -0.0563
30686SOL    HW297895   2.523   8.797   9.171 -1.6435 -1.7018  0.0171
30687SOL     OW97896   6.917   1.534   2.575  0.6268 -0.5307  0.1156
30687SOL    HW197897   6.840   1.527   2.632 -0.6111  2.0054 -1.0668
30687SOL    HW297898   6.894   1.483   2.497  1.4483 -2.2353  0.9296
30688SOL     OW97899   2.507   4.020   5.498  0.4808 -0.2216  0.1597
30688SOL    HW197900   2.464   3.946   5.541 -2.2424  0.9470 -0.3398
30688SOL    HW297901   2.599   4.012   5.522  0.2204 -3.4913  0.4711
30689SOL     OW97902   4.821   7.224   6.801  0.3762 -0.4208 -0.2739
30689SOL    HW197903   4.777   7.203   6.718  1.0942 -1.8685 -0.3238
30689SOL    HW297904   4.895   7.279   6.776 -1.6898  2.7289 -0.1168
30690SOL     OW97905   6.891   4.272   5.591 -0.9158  0.2571  0.4992
30690SOL    HW197906   6.890   4.365   5.615 -0.5804  0.3724  0.0783
30690SOL    HW297907   6.876   4.226   5.674 -0.3301  0.6656  0.8441
30691SOL     OW97908   6.932   5.581   7.432 -0.8258  0.2993 -0.8989
30691SOL    HW197909   6.954   5.673   7.448  0.6141 -0.3004  1.0361
30691SOL    HW297910   6.837   5.580   7.424 -1.0677  1.7440  1.0276
30692SOL     OW97911   3.779   1.861   3.635 -0.1662 -0.0545  0.1074
30692SOL    HW197912   3.850   1.838   3.575 -1.7361  0.2619 -2.0233
30692SOL    HW297913   3.802   1.819   3.718  2.5178  0.1402 -0.4574
30693SOL     OW97914   3.975   1.856   0.879  0.0569 -0.3680  0.5987
30693SOL    HW197915   3.998   1.765   0.897  1.6913 -0.3120 -0.9435
30693SOL    HW297916   4.058   1.902   0.875 -0.6008  0.7975 -0.6314
30694SOL     OW97917   5.770   8.277  10.247 -0.0984 -0.3190  0.2775
30694SOL    HW197918   5.813   8.253  10.329  1.2137  0.7244 -0.0830
30694SOL    HW297919   5.821   8.350  10.212 -2.1912  1.0284 -0.1577
30695SOL     OW97920   6.924   1.669   1.131 -0.2950 -0.2746 -0.4730
30695SOL    HW197921   7.008   1.651   1.090  0.3946 -0.5196  1.0100
30695SOL    HW297922   6.937   1.752   1.177 -0.5902 -0.7409  0.4738
30696SOL     OW97923   1.461   6.046  10.355  0.0485  0.3204 -0.0667
30696SOL    HW197924   1.415   6.097  10.289  0.2713  0.4987 -0.0879
30696SOL    HW297925   1.431   5.956  10.342 -1.1871  0.6065  0.6874
30697SOL     OW97926   0.570   1.856   2.313  0.2416 -0.4399  0.7017
30697SOL    HW197927   0.567   1.952   2.320  1.0346 -0.2606 -0.9995
30697SOL    HW297928   0.654   1.838   2.270 -0.9044 -1.7280 -1.1205
30698SOL     OW97929   1.110   4.649   1.933  0.1276  0.1234 -0.2900
30698SOL    HW197930   1.156   4.565   1.931  1.0204  0.5805  0.3474
30698SOL    HW297931   1.057   4.646   2.013 -0.6946 -0.2518 -0.8301
30699SOL     OW97932   8.437   6.768   5.720 -0.4581  0.1924  0.1373
30699SOL    HW197933   8.446   6.690   5.665 -0.0131  1.1375 -1.1839
30699SOL    HW297934   8.353   6.757   5.764 -0.2935 -1.1290  0.1541
30700SOL     OW97935   8.102   9.818  10.731  0.5135 -0.8552 -0.5399
30700SOL    HW197936   8.046   9.743  10.709 -0.3118  0.0354 -1.5405
30700SOL    HW297937   8.090   9.879  10.659  0.0516  0.9021  0.9709
30701SOL     OW97938   5.366   3.065   6.661  0.2771 -0.2142  0.0964
30701SOL    HW197939   5.312   2.987   6.645 -1.3300  0.8094  0.2787
30701SOL    HW297940   5.372   3.108   6.576  2.6106 -1.3439 -0.3978
30702SOL     OW97941   4.622   5.363   7.544 -0.6459  0.0242  0.4444
30702SOL    HW197942   4.603   5.326   7.458  1.5019  1.0934 -0.5775
30702SOL    HW297943   4.706   5.324   7.569 -0.8912  0.2723  1.7344
30703SOL     OW97944   5.509   6.311  10.257  0.2254  0.5850  0.3051
30703SOL    HW197945   5.450   6.355  10.319 -0.1050 -0.1765  0.5363
30703SOL    HW297946   5.597   6.326  10.292 -0.0589 -1.9179  2.3806
30704SOL     OW97947   9.954   4.147  10.205  0.2082 -0.3003  0.1584
30704SOL    HW197948   9.877   4.107  10.246  0.1784 -1.1645 -0.7004
30704SOL    HW297949   9.974   4.090  10.131  1.7890 -0.1991  0.4690
30705SOL     OW97950   7.904   3.710   8.841  0.2467 -0.1431  0.3088
30705SOL    HW197951   7.839   3.661   8.892 -1.5732  0.9265 -0.8499
30705SOL    HW297952   7.874   3.701   8.750  1.3075  1.0021 -0.1808
30706SOL     OW97953   9.951   7.250   0.357  0.1828  0.1580 -0.0687
30706SOL    HW197954   9.999   7.172   0.329  0.4156  0.3919 -0.3211
30706SOL    HW297955   9.955   7.248   0.452  1.5915  0.7277 -0.0923
30707SOL     OW97956   4.873   4.332   3.993 -0.1236  0.4016 -0.2727
30707SOL    HW197957   4.784   4.366   4.000 -0.6030 -0.8888  0.2183
30707SOL    HW297958   4.906   4.334   4.083  0.1996  0.5354 -0.3970
30708SOL     OW97959   5.079   4.809   2.952 -0.7154 -0.0375  0.4913
30708SOL    HW197960   4.989   4.814   2.921 -0.0693  0.8085 -1.3923
30708SOL    HW297961   5.082   4.730   3.006 -2.4051 -0.4215  0.0696
30709SOL     OW97962   7.448   9.911   2.879  0.1881 -0.5977  0.7258
30709SOL    HW197963   7.453   9.969   2.955  2.0592 -0.3727  0.4702
30709SOL    HW297964   7.448   9.970   2.804 -3.1210 -0.7430  0.4882
30710SOL     OW97965   2.481   1.020   0.502  0.7318 -0.1880 -0.2439
30710SOL    HW197966   2.545   1.061   0.561  0.2623 -1.6773  1.3777
30710SOL    HW297967   2.399   1.064   0.523  0.7475 -0.0175 -0.5325
30711SOL     OW97968   3.009   2.321   7.334  0.6315 -0.0268  0.0933
30711SOL    HW197969   3.006   2.254   7.403 -2.3169  1.0581  1.1759
30711SOL    HW297970   2.952   2.391   7.366 -1.6400  0.1761 -3.7527
30712SOL     OW97971   6.064   6.569   7.823  0.6624  0.5104 -0.2385
30712SOL    HW197972   5.974   6.586   7.851  0.4076  0.1071 -0.7875
30712SOL    HW297973   6.082   6.480   7.854  0.0734 -0.2886 -2.0237
30713SOL     OW97974   9.323   9.749   4.080 -1.1709 -0.0356 -0.5458
30713SOL    HW197975   9.371   9.720   4.002  0.8935 -0.2281  0.7149
30713SOL    HW297976   9.298   9.840   4.060  0.1615  0.2367 -1.0703
30714SOL     OW97977   3.642   7.559   5.940 -0.5116 -0.3925 -0.1917
30714SOL    HW197978   3.658   7.626   5.872  0.4798  0.1592  0.5557
30714SOL    HW297979   3.651   7.476   5.893  1.0140 -0.0386 -0.6144
30715SOL     OW97980   8.575   3.753   8.969 -0.5296  0.2547  0.2286
30715SOL    HW197981   8.662   3.793   8.959 -1.0420  1.4984  0.6579
30715SOL    HW297982   8.593   3.659   8.972  0.6329  0.3383 -1.7169
30716SOL     OW97983   8.039   2.793   6.305 -0.1949  0.7684  0.2914
30716SOL    HW197984   7.961   2.785   6.361 -0.1614 -1.3965  0.1249
30716SOL    HW297985   8.112   2.772   6.363 -0.0769 -0.5163 -0.2788
30717SOL     OW97986   3.931   1.277   1.792 -0.1431  0.1699  0.6167
30717SOL    HW197987   4.004   1.269   1.730 -0.9689 -0.7394 -0.2712
30717SOL    HW297988   3.963   1.337   1.859  1.5210 -0.4160  0.3912
30718SOL     OW97989   8.715   7.244   4.461  0.6388 -0.1507  0.2806
30718SOL    HW197990   8.804   7.230   4.495  0.3835 -1.8410  0.3616
30718SOL    HW297991   8.679   7.314   4.515  0.9958 -1.2953  2.0713
30719SOL     OW97992   8.028   0.440   8.001  0.2702  0.4476  0.0603
30719SOL    HW197993   8.044   0.534   8.007  0.5963  0.5107 -1.4632
30719SOL    HW297994   8.094   0.400   8.058 -0.7182  1.1731  1.7848
30720SOL     OW97995   7.305  10.759   4.140  0.6122 -0.3870  0.4214
30720SOL    HW197996   7.335  10.798   4.222  1.8514  2.1502 -1.0873
30720SOL    HW297997   7.213  10.783   4.134  0.8052  0.4276  0.5733
30721SOL     OW97998   8.583   7.073   4.685  0.5084 -0.3114 -0.9215
30721SOL    HW197999   8.614   7.124   4.610  0.3967  0.3010 -0.5569
30721SOL    HW298000   8.487   7.072   4.675  0.4029  0.8030 -0.1392
30722SOL     OW98001   4.851   1.564   6.143 -0.1763  0.8458  0.1755
30722SOL    HW198002   4.878   1.576   6.234  2.2848  0.5785 -0.4454
30722SOL    HW298003   4.764   1.523   6.149 -1.0997  2.8783  2.3403
30723SOL     OW98004   2.681   3.185   7.715 -0.0752 -0.1575  0.2048
30723SOL    HW198005   2.752   3.249   7.715  0.6251 -0.9081 -0.3116
30723SOL    HW298006   2.701   3.126   7.788 -0.7407  0.2240  0.7074
30724SOL     OW98007   1.765   5.150   2.644 -0.3309  0.2119  0.0216
30724SOL    HW198008   1.713   5.070   2.648  0.4594 -0.2489  1.7964
30724SOL    HW298009   1.704   5.217   2.613 -1.6433 -0.5807  0.8401
30725SOL     OW98010   8.564   2.663   0.906  0.7673  0.1587 -0.1481
30725SOL    HW198011   8.630   2.598   0.931 -1.4353 -1.7390  1.1348
30725SOL    HW298012   8.510   2.618   0.841  0.6443  1.6392 -1.1159
30726SOL     OW98013   3.985   5.709   3.687 -0.1720  0.0994 -0.3662
30726SOL    HW198014   4.048   5.644   3.654  1.0034  0.4645  1.0430
30726SOL    HW298015   3.924   5.658   3.740  2.1063  0.2715  2.7100
30727SOL     OW98016   2.817   7.004   2.132  0.2627 -0.7737 -0.3824
30727SOL    HW198017   2.853   6.965   2.053 -2.5925 -1.3768 -1.5159
30727SOL    HW298018   2.796   6.930   2.188  3.2114 -0.3242  1.5455
30728SOL     OW98019   4.119   9.979   1.365  0.2504 -0.2022 -0.5865
30728SOL    HW198020   4.091   9.987   1.274 -1.3698  1.3736 -0.0094
30728SOL    HW298021   4.042  10.001   1.417  1.9206  2.2156  1.1230
30729SOL     OW98022   1.999   9.007   3.478 -0.0588  0.6977  0.0025
30729SOL    HW198023   2.022   9.087   3.430  0.7109  0.7533  0.4487
30729SOL    HW298024   2.018   8.936   3.416  1.7506  0.7156  0.4713
30730SOL     OW98025   9.546   1.508   1.619  0.1340 -0.1334 -0.4755
30730SOL    HW198026   9.641   1.509   1.614  0.1153 -0.0476 -0.9449
30730SOL    HW298027   9.525   1.450   1.691  0.5031 -1.9155 -1.7353
30731SOL     OW98028   5.527   0.460  10.234  0.0795  0.0900  0.0554
30731SOL    HW198029   5.517   0.550  10.267  1.7115  0.0291  0.8064
30731SOL    HW298030   5.439   0.422  10.241 -0.0760  0.7371  2.4113
30732SOL     OW98031   8.030  10.797  10.707  0.2563 -0.5727 -0.3115
30732SOL    HW198032   8.079  10.855  10.766  1.1651 -1.2446 -0.3928
30732SOL    HW298033   8.002  10.854  10.635 -0.8670  0.2562  0.7499
30733SOL     OW98034   0.072   6.882   7.898  0.1746  0.0148 -0.1424
30733SOL    HW198035  -0.002   6.936   7.926  0.5587  0.9543 -0.8982
30733SOL    HW298036   0.058   6.869   7.805  0.5152 -0.5383 -0.1207
30734SOL     OW98037   0.905   0.396   5.879  0.1462 -0.1809  0.1121
30734SOL    HW198038   0.889   0.412   5.786 -2.6856 -1.1796  0.3570
30734SOL    HW298039   0.818   0.386   5.918  1.2756 -0.7972  2.7124
30735SOL     OW98040   2.690   5.992   2.081 -0.1895 -0.3247  0.1287
30735SOL    HW198041   2.696   5.897   2.092 -1.4667 -0.5157 -0.6428
30735SOL    HW298042   2.754   6.012   2.012  0.9775 -0.4275  1.1478
30736SOL     OW98043   2.296   3.062   5.932 -0.5281 -0.2861 -0.9289
30736SOL    HW198044   2.208   3.095   5.913 -0.1173  0.3726 -1.7029
30736SOL    HW298045   2.312   2.997   5.864 -0.6982 -0.9539 -0.3480
30737SOL     OW98046   2.574   3.685   1.903 -0.6555  0.0984  0.4320
30737SOL    HW198047   2.592   3.779   1.899 -1.3318  0.1691 -1.7469
30737SOL    HW298048   2.655   3.648   1.938 -0.9065  1.5742  2.8698
30738SOL     OW98049   3.112   6.430   2.083  0.2331 -0.1318 -0.0863
30738SOL    HW198050   3.049   6.371   2.123  0.7524 -0.3191  0.4693
30738SOL    HW298051   3.190   6.423   2.138 -0.3240  2.5644  1.1773
30739SOL     OW98052   7.885   5.082   3.420  0.2775 -0.1877 -0.1373
30739SOL    HW198053   7.830   5.007   3.439 -1.8855  0.5184 -2.9392
30739SOL    HW298054   7.974   5.049   3.426 -0.5214 -2.3344  0.9492
30740SOL     OW98055   4.121   1.773   8.035  0.5672  0.2224 -0.2259
30740SOL    HW198056   4.166   1.772   7.951  0.5429  2.4958 -0.3428
30740SOL    HW298057   4.029   1.757   8.014  0.5971  0.5540 -0.6229
30741SOL     OW98058   0.579   6.555   2.836 -0.1374  0.0695  0.1562
30741SOL    HW198059   0.616   6.605   2.762  1.3707 -0.6313  0.4008
30741SOL    HW298060   0.512   6.613   2.872  0.5630  1.3179 -0.4605
30742SOL     OW98061   4.832   9.826   6.937 -0.0625 -0.4747 -0.3193
30742SOL    HW198062   4.788   9.902   6.974  2.5437  1.3437 -0.6587
30742SOL    HW298063   4.797   9.818   6.849 -0.3307  0.3891 -0.2989
30743SOL     OW98064  10.579   8.782   2.898  0.4299 -0.3021  0.0030
30743SOL    HW198065  10.612   8.852   2.842 -0.5095 -0.1646 -0.3955
30743SOL    HW298066  10.603   8.701   2.853  1.3081 -0.2453  0.3450
30744SOL     OW98067   4.898   8.608   4.330 -0.4237 -0.0941 -0.1494
30744SOL    HW198068   4.884   8.584   4.421  0.3928  0.3065  0.0897
30744SOL    HW298069   4.810   8.608   4.291 -0.8867  0.7392  0.8801
30745SOL     OW98070   9.709   9.904   3.609  0.1012  0.6214  0.0998
30745SOL    HW198071   9.794   9.882   3.570  0.2564  0.3507  0.5848
30745SOL    HW298072   9.692   9.993   3.579  0.9715  1.0034  0.6961
30746SOL     OW98073   0.626   3.729   2.556 -0.3221 -0.0408 -0.1069
30746SOL    HW198074   0.592   3.786   2.624  0.6186 -0.6436  0.9025
30746SOL    HW298075   0.555   3.724   2.492 -1.2704  0.4711  0.8578
30747SOL     OW98076  10.521   9.578   9.302  0.2459 -0.2734 -0.4656
30747SOL    HW198077  10.616   9.569   9.315  0.2911  0.6082 -0.1192
30747SOL    HW298078  10.506   9.672   9.301 -0.6422 -0.4093 -0.4576
30748SOL     OW98079   1.473   1.661   6.127 -0.4072 -0.3708  0.4751
30748SOL    HW198080   1.543   1.715   6.092  0.8072 -1.8171  0.5661
30748SOL    HW298081   1.413   1.648   6.054 -0.8375  1.2331  0.5122
30749SOL     OW98082  10.372  10.010   6.846  0.1748  0.0662 -0.0617
30749SOL    HW198083  10.342  10.101   6.849 -0.1551 -0.0506  0.3298
30749SOL    HW298084  10.344   9.974   6.930  0.9405 -0.2009  0.0781
30750SOL     OW98085   6.948   0.456   9.120  0.7477 -0.1702 -0.0272
30750SOL    HW198086   6.948   0.361   9.132 -0.5977 -0.0986  0.7002
30750SOL    HW298087   7.026   0.486   9.166  0.7595 -0.8528  0.4160
30751SOL     OW98088   9.418  10.586   4.728  0.4764  0.2448 -0.4319
30751SOL    HW198089   9.488  10.527   4.757 -0.1930 -0.2028  0.3049
30751SOL    HW298090   9.455  10.674   4.739 -0.2358  0.2222  3.3703
30752SOL     OW98091   9.962   3.555   2.031  0.1304  1.0493  0.0097
30752SOL    HW198092   9.987   3.486   2.092 -0.2562  1.0509  0.1731
30752SOL    HW298093   9.869   3.571   2.048 -0.6783 -0.6830 -2.2392
30753SOL     OW98094  10.503   8.852   7.217 -0.6081 -0.4207 -0.2618
30753SOL    HW198095  10.454   8.886   7.142 -0.7683 -0.0679 -0.0024
30753SOL    HW298096  10.500   8.757   7.207  0.1683 -0.3554 -1.2007
30754SOL     OW98097   1.017  10.533   0.084  0.5969 -0.1606 -0.3589
30754SOL    HW198098   1.004  10.628   0.091  0.2181 -0.1249 -1.4036
30754SOL    HW298099   1.081  10.513   0.152 -0.5816  0.5745  1.0319
30755SOL     OW98100   8.592   3.731   7.064 -0.3502 -0.7300  0.2245
30755SOL    HW198101   8.638   3.809   7.034  0.2908 -1.4243 -0.6563
30755SOL    HW298102   8.544   3.760   7.142 -1.0117  0.8159 -0.6897
30756SOL     OW98103   9.363   6.526   8.763  0.0080 -0.2654 -0.3016
30756SOL    HW198104   9.368   6.560   8.852 -2.0846 -1.4523  0.3425
30756SOL    HW298105   9.326   6.438   8.773 -0.9195 -0.1663 -2.3949
30757SOL     OW98106   9.438   7.899   7.560  0.1356 -0.0416 -0.4983
30757SOL    HW198107   9.402   7.896   7.649 -1.5549 -1.0048 -1.1656
30757SOL    HW298108   9.400   7.823   7.516  2.6254 -0.8238 -1.4766
30758SOL     OW98109   4.198   1.469   4.394  0.1775 -0.1239 -0.3615
30758SOL    HW198110   4.112   1.507   4.377 -0.4786 -0.9826  0.8636
30758SOL    HW298111   4.244   1.535   4.446 -0.0532  0.0085 -0.3240
30759SOL     OW98112   4.485   8.086   8.189 -0.4480 -0.7680 -0.6580
30759SOL    HW198113   4.512   8.020   8.125 -1.8231 -1.5381 -0.4684
30759SOL    HW298114   4.427   8.039   8.249  0.1331  0.1462  0.6606
30760SOL     OW98115   8.555   6.679   0.765  0.2355 -0.6641  0.3127
30760SOL    HW198116   8.519   6.593   0.744  3.1240 -1.6155 -1.5597
30760SOL    HW298117   8.575   6.675   0.858  0.3046 -2.0557  0.2647
30761SOL     OW98118   1.204   2.489   0.403  0.5209  0.2364 -0.2671
30761SOL    HW198119   1.183   2.534   0.484 -0.1491 -0.1031 -0.2479
30761SOL    HW298120   1.178   2.550   0.334 -0.5401 -0.1823 -0.2430
30762SOL     OW98121   3.970  10.526   0.827  0.3225  0.1901  0.2808
30762SOL    HW198122   3.884  10.550   0.859  0.7380  0.0590  1.5293
30762SOL    HW298123   3.972  10.558   0.736 -1.1799 -0.2005  0.0989
30763SOL     OW98124   6.324   2.605   4.294 -0.4965  0.0991  0.1642
30763SOL    HW198125   6.382   2.620   4.219  0.1742  1.8024  0.9603
30763SOL    HW298126   6.384   2.593   4.368 -1.1588  0.0372  0.6979
30764SOL     OW98127   2.028   1.005   2.496  0.6335  0.3533 -0.1982
30764SOL    HW198128   1.948   0.958   2.522  0.4898  0.8423  0.2800
30764SOL    HW298129   2.046   0.975   2.408 -0.2402  0.4313 -0.4174
30765SOL     OW98130   5.567   3.571   3.232 -0.4060  0.3390  0.2265
30765SOL    HW198131   5.648   3.523   3.246 -0.9240 -0.2821  1.1839
30765SOL    HW298132   5.553   3.619   3.313  0.3617  2.5609 -0.8878
30766SOL     OW98133  10.272   5.039   1.611  0.0479 -0.2559  0.7397
30766SOL    HW198134  10.330   5.016   1.683  2.5794  1.9815 -0.4071
30766SOL    HW298135  10.288   5.132   1.596 -0.6496 -0.5290 -2.4249
30767SOL     OW98136   2.457   2.406   9.960  0.0746  0.4506  0.0235
30767SOL    HW198137   2.450   2.358   9.878  2.2455 -0.1353  0.1006
30767SOL    HW298138   2.551   2.413   9.975 -0.0718  4.5101  0.1943
30768SOL     OW98139   1.926   8.282   1.497  0.8001  0.1475  0.2982
30768SOL    HW198140   1.969   8.219   1.440  0.5501 -0.5440  0.8699
30768SOL    HW298141   1.941   8.250   1.586  0.4530  0.7525  0.5861
30769SOL     OW98142  10.448   6.722   3.106  0.0142 -0.7772  0.1708
30769SOL    HW198143  10.480   6.764   3.026 -1.6744 -0.8608 -0.5803
30769SOL    HW298144  10.507   6.754   3.174  2.6403 -2.0573 -1.2911
30770SOL     OW98145   4.256   5.190   8.066 -0.3266  0.0484 -0.4402
30770SOL    HW198146   4.301   5.108   8.047 -0.7936 -0.0941 -0.9476
30770SOL    HW298147   4.285   5.213   8.154  0.2706 -0.3487 -0.5254
30771SOL     OW98148   2.376   7.395   5.666  0.0681 -0.3810  0.2034
30771SOL    HW198149   2.318   7.417   5.739 -1.6977 -1.8710 -0.6802
30771SOL    HW298150   2.332   7.431   5.589  1.9997  1.3391 -0.1683
30772SOL     OW98151   6.963   5.902   2.435 -0.1741 -0.3704 -0.5067
30772SOL    HW198152   7.011   5.952   2.500  0.4258 -0.1911 -1.0722
30772SOL    HW298153   6.989   5.811   2.450  0.5923 -0.2454 -0.9939
30773SOL     OW98154   7.604   3.519  10.443 -0.2779  0.9237  0.0256
30773SOL    HW198155   7.562   3.466  10.511 -0.2982  1.3243  0.3346
30773SOL    HW298156   7.697   3.511  10.461  0.1927 -3.1412 -2.9823
30774SOL     OW98157   4.939   4.828  10.259 -0.3044 -0.1135 -0.0127
30774SOL    HW198158   4.847   4.839  10.283 -0.4910 -0.0460 -0.7373
30774SOL    HW298159   4.975   4.774  10.329 -1.4050 -1.9370 -0.7554
30775SOL     OW98160   0.445   5.766   9.286  0.1648 -0.4952 -0.1531
30775SOL    HW198161   0.464   5.742   9.196  2.0821  0.6553 -0.0942
30775SOL    HW298162   0.507   5.716   9.339 -1.7289 -2.1040  0.7073
30776SOL     OW98163   6.345   3.980   8.242  0.4134  0.0806 -0.3779
30776SOL    HW198164   6.289   4.055   8.222 -1.5469 -1.4133 -0.7977
30776SOL    HW298165   6.402   3.972   8.166 -0.1804  0.4348 -0.8692
30777SOL     OW98166   8.822   5.148   3.074  0.1330  0.1399  0.1359
30777SOL    HW198167   8.860   5.213   3.132 -0.5247  1.8087 -1.2312
30777SOL    HW298168   8.897   5.096   3.044  0.9291  1.4247 -0.1455
30778SOL     OW98169   7.110   1.838   0.105 -0.2775 -0.3306  0.4034
30778SOL    HW198170   7.200   1.812   0.123  0.5983  1.1737 -1.4378
30778SOL    HW298171   7.114   1.933   0.098 -1.8868 -0.2961 -0.3611
30779SOL     OW98172   9.693   0.085   6.790 -0.0695 -0.4972  0.2073
30779SOL    HW198173   9.667   0.082   6.882  0.5768  2.9802  0.6140
30779SOL    HW298174   9.769   0.027   6.785  0.5895  0.1250  2.1240
30780SOL     OW98175   5.737   2.179  10.320  0.0502 -0.1202  0.0044
30780SOL    HW198176   5.813   2.144  10.273 -0.7749  0.0529 -1.5346
30780SOL    HW298177   5.749   2.149  10.410  1.2199 -1.2828 -0.4940
30781SOL     OW98178   9.976   1.269   6.634 -0.0543  0.8091  0.6453
30781SOL    HW198179  10.063   1.257   6.595 -0.9669  0.4035 -1.3560
30781SOL    HW298180   9.975   1.209   6.709  1.3547  0.7792  0.6627
30782SOL     OW98181   3.388   3.273   9.178 -0.1964  0.3747 -0.1514
30782SOL    HW198182   3.408   3.218   9.102  2.9741  1.4206 -0.2449
30782SOL    HW298183   3.298   3.251   9.201 -1.0410 -0.5651 -3.7091
30783SOL     OW98184   3.999   2.028   3.833  0.1969 -0.2165 -0.0113
30783SOL    HW198185   4.032   2.033   3.744 -1.5170 -0.4500 -0.6878
30783SOL    HW298186   3.947   1.948   3.835 -0.9357  0.5083  0.7766
30784SOL     OW98187   5.701   3.173   7.102 -0.5102  0.3808 -0.1698
30784SOL    HW198188   5.622   3.215   7.067 -0.2994 -0.4169 -1.6662
30784SOL    HW298189   5.668   3.106   7.162 -1.1020 -1.2005 -2.1678
30785SOL     OW98190   4.944   6.117   9.586  0.4736 -0.3185 -0.8457
30785SOL    HW198191   4.903   6.192   9.545  2.0730  0.4413 -1.1456
30785SOL    HW298192   5.016   6.154   9.637  0.1703 -1.4854  0.5180
30786SOL     OW98193   6.946   3.358   6.165 -0.5169  0.5453  0.1917
30786SOL    HW198194   6.994   3.277   6.146 -0.4550  0.5609  0.2759
30786SOL    HW298195   6.944   3.405   6.082  0.0274  0.7573  0.2958
30787SOL     OW98196   6.745   5.951   9.329  0.3634  0.3578 -0.0446
30787SOL    HW198197   6.777   5.941   9.240  1.1797 -2.6390  0.4721
30787SOL    HW298198   6.698   5.869   9.347 -0.4897  1.2275  1.9977
30788SOL     OW98199   3.211   3.236   8.745  0.1606 -0.0327 -0.2621
30788SOL    HW198200   3.206   3.264   8.837 -1.7342  1.8750 -0.8745
30788SOL    HW298201   3.304   3.247   8.722  0.8198 -1.2767  1.5952
30789SOL     OW98202   7.059   7.486   6.254 -0.1815  0.5293 -0.1688
30789SOL    HW198203   7.109   7.447   6.183 -1.4812 -0.1449 -0.7559
30789SOL    HW298204   7.061   7.421   6.324 -0.9732  0.0812 -0.5398
30790SOL     OW98205   7.027   2.727   6.271 -0.0808  0.5584 -0.1676
30790SOL    HW198206   6.966   2.772   6.328  0.1104  1.0097 -0.3189
30790SOL    HW298207   7.094   2.691   6.330 -1.0342 -0.8529  0.1184
30791SOL     OW98208   6.648   8.330   5.575  0.1530  0.8079 -0.1122
30791SOL    HW198209   6.639   8.416   5.616  1.5565  2.2091 -2.5280
30791SOL    HW298210   6.742   8.315   5.570  0.0066  0.2269 -1.8162
30792SOL     OW98211   3.045  10.427   5.844  0.2956  0.0662  0.4659
30792SOL    HW198212   3.041  10.373   5.765  1.4067  0.2375  0.2762
30792SOL    HW298213   3.124  10.397   5.890  0.1533  0.5713  1.0564
30793SOL     OW98214   4.847   8.054   7.972  0.6894  0.3859  0.0875
30793SOL    HW198215   4.905   8.123   7.941  1.1399  0.1704  0.4542
30793SOL    HW298216   4.860   8.051   8.067 -0.2391  0.6301  0.2326
30794SOL     OW98217   0.174   8.595   9.845  0.2133 -0.1986  0.0195
30794SOL    HW198218   0.144   8.504   9.847 -1.2259  0.1926 -1.4743
30794SOL    HW298219   0.261   8.590   9.804 -0.0827 -0.8554 -0.5447
30795SOL     OW98220   0.339   1.730   0.581  0.2343  0.0135  0.3187
30795SOL    HW198221   0.280   1.761   0.650  0.0704 -2.3300  1.3036
30795SOL    HW298222   0.288   1.666   0.532  1.4683 -0.9660  0.2718
30796SOL     OW98223   0.334   1.582  10.850  0.3913  0.0492 -0.1726
30796SOL    HW198224   0.244   1.553  10.834  0.0946  0.9244 -0.1394
30796SOL    HW298225   0.373   1.589  10.762  0.3348 -0.0585 -0.2055
30797SOL     OW98226   9.479   8.763   5.929  0.0460  0.0619 -0.0949
30797SOL    HW198227   9.550   8.796   5.985 -0.4080 -1.5991  1.5456
30797SOL    HW298228   9.523   8.729   5.851  1.0167 -0.5672  0.7157
30798SOL     OW98229   1.815   4.322  10.432 -0.3649 -0.0802  0.1631
30798SOL    HW198230   1.773   4.251  10.480  3.1857 -1.6990  1.1636
30798SOL    HW298231   1.876   4.361  10.494  0.6763  1.1838 -1.5642
30799SOL     OW98232   2.168   0.478   8.936 -0.2739  0.1995 -0.9047
30799SOL    HW198233   2.104   0.430   8.988 -0.9712  1.2336 -0.7872
30799SOL    HW298234   2.134   0.567   8.931  0.8402  0.6228 -1.3765
30800SOL     OW98235   1.132  10.553   2.302 -0.2450 -0.1550 -0.1860
30800SOL    HW198236   1.069  10.540   2.231 -1.1196  0.0673  0.5346
30800SOL    HW298237   1.213  10.578   2.258 -0.7702 -0.0410 -1.1058
30801SOL     OW98238   2.421   3.080  10.792 -0.8075  0.3423  0.3558
30801SOL    HW198239   2.406   3.173  10.775  0.4881  1.0372  2.6735
30801SOL    HW298240   2.514   3.072  10.809 -0.8911 -1.3980  0.2444
30802SOL     OW98241   8.784   0.921  10.391  0.0922 -0.0370  0.1781
30802SOL    HW198242   8.790   1.004  10.344  0.2714 -0.8378 -1.2401
30802SOL    HW298243   8.697   0.923  10.430 -0.2108  0.4769 -0.4954
30803SOL     OW98244   4.380   3.084   0.382  0.2444 -0.0584  0.1209
30803SOL    HW198245   4.432   3.095   0.302 -0.0284 -0.0944 -0.0611
30803SOL    HW298246   4.409   3.156   0.438 -3.1105  3.2514 -1.9067
30804SOL     OW98247   9.740   5.429   2.086 -0.2172  0.3351 -0.4612
30804SOL    HW198248   9.727   5.336   2.101 -0.4423  0.4971  0.4120
30804SOL    HW298249   9.828   5.446   2.119 -0.0520  0.3787 -0.9123
30805SOL     OW98250   2.938   3.288   4.787 -0.1535 -0.2913  0.1301
30805SOL    HW198251   2.931   3.377   4.822  1.2220  1.1737 -3.0144
30805SOL    HW298252   3.020   3.254   4.823  0.6394  0.7288 -0.6701
30806SOL     OW98253   7.895   6.101   1.270 -0.5186  0.5521  0.0094
30806SOL    HW198254   7.977   6.089   1.224 -0.9645  0.2877 -0.7353
30806SOL    HW298255   7.873   6.193   1.256 -1.3968  0.1326 -1.6108
30807SOL     OW98256  10.608  10.678  10.795 -0.2076  0.4808  0.3886
30807SOL    HW198257  10.691  10.726  10.807  0.5181 -0.7845  0.6346
30807SOL    HW298258  10.589  10.643  10.882 -0.1412 -0.5805 -0.0148
30808SOL     OW98259   7.884   4.488   2.356 -0.0143 -0.4993  0.3368
30808SOL    HW198260   7.946   4.417   2.372 -0.5176 -0.7285  1.3238
30808SOL    HW298261   7.916   4.562   2.407  0.7034  0.1291 -0.9592
30809SOL     OW98262   7.192   4.718   8.796  0.3088 -0.0436 -0.4825
30809SOL    HW198263   7.226   4.806   8.808 -1.0086  0.3579  0.5533
30809SOL    HW298264   7.262   4.671   8.752  0.6201  1.8099 -2.0880
30810SOL     OW98265   4.069   5.820   6.562  0.5361 -0.7335 -0.8041
30810SOL    HW198266   4.010   5.781   6.628 -1.2001 -0.4685 -2.1244
30810SOL    HW298267   4.037   5.785   6.479  0.0538  2.0308 -1.8854
30811SOL     OW98268   0.666   5.595   4.516 -0.0398  0.1005  0.3842
30811SOL    HW198269   0.668   5.611   4.422 -2.7448 -1.5452 -0.0473
30811SOL    HW298270   0.581   5.628   4.545  0.3532 -0.2833  2.0851
30812SOL     OW98271   6.302   4.359   6.314 -0.2477  1.0069 -0.1076
30812SOL    HW198272   6.282   4.430   6.253 -1.4024  0.6986 -0.1237
30812SOL    HW298273   6.279   4.280   6.265  0.2898  0.6645  0.1868
30813SOL     OW98274   0.285  10.025   1.752  0.1490  0.3039  0.0725
30813SOL    HW198275   0.333  10.081   1.691  0.6202 -0.9167 -0.7166
30813SOL    HW298276   0.352   9.991   1.811 -0.0438  0.1229  0.1879
30814SOL     OW98277   5.964   7.655   1.244  0.2809  0.1080  0.1099
30814SOL    HW198278   5.965   7.690   1.155 -1.0450  1.6740  0.6621
30814SOL    HW298279   6.035   7.591   1.246  0.1365 -0.2011 -2.1585
30815SOL     OW98280   7.824   7.036   4.720 -0.0679  0.1420 -0.0163
30815SOL    HW198281   7.880   6.961   4.742 -0.7431 -0.2375  0.4756
30815SOL    HW298282   7.881   7.095   4.672  1.0496  0.2465  1.3535
30816SOL     OW98283   6.074   2.834   7.829  0.1499 -0.2800 -0.3075
30816SOL    HW198284   6.109   2.855   7.916  2.6973 -0.7311 -1.1321
30816SOL    HW298285   6.102   2.907   7.774  0.9066 -1.2580 -1.2674
30817SOL     OW98286  10.860   8.849   1.545 -0.0143 -0.1807  0.0295
30817SOL    HW198287  10.892   8.841   1.635 -1.5929 -0.2002  0.6093
30817SOL    HW298288  10.768   8.823   1.549  0.0689 -0.9200 -1.7371
30818SOL     OW98289   1.465   4.424   0.539  0.1481  0.4327  0.1189
30818SOL    HW198290   1.497   4.338   0.568 -1.3111 -0.0375  0.4357
30818SOL    HW298291   1.437   4.410   0.449  1.4599  1.0287 -0.4082
30819SOL     OW98292   9.257   9.924   7.659 -0.5181  0.4381 -0.5252
30819SOL    HW198293   9.242   9.878   7.741 -2.0905  1.8024  0.0154
30819SOL    HW298294   9.242  10.016   7.681  0.6721  1.0093 -1.9808
30820SOL     OW98295  10.294   8.978   7.036  0.0951  0.4018 -0.1175
30820SOL    HW198296  10.324   9.067   7.053 -0.0377  0.6935 -1.2921
30820SOL    HW298297  10.306   8.966   6.942 -1.1755 -0.3259 -0.2138
30821SOL     OW98298   2.572   6.702   7.548  0.0315  0.0842  0.2036
30821SOL    HW198299   2.506   6.635   7.532  0.9651 -1.0149  0.7754
30821SOL    HW298300   2.523   6.784   7.548 -1.2540 -0.6498  0.1360
30822SOL     OW98301   1.165   9.089   3.104 -0.0278 -0.1824  0.0162
30822SOL    HW198302   1.179   9.166   3.049 -0.2522  2.1335  2.9379
30822SOL    HW298303   1.254   9.058   3.124  0.1106  0.1309 -0.1044
30823SOL     OW98304   9.788   5.130   8.154 -0.3692 -0.0252  0.1733
30823SOL    HW198305   9.813   5.099   8.241  0.7475 -1.5070 -0.6210
30823SOL    HW298306   9.760   5.051   8.107  0.5277  0.4805 -1.2863
30824SOL     OW98307   4.514   0.616   4.634  0.3174  0.0479 -0.0510
30824SOL    HW198308   4.481   0.554   4.569 -0.7622  0.1066  0.4132
30824SOL    HW298309   4.470   0.699   4.612 -0.0491  0.0683  0.7240
30825SOL     OW98310   0.125   0.253   8.089  0.3671  0.6530 -0.4739
30825SOL    HW198311   0.076   0.333   8.107 -3.7839 -0.8195 -3.5665
30825SOL    HW298312   0.184   0.277   8.017  0.7718  1.3922  0.0956
30826SOL     OW98313   3.671   3.395   6.492 -0.2222  0.1307 -0.3081
30826SOL    HW198314   3.727   3.332   6.446 -1.1841 -1.0245  0.0552
30826SOL    HW298315   3.715   3.479   6.479 -0.0156 -0.2473 -2.6458
30827SOL     OW98316   8.165  10.575   5.807 -0.4510 -0.4917  0.1670
30827SOL    HW198317   8.260  10.563   5.808 -0.1918  1.1724  2.2629
30827SOL    HW298318   8.132  10.494   5.769  1.7956 -0.9740 -0.9637
30828SOL     OW98319   6.688   1.940   4.807 -0.0970  0.1009  0.0273
30828SOL    HW198320   6.647   1.875   4.864 -1.2015  0.4972 -0.2780
30828SOL    HW298321   6.624   1.954   4.737 -0.4790  2.3939  0.7295
30829SOL     OW98322   3.270   4.345  10.915  0.3434  0.4323  0.4154
30829SOL    HW198323   3.216   4.377  10.842  1.8500  0.5518 -0.6888
30829SOL    HW298324   3.246   4.252  10.923  1.0433  0.0896 -1.0850
30830SOL     OW98325   9.310   3.194   8.601 -0.0202 -0.2828  0.7197
30830SOL    HW198326   9.387   3.207   8.546 -0.2517  0.6793  0.6045
30830SOL    HW298327   9.309   3.269   8.660 -0.6892 -0.4458  0.9282
30831SOL     OW98328   9.396   6.081   3.459  0.7598 -0.5090 -0.2872
30831SOL    HW198329   9.410   5.999   3.507  0.0864 -0.4100  0.0870
30831SOL    HW298330   9.479   6.128   3.469  1.2345 -1.2323 -0.7009
30832SOL     OW98331   2.515   2.748   8.962  0.7741 -0.1616 -0.4333
30832SOL    HW198332   2.433   2.750   9.012  1.7833  1.2697  1.2408
30832SOL    HW298333   2.495   2.796   8.882  0.2708  1.1810  0.4726
30833SOL     OW98334  10.031   0.747   5.122  0.6140 -0.0205 -0.4506
30833SOL    HW198335  10.013   0.717   5.211  0.3717  0.4099 -0.3535
30833SOL    HW298336  10.126   0.743   5.114  0.5724 -1.2308 -0.5866
30834SOL     OW98337   5.466   0.860   3.546 -0.0335 -0.0871  0.3475
30834SOL    HW198338   5.541   0.813   3.510 -0.0407 -0.3874  0.7192
30834SOL    HW298339   5.392   0.800   3.537 -0.6734  0.9345 -1.8318
30835SOL     OW98340   2.872   2.388   8.340  0.0035  0.2094 -0.2609
30835SOL    HW198341   2.845   2.385   8.248  1.8045 -1.6463 -0.7962
30835SOL    HW298342   2.836   2.308   8.378 -0.7721  0.9894  0.6940
30836SOL     OW98343   4.731   3.669   4.647  0.4616  0.5803 -0.1869
30836SOL    HW198344   4.701   3.754   4.679 -1.9697 -0.3909  0.3529
30836SOL    HW298345   4.734   3.679   4.552  2.1586  1.8081 -0.0437
30837SOL     OW98346   8.712   1.766  10.242 -0.0473  0.0387 -0.4415
30837SOL    HW198347   8.769   1.707  10.292 -1.5924 -0.2605  1.0369
30837SOL    HW298348   8.649   1.708  10.199 -0.4795  0.4917 -0.4261
30838SOL     OW98349   2.913   1.698   4.933 -0.0028  0.1122  0.5285
30838SOL    HW198350   2.958   1.757   4.873 -2.4372  0.7613 -0.7684
30838SOL    HW298351   2.923   1.740   5.019  1.1124  0.6552  0.1486
30839SOL     OW98352  10.122   8.758   7.912  0.6321  0.0046  0.3762
30839SOL    HW198353  10.070   8.762   7.832 -0.9138 -1.3638  1.2396
30839SOL    HW298354  10.110   8.843   7.953 -0.6022 -0.1344  0.3299
30840SOL     OW98355   5.474   7.074   7.150  0.1473 -0.1835  0.0104
30840SOL    HW198356   5.467   7.052   7.058 -1.6521 -0.0852  0.0884
30840SOL    HW298357   5.430   7.002   7.196  1.2762 -0.3757  0.8162
30841SOL     OW98358   7.127   9.265  10.502  0.1957 -0.4201  0.0797
30841SOL    HW198359   7.072   9.316  10.561  0.0146  0.5057 -0.8400
30841SOL    HW298360   7.217   9.287  10.528  0.1541 -1.7332  1.4140
30842SOL     OW98361   3.418   0.402   1.356  0.1629 -0.5365  0.3985
30842SOL    HW198362   3.489   0.438   1.303  0.9513  0.1528  1.8624
30842SOL    HW298363   3.431   0.307   1.353  1.3939 -0.4042  0.9622
30843SOL     OW98364   3.769   5.802   9.528 -0.1162  0.6890 -0.6392
30843SOL    HW198365   3.860   5.776   9.512 -0.0867  0.4502 -0.0851
30843SOL    HW298366   3.719   5.721   9.514 -0.0713  0.4219  0.6483
30844SOL     OW98367   0.833   1.871   6.774  0.4628  0.3084 -0.1121
30844SOL    HW198368   0.744   1.837   6.781  0.4161  0.7107  1.9643
30844SOL    HW298369   0.821   1.966   6.764  0.6677  0.2074 -1.5840
30845SOL     OW98370  10.002   4.491   0.178 -0.6095 -0.3073 -0.2947
30845SOL    HW198371  10.029   4.477   0.087 -2.3161 -1.3333 -0.6809
30845SOL    HW298372   9.986   4.404   0.213  2.1245 -0.1316  1.7703
30846SOL     OW98373   9.462   7.977   6.053 -0.1804 -0.1104  0.3776
30846SOL    HW198374   9.386   7.935   6.012 -0.4142 -0.2281  0.9188
30846SOL    HW298375   9.527   7.982   5.984 -0.4917 -0.5081  0.0523
30847SOL     OW98376   5.465   1.179  10.776 -0.0304 -0.0240  0.4120
30847SOL    HW198377   5.375   1.161  10.751 -0.5302  1.0049  1.3724
30847SOL    HW298378   5.514   1.101  10.750 -1.0731 -0.3277 -0.7131
30848SOL     OW98379  10.426   9.797   2.218  0.1477 -0.5153  0.6859
30848SOL    HW198380  10.501   9.738   2.215  0.0748 -0.6221  0.9623
30848SOL    HW298381  10.378   9.771   2.296 -0.7431 -1.1442 -0.0426
30849SOL     OW98382   3.663   1.748   1.424  0.0220 -0.0537  0.4521
30849SOL    HW198383   3.714   1.686   1.372  1.5349  0.3771  1.3879
30849SOL    HW298384   3.633   1.697   1.500 -0.2442 -0.0890  0.3251
30850SOL     OW98385   1.054   9.074   3.401 -0.0034 -0.1731 -0.1579
30850SOL    HW198386   1.130   9.132   3.396  1.2110 -1.7591 -1.5066
30850SOL    HW298387   1.009   9.086   3.318 -1.2927  0.7910  0.6544
30851SOL     OW98388   3.206  10.150   8.065 -0.0852 -0.5803  0.3799
30851SOL    HW198389   3.172  10.113   8.147 -0.9889  0.2130  0.3800
30851SOL    HW298390   3.299  10.166   8.083 -0.4284  0.3053  1.5335
30852SOL     OW98391   4.870   6.844   4.945 -0.0825 -0.2054 -0.2589
30852SOL    HW198392   4.881   6.793   4.865  0.7859  1.3562 -1.1917
30852SOL    HW298393   4.778   6.834   4.968 -0.2311 -1.0529 -1.1846
30853SOL     OW98394   0.407   2.647   2.871 -0.6001  0.0580 -0.0767
30853SOL    HW198395   0.352   2.569   2.860  0.6501 -0.8877  0.2041
30853SOL    HW298396   0.416   2.681   2.782 -0.4386 -0.6277 -0.3306
30854SOL     OW98397   7.332   8.410   4.992  0.3842 -0.0492 -0.6178
30854SOL    HW198398   7.384   8.348   4.940  1.5469  1.2270 -1.0404
30854SOL    HW298399   7.256   8.430   4.936  1.4192  0.9996 -1.7130
30855SOL     OW98400   8.029   1.224   7.713  0.8254  0.0972  0.1025
30855SOL    HW198401   8.036   1.313   7.678 -1.1109  0.6828  1.0241
30855SOL    HW298402   7.955   1.229   7.774  0.2719 -2.3099 -0.2875
30856SOL     OW98403   2.355   1.611   3.109 -0.0817 -0.7969  0.5408
30856SOL    HW198404   2.298   1.534   3.106 -2.3544  0.7885  0.7725
30856SOL    HW298405   2.320   1.671   3.043  1.1145  0.3939  0.9262
30857SOL     OW98406   3.650   9.650  10.483 -0.4823 -0.3211 -0.2591
30857SOL    HW198407   3.666   9.697  10.401 -3.8477  0.0207 -0.8755
30857SOL    HW298408   3.567   9.604  10.468  0.8858 -3.7183  1.5481
30858SOL     OW98409   3.340   9.498   6.650 -0.3308  0.2529  0.0852
30858SOL    HW198410   3.373   9.409   6.652 -0.8226  0.0647 -0.1679
30858SOL    HW298411   3.341   9.523   6.558  0.8977  0.9272  0.2562
30859SOL     OW98412  10.921  10.335  10.606 -0.4004 -0.2255  0.6541
30859SOL    HW198413  10.975  10.300  10.676 -0.3390  2.1157  1.8484
30859SOL    HW298414  10.833  10.337  10.643 -0.5104  0.2594  0.3683
30860SOL     OW98415   3.935   6.141   0.025  0.3689 -0.0723 -0.5403
30860SOL    HW198416   3.987   6.218   0.052  0.2683  0.0435 -0.6748
30860SOL    HW298417   3.890   6.170  -0.054  2.0908 -0.9897 -1.9177
30861SOL     OW98418   7.141   0.122  10.732 -0.4848 -0.2262 -0.1537
30861SOL    HW198419   7.216   0.175  10.761  0.1700 -0.2956 -1.6007
30861SOL    HW298420   7.098   0.094  10.813 -0.2047  1.5931  0.6749
30862SOL     OW98421   3.524   6.711   7.542 -0.0720  0.4734  0.5562
30862SOL    HW198422   3.506   6.617   7.542  1.7521  0.0748 -0.4817
30862SOL    HW298423   3.580   6.725   7.618 -0.1343  0.6928  0.5635
30863SOL     OW98424   7.774   5.550  10.533  0.6514 -0.5553  0.0745
30863SOL    HW198425   7.730   5.495  10.598  2.1078 -2.0262 -0.1267
30863SOL    HW298426   7.732   5.526  10.450 -3.1177  3.2142  0.5281
30864SOL     OW98427   4.374  10.375   5.616 -0.0714  0.3292 -0.2039
30864SOL    HW198428   4.338  10.289   5.638 -2.5522  1.0265 -1.2228
30864SOL    HW298429   4.462  10.374   5.655 -0.6533 -1.9991  1.2995
30865SOL     OW98430  10.668   3.955   5.172  0.6648 -0.1119  0.2410
30865SOL    HW198431  10.615   4.014   5.226  1.5451 -0.5384  1.6228
30865SOL    HW298432  10.701   4.011   5.102  0.0548  0.6280  0.5285
30866SOL     OW98433   0.054   8.952   5.881  0.2326 -0.0231 -0.3518
30866SOL    HW198434   0.045   8.862   5.912 -0.3802  0.6941  1.7091
30866SOL    HW298435   0.145   8.960   5.855  1.4158 -0.1691  3.2771
30867SOL     OW98436   7.811   3.005   6.401  0.3655 -0.5632 -0.1239
30867SOL    HW198437   7.843   3.004   6.491 -0.5259  1.1617  0.2590
30867SOL    HW298438   7.864   3.071   6.357 -0.0944 -0.4340 -0.4928
30868SOL     OW98439   4.609   2.826   6.355 -0.0765  0.2597 -0.1759
30868SOL    HW198440   4.557   2.780   6.289 -0.1719  0.2957 -0.1241
30868SOL    HW298441   4.683   2.767   6.371  0.5020  0.7073 -1.0843
30869SOL     OW98442   1.777   4.457   1.587 -0.2294 -0.0994  0.1180
30869SOL    HW198443   1.745   4.522   1.525 -0.2225 -0.1932  0.0145
30869SOL    HW298444   1.831   4.398   1.534 -0.4785 -0.3621  0.1560
30870SOL     OW98445   3.498   0.846  10.911  0.4809  0.5439  0.0384
30870SOL    HW198446   3.579   0.832  10.862  0.4482  2.5952 -0.6863
30870SOL    HW298447   3.523   0.905  10.983 -0.0954  0.0232  0.6847
30871SOL     OW98448   0.363   0.089   7.052  0.2045  0.4773  0.4089
30871SOL    HW198449   0.345   0.050   6.967  0.6658  0.0635  0.4900
30871SOL    HW298450   0.351   0.183   7.040  2.2432  0.6524 -0.6539
30872SOL     OW98451   5.683   4.515   0.602 -0.0927 -0.4132 -0.4620
30872SOL    HW198452   5.631   4.452   0.552 -1.0395 -0.0559  0.0659
30872SOL    HW298453   5.629   4.538   0.677  0.4990  0.5768 -0.3215
30873SOL     OW98454   8.749  10.721   0.322  0.0824 -0.2520  0.1139
30873SOL    HW198455   8.664  10.741   0.284 -0.0375 -0.9097  0.0233
30873SOL    HW298456   8.803  10.797   0.302 -0.3248 -0.0729 -0.3093
30874SOL     OW98457  10.463   8.647   2.007 -0.6738 -0.0650 -0.0853
30874SOL    HW198458  10.377   8.670   1.973 -0.8284  1.1007  1.0238
30874SOL    HW298459  10.479   8.710   2.077 -0.0878 -1.9076  1.5318
30875SOL     OW98460  10.597   7.258  10.431  0.1692  0.3531 -0.1578
30875SOL    HW198461  10.512   7.254  10.475 -0.0009 -1.7273 -0.5757
30875SOL    HW298462  10.652   7.309  10.491 -0.5856 -0.7320  1.5466
30876SOL     OW98463   1.524   4.527   0.042 -0.5005 -0.3375 -0.2099
30876SOL    HW198464   1.558   4.527   0.132  0.3889 -0.7507 -0.5299
30876SOL    HW298465   1.597   4.495  -0.011 -0.6085  1.0507 -1.2514
30877SOL     OW98466   0.583   3.162   7.864  0.4195  0.2972  0.3038
30877SOL    HW198467   0.533   3.244   7.859  1.6664  1.1066  0.8104
30877SOL    HW298468   0.589   3.143   7.958  0.2386 -0.3195  0.1937
30878SOL     OW98469   3.785   3.553   6.811 -0.2038  0.0400 -0.3403
30878SOL    HW198470   3.802   3.641   6.845 -1.1284  0.8136 -1.8133
30878SOL    HW298471   3.715   3.564   6.747  0.8533 -1.5008 -1.8590
30879SOL     OW98472   9.602   6.609   1.045  0.8310  0.3122 -0.0182
30879SOL    HW198473   9.661   6.535   1.056  1.7211  0.7752 -1.4528
30879SOL    HW298474   9.651   6.672   0.992 -0.1436  1.6663  0.6100
30880SOL     OW98475   2.772  10.194   1.723  0.2817  0.9232 -0.0343
30880SOL    HW198476   2.700  10.172   1.783  0.0204 -1.7217 -1.1831
30880SOL    HW298477   2.831  10.248   1.775  1.0487 -2.7125  3.3730
30881SOL     OW98478   7.827   4.341   3.527 -0.3700 -0.2713  1.0214
30881SOL    HW198479   7.744   4.360   3.483  0.3284  1.9482  0.5531
30881SOL    HW298480   7.869   4.276   3.471 -1.0901 -0.2004  0.3801
30882SOL     OW98481   9.219   8.952   8.918  0.5485  0.3907  0.4309
30882SOL    HW198482   9.175   8.982   8.997 -0.5701  1.9455 -0.7307
30882SOL    HW298483   9.277   9.024   8.894  0.1111  0.3806 -0.7176
30883SOL     OW98484   6.003   2.083  10.375 -0.2829  0.6246  0.1127
30883SOL    HW198485   5.987   2.129  10.457 -1.3402  1.1567 -0.3731
30883SOL    HW298486   6.093   2.106  10.352 -0.0009  0.5213  1.0826
30884SOL     OW98487   5.371   7.668   4.816  0.0434  1.1363 -0.4905
30884SOL    HW198488   5.282   7.647   4.789  0.3527 -3.6820  1.3584
30884SOL    HW298489   5.365   7.686   4.910  1.1144 -1.8315  0.2700
30885SOL     OW98490   7.940   1.861   8.623 -0.2399 -0.3895 -0.4136
30885SOL    HW198491   7.944   1.769   8.648 -0.6550 -0.6910 -1.4267
30885SOL    HW298492   7.973   1.864   8.534 -1.3632  0.2531 -0.8328
30886SOL     OW98493   1.218   3.437   1.869  0.3241 -0.4091  0.6934
30886SOL    HW198494   1.125   3.460   1.874  0.2712  0.0219 -1.4108
30886SOL    HW298495   1.263   3.515   1.901 -0.0249 -0.2063  0.6978
30887SOL     OW98496   7.115   2.229   5.793  0.3329 -0.2298  0.6131
30887SOL    HW198497   7.172   2.204   5.866  0.2087  0.8400  1.0873
30887SOL    HW298498   7.139   2.168   5.723  1.1167 -0.6612  1.2360
30888SOL     OW98499   3.620   8.544   9.748 -1.1801 -0.3750  0.4611
30888SOL    HW198500   3.631   8.458   9.707 -2.7789  0.4768 -1.9735
30888SOL    HW298501   3.696   8.594   9.720 -1.4491 -0.2935 -0.1384
30889SOL     OW98502   4.569   7.295   6.374  0.1193  0.3808  0.8397
30889SOL    HW198503   4.623   7.248   6.438  1.5654  0.7684 -0.0533
30889SOL    HW298504   4.589   7.254   6.290 -0.5617  0.9121  0.4054
30890SOL     OW98505   0.038   3.221  10.454  0.0050  0.2831  0.3626
30890SOL    HW198506   0.015   3.237  10.545 -2.2167 -0.4320 -0.0053
30890SOL    HW298507  -0.029   3.268  10.404  2.2054  2.1970 -1.0184
30891SOL     OW98508   4.197   3.264   6.995  0.2433  0.5526  0.4382
30891SOL    HW198509   4.107   3.281   6.968  0.3685 -0.0688 -0.3962
30891SOL    HW298510   4.203   3.169   7.001  0.6863  0.6095  1.0655
30892SOL     OW98511   3.638   0.481   7.959  0.6191 -0.0478 -0.1521
30892SOL    HW198512   3.721   0.439   7.984  0.3272  0.0108  0.9593
30892SOL    HW298513   3.571   0.431   8.005  0.2913  1.9327  1.6630
30893SOL     OW98514   8.067   7.910   4.661  0.0757 -0.1000 -0.4920
30893SOL    HW198515   8.071   7.944   4.750  0.6706  0.3561 -0.6805
30893SOL    HW298516   8.072   7.815   4.671 -2.7885 -0.2506  0.1139
30894SOL     OW98517   6.641   5.289   8.546  0.3447 -0.9695  0.0804
30894SOL    HW198518   6.586   5.226   8.499 -1.0646 -1.3088  2.0962
30894SOL    HW298519   6.726   5.283   8.502 -1.2400 -0.0769 -3.4772
30895SOL     OW98520   5.255   6.429  10.061  0.2625  0.5312  0.0350
30895SOL    HW198521   5.279   6.377  10.138 -1.4128 -1.1013 -0.4543
30895SOL    HW298522   5.171   6.393  10.034 -0.1700  2.4285 -1.3809
30896SOL     OW98523   6.309   6.284   0.140  0.1816  0.2573 -0.0864
30896SOL    HW198524   6.360   6.292   0.221  0.4575  1.6152 -0.3632
30896SOL    HW298525   6.359   6.333   0.075 -0.9332  0.7112 -0.6342
30897SOL     OW98526   2.395   2.882   5.567  0.2235 -0.8633 -0.5197
30897SOL    HW198527   2.451   2.893   5.644 -0.5166 -1.2438  0.0813
30897SOL    HW298528   2.446   2.920   5.495 -0.0009  1.5863  0.5126
30898SOL     OW98529  10.702   9.027   0.822 -0.1850 -0.3276  0.0830
30898SOL    HW198530  10.649   8.950   0.843 -1.3943  0.6944  0.8594
30898SOL    HW298531  10.785   9.012   0.868 -0.3467 -1.2317  0.0956
30899SOL     OW98532  10.573   5.568   1.950  0.1409  0.4891  0.3163
30899SOL    HW198533  10.598   5.650   1.992  1.9383  0.9916 -1.5682
30899SOL    HW298534  10.630   5.502   1.990  0.9828  0.7546 -0.4118
30900SOL     OW98535  10.672   9.622  10.357 -0.2150  0.2875  0.4784
30900SOL    HW198536  10.612   9.562  10.315 -0.1809  1.4116 -1.2509
30900SOL    HW298537  10.638   9.709  10.337  1.6092  0.9329 -0.0073
30901SOL     OW98538   6.928   3.423  10.736  0.2416 -0.5449  0.2280
30901SOL    HW198539   6.978   3.503  10.747 -0.2547 -0.2062  0.0695
30901SOL    HW298540   6.917   3.413  10.642 -0.6938 -0.1580  0.2842
30902SOL     OW98541   8.065   2.817   8.009  0.5052 -0.2040 -0.3837
30902SOL    HW198542   8.048   2.814   8.103  1.6779 -0.4101 -0.1549
30902SOL    HW298543   8.108   2.733   7.990  0.2195 -0.1941 -1.1212
30903SOL     OW98544   7.175   8.845   9.765 -0.1487 -0.3339  0.0639
30903SOL    HW198545   7.100   8.802   9.725 -1.0244 -0.6107  1.8655
30903SOL    HW298546   7.251   8.795   9.736 -0.3751  1.0352 -3.2673
30904SOL     OW98547   0.688   4.227  10.653 -0.4069  0.0756 -0.7092
30904SOL    HW198548   0.757   4.163  10.635 -0.0896  0.0698  0.4524
30904SOL    HW298549   0.616   4.175  10.690 -1.5320 -0.0943 -2.9606
30905SOL     OW98550   5.900   3.133   9.056  0.2620 -0.2732  0.0483
30905SOL    HW198551   5.975   3.074   9.056  1.2324  0.9164 -0.2538
30905SOL    HW298552   5.828   3.080   9.024  0.8637 -1.5651  0.7214
30906SOL     OW98553   6.759   7.877   4.954 -0.3970 -0.6425 -0.2362
30906SOL    HW198554   6.677   7.918   4.981 -0.3551 -1.7197  1.6699
30906SOL    HW298555   6.828   7.938   4.981 -0.4774 -0.5054 -0.3383
30907SOL     OW98556   2.734   7.973   1.736 -0.2927 -0.9015  0.4846
30907SOL    HW198557   2.761   7.883   1.717 -0.7384 -1.3212  1.7693
30907SOL    HW298558   2.654   7.964   1.787 -1.3469  0.2731 -0.8640
30908SOL     OW98559  10.709   6.473   4.758 -0.1356 -0.5999 -0.0657
30908SOL    HW198560  10.683   6.559   4.724  4.5545  0.7725 -0.7929
30908SOL    HW298561  10.762   6.434   4.688  0.9230 -2.4606  1.6578
30909SOL     OW98562   4.392   6.825   0.985  0.1777 -0.1635  0.5675
30909SOL    HW198563   4.393   6.857   1.075 -0.5201  1.2600  0.1101
30909SOL    HW298564   4.330   6.753   0.986 -0.4482  0.3684  1.0735
30910SOL     OW98565   1.331   1.502   8.286  0.2989  0.1834 -0.1184
30910SOL    HW198566   1.280   1.499   8.205 -0.2567  1.5834  0.1491
30910SOL    HW298567   1.375   1.587   8.283  1.6847 -0.5062  0.2218
30911SOL     OW98568   6.064   3.456   0.471  0.1617 -0.4518  0.0745
30911SOL    HW198569   5.974   3.426   0.484 -0.7965  1.9495 -0.4124
30911SOL    HW298570   6.103   3.452   0.558 -0.4791 -1.3319  0.3377
30912SOL     OW98571   8.035   5.138   5.211 -0.5295  0.5513 -0.4430
30912SOL    HW198572   7.979   5.145   5.134  0.5334  0.7829 -1.2105
30912SOL    HW298573   8.083   5.221   5.213  0.3948  0.0220 -0.2775
30913SOL     OW98574   9.262   2.511   4.908  0.3635 -0.5750 -0.4022
30913SOL    HW198575   9.232   2.427   4.941  1.0882 -0.6941 -0.0353
30913SOL    HW298576   9.195   2.537   4.845 -0.6066 -0.7328  0.5389
30914SOL     OW98577   3.769   7.268   8.122  0.4802  0.6325 -0.4901
30914SOL    HW198578   3.744   7.230   8.038  1.0935 -0.5717 -0.1651
30914SOL    HW298579   3.858   7.236   8.136 -0.9188 -2.6267  2.4530
30915SOL     OW98580   8.577   4.167   8.574 -0.7084 -0.1357 -0.3530
30915SOL    HW198581   8.591   4.095   8.512 -1.7272 -0.5706 -0.1078
30915SOL    HW298582   8.660   4.175   8.622 -0.8985 -1.8451  0.3225
30916SOL     OW98583   6.350   7.783   5.196 -0.8361  0.1488 -0.4067
30916SOL    HW198584   6.384   7.702   5.158  0.2090  0.8740 -1.0592
30916SOL    HW298585   6.428   7.836   5.215 -1.4799  0.8907  0.2994
30917SOL     OW98586  10.179  10.717   4.578  0.2328 -0.0412 -0.1349
30917SOL    HW198587  10.234  10.717   4.500  0.6393 -1.4835  0.1283
30917SOL    HW298588  10.152  10.809   4.588  0.5675  0.2549 -1.6714
30918SOL     OW98589   4.807  10.125   4.685  0.6565 -0.3272 -0.4431
30918SOL    HW198590   4.810  10.192   4.618  1.4706 -0.2226 -0.3029
30918SOL    HW298591   4.731  10.071   4.661  1.9964 -1.4060 -2.5184
30919SOL     OW98592   1.343   9.703   5.133 -0.4382  0.3283  0.3625
30919SOL    HW198593   1.371   9.643   5.063  0.9397  0.0039  1.1414
30919SOL    HW298594   1.273   9.656   5.178  0.1474 -0.4214  0.5228
30920SOL     OW98595   4.739   8.291   3.866  0.2295 -0.3089  0.1625
30920SOL    HW198596   4.671   8.285   3.933 -0.9607  1.4194 -0.8123
30920SOL    HW298597   4.723   8.216   3.809  1.1516 -1.7012  1.6516
30921SOL     OW98598   7.402   7.659   0.256 -0.1226  0.0514 -0.7432
30921SOL    HW198599   7.349   7.736   0.234 -1.1009 -0.4665 -0.2970
30921SOL    HW298600   7.467   7.692   0.318  0.1738  0.7302 -1.4022
30922SOL     OW98601   6.352   7.541   2.642 -0.5412  0.2439  0.1806
30922SOL    HW198602   6.445   7.559   2.633 -0.3497 -0.0653  1.3913
30922SOL    HW298603   6.310   7.596   2.576  0.3000  2.4031  1.3472
30923SOL     OW98604   3.277   1.429   7.252 -0.4287  0.1240 -0.0159
30923SOL    HW198605   3.249   1.520   7.262  0.6465  0.6357 -1.3519
30923SOL    HW298606   3.220   1.380   7.311 -0.9115  1.6761  0.8600
30924SOL     OW98607   9.551   4.807   0.989  0.1836  0.5506  0.0082
30924SOL    HW198608   9.632   4.831   0.943 -0.6927  1.6391 -1.0230
30924SOL    HW298609   9.546   4.712   0.979  1.4782  0.4215  0.3591
30925SOL     OW98610   1.010   7.574   7.252  0.0241 -0.2199  0.3129
30925SOL    HW198611   0.975   7.561   7.164  1.9124 -2.2200 -0.2483
30925SOL    HW298612   0.990   7.493   7.298 -0.9019  0.7826  1.7792
30926SOL     OW98613   5.875   3.140   0.428 -0.1422 -0.4630  0.0376
30926SOL    HW198614   5.847   3.228   0.454  0.2566 -0.0109 -1.0242
30926SOL    HW298615   5.854   3.134   0.335  3.2363 -0.0493 -0.8919
30927SOL     OW98616   9.029   5.583   9.819  0.5323 -1.1522  0.2919
30927SOL    HW198617   8.960   5.526   9.785 -0.5319 -0.5095  1.3209
30927SOL    HW298618   9.038   5.558   9.911 -0.2724  0.6187  0.8852
30928SOL     OW98619   2.531   4.245   6.315  0.1545  0.3045  0.3949
30928SOL    HW198620   2.563   4.295   6.390 -1.0624  0.1634  1.0366
30928SOL    HW298621   2.526   4.308   6.243  1.7125  0.3490  0.2992
30929SOL     OW98622   1.404   8.132   0.787 -0.3430  0.1491  0.0922
30929SOL    HW198623   1.368   8.159   0.872  0.4529  0.1417  0.4369
30929SOL    HW298624   1.438   8.213   0.749  0.0034  0.0234  0.1287
30930SOL     OW98625   0.291   4.248   4.948  0.3397  0.2570 -0.0464
30930SOL    HW198626   0.325   4.306   4.880  0.5806  0.1642 -0.0077
30930SOL    HW298627   0.214   4.293   4.982 -0.0779  0.0684 -0.7187
30931SOL     OW98628   8.534   9.278   5.412 -0.3524  0.0733  0.0834
30931SOL    HW198629   8.495   9.259   5.497 -0.8975 -0.1564 -0.2161
30931SOL    HW298630   8.463   9.269   5.350 -0.5811  2.6294 -0.1591
30932SOL     OW98631   3.332   4.715   6.477  0.5394 -0.4727  0.1691
30932SOL    HW198632   3.419   4.677   6.465  2.3624  2.7065  1.8649
30932SOL    HW298633   3.343   4.807   6.453 -2.2481  0.1753  0.9898
30933SOL     OW98634   8.934   2.852   1.585  0.0585 -1.1852 -0.1636
30933SOL    HW198635   8.982   2.860   1.503 -1.3091  1.7755 -0.8101
30933SOL    HW298636   8.988   2.900   1.648 -1.4892  1.4920 -0.7249
30934SOL     OW98637   4.436   2.980   7.930  0.3158  0.2204  0.1148
30934SOL    HW198638   4.355   3.010   7.888 -0.9657  0.2625  2.4480
30934SOL    HW298639   4.486   3.059   7.945 -0.5896  0.5937  1.3256
30935SOL     OW98640   1.511   3.399   2.514  0.2466  0.0571  0.0955
30935SOL    HW198641   1.595   3.393   2.559  1.0596 -3.0790 -1.5286
30935SOL    HW298642   1.522   3.470   2.451  1.5054  0.0032  0.2402
30936SOL     OW98643  10.431   3.391   1.219  0.3371  0.1196 -0.2040
30936SOL    HW198644  10.420   3.481   1.250  1.5989  0.2236  0.0217
30936SOL    HW298645  10.450   3.400   1.126  0.1153  0.0618 -0.2548
30937SOL     OW98646   9.463  10.500   0.310  0.3466  0.1029 -0.1961
30937SOL    HW198647   9.468  10.456   0.226  1.1092  1.2314 -0.7597
30937SOL    HW298648   9.395  10.566   0.299 -0.0671 -0.2227  0.3195
30938SOL     OW98649   0.723   1.695  10.426  0.1026  0.2518 -0.2668
30938SOL    HW198650   0.692   1.745  10.502 -2.1275  1.0275 -1.5925
30938SOL    HW298651   0.685   1.608  10.436  2.2642 -0.6088  0.9676
30939SOL     OW98652   1.647   3.372   9.789 -0.3892 -0.0953  0.0829
30939SOL    HW198653   1.673   3.444   9.846 -0.0787  0.6362 -0.9635
30939SOL    HW298654   1.582   3.410   9.731  0.1738 -0.5028 -0.8366
30940SOL     OW98655   4.432   6.684   7.348 -0.4154  0.2951  0.2700
30940SOL    HW198656   4.423   6.728   7.264  0.2649  1.6851  0.8905
30940SOL    HW298657   4.343   6.663   7.374 -0.7601  1.2763 -0.0796
30941SOL     OW98658   7.608   0.860   7.999  0.2717 -0.0752  0.2826
30941SOL    HW198659   7.670   0.917   7.953  0.4538 -0.1428  0.4421
30941SOL    HW298660   7.654   0.835   8.079  0.8317 -1.7088 -0.4952
30942SOL     OW98661   1.624   2.364   0.238 -0.4413 -0.3210  0.2047
30942SOL    HW198662   1.674   2.283   0.230 -2.9111 -1.7841 -1.8052
30942SOL    HW298663   1.580   2.357   0.323  2.1909  0.7754  1.7809
30943SOL     OW98664   2.590   5.028  10.613  0.1375 -0.4066  0.6702
30943SOL    HW198665   2.591   5.093  10.683 -0.0697 -0.2379  0.5168
30943SOL    HW298666   2.670   4.978  10.627  0.2032 -0.2422  0.9032
30944SOL     OW98667   8.114   2.968  10.736  0.2399  0.0478  0.2079
30944SOL    HW198668   8.144   3.058  10.744 -0.1291  0.1107  1.0619
30944SOL    HW298669   8.062   2.966  10.656  0.2892  0.5898  0.1599
30945SOL     OW98670   0.143   8.888   8.729  0.0243 -0.2049  0.2413
30945SOL    HW198671   0.126   8.949   8.801  0.6443 -0.9805  1.0686
30945SOL    HW298672   0.231   8.854   8.747 -0.1871 -1.1026 -0.3751
30946SOL     OW98673   2.579   6.412  10.058  0.6231  0.1411 -0.0390
30946SOL    HW198674   2.643   6.363  10.005 -0.1102 -1.9076  0.8531
30946SOL    HW298675   2.495   6.373  10.036 -0.3103  2.4154 -0.7513
30947SOL     OW98676   8.549  10.310   7.916  0.0644  0.3019 -0.0814
30947SOL    HW198677   8.483  10.305   7.846 -0.7470 -1.8647  0.7536
30947SOL    HW298678   8.508  10.265   7.990  1.5379  1.1292  1.2891
30948SOL     OW98679   5.851   0.730   8.826 -0.2553 -0.6812 -0.2313
30948SOL    HW198680   5.931   0.781   8.824 -0.8270  0.2216 -1.5636
30948SOL    HW298681   5.818   0.739   8.915 -0.4306  1.4542 -0.4751
30949SOL     OW98682   6.978   7.345   5.538 -0.1662  0.0771 -0.7316
30949SOL    HW198683   7.059   7.395   5.530 -0.1536  0.3172  0.5883
30949SOL    HW298684   7.006   7.254   5.537  0.3938  0.1533  1.5637
30950SOL     OW98685   9.848   7.829   9.595  0.2010 -0.3206  0.6872
30950SOL    HW198686   9.938   7.795   9.598  0.2211 -0.6190 -1.8418
30950SOL    HW298687   9.859   7.924   9.584  0.1597 -0.2273  1.3524
30951SOL     OW98688   2.716   1.004   9.010 -0.1476 -0.2593  0.6940
30951SOL    HW198689   2.627   1.028   9.032 -0.3020 -0.9087  0.8077
30951SOL    HW298690   2.722   0.911   9.031  0.4658 -0.2946  0.4077
30952SOL     OW98691   8.613   5.628  10.907 -0.0276  0.9166  0.7210
30952SOL    HW198692   8.635   5.535  10.908 -1.7894  0.4427 -0.1611
30952SOL    HW298693   8.549   5.639  10.978  0.0711  1.4216  0.7373
30953SOL     OW98694   1.545   2.140   2.364 -0.8199  0.4947  0.4316
30953SOL    HW198695   1.487   2.095   2.302 -0.7804 -0.9538  1.3781
30953SOL    HW298696   1.486   2.189   2.421 -0.9420  0.8189  0.0339
30954SOL     OW98697   8.027   9.389   6.432  0.5118 -0.3701 -0.8480
30954SOL    HW198698   8.090   9.414   6.364  0.5358 -0.6138 -0.9197
30954SOL    HW298699   7.944   9.381   6.385  0.7675 -1.7952 -1.1161
30955SOL     OW98700   7.507   7.493   8.525 -0.1920 -0.5038  0.6046
30955SOL    HW198701   7.553   7.410   8.510  1.3621  0.3805  0.2809
30955SOL    HW298702   7.449   7.501   8.449  1.8926  0.1297 -1.0453
30956SOL     OW98703   8.611   5.474   6.545 -0.6723  0.0482  0.9878
30956SOL    HW198704   8.569   5.448   6.627  2.1885 -3.7545  1.5457
30956SOL    HW298705   8.695   5.512   6.572 -0.8903  1.5041 -0.2128
30957SOL     OW98706   5.953   5.826   3.940 -0.4629  0.4741 -0.4313
30957SOL    HW198707   5.957   5.775   3.859 -1.2783  0.4613 -0.4771
30957SOL    HW298708   5.896   5.775   3.997  2.4549 -1.0699  1.3238
30958SOL     OW98709   8.697   0.222   9.835 -0.3868  0.4625  0.2590
30958SOL    HW198710   8.689   0.182   9.922 -2.1184  1.0132  0.3773
30958SOL    HW298711   8.612   0.209   9.794  0.3260  0.4181 -1.2991
30959SOL     OW98712   4.776   7.542   6.320 -0.4258  0.0456  0.4062
30959SOL    HW198713   4.712   7.602   6.357  0.3272  0.4602  1.0729
30959SOL    HW298714   4.747   7.455   6.347 -1.6487  0.0676 -0.7519
30960SOL     OW98715   4.440   4.910   9.103 -0.1146 -0.3012 -0.0742
30960SOL    HW198716   4.365   4.965   9.127 -2.0695 -2.2194 -1.4446
30960SOL    HW298717   4.510   4.938   9.161 -2.1355  1.0058  1.8622
30961SOL     OW98718  10.695   9.464   7.317  0.0536  0.0508 -0.2393
30961SOL    HW198719  10.690   9.533   7.251  1.0778  1.0303  0.6710
30961SOL    HW298720  10.754   9.399   7.280  0.5681  0.5606 -0.3330
30962SOL     OW98721   8.048   4.212   9.777  0.2160 -0.2100 -0.1060
30962SOL    HW198722   7.955   4.219   9.795  0.1703 -1.1588  0.0674
30962SOL    HW298723   8.059   4.126   9.737  1.0733 -0.2891  0.2687
30963SOL     OW98724   3.552   1.909   0.696 -0.2125  0.1774  0.6612
30963SOL    HW198725   3.626   1.849   0.708  0.7320  1.0216 -0.6731
30963SOL    HW298726   3.556   1.968   0.771  0.3045  0.0599  0.7278
30964SOL     OW98727   3.482   3.497   3.266  0.7729 -0.0944  0.0761
30964SOL    HW198728   3.565   3.453   3.284  1.5794  0.6712 -1.5286
30964SOL    HW298729   3.500   3.551   3.189 -1.3619 -0.3117 -0.6387
30965SOL     OW98730   2.374   4.762   1.041 -0.4632 -0.1012 -0.4630
30965SOL    HW198731   2.460   4.805   1.043 -1.8791  3.0497 -1.7922
30965SOL    HW298732   2.390   4.681   0.991  2.1399 -0.8961  1.4211
30966SOL     OW98733   8.477   2.297   7.276 -0.1039 -0.5219 -0.1522
30966SOL    HW198734   8.422   2.235   7.228  0.7487 -2.3734  1.1605
30966SOL    HW298735   8.423   2.376   7.282 -1.6499 -1.4522 -1.0106
30967SOL     OW98736   0.416   3.544   5.601  0.1652  0.3926 -0.3845
30967SOL    HW198737   0.457   3.558   5.516  0.3054 -0.5157 -0.4768
30967SOL    HW298738   0.472   3.592   5.663  1.2331 -0.6093 -0.5457
30968SOL     OW98739   0.563   8.100   7.261  0.0357  0.1788  0.2805
30968SOL    HW198740   0.617   8.178   7.248 -1.4760  1.2365  0.1118
30968SOL    HW298741   0.577   8.076   7.352  0.8524  0.3521  0.2152
30969SOL     OW98742   1.649   6.891   4.560 -0.4339  0.2216 -0.1544
30969SOL    HW198743   1.635   6.797   4.548 -0.2514  0.2020 -0.2203
30969SOL    HW298744   1.711   6.915   4.491 -0.5850  0.4165 -0.2206
30970SOL     OW98745   8.264   5.682   8.834 -0.1445 -0.9742  0.5928
30970SOL    HW198746   8.319   5.632   8.774  1.4377  0.9540  0.3137
30970SOL    HW298747   8.196   5.720   8.779  0.9831  0.3504  0.0665
30971SOL     OW98748   4.042   6.290   5.662  0.3117 -0.3316  0.1216
30971SOL    HW198749   4.079   6.242   5.587 -1.3388 -0.9444 -0.3333
30971SOL    HW298750   3.973   6.344   5.624 -0.3174 -0.3946  1.1694
30972SOL     OW98751   9.281  10.087  10.037 -0.3218 -0.6020 -0.7271
30972SOL    HW198752   9.269  10.162   9.979 -1.2570 -0.6801 -0.6513
30972SOL    HW298753   9.318  10.019   9.982 -0.1793 -0.3283 -0.9730
30973SOL     OW98754   1.566   2.534   1.055 -0.5464  0.4680  0.0568
30973SOL    HW198755   1.492   2.498   1.104 -0.1737 -1.0202 -0.4125
30973SOL    HW298756   1.537   2.532   0.964 -0.0739  0.2631 -0.0874
30974SOL     OW98757   9.609   0.806   7.667 -0.5255  0.5762  0.1272
30974SOL    HW198758   9.515   0.807   7.687 -0.5925  1.3826 -0.1873
30974SOL    HW298759   9.645   0.880   7.715 -0.1155  0.5099 -0.0688
30975SOL     OW98760   0.213   0.726  10.585  0.5272 -0.5148 -0.0141
30975SOL    HW198761   0.268   0.655  10.619 -1.0005 -1.6760  0.1037
30975SOL    HW298762   0.125   0.689  10.580 -0.4330  1.5308  0.5316
30976SOL     OW98763   6.291   5.031   2.447 -0.2582 -0.5502  0.1123
30976SOL    HW198764   6.291   5.108   2.391 -1.0922 -0.6059  0.0206
30976SOL    HW298765   6.246   4.964   2.396 -1.5542 -0.4383  1.0359
30977SOL     OW98766   2.831  10.653   5.280 -0.6270  0.1178 -0.0272
30977SOL    HW198767   2.767  10.724   5.268 -0.2763  0.4688  0.1393
30977SOL    HW298768   2.778  10.574   5.288 -1.0488  0.4339  0.3492
30978SOL     OW98769   4.991   6.199   8.780  0.4870  0.3091  0.3183
30978SOL    HW198770   4.934   6.256   8.728  0.5498 -0.6559 -0.8639
30978SOL    HW298771   5.080   6.227   8.757  0.5198  1.3086  1.5807
30979SOL     OW98772   7.956   8.130  10.901 -0.0320 -0.1944 -0.2007
30979SOL    HW198773   7.882   8.162  10.848  0.1460 -2.4913 -2.0077
30979SOL    HW298774   8.032   8.176  10.866 -0.2389  0.2150 -0.1312
30980SOL     OW98775   9.893   8.576   7.166  0.0433  0.0186  0.9665
30980SOL    HW198776   9.985   8.549   7.167  0.4385  1.2674  1.5792
30980SOL    HW298777   9.848   8.509   7.116  1.5578  0.1812 -0.7201
30981SOL     OW98778   8.478   4.955   9.705  0.1282  0.1885  0.0298
30981SOL    HW198779   8.472   4.926   9.614 -1.3011 -0.4936  0.3220
30981SOL    HW298780   8.403   4.916   9.748 -0.8160  2.7486  0.9116
30982SOL     OW98781   5.507   5.565   6.082 -0.0613 -0.0329  0.1083
30982SOL    HW198782   5.493   5.503   6.010  1.4363  0.8631 -1.0097
30982SOL    HW298783   5.425   5.562   6.132 -0.3972 -2.1594 -0.4585
30983SOL     OW98784   0.682   6.187   3.957  0.5183  0.1547  0.6750
30983SOL    HW198785   0.628   6.108   3.961  1.3458 -0.5761 -1.2958
30983SOL    HW298786   0.619   6.259   3.948 -0.1763 -0.5017  0.2009
30984SOL     OW98787   7.361   9.282   4.092  0.5402 -0.3714 -0.0983
30984SOL    HW198788   7.441   9.328   4.066  1.2869 -1.6311 -0.1401
30984SOL    HW298789   7.327   9.246   4.010 -0.1501  0.2588 -0.0981
30985SOL     OW98790   3.175   1.941   6.510  0.3074 -0.0641 -0.4151
30985SOL    HW198791   3.207   2.001   6.578 -1.4841 -0.1068  0.5263
30985SOL    HW298792   3.126   1.998   6.450  0.0437 -0.3470 -0.4687
30986SOL     OW98793   3.936   4.233   6.680  0.6962 -0.1112 -0.2072
30986SOL    HW198794   3.874   4.225   6.607  2.0338 -0.8246 -1.3119
30986SOL    HW298795   3.983   4.315   6.663  0.6088  0.0192  0.1802
30987SOL     OW98796   2.396  10.297   9.521  0.0548  0.1041 -0.0044
30987SOL    HW198797   2.424  10.220   9.471  0.0303 -0.1030  0.3004
30987SOL    HW298798   2.351  10.351   9.457 -1.3442 -0.8720  0.1006
30988SOL     OW98799   6.381   7.360   0.472  0.3930 -0.0412  0.0988
30988SOL    HW198800   6.425   7.276   0.478 -1.6970 -1.2634 -0.4985
30988SOL    HW298801   6.382   7.381   0.379  1.0658  0.7064  0.2664
30989SOL     OW98802   5.897   6.824   7.730 -0.0508 -0.6729  0.5435
30989SOL    HW198803   5.849   6.756   7.776 -0.8836 -0.2051  0.3860
30989SOL    HW298804   5.841   6.849   7.657 -0.7216  1.5585  1.7047
30990SOL     OW98805   0.451   1.712   7.175  0.5450 -0.0155 -0.3741
30990SOL    HW198806   0.373   1.716   7.231 -0.5796  0.2221 -1.9162
30990SOL    HW298807   0.501   1.790   7.198  0.0076  0.1764  0.1811
30991SOL     OW98808   7.465   5.778   2.981 -0.0636  0.0088 -0.1156
30991SOL    HW198809   7.422   5.706   2.934  0.7585  0.1228 -1.0796
30991SOL    HW298810   7.402   5.849   2.979 -0.0964 -0.0320 -0.9509
30992SOL     OW98811   2.659   3.428   5.271  0.4739  0.0273  0.0099
30992SOL    HW198812   2.748   3.452   5.296 -0.0921  0.9203  1.2878
30992SOL    HW298813   2.608   3.437   5.352 -1.0566  0.9630 -1.0034
30993SOL     OW98814   1.401   2.979   2.288 -0.5343 -0.4123 -0.0618
30993SOL    HW198815   1.323   2.959   2.341 -1.5249 -0.6015 -1.5202
30993SOL    HW298816   1.384   3.067   2.253  0.6539  0.2006  0.8532
30994SOL     OW98817  10.344   6.906  10.234 -0.2477 -0.0268  0.1678
30994SOL    HW198818  10.344   6.978  10.171 -1.0218 -1.2890 -1.3396
30994SOL    HW298819  10.431   6.866  10.224 -0.3470 -0.1875 -0.0739
30995SOL     OW98820  10.812   3.030   0.246  0.5597  0.2291 -0.1917
30995SOL    HW198821  10.785   2.938   0.256  0.5440  0.2979  0.4703
30995SOL    HW298822  10.808   3.065   0.335 -2.9672  1.8502 -0.8055
30996SOL     OW98823   2.835   8.965  10.316 -0.6079  0.3196 -0.2597
30996SOL    HW198824   2.779   8.948  10.392 -0.3114 -0.1714 -0.1494
30996SOL    HW298825   2.923   8.976  10.353 -0.5000  0.3010 -0.5115
30997SOL     OW98826   0.488   3.012   5.612 -0.1209  0.1401  0.1270
30997SOL    HW198827   0.514   3.080   5.675  0.2213 -2.0042  2.5067
30997SOL    HW298828   0.401   2.985   5.641  0.0726 -0.9411 -0.2565
30998SOL     OW98829   1.235   6.298   8.734 -0.4697  0.6469 -0.1293
30998SOL    HW198830   1.196   6.290   8.647  0.9762  1.0086 -0.8334
30998SOL    HW298831   1.201   6.381   8.767 -0.6897  0.7178 -0.5215
30999SOL     OW98832   5.549   7.333   3.078 -0.0764 -0.1377 -0.3019
30999SOL    HW198833   5.593   7.279   3.145  1.6169  0.8256 -0.5874
30999SOL    HW298834   5.479   7.277   3.045  1.5285 -2.1374 -0.5004
31000SOL     OW98835   4.165   8.463   0.391  0.2867 -0.3866  0.2818
31000SOL    HW198836   4.205   8.514   0.461  1.0806 -0.6310  0.0176
31000SOL    HW298837   4.237   8.414   0.353 -0.5924 -2.4258  1.1102
31001SOL     OW98838   7.575   6.722   6.748  0.2405 -0.5622 -1.1432
31001SOL    HW198839   7.558   6.629   6.764 -0.8349 -0.4440 -1.5171
31001SOL    HW298840   7.601   6.757   6.833  2.8091 -1.6284 -1.4287
31002SOL     OW98841  10.828   4.336   5.434 -0.6167  0.3298 -0.3009
31002SOL    HW198842  10.887   4.294   5.372  0.6545  0.0657  1.0285
31002SOL    HW298843  10.824   4.427   5.406  1.2084  0.5777  0.1066
31003SOL     OW98844   9.781   4.482   5.108 -0.2352  0.1442 -0.4017
31003SOL    HW198845   9.729   4.549   5.152  1.0699  0.2522  1.0779
31003SOL    HW298846   9.752   4.485   5.017 -0.1140  2.8677 -0.4585
31004SOL     OW98847   3.318   3.296   4.358  0.0276 -0.1117 -0.6630
31004SOL    HW198848   3.308   3.280   4.264  4.9290  0.7138 -1.5546
31004SOL    HW298849   3.293   3.388   4.370 -3.1503 -0.8753 -0.4650
31005SOL     OW98850   3.283   9.515   5.479  0.1414 -0.0531 -0.0264
31005SOL    HW198851   3.279   9.592   5.422 -0.4974  1.0399  1.4408
31005SOL    HW298852   3.283   9.551   5.567 -0.6815 -1.7695  0.7073
31006SOL     OW98853   5.587   2.272   0.456  0.3173 -0.1915  0.6408
31006SOL    HW198854   5.655   2.215   0.422 -0.3892  0.4805 -2.1415
31006SOL    HW298855   5.617   2.361   0.438 -0.9028  0.1401  0.1039
31007SOL     OW98856   0.828   7.724   5.218 -0.0471  0.4473  0.1466
31007SOL    HW198857   0.822   7.650   5.277  0.0477  0.9139  0.7533
31007SOL    HW298858   0.823   7.801   5.275  0.5386  0.9038 -0.4004
31008SOL     OW98859   5.516   9.899   5.973  0.0609  0.0798 -0.1787
31008SOL    HW198860   5.570   9.837   5.925  0.9137  0.0837  0.7508
31008SOL    HW298861   5.538   9.885   6.065 -2.0824 -0.4614  0.3182
31009SOL     OW98862   5.033   8.340   0.240  0.7030 -0.4619  0.2149
31009SOL    HW198863   4.983   8.262   0.264 -1.3223  0.8662  0.5637
31009SOL    HW298864   5.005   8.406   0.304  0.7608  1.1194 -1.3328
31010SOL     OW98865   7.858   4.537   6.365  0.2656 -0.1688 -0.3488
31010SOL    HW198866   7.764   4.554   6.369  0.2770 -0.3056  0.6806
31010SOL    HW298867   7.893   4.610   6.313  0.1197  2.2342  2.6863
31011SOL     OW98868   4.740   1.939   7.640  0.5025  0.8750 -0.0252
31011SOL    HW198869   4.744   1.846   7.666 -1.3329  1.0755  1.2022
31011SOL    HW298870   4.783   1.942   7.555  0.3731 -1.1608 -0.2193
31012SOL     OW98871   0.239   3.219   2.408  0.2806  0.2548  0.3764
31012SOL    HW198872   0.306   3.184   2.466  0.6900 -0.0170 -0.2471
31012SOL    HW298873   0.189   3.279   2.462  1.8126  1.4386  0.5409
31013SOL     OW98874   8.331   5.137  10.313  0.3389  0.4410  0.2962
31013SOL    HW198875   8.400   5.186  10.268  1.8400 -0.1692  1.8261
31013SOL    HW298876   8.363   5.047  10.314 -1.2220 -0.1685 -0.2723
31014SOL     OW98877   2.371   6.795   9.088 -0.1747 -0.2569 -0.1779
31014SOL    HW198878   2.457   6.767   9.058  0.0470  1.1251 -0.9088
31014SOL    HW298879   2.355   6.878   9.042 -1.8446 -0.4297  0.0156
31015SOL     OW98880   6.885   3.195   1.801 -0.4898  0.2662 -0.4156
31015SOL    HW198881   6.826   3.122   1.787 -1.6435  1.2225 -0.7252
31015SOL    HW298882   6.973   3.157   1.796 -1.0642 -1.2457  0.3649
31016SOL     OW98883   8.275   5.588   5.346  0.1678 -0.1943 -0.1481
31016SOL    HW198884   8.188   5.554   5.367  0.8859 -0.2804  3.2164
31016SOL    HW298885   8.303   5.537   5.270 -2.8750  0.2282 -1.6963
31017SOL     OW98886   4.404   8.497   3.828 -0.3502  0.3307  0.1462
31017SOL    HW198887   4.385   8.580   3.785 -1.0308 -0.2017 -0.6219
31017SOL    HW298888   4.405   8.433   3.757 -1.6430 -0.6032  0.9175
31018SOL     OW98889   3.618   3.907  10.464 -0.2265  0.2145 -0.0432
31018SOL    HW198890   3.622   4.002  10.457 -1.5845  0.5055  2.1814
31018SOL    HW298891   3.564   3.880  10.390 -0.1275  1.2066 -0.4931
31019SOL     OW98892   8.513   4.137   4.528 -0.6712 -0.3056 -0.0422
31019SOL    HW198893   8.482   4.178   4.447  1.1071 -0.7388 -0.9991
31019SOL    HW298894   8.601   4.105   4.506  0.3629  0.6416  2.4321
31020SOL     OW98895   7.041   4.634   3.163  0.1175 -0.3744  0.0859
31020SOL    HW198896   7.114   4.580   3.193 -0.3948 -0.5076  1.1513
31020SOL    HW298897   6.968   4.609   3.220 -0.7553 -0.2219 -0.9319
31021SOL     OW98898   3.262   8.080   5.836 -0.6684  0.3117  0.1770
31021SOL    HW198899   3.313   8.016   5.786 -1.8208 -0.4997  0.0104
31021SOL    HW298900   3.291   8.068   5.926 -0.0046  0.4078 -0.0148
31022SOL     OW98901   8.337   8.147   3.386 -0.6353 -0.3088  0.1240
31022SOL    HW198902   8.323   8.095   3.465  1.3405  0.9233  1.3808
31022SOL    HW298903   8.275   8.220   3.394 -1.8163 -1.2149 -0.4990
31023SOL     OW98904   2.047   0.677  10.749 -0.0689  0.5444 -0.2740
31023SOL    HW198905   2.102   0.754  10.737  1.6878 -0.6209 -0.1196
31023SOL    HW298906   2.058   0.652  10.840  0.6906 -0.7816 -0.6879
31024SOL     OW98907   2.549   7.330   9.382  0.1150  0.6423  0.4480
31024SOL    HW198908   2.470   7.369   9.346 -0.2781  0.0176  0.6193
31024SOL    HW298909   2.534   7.328   9.477  0.5199  0.9065  0.5243
31025SOL     OW98910   4.396   6.756   7.091 -0.0378  0.1737 -0.2043
31025SOL    HW198911   4.426   6.832   7.042  0.7955  0.1544  0.2443
31025SOL    HW298912   4.340   6.708   7.030  1.4929 -0.2002 -1.3823
31026SOL     OW98913   8.277   5.487   7.062  0.0346  0.0569 -0.1132
31026SOL    HW198914   8.257   5.429   6.989  0.1179 -0.1208  0.0064
31026SOL    HW298915   8.370   5.474   7.079  0.1773  0.6278 -0.4427
31027SOL     OW98916   0.079   1.558   2.635 -0.2634  0.1656 -0.0929
31027SOL    HW198917   0.122   1.483   2.594 -1.6975 -0.4318 -0.5703
31027SOL    HW298918  -0.014   1.534   2.639 -0.9313  2.3001 -1.1322
31028SOL     OW98919   0.806   6.241   4.206  0.1313  0.0305  0.2745
31028SOL    HW198920   0.776   6.212   4.119  1.6887  2.4901 -1.2041
31028SOL    HW298921   0.732   6.289   4.242 -0.6533 -1.3012  0.5000
31029SOL     OW98922  10.356   8.791   3.959 -0.7321  0.0950 -0.1735
31029SOL    HW198923  10.317   8.837   4.033 -1.5037 -0.6191 -0.1256
31029SOL    HW298924  10.444   8.768   3.990 -0.7293  0.5691  0.1922
31030SOL     OW98925   1.973   4.659   1.148  0.0750  0.0508  0.3197
31030SOL    HW198926   2.001   4.578   1.106 -0.0500  0.4047 -0.4748
31030SOL    HW298927   1.963   4.637   1.241 -0.4189 -0.9587  0.0412
31031SOL     OW98928   7.771   5.276   7.450 -0.4085 -0.0743  0.1800
31031SOL    HW198929   7.865   5.265   7.435 -0.4924 -2.6171  0.9489
31031SOL    HW298930   7.766   5.336   7.524  0.5701  0.6408 -0.3055
31032SOL     OW98931   7.665   2.547   4.834 -0.3536 -0.0117 -0.4216
31032SOL    HW198932   7.669   2.532   4.739 -0.6298 -1.5399 -0.2151
31032SOL    HW298933   7.667   2.642   4.843 -0.1994  0.1582 -1.9551
31033SOL     OW98934   5.506   0.788   4.445 -0.0160  0.0697  0.1264
31033SOL    HW198935   5.563   0.711   4.440  0.5243  0.4961 -0.7267
31033SOL    HW298936   5.473   0.799   4.355  0.8429  1.4909 -0.0506
31034SOL     OW98937   8.419  10.906   4.455 -0.0209  0.3263  0.4339
31034SOL    HW198938   8.462  10.887   4.539 -0.5827  1.0467  0.9064
31034SOL    HW298939   8.327  10.887   4.471  0.1910 -2.2597 -0.8999
31035SOL     OW98940   9.227   8.391  10.170 -0.1208  0.1358  0.0878
31035SOL    HW198941   9.238   8.368  10.262  3.0123  0.1634 -0.1567
31035SOL    HW298942   9.217   8.306  10.125 -1.4935  0.1143  0.4055
31036SOL     OW98943   9.580   4.482   9.431  0.5350 -0.5092 -0.0967
31036SOL    HW198944   9.609   4.497   9.521 -1.9703 -2.2275  1.0791
31036SOL    HW298945   9.662   4.468   9.382  1.9863  1.0103  1.7413
31037SOL     OW98946   7.326   1.244   3.036  0.7568 -0.4883  0.3514
31037SOL    HW198947   7.291   1.170   3.086  1.7383 -1.0821  0.1749
31037SOL    HW298948   7.360   1.206   2.955 -3.9591  0.7692 -2.6711
31038SOL     OW98949  10.584   8.810   6.145 -0.4080 -0.3199 -0.4194
31038SOL    HW198950  10.674   8.840   6.154 -0.6960  0.2955  0.6522
31038SOL    HW298951  10.537   8.884   6.106 -0.8136  0.0996  0.8091
31039SOL     OW98952   7.678   3.732   9.480  0.0616  0.6304  0.2921
31039SOL    HW198953   7.703   3.745   9.388  0.7284  2.0739  0.6570
31039SOL    HW298954   7.689   3.638   9.495 -1.5923  0.0682 -1.5350
31040SOL     OW98955  10.768  10.281   3.570 -0.1037 -0.5748 -0.1500
31040SOL    HW198956  10.806  10.194   3.554  2.5120  0.4652 -0.1092
31040SOL    HW298957  10.704  10.267   3.640  1.0359 -2.3229  0.6107
31041SOL     OW98958   6.285   9.768   2.081  0.0513 -0.1522 -0.4271
31041SOL    HW198959   6.249   9.814   2.156  0.2376 -0.7865  0.0576
31041SOL    HW298960   6.319   9.837   2.024 -1.5833  0.4486 -0.7305
31042SOL     OW98961   7.926  10.691   2.586 -1.0347  0.0796  0.0111
31042SOL    HW198962   7.906  10.692   2.679 -0.0305 -0.5918  0.2514
31042SOL    HW298963   7.969  10.607   2.571 -0.5112  0.4896 -0.9056
31043SOL     OW98964   3.525  10.405   0.164  0.6268 -0.3325  0.3657
31043SOL    HW198965   3.567  10.364   0.239 -0.5731 -0.8716  0.7697
31043SOL    HW298966   3.493  10.489   0.196  3.0200  0.9651 -0.4439
31044SOL     OW98967   1.372   0.902   8.863 -0.2706  0.8144  0.2775
31044SOL    HW198968   1.377   0.911   8.958 -1.0941  0.2280  0.3864
31044SOL    HW298969   1.344   0.812   8.848 -0.9774  1.1382 -0.4900
31045SOL     OW98970   0.555   6.986   6.519  0.1838 -0.5428  0.0852
31045SOL    HW198971   0.532   7.045   6.448  0.4460 -0.3968  0.1205
31045SOL    HW298972   0.626   7.030   6.565 -2.2379  1.1164  2.5968
31046SOL     OW98973   0.213   0.327  10.214  0.2527 -0.1405 -0.0226
31046SOL    HW198974   0.302   0.343  10.183  0.2089  1.5101  0.6360
31046SOL    HW298975   0.183   0.412  10.246 -1.3569 -0.8022  0.2964
31047SOL     OW98976   6.897   1.728   6.749 -0.3509  0.2796  0.0353
31047SOL    HW198977   6.974   1.772   6.787  1.4816 -1.8363 -0.9818
31047SOL    HW298978   6.823   1.763   6.798  1.3797  1.5360  1.9284
31048SOL     OW98979   1.083   5.938  10.364 -0.1988 -0.4985 -0.0385
31048SOL    HW198980   1.129   6.021  10.380 -2.3093  0.5151  1.3163
31048SOL    HW298981   1.101   5.885  10.442 -1.5726  0.0870  0.7262
31049SOL     OW98982   8.005   7.847   6.882 -0.2935  0.0425 -0.3724
31049SOL    HW198983   7.969   7.778   6.936 -0.3502 -0.7156 -1.3476
31049SOL    HW298984   8.100   7.837   6.889 -0.2579  1.1283  1.0471
31050SOL     OW98985   3.315   9.030   8.576  0.2768 -0.2744 -0.0474
31050SOL    HW198986   3.341   9.109   8.528 -0.6635 -0.8128 -1.4857
31050SOL    HW298987   3.388   8.969   8.564  0.2080 -0.2721 -0.4886
31051SOL     OW98988   9.500   1.529   8.002 -0.1323  0.3657  0.2321
31051SOL    HW198989   9.441   1.598   8.032 -0.3927  0.6555 -0.9040
31051SOL    HW298990   9.443   1.463   7.962 -0.0757 -1.4303  2.8688
31052SOL     OW98991   4.865   1.248   2.184 -0.0971  0.2103 -0.3662
31052SOL    HW198992   4.828   1.173   2.230  2.0272  0.2989  1.5980
31052SOL    HW298993   4.902   1.303   2.252  0.7121  1.7560 -1.9690
31053SOL     OW98994   6.267   0.172   3.542 -0.5212 -0.2276  0.0937
31053SOL    HW198995   6.345   0.136   3.584 -0.4793 -1.4142 -0.9464
31053SOL    HW298996   6.252   0.255   3.586  0.5255 -0.6267  1.2457
31054SOL     OW98997   1.816   0.973   4.276  0.0057  0.0540 -0.8347
31054SOL    HW198998   1.848   0.948   4.190 -0.0129 -0.2455 -0.7575
31054SOL    HW298999   1.735   1.020   4.259  0.2274  0.3741 -1.0033
31055SOL     OW99000   2.244   7.948   8.912 -0.0470 -0.5803  0.3613
31055SOL    HW199001   2.187   7.878   8.942  0.2300 -1.2658 -0.6768
31055SOL    HW299002   2.213   7.969   8.824  0.0228  0.4474  0.5649
31056SOL     OW99003   9.232  10.692   0.592  0.4368  0.4850 -0.3198
31056SOL    HW199004   9.197  10.660   0.675  0.3517 -0.4379 -0.7020
31056SOL    HW299005   9.315  10.733   0.615  0.5993 -0.1079  0.1769
31057SOL     OW99006   9.033   8.867   6.386 -0.0323  0.7563 -0.5110
31057SOL    HW199007   8.938   8.860   6.375  0.0906 -0.0336 -1.2071
31057SOL    HW299008   9.068   8.800   6.327  0.9703  1.3639 -0.6155
31058SOL     OW99009   3.723  10.925   1.881 -0.4657  0.4239  0.2884
31058SOL    HW199010   3.727  10.981   1.959 -2.0112  0.0280  0.6877
31058SOL    HW299011   3.679  10.845   1.911 -2.1950  0.7411 -1.2416
31059SOL     OW99012   5.199   0.107  10.838  0.2573  0.3605  0.7219
31059SOL    HW199013   5.217   0.061  10.756  0.8285  0.8487  0.5651
31059SOL    HW299014   5.274   0.165  10.850 -0.1244  0.7560  1.2659
31060SOL     OW99015   2.955   4.186   9.194 -0.3961 -0.2351  0.1198
31060SOL    HW199016   2.904   4.139   9.128  1.2522  1.0535 -2.2085
31060SOL    HW299017   2.990   4.117   9.251 -1.1345 -1.4798 -0.8724
31061SOL     OW99018   2.012   8.467   9.802 -0.6144 -0.3287  0.2385
31061SOL    HW199019   1.923   8.487   9.771 -0.4790  0.3819  0.2803
31061SOL    HW299020   2.028   8.378   9.772  0.0216  0.7460 -3.0154
31062SOL     OW99021   7.588   7.629   0.946 -0.4429 -0.4009  0.0595
31062SOL    HW199022   7.666   7.617   1.001 -0.6060  0.0843  0.4064
31062SOL    HW299023   7.624   7.654   0.861 -0.2129 -0.2352  0.2014
31063SOL     OW99024   9.462   1.550   0.487 -0.4118 -0.3777 -0.7036
31063SOL    HW199025   9.530   1.491   0.456 -1.4399 -1.8657 -0.2600
31063SOL    HW299026   9.412   1.572   0.409  0.9352  1.2884 -1.1545
31064SOL     OW99027   3.207   6.178   7.677 -0.4405 -0.0997  0.4236
31064SOL    HW199028   3.197   6.208   7.768  1.4310  0.6322  0.4364
31064SOL    HW299029   3.204   6.083   7.683 -0.9264 -0.0449  1.1793
31065SOL     OW99030   7.878   0.338   1.503 -0.0054 -0.0938 -0.3157
31065SOL    HW199031   7.911   0.262   1.455  1.4909  0.7113 -0.6259
31065SOL    HW299032   7.786   0.344   1.477 -0.4161 -2.3042  0.4285
31066SOL     OW99033   5.418   2.306   2.200  0.6365  0.0641 -0.1930
31066SOL    HW199034   5.456   2.328   2.285 -1.0613  0.6648  0.4520
31066SOL    HW299035   5.434   2.212   2.190 -0.8839 -0.4651  1.7555
31067SOL     OW99036   0.859   4.726   4.019  0.3965 -0.1570 -0.0859
31067SOL    HW199037   0.768   4.702   4.038  0.6288 -3.0644 -1.9864
31067SOL    HW299038   0.908   4.688   4.092  0.2067  0.3518  0.3135
31068SOL     OW99039   9.471   0.776  10.731  0.3882 -0.6508  0.1583
31068SOL    HW199040   9.398   0.714  10.735  0.8938 -1.1833  1.8534
31068SOL    HW299041   9.538   0.738  10.787  1.5816  0.3483 -0.5528
31069SOL     OW99042   1.187   1.842   3.516  0.4238  0.4788  0.1046
31069SOL    HW199043   1.184   1.920   3.572  0.2708  1.6130 -1.4156
31069SOL    HW299044   1.098   1.807   3.520  0.7311 -0.2321  1.5626
31070SOL     OW99045   9.294   2.180   8.526  0.1127  0.1831  0.2128
31070SOL    HW199046   9.218   2.125   8.508  0.1274 -0.1797  1.1989
31070SOL    HW299047   9.293   2.192   8.621  1.2772  0.1756  0.2388
31071SOL     OW99048   9.463   1.663  10.095 -0.0030  0.0780  0.4945
31071SOL    HW199049   9.401   1.610  10.044 -0.4769  1.0410  0.0326
31071SOL    HW299050   9.549   1.627  10.074 -0.3173 -0.5062  0.1895
31072SOL     OW99051   9.475   0.461   3.702 -0.0920  0.0124 -0.1861
31072SOL    HW199052   9.490   0.385   3.759  1.4298 -0.5366 -1.2577
31072SOL    HW299053   9.465   0.424   3.614 -0.8890  0.9557 -0.5124
31073SOL     OW99054   1.050   2.560   5.789 -0.3239 -1.0027 -0.5134
31073SOL    HW199055   1.082   2.470   5.797 -0.3371 -1.0107 -0.5506
31073SOL    HW299056   1.127   2.611   5.765  0.2586 -0.5772  1.9790
31074SOL     OW99057   8.926   4.763   6.492 -0.4012  0.0804  0.1515
31074SOL    HW199058   8.836   4.779   6.523 -0.2534  1.2750  0.0126
31074SOL    HW299059   8.918   4.684   6.437 -1.6813  1.0307 -1.1246
31075SOL     OW99060   0.794   7.244   4.699  0.7303 -0.0216 -0.1774
31075SOL    HW199061   0.797   7.210   4.610 -0.0895  0.6691 -0.4801
31075SOL    HW299062   0.703   7.269   4.713  0.7140 -0.7082  1.0889
31076SOL     OW99063   1.019   0.366  10.248 -0.1959 -0.2030  0.0795
31076SOL    HW199064   1.082   0.344  10.317  1.0128  1.0546 -0.5787
31076SOL    HW299065   0.972   0.284  10.231  2.2923 -1.6236 -0.4634
31077SOL     OW99066   8.352   8.246   9.202 -0.6437 -0.2552  0.1536
31077SOL    HW199067   8.334   8.153   9.190 -0.7550 -0.2642  0.3911
31077SOL    HW299068   8.350   8.282   9.114 -0.8388 -0.4358  0.0837
31078SOL     OW99069   7.569   2.152   9.517  0.0396  0.0930  0.3190
31078SOL    HW199070   7.475   2.163   9.529 -0.3052 -2.1356 -0.0121
31078SOL    HW299071   7.598   2.106   9.595  0.4122 -1.2965 -0.6017
31079SOL     OW99072   5.257   4.593   2.087 -0.4150 -0.4299  0.0482
31079SOL    HW199073   5.201   4.573   2.012 -1.1069 -0.0615  0.4518
31079SOL    HW299074   5.248   4.516   2.144 -1.4545  0.1026  0.6487
31080SOL     OW99075   2.008   3.441   9.578  0.1700 -0.1432  0.1500
31080SOL    HW199076   1.952   3.485   9.515 -3.4054 -0.8568  2.5726
31080SOL    HW299077   2.062   3.511   9.616  0.1791  0.7530 -1.4447
31081SOL     OW99078   1.292  10.131   4.543  0.0657 -0.4551 -0.9007
31081SOL    HW199079   1.230  10.075   4.496  0.9165 -1.8573 -0.3988
31081SOL    HW299080   1.312  10.083   4.623  0.5493  0.7401 -0.2831
31082SOL     OW99081   4.431   2.933   1.688 -0.4183  0.2638 -0.4962
31082SOL    HW199082   4.461   2.978   1.767  0.7054  0.3001 -0.9343
31082SOL    HW299083   4.506   2.935   1.629 -1.1758  0.0400 -1.4864
31083SOL     OW99084   3.910   5.141   0.845 -0.1702  0.2095  0.5383
31083SOL    HW199085   3.950   5.223   0.874 -0.3997  0.3539  0.4457
31083SOL    HW299086   3.956   5.074   0.894 -1.4837  0.5314  2.2885
31084SOL     OW99087   5.230   0.738   3.434  0.0132  0.3947  0.0326
31084SOL    HW199088   5.207   0.719   3.343  0.2847  0.8997 -0.1420
31084SOL    HW299089   5.242   0.652   3.474  1.4635  0.1688 -0.8072
31085SOL     OW99090   0.457   2.723   4.138  0.9996  0.5868 -0.2041
31085SOL    HW199091   0.433   2.799   4.084 -1.4437  0.1890  0.1782
31085SOL    HW299092   0.470   2.652   4.074  1.9918  1.0113 -0.4820
31086SOL     OW99093   4.989   4.136   7.776  0.2078  0.3750  0.0955
31086SOL    HW199094   5.007   4.174   7.690 -0.2903  1.2482  0.3601
31086SOL    HW299095   4.950   4.208   7.826  1.1395  0.0889  1.2783
31087SOL     OW99096   5.017   8.336   2.110  0.4768  0.2484 -0.1986
31087SOL    HW199097   5.028   8.373   2.023 -0.8418 -0.3937 -0.6626
31087SOL    HW299098   5.001   8.412   2.166 -1.4510  0.4887 -1.0118
31088SOL     OW99099   7.208   6.108   0.625 -0.2640 -0.0088 -0.1185
31088SOL    HW199100   7.243   6.182   0.676  0.0808  0.2322 -0.6957
31088SOL    HW299101   7.114   6.125   0.620 -0.0995  0.7567 -0.8142
31089SOL     OW99102   9.927   8.780   7.369  0.1116 -0.4275  0.4452
31089SOL    HW199103  10.004   8.833   7.349 -1.2252  1.6422  0.4906
31089SOL    HW299104   9.922   8.716   7.297  1.8341 -0.6218  0.4592
31090SOL     OW99105   8.620   4.629   3.130 -0.6737 -0.0113 -0.1330
31090SOL    HW199106   8.662   4.672   3.204 -3.3378  1.4248  0.6966
31090SOL    HW299107   8.658   4.670   3.053 -1.1956  1.9671  0.6015
31091SOL     OW99108   6.575   8.294   8.301 -0.1094  0.2509 -0.2924
31091SOL    HW199109   6.657   8.340   8.322  2.3462 -2.5781 -2.7914
31091SOL    HW299110   6.563   8.233   8.373  1.2161 -0.7404 -0.8724
31092SOL     OW99111   4.042   1.142   9.241 -0.2008 -0.2507 -0.4620
31092SOL    HW199112   3.998   1.168   9.160  0.0118  2.0989  0.1098
31092SOL    HW299113   4.129   1.182   9.234  0.0425 -0.5708  0.6458
31093SOL     OW99114  10.688   4.060   7.739  0.6997  0.0180 -0.4296
31093SOL    HW199115  10.707   3.989   7.678  0.4760 -1.1691  0.8165
31093SOL    HW299116  10.601   4.090   7.713  1.2294  0.5855 -1.6331
31094SOL     OW99117   4.025   4.183   5.798  0.8660  0.3774 -0.3017
31094SOL    HW199118   4.029   4.235   5.718  0.2175 -0.4241 -0.8776
31094SOL    HW299119   4.001   4.245   5.866 -0.0149  0.8131 -0.9914
31095SOL     OW99120   7.113   0.416   5.088  0.1516  0.1591  0.4703
31095SOL    HW199121   7.129   0.322   5.074 -0.5662  0.2865 -1.4738
31095SOL    HW299122   7.186   0.445   5.142 -0.2533 -1.7477  2.2006
31096SOL     OW99123   3.835   0.266  10.704 -0.1818  0.2460 -0.5823
31096SOL    HW199124   3.828   0.329  10.775 -0.0470  1.1744 -1.3775
31096SOL    HW299125   3.847   0.319  10.625  0.3835 -0.7784 -1.2124
31097SOL     OW99126  10.542  10.078   0.630 -0.2270 -0.4242  0.5492
31097SOL    HW199127  10.523  10.123   0.548  2.2370  0.0385  0.1562
31097SOL    HW299128  10.549   9.986   0.605 -2.3096 -0.6977  0.8142
31098SOL     OW99129  10.133   8.289  10.173 -0.0730  0.6299 -0.6706
31098SOL    HW199130  10.057   8.332  10.213  1.0362  1.3234  0.8012
31098SOL    HW299131  10.208   8.339  10.206  1.0567 -0.3570 -1.6724
31099SOL     OW99132   3.467  10.481   9.198  0.5252  1.0343 -0.1277
31099SOL    HW199133   3.380  10.493   9.237 -0.0604 -2.3743 -0.0413
31099SOL    HW299134   3.462  10.526   9.113 -1.9360 -0.3466 -0.8192
31100SOL     OW99135   4.960   0.459   7.790  0.2465  0.0733  0.0460
31100SOL    HW199136   5.046   0.453   7.833 -0.1556  0.5416  0.9581
31100SOL    HW299137   4.928   0.369   7.787  0.4542 -0.0148  0.3855
31101SOL     OW99138   8.393   2.434   6.677  0.8898  0.0126  0.0458
31101SOL    HW199139   8.409   2.412   6.586  0.9698  0.1545  0.0250
31101SOL    HW299140   8.480   2.436   6.717  0.8706  0.1427  0.0812
31102SOL     OW99141   1.657   5.470   1.615 -0.1304  0.3433 -0.1629
31102SOL    HW199142   1.627   5.421   1.539  0.4106  1.1323 -0.9063
31102SOL    HW299143   1.742   5.506   1.589  0.4972 -0.1210  1.1391
31103SOL     OW99144   4.867  10.375  10.873 -0.0369 -0.1434  0.0842
31103SOL    HW199145   4.858  10.460  10.916  1.5582  0.3469 -0.4600
31103SOL    HW299146   4.932  10.390  10.805  1.4337 -2.1506  0.9498
31104SOL     OW99147   4.500   3.033   9.024  0.4574  0.6685  0.1291
31104SOL    HW199148   4.486   3.067   9.113 -1.3340 -2.6413  1.2843
31104SOL    HW299149   4.424   2.976   9.008  2.5262 -1.7086 -2.0407
31105SOL     OW99150   1.678   6.520   8.704 -0.4563  0.0812 -0.2641
31105SOL    HW199151   1.755   6.569   8.735 -0.0222 -0.3070 -0.7161
31105SOL    HW299152   1.634   6.580   8.645 -0.2806  0.1645 -0.3135
31106SOL     OW99153   7.448   3.413   4.409 -0.1857  0.2887  0.3896
31106SOL    HW199154   7.447   3.471   4.333  1.3189 -0.2633 -0.0663
31106SOL    HW299155   7.356   3.410   4.438 -0.6937  0.8859 -1.0969
31107SOL     OW99156   7.907   2.571   5.836 -0.1470  0.1143  0.2515
31107SOL    HW199157   7.927   2.636   5.769  2.8831  0.2405  1.1135
31107SOL    HW299158   7.862   2.621   5.905  0.5158  0.9136  0.1235
31108SOL     OW99159   9.031   2.535   1.528 -0.7218  0.4704  0.3996
31108SOL    HW199160   9.004   2.443   1.527  0.6116  0.0438 -0.3968
31108SOL    HW299161   9.010   2.566   1.616 -2.6918 -0.1026  0.1668
31109SOL     OW99162   4.554   5.827   5.496  0.7367  0.7085 -0.7275
31109SOL    HW199163   4.585   5.896   5.554 -1.2768  0.3228  0.9336
31109SOL    HW299164   4.495   5.775   5.551  2.4809 -2.6437 -1.7537
31110SOL     OW99165   4.244  10.706   3.319  0.6263  0.0369 -0.3010
31110SOL    HW199166   4.150  10.715   3.300  0.4567  0.6221  0.7538
31110SOL    HW299167   4.248  10.637   3.385  0.9103  0.1598 -0.1894
31111SOL     OW99168  10.158   4.197   3.114  0.6197  0.5953 -0.2462
31111SOL    HW199169  10.112   4.225   3.035  2.7022 -0.8841 -2.1345
31111SOL    HW299170  10.090   4.159   3.169 -0.6274 -0.7815 -2.5484
31112SOL     OW99171   0.735   9.371   1.024  0.3292 -0.0692  0.2248
31112SOL    HW199172   0.790   9.448   1.040  2.0551 -1.3979  1.0201
31112SOL    HW299173   0.683   9.363   1.104  0.6590 -0.1196  0.4376
31113SOL     OW99174   3.887   6.048   7.935  0.0585  0.0907  0.1435
31113SOL    HW199175   3.857   6.066   8.024  0.7135 -0.7039  0.5432
31113SOL    HW299176   3.880   5.953   7.926  2.6504 -0.1703  0.3523
31114SOL     OW99177   5.106   0.842   6.847 -0.4487  0.8492 -0.0909
31114SOL    HW199178   5.188   0.843   6.797 -1.3764 -1.2573 -1.7849
31114SOL    HW299179   5.129   0.800   6.930  0.2822  0.7682 -0.3272
31115SOL     OW99180   5.212   6.961  10.547 -0.0250 -0.4044 -0.5177
31115SOL    HW199181   5.232   6.874  10.512 -2.4222 -1.0175 -0.5427
31115SOL    HW299182   5.156   6.944  10.623 -1.1819  1.1310 -0.9769
31116SOL     OW99183   2.241   3.878   8.339 -0.0114 -0.0555 -0.4253
31116SOL    HW199184   2.295   3.940   8.290  2.3675 -1.0922  0.7547
31116SOL    HW299185   2.246   3.909   8.430  0.9540 -1.7260  0.1305
31117SOL     OW99186   8.432   7.180   1.133 -0.1976  0.7500  0.3612
31117SOL    HW199187   8.368   7.165   1.202  0.8455 -0.7926  1.0527
31117SOL    HW299188   8.419   7.108   1.072  1.0427  0.2583  0.6560
31118SOL     OW99189  10.844   6.610   4.541 -0.0594  0.0940  0.2664
31118SOL    HW199190  10.780   6.680   4.537  1.8319  1.8653 -1.5373
31118SOL    HW299191  10.884   6.618   4.627 -1.6687 -0.5876  1.1310
31119SOL     OW99192   2.172  10.385   1.443  0.0069  0.0186  0.2932
31119SOL    HW199193   2.081  10.414   1.432  0.1402 -0.2365 -2.0809
31119SOL    HW299194   2.170  10.328   1.520 -1.3942  1.6925  1.5659
31120SOL     OW99195   9.455   1.865   4.175 -0.1119 -0.1812  0.3904
31120SOL    HW199196   9.374   1.862   4.124 -0.8807 -0.1616  1.5705
31120SOL    HW299197   9.469   1.958   4.191  0.7309 -0.1103 -0.6986
31121SOL     OW99198   2.634  10.316  10.539  0.1283 -0.5423  0.1178
31121SOL    HW199199   2.608  10.251  10.603 -1.2409 -1.5605 -1.4137
31121SOL    HW299200   2.557  10.370  10.526  0.5413 -0.0423 -0.3229
31122SOL     OW99201   4.256   3.317   5.090 -0.5647  0.1271 -0.5288
31122SOL    HW199202   4.272   3.247   5.154 -0.9823 -0.8264 -1.4277
31122SOL    HW299203   4.248   3.396   5.143  0.1602 -0.4622  0.5016
31123SOL     OW99204   4.873   2.348   6.642  0.1165  0.4961  0.5910
31123SOL    HW199205   4.895   2.321   6.553 -1.4657 -0.1505  0.3662
31123SOL    HW299206   4.873   2.266   6.692  0.2157  0.7528  1.0121
31124SOL     OW99207   6.645  10.676   0.939  0.0022 -0.0798 -0.1604
31124SOL    HW199208   6.581  10.735   0.900 -0.5769 -0.7605 -0.2663
31124SOL    HW299209   6.726  10.727   0.942 -0.6395  0.9415  0.3683
31125SOL     OW99210   5.788   5.305   6.818 -1.0347  0.0004  0.0035
31125SOL    HW199211   5.748   5.232   6.770 -1.5229 -0.4625  1.0827
31125SOL    HW299212   5.867   5.267   6.856  0.1129  0.7270 -1.5283
31126SOL     OW99213   5.410   8.681   5.671 -0.2410  0.1730 -0.4504
31126SOL    HW199214   5.437   8.771   5.652  0.1278 -0.0137 -0.8268
31126SOL    HW299215   5.409   8.637   5.586 -1.8317  0.1893 -0.4731
31127SOL     OW99216   6.834   6.694   7.062 -0.1183  0.3614  0.5093
31127SOL    HW199217   6.845   6.683   7.157 -3.6498  2.0350  1.3153
31127SOL    HW299218   6.825   6.789   7.051 -0.6842  0.1147 -1.3627
31128SOL     OW99219   6.576   4.400   2.513 -0.0893 -0.0543  0.0729
31128SOL    HW199220   6.627   4.329   2.474 -0.1280  0.8752 -1.7527
31128SOL    HW299221   6.634   4.437   2.580 -0.0507 -1.7143  1.0309
31129SOL     OW99222   2.659   5.382  10.508  0.0321  0.2955 -0.4166
31129SOL    HW199223   2.663   5.375  10.603 -5.3899 -2.0048  0.0157
31129SOL    HW299224   2.724   5.319  10.477  1.5854  0.7468  1.6854
31130SOL     OW99225   9.866   2.055   3.804 -0.2375  0.3893  0.7744
31130SOL    HW199226   9.944   2.021   3.759 -0.1434  1.3939  0.1393
31130SOL    HW299227   9.894   2.067   3.895  0.2528  0.4064  0.6268
31131SOL     OW99228   3.785   6.566   7.411  0.5654  0.4150 -0.1865
31131SOL    HW199229   3.751   6.479   7.391  0.8669  0.1948  0.2482
31131SOL    HW299230   3.855   6.551   7.473 -0.2735  1.0664  0.9557
31132SOL     OW99231   9.769   9.035   9.829 -0.2286 -0.1135 -0.1439
31132SOL    HW199232   9.833   8.965   9.838  1.7601  1.6088 -0.0181
31132SOL    HW299233   9.822   9.115   9.829 -2.4697  1.4483  0.8024
31133SOL     OW99234   9.652   7.117   2.286 -0.2816 -0.0803 -0.5073
31133SOL    HW199235   9.613   7.060   2.353  1.7950 -0.5754  0.3566
31133SOL    HW299236   9.670   7.059   2.212  0.6668 -0.3169 -0.1096
31134SOL     OW99237   2.875   2.812   7.411 -0.3058 -0.6059  0.4110
31134SOL    HW199238   2.809   2.872   7.447 -0.6691 -0.5380 -0.3571
31134SOL    HW299239   2.860   2.813   7.317 -0.0165 -1.5637  0.3497
31135SOL     OW99240   2.402   2.071   6.688  0.3205 -0.4153  0.4310
31135SOL    HW199241   2.337   2.070   6.619 -1.1695 -1.1892  1.7710
31135SOL    HW299242   2.477   2.118   6.651 -0.6827 -0.2070 -1.4228
31136SOL     OW99243   2.415   4.813   0.141  0.5245  0.1338  0.2592
31136SOL    HW199244   2.364   4.839   0.065 -1.1493 -2.1389  0.4927
31136SOL    HW299245   2.413   4.717   0.139  3.2611 -0.0423  1.3527
31137SOL     OW99246   4.350   9.884   6.671  0.0150  0.1694  0.0287
31137SOL    HW199247   4.373   9.972   6.641  1.5113  0.1838  1.1213
31137SOL    HW299248   4.404   9.870   6.749 -1.9538 -0.7788  1.3292
31138SOL     OW99249   0.762  10.263   6.969  0.1257 -0.3899  0.0104
31138SOL    HW199250   0.796  10.209   7.040 -1.7155  0.2030  1.4127
31138SOL    HW299251   0.696  10.208   6.927  0.5166 -0.3776 -0.6384
31139SOL     OW99252   5.819   6.041   1.115  0.1468  0.2101  0.1364
31139SOL    HW199253   5.743   5.983   1.115 -0.7885  1.3970 -0.7982
31139SOL    HW299254   5.783   6.128   1.096  1.7857  0.7313 -0.6981
31140SOL     OW99255   3.462   3.828  10.255 -0.2737  0.3058  0.4082
31140SOL    HW199256   3.378   3.787  10.234  0.1629  0.4995 -1.9878
31140SOL    HW299257   3.463   3.908  10.203  1.8567 -0.2843 -0.5694
31141SOL     OW99258  10.373   7.855   8.605 -0.6062 -0.6487  0.2742
31141SOL    HW199259  10.436   7.825   8.539  0.2385 -1.7544  1.5239
31141SOL    HW299260  10.362   7.779   8.663  0.1358  0.8341  2.4657
31142SOL     OW99261   1.329   8.365   6.954 -0.3144  1.0062  0.2264
31142SOL    HW199262   1.238   8.395   6.955  0.0605  2.2030  0.9365
31142SOL    HW299263   1.323   8.271   6.970 -1.3946  1.1938  1.0979
31143SOL     OW99264   5.925   3.989   6.795 -0.4341  0.2658 -0.3319
31143SOL    HW199265   5.882   4.038   6.725  1.3970  1.0198 -0.9914
31143SOL    HW299266   5.998   4.045   6.822  0.0152 -0.8506  0.9023
31144SOL     OW99267   2.624   6.318  10.749 -0.5558  0.2678  0.2102
31144SOL    HW199268   2.600   6.335  10.840 -2.7152  4.7648 -0.8991
31144SOL    HW299269   2.715   6.347  10.743 -0.1021 -0.9167  1.0735
31145SOL     OW99270   5.051  10.321   5.394  0.6192  0.2991  0.1280
31145SOL    HW199271   4.961  10.309   5.363  0.8476 -0.9294 -0.0854
31145SOL    HW299272   5.085  10.233   5.405  2.4178  0.6874 -1.6252
31146SOL     OW99273   4.464   2.674  10.424  0.3392  0.2270 -0.2799
31146SOL    HW199274   4.487   2.682  10.516 -2.1899  0.8069  0.3718
31146SOL    HW299275   4.509   2.595  10.394  1.4075  0.1787  1.3534
31147SOL     OW99276   0.221   7.440   7.300  0.4669 -0.1022  0.4406
31147SOL    HW199277   0.144   7.481   7.340  0.1212  0.2826 -0.5929
31147SOL    HW299278   0.225   7.477   7.212  2.8334  1.1784  1.0063
31148SOL     OW99279   1.546   9.976  10.445  0.0445 -0.0422  0.2807
31148SOL    HW199280   1.625  10.015  10.481  1.8272 -0.9979 -2.2820
31148SOL    HW299281   1.557   9.882  10.459 -0.3509 -0.2261 -0.5645
31149SOL     OW99282   5.936   7.073   9.757  0.0862 -0.1802 -0.5581
31149SOL    HW199283   5.882   7.105   9.830  0.6439 -1.0076  0.2395
31149SOL    HW299284   5.895   7.110   9.679 -1.5028 -0.5889  0.0473
31150SOL     OW99285   6.292   1.405  10.909  0.3425  0.4791  0.2428
31150SOL    HW199286   6.228   1.461  10.953  0.1203 -1.2428  2.2629
31150SOL    HW299287   6.372   1.416  10.959 -0.2390 -2.4609  2.0303
31151SOL     OW99288   8.360   4.168   2.851  0.1063  0.4535  0.4762
31151SOL    HW199289   8.385   4.251   2.810 -2.1277  0.4475 -1.0905
31151SOL    HW299290   8.264   4.171   2.854 -0.0122 -1.9118  0.7529
31152SOL     OW99291   4.917   9.256  10.852 -0.4258  0.1099  0.1570
31152SOL    HW199292   4.853   9.274  10.783 -2.2871  0.4400  1.8635
31152SOL    HW299293   4.882   9.302  10.929  0.7467 -1.4712  1.7105
31153SOL     OW99294   0.047   7.618   7.433 -0.1474 -0.1701 -0.0505
31153SOL    HW199295  -0.046   7.616   7.411 -0.6160  0.0773  1.7885
31153SOL    HW299296   0.064   7.708   7.463  1.1725  0.3754 -2.1853
31154SOL     OW99297   3.483   6.321   4.184 -0.3295 -0.6040 -0.2905
31154SOL    HW199298   3.542   6.263   4.135  0.1797  0.5361 -1.0486
31154SOL    HW299299   3.397   6.306   4.145  0.0378  0.1472 -1.4244
31155SOL     OW99300   3.652  10.247   1.803 -0.7654  0.0257  0.1774
31155SOL    HW199301   3.624  10.161   1.770 -3.0318  0.6839  0.1799
31155SOL    HW299302   3.601  10.260   1.882 -1.3817  1.8589 -0.4676
31156SOL     OW99303   1.218   3.560   3.103 -0.1350  0.5175  0.0600
31156SOL    HW199304   1.148   3.536   3.165  2.3451 -1.6123  2.2832
31156SOL    HW299305   1.280   3.610   3.156  0.6568  1.2531 -1.5280
31157SOL     OW99306   2.965   3.039   6.786 -0.2509  0.0493  0.0306
31157SOL    HW199307   2.989   3.003   6.871  0.8221  0.5277 -0.0561
31157SOL    HW299308   3.032   3.006   6.726 -2.0058 -1.8281 -1.0431
31158SOL     OW99309   5.592   5.988   0.806  0.3379  0.8243 -0.3286
31158SOL    HW199310   5.559   6.029   0.886  0.5165 -0.7339  0.6029
31158SOL    HW299311   5.514   5.973   0.752  0.1501  1.4567 -0.2307
31159SOL     OW99312   5.389   9.131   3.268  0.0334 -0.0451  0.4699
31159SOL    HW199313   5.391   9.213   3.219  1.7265  0.4673  1.3343
31159SOL    HW299314   5.302   9.129   3.308 -1.7941 -0.9231 -3.1570
31160SOL     OW99315   4.667   1.785   0.283  0.2450  0.3042  0.2170
31160SOL    HW199316   4.702   1.799   0.195  1.2106 -1.9004  0.1568
31160SOL    HW299317   4.740   1.806   0.341  0.2762 -0.1739  0.3563
31161SOL     OW99318   9.230   1.636   8.057  0.2550 -0.0047  0.0542
31161SOL    HW199319   9.216   1.557   8.108  3.0147 -0.6838 -0.0568
31161SOL    HW299320   9.159   1.637   7.993 -1.2469 -1.0172  1.6091
31162SOL     OW99321   4.480   6.348   5.459 -0.1001 -0.4212  0.1061
31162SOL    HW199322   4.536   6.391   5.395 -0.4439  0.3152  0.2950
31162SOL    HW299323   4.452   6.267   5.416 -0.2971  0.0479 -0.6611
31163SOL     OW99324   6.704   5.201   6.034 -0.8242  0.0437  0.2105
31163SOL    HW199325   6.630   5.213   5.975  0.9174  0.6907 -1.9638
31163SOL    HW299326   6.755   5.129   5.995  1.0027  1.2767  0.1980
31164SOL     OW99327   2.015   4.683   3.863 -0.2018 -0.7207 -0.0464
31164SOL    HW199328   1.946   4.717   3.920  1.0598  1.4128  0.3032
31164SOL    HW299329   1.992   4.716   3.776  0.5450  0.3614  0.1415
31165SOL     OW99330   0.487   1.611   3.549 -0.1852  0.4629 -0.2744
31165SOL    HW199331   0.522   1.635   3.635  0.4268 -0.2283 -0.3223
31165SOL    HW299332   0.411   1.556   3.570 -0.0384  0.2963 -0.1693
31166SOL     OW99333   5.300   1.181   6.818  0.2811 -0.2374 -0.3455
31166SOL    HW199334   5.369   1.115   6.813  0.7405  0.0429  1.4041
31166SOL    HW299335   5.346   1.264   6.805  0.1011 -0.1161 -0.2155
31167SOL     OW99336   3.946   4.124   7.089 -0.0985  0.0382  0.2310
31167SOL    HW199337   4.012   4.182   7.052 -0.6759  0.1070 -0.7353
31167SOL    HW299338   3.871   4.132   7.029  0.3568 -2.8937 -0.8769
31168SOL     OW99339   1.332   3.182   2.550  0.4611 -0.8392  0.3557
31168SOL    HW199340   1.374   3.104   2.587  0.0616 -0.2792  2.0725
31168SOL    HW299341   1.405   3.240   2.526  0.7710 -1.7925 -1.1672
31169SOL     OW99342   7.597   5.953   4.196 -0.2101  0.1581  0.4604
31169SOL    HW199343   7.576   5.927   4.107 -0.4210 -0.6605  0.7335
31169SOL    HW299344   7.677   5.905   4.217 -0.0643  0.4800  0.6471
31170SOL     OW99345  10.704   0.780   0.131  0.1054 -0.6423  0.2347
31170SOL    HW199346  10.734   0.704   0.082 -0.2123 -2.1165  2.2126
31170SOL    HW299347  10.784   0.818   0.168  0.2550  0.0087 -0.6898
31171SOL     OW99348   1.322   0.531   2.904  0.5350  0.4197 -0.4681
31171SOL    HW199349   1.244   0.480   2.880 -0.7687  2.2429 -0.3245
31171SOL    HW299350   1.292   0.587   2.975  2.6741 -0.5288  1.2899
31172SOL     OW99351   5.296   7.574   3.717 -0.5178  0.2649 -0.1586
31172SOL    HW199352   5.306   7.542   3.627  0.2726  1.5245 -0.5478
31172SOL    HW299353   5.337   7.506   3.771 -1.6868 -0.8672 -0.6693
31173SOL     OW99354   9.086   5.246   7.315  0.1729  0.2593  0.2806
31173SOL    HW199355   9.012   5.252   7.375 -0.0581 -1.3455  0.1898
31173SOL    HW299356   9.163   5.260   7.370 -0.0251 -1.3124  1.0055
31174SOL     OW99357   9.225   9.479   2.931 -0.1157 -0.0936  0.1334
31174SOL    HW199358   9.236   9.390   2.897 -0.8571 -0.1459  0.0084
31174SOL    HW299359   9.167   9.469   3.006 -1.2193  0.4184 -0.6235
31175SOL     OW99360   2.942   5.154   5.619 -0.1789  0.7137  0.1041
31175SOL    HW199361   2.945   5.107   5.536 -0.7810  0.3497  0.2760
31175SOL    HW299362   2.874   5.108   5.669 -0.5932  1.5999  0.3733
31176SOL     OW99363   7.609   5.764  10.589 -0.0684 -0.6357 -0.4087
31176SOL    HW199364   7.637   5.843  10.544  2.3390  0.5561  2.7673
31176SOL    HW299365   7.679   5.702  10.576  0.4704 -0.4158  1.1474
31177SOL     OW99366  10.076   2.175   1.216  0.1932  0.4250  0.8276
31177SOL    HW199367   9.984   2.160   1.238 -0.0364  0.6013  0.0201
31177SOL    HW299368  10.122   2.101   1.253 -0.4147 -0.2249  0.3261
31178SOL     OW99369   0.036   6.498   8.642  0.3580  0.6621 -0.1340
31178SOL    HW199370   0.061   6.520   8.553  1.7733  0.6455  0.2260
31178SOL    HW299371   0.026   6.403   8.641 -1.6176  0.8438 -0.7161
31179SOL     OW99372   4.670   3.440   3.257  0.6909  1.0828  0.0256
31179SOL    HW199373   4.716   3.356   3.266  1.6368  1.5574 -0.3276
31179SOL    HW299374   4.585   3.424   3.299  0.7603 -0.1239 -0.2397
31180SOL     OW99375   9.839   5.797   2.804  0.7425 -0.2061 -0.4133
31180SOL    HW199376   9.747   5.771   2.805 -0.0788  2.2186  2.4256
31180SOL    HW299377   9.846   5.857   2.730 -0.4304  0.8114  0.2608
31181SOL     OW99378   9.641   9.196   5.674 -0.5411  0.3261  0.0396
31181SOL    HW199379   9.624   9.252   5.598 -2.5238 -0.0964  0.1045
31181SOL    HW299380   9.658   9.109   5.637  0.5471  0.5386  0.0173
31182SOL     OW99381   5.357   9.648   2.721  0.3160 -0.4343  0.1300
31182SOL    HW199382   5.268   9.681   2.734  0.6105  0.2802  0.4169
31182SOL    HW299383   5.402   9.666   2.803  0.5777 -1.3144  0.1911
31183SOL     OW99384   5.586   8.055   9.403 -0.0947 -0.2295 -0.6608
31183SOL    HW199385   5.624   7.987   9.348 -3.4551 -1.1237 -2.1153
31183SOL    HW299386   5.628   8.136   9.374  0.6395 -1.1067 -2.1803
31184SOL     OW99387   0.186   3.591   0.182  0.4487 -0.3342  0.3753
31184SOL    HW199388   0.116   3.654   0.169 -1.4874 -2.6208 -1.1889
31184SOL    HW299389   0.166   3.549   0.265  1.0985  0.2880  0.8623
31185SOL     OW99390   0.490   9.737   8.411  0.2600 -0.5118 -0.5149
31185SOL    HW199391   0.416   9.733   8.350  1.2006 -1.6371 -1.6526
31185SOL    HW299392   0.462   9.684   8.486 -1.8981  2.8380  1.3338
31186SOL     OW99393  10.061   3.682   1.133 -0.0100  0.2245 -0.2074
31186SOL    HW199394  10.048   3.777   1.142  0.7758  0.1960  1.6042
31186SOL    HW299395   9.980   3.651   1.092 -0.1283  1.7195 -1.1766
31187SOL     OW99396   6.864   9.943   9.394 -0.2753 -0.0546  0.2803
31187SOL    HW199397   6.912   9.954   9.477  2.0821 -0.9282 -0.8928
31187SOL    HW299398   6.932   9.936   9.328 -1.9908 -2.6057 -1.3741
31188SOL     OW99399   9.920   7.712  10.468  0.1630  0.2462 -0.4220
31188SOL    HW199400   9.928   7.806  10.484  0.4931  0.3638 -1.2058
31188SOL    HW299401   9.959   7.671  10.546 -2.5174  0.6815  1.2700
31189SOL     OW99402   3.863   3.528   8.883 -0.0345  0.5399  0.0804
31189SOL    HW199403   3.832   3.441   8.908 -0.3904  0.9177  0.9688
31189SOL    HW299404   3.889   3.570   8.965  0.1178  1.2808 -0.3326
31190SOL     OW99405   1.084   2.667   7.322 -0.2042 -0.1538 -0.2867
31190SOL    HW199406   1.048   2.578   7.324  2.7750 -1.5098 -0.6236
31190SOL    HW299407   1.159   2.660   7.262  1.8975  1.8039  1.9129
31191SOL     OW99408   2.689   3.762   4.365  0.9800  0.8235  0.1163
31191SOL    HW199409   2.638   3.836   4.332  0.3660  0.9615  1.3461
31191SOL    HW299410   2.757   3.748   4.298  0.2724  1.6081 -0.7965
31192SOL     OW99411   0.766  10.291   1.450 -0.5847 -0.5097 -0.6724
31192SOL    HW199412   0.722  10.257   1.528 -0.5544 -2.8984 -1.5944
31192SOL    HW299413   0.706  10.356   1.414 -1.3648 -0.5992  0.4351
31193SOL     OW99414   5.084   0.150   2.368  0.4395  0.4157  0.0108
31193SOL    HW199415   5.101   0.065   2.408  0.4998  0.7824  0.7760
31193SOL    HW299416   5.043   0.201   2.437  0.4930  1.0418 -0.4162
31194SOL     OW99417   7.237   6.919   0.821  0.2761  0.0266  0.0166
31194SOL    HW199418   7.224   7.000   0.771 -1.4519  0.8689  1.6342
31194SOL    HW299419   7.309   6.875   0.779 -0.2686  1.2770 -2.3925
31195SOL     OW99420   2.871   7.576   0.946  0.6994  0.3325 -0.3513
31195SOL    HW199421   2.854   7.553   1.038 -1.5523  1.8747 -0.3020
31195SOL    HW299422   2.786   7.567   0.903  1.5289  0.5297 -2.0907
31196SOL     OW99423   3.277   1.517   9.404 -0.1195 -1.4242 -0.4172
31196SOL    HW199424   3.327   1.442   9.437 -2.7698 -2.4497  1.5865
31196SOL    HW299425   3.283   1.583   9.473  0.0927 -0.7679 -1.0486
31197SOL     OW99426   1.661   1.406   2.566 -0.1869  0.7433 -0.2644
31197SOL    HW199427   1.696   1.390   2.478  0.9967 -2.7838  0.7105
31197SOL    HW299428   1.735   1.440   2.615  0.3839 -1.2395  0.3363
31198SOL     OW99429  10.556  10.174   5.762 -0.2760 -0.2334 -0.6169
31198SOL    HW199430  10.520  10.087   5.781  0.2086 -0.5805 -1.2229
31198SOL    HW299431  10.641  10.156   5.722 -0.7437  0.4657 -2.0017
31199SOL     OW99432   3.821   3.821   9.421  0.1377  0.0742 -0.3645
31199SOL    HW199433   3.892   3.803   9.359  0.9687 -1.4383  0.9469
31199SOL    HW299434   3.823   3.916   9.432  1.5401  0.1372 -0.8806
31200SOL     OW99435   7.051   7.873   4.099 -0.1064  0.2297 -0.8576
31200SOL    HW199436   7.020   7.963   4.090 -0.1291  0.1770 -1.3006
31200SOL    HW299437   7.018   7.845   4.185  2.0016  1.4740  0.4516
31201SOL     OW99438   3.765   0.719   0.817 -0.1854  0.5870  0.8641
31201SOL    HW199439   3.781   0.787   0.882  1.3476  0.7819  0.3232
31201SOL    HW299440   3.776   0.637   0.865 -0.8311  0.7204  1.2444
31202SOL     OW99441   3.611  10.676   1.922 -0.2772  0.1764  0.6482
31202SOL    HW199442   3.645  10.602   1.972  0.3325  0.4759  0.6844
31202SOL    HW299443   3.562  10.635   1.850  1.8905 -0.3218 -0.6250
31203SOL     OW99444   4.230  10.886   3.646  0.1596 -0.2280  0.5837
31203SOL    HW199445   4.156  10.856   3.699  0.1598 -2.0709 -0.3786
31203SOL    HW299446   4.190  10.921   3.566  0.2719  0.1905  0.7072
31204SOL     OW99447   9.299   5.295   8.484 -0.2076  0.0514  0.6496
31204SOL    HW199448   9.250   5.348   8.421  0.1478 -1.0651 -0.6109
31204SOL    HW299449   9.379   5.345   8.501  0.1209 -0.0610 -0.5115
31205SOL     OW99450   1.493   4.956   3.960  0.0399 -0.1227  0.2752
31205SOL    HW199451   1.563   4.929   4.019  2.2657  2.2339 -1.1048
31205SOL    HW299452   1.516   4.918   3.876  0.0247  1.2045 -0.3439
31206SOL     OW99453   1.346   2.864   3.465 -0.3813  0.3515  0.3454
31206SOL    HW199454   1.276   2.811   3.427 -1.1634  0.6149  1.3917
31206SOL    HW299455   1.322   2.954   3.443 -1.2529  0.5755  2.0571
31207SOL     OW99456   4.091   9.653   3.162  0.7722  0.1007 -0.1371
31207SOL    HW199457   4.126   9.700   3.238  0.1962 -1.5280  1.1991
31207SOL    HW299458   4.084   9.562   3.191 -1.5171 -0.2005 -1.4187
31208SOL     OW99459  10.404   1.509   0.790  0.0577 -0.3231  0.1331
31208SOL    HW199460  10.359   1.437   0.835  1.1452  0.0843  1.9778
31208SOL    HW299461  10.447   1.558   0.861  0.0898  1.6178 -1.1726
31209SOL     OW99462   7.967   8.336   7.149  0.3536 -0.0927  0.2685
31209SOL    HW199463   7.932   8.252   7.121 -0.2961  0.5408 -0.8633
31209SOL    HW299464   8.062   8.322   7.155  0.5004 -0.3485 -1.9987
31210SOL     OW99465   4.165   8.895   8.881 -0.0303  0.4026  0.0552
31210SOL    HW199466   4.164   8.800   8.881 -1.0671  0.3919 -0.8955
31210SOL    HW299467   4.222   8.919   8.807  0.3241  0.5310  0.3646
31211SOL     OW99468   8.565   1.169   4.164 -0.1454  0.0830  0.0735
31211SOL    HW199469   8.475   1.183   4.135  0.4148  0.2163 -1.7333
31211SOL    HW299470   8.567   1.078   4.194 -0.8010 -0.0238 -0.1933
31212SOL     OW99471   6.474   4.413   4.634  0.7686  0.3619  0.8176
31212SOL    HW199472   6.438   4.343   4.687 -1.1494  0.9936  0.4317
31212SOL    HW299473   6.400   4.471   4.616  1.5636  0.7528 -1.6192
31213SOL     OW99474   5.660   2.880   0.367 -0.4629 -0.1364  0.4372
31213SOL    HW199475   5.750   2.860   0.392 -0.2601 -0.0341 -0.2058
31213SOL    HW299476   5.662   2.883   0.271 -1.5140 -1.9652  0.3045
31214SOL     OW99477   8.538  10.785   4.225 -0.0464  0.1190  0.7363
31214SOL    HW199478   8.617  10.751   4.267  0.9153  0.3083 -0.8320
31214SOL    HW299479   8.493  10.834   4.294  0.4118 -1.2532  2.0558
31215SOL     OW99480  10.835   2.171   1.407  0.1134 -0.2270  0.1764
31215SOL    HW199481  10.864   2.131   1.490 -0.2913  1.2796  1.0794
31215SOL    HW299482  10.752   2.128   1.387 -1.3377  1.4058  2.1887
31216SOL     OW99483   5.390   0.305   6.188  0.1471 -0.2228  0.4714
31216SOL    HW199484   5.403   0.368   6.117  0.1555  0.5007  1.1032
31216SOL    HW299485   5.295   0.291   6.191  0.2542 -1.2991 -0.5567
31217SOL     OW99486   3.331   4.186   3.884 -0.1771 -0.0767 -0.3899
31217SOL    HW199487   3.356   4.278   3.896 -1.0934  0.3694 -1.7253
31217SOL    HW299488   3.369   4.161   3.800  1.5446 -1.4985  0.7143
31218SOL     OW99489   1.634   9.369   1.512 -0.6891  0.3725  0.0784
31218SOL    HW199490   1.603   9.279   1.523  1.0755 -0.4757 -1.2447
31218SOL    HW299491   1.641   9.403   1.601 -0.7010 -1.0737  0.6600
31219SOL     OW99492   0.776   8.312   5.861 -0.2241  0.4993 -0.1223
31219SOL    HW199493   0.846   8.270   5.910  1.5137  1.0887 -1.9993
31219SOL    HW299494   0.817   8.388   5.820 -1.6918  0.3059 -2.1000
31220SOL     OW99495  10.741   8.707   4.486 -0.0204 -0.6779 -0.6578
31220SOL    HW199496  10.820   8.654   4.499 -0.3372 -1.0953 -0.3888
31220SOL    HW299497  10.685   8.684   4.560  0.9630  2.2289  1.1548
31221SOL     OW99498  10.309   1.439   6.022  0.1050  0.1540 -0.0811
31221SOL    HW199499  10.307   1.344   6.016 -0.9419  0.2532 -2.1996
31221SOL    HW299500  10.269   1.469   5.941  2.9877  2.4421 -0.8346
31222SOL     OW99501   0.543   4.735   4.604 -0.0377  0.1783 -0.3171
31222SOL    HW199502   0.509   4.662   4.552  1.7864 -0.1594 -1.1259
31222SOL    HW299503   0.566   4.802   4.539  0.1970  0.6581  0.2535
31223SOL     OW99504   6.633  10.917   4.795 -0.4769  0.5905  0.3398
31223SOL    HW199505   6.579  10.841   4.814 -0.0780  0.4112  0.7994
31223SOL    HW299506   6.661  10.905   4.704 -0.9143  0.5049  0.2165
31224SOL     OW99507   2.742   1.952   8.773  0.3234 -0.0434 -0.0906
31224SOL    HW199508   2.672   1.912   8.721  0.1647  0.4521 -0.2685
31224SOL    HW299509   2.716   2.044   8.779  0.6452  0.0176  0.3680
31225SOL     OW99510   7.020   0.376  10.695  0.0127 -0.0433  0.2376
31225SOL    HW199511   7.073   0.298  10.713  1.2095  0.1543 -2.1104
31225SOL    HW299512   6.934   0.342  10.671 -0.3684 -0.4533  1.9912
31226SOL     OW99513   3.158   2.138   5.705 -0.3090 -0.2646  0.4163
31226SOL    HW199514   3.240   2.173   5.741 -0.4992  0.1230  0.4872
31226SOL    HW299515   3.168   2.043   5.709 -0.1243 -0.2277  1.0501
31227SOL     OW99516   4.163   4.751  10.325 -0.4233  0.3352 -0.0649
31227SOL    HW199517   4.207   4.831  10.298  0.3659  0.3353  1.1347
31227SOL    HW299518   4.119   4.774  10.406  0.3582 -0.5937  0.6448
31228SOL     OW99519   4.554   0.540   8.645  0.2283 -0.1054 -0.0971
31228SOL    HW199520   4.631   0.592   8.669  0.4676 -0.9954  1.2099
31228SOL    HW299521   4.481   0.587   8.685  0.2887 -0.1024  0.0111
31229SOL     OW99522   6.909   8.491   6.967  0.1540 -0.4388 -0.7181
31229SOL    HW199523   6.936   8.518   7.054 -0.3520 -0.5671 -0.5183
31229SOL    HW299524   6.965   8.416   6.946 -0.3826 -1.0414 -0.0872
31230SOL     OW99525   6.515   9.085   6.777  0.5560 -0.5791 -0.0885
31230SOL    HW199526   6.582   9.150   6.757  0.3573 -0.5189 -0.5566
31230SOL    HW299527   6.500   9.096   6.871 -0.9482  1.4808 -0.4967
31231SOL     OW99528   1.679   3.194   1.116 -0.4173  0.0330  0.0584
31231SOL    HW199529   1.670   3.252   1.041  0.1455  1.8371  1.3151
31231SOL    HW299530   1.604   3.214   1.172  0.9446  1.2391  1.5480
31232SOL     OW99531   5.695   6.233   2.635 -0.7800 -0.1694  0.1066
31232SOL    HW199532   5.634   6.222   2.708 -0.3414 -2.9952  0.1569
31232SOL    HW299533   5.767   6.173   2.654  0.0308  0.0629 -1.9708
31233SOL     OW99534   4.702   4.719  10.709 -0.3986  0.0299 -0.1598
31233SOL    HW199535   4.729   4.639  10.664  0.0147 -1.2212  2.1930
31233SOL    HW299536   4.611   4.704  10.733 -1.0774  1.2894 -1.7204
31234SOL     OW99537   4.753   1.739   9.518 -0.2986  0.2252  0.1583
31234SOL    HW199538   4.815   1.769   9.452  0.9052  0.6346  1.4321
31234SOL    HW299539   4.671   1.785   9.497 -0.1188 -0.1200 -1.3772
31235SOL     OW99540  10.346   8.087   1.445  0.0256  0.3354 -0.1129
31235SOL    HW199541  10.298   8.046   1.516 -0.2391  1.5339  0.4254
31235SOL    HW299542  10.304   8.054   1.365  0.4356 -1.1488  0.2475
31236SOL     OW99543   5.844   2.620   9.946 -0.1603  0.0710 -0.3327
31236SOL    HW199544   5.871   2.554   9.882 -0.8157  0.7057 -1.2934
31236SOL    HW299545   5.883   2.591  10.029  3.4060  0.8803 -1.5632
31237SOL     OW99546   0.478   8.480   9.007 -0.3308 -0.3269  0.2118
31237SOL    HW199547   0.448   8.391   9.025 -3.5263  0.2966 -1.4265
31237SOL    HW299548   0.557   8.467   8.954  0.2784 -2.1053  1.4316
31238SOL     OW99549  10.020  10.395  10.837 -0.0935 -0.8796  0.5420
31238SOL    HW199550  10.064  10.315  10.810  1.5695 -0.4382  1.7927
31238SOL    HW299551  10.075  10.431  10.906 -1.3299  0.8324  0.7094
31239SOL     OW99552   1.539   8.011   8.418  0.3361  0.1603 -0.2544
31239SOL    HW199553   1.455   7.979   8.452  0.6941 -0.0998  0.4216
31239SOL    HW299554   1.584   8.045   8.496  1.4125 -0.9632 -0.3563
31240SOL     OW99555   2.457   5.048   0.693 -0.3633  0.4754  0.4506
31240SOL    HW199556   2.551   5.067   0.701 -0.4121  0.7968  0.2938
31240SOL    HW299557   2.450   4.991   0.616 -0.2138 -0.1953  0.9259
31241SOL     OW99558  10.789   3.922  10.268  0.0796 -0.0759  0.3875
31241SOL    HW199559  10.854   3.884  10.209  0.9266  0.6092  0.8479
31241SOL    HW299560  10.813   3.890  10.355  1.9953  2.8793  1.0895
31242SOL     OW99561   9.117   1.491   8.457  0.5759 -0.4296  0.0453
31242SOL    HW199562   9.106   1.477   8.363  1.3933  1.8842 -0.4852
31242SOL    HW299563   9.212   1.495   8.469  0.4679  0.1790  0.7782
31243SOL     OW99564  10.245   9.282   8.791 -0.0300 -0.0544 -0.0511
31243SOL    HW199565  10.171   9.311   8.845 -0.3847 -0.6129 -0.2266
31243SOL    HW299566  10.257   9.353   8.728 -0.3788  0.0690  0.0140
31244SOL     OW99567  10.539   3.686   3.488 -0.3387 -0.4486 -0.2440
31244SOL    HW199568  10.521   3.744   3.562  1.6371 -0.2827  0.1558
31244SOL    HW299569  10.566   3.744   3.418 -0.0090 -0.7620 -0.3796
31245SOL     OW99570   2.162   0.884   9.603 -0.7679  0.5806  0.4407
31245SOL    HW199571   2.215   0.962   9.589 -0.3114  0.1967 -0.0147
31245SOL    HW299572   2.217   0.812   9.572 -0.8264 -0.0163  1.6798
31246SOL     OW99573   3.237   3.845   8.518  0.0547 -0.5514 -0.2362
31246SOL    HW199574   3.149   3.869   8.547 -0.0649 -0.2734 -0.8090
31246SOL    HW299575   3.236   3.750   8.514  0.0485 -0.5920  0.5748
31247SOL     OW99576   3.860   3.785   0.737 -0.2992 -0.1165  0.5035
31247SOL    HW199577   3.784   3.758   0.684  0.8346 -1.9307 -0.2750
31247SOL    HW299578   3.859   3.726   0.812  1.7461 -2.0251 -0.8181
31248SOL     OW99579  10.763   4.946   0.202  0.0592  0.1740 -0.6501
31248SOL    HW199580  10.808   4.976   0.281  0.1166 -1.5930  0.0324
31248SOL    HW299581  10.675   4.981   0.209 -0.3115 -0.9757  0.8511
31249SOL     OW99582   5.672   6.405   2.397  0.0861  0.2037 -0.3993
31249SOL    HW199583   5.718   6.330   2.358 -0.5082  0.7202 -2.2290
31249SOL    HW299584   5.625   6.368   2.472  0.9065 -0.9715 -0.4427
31250SOL     OW99585   8.794   1.618  10.591 -0.0173 -0.0334  0.1224
31250SOL    HW199586   8.811   1.622  10.685  0.7037 -1.4421  0.0805
31250SOL    HW299587   8.879   1.631  10.550  0.1155 -1.7935 -0.2455
31251SOL     OW99588   6.317   4.211   0.067  0.1879 -0.2720 -0.0030
31251SOL    HW199589   6.249   4.215   0.000 -0.5797 -0.3091  0.7604
31251SOL    HW299590   6.363   4.295   0.061 -0.5085  0.1209  0.0726
31252SOL     OW99591   2.830   2.663   7.941  0.0376  0.0541  0.1198
31252SOL    HW199592   2.892   2.724   7.981  2.0092 -1.6148 -0.1880
31252SOL    HW299593   2.754   2.663   7.999  1.3090  0.4199  1.8626
31253SOL     OW99594   7.693   7.900   6.991 -0.2628  0.2581  0.1816
31253SOL    HW199595   7.676   7.903   6.897 -0.5220  0.4722  0.2334
31253SOL    HW299596   7.639   7.828   7.023 -1.4145  1.2012  0.4115
31254SOL     OW99597   1.965   9.142   8.624 -0.0125 -0.1510 -0.4218
31254SOL    HW199598   1.945   9.109   8.712 -0.9568  2.0979  0.2757
31254SOL    HW299599   1.893   9.202   8.604  1.0951  0.7316 -1.9949
31255SOL     OW99600   8.565  10.592   8.311 -0.0837  0.7884 -0.9205
31255SOL    HW199601   8.509  10.664   8.340  0.8313  1.7060 -1.3967
31255SOL    HW299602   8.651  10.631   8.300  0.3663 -0.3212 -1.4640
31256SOL     OW99603   9.721   5.429   5.846  0.8195 -0.4523  0.1699
31256SOL    HW199604   9.692   5.432   5.755 -0.5079 -2.1864  0.4970
31256SOL    HW299605   9.807   5.387   5.843  0.7424 -0.5772 -0.2662
31257SOL     OW99606   6.002   5.944   4.532  0.2130 -0.3858 -0.0848
31257SOL    HW199607   6.016   5.899   4.449  0.6999  0.5544 -0.5276
31257SOL    HW299608   5.913   5.979   4.525  0.5502  0.4059 -0.5734
31258SOL     OW99609   8.337   3.531   5.732 -0.3289 -1.2176  0.0728
31258SOL    HW199610   8.430   3.534   5.756 -0.9083  0.4063  2.4654
31258SOL    HW299611   8.331   3.582   5.651  0.9754 -2.2941 -0.7532
31259SOL     OW99612   1.434   6.771   0.662 -0.1014 -0.2155 -0.5252
31259SOL    HW199613   1.445   6.857   0.703 -0.3376  0.4745 -1.8595
31259SOL    HW299614   1.523   6.737   0.654 -0.1631 -1.3472  2.4897
31260SOL     OW99615   0.762   5.623   9.092  0.1318 -0.7569 -0.2444
31260SOL    HW199616   0.783   5.530   9.099 -0.0912 -0.7288  0.9369
31260SOL    HW299617   0.726   5.646   9.178 -1.9948 -0.1208 -1.2245
31261SOL     OW99618   4.090   0.853   8.910  0.2426 -0.2238  0.1555
31261SOL    HW199619   4.150   0.887   8.976  0.1884 -1.0093  0.6155
31261SOL    HW299620   4.007   0.843   8.957  0.1144 -0.4601 -0.1224
31262SOL     OW99621  10.345   6.633   0.459 -0.0943 -0.9105  0.1472
31262SOL    HW199622  10.266   6.675   0.495  0.5126  1.7422 -1.3432
31262SOL    HW299623  10.322   6.613   0.369  0.9587  0.0945 -0.3659
31263SOL     OW99624   6.016   8.679   9.320  0.4521  0.1471 -0.5442
31263SOL    HW199625   6.020   8.751   9.384 -0.7208  0.4279 -0.7759
31263SOL    HW299626   5.947   8.704   9.259 -0.6979 -1.6263 -0.0655
31264SOL     OW99627   6.441   0.783   2.547  0.0354  0.0089 -0.5638
31264SOL    HW199628   6.532   0.754   2.538 -0.1044 -0.3016 -1.0416
31264SOL    HW299629   6.398   0.749   2.468 -0.3240  0.8082 -0.7221
31265SOL     OW99630   9.333  10.180   0.163 -0.4037  0.0426  0.0708
31265SOL    HW199631   9.264  10.246   0.172  0.9658  2.5972 -4.6686
31265SOL    HW299632   9.289  10.105   0.122 -0.9365  0.4102 -0.0397
31266SOL     OW99633   9.106   0.788   3.322 -0.1028  0.6070  0.1244
31266SOL    HW199634   9.164   0.837   3.263 -0.1626  0.1433 -0.3248
31266SOL    HW299635   9.039   0.852   3.347 -0.0802  0.8127 -0.3172
31267SOL     OW99636   3.458   0.085   1.088 -0.3703  0.0134  0.2867
31267SOL    HW199637   3.525   0.020   1.067  0.6089  1.2331 -0.5022
31267SOL    HW299638   3.375   0.038   1.078  0.2939 -1.0165 -0.6336
31268SOL     OW99639   9.010  10.350   6.642  0.5172 -0.0986  0.3339
31268SOL    HW199640   9.034  10.258   6.638  0.0470 -0.2345 -3.6532
31268SOL    HW299641   8.915  10.351   6.645  0.5287  0.2539  0.6658
31269SOL     OW99642   2.491   5.103   1.176  0.1733  0.5245 -0.4235
31269SOL    HW199643   2.569   5.092   1.122 -0.2341 -1.0435 -0.7432
31269SOL    HW299644   2.442   5.172   1.133 -0.1250 -0.6607 -2.0785
31270SOL     OW99645  10.882   9.915  10.115  0.2364 -0.4634 -0.0341
31270SOL    HW199646  10.875   9.866  10.033 -0.1875 -0.8407  0.2206
31270SOL    HW299647  10.795   9.955  10.127  0.6068  0.4274 -0.2845
31271SOL     OW99648   7.442  10.553   4.341 -0.4347 -0.1118 -0.0996
31271SOL    HW199649   7.396  10.634   4.363 -1.7200 -1.5217  2.8633
31271SOL    HW299650   7.486  10.527   4.422  1.4120 -1.5412 -1.4533
31272SOL     OW99651   0.283   4.162   3.301 -0.4905  0.0738  0.6775
31272SOL    HW199652   0.343   4.120   3.363 -1.3092 -1.4604  0.4683
31272SOL    HW299653   0.308   4.254   3.303  0.3710 -0.1547  2.3013
31273SOL     OW99654   7.084  10.100   0.608  0.1016 -0.2645  0.1866
31273SOL    HW199655   7.106  10.047   0.531  1.0405  0.0573  0.2226
31273SOL    HW299656   7.032  10.173   0.573  0.6264 -0.0537 -0.1651
31274SOL     OW99657   4.909   9.823   3.350 -0.6041  0.0527  0.5090
31274SOL    HW199658   5.003   9.813   3.333 -0.8439 -2.7687  0.3786
31274SOL    HW299659   4.904   9.852   3.441  0.3889  2.7871 -0.2157
31275SOL     OW99660   2.463   3.215   7.570  0.3130 -0.2446 -0.3364
31275SOL    HW199661   2.535   3.209   7.633  1.8732 -0.0853 -2.0236
31275SOL    HW299662   2.439   3.307   7.571  1.0268 -0.0463 -0.6927
31276SOL     OW99663   5.444   9.545   3.751 -0.0464  0.0146  0.3986
31276SOL    HW199664   5.532   9.517   3.776 -0.0127 -1.2133 -0.9420
31276SOL    HW299665   5.389   9.520   3.824  0.6218  0.2307  0.9895
31277SOL     OW99666   1.985   2.549   7.150 -0.0367  0.1816  0.0931
31277SOL    HW199667   1.961   2.529   7.060  0.1403  0.8947 -0.1159
31277SOL    HW299668   2.080   2.536   7.152 -0.1692 -0.8527  0.4531
31278SOL     OW99669   9.663   6.224   7.458  0.1014 -0.6641  0.2489
31278SOL    HW199670   9.618   6.160   7.404 -0.6490 -0.9414  1.1844
31278SOL    HW299671   9.629   6.210   7.546  1.7092 -0.6036  0.9194
31279SOL     OW99672  10.550   0.064   6.443 -0.0531  0.9125  0.2114
31279SOL    HW199673  10.457   0.049   6.461  0.0220 -0.5041 -0.4208
31279SOL    HW299674  10.556   0.070   6.348  0.9443 -3.2227 -0.1783
31280SOL     OW99675   7.036   6.261   6.661 -0.1408 -0.3406  0.3793
31280SOL    HW199676   6.961   6.208   6.633 -1.2781  0.6076  1.4769
31280SOL    HW299677   7.030   6.340   6.608 -0.0035 -0.2105  0.5574
31281SOL     OW99678   6.308   4.782   1.701 -0.6117 -0.2575 -0.0826
31281SOL    HW199679   6.219   4.757   1.677 -0.3883  0.0845 -1.3500
31281SOL    HW299680   6.312   4.769   1.795 -1.8809 -0.6544 -0.0644
31282SOL     OW99681  10.732   0.663   6.298 -0.0715  0.4164  0.1499
31282SOL    HW199682  10.769   0.610   6.227 -1.5251 -0.0207 -0.3188
31282SOL    HW299683  10.721   0.750   6.259 -0.3578  0.3170  0.0044
31283SOL     OW99684   0.465   1.356   9.038 -0.0994 -0.6569  0.1292
31283SOL    HW199685   0.429   1.341   8.951  0.5003 -0.3043 -0.1866
31283SOL    HW299686   0.525   1.283   9.053 -2.2474 -2.2712  1.4108
31284SOL     OW99687  10.625   3.205   5.974  0.3003 -0.5393  0.1220
31284SOL    HW199688  10.683   3.235   5.904  1.0148 -1.3265  0.3617
31284SOL    HW299689  10.683   3.188   6.048 -0.1114 -2.0776  0.1338
31285SOL     OW99690   6.018   2.020   0.447  0.3093 -0.2508  0.2593
31285SOL    HW199691   5.977   1.938   0.474  0.9871 -0.7055 -0.0930
31285SOL    HW299692   5.948   2.068   0.402  0.0241 -0.7996  0.1118
31286SOL     OW99693   7.827   5.320   6.154 -0.3471 -0.0447 -0.1214
31286SOL    HW199694   7.825   5.408   6.118  1.4686 -0.3265 -1.0576
31286SOL    HW299695   7.807   5.331   6.247 -0.9964  1.2283 -0.3966
31287SOL     OW99696   9.677   9.604   8.983  0.6348  0.3389 -0.1189
31287SOL    HW199697   9.676   9.695   9.015  0.5965  0.4514 -0.4336
31287SOL    HW299698   9.635   9.554   9.053  0.5368  0.5828  0.0013
31288SOL     OW99699   2.043   3.891   2.487  0.3789  0.7651 -0.3730
31288SOL    HW199700   2.073   3.879   2.397  0.2627  1.1215 -0.4612
31288SOL    HW299701   1.966   3.834   2.494  1.2013 -0.3501 -0.0674
31289SOL     OW99702   5.729   4.523   4.839  0.4386 -0.8160 -0.3763
31289SOL    HW199703   5.758   4.544   4.927 -0.8625  2.6898 -0.6422
31289SOL    HW299704   5.713   4.428   4.841 -0.3867 -0.7528  3.4082
31290SOL     OW99705   1.029  10.220   6.724  0.8539  0.4864 -0.9150
31290SOL    HW199706   1.038  10.157   6.796  0.1044 -0.0154 -1.2457
31290SOL    HW299707   1.108  10.273   6.729  1.0814  0.0957 -0.0688
31291SOL     OW99708   6.328   4.114   1.572  0.1115 -0.0939 -0.1180
31291SOL    HW199709   6.414   4.077   1.554  0.4292  0.2467  0.6609
31291SOL    HW299710   6.280   4.104   1.490  0.8179 -0.4849 -0.4922
31292SOL     OW99711   6.383   5.845   6.087 -0.5151  0.1062 -0.1937
31292SOL    HW199712   6.468   5.889   6.097 -1.2694  1.9073 -1.1801
31292SOL    HW299713   6.362   5.855   5.994 -2.0183  0.1100  0.1271
31293SOL     OW99714   3.358   0.540   0.955  0.5021  0.3600 -0.2417
31293SOL    HW199715   3.323   0.607   1.014  0.0326  0.6406 -0.8269
31293SOL    HW299716   3.407   0.590   0.889  0.5151  0.0968 -0.4341
31294SOL     OW99717   2.143   7.326   0.496  0.0475 -0.3029  0.0222
31294SOL    HW199718   2.196   7.249   0.478  2.7364  1.9225 -2.5323
31294SOL    HW299719   2.157   7.344   0.589  1.8503 -1.1732 -0.0369
31295SOL     OW99720   7.410   6.298   4.794 -0.1943  0.1649  0.0656
31295SOL    HW199721   7.496   6.289   4.753 -0.1566 -2.1104  0.4672
31295SOL    HW299722   7.395   6.392   4.799  2.2381  0.6309 -0.0611
31296SOL     OW99723   4.051   3.240   8.125 -0.6941 -0.1525 -0.4292
31296SOL    HW199724   4.017   3.320   8.085 -1.8195  0.5784  1.8308
31296SOL    HW299725   3.974   3.198   8.165 -0.0672 -2.1965 -1.2069
31297SOL     OW99726   4.723   1.364   0.780  0.0034  0.3712  0.0942
31297SOL    HW199727   4.806   1.388   0.822  0.2050 -1.4234  0.7883
31297SOL    HW299728   4.745   1.289   0.726 -1.6825 -2.1633  2.6737
31298SOL     OW99729   0.136   3.511   5.587  0.9083 -0.5384 -0.1503
31298SOL    HW199730   0.077   3.550   5.651 -0.0720 -0.9094 -0.8037
31298SOL    HW299731   0.223   3.539   5.614  0.2728  2.0690 -0.5265
31299SOL     OW99732   7.268   7.781  10.795 -0.0624  0.0567 -0.5035
31299SOL    HW199733   7.245   7.822  10.878 -0.3481 -0.9470 -0.0760
31299SOL    HW299734   7.186   7.743  10.763  0.3706 -0.9686 -0.4344
31300SOL     OW99735   1.584   2.952   8.075  0.1340 -0.1536 -0.2798
31300SOL    HW199736   1.534   3.012   8.130 -1.9037 -2.3201  0.3738
31300SOL    HW299737   1.673   2.988   8.075 -0.8843  2.5911  0.3795
31301SOL     OW99738   7.296   8.875   7.228  0.5370  0.0457 -0.0569
31301SOL    HW199739   7.237   8.947   7.209  0.3247 -0.4576 -1.3887
31301SOL    HW299740   7.256   8.799   7.185  0.3804 -1.0421  1.9102
31302SOL     OW99741   0.617   2.729   4.367 -0.2705 -0.4862 -0.3965
31302SOL    HW199742   0.555   2.722   4.294  0.6336  1.3039 -1.3963
31302SOL    HW299743   0.637   2.638   4.389 -1.3808 -1.0821 -1.6772
31303SOL     OW99744   1.764   0.438  10.173 -0.2980  0.3678  0.6640
31303SOL    HW199745   1.696   0.502  10.193  0.0910  0.1304  3.0299
31303SOL    HW299746   1.717   0.355  10.161 -0.7114  0.8591 -1.4653
31304SOL     OW99747  10.646   3.697   4.791  0.3730  0.4880  0.5755
31304SOL    HW199748  10.694   3.694   4.874 -2.0364  2.6155  2.2077
31304SOL    HW299749  10.697   3.757   4.736  1.9217 -0.8382  0.4807
31305SOL     OW99750   1.723   2.646  10.068  0.3427 -0.1734 -0.0235
31305SOL    HW199751   1.717   2.550  10.076 -1.2820 -0.0802  0.2202
31305SOL    HW299752   1.639   2.678  10.103  0.1593  1.2434 -1.6507
31306SOL     OW99753   2.401   7.746   5.209  0.1975  0.0577 -0.5589
31306SOL    HW199754   2.310   7.764   5.186  0.0498 -1.4154 -1.2242
31306SOL    HW299755   2.401   7.656   5.241  1.0264  0.8353  1.8181
31307SOL     OW99756   0.347   6.928   2.180 -0.0376 -0.1907 -0.1677
31307SOL    HW199757   0.303   7.003   2.140  0.9532  2.3675  3.1442
31307SOL    HW299758   0.440   6.943   2.163  0.4784  1.3006  3.2464
31308SOL     OW99759   0.058   9.217   6.824 -0.2156  0.1063  0.4689
31308SOL    HW199760   0.026   9.301   6.857  0.9805  1.0271 -0.6159
31308SOL    HW299761   0.145   9.207   6.861  0.0217 -0.2007 -0.1512
31309SOL     OW99762   3.279   4.787  10.361 -0.1510 -0.1604 -0.0038
31309SOL    HW199763   3.365   4.775  10.320  0.3047  0.6049  0.6763
31309SOL    HW299764   3.217   4.787  10.289  0.6169  1.0341 -0.7062
31310SOL     OW99765   5.906   8.621   8.944 -0.2109  0.5904 -0.2144
31310SOL    HW199766   5.864   8.640   9.028  1.8860  0.5339  0.9116
31310SOL    HW299767   5.849   8.662   8.879 -2.2571  0.0433  1.1450
31311SOL     OW99768   3.429   0.053   2.229 -0.0780 -0.1533 -0.2643
31311SOL    HW199769   3.489   0.046   2.304 -1.6213 -1.1692  0.9575
31311SOL    HW299770   3.440   0.142   2.198 -0.4189  0.8153  2.1403
31312SOL     OW99771   8.001   2.065   6.946 -0.6339 -0.6037  0.0128
31312SOL    HW199772   7.922   2.064   7.000 -0.8749  1.3833 -0.2173
31312SOL    HW299773   7.970   2.094   6.860  0.5117  1.8263  0.3307
31313SOL     OW99774   4.697   1.863   9.953 -0.3990 -0.2643  0.4394
31313SOL    HW199775   4.630   1.912   9.905 -0.5814  1.9767  2.7827
31313SOL    HW299776   4.755   1.930   9.988  0.8699 -1.9328  1.6681
31314SOL     OW99777   6.449  10.872   3.207 -0.2105  0.0716 -0.0270
31314SOL    HW199778   6.493  10.956   3.210  0.4211 -0.2756  0.9417
31314SOL    HW299779   6.470  10.837   3.120  0.3331  0.4806 -0.0660
31315SOL     OW99780   7.746   4.584   0.585 -0.1878  0.0251 -0.0601
31315SOL    HW199781   7.675   4.646   0.570 -0.3426  0.1225  0.9466
31315SOL    HW299782   7.825   4.638   0.581 -0.2204  0.0435 -0.4930
31316SOL     OW99783   4.676   0.980   4.031 -0.3107 -0.0652  0.6302
31316SOL    HW199784   4.673   1.067   3.993  0.4582 -0.8448 -1.3262
31316SOL    HW299785   4.765   0.973   4.068 -0.0765 -0.3021  0.0346
31317SOL     OW99786   4.447   3.858   1.259 -0.1984 -0.2325  0.0398
31317SOL    HW199787   4.414   3.789   1.317 -0.7561  0.1036  0.1345
31317SOL    HW299788   4.403   3.938   1.290  2.0273  0.5871  1.3251
31318SOL     OW99789   0.292   9.564   3.858  0.3471  0.5930 -0.1355
31318SOL    HW199790   0.265   9.546   3.948  0.6944  0.2532 -0.0934
31318SOL    HW299791   0.211   9.585   3.812  0.4065  3.3454  0.8181
31319SOL     OW99792   5.412   2.495   0.631 -0.2369  0.3467 -0.0566
31319SOL    HW199793   5.496   2.458   0.602 -1.2859 -2.1211 -0.2497
31319SOL    HW299794   5.389   2.558   0.563  0.6754 -0.2002 -0.9081
31320SOL     OW99795   1.774   5.384   4.888  0.6521 -0.5389 -0.1533
31320SOL    HW199796   1.766   5.386   4.793  2.0877  0.0636 -0.2863
31320SOL    HW299797   1.838   5.452   4.908 -0.5322  0.1901  1.3580
31321SOL     OW99798   9.661   7.766   1.731 -0.3388  0.4523  0.6250
31321SOL    HW199799   9.721   7.829   1.691  0.6832 -0.5282  0.5703
31321SOL    HW299800   9.576   7.783   1.690  0.3396  0.5481 -0.7578
31322SOL     OW99801   9.536   1.943  10.165 -0.3254 -0.2794 -0.1600
31322SOL    HW199802   9.494   1.873  10.117  0.5924 -0.8518 -0.1525
31322SOL    HW299803   9.576   1.998  10.098 -0.8594  0.1293 -0.1545
31323SOL     OW99804   5.189   5.003   1.281  0.0228 -0.5101 -0.1952
31323SOL    HW199805   5.205   5.056   1.203  1.0005 -0.3997  0.0651
31323SOL    HW299806   5.274   5.000   1.326 -0.3801 -1.0671  0.5554
31324SOL     OW99807   6.962   7.779   6.494 -0.4967 -0.0797 -0.0656
31324SOL    HW199808   7.002   7.693   6.505 -0.4420  0.0146  0.5228
31324SOL    HW299809   6.883   7.777   6.547 -1.0828 -0.1306 -0.9190
31325SOL     OW99810   0.828   0.002   7.811 -0.2693 -0.4653 -0.6132
31325SOL    HW199811   0.783   0.086   7.823  0.8980 -0.0070  0.7399
31325SOL    HW299812   0.903   0.022   7.756  0.4061 -0.4835  0.2962
31326SOL     OW99813   3.227   0.775  10.222  0.2361 -0.2367  0.1329
31326SOL    HW199814   3.150   0.829  10.242  1.1678  0.5944  1.7130
31326SOL    HW299815   3.300   0.837  10.218  0.9248 -1.0685 -0.7973
31327SOL     OW99816   4.332  10.118   5.723  0.4106 -0.5033  0.6006
31327SOL    HW199817   4.393  10.116   5.797  2.7303 -0.4735 -1.2065
31327SOL    HW299818   4.329  10.027   5.693 -0.8505 -0.5912  0.9402
31328SOL     OW99819   6.271   0.093   8.768  0.2730 -0.1934  0.6683
31328SOL    HW199820   6.331   0.090   8.844  1.3896  1.2233 -0.1130
31328SOL    HW299821   6.250   0.185   8.758 -3.1114 -0.7407  1.6434
31329SOL     OW99822   2.455   3.413   7.941  0.2501  0.7720 -0.6025
31329SOL    HW199823   2.478   3.354   8.012 -1.1889  0.3492 -0.4461
31329SOL    HW299824   2.390   3.365   7.889  0.3440  1.5499 -1.4766
31330SOL     OW99825  10.069   2.109   4.845  0.1990 -0.0100 -0.2313
31330SOL    HW199826  10.077   2.015   4.857  0.0289  0.1921  1.9303
31330SOL    HW299827   9.988   2.132   4.891  0.9031  1.3373  0.3793
31331SOL     OW99828   2.427  10.484   7.344 -1.0693 -0.0626  0.4230
31331SOL    HW199829   2.426  10.529   7.259 -0.2632 -0.2522  0.3107
31331SOL    HW299830   2.394  10.548   7.406 -0.4747  0.4970  0.1673
31332SOL     OW99831   4.308   6.719   9.672 -0.1792  1.0047  0.2965
31332SOL    HW199832   4.251   6.678   9.736  0.6926 -0.5086  0.1517
31332SOL    HW299833   4.384   6.749   9.722  0.6492 -0.4609 -0.0237
31333SOL     OW99834   6.307   7.341   5.619 -0.0838 -0.2429 -0.1774
31333SOL    HW199835   6.326   7.430   5.649 -1.0493 -0.0274 -0.1578
31333SOL    HW299836   6.222   7.349   5.576 -1.2925 -1.5572  1.7954
31334SOL     OW99837   3.972   2.068   5.231 -0.3067 -0.0771  0.0137
31334SOL    HW199838   3.945   2.038   5.144 -2.9337 -1.6320  1.2429
31334SOL    HW299839   4.063   2.040   5.239 -0.9600 -2.7475 -1.0756
31335SOL     OW99840   1.845   7.547   1.440  0.4360  0.0673  0.4492
31335SOL    HW199841   1.905   7.493   1.492 -0.3530 -0.2214  1.0950
31335SOL    HW299842   1.762   7.500   1.445  0.1440  0.4948 -0.3747
31336SOL     OW99843   0.022   4.099   4.093  0.0328 -0.4093  0.1226
31336SOL    HW199844   0.063   4.091   4.007 -0.1372 -1.0002  0.0915
31336SOL    HW299845   0.033   4.013   4.133  0.2664 -0.0855  0.7633
31337SOL     OW99846   4.810  10.532   1.987  0.5946 -0.2535  0.7183
31337SOL    HW199847   4.852  10.462   2.036 -3.2210 -3.8375 -0.5558
31337SOL    HW299848   4.801  10.497   1.898  1.1477  3.1764 -0.8438
31338SOL     OW99849   2.972   0.605   0.537 -0.4009 -0.0028 -0.0384
31338SOL    HW199850   3.042   0.655   0.579 -0.6451  0.1049  0.2442
31338SOL    HW299851   3.002   0.592   0.447 -0.2656  0.5221 -0.0732
31339SOL     OW99852   0.061   1.349   5.570 -0.4126 -0.4080  0.0797
31339SOL    HW199853   0.097   1.407   5.638 -2.8693  0.9328  0.3650
31339SOL    HW299854   0.134   1.292   5.546  1.6065  1.5417  1.1792
31340SOL     OW99855  10.084  10.299   8.863  0.2962 -0.2895 -0.1830
31340SOL    HW199856  10.013  10.293   8.926 -0.1024  0.0357 -0.5872
31340SOL    HW299857  10.104  10.208   8.841  2.0366 -0.5487  2.1212
31341SOL     OW99858   7.821   9.378   2.101  0.1270  0.4666  0.3883
31341SOL    HW199859   7.760   9.384   2.175 -1.2859 -0.7112 -0.6283
31341SOL    HW299860   7.772   9.414   2.027  0.3459 -1.2594 -0.6253
31342SOL     OW99861   1.692   2.796   6.108  0.0599  0.2165  0.3110
31342SOL    HW199862   1.714   2.887   6.130  1.9615 -0.0725 -0.1860
31342SOL    HW299863   1.599   2.788   6.126 -0.0935  2.2113  0.5523
31343SOL     OW99864   1.906  10.450   9.666 -0.0708 -0.7528 -0.0821
31343SOL    HW199865   1.901  10.533   9.619  1.6405 -1.0552 -0.8827
31343SOL    HW299866   1.816  10.417   9.666 -0.4423  0.1670 -1.4873
31344SOL     OW99867   8.365   7.041   5.755 -0.4980 -0.5683  0.2673
31344SOL    HW199868   8.396   6.976   5.692  0.3568 -0.6039  0.7137
31344SOL    HW299869   8.305   7.096   5.705  1.6017  0.6030 -1.1383
31345SOL     OW99870   0.035   2.699   8.915 -0.4358 -0.1585  0.3809
31345SOL    HW199871   0.038   2.624   8.975 -0.8916 -0.6373 -0.1882
31345SOL    HW299872  -0.044   2.747   8.941  0.0027  0.2934  0.9254
31346SOL     OW99873   2.156   2.224   7.257  0.5795  0.4437 -0.2045
31346SOL    HW199874   2.187   2.242   7.346  1.5670 -0.5056 -0.3310
31346SOL    HW299875   2.167   2.307   7.211  2.9959  0.1820 -0.2281
31347SOL     OW99876   3.886   7.469   9.572  0.0763  0.5571  0.0621
31347SOL    HW199877   3.844   7.513   9.645 -1.3179  0.7580 -0.8227
31347SOL    HW299878   3.834   7.390   9.559 -0.5949  1.2277 -1.6006
31348SOL     OW99879   8.782   2.688   8.327  0.7356 -0.3019  0.2403
31348SOL    HW199880   8.867   2.709   8.291  0.5706 -0.8753 -0.5068
31348SOL    HW299881   8.786   2.594   8.346  0.5308 -0.1811  0.9248
31349SOL     OW99882   4.406  10.667   1.349 -1.0247  0.0177  0.9071
31349SOL    HW199883   4.426  10.754   1.315  0.2865 -0.6579 -0.1264
31349SOL    HW299884   4.389  10.614   1.271 -1.7376 -0.6844  1.5243
31350SOL     OW99885   2.440  10.309   8.541  0.5106  0.5328 -0.8201
31350SOL    HW199886   2.362  10.276   8.587  1.4534  0.4487  0.7977
31350SOL    HW299887   2.443  10.402   8.563  1.4904  0.2999  0.1017
31351SOL     OW99888   0.557   4.395   8.045  0.3742  0.2555  0.3681
31351SOL    HW199889   0.570   4.305   8.073  1.2020 -0.6861 -2.6941
31351SOL    HW299890   0.465   4.398   8.017  0.3777  0.3631  0.3679
31352SOL     OW99891   1.345   9.333   9.719 -0.1730  0.4291  0.5475
31352SOL    HW199892   1.422   9.349   9.774 -0.4994  0.2356  1.0721
31352SOL    HW299893   1.360   9.387   9.641  0.5506  0.2964  0.5831
31353SOL     OW99894   2.304   5.107   7.931  0.4498 -0.2934 -0.4119
31353SOL    HW199895   2.225   5.161   7.934 -0.0654 -1.0783  0.5741
31353SOL    HW299896   2.370   5.164   7.892 -0.5853  0.3895 -1.2119
31354SOL     OW99897   4.402   7.992   6.674  0.1245  0.1100 -0.0563
31354SOL    HW199898   4.482   8.035   6.703 -0.2049 -0.1688  1.3643
31354SOL    HW299899   4.346   7.992   6.752 -0.9704 -0.3518 -0.8233
31355SOL     OW99900   8.975   4.164   6.201  0.2253 -0.2207  0.4925
31355SOL    HW199901   9.030   4.222   6.148 -1.4868 -2.0546 -3.7173
31355SOL    HW299902   8.994   4.076   6.168 -3.4355 -1.1663  0.4629
31356SOL     OW99903   8.666   6.419  10.333  0.6163  0.0009  0.1464
31356SOL    HW199904   8.620   6.341  10.366  0.0824  0.3162  0.1481
31356SOL    HW299905   8.676   6.403  10.239  0.5281 -0.0799  0.1510
31357SOL     OW99906   4.966   8.313   6.748 -0.4314 -0.1895 -0.0215
31357SOL    HW199907   4.985   8.279   6.835 -2.2808 -1.5862 -0.1184
31357SOL    HW299908   4.872   8.330   6.748 -0.4452 -0.0746 -1.7108
31358SOL     OW99909   6.305   6.305   2.401 -0.5167  0.2637 -0.0027
31358SOL    HW199910   6.348   6.237   2.452  1.6668  1.6790  0.1497
31358SOL    HW299911   6.290   6.265   2.315  0.9584 -0.3520  0.0089
31359SOL     OW99912   9.802   3.501   3.109  0.0833 -0.2277  0.7407
31359SOL    HW199913   9.800   3.545   3.194 -0.1735  0.6377  0.2950
31359SOL    HW299914   9.876   3.541   3.063 -1.6930  1.6663 -0.6612
31360SOL     OW99915  10.689   0.771   4.147 -0.5350  0.0551 -0.1302
31360SOL    HW199916  10.655   0.825   4.075  0.9482 -0.9504 -1.6655
31360SOL    HW299917  10.670   0.822   4.226 -0.3212  2.2466 -1.4026
31361SOL     OW99918   8.013   4.131   5.438  0.5781  0.8998  0.4695
31361SOL    HW199919   7.946   4.196   5.459  0.2962  1.0197 -0.7168
31361SOL    HW299920   7.978   4.049   5.470 -0.3091  0.9071 -0.4159
31362SOL     OW99921   1.671   0.672   1.042  0.3480 -0.0928 -0.1542
31362SOL    HW199922   1.611   0.640   1.109 -0.8173 -0.0647 -1.1494
31362SOL    HW299923   1.657   0.614   0.968  1.1026  0.3024 -0.6153
31363SOL     OW99924   1.569   0.332   9.890 -0.1080 -0.6566  0.3149
31363SOL    HW199925   1.538   0.398   9.827  2.8548  0.7964  0.2192
31363SOL    HW299926   1.526   0.251   9.862 -2.6036  0.8394 -0.5841
31364SOL     OW99927   0.748   7.667   8.431  0.2236 -0.2001 -0.7081
31364SOL    HW199928   0.837   7.641   8.454  0.4012  0.2244 -0.9085
31364SOL    HW299929   0.734   7.629   8.344  0.1274 -0.4535 -0.5833
31365SOL     OW99930   0.123   3.853   5.102 -0.1539 -0.6064 -0.4131
31365SOL    HW199931   0.064   3.897   5.164 -1.2421 -0.5044 -1.4842
31365SOL    HW299932   0.175   3.794   5.156 -0.7984 -0.2296  0.6493
31366SOL     OW99933   1.109   2.223   9.484 -0.3798 -0.0764  0.1872
31366SOL    HW199934   1.192   2.204   9.529  0.2993  0.2120 -0.8933
31366SOL    HW299935   1.113   2.317   9.467  0.8809 -0.6073 -3.2197
31367SOL     OW99936   1.822   9.536   3.926 -0.1003  0.3465  0.1936
31367SOL    HW199937   1.898   9.491   3.888  1.1761  1.3919  1.3763
31367SOL    HW299938   1.799   9.604   3.862 -0.2996 -0.2283 -0.3516
31368SOL     OW99939   1.092   4.409   1.350  0.3415 -0.0706  0.2028
31368SOL    HW199940   1.111   4.425   1.442 -0.0765 -0.8214  0.4311
31368SOL    HW299941   0.997   4.394   1.347  0.5429 -1.4276 -0.1251
31369SOL     OW99942   0.729   8.922   2.035 -0.3088  0.2057  0.6615
31369SOL    HW199943   0.789   8.997   2.037  0.5549 -0.4506  0.1339
31369SOL    HW299944   0.687   8.923   2.121 -0.3232  1.2952  0.6563
31370SOL     OW99945   5.516   3.779   7.339 -0.8778  0.0906 -0.6241
31370SOL    HW199946   5.583   3.775   7.407 -0.1154  0.2444 -1.3442
31370SOL    HW299947   5.472   3.863   7.353 -1.5085 -0.3973  0.3840
31371SOL     OW99948   2.085   5.481   6.164 -0.0481 -0.2416  0.2852
31371SOL    HW199949   2.072   5.475   6.070  1.0417  1.5629 -0.0231
31371SOL    HW299950   2.142   5.407   6.185 -0.3512 -0.6912 -0.4543
31372SOL     OW99951   2.917  10.613   7.446  0.2581  0.1010  0.1623
31372SOL    HW199952   2.875  10.567   7.518  0.6532 -0.6761 -0.0965
31372SOL    HW299953   2.849  10.671   7.411 -0.5555 -1.0093 -0.1354
31373SOL     OW99954   8.383   4.929   4.705  0.0502  0.0316 -0.0703
31373SOL    HW199955   8.421   5.017   4.703 -1.1986  0.5864 -1.4101
31373SOL    HW299956   8.352   4.915   4.615  1.5450 -2.4013 -0.3027
31374SOL     OW99957   1.980   8.515   5.123  0.1788 -0.5075 -0.4193
31374SOL    HW199958   2.017   8.594   5.084 -0.2457  0.2415  0.6388
31374SOL    HW299959   1.940   8.469   5.050 -0.0296  0.5197 -0.9736
31375SOL     OW99960   5.746   1.310   0.125 -0.4663  0.5747 -0.4071
31375SOL    HW199961   5.824   1.295   0.180 -0.1087 -0.8986 -1.2489
31375SOL    HW299962   5.764   1.392   0.079  0.6916  0.1616 -0.7288
31376SOL     OW99963   6.615   3.468   6.460 -0.0218  0.0176 -0.2803
31376SOL    HW199964   6.710   3.454   6.460 -0.1453 -1.1136  1.0726
31376SOL    HW299965   6.596   3.495   6.550 -1.1780 -1.5065 -0.0373
31377SOL     OW99966   6.269   1.051   6.581  0.1520 -0.1008  0.2155
31377SOL    HW199967   6.255   1.089   6.495  2.0491 -2.2591 -1.1664
31377SOL    HW299968   6.218   0.971   6.581  0.9322 -0.6130  0.7048
31378SOL     OW99969   9.107   5.334   0.841  0.2771  0.5072  0.4776
31378SOL    HW199970   9.123   5.393   0.914  2.5595 -0.7541  1.0762
31378SOL    HW299971   9.100   5.247   0.881  1.3175 -0.1799 -0.7364
31379SOL     OW99972   9.371   8.340   1.207 -0.2281 -0.1142  0.5277
31379SOL    HW199973   9.431   8.282   1.255  0.6033 -0.0475 -0.3870
31379SOL    HW299974   9.291   8.289   1.197  0.6629 -1.3512 -0.7025
31380SOL     OW99975   7.275   0.633   7.332 -0.1083 -0.2377 -0.5677
31380SOL    HW199976   7.323   0.561   7.291  0.8366 -0.1172  0.2908
31380SOL    HW299977   7.330   0.659   7.406  0.7088  2.7781 -2.0459
31381SOL     OW99978   8.651   0.797   2.728  0.3950 -0.4665  0.1834
31381SOL    HW199979   8.731   0.835   2.693  1.4494 -2.1435  0.6563
31381SOL    HW299980   8.617   0.863   2.789  2.5917 -0.5544  1.6120
31382SOL     OW99981   5.481   9.119   8.807  0.3042 -0.2243  0.4143
31382SOL    HW199982   5.571   9.097   8.832 -0.1118 -3.2208 -0.3872
31382SOL    HW299983   5.491   9.181   8.734  1.6508  0.5845  1.2425
31383SOL     OW99984   6.827   5.986   4.058 -0.2212 -0.1119 -0.4482
31383SOL    HW199985   6.916   5.960   4.082 -0.9939 -1.1273  1.5705
31383SOL    HW299986   6.794   6.032   4.135 -1.6398 -0.2955 -0.9136
31384SOL     OW99987   4.153   5.195   5.368 -0.2421  0.3899  0.6237
31384SOL    HW199988   4.201   5.240   5.438 -0.4540 -0.0806  1.0748
31384SOL    HW299989   4.111   5.266   5.320 -0.0511  0.7241  0.9387
31385SOL     OW99990   8.410   4.814   5.526  0.1508  0.1834  0.2512
31385SOL    HW199991   8.415   4.794   5.620  0.6803  0.6879  0.3383
31385SOL    HW299992   8.343   4.882   5.520 -0.2499 -0.2093  0.1952
31386SOL     OW99993   2.656   8.617   6.418 -0.3063  0.2287  0.2364
31386SOL    HW199994   2.599   8.603   6.342 -0.6223 -1.2178  0.7229
31386SOL    HW299995   2.666   8.531   6.457 -0.6679  1.0521  2.2366
31387SOL     OW99996   1.818   8.538   3.715 -0.5715  0.0751  0.3175
31387SOL    HW199997   1.760   8.469   3.749 -0.6273  0.2801  0.6372
31387SOL    HW299998   1.804   8.536   3.620  1.0469 -1.8530  0.0546
31388SOL     OW99999   1.964   0.109   3.478 -0.0485 -0.8295  0.5067
31388SOL    HW1    0   1.876   0.147   3.472  0.5536  0.4986 -0.5686
31388SOL    HW2    1   1.989   0.120   3.569  0.0660  1.4305  0.2728
31389SOL     OW    2   6.033   2.944   6.226 -0.0235 -0.4822  0.2979
31389SOL    HW1    3   6.119   2.986   6.223 -0.6876  0.8930 -0.1911
31389SOL    HW2    4   6.022   2.906   6.139  0.0882 -0.7139  0.3803
31390SOL     OW    5   3.110   1.514  10.768  0.0471 -0.4336 -0.1385
31390SOL    HW1    6   3.179   1.492  10.706  0.8142  2.1765 -0.3206
31390SOL    HW2    7   3.031   1.523  10.715  0.4919  0.7664 -0.6458
31391SOL     OW    8   2.680   6.087   8.300  0.0436  0.1536  0.6254
31391SOL    HW1    9   2.607   6.149   8.310 -1.2599 -1.4196  1.4857
31391SOL    HW2   10   2.716   6.078   8.388  1.0899  0.6500  0.2673
31392SOL     OW   11   2.874   5.026   1.266 -0.2729  0.5842  0.2744
31392SOL    HW1   12   2.853   5.086   1.195 -0.6262  2.1242  1.6259
31392SOL    HW2   13   2.801   4.964   1.268 -0.3045  0.5851 -0.6177
31393SOL     OW   14   2.414   6.485   6.481 -0.9673 -0.0006 -0.0429
31393SOL    HW1   15   2.384   6.434   6.405 -0.4875  1.5040 -1.2879
31393SOL    HW2   16   2.342   6.477   6.544 -1.6441 -0.8033 -0.8721
31394SOL     OW   17   9.231   9.176   2.309 -0.4918 -0.3747  0.7597
31394SOL    HW1   18   9.182   9.095   2.319 -1.2456 -0.0693 -0.2368
31394SOL    HW2   19   9.181   9.241   2.358 -0.3622 -0.3354  0.8402
31395SOL     OW   20   3.221   2.116   3.261  0.3199  0.1977  0.6565
31395SOL    HW1   21   3.268   2.099   3.179  1.3754  1.9022  0.8545
31395SOL    HW2   22   3.155   2.182   3.237  0.8782  0.9805  1.2225
31396SOL     OW   23   7.082   3.138   9.286  0.4427 -0.3602  0.2203
31396SOL    HW1   24   7.088   3.221   9.332  0.0253 -1.0848  1.6491
31396SOL    HW2   25   7.042   3.078   9.349  2.4393 -2.1424 -0.0724
31397SOL     OW   26   2.097   8.149   7.266 -1.0810 -0.2827  0.5912
31397SOL    HW1   27   2.062   8.062   7.248 -2.1237  0.3946 -0.7967
31397SOL    HW2   28   2.175   8.155   7.211 -2.3060  0.4791 -1.1493
31398SOL     OW   29   8.538   6.563   4.515  0.4065 -0.0090  0.2642
31398SOL    HW1   30   8.596   6.632   4.544  1.1218 -0.5182  0.0758
31398SOL    HW2   31   8.507   6.592   4.429  1.2817 -0.2460 -0.1448
31399SOL     OW   32   6.483   9.391   3.921  0.7601 -0.2919  0.2738
31399SOL    HW1   33   6.471   9.403   3.827 -0.3057  3.5815  0.7347
31399SOL    HW2   34   6.573   9.359   3.929  0.6918 -1.2751 -2.0488
31400SOL     OW   35   5.029   4.793   7.042  0.5812 -0.2279  0.3827
31400SOL    HW1   36   5.063   4.772   6.955  0.1478 -0.0221  0.1616
31400SOL    HW2   37   5.092   4.753   7.103 -0.5950 -2.8527  0.0008
31401SOL     OW   38   7.491   5.096   2.236 -0.2844 -0.2852 -0.1610
31401SOL    HW1   39   7.575   5.130   2.204 -0.5260  0.7321  0.2512
31401SOL    HW2   40   7.509   5.004   2.256  1.3850  0.4484  2.1235
31402SOL     OW   41   0.801   2.256   1.302  0.4097 -0.2254 -0.2076
31402SOL    HW1   42   0.855   2.180   1.321 -0.2435 -0.9093 -1.0124
31402SOL    HW2   43   0.729   2.252   1.365 -0.6239 -1.3262 -1.4129
31403SOL     OW   44   9.645   1.221   7.942 -0.3377  0.3729 -0.0573
31403SOL    HW1   45   9.628   1.313   7.963  0.2342  0.4378  0.1305
31403SOL    HW2   46   9.584   1.173   7.999  0.1663  0.5971  0.6854
31404SOL     OW   47   9.084   8.000   0.822 -0.0459 -0.2128  0.5981
31404SOL    HW1   48   9.173   8.020   0.852  0.2937 -0.7239 -0.0390
31404SOL    HW2   49   9.028   8.061   0.870  0.5347 -0.6154  1.8211
31405SOL     OW   50   1.198   5.512   5.069  0.0483 -0.2040  0.0749
31405SOL    HW1   51   1.173   5.582   5.009 -1.0244  0.0836  0.8256
31405SOL    HW2   52   1.253   5.555   5.134 -1.4672  0.2167  1.1409
31406SOL     OW   53   5.887   4.809   8.216  0.9635 -0.3235 -0.4677
31406SOL    HW1   54   5.857   4.882   8.271 -0.1235 -0.4260 -0.9032
31406SOL    HW2   55   5.827   4.810   8.141  1.0824 -1.5278 -0.5878
31407SOL     OW   56   0.943   8.138   6.016  0.0339  0.7546 -0.0148
31407SOL    HW1   57   1.005   8.173   6.080 -0.2506 -0.0831  0.7363
31407SOL    HW2   58   0.991   8.067   5.973 -0.8043 -0.8263  1.5263
31408SOL     OW   59   0.545   7.290   6.806 -0.3254 -0.4673 -0.1221
31408SOL    HW1   60   0.558   7.343   6.728  0.1773  0.2143  0.4134
31408SOL    HW2   61   0.513   7.352   6.872 -0.1737 -0.9164  0.3794
31409SOL     OW   62   9.957  10.237   1.592 -0.7634  0.4868 -0.1982
31409SOL    HW1   63  10.002  10.253   1.675 -1.6635  1.5004  0.1066
31409SOL    HW2   64   9.916  10.320   1.570 -2.6203 -0.4226 -0.3867
31410SOL     OW   65   7.399   3.722   2.377 -0.5737 -0.5527 -0.0768
31410SOL    HW1   66   7.407   3.627   2.386  0.9179 -0.2852  2.1882
31410SOL    HW2   67   7.453   3.758   2.447 -0.9138  1.9999 -0.9971
31411SOL     OW   68   5.590   7.739   3.870  0.0604  0.0429  0.0791
31411SOL    HW1   69   5.529   7.811   3.858 -0.5909 -0.8226 -2.6637
31411SOL    HW2   70   5.618   7.717   3.781  3.0666 -0.7437  1.0912
31412SOL     OW   71   0.341   4.765   6.920 -0.6638 -0.1835 -0.3908
31412SOL    HW1   72   0.409   4.828   6.943 -1.2424 -0.0978  1.2199
31412SOL    HW2   73   0.349   4.754   6.825  1.0995  0.3787 -0.3423
31413SOL     OW   74   1.054   1.755   2.900  0.3012  0.3857  0.0063
31413SOL    HW1   75   0.966   1.792   2.904  0.0939  0.0409 -1.0197
31413SOL    HW2   76   1.041   1.668   2.861  1.1084  0.4001 -0.3174
31414SOL     OW   77   0.599   4.146   8.152 -0.4221  0.1902  0.2198
31414SOL    HW1   78   0.648   4.069   8.121  1.1299  2.0330 -2.2570
31414SOL    HW2   79   0.665   4.203   8.189 -1.4690  0.6833  1.3998
31415SOL     OW   80   7.009   6.343   1.765  0.2855 -0.0364 -0.0038
31415SOL    HW1   81   6.988   6.293   1.686 -0.0664  1.8697 -1.1663
31415SOL    HW2   82   7.104   6.356   1.760  0.5004 -1.1810  0.6994
31416SOL     OW   83   8.489   3.731   4.926 -0.4825 -0.0762 -0.2792
31416SOL    HW1   84   8.506   3.684   4.844  2.5405  1.0250 -0.4384
31416SOL    HW2   85   8.470   3.821   4.898  3.9948  1.2214  0.0551
31417SOL     OW   86   3.602   3.272  10.710  0.4295  0.1203  0.2132
31417SOL    HW1   87   3.670   3.257  10.775  0.4223  1.0270  0.4451
31417SOL    HW2   88   3.527   3.302  10.761  0.3867  0.7286 -0.1975
31418SOL     OW   89   0.026   9.317   3.902 -0.0042  0.5393 -0.4595
31418SOL    HW1   90  -0.044   9.382   3.912  1.1766  1.8075 -0.1811
31418SOL    HW2   91   0.059   9.330   3.813 -1.6111 -1.6670 -1.4992
31419SOL     OW   92   1.610   2.109   6.248  0.4321 -0.0945 -0.0085
31419SOL    HW1   93   1.613   2.155   6.164 -0.7199  0.3000  0.1457
31419SOL    HW2   94   1.611   2.178   6.313 -3.8531  0.0387  0.2099
31420SOL     OW   95  10.844  10.305   4.493 -0.3823  0.0766  0.2757
31420SOL    HW1   96  10.749  10.299   4.499 -0.4047 -0.0488 -0.2253
31420SOL    HW2   97  10.868  10.364   4.564 -0.8569  0.3392  0.2217
31421SOL     OW   98   3.614   8.047   1.034  0.6000  0.0146  0.8056
31421SOL    HW1   99   3.670   8.114   1.073 -1.6381  2.1677  0.5680
31421SOL    HW2  100   3.525   8.081   1.046 -0.5202 -2.1241 -0.8842
31422SOL     OW  101   0.788   8.964   2.389 -0.0946 -0.0557 -0.1391
31422SOL    HW1  102   0.871   8.916   2.387  1.7936  2.8708  0.6597
31422SOL    HW2  103   0.728   8.907   2.437  2.3834 -1.0767  2.0099
31423SOL     OW  104   1.243   1.044   6.410 -0.4794  0.3404  0.0144
31423SOL    HW1  105   1.187   0.967   6.421  0.3695 -0.2778  0.1308
31423SOL    HW2  106   1.227   1.097   6.488  0.7927 -0.9596  1.2296
31424SOL     OW  107   4.170   7.494   9.601  0.0371 -1.0299 -0.6426
31424SOL    HW1  108   4.083   7.465   9.573 -0.0745 -2.8586  1.2687
31424SOL    HW2  109   4.153   7.550   9.677  0.4857 -0.6725 -0.8069
31425SOL     OW  110   0.212   4.190   4.286 -0.0837  0.2479  0.4725
31425SOL    HW1  111   0.145   4.157   4.225 -2.4542  0.0383  2.9928
31425SOL    HW2  112   0.278   4.121   4.289 -1.2172 -0.8918  0.0931
31426SOL     OW  113   8.295   7.093   9.861  0.5809  0.5889  0.2824
31426SOL    HW1  114   8.215   7.125   9.821  0.7525  0.0591 -0.4994
31426SOL    HW2  115   8.298   7.000   9.837 -0.6729 -0.4887  3.6636
31427SOL     OW  116  10.595   4.712   8.968 -0.0805  0.0575 -0.8737
31427SOL    HW1  117  10.629   4.693   8.880  1.9138 -0.7286  0.0082
31427SOL    HW2  118  10.529   4.780   8.954  0.7318  0.5085 -2.8906
31428SOL     OW  119   9.779   7.116   6.971  0.8205 -0.3693  0.1933
31428SOL    HW1  120   9.702   7.136   7.024  1.1391 -1.0520  0.9302
31428SOL    HW2  121   9.848   7.099   7.035  1.1612 -1.4081 -0.4402
31429SOL     OW  122   0.895   6.689   1.234  0.5821  0.2824 -0.2215
31429SOL    HW1  123   0.976   6.654   1.271 -0.2905 -0.7085  0.8246
31429SOL    HW2  124   0.923   6.736   1.155  2.3017  1.0065  0.7748
31430SOL     OW  125   5.220   3.574   3.835  0.5061  0.0333 -0.4723
31430SOL    HW1  126   5.238   3.494   3.786  0.5776 -0.0285 -0.3453
31430SOL    HW2  127   5.133   3.559   3.872 -0.0171  0.5165 -1.4584
31431SOL     OW  128   1.963   4.512   1.832 -0.3607  0.1073 -0.0219
31431SOL    HW1  129   1.998   4.600   1.817 -1.0263  0.3606 -0.0951
31431SOL    HW2  130   1.892   4.503   1.769 -0.2911 -0.4876 -0.0183
31432SOL     OW  131   2.789   4.664   9.579  0.6580  0.1766 -0.2425
31432SOL    HW1  132   2.779   4.580   9.623 -2.6713 -1.2093 -3.1955
31432SOL    HW2  133   2.720   4.719   9.618  1.6017  0.9516  0.3662
31433SOL     OW  134   1.067   8.001   6.753 -0.3834 -0.0175  0.1578
31433SOL    HW1  135   1.039   8.009   6.844 -2.1230  2.3824 -0.5021
31433SOL    HW2  136   1.108   8.084   6.732 -2.7983  0.7534 -2.0587
31434SOL     OW  137   8.998  10.216   1.049  0.6100 -0.1283 -0.2569
31434SOL    HW1  138   8.927  10.191   1.108  0.3856  0.5298 -0.2406
31434SOL    HW2  139   8.995  10.152   0.978  0.0984 -0.1955 -0.1752
31435SOL     OW  140   6.302   0.162   9.333  0.3945  0.2267 -0.1923
31435SOL    HW1  141   6.211   0.142   9.309  1.0833 -0.6756 -2.2406
31435SOL    HW2  142   6.320   0.106   9.408 -0.9334  0.9638  0.7363
31436SOL     OW  143   2.318   5.056   8.649  0.4668  0.3732 -0.2374
31436SOL    HW1  144   2.323   4.978   8.705 -3.3398 -0.1093 -0.2888
31436SOL    HW2  145   2.288   5.023   8.564 -0.8261  1.7785 -0.3736
31437SOL     OW  146   1.760   4.921   4.083  0.0201  0.7206  0.2065
31437SOL    HW1  147   1.794   4.834   4.105 -1.6628  0.2493  1.1194
31437SOL    HW2  148   1.829   4.981   4.111  1.6401 -0.3138 -1.3204
31438SOL     OW  149   7.851   4.383   4.661 -0.1386  0.0610  0.3968
31438SOL    HW1  150   7.771   4.370   4.612 -0.2326  2.5792 -0.2459
31438SOL    HW2  151   7.921   4.357   4.601 -0.3523  1.2884 -0.4329
31439SOL     OW  152   4.356   6.353   8.172  0.2528  0.4350  0.0030
31439SOL    HW1  153   4.336   6.282   8.234 -0.8620 -0.5375 -1.3982
31439SOL    HW2  154   4.429   6.319   8.120 -0.3110  0.2732 -0.6973
31440SOL     OW  155   0.524   9.808   8.956 -0.4049  0.2744 -0.3470
31440SOL    HW1  156   0.518   9.844   8.868  0.9362  0.8291 -0.2403
31440SOL    HW2  157   0.571   9.875   9.006 -2.1762  0.4991  1.1126
31441SOL     OW  158   3.868   4.689   8.385 -0.3437  0.1896 -0.1664
31441SOL    HW1  159   3.961   4.684   8.363 -0.6010 -1.5337 -1.0360
31441SOL    HW2  160   3.859   4.636   8.465 -0.2104  2.4565  1.4484
31442SOL     OW  161   1.761   2.901   1.360  0.1817 -0.1262 -0.1962
31442SOL    HW1  162   1.727   2.934   1.443 -0.7474  1.2623 -1.0914
31442SOL    HW2  163   1.741   2.807   1.362  1.2197 -0.3699  1.6118
31443SOL     OW  164   0.524   1.173   6.274 -0.4169 -0.0204  0.2729
31443SOL    HW1  165   0.466   1.192   6.200  0.2232  2.1073  0.2561
31443SOL    HW2  166   0.562   1.087   6.253 -0.8968  0.1527 -1.4435
31444SOL     OW  167   6.111   6.960   4.319  0.2598 -0.5382 -0.0295
31444SOL    HW1  168   6.079   6.884   4.270 -3.1538  1.4257 -1.1860
31444SOL    HW2  169   6.206   6.952   4.315  0.1035 -4.8051  0.1173
31445SOL     OW  170   5.297   8.104   7.124 -0.4060  0.6247  0.1804
31445SOL    HW1  171   5.367   8.101   7.060 -0.8609  0.1964 -0.3118
31445SOL    HW2  172   5.295   8.016   7.162 -1.0120  0.4714 -0.1860
31446SOL     OW  173   6.580   2.751   2.602 -0.2762 -0.0301  0.0387
31446SOL    HW1  174   6.503   2.772   2.656  0.8900  0.2591  1.6651
31446SOL    HW2  175   6.655   2.765   2.661  0.9838 -1.1318 -1.2384
31447SOL     OW  176   1.065   7.040   1.647  0.4626 -0.1852 -0.8202
31447SOL    HW1  177   1.095   6.975   1.584  2.4921 -1.3647  1.1922
31447SOL    HW2  178   1.145   7.074   1.687 -0.6860 -1.0613  2.5678
31448SOL     OW  179   3.454  10.547   7.290  0.0242 -0.0441 -0.4718
31448SOL    HW1  180   3.391  10.522   7.222  0.7319  0.5578 -1.3769
31448SOL    HW2  181   3.408  10.614   7.341 -0.5154 -0.5067 -0.3400
31449SOL     OW  182  10.907   3.596   0.470 -0.1801  0.2110  0.5605
31449SOL    HW1  183  10.896   3.612   0.564  1.8317  1.6292  0.6176
31449SOL    HW2  184  10.989   3.549   0.463 -0.3574  0.0393 -0.4889
31450SOL     OW  185   1.087   0.421   1.002  0.1212 -0.1015 -0.0388
31450SOL    HW1  186   0.996   0.440   0.982  0.4249  0.1061 -1.2820
31450SOL    HW2  187   1.120   0.502   1.041 -0.1991 -0.1479  0.3302
31451SOL     OW  188  10.613   6.552   1.646 -0.0390 -0.2022  0.2666
31451SOL    HW1  189  10.675   6.510   1.587  0.0368  0.1124  0.1236
31451SOL    HW2  190  10.612   6.495   1.723 -0.8130 -1.1056 -0.3835
31452SOL     OW  191   0.447  10.441   7.682  0.7899  0.3918 -0.4628
31452SOL    HW1  192   0.490  10.411   7.762 -0.3406 -0.5910 -0.1822
31452SOL    HW2  193   0.367  10.388   7.678 -0.3112  2.0355 -1.0286
31453SOL     OW  194   7.384  10.523   6.459 -0.4085  0.1649 -0.6939
31453SOL    HW1  195   7.289  10.536   6.465 -0.4886 -0.3509 -0.7866
31453SOL    HW2  196   7.421  10.612   6.461 -0.7824  0.3249  1.2980
31454SOL     OW  197   7.624   9.148   6.969  0.0390 -0.9631  0.0720
31454SOL    HW1  198   7.577   9.099   6.900  0.9194 -1.2737 -0.3219
31454SOL    HW2  199   7.609   9.097   7.049  0.6466 -1.7019 -0.2683
31455SOL     OW  200   5.872   7.848  10.363  0.1400 -0.6098 -0.0313
31455SOL    HW1  201   5.790   7.829  10.410  0.0471 -1.6659 -0.5851
31455SOL    HW2  202   5.856   7.817  10.274 -0.0625  2.3142 -1.1115
31456SOL     OW  203   6.976   1.830   0.362  0.2692 -0.4759  0.2533
31456SOL    HW1  204   7.070   1.846   0.358 -0.0562  1.4256 -0.9709
31456SOL    HW2  205   6.948   1.825   0.271 -1.1319  1.3625  0.5266
31457SOL     OW  206   1.379   7.311   2.398 -0.2030  0.3680  0.2109
31457SOL    HW1  207   1.381   7.238   2.336 -1.2096 -1.6424  2.3666
31457SOL    HW2  208   1.470   7.326   2.422  0.0030 -0.4341 -0.0441
31458SOL     OW  209   0.763   7.112   8.534 -0.4193 -0.2827  0.2957
31458SOL    HW1  210   0.670   7.129   8.516 -0.0178  1.5013 -0.2747
31458SOL    HW2  211   0.795   7.067   8.456 -0.8035 -1.0075  0.5403
31459SOL     OW  212   9.310   0.436   9.726  0.6635 -0.4767  0.0271
31459SOL    HW1  213   9.272   0.480   9.802 -0.6183 -1.5832  0.0606
31459SOL    HW2  214   9.350   0.357   9.762  0.9886 -0.4748 -0.3228
31460SOL     OW  215   4.379   7.745   9.996 -0.1537  0.2059 -0.1996
31460SOL    HW1  216   4.367   7.743  10.091  0.7060 -2.0544 -0.0935
31460SOL    HW2  217   4.457   7.692   9.980 -1.4398 -1.2139 -2.3100
31461SOL     OW  218   6.840   6.800   9.869 -0.5440  0.2218 -0.3378
31461SOL    HW1  219   6.796   6.715   9.865 -0.2914  0.1114 -0.8957
31461SOL    HW2  220   6.844   6.821   9.962 -0.4723 -0.4479 -0.1890
31462SOL     OW  221   5.828   0.642   5.301  0.4387 -0.3384 -0.0274
31462SOL    HW1  222   5.806   0.574   5.238 -0.2591  0.1232 -0.2958
31462SOL    HW2  223   5.744   0.679   5.328  0.8020  0.5952 -0.1030
31463SOL     OW  224   6.568   0.405   8.756  0.1221 -0.1717  0.9352
31463SOL    HW1  225   6.641   0.466   8.761 -0.9071  1.8846 -3.8397
31463SOL    HW2  226   6.537   0.412   8.666 -5.6727 -1.2704  2.4455
31464SOL     OW  227   1.890   1.843   0.804  0.1451  0.2191 -0.9157
31464SOL    HW1  228   1.801   1.814   0.826  0.4503  1.0032  1.6954
31464SOL    HW2  229   1.944   1.813   0.877  1.7744  1.0116 -1.7409
31465SOL     OW  230   7.751   5.287   5.887  0.2281 -0.3295  0.2720
31465SOL    HW1  231   7.751   5.281   5.983 -1.1786  1.4353  0.4375
31465SOL    HW2  232   7.840   5.312   5.865  1.3278 -3.2921  0.8290
31466SOL     OW  233  10.188   1.386   2.961 -0.0821  0.1493  0.0538
31466SOL    HW1  234  10.216   1.299   2.991 -0.1360  0.0398 -0.2128
31466SOL    HW2  235  10.166   1.374   2.869 -1.5113  0.1045  0.3653
31467SOL     OW  236   1.324   4.224   5.424  0.5878  0.0658 -0.5111
31467SOL    HW1  237   1.241   4.234   5.377 -0.3071 -0.0800  0.9620
31467SOL    HW2  238   1.365   4.311   5.419 -0.1718  0.4408 -0.3419
31468SOL     OW  239   3.813   6.953   7.599  0.6090  0.4800 -0.8931
31468SOL    HW1  240   3.770   7.037   7.615 -1.3450 -0.3133 -1.6164
31468SOL    HW2  241   3.790   6.899   7.675  0.2242  0.0179 -1.3290
31469SOL     OW  242   6.621   5.620   6.570 -0.0068  0.0376 -0.4576
31469SOL    HW1  243   6.639   5.646   6.480 -0.4154 -1.1152 -0.8961
31469SOL    HW2  244   6.703   5.583   6.601 -0.8724 -3.3389 -1.7742
31470SOL     OW  245   8.986   5.894   6.592  0.4805  0.0843 -0.3887
31470SOL    HW1  246   9.004   5.823   6.653 -0.4127  0.4234  0.2937
31470SOL    HW2  247   8.956   5.850   6.512 -1.3226 -0.3136  0.4484
31471SOL     OW  248   6.639   4.889   3.322 -0.3385  0.1072 -0.1187
31471SOL    HW1  249   6.626   4.868   3.229 -0.2741 -2.3195  0.3489
31471SOL    HW2  250   6.590   4.969   3.336 -0.6646  0.3075 -2.1724
31472SOL     OW  251   5.863   0.174   4.511 -0.4160 -0.1280  0.6893
31472SOL    HW1  252   5.815   0.191   4.430  0.5548 -1.3551 -0.2018
31472SOL    HW2  253   5.798   0.180   4.580 -1.6051 -0.6083 -0.3591
31473SOL     OW  254   9.710   9.698   7.124  0.0752  0.1489  0.1884
31473SOL    HW1  255   9.694   9.732   7.036 -0.1417 -1.6426 -0.5078
31473SOL    HW2  256   9.701   9.774   7.182 -1.2348  1.0764 -1.1777
31474SOL     OW  257   6.242   9.200   0.212  0.0381  0.0418 -0.0549
31474SOL    HW1  258   6.158   9.198   0.166 -0.5657  1.1208  0.9504
31474SOL    HW2  259   6.239   9.281   0.262  0.9172 -0.8143  1.4333
31475SOL     OW  260   5.918   1.094   8.274  0.0928 -0.1018  0.2783
31475SOL    HW1  261   5.914   1.057   8.362  0.8505 -0.1862  0.2841
31475SOL    HW2  262   5.950   1.023   8.219 -0.9549 -0.2322 -0.1871
31476SOL     OW  263   3.686   9.657   1.092 -0.8557 -0.1885 -0.1077
31476SOL    HW1  264   3.617   9.724   1.100 -1.9036 -1.1581 -0.6627
31476SOL    HW2  265   3.712   9.660   1.000  0.9687  1.1964  0.3937
31477SOL     OW  266   5.078   1.481  10.606  0.3025 -0.7334 -0.2712
31477SOL    HW1  267   5.152   1.430  10.637  0.6809 -0.3709 -0.5611
31477SOL    HW2  268   5.001   1.427  10.626  0.6917 -1.4202 -0.6047
31478SOL     OW  269   7.780   7.443   1.094  0.0764 -0.1933 -0.7169
31478SOL    HW1  270   7.863   7.410   1.059  0.3107  0.2473 -0.5747
31478SOL    HW2  271   7.714   7.386   1.055  0.5388 -1.3919  0.1933
31479SOL     OW  272   8.919   9.934   6.018 -0.6245 -0.2215  0.1641
31479SOL    HW1  273   8.908   9.876   5.943 -1.2199 -1.1056  0.9164
31479SOL    HW2  274   8.934   9.875   6.092  1.0533  0.6690  0.5823
31480SOL     OW  275  10.080   3.098   6.516  0.8094 -0.0709 -0.6189
31480SOL    HW1  276  10.050   3.176   6.468 -1.2956 -0.3428  0.1587
31480SOL    HW2  277  10.113   3.133   6.599 -0.6678 -0.0064 -0.0296
31481SOL     OW  278   3.094  10.601   5.036  0.0708  0.0273  0.7274
31481SOL    HW1  279   3.139  10.577   5.116  2.3192  0.6673 -0.2756
31481SOL    HW2  280   3.083  10.696   5.042 -0.7675 -0.0585  0.7435
31482SOL     OW  281   7.802   9.567   8.213 -0.3202 -0.1544 -0.2983
31482SOL    HW1  282   7.768   9.569   8.123 -1.8224 -0.0001  0.2511
31482SOL    HW2  283   7.781   9.654   8.248  1.3226  0.2197 -0.1451
31483SOL     OW  284   4.361  10.090   1.610  0.0013 -0.3458 -0.5863
31483SOL    HW1  285   4.316  10.164   1.652  0.4801 -0.3992  0.0228
31483SOL    HW2  286   4.291  10.027   1.591 -0.1500 -0.5769  0.6624
31484SOL     OW  287   4.738   9.696   5.602  0.1718 -0.1149 -0.1761
31484SOL    HW1  288   4.738   9.680   5.508 -1.9594 -1.0044 -0.0668
31484SOL    HW2  289   4.761   9.611   5.640  1.1963  0.2840  0.1324
31485SOL     OW  290   3.741   1.143  10.750  0.3162 -0.2231 -0.1587
31485SOL    HW1  291   3.655   1.185  10.753 -0.3277 -1.0665 -3.2544
31485SOL    HW2  292   3.724   1.051  10.772  0.5879 -0.2161  0.0928
31486SOL     OW  293   5.477   4.550   6.268 -0.5684 -0.1400 -0.2824
31486SOL    HW1  294   5.382   4.556   6.259 -0.5387  1.9037  0.2711
31486SOL    HW2  295   5.507   4.641   6.271  1.4910 -0.7257 -1.1238
31487SOL     OW  296   4.982  10.258   9.014  0.6099  0.2942  0.2991
31487SOL    HW1  297   4.918  10.327   9.033  0.6913  0.1365  1.1960
31487SOL    HW2  298   5.009  10.227   9.100 -1.0936 -2.4317 -0.0447
31488SOL     OW  299   7.407   3.386   0.789 -0.2291  0.0710 -0.3757
31488SOL    HW1  300   7.473   3.354   0.850  1.3499  0.3725 -1.8444
31488SOL    HW2  301   7.425   3.338   0.708 -1.5905  0.4509 -0.9262
31489SOL     OW  302   7.046   7.499   7.778 -0.5281  0.2950 -0.1380
31489SOL    HW1  303   6.966   7.513   7.829  0.5228  0.9062  1.4063
31489SOL    HW2  304   7.062   7.405   7.783  0.4165  0.5300  2.0597
31490SOL     OW  305  10.205   7.738   6.317  0.2313  0.1792  0.6137
31490SOL    HW1  306  10.292   7.743   6.276  0.1026  0.8834  0.4157
31490SOL    HW2  307  10.208   7.657   6.368  1.1954  0.4487  1.0212
31491SOL     OW  308   1.283   3.387   9.700  0.0628 -0.0418  0.1414
31491SOL    HW1  309   1.240   3.472   9.689 -0.4316 -0.2426  0.5200
31491SOL    HW2  310   1.237   3.345   9.772  0.1477 -0.7391 -0.2010
31492SOL     OW  311   2.130   5.118   3.010  0.1632  0.2240 -0.5380
31492SOL    HW1  312   2.073   5.144   2.938 -1.7928  3.2547  1.8607
31492SOL    HW2  313   2.186   5.194   3.026  2.2637 -1.2704 -0.3260
31493SOL     OW  314   7.885   7.350  10.887  0.0297  0.8126 -0.2997
31493SOL    HW1  315   7.946   7.413  10.925 -0.0749  0.3756  0.6132
31493SOL    HW2  316   7.806   7.401  10.869 -0.0599  0.9547  0.4527
31494SOL     OW  317   9.935   6.007   4.242 -0.3005  0.3553 -0.1731
31494SOL    HW1  318   9.958   6.008   4.335 -0.3235  1.4788 -0.1700
31494SOL    HW2  319   9.895   6.093   4.226 -2.4970 -0.6936 -0.6834
31495SOL     OW  320   6.719   2.592   2.153 -0.3885  0.2509 -0.0991
31495SOL    HW1  321   6.665   2.656   2.108 -1.0800  0.9168  1.6068
31495SOL    HW2  322   6.674   2.576   2.236  3.8158  3.8528  3.3699
31496SOL     OW  323   0.755   1.772   0.975 -0.1547  0.3295 -0.0271
31496SOL    HW1  324   0.797   1.857   0.959 -0.5716  0.5625  0.1078
31496SOL    HW2  325   0.798   1.739   1.054 -1.1533  1.1943  0.9142
31497SOL     OW  326   7.110   7.283   9.197 -0.2894  0.6458  0.9750
31497SOL    HW1  327   7.030   7.251   9.156 -1.4265  2.4452  1.6573
31497SOL    HW2  328   7.100   7.262   9.290  0.7014 -0.3759  0.8671
31498SOL     OW  329   4.228   3.094   2.140 -0.1499  0.3687 -0.1399
31498SOL    HW1  330   4.222   3.072   2.047  1.7706 -0.1672 -0.1607
31498SOL    HW2  331   4.235   3.010   2.185  0.8280  0.6727  0.3087
31499SOL     OW  332   5.436   0.481   2.183 -0.8123  0.0311 -0.2054
31499SOL    HW1  333   5.367   0.535   2.145 -1.9677 -0.7926  0.6524
31499SOL    HW2  334   5.390   0.408   2.225  0.4424  0.3302  1.8741
31500SOL     OW  335   5.891   6.586   8.662  0.1152  0.1552 -0.1118
31500SOL    HW1  336   5.959   6.580   8.729  0.9553 -0.6623 -1.0202
31500SOL    HW2  337   5.810   6.561   8.708  0.8425 -1.4472  0.3483
31501SOL     OW  338   5.992   4.705   7.407  0.7801  0.1638 -0.6678
31501SOL    HW1  339   5.966   4.777   7.464 -0.6447 -0.1162 -0.9149
31501SOL    HW2  340   6.087   4.701   7.414  0.8164  1.5680 -0.0558
31502SOL     OW  341   5.218   6.088   2.550  0.0428 -0.4841  0.0868
31502SOL    HW1  342   5.190   6.050   2.634  1.5727  1.5667  1.6183
31502SOL    HW2  343   5.164   6.167   2.541  1.0592  0.2171  0.0230
31503SOL     OW  344   7.027  10.570   5.053 -0.3836  0.2154 -0.0779
31503SOL    HW1  345   7.059  10.483   5.077  0.6267  0.1415 -1.5797
31503SOL    HW2  346   7.007  10.563   4.960 -0.7802  1.4600 -0.0967
31504SOL     OW  347   9.983   4.765   6.982  0.0143 -0.3136 -0.1521
31504SOL    HW1  348  10.044   4.781   7.054 -0.6200  0.3189  0.2503
31504SOL    HW2  349  10.026   4.806   6.906  1.4597 -2.3718 -0.5372
31505SOL     OW  350   7.600   5.081   8.302 -0.3151  0.7550  0.0332
31505SOL    HW1  351   7.528   5.080   8.239  0.9081 -2.2730 -1.5114
31505SOL    HW2  352   7.677   5.105   8.251  0.5079 -0.6436  0.5415
31506SOL     OW  353   6.320  10.668   5.732 -0.3696 -0.3876 -0.6242
31506SOL    HW1  354   6.228  10.655   5.711 -0.4288 -0.4635 -0.3332
31506SOL    HW2  355   6.339  10.757   5.705 -1.4124  0.8420  2.2757
31507SOL     OW  356   7.584   0.145   6.644 -0.0977 -0.0391 -0.0060
31507SOL    HW1  357   7.522   0.142   6.718  0.1501 -0.2807  0.1928
31507SOL    HW2  358   7.532   0.120   6.568 -0.1638 -0.5854  0.2183
31508SOL     OW  359   2.251   7.245  10.870  0.4756  0.7973  0.1061
31508SOL    HW1  360   2.193   7.285  10.806  0.0954  1.4619  0.8520
31508SOL    HW2  361   2.213   7.159  10.887 -0.3166  1.2385  0.6136
31509SOL     OW  362   7.969   1.838   5.967  0.2503 -0.0801  0.1058
31509SOL    HW1  363   8.004   1.927   5.970 -0.8868  0.3664  1.6289
31509SOL    HW2  364   7.949   1.823   5.875  0.2854  1.3233 -0.1444
31510SOL     OW  365   2.834   2.693   0.553  0.2412  0.0398  0.4388
31510SOL    HW1  366   2.754   2.666   0.598 -0.8483  1.0382 -0.8501
31510SOL    HW2  367   2.877   2.610   0.531 -1.1413 -0.5664 -0.0936
31511SOL     OW  368   7.094   2.948   2.765 -0.2627  0.1065 -0.4886
31511SOL    HW1  369   7.060   2.881   2.705 -0.9137  0.6658 -0.7579
31511SOL    HW2  370   7.083   3.030   2.717  1.7981  0.2849 -0.7270
31512SOL     OW  371   7.613   2.759   3.844 -0.2950  0.0077  0.2471
31512SOL    HW1  372   7.610   2.668   3.815 -2.2122  0.3567 -0.8195
31512SOL    HW2  373   7.628   2.753   3.939 -0.6384 -1.4383  0.2351
31513SOL     OW  374   7.172   3.799   2.240 -0.0612  0.2072  0.4939
31513SOL    HW1  375   7.243   3.802   2.303 -0.4763  0.9041  0.9484
31513SOL    HW2  376   7.100   3.845   2.283 -1.1098 -1.2986  0.4280
31514SOL     OW  377   7.691   9.072   6.086 -0.3438  0.1222 -0.2153
31514SOL    HW1  378   7.674   8.984   6.120  0.2052 -0.5209 -1.5365
31514SOL    HW2  379   7.616   9.124   6.115 -2.2929 -1.5283 -1.9981
31515SOL     OW  380   8.481   1.643   9.802  0.4690 -0.5521  0.0734
31515SOL    HW1  381   8.410   1.617   9.744 -0.3548 -1.8735  1.5819
31515SOL    HW2  382   8.476   1.739   9.805  0.6429 -0.4383 -2.0955
31516SOL     OW  383   0.239   5.844   6.989  0.4361 -1.0873 -0.4973
31516SOL    HW1  384   0.176   5.853   6.917  1.3442  0.6417 -1.1286
31516SOL    HW2  385   0.231   5.924   7.039  3.1453 -0.0701 -1.4935
31517SOL     OW  386   3.728   9.521   8.812 -0.2871  0.0299 -0.4518
31517SOL    HW1  387   3.639   9.485   8.814 -0.4428  0.4160  0.2143
31517SOL    HW2  388   3.758   9.514   8.903 -0.2369  1.3423 -0.3531
31518SOL     OW  389   4.791   5.674   4.750  0.2135 -0.4183  0.3374
31518SOL    HW1  390   4.743   5.699   4.671  1.0333 -0.5958 -0.2297
31518SOL    HW2  391   4.757   5.731   4.818 -1.5047 -1.1983  0.1880
31519SOL     OW  392   0.793   6.958   9.722  0.2697  0.4334  0.1389
31519SOL    HW1  393   0.875   6.986   9.762  0.5770 -0.9588  0.5467
31519SOL    HW2  394   0.740   7.038   9.717  1.0973  1.0807  1.2025
31520SOL     OW  395   1.104   7.139   6.209 -0.4268  0.3765  0.5831
31520SOL    HW1  396   1.121   7.101   6.122 -0.0715  2.6679 -0.4307
31520SOL    HW2  397   1.010   7.127   6.222 -0.6816  0.8712 -0.6038
31521SOL     OW  398   6.308   4.458   2.573  0.0592 -0.2784  0.1358
31521SOL    HW1  399   6.281   4.422   2.657 -0.1416  1.0222  0.6472
31521SOL    HW2  400   6.399   4.431   2.564  0.4011  0.4368  1.2651
31522SOL     OW  401   4.731   3.997   0.330  0.4945  0.4811 -0.4936
31522SOL    HW1  402   4.808   3.970   0.380 -0.1296  0.2673  0.3850
31522SOL    HW2  403   4.707   4.082   0.368 -0.1582  0.1820 -0.2053
31523SOL     OW  404   0.151   2.994   1.140  0.4328  0.3247 -0.0898
31523SOL    HW1  405   0.081   3.009   1.205  0.1387  0.7060 -0.4932
31523SOL    HW2  406   0.136   2.904   1.109 -0.7496  0.8915 -1.2134
31524SOL     OW  407   6.816  10.693   4.005  0.4065  0.3336  0.1647
31524SOL    HW1  408   6.893  10.651   3.965  1.7804  1.6351  1.3178
31524SOL    HW2  409   6.847  10.722   4.090 -1.3203  1.1428  0.5452
31525SOL     OW  410   7.305   0.491   0.046 -0.0678 -0.7917  0.3959
31525SOL    HW1  411   7.322   0.443   0.127  0.0733  1.1617  1.5836
31525SOL    HW2  412   7.319   0.427  -0.024 -1.2873 -2.8489  1.9299
31526SOL     OW  413   2.850   0.064   4.818  0.2567 -0.2690 -0.0138
31526SOL    HW1  414   2.860  -0.029   4.799  2.7486 -0.1038  0.1169
31526SOL    HW2  415   2.860   0.070   4.913  0.2728  0.1320 -0.0393
31527SOL     OW  416   4.135   8.928   8.286  0.2971 -0.4045  0.3235
31527SOL    HW1  417   4.116   8.849   8.336  1.3143 -0.4827  0.6180
31527SOL    HW2  418   4.060   8.985   8.300  0.7384 -0.2583  2.2846
31528SOL     OW  419   6.836   5.593   1.574  0.5541  0.5289 -0.1497
31528SOL    HW1  420   6.792   5.509   1.584  0.1091  0.7665 -0.0736
31528SOL    HW2  421   6.765   5.655   1.556  0.7872  1.0149  0.5449
31529SOL     OW  422   7.385   5.041   8.143 -0.0432  0.0114 -0.1845
31529SOL    HW1  423   7.296   5.033   8.178 -0.1570 -0.9140 -0.6505
31529SOL    HW2  424   7.379   5.111   8.078 -0.3838  0.0931 -0.0678
31530SOL     OW  425   7.046   3.966  10.360  0.0774 -0.6526  0.5141
31530SOL    HW1  426   7.034   3.877  10.394 -1.2600 -0.9815 -0.7384
31530SOL    HW2  427   6.990   3.970  10.282 -0.3466  1.4756  0.8666
31531SOL     OW  428   6.042  10.354   6.905 -0.1270  0.0772  0.2950
31531SOL    HW1  429   6.081  10.281   6.856 -0.4624 -0.2464  0.5015
31531SOL    HW2  430   6.116  10.411   6.925  0.2284 -0.4840  0.6030
31532SOL     OW  431   9.613   1.830   4.395  0.2843  0.6117  0.0296
31532SOL    HW1  432   9.586   1.867   4.311 -0.2264 -1.1752 -0.6375
31532SOL    HW2  433   9.634   1.739   4.376  0.7556  0.3261  1.7343
31533SOL     OW  434   4.608   5.324   1.145 -0.1459  0.1259 -0.2473
31533SOL    HW1  435   4.541   5.351   1.207  0.2052 -0.8237  0.5658
31533SOL    HW2  436   4.566   5.331   1.059 -0.9195  0.6062  0.1634
31534SOL     OW  437   0.725   3.232   7.629 -0.3425  0.2673 -0.3861
31534SOL    HW1  438   0.714   3.327   7.624  0.4468  0.4915  1.2819
31534SOL    HW2  439   0.702   3.210   7.719  1.8905 -0.7213  0.0197
31535SOL     OW  440   8.862   7.434   4.680 -0.8002  0.2483  0.2550
31535SOL    HW1  441   8.878   7.495   4.607  0.9264  1.0835  1.2488
31535SOL    HW2  442   8.767   7.423   4.682 -0.9621  0.9659 -1.5049
31536SOL     OW  443   5.187   6.911   0.540  0.0977  0.0553  0.2488
31536SOL    HW1  444   5.172   6.819   0.520  2.0182  0.0054 -1.3469
31536SOL    HW2  445   5.261   6.910   0.601  0.3413  0.5399 -0.0338
31537SOL     OW  446  10.044   8.653   6.917 -0.7252 -0.2912 -0.2342
31537SOL    HW1  447  10.079   8.726   6.968 -0.6163  1.8485 -3.0866
31537SOL    HW2  448   9.951   8.675   6.904 -0.8370 -0.9746 -0.6479
31538SOL     OW  449   5.988  10.517  10.432  0.0914  0.3900  0.4368
31538SOL    HW1  450   6.004  10.589  10.372 -0.0863  0.7262  0.7902
31538SOL    HW2  451   5.958  10.445  10.376 -1.5824  1.1673  0.2770
31539SOL     OW  452   3.568   1.418   7.217 -0.0339  0.3766  0.0953
31539SOL    HW1  453   3.477   1.406   7.244 -0.2664  0.5317 -0.5897
31539SOL    HW2  454   3.563   1.475   7.140  0.5834 -0.2608 -0.4314
31540SOL     OW  455   9.366   1.298   9.572  0.9458  0.0411 -0.2122
31540SOL    HW1  456   9.416   1.378   9.588  3.3589 -1.0797 -1.6250
31540SOL    HW2  457   9.374   1.283   9.478 -1.2032 -0.8320 -0.3200
31541SOL     OW  458   7.626   6.381   9.442 -0.1010  0.3449 -0.1725
31541SOL    HW1  459   7.694   6.410   9.381  1.1340 -2.6292 -0.4121
31541SOL    HW2  460   7.670   6.379   9.527 -0.2268 -0.4423 -0.1189
31542SOL     OW  461   3.225   6.782   0.856  0.5396  0.3330  0.3319
31542SOL    HW1  462   3.229   6.817   0.945 -0.6271  1.0938  0.0995
31542SOL    HW2  463   3.264   6.694   0.863  1.8943  0.9754  1.2651
31543SOL     OW  464   5.168   3.109   5.728  0.5742  0.3032  0.2108
31543SOL    HW1  465   5.202   3.071   5.809 -0.2095 -1.6123 -0.3159
31543SOL    HW2  466   5.228   3.078   5.660  0.1974  0.4168 -0.1784
31544SOL     OW  467   5.979   7.366   2.590 -0.3940 -0.0457  0.6058
31544SOL    HW1  468   5.898   7.390   2.635 -1.3890  1.1345 -1.6481
31544SOL    HW2  469   5.959   7.378   2.497  3.0483  2.6273  0.0182
31545SOL     OW  470   4.907   2.793   9.787  0.0763 -0.0787 -0.1103
31545SOL    HW1  471   4.985   2.738   9.783  0.5192  0.5045  0.3575
31545SOL    HW2  472   4.886   2.799   9.880  1.4021  2.4057  0.1162
31546SOL     OW  473   2.527   8.525   7.904 -0.1471  0.6453 -0.3802
31546SOL    HW1  474   2.618   8.509   7.932 -0.7083 -1.9664  0.1769
31546SOL    HW2  475   2.488   8.572   7.978 -0.0091 -0.8692  0.7020
31547SOL     OW  476   7.510   6.444   2.781 -0.4106 -0.2086  0.1235
31547SOL    HW1  477   7.476   6.365   2.739 -2.1725 -0.1363  1.3106
31547SOL    HW2  478   7.593   6.416   2.821 -0.4855 -1.1683 -0.3557
31548SOL     OW  479   0.510   0.319   8.955  0.3284  0.1940  0.2485
31548SOL    HW1  480   0.415   0.329   8.957  0.3789  1.9633 -1.9971
31548SOL    HW2  481   0.542   0.378   9.023 -0.1311  1.9358 -0.9695
31549SOL     OW  482  10.881   4.609   5.367  0.7380  0.1880 -0.0996
31549SOL    HW1  483  10.937   4.669   5.416  1.0485 -0.3682  0.2375
31549SOL    HW2  484  10.830   4.666   5.309  1.1077  0.7638  0.1304
31550SOL     OW  485   4.168   8.144   2.541 -0.1976 -0.2645  0.8144
31550SOL    HW1  486   4.263   8.139   2.540 -0.2135 -0.5962  0.9819
31550SOL    HW2  487   4.139   8.055   2.524 -0.4791 -0.2962  1.4323
31551SOL     OW  488   8.313   4.523   9.126  0.4285 -0.0173 -0.7020
31551SOL    HW1  489   8.237   4.582   9.129  1.0833  0.8119 -0.0883
31551SOL    HW2  490   8.324   4.494   9.217 -0.3785 -1.7728 -1.1079
31552SOL     OW  491   1.782   3.468   8.186 -0.0115 -0.0318  0.2212
31552SOL    HW1  492   1.772   3.373   8.188  0.7319 -0.1030  0.9551
31552SOL    HW2  493   1.742   3.497   8.268 -2.9506  0.5996 -1.2825
31553SOL     OW  494   2.182  10.714   5.855  0.4184 -0.2596  0.1709
31553SOL    HW1  495   2.104  10.665   5.828  0.2252 -0.0901  0.4133
31553SOL    HW2  496   2.255  10.666   5.817  0.2454 -0.8680  0.5939
31554SOL     OW  497   8.192   7.380   4.786  0.4851  0.3451  0.2937
31554SOL    HW1  498   8.118   7.321   4.805  0.9182 -0.1138  0.5663
31554SOL    HW2  499   8.186   7.448   4.852 -0.1920  0.7848 -0.1978
31555SOL     OW  500   2.704   2.641   0.852 -0.5906 -0.4023  0.7056
31555SOL    HW1  501   2.633   2.690   0.894 -1.1590 -0.3681 -0.2695
31555SOL    HW2  502   2.662   2.594   0.780  0.5033  0.3198 -0.4538
31556SOL     OW  503   7.711   1.186   6.340 -0.3157  0.0973  0.5223
31556SOL    HW1  504   7.785   1.166   6.283  0.9836  0.0362  2.1235
31556SOL    HW2  505   7.660   1.105   6.342  0.2345 -0.2645  0.3124
31557SOL     OW  506   3.548   5.495   5.989 -0.0978 -0.3543 -0.2839
31557SOL    HW1  507   3.622   5.509   6.048 -0.0783 -1.6008  0.0122
31557SOL    HW2  508   3.550   5.402   5.969 -0.3746 -0.0364 -1.9281
31558SOL     OW  509  10.704   5.990   0.668  0.1968 -0.9739 -0.1547
31558SOL    HW1  510  10.696   5.964   0.760 -0.5942 -1.4302 -0.3403
31558SOL    HW2  511  10.793   6.023   0.660  0.3963 -1.2789  0.6876
31559SOL     OW  512  10.796   5.722   3.801  0.1347 -0.0810  0.3733
31559SOL    HW1  513  10.779   5.641   3.753  1.4393 -0.1496 -0.0154
31559SOL    HW2  514  10.716   5.773   3.792  0.0214 -0.4810 -1.0992
31560SOL     OW  515   4.646  10.628   4.459 -0.4563  0.4921  0.0406
31560SOL    HW1  516   4.728  10.641   4.508  0.0560 -0.5512 -0.5147
31560SOL    HW2  517   4.634  10.710   4.410  1.2346  0.0103 -1.2745
31561SOL     OW  518   3.258   5.071  10.396  0.1801  0.2419  0.2174
31561SOL    HW1  519   3.224   4.984  10.376  0.2655  0.5574 -1.3655
31561SOL    HW2  520   3.352   5.065  10.382 -0.0246  1.0591 -1.8061
31562SOL     OW  521   1.406   4.705   4.732 -0.2055 -0.0370  0.2654
31562SOL    HW1  522   1.348   4.743   4.797  0.2909 -0.0611  0.7343
31562SOL    HW2  523   1.363   4.624   4.704  0.1643 -0.6911  1.5072
31563SOL     OW  524   8.457   2.423   8.855  0.1494  0.1361 -0.0031
31563SOL    HW1  525   8.408   2.383   8.783 -1.2974  1.9439 -0.0989
31563SOL    HW2  526   8.404   2.405   8.933 -0.8738  2.2820 -0.1344
31564SOL     OW  527   1.102   5.631   6.607 -0.1929  0.0744  0.4301
31564SOL    HW1  528   1.009   5.608   6.614  0.2129 -1.6212  0.6188
31564SOL    HW2  529   1.138   5.610   6.694  0.9005 -2.0190 -0.4468
31565SOL     OW  530   7.966   8.563   9.085  0.5458 -0.0873 -0.1339
31565SOL    HW1  531   8.048   8.572   9.037  0.8355 -1.6467  0.0242
31565SOL    HW2  532   7.992   8.557   9.177  0.1289  0.9657  0.0645
31566SOL     OW  533   8.228   4.119   9.479  0.4632 -0.2619 -0.8011
31566SOL    HW1  534   8.185   4.035   9.491  2.2804 -1.2567 -0.7879
31566SOL    HW2  535   8.222   4.137   9.385  2.6125 -1.9636 -1.3646
31567SOL     OW  536   8.525   6.588   1.998 -0.2795 -0.0195  0.0187
31567SOL    HW1  537   8.520   6.550   2.086 -1.0222  1.3762  0.5948
31567SOL    HW2  538   8.465   6.535   1.946  0.6951 -1.3076  0.1622
31568SOL     OW  539   2.129   2.421   4.490 -0.5677 -0.3758 -0.0054
31568SOL    HW1  540   2.076   2.484   4.442  0.7207  1.9951  1.5232
31568SOL    HW2  541   2.219   2.448   4.475  0.1686 -2.9023 -0.6161
31569SOL     OW  542  10.238   1.252   5.752  0.2469  0.4987  0.9461
31569SOL    HW1  543  10.176   1.188   5.716 -0.8145  0.8601  2.0312
31569SOL    HW2  544  10.223   1.332   5.701 -0.8295  0.8348  1.7309
31570SOL     OW  545   9.078   2.411   4.725 -0.7122  0.3351  0.0778
31570SOL    HW1  546   9.019   2.381   4.655  0.9546  0.3372 -1.3800
31570SOL    HW2  547   9.095   2.333   4.777 -3.7139  0.7519  1.9366
31571SOL     OW  548  10.033   9.851   6.873  0.0702 -0.6587 -0.4039
31571SOL    HW1  549   9.982   9.869   6.952  0.5495  0.2831 -0.2876
31571SOL    HW2  550   9.973   9.867   6.801 -0.1109 -0.5997 -0.2414
31572SOL     OW  551   7.134   9.059   8.051  0.1265  0.2192  0.2920
31572SOL    HW1  552   7.050   9.026   8.084  0.5649 -3.2297 -1.5866
31572SOL    HW2  553   7.194   9.052   8.125 -0.3184 -1.2916  0.5347
31573SOL     OW  554   0.787   3.891   8.469  0.0740  0.0618 -0.0956
31573SOL    HW1  555   0.754   3.869   8.556 -1.5955  0.7419 -0.5182
31573SOL    HW2  556   0.712   3.880   8.411  1.9094 -3.6606 -2.1087
31574SOL     OW  557   8.553   8.003   5.448 -0.1573  0.7525  0.2765
31574SOL    HW1  558   8.527   7.916   5.418  0.9945  0.5721 -0.2579
31574SOL    HW2  559   8.476   8.037   5.494 -0.8995 -0.2075 -0.2302
31575SOL     OW  560   3.130   6.410  10.026  0.1359  0.1188 -0.3254
31575SOL    HW1  561   3.042   6.421  10.063  0.8741  3.0283  0.7649
31575SOL    HW2  562   3.157   6.323  10.056 -1.2564  0.3462  1.8190
31576SOL     OW  563   6.110   4.642   3.969  0.0426 -0.0153 -0.4576
31576SOL    HW1  564   6.074   4.670   4.053 -0.1011 -1.7239  0.0710
31576SOL    HW2  565   6.093   4.548   3.965  2.0879 -0.4017 -1.3646
31577SOL     OW  566   8.185   8.450   9.629 -0.5837 -0.6720 -0.4094
31577SOL    HW1  567   8.223   8.415   9.710 -0.2427  0.9730  0.1803
31577SOL    HW2  568   8.092   8.464   9.651 -0.2848  0.7341  0.0746
31578SOL     OW  569   4.830   6.672   0.222 -0.5316 -0.0439  0.4027
31578SOL    HW1  570   4.800   6.583   0.241  0.0151 -0.2989  0.0692
31578SOL    HW2  571   4.834   6.715   0.308  3.5719 -1.6826  1.2396
31579SOL     OW  572   6.087   7.518   1.875  0.0153  0.1943 -0.2710
31579SOL    HW1  573   6.028   7.586   1.842 -0.3675 -0.4974 -1.0231
31579SOL    HW2  574   6.061   7.438   1.829  0.7079 -0.3913  0.3247
31580SOL     OW  575   6.245   1.628  10.415  0.2580  0.1893  0.1196
31580SOL    HW1  576   6.161   1.665  10.440  0.9192  1.4147  0.6281
31580SOL    HW2  577   6.264   1.564  10.484 -0.2427 -0.0830  0.0085
31581SOL     OW  578   8.819   4.711   8.850  0.1128  0.2244 -0.2363
31581SOL    HW1  579   8.823   4.801   8.816 -2.0621 -0.1506 -1.6958
31581SOL    HW2  580   8.777   4.661   8.780 -0.4859 -1.5562  1.3083
31582SOL     OW  581   5.984   5.650   8.044 -0.0991  0.3376  0.2607
31582SOL    HW1  582   5.944   5.734   8.023 -0.3182 -0.2581 -1.8498
31582SOL    HW2  583   5.923   5.585   8.012  0.0322 -0.6730  1.9479
31583SOL     OW  584   1.288   0.828   5.843 -0.4604 -0.2444 -0.2938
31583SOL    HW1  585   1.330   0.811   5.928  1.1413 -0.8823 -1.1673
31583SOL    HW2  586   1.276   0.741   5.805 -2.8200 -0.0855 -0.0021
31584SOL     OW  587   7.849   3.710  10.472  0.0318 -0.5313  0.4468
31584SOL    HW1  588   7.906   3.691  10.397  0.0325  0.1279  0.2777
31584SOL    HW2  589   7.901   3.685  10.549  1.0345  1.1545  0.3643
31585SOL     OW  590  10.024   1.228   4.124  0.0563  0.4159  0.1159
31585SOL    HW1  591  10.063   1.239   4.038  0.6188  0.4466  0.3699
31585SOL    HW2  592  10.076   1.285   4.181  0.5689 -0.6442  0.7381
31586SOL     OW  593   3.397   1.327   4.078  0.0975  0.2240  0.2730
31586SOL    HW1  594   3.347   1.296   4.154  1.3017  0.6537  1.2817
31586SOL    HW2  595   3.401   1.422   4.089  1.6960  0.1436  0.5995
31587SOL     OW  596   7.486   0.203   5.356  0.4854 -0.1942  0.3968
31587SOL    HW1  597   7.398   0.181   5.388  0.9152 -0.6557  1.2833
31587SOL    HW2  598   7.490   0.165   5.268  0.0091 -0.6850  0.5863
31588SOL     OW  599   3.609   0.530   2.940  0.7834 -0.2747 -0.2941
31588SOL    HW1  600   3.514   0.537   2.954  0.9588  0.6778  0.5848
31588SOL    HW2  601   3.642   0.618   2.959  1.7784 -0.4226 -1.2430
31589SOL     OW  602  10.517   5.668   6.746  0.7305 -0.0757 -0.1660
31589SOL    HW1  603  10.501   5.594   6.687  0.6928  0.7371 -1.1938
31589SOL    HW2  604  10.535   5.742   6.688  1.4522  0.5783  0.8567
31590SOL     OW  605   5.298   0.336   2.345  0.2297  0.1717  0.0331
31590SOL    HW1  606   5.210   0.299   2.347 -0.0710  0.8405 -0.6477
31590SOL    HW2  607   5.300   0.396   2.420  0.6037 -0.9055  0.9283
31591SOL     OW  608  10.831   9.265   9.900 -0.2329 -0.2221 -0.3157
31591SOL    HW1  609  10.802   9.319   9.827 -2.0626 -1.4926 -0.5766
31591SOL    HW2  610  10.784   9.300   9.976  1.4121  0.8832  0.2528
31592SOL     OW  611  10.651   1.541   6.362 -0.2450 -0.1338  0.4366
31592SOL    HW1  612  10.586   1.611   6.368  0.4395  0.4057  1.8711
31592SOL    HW2  613  10.697   1.543   6.446  3.0102  0.8215 -1.2010
31593SOL     OW  614   2.205   9.614   4.423  0.1814  0.6062  0.3742
31593SOL    HW1  615   2.280   9.568   4.385 -0.8864 -0.2827 -0.7634
31593SOL    HW2  616   2.131   9.554   4.411 -1.1514  2.3184 -0.5216
31594SOL     OW  617   2.656   1.343   9.952 -0.0684 -0.5974  0.3273
31594SOL    HW1  618   2.616   1.279  10.011  0.8173 -1.0736  0.4213
31594SOL    HW2  619   2.744   1.356   9.985 -0.1591  0.5342  0.1871
31595SOL     OW  620  10.417   0.508   9.526  0.1326  0.1365 -0.0343
31595SOL    HW1  621  10.439   0.520   9.618  1.4636  0.0852 -0.3190
31595SOL    HW2  622  10.382   0.419   9.521 -1.1834  0.5804  0.6036
31596SOL     OW  623   4.612  10.012   3.719 -0.3105  0.0015 -0.0841
31596SOL    HW1  624   4.541  10.051   3.770  0.0739  0.7281 -0.1061
31596SOL    HW2  625   4.631   9.930   3.765 -0.6544  0.1649  0.3607
31597SOL     OW  626   7.720   5.454   1.169  0.2868 -0.1735 -0.2286
31597SOL    HW1  627   7.685   5.365   1.177  0.5873 -0.1619  1.8389
31597SOL    HW2  628   7.663   5.507   1.226  1.4332  0.5331  0.2918
31598SOL     OW  629   9.400   7.481   1.761 -0.1039  0.6826  0.0205
31598SOL    HW1  630   9.365   7.505   1.675  0.7751  1.2111 -0.2106
31598SOL    HW2  631   9.349   7.405   1.788 -1.2568  1.2946 -0.3882
31599SOL     OW  632   9.357   8.512   8.107  0.1132 -0.1694 -0.0946
31599SOL    HW1  633   9.444   8.476   8.088 -0.4010 -1.7269  0.3472
31599SOL    HW2  634   9.300   8.473   8.041 -0.4906 -0.2537  0.4668
31600SOL     OW  635   3.459   0.249   7.530  0.4447  0.0038  0.0678
31600SOL    HW1  636   3.514   0.307   7.582 -0.7645  0.9851  0.2982
31600SOL    HW2  637   3.426   0.304   7.459  3.6605 -1.7570 -3.1022
31601SOL     OW  638   6.165   5.378   7.544 -1.0690 -0.3067  0.5111
31601SOL    HW1  639   6.116   5.393   7.625 -1.0059  0.4086  0.4245
31601SOL    HW2  640   6.196   5.465   7.518 -0.5501 -0.6180  0.0579
31602SOL     OW  641   7.698   1.244   4.118 -0.1014 -0.1060 -0.0109
31602SOL    HW1  642   7.790   1.217   4.126 -0.3118 -1.0527 -0.6493
31602SOL    HW2  643   7.703   1.333   4.084  0.5776 -0.2617 -0.3435
31603SOL     OW  644   4.147  10.359   1.151  0.7922 -0.0488  0.3230
31603SOL    HW1  645   4.134  10.332   1.060  1.2456  0.6259  0.0523
31603SOL    HW2  646   4.059  10.362   1.188  0.6852 -1.3590  0.2189
31604SOL     OW  647  10.012   3.154   9.400 -0.3695 -0.4828 -1.2402
31604SOL    HW1  648   9.957   3.191   9.468  0.8833  1.2307 -1.1162
31604SOL    HW2  649  10.075   3.100   9.446 -1.8005 -2.3890 -1.3780
31605SOL     OW  650   3.675   0.172   1.651  0.1827 -0.1899 -0.3807
31605SOL    HW1  651   3.694   0.139   1.739  1.9465 -0.3842 -0.7997
31605SOL    HW2  652   3.666   0.266   1.662  1.7874 -0.0405 -0.1761
31606SOL     OW  653   6.856   6.293   5.133 -0.0850 -0.1964  0.4054
31606SOL    HW1  654   6.838   6.199   5.129  1.4303 -0.4912  0.0164
31606SOL    HW2  655   6.951   6.300   5.125  0.1586  1.2004  3.4026
31607SOL     OW  656   8.435  10.602   5.851 -0.0837 -0.4325 -0.5117
31607SOL    HW1  657   8.457  10.641   5.936 -0.7881  0.3805 -0.6845
31607SOL    HW2  658   8.486  10.653   5.788 -2.0135  1.1878 -0.8712
31608SOL     OW  659  10.669   5.498   6.468 -0.5275 -0.5282 -0.7358
31608SOL    HW1  660  10.596   5.558   6.451  0.3347  1.0659  0.8931
31608SOL    HW2  661  10.744   5.539   6.426  0.8403  1.5736  3.1996
31609SOL     OW  662   2.607   6.837   5.467  0.7456  0.1772 -0.6444
31609SOL    HW1  663   2.654   6.754   5.458  4.0725  1.6459  1.4830
31609SOL    HW2  664   2.515   6.812   5.477  1.3870 -3.0775 -1.8247
31610SOL     OW  665   5.643   9.816   7.839 -0.0856  0.4614 -0.4238
31610SOL    HW1  666   5.703   9.781   7.905 -0.4269  2.4449  1.0538
31610SOL    HW2  667   5.565   9.841   7.889 -0.5720  1.5025 -1.6670
31611SOL     OW  668   1.755  10.184  10.189  0.2063  0.6446  0.3727
31611SOL    HW1  669   1.768  10.240  10.113 -2.4398  2.4347  1.0919
31611SOL    HW2  670   1.792  10.234  10.262  1.5038 -0.4465  0.4967
31612SOL     OW  671   9.127   5.698   1.108  0.3907 -0.2866 -0.0947
31612SOL    HW1  672   9.145   5.708   1.201  0.6816  0.4090 -0.2186
31612SOL    HW2  673   9.164   5.613   1.085  1.7109  0.2110  0.0953
31613SOL     OW  674   8.622   6.065  10.170 -0.3467 -0.5797  0.1833
31613SOL    HW1  675   8.700   6.073  10.116 -1.1578 -1.1069 -1.1203
31613SOL    HW2  676   8.574   5.991  10.133 -0.6874 -1.3099  1.9751
31614SOL     OW  677   5.175   7.346   6.414  0.1173  0.4481  0.2811
31614SOL    HW1  678   5.217   7.273   6.369 -0.3227  0.9445 -0.9976
31614SOL    HW2  679   5.232   7.421   6.394 -0.3768  0.7745  0.0790
31615SOL     OW  680   8.859   0.421   4.619 -0.1336  0.0951  0.2823
31615SOL    HW1  681   8.875   0.327   4.615 -0.7632 -0.0067  0.1099
31615SOL    HW2  682   8.765   0.429   4.630  0.1889  0.5668  5.2223
31616SOL     OW  683   8.654   6.892   3.570 -0.6795 -0.4317 -0.0791
31616SOL    HW1  684   8.633   6.985   3.570  0.7330 -0.1029 -0.1179
31616SOL    HW2  685   8.568   6.849   3.568 -1.3491  0.8520 -0.1692
31617SOL     OW  686   0.456   2.629   7.870 -0.1591  0.2588 -0.3257
31617SOL    HW1  687   0.423   2.617   7.960  1.2215  1.6940  0.4107
31617SOL    HW2  688   0.471   2.723   7.863  0.9608  0.0033 -1.6323
31618SOL     OW  689   9.040   5.584   2.777 -0.1430 -0.2405  0.4996
31618SOL    HW1  690   9.016   5.675   2.757  0.5959  0.3901  2.2518
31618SOL    HW2  691   9.029   5.578   2.872  2.8712 -1.0235  0.8751
31619SOL     OW  692  10.176   1.924   3.977  0.1819 -0.4509 -0.2088
31619SOL    HW1  693  10.089   1.889   3.996  0.1038  0.7204  1.8476
31619SOL    HW2  694  10.160   2.014   3.948  0.6403 -0.7242 -1.3668
31620SOL     OW  695   6.610   6.239   2.199  0.7074  0.3250  0.7312
31620SOL    HW1  696   6.521   6.212   2.174  0.3769  2.0484 -0.1543
31620SOL    HW2  697   6.653   6.158   2.226 -0.2944 -1.0202 -1.3720
31621SOL     OW  698   3.616   6.334   1.665 -0.5598  0.1506  0.2453
31621SOL    HW1  699   3.555   6.264   1.640 -0.2983  0.2439 -0.6967
31621SOL    HW2  700   3.581   6.412   1.622  0.4947  0.1037 -0.7413
31622SOL     OW  701   3.199   0.377   9.156 -0.2625 -0.1924 -0.2143
31622SOL    HW1  702   3.281   0.344   9.192 -0.2532 -1.8970 -1.6913
31622SOL    HW2  703   3.138   0.374   9.229  1.0872  1.7918  1.1242
31623SOL     OW  704   5.110  10.680   1.663 -0.0182  0.1052  0.2606
31623SOL    HW1  705   5.172  10.703   1.595  0.6320  2.1121  1.4418
31623SOL    HW2  706   5.049  10.755   1.667 -0.8200 -0.5601  0.9995
31624SOL     OW  707   6.550   8.162   4.080 -0.0421  0.3704 -0.0989
31624SOL    HW1  708   6.466   8.174   4.036 -0.1614  2.4160  0.6074
31624SOL    HW2  709   6.592   8.248   4.079  2.3244 -0.6969 -0.9150
31625SOL     OW  710  10.739   7.412   9.704 -0.0400 -0.1742  0.1279
31625SOL    HW1  711  10.747   7.493   9.654 -1.1113 -0.0363  0.1646
31625SOL    HW2  712  10.825   7.371   9.697 -0.1348 -0.1423 -1.8065
31626SOL     OW  713   1.798   0.927   0.924  0.2323 -0.3047  0.1114
31626SOL    HW1  714   1.729   0.972   0.875  0.6718  0.7667  0.4474
31626SOL    HW2  715   1.754   0.852   0.964 -0.6291  0.0980 -0.0562
31627SOL     OW  716   1.001   3.846   8.984 -0.0909 -0.1537  0.0757
31627SOL    HW1  717   1.031   3.876   9.069 -1.5929  0.9704  0.2301
31627SOL    HW2  718   0.909   3.870   8.980  0.0165  0.1282 -1.9997
31628SOL     OW  719   7.417   3.314   5.189 -0.3077  0.0444 -0.1971
31628SOL    HW1  720   7.498   3.266   5.204  0.4192  1.4585  0.6770
31628SOL    HW2  721   7.359   3.252   5.146  2.5118  0.0643 -4.6593
31629SOL     OW  722   1.867   0.266   1.699 -0.2170  0.0104 -0.5258
31629SOL    HW1  723   1.842   0.249   1.608 -0.0831 -0.9823 -0.3808
31629SOL    HW2  724   1.793   0.314   1.735 -0.0172  0.9611 -1.3154
31630SOL     OW  725  10.559   4.809   5.746  0.1962 -0.0476 -0.2540
31630SOL    HW1  726  10.652   4.814   5.721  0.2893  1.5443  0.3126
31630SOL    HW2  727  10.515   4.780   5.666  1.1350 -0.5516 -0.6116
31631SOL     OW  728   3.319   5.742   3.724  0.0154 -0.2655 -0.0392
31631SOL    HW1  729   3.368   5.818   3.755 -0.2085  0.0814 -0.5338
31631SOL    HW2  730   3.381   5.670   3.729  0.1609 -0.1031  0.6523
31632SOL     OW  731   8.248   1.431   0.366 -0.5796 -0.5348  0.3246
31632SOL    HW1  732   8.185   1.360   0.348 -1.2441  0.1299 -0.0449
31632SOL    HW2  733   8.202   1.511   0.339 -0.6184  0.2617  2.5395
31633SOL     OW  734   6.884  10.249   9.727  0.0151 -0.0618 -0.4323
31633SOL    HW1  735   6.973  10.226   9.700 -0.0742  0.5508 -1.3061
31633SOL    HW2  736   6.895  10.288   9.814  0.4658 -0.9141 -0.0878
31634SOL     OW  737   9.969  10.706   3.653  0.2435  0.0215  0.0764
31634SOL    HW1  738   9.992  10.799   3.652  1.1990 -0.2116 -0.1054
31634SOL    HW2  739  10.016  10.669   3.727  0.3053 -0.4281 -0.1800
31635SOL     OW  740   0.539  10.415   7.081  0.1896  0.0856 -0.2450
31635SOL    HW1  741   0.582  10.396   7.164  0.1876 -0.7981 -0.4348
31635SOL    HW2  742   0.604  10.394   7.015 -0.1299 -0.1284 -0.4966
31636SOL     OW  743   4.623   6.883   4.520 -0.1281  0.5383  0.3627
31636SOL    HW1  744   4.629   6.913   4.610  0.3755  0.2524  0.4252
31636SOL    HW2  745   4.702   6.831   4.506 -0.1996  0.5862 -0.2438
31637SOL     OW  746   5.539   6.951   6.877 -0.4814  0.0273 -0.3151
31637SOL    HW1  747   5.582   6.900   6.808 -2.3641 -2.4309  0.1945
31637SOL    HW2  748   5.463   6.991   6.835  0.5272  1.8470 -0.5102
31638SOL     OW  749  10.589   5.910   2.571 -0.1455 -0.0416  0.4744
31638SOL    HW1  750  10.614   5.893   2.662  0.8380 -2.4591 -0.1528
31638SOL    HW2  751  10.663   5.878   2.519 -1.7772 -1.3312 -1.2330
31639SOL     OW  752   0.450   1.050   3.296  0.0873 -0.2122  0.5659
31639SOL    HW1  753   0.439   1.135   3.253  0.4750 -1.1100 -1.3877
31639SOL    HW2  754   0.467   0.989   3.225  0.3607 -1.8543  1.9825
31640SOL     OW  755   5.061   2.523   6.395 -0.2124 -0.3503 -0.1680
31640SOL    HW1  756   5.046   2.429   6.397  3.0014 -0.9588  2.4904
31640SOL    HW2  757   5.088   2.541   6.305 -1.1926 -1.8349 -0.8008
31641SOL     OW  758  10.257   1.555   3.697  0.0972 -0.1201  0.6503
31641SOL    HW1  759  10.184   1.616   3.689  0.7639  0.5484 -0.8254
31641SOL    HW2  760  10.267   1.541   3.791 -1.1455  0.7264  0.9309
31642SOL     OW  761   5.132   6.732   9.667 -0.3617  0.2015 -0.3170
31642SOL    HW1  762   5.087   6.753   9.585 -0.6297 -0.2241 -0.2825
31642SOL    HW2  763   5.079   6.662   9.706 -0.7127  0.9511  0.6131
31643SOL     OW  764   7.892   6.620   3.955 -0.2267  0.4350 -0.3972
31643SOL    HW1  765   7.926   6.535   3.928 -0.5533  0.5513 -1.1821
31643SOL    HW2  766   7.838   6.601   4.032  0.8360  0.1261  0.2800
31644SOL     OW  767   9.068   2.340   8.764 -0.5282 -0.0351 -0.3595
31644SOL    HW1  768   9.020   2.370   8.841 -3.6728 -0.8989 -1.8290
31644SOL    HW2  769   9.160   2.358   8.785 -1.0363 -1.3849  4.0916
31645SOL     OW  770  10.897   6.707   6.594 -0.3011 -0.0974  0.1596
31645SOL    HW1  771  10.839   6.637   6.565 -0.7208 -0.8202  2.5343
31645SOL    HW2  772  10.844   6.786   6.586 -0.3756 -0.2454 -1.0065
31646SOL     OW  773   7.268   5.814   4.463  0.5371  0.2443  0.8371
31646SOL    HW1  774   7.275   5.903   4.428  0.5480  0.7675  2.1035
31646SOL    HW2  775   7.192   5.816   4.520 -0.1331 -0.8878  0.0210
31647SOL     OW  776   1.668   5.447   7.198  0.0390 -0.0948 -0.0882
31647SOL    HW1  777   1.580   5.476   7.172  0.2304  0.7025  0.1308
31647SOL    HW2  778   1.670   5.354   7.176 -2.1865 -1.1186  3.3623
31648SOL     OW  779   3.670   8.389   1.282 -0.2003  0.2542 -0.3354
31648SOL    HW1  780   3.656   8.484   1.291 -0.4141  0.2043 -0.1267
31648SOL    HW2  781   3.619   8.351   1.354  0.6080  0.0311  0.1359
31649SOL     OW  782  10.632   0.416   0.203  0.5169  0.1836 -0.1239
31649SOL    HW1  783  10.720   0.378   0.211 -0.2732 -1.7140 -0.0091
31649SOL    HW2  784  10.613   0.451   0.290  1.2741  0.9459 -0.2445
31650SOL     OW  785   8.926   0.486   7.933 -0.6382  0.0071 -0.0565
31650SOL    HW1  786   8.915   0.499   7.839  0.0983  0.6883 -0.0662
31650SOL    HW2  787   8.969   0.401   7.941 -1.6095 -0.5140 -0.2662
31651SOL     OW  788   3.960   5.724   2.682 -0.1596  0.1266 -0.0838
31651SOL    HW1  789   4.047   5.706   2.717 -0.5690 -0.9547  0.4195
31651SOL    HW2  790   3.973   5.796   2.621  0.9590  0.4838  0.5528
31652SOL     OW  791  10.799   7.513   3.148  0.3779 -0.2389  0.4503
31652SOL    HW1  792  10.871   7.480   3.094  0.8394 -0.3188  1.0992
31652SOL    HW2  793  10.832   7.595   3.183 -0.8927  1.1541 -1.4312
31653SOL     OW  794   9.782   0.934   0.060  0.5321 -0.9357 -0.3716
31653SOL    HW1  795   9.765   0.840   0.051  0.9610 -0.9052 -1.7559
31653SOL    HW2  796   9.870   0.945   0.024  0.4483  0.0080 -0.2929
31654SOL     OW  797   8.057   4.278   4.490 -0.0177  0.3810 -0.1428
31654SOL    HW1  798   8.070   4.307   4.400  2.6071 -0.1198 -0.0095
31654SOL    HW2  799   8.033   4.186   4.483  0.2412  0.3288 -0.3401
31655SOL     OW  800   4.441   7.579   5.261 -0.1074 -0.1657 -0.1075
31655SOL    HW1  801   4.508   7.601   5.197 -1.5563  1.7382 -1.0840
31655SOL    HW2  802   4.370   7.640   5.243 -3.3607 -3.8449 -1.0096
31656SOL     OW  803   5.950   5.044   3.942  0.3425  0.0124  0.0481
31656SOL    HW1  804   5.961   5.009   4.030 -0.7382  2.1959  1.1438
31656SOL    HW2  805   5.867   5.006   3.911  0.8432 -0.9442 -0.1541
31657SOL     OW  806   0.072   6.541   0.408 -0.1128 -0.2407 -0.1865
31657SOL    HW1  807   0.168   6.535   0.414 -0.1924 -1.4106  0.0696
31657SOL    HW2  808   0.056   6.632   0.380  1.1087 -0.2447 -1.0113
31658SOL     OW  809   8.959   9.254   8.140  0.5225  0.2633  0.2239
31658SOL    HW1  810   9.018   9.305   8.195  1.4914 -0.5617 -0.0193
31658SOL    HW2  811   8.882   9.310   8.129  0.5912  0.7360  1.8206
31659SOL     OW  812   1.292  10.085  10.084  0.3377  0.3906 -0.1854
31659SOL    HW1  813   1.296  10.022  10.156 -1.6162  1.8370  1.3175
31659SOL    HW2  814   1.315  10.169  10.123  0.6118  1.0122 -1.5931
31660SOL     OW  815   8.148   6.098   3.821  0.3269  0.3544 -0.2523
31660SOL    HW1  816   8.181   6.031   3.761 -1.2910 -1.0518  0.3388
31660SOL    HW2  817   8.211   6.170   3.814  3.2689 -1.9351  0.5695
31661SOL     OW  818   4.420   9.564   8.166 -0.0372  0.3460  0.2326
31661SOL    HW1  819   4.464   9.482   8.142  0.3411  0.5192  0.3332
31661SOL    HW2  820   4.373   9.543   8.246  0.9774  0.5255  0.8938
31662SOL     OW  821   7.642   0.075   8.602 -0.2953 -0.0742  0.1133
31662SOL    HW1  822   7.586   0.068   8.525 -1.6934 -0.9890  1.1700
31662SOL    HW2  823   7.597   0.137   8.660 -0.7094 -1.4798  1.3460
31663SOL     OW  824   9.788   5.078   4.621  0.2921  0.4248  1.0653
31663SOL    HW1  825   9.884   5.078   4.620  0.3065 -0.4737  1.2313
31663SOL    HW2  826   9.764   4.987   4.602 -0.5623  0.9845 -0.6533
31664SOL     OW  827   7.380   2.038   8.678  0.0157  0.3491  0.3860
31664SOL    HW1  828   7.433   2.060   8.755 -1.0488  0.1081  1.2143
31664SOL    HW2  829   7.429   2.075   8.604  1.8373 -0.7111  0.9858
31665SOL     OW  830   9.108   6.807   4.336  0.1609  0.1376  0.3686
31665SOL    HW1  831   9.051   6.882   4.319 -0.1946  0.4689  2.7493
31665SOL    HW2  832   9.093   6.749   4.261 -2.2073  0.8577  0.1981
31666SOL     OW  833   6.681   3.652   3.110 -0.0980 -0.4902 -0.1353
31666SOL    HW1  834   6.656   3.604   3.189 -1.3574  2.7539  1.6348
31666SOL    HW2  835   6.751   3.711   3.140 -3.0569  3.4462 -0.2804
31667SOL     OW  836   3.107  10.089   0.552  0.7428  0.2390  0.1497
31667SOL    HW1  837   3.153  10.013   0.514 -1.4943 -2.3875  2.2451
31667SOL    HW2  838   3.165  10.118   0.622  2.7035  2.1259 -2.0854
31668SOL     OW  839   5.737   8.210   7.024 -0.4998 -0.3342  0.5271
31668SOL    HW1  840   5.729   8.202   7.119  1.2534 -1.5432  0.6179
31668SOL    HW2  841   5.824   8.248   7.010 -0.2849 -1.1818 -0.6147
31669SOL     OW  842  10.499   6.056   4.640 -0.2968 -0.5689 -0.2359
31669SOL    HW1  843  10.563   6.017   4.581 -1.0129  0.2394 -1.6003
31669SOL    HW2  844  10.534   6.041   4.728  0.6334 -2.1085 -0.8382
31670SOL     OW  845   4.005   8.153   8.412  0.7992 -0.0836  0.3812
31670SOL    HW1  846   4.020   8.084   8.475 -0.2747 -0.0840  0.6588
31670SOL    HW2  847   4.006   8.109   8.327  0.9381 -0.2961  0.4923
31671SOL     OW  848   7.991   2.182   9.690 -0.2885 -0.1566 -0.7252
31671SOL    HW1  849   7.954   2.263   9.725  0.3107  0.5805 -1.7299
31671SOL    HW2  850   8.052   2.152   9.758 -1.5883 -0.5713  0.2813
31672SOL     OW  851   3.300   1.812   5.188  0.0759  0.7870  0.8170
31672SOL    HW1  852   3.278   1.888   5.242  0.7357 -0.5950  3.1434
31672SOL    HW2  853   3.348   1.754   5.246 -0.7106 -1.6015 -0.7631
31673SOL     OW  854   5.906   4.265   8.638 -0.2091  0.1266 -0.7283
31673SOL    HW1  855   5.867   4.211   8.707 -0.8847  0.4281 -0.8623
31673SOL    HW2  856   5.985   4.301   8.678 -0.2888 -0.1531 -0.3036
31674SOL     OW  857   1.381   4.653   6.250 -0.5122 -0.8669  0.3226
31674SOL    HW1  858   1.358   4.588   6.184 -0.7662 -0.9147  0.4562
31674SOL    HW2  859   1.304   4.657   6.307 -0.6818 -0.1288  0.0544
31675SOL     OW  860   6.409   1.015   7.598  0.1022  0.1255  0.0055
31675SOL    HW1  861   6.438   0.970   7.519  0.1659 -1.0963  0.7080
31675SOL    HW2  862   6.470   1.089   7.608  0.4012 -0.0050 -0.7963
31676SOL     OW  863   3.035   5.661   2.328 -0.6396 -0.3890  0.1946
31676SOL    HW1  864   2.978   5.623   2.261 -3.2534  1.0464  1.4328
31676SOL    HW2  865   2.994   5.637   2.411  0.6519  0.5994  1.1649
31677SOL     OW  866   3.492   0.148   1.365 -0.1310  0.2184  0.1262
31677SOL    HW1  867   3.486   0.124   1.273  1.3396  4.8817 -1.4908
31677SOL    HW2  868   3.576   0.113   1.393 -0.2979 -0.7089 -0.4845
31678SOL     OW  869   8.668   2.795   9.424  0.0799  0.4324 -0.0087
31678SOL    HW1  870   8.664   2.720   9.482  0.1393  0.6707  0.3057
31678SOL    HW2  871   8.758   2.795   9.391  0.2284  0.6684  0.3952
31679SOL     OW  872   7.978   7.207   4.880 -0.1566 -0.6783 -0.3159
31679SOL    HW1  873   7.945   7.140   4.820  1.5090 -0.8441 -1.0884
31679SOL    HW2  874   7.993   7.160   4.962  1.6858 -1.4569 -1.0583
31680SOL     OW  875   6.629   0.248   0.218 -0.0417 -0.0020 -0.0542
31680SOL    HW1  876   6.711   0.245   0.268  0.2340 -0.8350 -0.5445
31680SOL    HW2  877   6.600   0.157   0.214 -1.3468  0.3644  0.6766
31681SOL     OW  878   3.435   5.449   1.126  0.4630  0.4135  0.4247
31681SOL    HW1  879   3.524   5.483   1.133  0.5110  0.8743 -1.7636
31681SOL    HW2  880   3.388   5.516   1.076 -0.7567 -0.4378  0.3991
31682SOL     OW  881   3.539   7.600   3.337 -0.3585  0.1467 -0.2339
31682SOL    HW1  882   3.546   7.695   3.344 -0.7650  0.1812 -0.2743
31682SOL    HW2  883   3.576   7.567   3.419  1.2551  0.2690 -0.8974
31683SOL     OW  884   6.521   9.527   2.995 -0.3732  0.3918 -0.2290
31683SOL    HW1  885   6.569   9.445   3.008 -1.3295 -0.3112 -1.0170
31683SOL    HW2  886   6.448   9.521   3.056 -1.0230  0.1802 -1.0199
31684SOL     OW  887   3.627   9.226   0.399 -0.3737 -0.2336 -0.3609
31684SOL    HW1  888   3.721   9.238   0.416 -1.2742  3.4909  3.9703
31684SOL    HW2  889   3.612   9.270   0.316  1.6346 -0.4667 -0.8994
31685SOL     OW  890   1.661   8.076   9.622  0.3506 -0.0668  0.0554
31685SOL    HW1  891   1.747   8.042   9.597  0.6711  1.4356 -1.0240
31685SOL    HW2  892   1.632   8.126   9.545 -1.0805  0.1992  0.7426
31686SOL     OW  893   6.830   3.671   0.505 -0.0715  0.4369  0.1613
31686SOL    HW1  894   6.795   3.603   0.447  0.5751  1.7876 -1.9006
31686SOL    HW2  895   6.765   3.678   0.575 -1.3872 -0.5993 -0.8900
31687SOL     OW  896   2.508   4.388   5.664  0.9540  0.0305  0.5572
31687SOL    HW1  897   2.547   4.432   5.740 -0.4788  0.1543  1.2448
31687SOL    HW2  898   2.429   4.347   5.698  1.5601 -1.9959 -0.3564
31688SOL     OW  899   6.898   5.541   9.233 -0.4832 -0.5012 -0.5517
31688SOL    HW1  900   6.887   5.447   9.249  0.4476 -0.2563  2.0386
31688SOL    HW2  901   6.815   5.580   9.262  0.4173 -0.2670  1.9821
31689SOL     OW  902   8.803   4.865   9.105  0.7185 -0.0417  0.3886
31689SOL    HW1  903   8.898   4.857   9.099  0.5328 -1.1777 -1.9623
31689SOL    HW2  904   8.770   4.807   9.037 -1.6019  2.2334 -0.5831
31690SOL     OW  905   8.595   1.962   4.379 -0.5067 -0.6695  0.2555
31690SOL    HW1  906   8.521   1.985   4.323  1.2104 -0.8263 -2.2386
31690SOL    HW2  907   8.590   1.867   4.389 -0.6760 -0.6678  0.1878
31691SOL     OW  908   3.364  10.064   5.804  0.7611  0.0884  0.0535
31691SOL    HW1  909   3.291  10.006   5.827  1.5793 -1.3576 -0.8118
31691SOL    HW2  910   3.387  10.038   5.714  0.1788  2.8377 -0.9840
31692SOL     OW  911   5.938   2.438   1.474  0.5137 -0.2102  0.2329
31692SOL    HW1  912   5.871   2.504   1.492  0.9096  0.8173 -1.7433
31692SOL    HW2  913   6.021   2.485   1.481  0.8061 -0.4737 -1.1085
31693SOL     OW  914   2.102   4.787   7.023  0.0153 -0.0109  0.1294
31693SOL    HW1  915   2.186   4.770   7.065  0.1560  0.4455  0.0431
31693SOL    HW2  916   2.076   4.704   6.984  0.5652 -0.0795 -0.0862
31694SOL     OW  917   0.729   0.256   9.799  0.4385 -0.7143 -0.0796
31694SOL    HW1  918   0.678   0.232   9.722 -0.6143  0.7389  0.1227
31694SOL    HW2  919   0.677   0.223   9.873 -1.0212  1.9031  0.2023
31695SOL     OW  920   9.303   8.276  10.424  0.0166 -0.1817  0.6729
31695SOL    HW1  921   9.376   8.326  10.459  0.1797  0.1727 -0.1362
31695SOL    HW2  922   9.252   8.249  10.500 -0.3411  1.6214  1.1053
31696SOL     OW  923   3.177   5.979   6.600  0.1789  0.3775 -0.2713
31696SOL    HW1  924   3.195   6.015   6.687  0.1035  0.8785 -0.4579
31696SOL    HW2  925   3.117   5.906   6.616 -1.4057  1.6798 -0.0561
31697SOL     OW  926   7.522   8.686   2.114  0.0847 -0.0623  0.4478
31697SOL    HW1  927   7.574   8.766   2.101 -1.5347  0.7867 -1.3466
31697SOL    HW2  928   7.443   8.700   2.062  0.0726 -3.1578 -0.5814
31698SOL     OW  929   3.682   7.826  10.266 -0.2775 -0.1319  0.2095
31698SOL    HW1  930   3.608   7.776  10.232  1.3500 -1.0316 -2.3179
31698SOL    HW2  931   3.677   7.910  10.220  0.7078 -0.5155 -0.6257
31699SOL     OW  932   6.357   9.787   7.465 -0.5838  0.2852  0.7136
31699SOL    HW1  933   6.433   9.737   7.492 -0.2248  0.9440  0.9495
31699SOL    HW2  934   6.389   9.877   7.454 -1.0605  0.3449 -0.3791
31700SOL     OW  935   2.885   3.281  10.140 -0.6147  0.5052  0.2636
31700SOL    HW1  936   2.882   3.329  10.223 -2.0932  0.5215  0.2292
31700SOL    HW2  937   2.923   3.343  10.077 -0.6166  0.9132  0.6636
31701SOL     OW  938  10.427   1.990   5.289 -0.4765 -0.0782 -0.3044
31701SOL    HW1  939  10.372   1.962   5.215  0.2066 -0.4927 -0.6602
31701SOL    HW2  940  10.364   2.008   5.359 -1.0448 -1.0525 -0.5387
31702SOL     OW  941   7.159  10.420  10.806 -0.0201  0.0214 -0.2553
31702SOL    HW1  942   7.141  10.464  10.723  0.8550  0.3523 -0.2882
31702SOL    HW2  943   7.231  10.471  10.844  0.4222 -0.8717  0.1146
31703SOL     OW  944  10.095   8.539   8.658  0.1541  0.1022 -0.6536
31703SOL    HW1  945  10.175   8.528   8.709 -0.0165  1.0232 -0.1484
31703SOL    HW2  946  10.036   8.585   8.717 -0.4318  0.2254 -1.3248
31704SOL     OW  947   8.878   9.728  10.404 -0.5302  0.7386  0.0117
31704SOL    HW1  948   8.868   9.725  10.309  2.1549  0.3537 -0.3485
31704SOL    HW2  949   8.789   9.717  10.439 -1.3338 -1.3791 -2.4023
31705SOL     OW  950   2.015   3.375   7.186  0.1517  0.2847  0.2980
31705SOL    HW1  951   1.927   3.408   7.170 -0.0048  0.1290  0.7889
31705SOL    HW2  952   2.011   3.282   7.163 -0.3075 -0.1444  1.9450
31706SOL     OW  953   8.441   5.982   6.115 -0.1114  0.3845  0.4148
31706SOL    HW1  954   8.386   6.056   6.090 -0.2874 -0.1200 -0.7601
31706SOL    HW2  955   8.419   5.913   6.052 -0.6596 -1.0187  2.0648
31707SOL     OW  956  10.306   1.329  10.853  0.7606 -0.1767 -0.9571
31707SOL    HW1  957  10.393   1.300  10.883  0.3699 -0.8577 -0.4293
31707SOL    HW2  958  10.292   1.282  10.771  0.8694 -0.1071 -1.0155
31708SOL     OW  959   2.682   8.111   6.732  0.2470 -0.0899  0.3877
31708SOL    HW1  960   2.646   8.162   6.660  0.4883 -0.0444  0.3000
31708SOL    HW2  961   2.751   8.059   6.693  1.6640  1.3240  0.9211
31709SOL     OW  962   5.412   7.378   9.478 -0.0935 -0.5594  0.9885
31709SOL    HW1  963   5.387   7.334   9.397  0.0415  0.1517  0.5483
31709SOL    HW2  964   5.449   7.461   9.449  0.7921 -0.6802  1.7318
31710SOL     OW  965   0.739   5.450   0.411  0.0961  0.3265 -0.3062
31710SOL    HW1  966   0.678   5.385   0.376 -0.4219  0.4700  0.3342
31710SOL    HW2  967   0.699   5.534   0.392  1.4894  0.5797 -2.5527
31711SOL     OW  968   6.233   5.077   0.111  0.5352  0.2641 -0.1644
31711SOL    HW1  969   6.288   5.019   0.165  0.1700  0.1934  0.1359
31711SOL    HW2  970   6.199   5.020   0.042 -1.1958 -0.3233  1.0916
31712SOL     OW  971   4.269   1.951  10.654 -0.2886 -0.1500 -0.4352
31712SOL    HW1  972   4.219   1.913  10.582 -1.0536 -1.3974  0.7070
31712SOL    HW2  973   4.218   1.930  10.732  0.3499  1.4538  0.4552
31713SOL     OW  974  10.307   4.343  10.336  0.1740  0.0899  0.3006
31713SOL    HW1  975  10.254   4.352  10.416  0.2167 -0.9235  0.4592
31713SOL    HW2  976  10.345   4.256  10.343  2.3698  1.0189  0.4736
31714SOL     OW  977   2.117   6.370   4.453 -0.2329  0.5050 -0.5189
31714SOL    HW1  978   2.101   6.326   4.536 -0.8921  0.6784 -0.5458
31714SOL    HW2  979   2.056   6.330   4.392  0.0460  0.5774 -0.8522
31715SOL     OW  980   4.057   0.933   2.896  0.6183 -0.1081  0.5379
31715SOL    HW1  981   4.066   1.001   2.963 -0.9750 -0.0067  0.6913
31715SOL    HW2  982   4.071   0.979   2.814  1.5743 -0.0201  0.7426
31716SOL     OW  983   7.181   3.798   7.951  0.0410  0.3635 -0.3203
31716SOL    HW1  984   7.095   3.808   7.993  1.0762  3.1256  1.4414
31716SOL    HW2  985   7.179   3.858   7.877 -0.1569 -1.0281 -1.4814
31717SOL     OW  986   8.507   0.413   6.218 -0.0661 -0.2382 -0.1217
31717SOL    HW1  987   8.443   0.422   6.289  0.6413 -1.8799  0.7601
31717SOL    HW2  988   8.457   0.377   6.145 -0.3444 -0.5800  0.2358
31718SOL     OW  989   8.358   9.452   5.642 -0.4395  0.7219 -0.4833
31718SOL    HW1  990   8.333   9.471   5.733 -0.3581 -0.4673 -0.1973
31718SOL    HW2  991   8.288   9.395   5.610  0.3713 -0.2195 -0.6262
31719SOL     OW  992   2.670   7.093   6.082 -0.6041 -0.1680 -0.2087
31719SOL    HW1  993   2.713   7.042   6.013 -1.4488  1.6134 -2.1638
31719SOL    HW2  994   2.739   7.109   6.146  1.2498  1.1043 -2.3647
31720SOL     OW  995   4.420   8.325   1.211 -0.0325 -0.4383 -0.0776
31720SOL    HW1  996   4.426   8.305   1.117  1.9473 -0.5641  0.0218
31720SOL    HW2  997   4.339   8.375   1.220  0.0807  0.1802 -1.9721
31721SOL     OW  998   8.503   0.263   0.628  0.0246  0.3282 -0.3032
31721SOL    HW1  999   8.487   0.336   0.688 -0.6698 -0.3161  0.3205
31721SOL    HW2 1000   8.581   0.220   0.662  0.3347  0.6680 -0.5727
31722SOL     OW 1001   6.962   0.107   2.687  0.3436 -0.3203 -0.2962
31722SOL    HW1 1002   6.876   0.148   2.699  0.7044 -0.2290  2.8118
31722SOL    HW2 1003   7.001   0.155   2.614 -1.2546  1.3832 -0.1186
31723SOL     OW 1004   3.790   9.570   5.827 -0.0097 -0.9023  0.0160
31723SOL    HW1 1005   3.739   9.505   5.876 -1.2537 -0.1657 -0.2406
31723SOL    HW2 1006   3.879   9.562   5.861 -0.6074 -1.1705  1.6127
31724SOL     OW 1007   8.564   6.522   6.661 -0.1766  0.2219 -0.5184
31724SOL    HW1 1008   8.478   6.563   6.650 -0.0783  0.2155 -1.4157
31724SOL    HW2 1009   8.579   6.475   6.579 -0.8849 -2.8012  0.9584
31725SOL     OW 1010   0.746   4.465   2.667  0.1317 -0.6242 -0.2149
31725SOL    HW1 1011   0.759   4.514   2.748  0.0237 -3.0912  1.3809
31725SOL    HW2 1012   0.823   4.487   2.614  0.8096  0.1398  1.0383
31726SOL     OW 1013   6.208  10.565   4.821 -0.2482  0.0900 -0.3884
31726SOL    HW1 1014   6.254  10.579   4.904 -1.5793 -0.3991  0.4696
31726SOL    HW2 1015   6.187  10.653   4.790 -1.5252  0.2620  0.8628
31727SOL     OW 1016   0.117   4.195   2.683  0.0227 -0.6148  0.6857
31727SOL    HW1 1017   0.111   4.238   2.768 -2.4062 -0.0364  0.2876
31727SOL    HW2 1018   0.027   4.170   2.662  0.5930 -0.9465 -1.6247
31728SOL     OW 1019   4.864   1.513   4.419 -0.0750 -0.1672  0.2751
31728SOL    HW1 1020   4.848   1.543   4.330  1.4547 -0.3011 -0.0711
31728SOL    HW2 1021   4.934   1.569   4.452 -2.0904  1.3961  2.2478
31729SOL     OW 1022   8.152   4.019  10.475 -0.2452  0.4954 -0.1654
31729SOL    HW1 1023   8.195   3.936  10.491 -1.5793  0.0859  1.7625
31729SOL    HW2 1024   8.073   3.996  10.426 -0.7101  0.5681  0.5295
31730SOL     OW 1025   2.499   5.391   7.623  0.3880 -0.5168  0.7893
31730SOL    HW1 1026   2.422   5.393   7.565  0.5508 -1.9412  0.4886
31730SOL    HW2 1027   2.530   5.482   7.625  0.4540 -0.4506 -1.4510
31731SOL     OW 1028   4.036  10.584   7.136  0.5251  0.2388 -0.0914
31731SOL    HW1 1029   3.957  10.614   7.092  0.4819  0.5956  0.2213
31731SOL    HW2 1030   4.107  10.633   7.094  0.3721  1.4754  1.0014
31732SOL     OW 1031   0.591   8.994   7.363 -0.7215 -0.8070  0.0147
31732SOL    HW1 1032   0.597   8.990   7.458 -0.2061 -1.7210 -0.0492
31732SOL    HW2 1033   0.498   8.985   7.344 -1.1042  1.4874  0.5052
31733SOL     OW 1034   2.762   7.738   8.819 -0.0714  0.3766  0.0680
31733SOL    HW1 1035   2.849   7.768   8.845 -0.1388  0.5092  0.1404
31733SOL    HW2 1036   2.774   7.704   8.730  0.3703 -0.9997  0.6189
31734SOL     OW 1037   8.963   8.875   6.009 -0.2857  0.3493 -0.5594
31734SOL    HW1 1038   9.039   8.817   6.017  0.3645  1.3177  0.6482
31734SOL    HW2 1039   8.992   8.944   5.949  0.1187  1.1869  0.5716
31735SOL     OW 1040   8.153   2.075   5.218 -0.2926  0.2896 -0.1033
31735SOL    HW1 1041   8.171   2.163   5.250  0.6699  0.0749 -0.0032
31735SOL    HW2 1042   8.108   2.032   5.291 -3.1242  1.4280 -1.0619
31736SOL     OW 1043   5.525   7.613   0.231 -0.0888  0.0782 -0.0191
31736SOL    HW1 1044   5.524   7.688   0.171 -1.0339 -1.7533 -2.4333
31736SOL    HW2 1045   5.448   7.626   0.286 -0.1595  0.9201 -0.2951
31737SOL     OW 1046   1.690   9.142   2.296  0.3282  0.0724  0.4119
31737SOL    HW1 1047   1.691   9.237   2.307  1.2149  0.0268  0.8387
31737SOL    HW2 1048   1.758   9.125   2.231  0.6338 -0.3171  0.8263
31738SOL     OW 1049   3.875   1.205   7.784 -0.5606  0.7638  0.0144
31738SOL    HW1 1050   3.900   1.146   7.855 -1.7897 -0.2983 -0.3942
31738SOL    HW2 1051   3.803   1.160   7.740  0.9152  0.8174 -2.6623
31739SOL     OW 1052   2.569  10.179   7.715 -0.3829 -0.2930 -0.4071
31739SOL    HW1 1053   2.588  10.267   7.745  1.7031 -0.7812 -0.1702
31739SOL    HW2 1054   2.524  10.191   7.631 -0.7100  0.9825 -0.0649
31740SOL     OW 1055   7.939   9.349   3.811  0.0911 -0.4902  0.2638
31740SOL    HW1 1056   7.912   9.277   3.869  1.0496 -0.6168  0.5849
31740SOL    HW2 1057   8.008   9.310   3.757 -1.7554 -0.8031 -2.0143
31741SOL     OW 1058   5.156   8.951   4.209 -0.3302 -0.2994 -0.3036
31741SOL    HW1 1059   5.237   8.903   4.223  0.4121  1.2853  1.3332
31741SOL    HW2 1060   5.183   9.030   4.163 -0.5653  1.0851  1.7620
31742SOL     OW 1061   7.494   6.497   6.853 -0.2222  0.0241  0.4898
31742SOL    HW1 1062   7.446   6.414   6.845 -0.3819  0.2986 -2.5606
31742SOL    HW2 1063   7.539   6.490   6.937 -1.8523 -2.2640  1.2802
31743SOL     OW 1064   1.481   0.301   2.053  0.4259  0.9249  0.2065
31743SOL    HW1 1065   1.492   0.224   1.997  0.8972  1.3240 -0.2582
31743SOL    HW2 1066   1.387   0.305   2.069  0.2766  0.8251 -0.5970
31744SOL     OW 1067   8.318   7.039   4.882 -0.2200 -0.1967  0.3883
31744SOL    HW1 1068   8.227   7.038   4.855 -0.3381 -2.3075  0.6617
31744SOL    HW2 1069   8.344   6.947   4.883  2.6040  0.4057 -1.9247
31745SOL     OW 1070   7.558   3.072   5.200  0.0540  0.1381 -0.7166
31745SOL    HW1 1071   7.652   3.068   5.183  0.2616  1.0981  0.1132
31745SOL    HW2 1072   7.519   3.025   5.127  1.1352  0.4060 -1.4994
31746SOL     OW 1073   3.797   2.712   9.878  0.1867  0.5306  0.0286
31746SOL    HW1 1074   3.732   2.645   9.855 -0.0497  0.4669  0.8672
31746SOL    HW2 1075   3.847   2.674   9.950  1.0321  0.6634 -0.4796
31747SOL     OW 1076   2.338   1.286   2.635 -0.5764 -0.6026  0.9277
31747SOL    HW1 1077   2.351   1.194   2.613  3.8023 -0.3649  1.5658
31747SOL    HW2 1078   2.294   1.285   2.720  1.0068 -2.2177  1.7796
31748SOL     OW 1079   2.388   5.490   5.217 -0.0712 -0.0598  0.8508
31748SOL    HW1 1080   2.480   5.517   5.218 -0.1553  0.2284  0.9112
31748SOL    HW2 1081   2.374   5.448   5.302 -0.0313  0.0222  0.8985
31749SOL     OW 1082   8.373   0.290   9.814 -0.3773  0.5929 -0.4056
31749SOL    HW1 1083   8.315   0.339   9.872  2.0510  1.9920  0.9947
31749SOL    HW2 1084   8.390   0.208   9.860  0.5866  1.1896  0.3312
31750SOL     OW 1085   0.491   4.484  10.788  0.7933 -0.1799 -0.0277
31750SOL    HW1 1086   0.475   4.425  10.862 -2.1682 -0.7092 -0.9769
31750SOL    HW2 1087   0.534   4.430  10.723  1.0460 -0.4053  0.3225
31751SOL     OW 1088   0.766   2.137   6.999 -0.3285  0.3386 -0.0671
31751SOL    HW1 1089   0.843   2.138   6.941  0.6043  0.3704  1.1243
31751SOL    HW2 1090   0.767   2.223   7.041 -0.8219  0.2114  0.2121
31752SOL     OW 1091   3.590   5.837   0.379 -0.1446 -0.0712  0.3390
31752SOL    HW1 1092   3.683   5.848   0.362 -0.2574 -1.3120 -1.2216
31752SOL    HW2 1093   3.586   5.783   0.458  0.4562 -0.2409  0.2526
31753SOL     OW 1094   6.643   5.806   2.841 -0.0223 -0.4366  0.2846
31753SOL    HW1 1095   6.675   5.720   2.869 -0.5797 -0.6424  0.3183
31753SOL    HW2 1096   6.648   5.860   2.920 -2.0699 -1.1549  0.9768
31754SOL     OW 1097   4.845  10.258   9.598  0.5712 -0.1186  0.6080
31754SOL    HW1 1098   4.822  10.262   9.505  0.9156 -0.6366  0.4923
31754SOL    HW2 1099   4.852  10.165   9.617 -1.0557 -0.0847  1.5644
31755SOL     OW 1100   5.338   6.027   0.246 -0.2985  0.3886 -0.4080
31755SOL    HW1 1101   5.248   5.997   0.262 -0.1637  0.9676  1.6525
31755SOL    HW2 1102   5.328   6.117   0.217 -0.3641  1.1575  1.8011
31756SOL     OW 1103   8.402   8.474   7.847  0.0077 -0.2871  0.5596
31756SOL    HW1 1104   8.387   8.401   7.907  0.9044  0.1783  1.3675
31756SOL    HW2 1105   8.317   8.518   7.840  0.2520  0.6676  2.8460
31757SOL     OW 1106   4.674   4.990   5.115 -0.2318 -0.0727  0.1985
31757SOL    HW1 1107   4.626   4.908   5.099 -0.3820  0.2459 -1.0585
31757SOL    HW2 1108   4.612   5.059   5.093  0.6253  0.3499 -0.9509
31758SOL     OW 1109   6.017   1.770   9.630 -0.3244  0.3893  0.0555
31758SOL    HW1 1110   6.069   1.827   9.686  0.6231 -0.3691 -0.0431
31758SOL    HW2 1111   6.071   1.756   9.553 -0.9696  0.1477 -0.3622
31759SOL     OW 1112  10.123   6.161   9.326  0.3601  0.2470 -0.3790
31759SOL    HW1 1113  10.159   6.248   9.345 -0.7074  0.7540 -0.5986
31759SOL    HW2 1114  10.043   6.179   9.277  0.7965 -0.9056 -1.5847
31760SOL     OW 1115  10.184   6.644   3.090 -0.1200  0.2191  0.6283
31760SOL    HW1 1116  10.276   6.669   3.102 -0.4239  1.1756  0.9797
31760SOL    HW2 1117  10.160   6.599   3.171 -0.0262  0.1670  0.6272
31761SOL     OW 1118   5.932   8.430   0.867  0.1608 -0.9112  0.6034
31761SOL    HW1 1119   5.978   8.513   0.852  1.2540 -1.4105  1.0538
31761SOL    HW2 1120   5.966   8.399   0.951 -0.9175 -1.3811  0.8860
31762SOL     OW 1121   2.636   8.158   8.898 -0.3388  0.0768  0.1062
31762SOL    HW1 1122   2.636   8.080   8.954  0.0425  0.0043  0.0073
31762SOL    HW2 1123   2.722   8.157   8.856 -0.2478  0.6744  0.2725
31763SOL     OW 1124   1.186   7.484   4.126 -0.3047 -0.0033 -0.1910
31763SOL    HW1 1125   1.271   7.444   4.113 -0.4603 -0.2367 -0.5035
31763SOL    HW2 1126   1.149   7.438   4.202  0.0038  0.3628  0.1844
31764SOL     OW 1127   2.817   2.855  10.850  0.4928 -0.5062 -0.0198
31764SOL    HW1 1128   2.766   2.778  10.873  2.0404 -1.8537 -0.9549
31764SOL    HW2 1129   2.754   2.927  10.855 -0.4125 -1.3352  3.5472
31765SOL     OW 1130   2.372   4.411   3.921 -0.2761  0.5621  0.3353
31765SOL    HW1 1131   2.457   4.399   3.962 -0.1805  0.7195  0.1835
31765SOL    HW2 1132   2.389   4.469   3.847 -0.6903  1.4691  0.9296
31766SOL     OW 1133   0.137   9.240  10.895 -0.0546  0.1431 -0.5689
31766SOL    HW1 1134   0.140   9.229  10.990  1.5487 -2.0141 -0.7979
31766SOL    HW2 1135   0.170   9.328  10.880 -0.5697  0.6133  0.8801
31767SOL     OW 1136  10.362   1.897   1.853  0.0092 -0.2561  0.0128
31767SOL    HW1 1137  10.398   1.808   1.851 -0.0967 -0.2917 -0.6916
31767SOL    HW2 1138  10.305   1.901   1.775 -0.3097  0.2912  0.2712
31768SOL     OW 1139   4.408   5.816   5.745 -0.0005  0.5210  0.4479
31768SOL    HW1 1140   4.355   5.894   5.758 -0.7451  0.1256 -0.1576
31768SOL    HW2 1141   4.444   5.796   5.831  0.0021  1.3803  0.6567
31769SOL     OW 1142   4.105   6.392   1.091  0.0351  0.3569  0.6973
31769SOL    HW1 1143   4.135   6.302   1.098  0.8882  0.3424 -1.9503
31769SOL    HW2 1144   4.024   6.395   1.142  1.1756 -1.2578  2.7432
31770SOL     OW 1145   5.461   4.559   5.080  0.2136 -0.3569  0.0759
31770SOL    HW1 1146   5.555   4.543   5.088  0.3725 -1.2984 -2.5667
31770SOL    HW2 1147   5.426   4.476   5.048 -1.3196  0.3807 -0.2360
31771SOL     OW 1148   0.700   8.880   1.739  0.0678  0.2000  0.4703
31771SOL    HW1 1149   0.699   8.895   1.834  0.3817 -1.7879  0.8455
31771SOL    HW2 1150   0.769   8.815   1.726 -0.3135  0.0688 -1.0529
31772SOL     OW 1151  10.329   9.426   8.551 -0.4002 -0.6832 -0.2070
31772SOL    HW1 1152  10.315   9.509   8.506  1.1271  0.0117  0.5139
31772SOL    HW2 1153  10.274   9.363   8.504 -1.8147  0.7765 -0.5915
31773SOL     OW 1154   1.729   9.311   9.288 -0.1268  0.1998  0.2591
31773SOL    HW1 1155   1.690   9.380   9.343  0.0771  0.0968  0.5360
31773SOL    HW2 1156   1.722   9.231   9.341  2.0602  0.4842  1.0891
31774SOL     OW 1157   2.629   6.541   3.963  0.0851  0.3634  0.1347
31774SOL    HW1 1158   2.647   6.463   3.911  0.0447 -0.6903  1.6486
31774SOL    HW2 1159   2.715   6.571   3.992  0.0520  0.5106  0.0816
31775SOL     OW 1160   5.204   4.046   2.292  0.6251  0.2698 -1.1670
31775SOL    HW1 1161   5.247   3.961   2.288  2.2742  0.7926  2.3166
31775SOL    HW2 1162   5.112   4.027   2.269  0.9081 -2.4648 -0.3765
31776SOL     OW 1163   2.945   0.045  10.214  0.0262  0.3973  0.3036
31776SOL    HW1 1164   2.981   0.101  10.145 -0.6663  1.4310  0.7638
31776SOL    HW2 1165   2.989  -0.039  10.201  3.2908  1.7863  1.3292
31777SOL     OW 1166   6.161   0.372   2.284 -0.1088 -0.1086 -0.2474
31777SOL    HW1 1167   6.090   0.413   2.234  0.4532 -0.3341 -1.2492
31777SOL    HW2 1168   6.118   0.300   2.331 -0.5436 -0.2984 -0.9123
31778SOL     OW 1169   4.735  10.602   4.844  0.3649  0.6840 -0.1006
31778SOL    HW1 1170   4.761  10.638   4.929  0.7143  1.4908 -0.5440
31778SOL    HW2 1171   4.772  10.514   4.844 -1.7480 -0.2952  1.5976
31779SOL     OW 1172   6.213   2.598  10.671 -0.5735  0.3447  0.0451
31779SOL    HW1 1173   6.252   2.515  10.644  0.4100  1.1012 -0.9508
31779SOL    HW2 1174   6.288   2.653  10.695 -1.0202  1.6856 -1.4741
31780SOL     OW 1175   1.586   0.451   4.409 -0.3367  0.1074 -0.2834
31780SOL    HW1 1176   1.652   0.455   4.340 -0.6969 -1.1437 -0.7081
31780SOL    HW2 1177   1.612   0.377   4.464 -1.4097 -0.4395 -0.4871
31781SOL     OW 1178   1.779  10.127   1.507 -0.8885 -0.3089 -0.4580
31781SOL    HW1 1179   1.815  10.040   1.494 -2.5863 -1.2339  0.7139
31781SOL    HW2 1180   1.730  10.146   1.427  0.0648 -0.0948 -1.0086
31782SOL     OW 1181   3.207   8.635  10.763  0.2478 -0.1498 -0.2342
31782SOL    HW1 1182   3.123   8.667  10.732  0.6229 -0.2780 -1.4122
31782SOL    HW2 1183   3.214   8.669  10.852 -0.6905  0.5220 -0.4065
31783SOL     OW 1184   0.941   9.844   2.237 -0.1902  0.1627  0.9191
31783SOL    HW1 1185   0.970   9.821   2.325  1.0260 -0.7073  0.3167
31783SOL    HW2 1186   1.021   9.847   2.185 -1.0785 -1.9887 -0.7410
31784SOL     OW 1187   0.620   1.418   8.433 -0.1592  0.3224 -0.4464
31784SOL    HW1 1188   0.578   1.345   8.387 -0.0619  0.0380 -0.0894
31784SOL    HW2 1189   0.714   1.398   8.429  0.1368  1.7954 -2.7054
31785SOL     OW 1190   0.115   3.746   1.963 -0.4044 -0.6183  0.6154
31785SOL    HW1 1191   0.160   3.663   1.975  0.7954 -0.0031  0.4930
31785SOL    HW2 1192   0.039   3.725   1.909  1.2140 -1.2559 -1.5196
31786SOL     OW 1193   6.189   5.580   5.476 -0.0187 -0.3445  0.0313
31786SOL    HW1 1194   6.157   5.645   5.538  0.7408 -0.7319  0.8632
31786SOL    HW2 1195   6.139   5.501   5.497 -2.7363  0.5129 -2.6008
31787SOL     OW 1196   3.446   7.691   0.209  0.1592  0.1776  0.5244
31787SOL    HW1 1197   3.351   7.705   0.218  0.3241  0.6589  1.6828
31787SOL    HW2 1198   3.471   7.650   0.292  0.8173 -0.8078 -0.1555
31788SOL     OW 1199   1.583   7.231   8.808  0.5243  0.2086  0.7974
31788SOL    HW1 1200   1.660   7.271   8.769  2.1198 -2.6467  0.7792
31788SOL    HW2 1201   1.516   7.235   8.739  1.1574  1.1718  0.2071
31789SOL     OW 1202   2.223   8.102   7.973 -0.3865  0.8048  0.0897
31789SOL    HW1 1203   2.192   8.042   7.905 -0.2324 -0.0866  0.7836
31789SOL    HW2 1204   2.309   8.069   7.997 -0.3537  1.2301  0.5781
31790SOL     OW 1205   6.145  10.084   4.362  0.4339  0.1729  0.1193
31790SOL    HW1 1206   6.182  10.059   4.277  0.5230  1.3994 -0.2236
31790SOL    HW2 1207   6.146  10.180   4.361 -1.0336  0.2122  0.8726
31791SOL     OW 1208   6.830  10.072   4.421 -0.4155  0.1056 -0.5537
31791SOL    HW1 1209   6.895  10.039   4.359  0.9046 -1.5958  1.5907
31791SOL    HW2 1210   6.869  10.151   4.457  0.0941 -0.4145  0.0657
31792SOL     OW 1211   9.238   0.795   7.732 -0.1776 -0.1724 -0.0457
31792SOL    HW1 1212   9.244   0.814   7.639 -2.8518  1.1087 -0.0464
31792SOL    HW2 1213   9.253   0.700   7.739  0.2973 -0.2432 -1.7137
31793SOL     OW 1214   9.278   6.740   3.749  0.4507  0.6520  0.0382
31793SOL    HW1 1215   9.357   6.732   3.695  0.5658 -1.9762  0.4526
31793SOL    HW2 1216   9.206   6.737   3.686  0.5244 -3.7725 -0.1294
31794SOL     OW 1217   0.540   3.547   9.382 -0.4353 -0.3222  0.2090
31794SOL    HW1 1218   0.533   3.610   9.311  0.9596  0.7015  0.9206
31794SOL    HW2 1219   0.507   3.465   9.345 -0.5706  0.3922 -1.3207
31795SOL     OW 1220   1.622   6.614   7.583  0.3609  0.1385  0.0431
31795SOL    HW1 1221   1.717   6.619   7.582  0.3132  1.1019 -0.3585
31795SOL    HW2 1222   1.595   6.631   7.493 -0.2775  2.4778  0.5890
31796SOL     OW 1223   8.455   4.946   0.964  0.0370 -0.2637  0.1370
31796SOL    HW1 1224   8.378   4.973   0.914  0.5480  1.2605  0.1151
31796SOL    HW2 1225   8.463   4.852   0.947 -2.1177 -0.5804  0.5954
31797SOL     OW 1226   6.474   3.538   8.214  0.4052  0.7756  0.0893
31797SOL    HW1 1227   6.532   3.613   8.201 -0.4103  1.5680  0.8241
31797SOL    HW2 1228   6.399   3.557   8.157 -0.6788  1.5205  1.6804
31798SOL     OW 1229   5.981   5.020  10.688 -0.1519 -0.2742 -0.2887
31798SOL    HW1 1230   6.047   4.984  10.746  1.2942  0.1135 -1.6327
31798SOL    HW2 1231   5.936   5.087  10.741  2.8794  1.9876 -0.3020
31799SOL     OW 1232   3.199   6.431   8.969  0.5716  0.1007 -0.3837
31799SOL    HW1 1233   3.165   6.514   8.934  2.5472  0.7334 -0.9459
31799SOL    HW2 1234   3.128   6.368   8.955 -1.2916  1.8253  0.7483
31800SOL     OW 1235   2.366   1.549   8.497  0.0201 -0.1898 -0.2402
31800SOL    HW1 1236   2.318   1.631   8.490  1.1405  0.4456 -0.6685
31800SOL    HW2 1237   2.334   1.497   8.423  1.4635  1.0365 -1.8070
31801SOL     OW 1238   4.758   3.818   6.112 -0.1779  0.5873  0.2718
31801SOL    HW1 1239   4.733   3.909   6.098 -0.0493  0.6791  0.6599
31801SOL    HW2 1240   4.773   3.784   6.023 -2.5189  0.2910 -0.0846
31802SOL     OW 1241   5.858   7.016  10.783 -0.5434  0.6235  0.0094
31802SOL    HW1 1242   5.841   7.063  10.701 -1.0653  1.2369  0.4561
31802SOL    HW2 1243   5.933   7.062  10.822 -0.1452  0.1853 -0.2337
31803SOL     OW 1244   6.209   4.767   2.759  0.5773 -0.4575  0.3023
31803SOL    HW1 1245   6.197   4.673   2.741  1.6719 -1.0228  2.2049
31803SOL    HW2 1246   6.122   4.805   2.747  0.4408 -1.3591 -2.2058
31804SOL     OW 1247   6.878   4.931   7.204  0.7704 -0.1309  0.6158
31804SOL    HW1 1248   6.933   4.935   7.283  0.9324 -1.3985  0.6031
31804SOL    HW2 1249   6.939   4.947   7.132  0.9011 -0.3302  0.6790
31805SOL     OW 1250   7.957   1.086   0.096 -0.4348 -0.0539  0.2883
31805SOL    HW1 1251   7.867   1.054   0.093  0.3930 -2.5304 -0.9529
31805SOL    HW2 1252   8.010   1.007   0.093  1.8083  1.3694  0.5484
31806SOL     OW 1253   3.908   4.302   8.755 -0.5633  0.1993  0.6061
31806SOL    HW1 1254   3.935   4.229   8.700  0.4047  2.2597 -1.8675
31806SOL    HW2 1255   3.969   4.300   8.829 -0.1449 -1.0824  0.2542
31807SOL     OW 1256   9.571   7.791   9.513  0.0314  0.2790 -0.2132
31807SOL    HW1 1257   9.661   7.822   9.506 -0.0074  0.3679 -0.3217
31807SOL    HW2 1258   9.576   7.697   9.496  0.4206 -0.1436  1.9484
31808SOL     OW 1259   6.023   7.021   4.864  0.6935  0.1067 -0.3978
31808SOL    HW1 1260   5.939   6.980   4.885  0.5103 -1.0398 -2.9481
31808SOL    HW2 1261   6.000   7.110   4.838  0.2413 -0.1910 -1.0498
31809SOL     OW 1262   8.514   5.331   2.459  0.2554  0.1764  0.2589
31809SOL    HW1 1263   8.532   5.343   2.366  0.8304  0.5091  0.4102
31809SOL    HW2 1264   8.561   5.251   2.482  0.5272  0.3680  0.3740
31810SOL     OW 1265  10.465  10.300  10.853 -0.7269  0.0841  0.0134
31810SOL    HW1 1266  10.473  10.231  10.787  0.1172  1.4776 -1.4333
31810SOL    HW2 1267  10.389  10.276  10.905  0.2773 -2.5702  0.3934
31811SOL     OW 1268   8.168   7.066   0.902 -0.5764  0.2015  0.0276
31811SOL    HW1 1269   8.238   7.024   0.952 -1.6120  2.1839  3.5002
31811SOL    HW2 1270   8.192   7.159   0.901 -1.6696  0.4915 -1.4065
31812SOL     OW 1271   2.438   4.665   9.465  0.0328  0.7051  0.7452
31812SOL    HW1 1272   2.501   4.723   9.507  0.4798  1.1396 -0.5142
31812SOL    HW2 1273   2.356   4.682   9.512  0.4196  1.4835  1.1626
31813SOL     OW 1274   8.062   9.528   8.628 -0.0786  0.1033  0.2031
31813SOL    HW1 1275   8.054   9.613   8.585  1.4964  0.6622  0.9244
31813SOL    HW2 1276   8.144   9.534   8.678 -0.1945 -1.6583  0.6774
31814SOL     OW 1277   7.395   4.661   8.616 -0.4085  0.3321  0.2074
31814SOL    HW1 1278   7.427   4.574   8.593 -0.0624 -0.3402  2.8700
31814SOL    HW2 1279   7.441   4.720   8.557 -0.2871 -1.2307 -1.3430
31815SOL     OW 1280   3.571  10.575   8.399 -0.0044  0.2265  0.7962
31815SOL    HW1 1281   3.649  10.533   8.363  0.2474 -0.2585  1.8798
31815SOL    HW2 1282   3.510  10.579   8.325  1.0118  0.5708 -0.0546
31816SOL     OW 1283   9.082   4.998   6.362  0.5230  0.1260  0.0957
31816SOL    HW1 1284   9.108   4.956   6.444 -1.3018 -0.0622  0.6173
31816SOL    HW2 1285   8.986   4.998   6.364  0.4168 -0.4047 -2.3005
31817SOL     OW 1286   6.423   8.405   3.871  0.2357  0.0409 -0.2437
31817SOL    HW1 1287   6.503   8.364   3.838 -0.5497 -0.4888 -1.5564
31817SOL    HW2 1288   6.386   8.338   3.929 -0.0151 -0.3158 -0.8092
31818SOL     OW 1289   9.725   4.269  10.704 -0.4842  0.1949 -0.4330
31818SOL    HW1 1290   9.720   4.353  10.660 -1.2885  1.6122  2.1735
31818SOL    HW2 1291   9.634   4.240  10.711 -0.2348 -0.7821 -1.0591
31819SOL     OW 1292  10.094   2.078   8.681  0.0044  0.0819  0.2913
31819SOL    HW1 1293  10.009   2.085   8.639  0.8677  1.9056 -1.3300
31819SOL    HW2 1294  10.077   2.032   8.763 -2.3661 -0.3801 -0.3805
31820SOL     OW 1295   0.770   8.769   5.250  0.8088 -0.0610 -0.3879
31820SOL    HW1 1296   0.813   8.706   5.308  0.0580 -1.7113 -1.5301
31820SOL    HW2 1297   0.677   8.746   5.254  0.4767  1.2179 -0.5669
31821SOL     OW 1298   7.363   5.610   4.321 -0.5250  0.0686  0.0896
31821SOL    HW1 1299   7.308   5.618   4.243 -0.8593 -0.9026  0.2169
31821SOL    HW2 1300   7.328   5.675   4.381  0.5511  1.7611 -1.0132
31822SOL     OW 1301   9.213  10.914   9.823  0.5025  0.3751 -0.0312
31822SOL    HW1 1302   9.198  10.986   9.762  0.4725  0.2832 -0.1322
31822SOL    HW2 1303   9.207  10.835   9.769  1.3534  0.3344 -0.0760
31823SOL     OW 1304   2.850   7.972   6.573  0.2227  0.3916 -0.4285
31823SOL    HW1 1305   2.839   7.901   6.511  0.7651 -0.7288  0.7064
31823SOL    HW2 1306   2.906   8.035   6.528 -0.7422  0.3959 -1.6655
31824SOL     OW 1307   1.314   0.558   7.401  0.4305  0.2998 -0.1761
31824SOL    HW1 1308   1.375   0.490   7.432  2.2067  1.5602 -0.7283
31824SOL    HW2 1309   1.270   0.517   7.326  2.6534  0.2293 -1.5293
31825SOL     OW 1310   3.143   0.734   3.803 -0.4076  0.1300  0.1727
31825SOL    HW1 1311   3.191   0.740   3.886  0.8423 -2.1019 -0.3141
31825SOL    HW2 1312   3.176   0.808   3.752 -0.1263  0.6923  1.1209
31826SOL     OW 1313   1.078   5.785   4.800  0.1429  0.0519  0.2759
31826SOL    HW1 1314   1.011   5.719   4.782  0.0692 -0.5189  2.3343
31826SOL    HW2 1315   1.043   5.866   4.764 -1.2664 -0.4120  0.5387
31827SOL     OW 1316   8.606   1.010   7.228 -0.4103 -0.0251 -0.1741
31827SOL    HW1 1317   8.511   1.024   7.230 -0.4758 -0.3073 -0.9448
31827SOL    HW2 1318   8.637   1.071   7.161 -0.1762 -0.6014 -0.6007
31828SOL     OW 1319   9.401   5.235   3.632 -0.5672  0.0749 -0.9019
31828SOL    HW1 1320   9.464   5.270   3.569  0.9799 -1.2122 -0.1507
31828SOL    HW2 1321   9.377   5.310   3.686  0.1512  0.6385 -1.3467
31829SOL     OW 1322  10.263  10.728   9.333  0.3661  0.5585 -0.0706
31829SOL    HW1 1323  10.196  10.794   9.316 -0.8924 -0.8711 -1.0163
31829SOL    HW2 1324  10.249  10.703   9.425 -2.1980 -1.5109 -0.9048
31830SOL     OW 1325   6.874   2.976   0.976 -0.1273  0.3763 -0.2738
31830SOL    HW1 1326   6.909   2.976   1.065  1.2934 -1.6663 -0.7764
31830SOL    HW2 1327   6.791   2.930   0.983 -0.6004  1.2857  0.1848
31831SOL     OW 1328   6.160   4.119   5.425  0.1453  0.2715 -0.0758
31831SOL    HW1 1329   6.167   4.073   5.509 -0.4900  1.6389  0.7653
31831SOL    HW2 1330   6.237   4.091   5.376 -0.0007 -1.3386  0.5555
31832SOL     OW 1331   3.968   0.792  10.327  0.3870  0.3890 -0.1750
31832SOL    HW1 1332   3.990   0.885  10.332  1.8535  0.0314  0.6314
31832SOL    HW2 1333   3.880   0.790  10.288 -0.2995  2.1631  1.1504
31833SOL     OW 1334   4.519   8.601   5.320 -0.3472 -0.5115 -0.5098
31833SOL    HW1 1335   4.543   8.604   5.413 -0.9267 -1.9512 -0.2978
31833SOL    HW2 1336   4.523   8.693   5.292 -0.6499  0.0228  1.0640
31834SOL     OW 1337   9.376  10.611   6.648  0.4713  0.7463  0.3804
31834SOL    HW1 1338   9.285  10.606   6.680 -0.5544  1.2916 -2.1774
31834SOL    HW2 1339   9.371  10.574   6.560  3.5117 -2.6734  1.4111
31835SOL     OW 1340   5.411   6.567   1.078 -0.5465 -0.1531 -0.5650
31835SOL    HW1 1341   5.392   6.534   0.990 -1.4085 -0.0870 -0.4192
31835SOL    HW2 1342   5.405   6.489   1.134  0.3088 -0.2494 -0.6022
31836SOL     OW 1343   8.629   9.859   9.460  0.4004 -0.2750 -0.1283
31836SOL    HW1 1344   8.544   9.865   9.504  1.0466 -0.6616  1.2561
31836SOL    HW2 1345   8.616   9.794   9.391 -0.6463  0.3229 -0.5193
31837SOL     OW 1346   4.464   3.264   6.522 -0.5073 -0.0015  0.3367
31837SOL    HW1 1347   4.441   3.357   6.511  1.5694  0.7735  1.8229
31837SOL    HW2 1348   4.426   3.240   6.606 -0.7663 -0.4087  0.1035
31838SOL     OW 1349   4.841   5.839   3.182 -0.3190  0.2982  0.4033
31838SOL    HW1 1350   4.904   5.850   3.252 -0.2461 -1.5743  0.7004
31838SOL    HW2 1351   4.762   5.884   3.213  0.7151  2.3771  0.1661
31839SOL     OW 1352   4.829   4.358   5.494  0.1238  0.3786 -0.0852
31839SOL    HW1 1353   4.896   4.345   5.561  1.2518  0.2869 -1.1928
31839SOL    HW2 1354   4.795   4.446   5.510  0.9272  0.6528  0.1310
31840SOL     OW 1355   9.523   8.590   8.913  0.0657 -0.3806 -0.2286
31840SOL    HW1 1356   9.588   8.652   8.945 -0.4945 -0.2549  0.7085
31840SOL    HW2 1357   9.449   8.599   8.973 -0.1088 -1.8048 -0.1779
31841SOL     OW 1358   6.900   3.525   2.787 -0.0004 -0.3993  0.2115
31841SOL    HW1 1359   6.994   3.524   2.806  0.2390 -1.5808 -0.9491
31841SOL    HW2 1360   6.883   3.614   2.757  0.6133  0.0024  1.0043
31842SOL     OW 1361   8.948   1.666   5.507  0.0242  0.2822  0.2257
31842SOL    HW1 1362   8.971   1.746   5.459 -0.1405  0.8461  1.0510
31842SOL    HW2 1363   8.872   1.631   5.462  0.7508 -0.0206 -0.8066
31843SOL     OW 1364   6.412   9.316   3.165 -0.2390  0.2677 -0.5588
31843SOL    HW1 1365   6.378   9.253   3.101 -0.2273  1.1419 -1.4536
31843SOL    HW2 1366   6.490   9.274   3.200  1.4625  0.9239 -3.2760
31844SOL     OW 1367   2.242   2.874   7.215  0.2419 -0.1408  0.1727
31844SOL    HW1 1368   2.262   2.947   7.274  1.0958  0.4558 -0.8193
31844SOL    HW2 1369   2.316   2.815   7.225  0.2133 -0.2107 -0.0408
31845SOL     OW 1370   0.738   0.175   8.489 -0.3201  0.3516 -0.2399
31845SOL    HW1 1371   0.713   0.162   8.581  0.4556  1.9459  0.2324
31845SOL    HW2 1372   0.667   0.227   8.452 -1.0136 -0.9398 -0.7816
31846SOL     OW 1373   9.101  10.822   5.672 -0.1228 -0.3445 -0.3308
31846SOL    HW1 1374   9.174  10.837   5.732 -0.0274 -0.5744 -0.3871
31846SOL    HW2 1375   9.122  10.739   5.629  0.3325  0.3153 -1.4337
31847SOL     OW 1376   0.890   3.247   9.405  0.2035 -0.3741 -0.3648
31847SOL    HW1 1377   0.855   3.246   9.494 -0.3522 -1.3672 -0.5850
31847SOL    HW2 1378   0.950   3.172   9.402  0.2956 -0.2845 -0.7919
31848SOL     OW 1379   5.310   6.007   8.694 -0.0773 -0.2310 -0.4617
31848SOL    HW1 1380   5.239   5.992   8.757 -1.3885 -0.0618 -1.8432
31848SOL    HW2 1381   5.390   6.005   8.747 -1.2200  1.4482  1.4728
31849SOL     OW 1382   5.986   0.124   2.361 -0.5636  0.6626  0.6119
31849SOL    HW1 1383   5.950   0.110   2.273 -0.3746  2.3943  0.2208
31849SOL    HW2 1384   5.911   0.111   2.419 -0.1959 -2.8488  0.4727
31850SOL     OW 1385   5.349   0.302   3.566 -0.6175  0.3467 -0.3051
31850SOL    HW1 1386   5.443   0.308   3.586 -0.2089 -1.4752 -1.4213
31850SOL    HW2 1387   5.345   0.251   3.486 -2.5762  0.7419 -0.5119
31851SOL     OW 1388   1.216   0.589   6.251  0.2491  0.5354  0.3381
31851SOL    HW1 1389   1.170   0.587   6.167 -2.3326 -1.1963  1.6402
31851SOL    HW2 1390   1.155   0.548   6.313  1.8293  2.1226  3.1914
31852SOL     OW 1391   5.978   7.738   8.317  0.5972 -0.7516  0.1608
31852SOL    HW1 1392   5.940   7.680   8.383  0.7499 -1.4707 -0.3722
31852SOL    HW2 1393   5.927   7.819   8.324  0.7047 -0.7660  1.2458
31853SOL     OW 1394   8.300   6.325   3.758  0.8843 -0.2299  0.2881
31853SOL    HW1 1395   8.294   6.309   3.853  3.9021  0.4485  0.7020
31853SOL    HW2 1396   8.394   6.329   3.741  0.4236  1.8935 -2.3665
31854SOL     OW 1397   1.962   7.085   1.772  0.0145 -0.4018  0.4514
31854SOL    HW1 1398   1.926   7.026   1.706  1.5149 -2.5317  1.4133
31854SOL    HW2 1399   2.000   7.157   1.723 -0.0276 -1.2888 -0.9126
31855SOL     OW 1400   2.702   8.829   3.190  0.1804 -0.3269 -0.4912
31855SOL    HW1 1401   2.790   8.791   3.194  0.0058 -0.7697  3.6519
31855SOL    HW2 1402   2.644   8.756   3.211 -0.7725  0.7507  0.7694
31856SOL     OW 1403   0.790   6.695   5.579 -0.6678 -0.4488 -0.2333
31856SOL    HW1 1404   0.803   6.614   5.629  1.9791 -0.8152 -1.3394
31856SOL    HW2 1405   0.805   6.668   5.488  0.3995  1.2909 -0.6077
31857SOL     OW 1406  10.450   6.037   8.879 -0.3120 -0.0987 -0.6298
31857SOL    HW1 1407  10.429   6.015   8.970  0.0873 -0.9917 -0.7439
31857SOL    HW2 1408  10.365   6.037   8.834 -0.4312 -0.4072 -0.4096
31858SOL     OW 1409   7.551  10.737   6.502  0.0334 -0.7199  0.2389
31858SOL    HW1 1410   7.644  10.752   6.518 -0.1125  1.1833 -0.4686
31858SOL    HW2 1411   7.516  10.823   6.480 -2.0169 -1.2927  1.0245
31859SOL     OW 1412   2.939   5.988   4.916  0.5181 -0.3162  0.2059
31859SOL    HW1 1413   2.948   5.908   4.864  2.7261  0.3241 -0.4696
31859SOL    HW2 1414   2.845   6.008   4.912  0.2226 -1.7867 -1.2480
31860SOL     OW 1415   4.792   3.379   7.510  0.1138 -0.6356 -0.5388
31860SOL    HW1 1416   4.771   3.302   7.562  1.1375  1.1367  2.7810
31860SOL    HW2 1417   4.864   3.421   7.557  1.0945  1.2305 -3.4027
31861SOL     OW 1418   2.237   1.306   6.274  1.0410 -0.1837  0.4923
31861SOL    HW1 1419   2.214   1.233   6.217  0.0801 -0.0662  0.7059
31861SOL    HW2 1420   2.162   1.315   6.332  0.3469  2.0856 -0.6515
31862SOL     OW 1421   9.659   0.114   7.069  0.2314  0.6196 -0.5900
31862SOL    HW1 1422   9.679   0.205   7.089 -1.0414  0.7661  0.1587
31862SOL    HW2 1423   9.632   0.077   7.153  0.0791 -0.2630 -1.0175
31863SOL     OW 1424   0.974   2.335   5.147  0.3278  0.4714 -0.5185
31863SOL    HW1 1425   0.884   2.308   5.165  0.3110  1.2371  0.6941
31863SOL    HW2 1426   0.975   2.355   5.053 -0.9777  1.1584 -0.4133
31864SOL     OW 1427  10.565   2.251   4.269  0.1126  0.4915 -0.0371
31864SOL    HW1 1428  10.470   2.236   4.266  0.4973 -2.4430 -0.0412
31864SOL    HW2 1429  10.577   2.314   4.340 -1.7217 -0.4078  1.1313
31865SOL     OW 1430   0.080   4.426   7.335  0.0040  0.5826 -0.3215
31865SOL    HW1 1431   0.012   4.365   7.364 -0.3580  0.7181 -0.8826
31865SOL    HW2 1432   0.069   4.431   7.240  1.3455 -0.0477 -0.5321
31866SOL     OW 1433   8.158   6.430   0.435 -0.1566  0.5066 -0.3696
31866SOL    HW1 1434   8.071   6.438   0.475 -0.1747 -1.9857  0.2540
31866SOL    HW2 1435   8.190   6.520   0.430 -1.3568  1.2279  2.5558
31867SOL     OW 1436   4.878   2.838   0.595 -0.4432  0.0192  0.5554
31867SOL    HW1 1437   4.811   2.854   0.661 -0.7356 -0.5738  0.4083
31867SOL    HW2 1438   4.956   2.884   0.628 -1.3733  2.2109 -0.1271
31868SOL     OW 1439   9.891   9.619   9.922 -0.2243  0.0008  0.2127
31868SOL    HW1 1440   9.876   9.634   9.829 -0.3180 -1.7913 -0.1117
31868SOL    HW2 1441   9.803   9.612   9.960 -0.2113 -0.9439  0.0988
31869SOL     OW 1442   5.077   0.487   2.830  0.1385  0.0705  1.1172
31869SOL    HW1 1443   5.085   0.392   2.831 -0.0056  0.0317 -0.2471
31869SOL    HW2 1444   4.987   0.504   2.800  0.7442  0.6230 -0.5028
31870SOL     OW 1445   4.430   7.652   8.285  0.0425 -0.0748  0.2475
31870SOL    HW1 1446   4.490   7.699   8.228  0.1235 -0.2328  0.2026
31870SOL    HW2 1447   4.451   7.560   8.271 -0.5879 -0.1579 -0.1934
31871SOL     OW 1448  10.433   9.186   7.351  0.3241 -0.1085  0.2344
31871SOL    HW1 1449  10.439   9.205   7.257 -0.5199 -1.0154 -0.0165
31871SOL    HW2 1450  10.517   9.145   7.372  0.1641 -0.7726 -0.3506
31872SOL     OW 1451   4.527   5.003   6.967  0.1837  0.5386 -0.3289
31872SOL    HW1 1452   4.476   4.932   7.007  0.5715  0.1750 -0.4682
31872SOL    HW2 1453   4.618   4.980   6.985  0.2910  1.4034  0.2855
31873SOL     OW 1454   3.299   1.192   0.313 -0.3975 -0.1189  0.1063
31873SOL    HW1 1455   3.279   1.250   0.239  0.3995 -0.6659 -0.5636
31873SOL    HW2 1456   3.395   1.183   0.310 -0.6061 -2.9736 -1.0064
31874SOL     OW 1457   3.366   1.708  10.754  0.1626  0.3420  0.2708
31874SOL    HW1 1458   3.283   1.739  10.790 -0.3245 -1.5196  0.8954
31874SOL    HW2 1459   3.341   1.638  10.694  1.2857 -0.7359  1.0063
31875SOL     OW 1460   3.743   2.721   4.720 -0.4416  0.4149  0.0558
31875SOL    HW1 1461   3.776   2.649   4.772 -0.4276  0.9252  0.7663
31875SOL    HW2 1462   3.692   2.774   4.781 -0.6261  0.8934 -0.4979
31876SOL     OW 1463   6.276   1.246   1.532 -0.3004  0.0353 -0.0420
31876SOL    HW1 1464   6.357   1.281   1.496  0.3959 -0.6129  0.8273
31876SOL    HW2 1465   6.293   1.152   1.542 -0.2492  0.2222  2.3356
31877SOL     OW 1466   2.577   4.129   9.483 -0.0168  0.5482 -0.3827
31877SOL    HW1 1467   2.666   4.112   9.516 -0.2893 -0.6836 -0.2192
31877SOL    HW2 1468   2.526   4.148   9.561 -0.0597  0.5020 -0.4000
31878SOL     OW 1469   7.715   5.220   2.151 -0.3007  0.1858 -0.0942
31878SOL    HW1 1470   7.739   5.276   2.077 -0.5050 -0.3195 -0.5474
31878SOL    HW2 1471   7.785   5.233   2.215 -0.8617  1.7693  0.2599
31879SOL     OW 1472   2.972   6.311   7.085  0.0910  0.5573  0.7828
31879SOL    HW1 1473   2.973   6.277   7.175  0.4558  0.5126  0.7627
31879SOL    HW2 1474   3.064   6.327   7.065  0.2488 -1.5324 -0.3820
31880SOL     OW 1475  10.381   3.222   9.810  0.4866 -0.3511  0.0018
31880SOL    HW1 1476  10.289   3.250   9.805  0.9540  1.0824 -2.2471
31880SOL    HW2 1477  10.377   3.129   9.830 -1.3923 -0.0155  1.4477
31881SOL     OW 1478   2.543   6.466   7.793  0.0673 -0.2182 -0.6796
31881SOL    HW1 1479   2.539   6.375   7.822 -2.1951 -0.1702 -0.6614
31881SOL    HW2 1480   2.565   6.516   7.872  0.7462 -0.6809 -0.5692
31882SOL     OW 1481   2.403   9.807   0.047 -0.7702 -0.1979  0.2970
31882SOL    HW1 1482   2.311   9.785   0.033  0.0584 -1.8962 -3.6620
31882SOL    HW2 1483   2.419   9.884  -0.007  0.4601 -0.9441 -0.4649
31883SOL     OW 1484   1.264   0.621   7.029 -0.6888  0.0985 -0.7811
31883SOL    HW1 1485   1.329   0.589   7.092 -1.6058  2.3356  1.4848
31883SOL    HW2 1486   1.315   0.662   6.960  0.4097 -3.7464 -2.5275
31884SOL     OW 1487   4.761   2.564   7.908  0.1439  0.4143  0.0559
31884SOL    HW1 1488   4.698   2.538   7.841  0.9233 -2.0685  0.1861
31884SOL    HW2 1489   4.739   2.655   7.928 -2.5263  0.0452 -0.8258
31885SOL     OW 1490   8.795   7.352   7.231 -0.7360  0.1428  0.6531
31885SOL    HW1 1491   8.773   7.266   7.267  1.9335 -1.3668 -0.9910
31885SOL    HW2 1492   8.882   7.371   7.267 -1.0186  1.9187  0.4946
31886SOL     OW 1493   8.192   3.808   9.493  0.0081  0.0627  0.2740
31886SOL    HW1 1494   8.167   3.808   9.401  0.5179  2.7613  0.0436
31886SOL    HW2 1495   8.258   3.740   9.500 -3.4144 -3.6590 -0.1867
31887SOL     OW 1496   0.477   5.252   8.173  0.1886 -0.0115  0.2126
31887SOL    HW1 1497   0.432   5.319   8.123  0.3827 -0.1206 -0.1110
31887SOL    HW2 1498   0.407   5.210   8.225 -0.1657 -0.4957 -0.6397
31888SOL     OW 1499   6.429   8.991   8.098 -0.2579 -0.0839 -1.0312
31888SOL    HW1 1500   6.519   8.988   8.130  0.2040  0.0207 -2.2681
31888SOL    HW2 1501   6.383   8.923   8.147  0.7664 -0.9211 -1.2176
31889SOL     OW 1502  10.421   4.265   3.168 -0.1667  0.4448  0.2961
31889SOL    HW1 1503  10.440   4.287   3.077  1.8738 -1.9795  0.0299
31889SOL    HW2 1504  10.327   4.247   3.169  0.1781 -2.3141 -2.1175
31890SOL     OW 1505  10.473  10.466   4.126  0.1612 -0.3791  0.4865
31890SOL    HW1 1506  10.566  10.457   4.151 -0.0622  0.1800  1.5612
31890SOL    HW2 1507  10.425  10.431   4.200 -0.5419  1.5790  1.0038
31891SOL     OW 1508   7.601   6.985  10.649 -0.1390 -0.1958 -0.5361
31891SOL    HW1 1509   7.650   6.996  10.568  2.5777  0.3070  1.0410
31891SOL    HW2 1510   7.510   6.999  10.624  0.7631  2.0593 -3.1058
31892SOL     OW 1511   0.237   1.672   5.014 -0.1590  0.1288  0.0383
31892SOL    HW1 1512   0.148   1.708   5.021  0.8146  2.4455  1.6311
31892SOL    HW2 1513   0.242   1.608   5.085 -0.6078 -0.1521 -0.1769
31893SOL     OW 1514   9.601   7.938   2.384  0.6714  0.3434 -0.2882
31893SOL    HW1 1515   9.526   7.943   2.325  0.9088  1.2014 -0.5364
31893SOL    HW2 1516   9.646   7.857   2.361 -0.6605 -0.6434  0.4569
31894SOL     OW 1517   8.976   3.491   4.631 -0.3416  0.0354 -0.0736
31894SOL    HW1 1518   9.053   3.446   4.666 -1.0780 -0.3280  1.1350
31894SOL    HW2 1519   8.902   3.435   4.654 -1.0120  0.5320 -0.9357
31895SOL     OW 1520   0.902   4.872   2.808  0.0947 -0.1335 -0.1386
31895SOL    HW1 1521   0.899   4.832   2.721 -0.2306  2.2424 -1.3107
31895SOL    HW2 1522   0.981   4.837   2.848 -0.2090 -1.9330 -1.0303
31896SOL     OW 1523   4.659  10.425   7.797  0.1048 -0.3947  0.2251
31896SOL    HW1 1524   4.704  10.493   7.748 -0.5817  0.6256  0.9709
31896SOL    HW2 1525   4.579  10.409   7.746  0.7098 -1.3604 -0.4641
31897SOL     OW 1526   5.765   6.894   4.785  0.1318  0.3118  0.0142
31897SOL    HW1 1527   5.672   6.909   4.766 -0.0610  0.5793  1.0772
31897SOL    HW2 1528   5.766   6.863   4.876  0.9616 -1.2289 -0.4873
31898SOL     OW 1529   1.322   6.274   3.280 -0.3213 -0.9794 -0.0320
31898SOL    HW1 1530   1.268   6.200   3.251 -0.8761 -2.1636  3.5351
31898SOL    HW2 1531   1.407   6.235   3.301 -0.2899 -0.4469  0.8799
31899SOL     OW 1532   0.771   3.022   4.201  0.0797 -0.7788 -1.0373
31899SOL    HW1 1533   0.786   2.943   4.150  0.1507 -0.2271 -1.8814
31899SOL    HW2 1534   0.745   3.088   4.137  0.1498 -0.0786 -0.3605
31900SOL     OW 1535   6.608   0.991   8.612  0.4887 -0.5315 -0.1944
31900SOL    HW1 1536   6.679   0.931   8.589  0.6921  0.0653 -1.1796
31900SOL    HW2 1537   6.540   0.934   8.648  1.3067 -1.1562  0.4108
31901SOL     OW 1538   7.523  10.363   9.192  0.0447 -0.1181 -0.2511
31901SOL    HW1 1539   7.522  10.425   9.119  3.1248 -1.1282 -1.2949
31901SOL    HW2 1540   7.516  10.277   9.151  3.0567 -0.7825  0.3826
31902SOL     OW 1541   5.168   9.288   0.757 -0.2040 -0.3014 -0.2798
31902SOL    HW1 1542   5.073   9.285   0.771 -0.2832  0.6115 -0.5103
31902SOL    HW2 1543   5.177   9.289   0.661 -0.0430  0.9956 -0.2710
31903SOL     OW 1544   9.376   6.841  10.300 -0.0454 -0.1177  0.5124
31903SOL    HW1 1545   9.302   6.873  10.353  0.0423 -0.8142  1.0745
31903SOL    HW2 1546   9.394   6.912  10.239 -1.0384  0.1570  0.5135
31904SOL     OW 1547   8.138   7.307   0.334 -0.4903 -0.1226 -0.4786
31904SOL    HW1 1548   8.085   7.230   0.313  0.3035 -0.8353  0.0915
31904SOL    HW2 1549   8.184   7.327   0.253  0.4891 -1.2145 -0.2224
31905SOL     OW 1550   8.216   7.813   5.266 -0.2441 -0.5697  0.2515
31905SOL    HW1 1551   8.298   7.787   5.308 -0.6645  0.2871  1.6740
31905SOL    HW2 1552   8.202   7.748   5.198  1.7034 -0.6350 -0.1434
31906SOL     OW 1553   8.384   1.829   3.293 -0.3444  0.0041 -1.1112
31906SOL    HW1 1554   8.442   1.872   3.356 -1.6553  0.5847 -0.2513
31906SOL    HW2 1555   8.439   1.762   3.251  1.2818  1.3370 -1.2402
31907SOL     OW 1556   6.548   2.423   9.341 -0.1137 -0.0305 -0.0222
31907SOL    HW1 1557   6.526   2.486   9.273 -0.5932  1.3664  1.3825
31907SOL    HW2 1558   6.480   2.356   9.335  0.9651 -1.0364 -2.1920
31908SOL     OW 1559   8.257   5.934   0.360  0.5886  0.0599  0.0640
31908SOL    HW1 1560   8.189   6.002   0.351  0.3155 -0.2500 -0.2349
31908SOL    HW2 1561   8.259   5.891   0.275  0.6681 -0.3993  0.2977
31909SOL     OW 1562   8.486   6.663   7.185  0.0424 -0.2303 -0.1406
31909SOL    HW1 1563   8.501   6.699   7.098  0.2370  2.3443  0.8527
31909SOL    HW2 1564   8.555   6.702   7.239 -1.5794  0.3398  1.6361
31910SOL     OW 1565   3.633   3.621   3.088  0.2704 -0.1307 -0.0089
31910SOL    HW1 1566   3.667   3.620   3.178 -0.0138  0.9341  0.1224
31910SOL    HW2 1567   3.657   3.706   3.054 -2.8457  1.0489  0.3479
31911SOL     OW 1568   2.722   5.644   0.558  0.2452  0.2465 -0.0419
31911SOL    HW1 1569   2.650   5.656   0.495 -0.3326 -1.2833  0.2914
31911SOL    HW2 1570   2.800   5.634   0.503  0.0359  0.7705 -0.4469
31912SOL     OW 1571   9.010   1.928   4.576 -0.7250 -0.0294  0.0937
31912SOL    HW1 1572   8.989   1.931   4.669  2.0995 -3.3391  1.0587
31912SOL    HW2 1573   9.104   1.945   4.571 -0.5498 -1.1317 -1.9489
31913SOL     OW 1574   1.813   5.666   8.682 -0.0689 -0.3750  0.1955
31913SOL    HW1 1575   1.847   5.752   8.662 -2.7217  0.8799  0.6140
31913SOL    HW2 1576   1.889   5.608   8.680  2.0956  2.2225  1.5363
31914SOL     OW 1577   8.910   6.005   5.942  0.0990 -0.3627  0.1933
31914SOL    HW1 1578   8.828   6.042   5.974 -0.3548  0.1799 -1.4663
31914SOL    HW2 1579   8.889   5.973   5.854  1.9903  1.1891 -0.9274
31915SOL     OW 1580   4.479   3.240   2.645 -0.0835 -0.1908 -0.9954
31915SOL    HW1 1581   4.452   3.288   2.567  0.9523  0.1043 -1.1812
31915SOL    HW2 1582   4.573   3.229   2.636  0.0617 -0.1393  0.2206
31916SOL     OW 1583   3.430   4.509   1.190  0.0073  0.1768 -0.6061
31916SOL    HW1 1584   3.388   4.492   1.275  2.6792  0.9653  0.9845
31916SOL    HW2 1585   3.443   4.422   1.153  0.8067 -0.3890  0.8880
31917SOL     OW 1586   6.009   7.550   0.885 -0.8075  0.1323  0.4785
31917SOL    HW1 1587   5.987   7.467   0.927  1.2203 -0.6782  0.0392
31917SOL    HW2 1588   5.976   7.617   0.945 -0.5341 -0.9982  1.9211
31918SOL     OW 1589   9.928   0.949   1.541 -0.6445  0.2905 -0.1926
31918SOL    HW1 1590   9.902   0.995   1.620 -0.0915 -0.0160  0.1760
31918SOL    HW2 1591   9.873   0.870   1.540 -1.1064  0.6149 -0.4581
31919SOL     OW 1592   2.466   0.889   1.195  0.2973 -0.0175 -0.3648
31919SOL    HW1 1593   2.423   0.895   1.281  0.0404  1.6338 -0.5905
31919SOL    HW2 1594   2.395   0.867   1.135  0.7945 -3.4529  0.0539
31920SOL     OW 1595   5.508   1.478   9.623 -0.2369  0.0101 -0.6188
31920SOL    HW1 1596   5.482   1.386   9.622 -0.6180  0.1179 -1.0537
31920SOL    HW2 1597   5.552   1.491   9.540 -0.5090  0.3128 -0.7150
31921SOL     OW 1598   3.306   8.287   1.604 -0.2126 -0.1541  0.0815
31921SOL    HW1 1599   3.277   8.345   1.533  1.1821  0.2834 -0.1526
31921SOL    HW2 1600   3.362   8.222   1.562  0.5559  0.0512  0.7537
31922SOL     OW 1601   0.745   8.716   5.665  0.2051  0.3973 -0.4585
31922SOL    HW1 1602   0.778   8.666   5.591  0.0814  2.7706 -2.2302
31922SOL    HW2 1603   0.665   8.670   5.692  1.0091 -1.2894 -0.8394
31923SOL     OW 1604   4.289   6.626   2.643 -0.1627 -0.7949 -0.2977
31923SOL    HW1 1605   4.304   6.646   2.735  1.8695 -1.7944 -0.3434
31923SOL    HW2 1606   4.198   6.596   2.639 -0.4840 -0.1292  1.2433
31924SOL     OW 1607   8.950   6.792   1.780 -0.3372 -0.4427  0.3277
31924SOL    HW1 1608   8.949   6.697   1.781 -1.9199 -0.4419  1.0803
31924SOL    HW2 1609   8.870   6.818   1.827 -0.5663  1.2476 -0.9099
31925SOL     OW 1610   0.586   2.829   8.437 -0.6311  0.3811  0.0855
31925SOL    HW1 1611   0.499   2.804   8.407 -0.8371  1.6690 -0.4451
31925SOL    HW2 1612   0.595   2.784   8.521 -1.1601 -1.0287 -0.5671
31926SOL     OW 1613   7.317   9.622   2.373  0.0176  0.4427  0.2504
31926SOL    HW1 1614   7.356   9.553   2.427  0.4673  1.1613  0.8673
31926SOL    HW2 1615   7.390   9.659   2.324  0.0031  1.2710  0.8247
31927SOL     OW 1616   8.547   3.000   1.511 -0.1194 -0.2360 -0.0453
31927SOL    HW1 1617   8.523   3.087   1.543 -0.8035 -0.5019  0.1816
31927SOL    HW2 1618   8.606   3.016   1.438 -0.1094  0.4157  0.1026
31928SOL     OW 1619   7.955   2.673   7.521 -0.0514 -0.3702  0.4351
31928SOL    HW1 1620   7.892   2.640   7.585  0.2485 -0.8253  0.5001
31928SOL    HW2 1621   8.004   2.595   7.494 -1.5888 -0.6223 -1.9638
31929SOL     OW 1622   3.857   2.045   1.313 -0.1870 -0.3325  0.1574
31929SOL    HW1 1623   3.802   2.085   1.381  2.0112  1.5866  0.9316
31929SOL    HW2 1624   3.842   2.098   1.235 -0.8972 -1.0379 -0.1923
31930SOL     OW 1625   4.170   9.509   2.426 -0.2026  0.8440 -0.5573
31930SOL    HW1 1626   4.214   9.589   2.455 -1.0092  1.0593  0.1270
31930SOL    HW2 1627   4.238   9.441   2.429  0.4140  1.4368 -0.8676
31931SOL     OW 1628   2.981   0.493   4.956 -0.1693 -0.1754 -0.7280
31931SOL    HW1 1629   2.925   0.544   5.014 -0.2339  0.6764 -1.5226
31931SOL    HW2 1630   2.967   0.531   4.869  0.7477 -0.7202 -1.1266
31932SOL     OW 1631   3.471   4.240   7.601  0.1116  0.6039 -0.3689
31932SOL    HW1 1632   3.553   4.191   7.611  0.3980  0.7466 -1.7526
31932SOL    HW2 1633   3.482   4.286   7.518 -0.8748  1.6182  0.0538
31933SOL     OW 1634   9.576   8.258   9.981 -0.2590  0.4651  0.1920
31933SOL    HW1 1635   9.597   8.186   9.921  0.2017  0.1930  0.6662
31933SOL    HW2 1636   9.644   8.323   9.965  0.0807  0.2361  0.6613
31934SOL     OW 1637   0.601   2.414   0.632  0.3743 -0.4399 -0.0236
31934SOL    HW1 1638   0.571   2.476   0.698  1.7512  0.7891 -0.4989
31934SOL    HW2 1639   0.523   2.396   0.579 -0.3314 -0.0742  0.8664
31935SOL     OW 1640   1.807  10.612  10.838  0.4857  0.5964  0.2359
31935SOL    HW1 1641   1.787  10.527  10.797  0.6615  0.2198  0.9210
31935SOL    HW2 1642   1.811  10.673  10.764  1.0914 -0.1235 -0.3576
31936SOL     OW 1643   3.466  10.107   0.533  0.1136 -0.0169  0.5412
31936SOL    HW1 1644   3.410  10.142   0.464  1.0662  1.4086  0.4538
31936SOL    HW2 1645   3.472  10.013   0.514 -0.0355  0.2617 -1.0226
31937SOL     OW 1646   4.526   4.349   8.402  0.0751  0.6810  0.2675
31937SOL    HW1 1647   4.435   4.337   8.376  0.1244  0.7926  0.0360
31937SOL    HW2 1648   4.576   4.303   8.335  0.1658  0.0648  0.7526
31938SOL     OW 1649   4.994   7.720   7.611  0.2677  0.2771 -0.5561
31938SOL    HW1 1650   4.976   7.812   7.626 -2.9218 -0.1957 -0.8912
31938SOL    HW2 1651   4.928   7.674   7.662 -0.1999 -1.7231 -2.7704
31939SOL     OW 1652   5.647   7.762   5.286  0.2444 -0.0424  0.1427
31939SOL    HW1 1653   5.661   7.834   5.224  0.7416  0.9389  1.3517
31939SOL    HW2 1654   5.555   7.769   5.311  0.5978  1.0092  1.2298
31940SOL     OW 1655   1.298   7.507   9.085 -0.5499 -0.9464 -0.1131
31940SOL    HW1 1656   1.268   7.470   9.002 -1.0692 -0.0784 -0.3217
31940SOL    HW2 1657   1.392   7.486   9.088 -0.8317 -2.3272 -0.1826
31941SOL     OW 1658   7.083   9.942   9.206 -0.4757  0.0030  0.4694
31941SOL    HW1 1659   7.148   9.963   9.273  0.2560 -0.7523  0.0159
31941SOL    HW2 1660   7.084   9.847   9.200 -2.3141 -0.1003  1.1045
31942SOL     OW 1661   5.752   1.710  10.412 -0.1558  0.2356  0.0533
31942SOL    HW1 1662   5.729   1.770  10.341 -1.1390 -1.2221 -0.9039
31942SOL    HW2 1663   5.843   1.731  10.432 -0.5801  2.3362  0.0771
31943SOL     OW 1664   7.777   5.562   6.040 -0.2020 -0.1205  0.3522
31943SOL    HW1 1665   7.865   5.561   6.004  0.1848 -1.4271  1.2441
31943SOL    HW2 1666   7.721   5.592   5.968  1.0417  1.5881  0.0342
31944SOL     OW 1667   1.767   0.337   2.892 -0.8133 -0.4335  0.3420
31944SOL    HW1 1668   1.699   0.298   2.837  0.1185  0.1321 -1.2824
31944SOL    HW2 1669   1.838   0.358   2.831  0.3125  0.1435  1.7904
31945SOL     OW 1670   5.054   5.062   6.164 -0.0497  0.4670 -0.2242
31945SOL    HW1 1671   5.146   5.076   6.187 -0.3002  1.7513  0.0871
31945SOL    HW2 1672   5.055   4.984   6.109  0.9862 -0.6824  1.3177
31946SOL     OW 1673   9.660   4.531   2.833  0.5838 -0.4274  0.0314
31946SOL    HW1 1674   9.600   4.524   2.758  0.9714 -1.1394 -0.2206
31946SOL    HW2 1675   9.617   4.482   2.903 -0.4076  1.3279  0.7133
31947SOL     OW 1676  10.675   4.638   7.846 -1.2197  0.0798  0.2567
31947SOL    HW1 1677  10.745   4.694   7.811 -0.7424 -0.5310  0.2290
31947SOL    HW2 1678  10.711   4.605   7.929 -0.6717 -1.8045 -0.6902
31948SOL     OW 1679   8.625  10.690   0.990  0.0429  0.4771  0.4132
31948SOL    HW1 1680   8.705  10.637   0.992 -0.4370 -0.2528  1.7386
31948SOL    HW2 1681   8.635  10.750   1.064 -0.5715  0.4723  0.5035
31949SOL     OW 1682  10.474  10.543   8.214 -0.4065  0.4058  0.2089
31949SOL    HW1 1683  10.428  10.502   8.288 -0.8871 -0.7558 -0.7010
31949SOL    HW2 1684  10.405  10.588   8.165 -0.0124  1.6061  0.7192
31950SOL     OW 1685   8.299   0.638   3.372  0.3844  0.2069  0.1374
31950SOL    HW1 1686   8.246   0.678   3.302  1.2255  1.4607  0.1972
31950SOL    HW2 1687   8.255   0.555   3.390 -0.7834  0.6027 -0.7554
31951SOL     OW 1688   8.307   1.253   5.943  0.1355 -0.2586  0.3767
31951SOL    HW1 1689   8.301   1.347   5.954 -0.0616 -0.0665 -1.1769
31951SOL    HW2 1690   8.398   1.236   5.919  0.0587 -0.3996  0.1734
31952SOL     OW 1691   3.028   7.393   2.774  0.1122 -0.2172 -0.3979
31952SOL    HW1 1692   2.962   7.463   2.773  1.7973  1.4663 -2.7351
31952SOL    HW2 1693   3.090   7.419   2.842  0.1493 -0.0495 -0.4974
31953SOL     OW 1694   6.703  10.851   9.707  0.0512  0.2087  0.3244
31953SOL    HW1 1695   6.692  10.833   9.801  0.5758 -1.4744  0.1003
31953SOL    HW2 1696   6.646  10.788   9.664 -0.3736  1.1367 -0.5063
31954SOL     OW 1697   7.163   3.098   1.733  0.5493 -0.5469  0.1478
31954SOL    HW1 1698   7.247   3.078   1.691  1.9819  2.9762  0.9879
31954SOL    HW2 1699   7.182   3.093   1.827  0.1422  1.2507  0.3515
31955SOL     OW 1700   2.026   9.716  10.001  0.3508  0.3676 -0.2306
31955SOL    HW1 1701   1.978   9.799   9.997  1.6202  1.0982 -2.2576
31955SOL    HW2 1702   2.114   9.741  10.029  0.4486 -0.4698  0.2290
31956SOL     OW 1703   1.412   0.964   2.089 -0.2878 -0.1467 -0.1547
31956SOL    HW1 1704   1.500   0.957   2.052  0.1199  0.3860  0.6870
31956SOL    HW2 1705   1.423   1.019   2.167 -1.1524 -1.0593  0.6409
31957SOL     OW 1706  10.141   3.351   8.204 -0.1015  0.4110  0.2257
31957SOL    HW1 1707  10.191   3.356   8.123  0.1370  0.7511  0.3875
31957SOL    HW2 1708  10.184   3.414   8.262  1.3007 -1.5606  1.4628
31958SOL     OW 1709   3.601  10.708   1.157 -0.4167  0.0026  0.1097
31958SOL    HW1 1710   3.544  10.707   1.234 -1.4364  1.9846 -0.5450
31958SOL    HW2 1711   3.678  10.758   1.184  0.3959 -1.4521  0.5632
31959SOL     OW 1712   5.942   2.144   2.452  0.1662 -0.4107 -0.2182
31959SOL    HW1 1713   5.864   2.181   2.410  0.7535 -0.3555 -1.3072
31959SOL    HW2 1714   5.938   2.051   2.430  0.2103 -0.4729  0.0410
31960SOL     OW 1715   8.453   3.464   1.208 -0.2572  0.7446 -0.3886
31960SOL    HW1 1716   8.491   3.552   1.203  1.7631 -0.0316  0.0617
31960SOL    HW2 1717   8.405   3.463   1.291 -0.9461  1.6342 -0.7579
31961SOL     OW 1718  10.320   2.429   8.486  0.1175  0.1197  0.0833
31961SOL    HW1 1719  10.244   2.435   8.428  1.1198 -1.3767 -1.4922
31961SOL    HW2 1720  10.318   2.339   8.519  0.5780  0.4135  0.9386
31962SOL     OW 1721   0.827   4.120   1.985  0.0404 -0.4007 -0.0180
31962SOL    HW1 1722   0.866   4.055   1.926  0.8452  1.2617 -1.3923
31962SOL    HW2 1723   0.733   4.102   1.982 -0.1506  0.5488 -3.0869
31963SOL     OW 1724   3.873   4.125   2.150 -0.3109 -0.2752  0.2671
31963SOL    HW1 1725   3.927   4.131   2.229 -0.1932  0.4653  0.1388
31963SOL    HW2 1726   3.932   4.091   2.083  0.1614  1.0322 -0.0066
31964SOL     OW 1727   9.110   7.818   6.193  0.6370  0.5350  0.3625
31964SOL    HW1 1728   9.165   7.882   6.148 -0.1196  1.5634  0.8556
31964SOL    HW2 1729   9.054   7.870   6.250 -0.9874 -0.4448 -0.2525
31965SOL     OW 1730   6.273   8.722  10.719  0.4826 -0.4576  0.3797
31965SOL    HW1 1731   6.196   8.748  10.668  1.5701  0.7474 -0.7458
31965SOL    HW2 1732   6.265   8.769  10.801 -1.1293 -2.1636  1.2909
31966SOL     OW 1733  10.432   6.779   1.914 -0.1368  0.4357 -0.2561
31966SOL    HW1 1734  10.361   6.715   1.909 -1.9801  2.4582 -0.9436
31966SOL    HW2 1735  10.449   6.789   2.008 -2.9349  2.1462  0.1573
31967SOL     OW 1736  10.204   9.181   5.240  0.2158 -0.4041 -0.2885
31967SOL    HW1 1737  10.162   9.162   5.156 -0.5266 -0.5392  0.1052
31967SOL    HW2 1738  10.233   9.096   5.273 -1.5605 -0.7020  0.6585
31968SOL     OW 1739   3.537   2.148   5.679 -0.1572  0.5857 -1.0587
31968SOL    HW1 1740   3.601   2.197   5.627  1.0847  0.6683  0.4886
31968SOL    HW2 1741   3.475   2.214   5.710  0.1937  0.8189 -0.8573
31969SOL     OW 1742   4.025   2.238   4.816  0.4453 -0.0440  0.1540
31969SOL    HW1 1743   4.083   2.172   4.776 -0.3426  1.0351 -2.9616
31969SOL    HW2 1744   4.085   2.306   4.847  0.9726  0.5070 -1.9667
31970SOL     OW 1745  10.772   9.181   2.996  0.6844  0.3444 -0.2461
31970SOL    HW1 1746  10.764   9.104   2.938  1.1399  0.4012 -0.3860
31970SOL    HW2 1747  10.746   9.255   2.941  0.4131  0.3135 -0.1620
31971SOL     OW 1748   0.969   5.036   8.829 -0.4973  0.4449 -0.3810
31971SOL    HW1 1749   0.918   4.956   8.838  0.9089 -0.3580  0.9401
31971SOL    HW2 1750   1.030   5.034   8.902 -0.3323  2.6855 -0.3845
31972SOL     OW 1751   9.163   4.735   1.283 -0.2110  0.5503 -0.4330
31972SOL    HW1 1752   9.133   4.724   1.373 -0.0575  0.9747 -0.3313
31972SOL    HW2 1753   9.258   4.749   1.291 -0.1873  0.5238 -0.6658
31973SOL     OW 1754   4.070   9.084   4.199 -0.5183  0.0679  0.5641
31973SOL    HW1 1755   4.065   9.007   4.142 -0.6974 -0.3217  1.0909
31973SOL    HW2 1756   4.025   9.153   4.151 -0.0331 -0.0553 -0.0782
31974SOL     OW 1757   0.491   0.467   5.898 -0.0494  0.2633  0.5153
31974SOL    HW1 1758   0.486   0.417   5.816 -0.0902 -2.5168  2.0632
31974SOL    HW2 1759   0.468   0.556   5.873 -2.2655 -0.8757 -2.1233
31975SOL     OW 1760   1.636   1.076   5.272  0.0701  0.5215 -0.0161
31975SOL    HW1 1761   1.685   1.128   5.209  1.9623  0.8703  1.6183
31975SOL    HW2 1762   1.617   1.137   5.343  0.4364 -0.4776  0.9729
31976SOL     OW 1763   6.437   2.392  10.402 -0.3985  0.4400  0.3138
31976SOL    HW1 1764   6.433   2.346  10.319  2.6296 -0.5352  0.5856
31976SOL    HW2 1765   6.500   2.463  10.387 -0.0970  0.4783  1.6298
31977SOL     OW 1766   3.925   3.801   4.400  0.0864  0.2350  0.0307
31977SOL    HW1 1767   4.013   3.778   4.370 -0.3274 -0.7459 -0.4455
31977SOL    HW2 1768   3.909   3.743   4.474  0.6936  1.9458  1.5847
31978SOL     OW 1769   2.666   7.414   3.739  0.1933  0.5472 -0.0406
31978SOL    HW1 1770   2.613   7.430   3.817 -0.1081  1.1673 -0.3626
31978SOL    HW2 1771   2.742   7.366   3.772  0.5035  1.5494  0.8025
31979SOL     OW 1772   0.893   1.573   8.689 -0.2712  0.0844 -0.4945
31979SOL    HW1 1773   0.887   1.512   8.615 -0.2219  0.3973 -0.7580
31979SOL    HW2 1774   0.934   1.651   8.652 -0.2136  0.2277 -0.1259
31980SOL     OW 1775   8.624  10.337   6.404 -0.1189 -0.2040  0.1059
31980SOL    HW1 1776   8.540  10.303   6.435  0.3152 -1.9687 -0.5098
31980SOL    HW2 1777   8.644  10.410   6.462 -1.0857 -1.0854  1.6120
31981SOL     OW 1778   3.474  10.800   6.051 -0.1587 -0.2394  0.2974
31981SOL    HW1 1779   3.529  10.735   6.008 -0.3849 -0.0875 -0.2307
31981SOL    HW2 1780   3.454  10.762   6.136  0.7431 -0.3064  0.4876
31982SOL     OW 1781   4.817   2.223   1.438 -0.4653  0.0076 -0.7218
31982SOL    HW1 1782   4.848   2.310   1.461  1.7945 -0.6731 -0.9152
31982SOL    HW2 1783   4.761   2.237   1.361 -2.4275  1.5269  0.8847
31983SOL     OW 1784   9.481   9.711   3.461  1.0778 -0.2690 -0.2311
31983SOL    HW1 1785   9.491   9.799   3.425 -0.4568  0.4003  0.8584
31983SOL    HW2 1786   9.564   9.693   3.505  1.5935  0.4203 -0.9076
31984SOL     OW 1787  10.186   6.432   9.293  0.1837  0.1187 -0.3628
31984SOL    HW1 1788  10.123   6.473   9.235 -1.7324 -1.7782  0.2378
31984SOL    HW2 1789  10.151   6.446   9.381 -0.6504 -2.6968 -0.1257
31985SOL     OW 1790   4.072   6.779   0.099 -0.1015  0.7172 -0.0349
31985SOL    HW1 1791   4.063   6.820   0.012  0.3924 -0.3869 -0.6243
31985SOL    HW2 1792   4.154   6.730   0.094  0.2910  1.1969  1.3051
31986SOL     OW 1793   6.110   7.878   9.043  0.5678  0.0379 -0.3565
31986SOL    HW1 1794   6.112   7.917   8.955  2.0105 -1.0595 -0.8424
31986SOL    HW2 1795   6.021   7.844   9.052  0.2019  0.7506 -1.1129
31987SOL     OW 1796  10.873   1.656   7.537 -0.1841 -0.3440  0.3005
31987SOL    HW1 1797  10.818   1.729   7.512 -1.4031 -1.5043 -0.5673
31987SOL    HW2 1798  10.848   1.636   7.627 -0.2641 -0.0578  0.3410
31988SOL     OW 1799   4.759   8.493  10.590 -1.0694 -0.2543  0.5074
31988SOL    HW1 1800   4.834   8.441  10.619 -0.7821 -0.1077  0.0461
31988SOL    HW2 1801   4.781   8.582  10.618 -0.0187  0.1940 -1.4979
31989SOL     OW 1802   9.132   3.323   5.296 -0.6146 -0.0542 -0.4626
31989SOL    HW1 1803   9.166   3.246   5.341 -1.7021 -0.0185  0.4616
31989SOL    HW2 1804   9.206   3.384   5.293 -0.4056 -0.2099  0.9370
31990SOL     OW 1805   8.744   3.792   3.788  0.1009  0.0206  0.2711
31990SOL    HW1 1806   8.674   3.747   3.742  0.8132 -0.6583 -0.1806
31990SOL    HW2 1807   8.794   3.721   3.830  1.8660  0.2298 -1.3161
31991SOL     OW 1808   3.129   5.325   0.610 -0.4607  0.4695 -0.6160
31991SOL    HW1 1809   3.072   5.374   0.669  1.0138  1.2061  0.2617
31991SOL    HW2 1810   3.147   5.243   0.656  0.4127  0.8993 -0.1618
31992SOL     OW 1811   3.081   1.729  10.474  0.1897  0.5396 -0.6745
31992SOL    HW1 1812   3.115   1.643  10.449  0.7191  1.0133 -1.6400
31992SOL    HW2 1813   3.103   1.786  10.400 -0.4372  1.4384 -0.1902
31993SOL     OW 1814   3.810   5.117  10.317 -0.3753  0.1367 -0.5032
31993SOL    HW1 1815   3.866   5.057  10.267 -0.1796 -0.2933  0.2223
31993SOL    HW2 1816   3.857   5.201  10.315  0.1266 -0.1326 -0.2030
31994SOL     OW 1817   3.049   5.817  10.715  0.0596 -0.2967  0.2211
31994SOL    HW1 1818   3.130   5.811  10.765 -0.4513  0.0166  1.1148
31994SOL    HW2 1819   2.999   5.739  10.740  0.5532 -1.1181 -1.2237
31995SOL     OW 1820   4.028   3.025   1.129 -0.7180 -0.2678 -0.0430
31995SOL    HW1 1821   3.967   2.971   1.179  0.0407 -0.7673  0.3795
31995SOL    HW2 1822   3.999   3.017   1.038 -0.2956 -1.8822 -0.0782
31996SOL     OW 1823   9.594   3.090   5.910  0.3459 -0.1234 -0.4640
31996SOL    HW1 1824   9.533   3.068   5.981 -0.0117  1.9690 -0.0517
31996SOL    HW2 1825   9.666   3.027   5.920  0.2497  0.0108  1.7201
31997SOL     OW 1826   4.169  10.893   6.578 -0.3700  0.0256  0.1394
31997SOL    HW1 1827   4.216  10.810   6.590  0.5513  0.5166  0.0625
31997SOL    HW2 1828   4.149  10.921   6.667  2.1152  1.2436  0.3965
31998SOL     OW 1829   7.051   4.231   7.587 -0.3434 -0.4199 -0.4033
31998SOL    HW1 1830   6.994   4.245   7.512  0.6878  1.4391 -0.9273
31998SOL    HW2 1831   7.129   4.189   7.551 -0.4913 -0.9895 -0.0725
31999SOL     OW 1832   5.237  10.069   8.552 -0.0096 -0.0422  0.3665
31999SOL    HW1 1833   5.297  10.009   8.596  1.6968  1.9815  0.9856
31999SOL    HW2 1834   5.176  10.096   8.621 -0.1025 -0.2444  0.3638
32000SOL     OW 1835  10.226   7.181   0.094  0.0592 -1.0394  0.3596
32000SOL    HW1 1836  10.139   7.214   0.072  0.3384 -0.4893  0.0643
32000SOL    HW2 1837  10.212   7.123   0.169 -0.1150  2.1336  3.0254
32001SOL     OW 1838   6.436   5.111   8.787 -0.1863  1.0084  0.2226
32001SOL    HW1 1839   6.458   5.200   8.760  0.3705  0.7878 -0.0587
32001SOL    HW2 1840   6.489   5.054   8.731  0.1158  0.5173  0.9867
32002SOL     OW 1841   4.191   1.834   9.309 -0.6898  0.2090 -0.3563
32002SOL    HW1 1842   4.135   1.795   9.242  0.4896  0.0494 -1.2858
32002SOL    HW2 1843   4.214   1.761   9.366  0.5156 -0.2374 -1.3816
32003SOL     OW 1844   3.077   7.912   6.320  0.1217 -0.3623  0.1578
32003SOL    HW1 1845   3.016   7.838   6.313  1.8975 -1.7357 -3.4463
32003SOL    HW2 1846   3.055   7.969   6.246 -0.6354  2.4244  2.3661
32004SOL     OW 1847   2.039  10.291   3.245  0.0301  0.7601 -0.0467
32004SOL    HW1 1848   1.982  10.316   3.317  0.2791 -2.0827  1.2917
32004SOL    HW2 1849   2.127  10.296   3.281  0.1412 -0.9454  0.0354
32005SOL     OW 1850   0.711   2.249   8.544  0.0574  0.3358 -0.1991
32005SOL    HW1 1851   0.619   2.263   8.519 -0.8817  0.7817  2.9964
32005SOL    HW2 1852   0.725   2.155   8.532 -0.7531  0.2968 -0.9137
32006SOL     OW 1853   7.973   4.386   9.242 -0.4301 -0.2692  0.2179
32006SOL    HW1 1854   7.889   4.400   9.199  0.3543  0.7296 -1.0367
32006SOL    HW2 1855   8.038   4.395   9.173  0.8191  0.4834  1.4334
32007SOL     OW 1856   3.893   9.375   7.652 -0.0555  0.5031  0.1607
32007SOL    HW1 1857   3.911   9.355   7.560 -1.4110 -0.3908  0.0582
32007SOL    HW2 1858   3.803   9.407   7.652  0.1529  1.1077  1.1019
32008SOL     OW 1859   5.426   6.525   4.488  0.3936  0.3970 -0.1978
32008SOL    HW1 1860   5.385   6.450   4.532  0.7580 -0.6030 -1.4996
32008SOL    HW2 1861   5.361   6.554   4.424  0.9843 -0.0550 -1.0252
32009SOL     OW 1862   4.590   2.644   0.609  0.2803 -0.3127  0.4613
32009SOL    HW1 1863   4.607   2.695   0.688 -1.8516 -0.1658  0.9080
32009SOL    HW2 1864   4.563   2.709   0.544  1.5484 -0.4833 -0.2550
32010SOL     OW 1865   8.675   1.296   4.399  0.2819  0.0617 -0.6629
32010SOL    HW1 1866   8.651   1.214   4.355 -1.1082  0.4057 -0.5703
32010SOL    HW2 1867   8.643   1.365   4.341  0.1579  0.5320 -0.0422
32011SOL     OW 1868   5.978   6.156   8.649 -0.2682 -0.0559  0.2457
32011SOL    HW1 1869   5.911   6.205   8.696 -0.6702  1.7939 -2.0250
32011SOL    HW2 1870   5.972   6.067   8.683 -2.3927  0.5381  1.6175
32012SOL     OW 1871   8.384   8.607   1.481 -0.2690 -0.0295 -0.0690
32012SOL    HW1 1872   8.422   8.674   1.539  0.5623  0.7750 -1.4787
32012SOL    HW2 1873   8.291   8.626   1.480  0.1051  2.1224 -1.5962
32013SOL     OW 1874   8.671   8.774   3.770 -0.4134 -0.0766  0.6602
32013SOL    HW1 1875   8.734   8.839   3.802 -2.3484  2.4564 -0.3799
32013SOL    HW2 1876   8.686   8.771   3.676 -1.2617 -0.0739  0.5191
32014SOL     OW 1877   9.377   7.084   0.588  0.2364  1.0033  0.0700
32014SOL    HW1 1878   9.415   7.171   0.579 -0.6112  1.3010 -0.9892
32014SOL    HW2 1879   9.287   7.100   0.618  0.4621  0.4163  1.0860
32015SOL     OW 1880   3.291   0.994   1.643  0.0382 -0.0805  0.4476
32015SOL    HW1 1881   3.357   1.053   1.608 -0.4017 -0.7477 -1.6355
32015SOL    HW2 1882   3.220   1.051   1.672  1.3524  0.6222  2.4371
32016SOL     OW 1883   9.173   1.329   2.403 -0.3332  0.8513 -0.3042
32016SOL    HW1 1884   9.267   1.342   2.392 -0.5343  2.5752 -0.2121
32016SOL    HW2 1885   9.160   1.328   2.498 -0.2379 -1.0608 -0.2660
32017SOL     OW 1886   4.085   9.983   3.116  0.2047  0.2521  0.3781
32017SOL    HW1 1887   4.062   9.903   3.068  0.6428  0.0550  0.4881
32017SOL    HW2 1888   4.150   9.954   3.180  0.8505  0.8121 -0.0103
32018SOL     OW 1889   9.620   5.071   3.423  0.6894  0.0621  0.7551
32018SOL    HW1 1890   9.649   5.086   3.332  0.8552  0.3576  0.8537
32018SOL    HW2 1891   9.528   5.048   3.415  0.4283  1.1185  0.5848
32019SOL     OW 1892   0.962   0.456   7.970 -0.2741 -0.3308  0.2196
32019SOL    HW1 1893   0.956   0.533   7.913 -1.4100 -0.3003  0.3623
32019SOL    HW2 1894   1.050   0.461   8.008 -0.6054  1.3138  0.8281
32020SOL     OW 1895   1.804   5.473   7.467 -0.2835 -0.1482  0.0379
32020SOL    HW1 1896   1.838   5.389   7.436 -0.1770  0.1219 -0.6010
32020SOL    HW2 1897   1.750   5.505   7.395 -0.8885  0.0134  0.5503
32021SOL     OW 1898   7.718   5.641   4.185  0.2324 -0.5441 -0.4911
32021SOL    HW1 1899   7.785   5.707   4.203  0.9094 -0.3858 -3.1503
32021SOL    HW2 1900   7.659   5.683   4.122  0.5945 -2.3193 -2.1319
32022SOL     OW 1901   6.491   5.068   4.411 -0.1445  0.1306 -0.0872
32022SOL    HW1 1902   6.513   4.975   4.404 -1.3331 -0.2012  0.3649
32022SOL    HW2 1903   6.515   5.105   4.326 -1.5973 -1.0309 -1.0672
32023SOL     OW 1904   4.464  10.052  10.883  0.6413 -0.1151 -0.4990
32023SOL    HW1 1905   4.500   9.980  10.934 -0.0623  0.3451  0.6855
32023SOL    HW2 1906   4.539  10.106  10.861  1.0753 -0.8141 -0.7618
32024SOL     OW 1907   3.971   5.288  10.709  0.2227 -0.1313 -0.0591
32024SOL    HW1 1908   3.949   5.381  10.711  4.4026  1.0518  0.9597
32024SOL    HW2 1909   3.982   5.264  10.801  1.4815 -0.9692 -0.4027
32025SOL     OW 1910   5.038   5.719   0.586  0.2754 -0.1454  0.1578
32025SOL    HW1 1911   5.133   5.716   0.571  0.2708 -0.5718  0.2047
32025SOL    HW2 1912   5.000   5.712   0.499  0.2891  1.0243  0.0321
32026SOL     OW 1913   6.225   9.472   5.282  0.2672 -0.2356  0.6971
32026SOL    HW1 1914   6.193   9.417   5.210  0.2504  0.3556  0.2470
32026SOL    HW2 1915   6.175   9.553   5.274 -0.5083 -0.5403  2.0203
32027SOL     OW 1916   2.146   3.387   3.612  0.1322  0.0219 -0.5975
32027SOL    HW1 1917   2.062   3.416   3.577  1.1740  2.8416 -0.9794
32027SOL    HW2 1918   2.191   3.347   3.538 -0.8214 -1.5340 -0.3826
32028SOL     OW 1919   5.369   3.699   6.530 -0.1188  0.0538 -0.1753
32028SOL    HW1 1920   5.455   3.679   6.493  0.1567 -1.6992  1.3303
32028SOL    HW2 1921   5.307   3.653   6.473  0.1527 -0.8946  0.2768
32029SOL     OW 1922  10.819   3.392   4.115 -0.4736 -0.2349  0.0203
32029SOL    HW1 1923  10.871   3.340   4.053 -0.6683 -0.7977  0.3183
32029SOL    HW2 1924  10.819   3.340   4.195  1.1930  1.2730  1.0681
32030SOL     OW 1925   2.443   7.594   8.978 -0.4857 -0.2893 -0.3637
32030SOL    HW1 1926   2.380   7.658   9.010  2.8459  3.3839 -0.2931
32030SOL    HW2 1927   2.493   7.568   9.056 -0.7018 -1.7387 -0.6757
32031SOL     OW 1928   5.750   7.313  10.395 -0.1602  0.2793 -0.0858
32031SOL    HW1 1929   5.681   7.328  10.330 -1.0259  1.1343  0.9927
32031SOL    HW2 1930   5.717   7.242  10.449 -0.5035  1.0964  0.8120
32032SOL     OW 1931  10.390   1.193   1.200 -0.7206 -0.0896  0.1394
32032SOL    HW1 1932  10.479   1.226   1.208 -0.6511  0.4303 -2.0204
32032SOL    HW2 1933  10.400   1.104   1.168 -0.9826 -0.6835  1.6359
32033SOL     OW 1934   0.821  10.262   5.854 -0.8254  0.0867  0.2231
32033SOL    HW1 1935   0.847  10.292   5.767 -1.0723  0.2535  0.2083
32033SOL    HW2 1936   0.769  10.183   5.838  0.0441 -0.5157  0.2740
32034SOL     OW 1937   1.459   9.329   5.822 -0.2824  0.0736 -0.4194
32034SOL    HW1 1938   1.479   9.363   5.735 -0.7440 -1.2719 -1.0960
32034SOL    HW2 1939   1.465   9.234   5.812 -3.3548 -0.3065  0.1887
32035SOL     OW 1940   3.837   6.569   5.652  0.5886 -0.3225 -0.0366
32035SOL    HW1 1941   3.863   6.557   5.743 -0.0288  0.7538  0.3057
32035SOL    HW2 1942   3.781   6.494   5.632 -0.0563 -0.0751  0.7892
32036SOL     OW 1943   9.969   6.439  10.015  0.2373 -0.1523 -0.4422
32036SOL    HW1 1944   9.879   6.464  10.036 -0.6164 -0.6979 -3.0572
32036SOL    HW2 1945  10.023   6.502  10.064 -1.5281  0.2640  1.0946
32037SOL     OW 1946   2.167   3.466  10.135 -0.2181 -0.6695  0.1547
32037SOL    HW1 1947   2.152   3.416  10.055 -0.3129 -0.1464 -0.1661
32037SOL    HW2 1948   2.245   3.519  10.115  0.2798 -1.1793  0.7254
32038SOL     OW 1949   1.436   7.705   3.908 -0.0715  0.1427 -0.1174
32038SOL    HW1 1950   1.457   7.701   3.814 -1.6569  0.1847 -0.5055
32038SOL    HW2 1951   1.342   7.687   3.912 -0.2737  1.3237  1.3693
32039SOL     OW 1952   7.774   2.062   0.621 -0.1923 -0.1508 -0.0379
32039SOL    HW1 1953   7.850   2.034   0.673 -1.0722  1.9279  2.5929
32039SOL    HW2 1954   7.795   2.151   0.594 -1.5641  0.3764  0.5361
32040SOL     OW 1955   1.486   2.490   7.497 -0.0710  0.3125 -0.1456
32040SOL    HW1 1956   1.581   2.487   7.482 -0.1819  0.3505 -0.8897
32040SOL    HW2 1957   1.474   2.568   7.552  0.3501  0.1820  0.1413
32041SOL     OW 1958   9.543   6.599  10.511  0.2718  0.0321  0.4033
32041SOL    HW1 1959   9.507   6.679  10.474 -0.9130 -1.7599 -2.7579
32041SOL    HW2 1960   9.576   6.550  10.434  0.1588 -2.8644  2.0418
32042SOL     OW 1961   9.530   5.878   1.281 -0.2832  0.0940  0.1724
32042SOL    HW1 1962   9.604   5.895   1.339  0.3206 -0.6047 -0.3729
32042SOL    HW2 1963   9.570   5.847   1.199 -0.9778  2.9420 -1.3812
32043SOL     OW 1964  10.621   1.997   1.286  0.0471 -0.3738 -0.1815
32043SOL    HW1 1965  10.683   1.933   1.252  1.6220  0.2489  1.3717
32043SOL    HW2 1966  10.578   1.951   1.359 -0.1694 -0.2707 -0.2443
32044SOL     OW 1967   6.452   2.047   6.680  0.2486  0.4007  0.2684
32044SOL    HW1 1968   6.378   2.059   6.620 -0.3646  0.4538  1.0147
32044SOL    HW2 1969   6.411   2.027   6.764  1.1116 -0.7810  0.4315
32045SOL     OW 1970   1.392   8.463   2.658 -0.1577  0.3064 -0.0644
32045SOL    HW1 1971   1.362   8.495   2.743 -2.3173  0.3532 -0.8072
32045SOL    HW2 1972   1.313   8.438   2.612  1.0668 -0.9961 -1.5899
32046SOL     OW 1973   1.850   8.589   7.132  0.6623 -0.5809 -0.5095
32046SOL    HW1 1974   1.929   8.581   7.077  1.5123 -2.4141  0.8905
32046SOL    HW2 1975   1.849   8.510   7.185 -1.4347  0.0299  0.4662
32047SOL     OW 1976   3.556   9.955   1.735  0.3045 -0.3261 -0.8529
32047SOL    HW1 1977   3.468   9.918   1.732 -0.6121  1.5162  0.8786
32047SOL    HW2 1978   3.611   9.884   1.769 -1.5169 -0.0696  3.1157
32048SOL     OW 1979   0.703   6.377   4.780 -0.5898  0.2748  0.3893
32048SOL    HW1 1980   0.726   6.337   4.696 -3.5729 -0.5226 -0.1584
32048SOL    HW2 1981   0.759   6.332   4.843 -0.3677 -1.2444 -0.8164
32049SOL     OW 1982   5.187   7.583   7.475 -0.6352 -0.7971 -0.2902
32049SOL    HW1 1983   5.117   7.629   7.520 -0.1410 -0.5527  0.2280
32049SOL    HW2 1984   5.229   7.529   7.542  0.6704  0.2369 -0.2386
32050SOL     OW 1985  10.101   8.141   2.421  0.0497  0.5438  0.2564
32050SOL    HW1 1986  10.092   8.196   2.499 -0.3604  1.0395 -0.1339
32050SOL    HW2 1987  10.111   8.203   2.348  0.1532  0.0931 -0.1225
32051SOL     OW 1988   2.653   5.125   1.909  0.2813  0.2059  0.0096
32051SOL    HW1 1989   2.655   5.082   1.995 -0.4682 -0.8791 -0.4947
32051SOL    HW2 1990   2.738   5.103   1.869 -0.6519 -2.1615 -0.8452
32052SOL     OW 1991   1.027   6.214   6.987  0.1862 -0.8319 -0.1922
32052SOL    HW1 1992   0.937   6.232   7.017  0.2729  0.3065 -0.5706
32052SOL    HW2 1993   1.028   6.245   6.897  0.8877 -1.1074 -0.2796
32053SOL     OW 1994   6.284   3.003   9.343  0.0512  0.2670  0.6067
32053SOL    HW1 1995   6.206   2.953   9.319  0.9222 -1.1509  0.5762
32053SOL    HW2 1996   6.327   3.022   9.259  0.7907 -0.7833  0.7280
32054SOL     OW 1997   4.170   2.037   8.106 -0.7711  0.2128  0.2368
32054SOL    HW1 1998   4.258   2.028   8.072  0.0350 -0.7781  2.3895
32054SOL    HW2 1999   4.123   1.960   8.073 -0.3662 -0.0864  0.3509
32055SOL     OW 2000   9.662   7.729   5.013 -0.7215 -0.1589  0.1408
32055SOL    HW1 2001   9.654   7.821   5.036 -0.6446  0.0448 -0.6021
32055SOL    HW2 2002   9.724   7.728   4.939 -0.4821 -0.8343  0.3432
32056SOL     OW 2003   4.540   0.760   3.872  0.0035  0.1861 -0.3145
32056SOL    HW1 2004   4.582   0.830   3.922 -2.2257  1.5891 -0.2674
32056SOL    HW2 2005   4.491   0.710   3.938 -1.8583  1.2308 -0.8344
32057SOL     OW 2006   7.600   3.176   6.938  0.2126  0.0477 -0.9480
32057SOL    HW1 2007   7.691   3.196   6.916  1.1020 -0.0485  2.2296
32057SOL    HW2 2008   7.600   3.082   6.958 -0.6216  0.0204 -1.0453
32058SOL     OW 2009   2.958   1.584   4.536  0.1443  0.2538  0.0734
32058SOL    HW1 2010   2.953   1.678   4.557  0.3267  0.1882  0.4236
32058SOL    HW2 2011   2.874   1.564   4.495 -0.3327  0.3333  0.9787
32059SOL     OW 2012   2.179   3.076   5.530  0.5684  0.1576 -0.7466
32059SOL    HW1 2013   2.231   3.136   5.583  1.1582  1.7172 -2.9399
32059SOL    HW2 2014   2.234   2.998   5.520  0.6312  0.0310  0.5071
32060SOL     OW 2015   3.283   3.697   0.727 -0.1987  0.1512 -0.0042
32060SOL    HW1 2016   3.241   3.634   0.785  1.5382  1.1790  2.5360
32060SOL    HW2 2017   3.291   3.777   0.779  3.3527  0.5217 -0.8423
32061SOL     OW 2018   7.175  10.892   9.357 -0.3857 -0.2350 -0.1251
32061SOL    HW1 2019   7.183  10.952   9.283 -0.5306 -0.4594 -0.3247
32061SOL    HW2 2020   7.180  10.948   9.434  0.6534 -0.1043 -0.2843
32062SOL     OW 2021   9.670   4.637   8.472  0.2211  0.4012 -0.2937
32062SOL    HW1 2022   9.623   4.554   8.474  0.2709  0.3730  1.4129
32062SOL    HW2 2023   9.625   4.688   8.404 -0.9330 -0.3803 -0.1538
32063SOL     OW 2024   4.506   8.871   0.127 -0.4070  0.1860 -0.2101
32063SOL    HW1 2025   4.584   8.842   0.081  0.1805  1.1653  0.1483
32063SOL    HW2 2026   4.434   8.829   0.080  0.2079  0.6848 -1.6719
32064SOL     OW 2027   0.922   6.857  10.124  0.5609 -0.0117 -0.3294
32064SOL    HW1 2028   0.964   6.939  10.150 -0.1579  0.0856  0.5781
32064SOL    HW2 2029   0.829   6.872  10.140  0.5585 -1.5324  1.3907
32065SOL     OW 2030   3.896   3.103   1.489 -0.3123 -0.3588 -0.3724
32065SOL    HW1 2031   3.967   3.150   1.446 -0.3070 -0.2411 -0.2371
32065SOL    HW2 2032   3.936   3.066   1.568 -0.4368 -0.1639 -0.2178
32066SOL     OW 2033   6.912   6.310   9.002 -0.2120  0.2876  0.0824
32066SOL    HW1 2034   6.931   6.370   9.074 -1.2934 -1.7895  2.1824
32066SOL    HW2 2035   6.879   6.367   8.932  0.2968  2.2961  1.4007
32067SOL     OW 2036   7.396   1.662   3.262 -0.3326  0.0243  0.0411
32067SOL    HW1 2037   7.484   1.697   3.274 -0.2119 -0.2630  0.0139
32067SOL    HW2 2038   7.377   1.615   3.343 -0.9388  1.0893  0.5293
32068SOL     OW 2039   4.799  10.731   0.564 -0.2374  0.5264  0.5038
32068SOL    HW1 2040   4.774  10.774   0.483  1.3545 -0.0867 -0.3583
32068SOL    HW2 2041   4.716  10.705   0.604 -1.0618  1.0350 -0.8185
32069SOL     OW 2042   4.861   1.970   8.995  0.6089  0.1214  0.1229
32069SOL    HW1 2043   4.927   1.917   9.038  2.2446  2.0755  0.1614
32069SOL    HW2 2044   4.876   2.059   9.027  1.4099  1.5700 -3.7029
32070SOL     OW 2045   9.140   4.174   5.326 -0.1669  0.2719 -0.2091
32070SOL    HW1 2046   9.062   4.166   5.271  1.1987 -0.0993 -2.1865
32070SOL    HW2 2047   9.168   4.084   5.341  0.0612  0.4174  0.2422
32071SOL     OW 2048   4.144   0.480   3.899  0.6621 -0.1423 -0.3430
32071SOL    HW1 2049   4.062   0.495   3.946  0.4828  0.2832 -0.7859
32071SOL    HW2 2050   4.182   0.403   3.941  0.0815 -0.2884 -0.0792
32072SOL     OW 2051   1.875   4.005   3.959  0.1077 -0.4253  0.6294
32072SOL    HW1 2052   1.865   4.101   3.958 -2.7091 -0.6186  0.5259
32072SOL    HW2 2053   1.848   3.979   4.047 -0.3403 -1.1936  0.2724
32073SOL     OW 2054   9.990   8.728  10.126 -0.1479  0.3917 -0.2046
32073SOL    HW1 2055  10.063   8.673  10.156 -0.2608  0.0599 -0.5429
32073SOL    HW2 2056   9.913   8.690  10.168 -0.1810  0.5055 -0.1615
32074SOL     OW 2057   2.215   3.459   1.986 -0.1212 -0.5613 -0.3521
32074SOL    HW1 2058   2.183   3.415   2.065 -1.0870 -0.4835 -0.6761
32074SOL    HW2 2059   2.266   3.393   1.941  0.2388 -0.6799  0.2224
32075SOL     OW 2060   0.982   8.742   8.535 -0.0026  0.5733  0.4629
32075SOL    HW1 2061   0.958   8.649   8.545 -0.1528  0.4386 -0.8852
32075SOL    HW2 2062   1.076   8.744   8.549 -0.0251  0.2405  0.6799
32076SOL     OW 2063   3.066   6.910   7.323  0.5911 -0.1180  0.4622
32076SOL    HW1 2064   3.028   6.866   7.399  3.1998  0.4775  2.2733
32076SOL    HW2 2065   3.093   6.838   7.265 -1.1249 -0.5952  0.2194
32077SOL     OW 2066   1.628   1.855   4.535 -0.1776 -0.0978 -0.0972
32077SOL    HW1 2067   1.682   1.917   4.584 -0.0184  0.0032 -0.4046
32077SOL    HW2 2068   1.569   1.818   4.601  1.1434 -1.1946  0.5297
32078SOL     OW 2069   7.354   8.824   4.995 -0.4255  0.2563 -0.0710
32078SOL    HW1 2070   7.286   8.866   5.049  1.3192  0.7662  1.8748
32078SOL    HW2 2071   7.350   8.869   4.911 -1.4430  1.3785  0.5439
32079SOL     OW 2072   8.190   2.917   6.507  0.0611  0.0130 -0.4690
32079SOL    HW1 2073   8.260   2.867   6.549 -0.4282 -0.4212 -0.1682
32079SOL    HW2 2074   8.112   2.863   6.517 -0.6499  1.1796  0.5633
32080SOL     OW 2075   7.417   2.049   3.480 -0.1021 -0.1284 -0.2774
32080SOL    HW1 2076   7.374   2.015   3.401 -1.5190  1.5185 -0.2718
32080SOL    HW2 2077   7.505   2.074   3.450  0.3830 -2.0744 -0.6524
32081SOL     OW 2078   3.160   1.769   1.923  0.1087 -0.0470  0.0524
32081SOL    HW1 2079   3.197   1.714   1.992  2.9122  0.2717 -1.0631
32081SOL    HW2 2080   3.090   1.818   1.967  0.5290 -1.2260  2.1755
32082SOL     OW 2081  10.885   3.188  10.084  0.7177 -0.8262  0.5617
32082SOL    HW1 2082  10.843   3.214  10.166 -0.9591  0.9629 -0.7565
32082SOL    HW2 2083  10.894   3.093  10.091 -0.7354 -0.8977  2.2080
32083SOL     OW 2084   5.296   2.639   9.608 -0.3830  0.1451 -0.3353
32083SOL    HW1 2085   5.254   2.630   9.693 -3.0479  0.1975 -1.5375
32083SOL    HW2 2086   5.320   2.732   9.604 -1.7976  0.5485 -0.2454
32084SOL     OW 2087   7.432   4.406   9.604 -0.0275  0.2526 -0.3396
32084SOL    HW1 2088   7.438   4.414   9.509 -0.3979  1.5644 -0.2685
32084SOL    HW2 2089   7.506   4.350   9.628  0.7496  0.8428 -1.2901
32085SOL     OW 2090   0.138   4.831   1.671  0.1709  0.3740  0.4243
32085SOL    HW1 2091   0.106   4.786   1.749  0.8732 -1.2942 -0.1933
32085SOL    HW2 2092   0.076   4.806   1.602  0.7227  0.1317  0.0114
32086SOL     OW 2093   9.182   3.236   0.954 -0.4762 -0.0186  0.3376
32086SOL    HW1 2094   9.148   3.325   0.943  1.9014  0.8382 -0.7266
32086SOL    HW2 2095   9.271   3.239   0.919 -0.3120 -2.8429  0.2190
32087SOL     OW 2096   5.939   1.029   5.317 -0.2473 -0.1122  0.0543
32087SOL    HW1 2097   5.907   1.085   5.387 -1.7395 -0.5366 -0.2708
32087SOL    HW2 2098   5.929   0.940   5.350  0.5205 -0.2603 -0.0944
32088SOL     OW 2099   5.681   9.909   0.510 -0.5361 -0.3200  0.7428
32088SOL    HW1 2100   5.762   9.859   0.515  0.1808  0.5955 -0.7214
32088SOL    HW2 2101   5.656   9.925   0.601 -0.5621 -2.8833  1.2660
32089SOL     OW 2102   7.868   7.538   6.275  0.1469  0.3467 -0.6062
32089SOL    HW1 2103   7.845   7.568   6.362 -0.2299  1.5872 -1.1167
32089SOL    HW2 2104   7.815   7.459   6.261  1.2342 -0.6865  0.7887
32090SOL     OW 2105   5.294   6.527  10.902  0.4218  0.6881 -0.1432
32090SOL    HW1 2106   5.271   6.571  10.984  1.1726 -0.3552  0.6538
32090SOL    HW2 2107   5.371   6.574  10.871 -0.5910  1.8791 -0.9251
32091SOL     OW 2108   2.569   3.296   4.633 -0.1331 -0.0481 -0.2720
32091SOL    HW1 2109   2.538   3.319   4.720  1.3732  1.5977 -0.1087
32091SOL    HW2 2110   2.566   3.378   4.584 -0.7539 -0.9013 -1.7245
32092SOL     OW 2111   3.742   1.558   2.405  0.2320 -0.4222  0.6904
32092SOL    HW1 2112   3.682   1.633   2.408  1.3300  0.5135 -0.0618
32092SOL    HW2 2113   3.686   1.483   2.425 -1.6234  0.1690 -1.6588
32093SOL     OW 2114   2.207   7.415   8.954  0.3545  0.1890  0.2394
32093SOL    HW1 2115   2.272   7.482   8.977 -0.2642  1.4272 -1.4733
32093SOL    HW2 2116   2.234   7.384   8.867 -2.0294  1.6957 -1.1309
32094SOL     OW 2117   2.076   5.424   0.371 -0.6346  0.2577  0.3579
32094SOL    HW1 2118   2.064   5.471   0.453  0.1003  1.3130 -0.1138
32094SOL    HW2 2119   2.101   5.492   0.308 -0.3119 -0.6572 -0.5324
32095SOL     OW 2120   9.742   7.190   3.138 -0.1958  0.0502  0.1800
32095SOL    HW1 2121   9.788   7.140   3.071 -0.1468 -0.7292  0.7808
32095SOL    HW2 2122   9.723   7.274   3.097 -0.6593 -0.6085 -0.9885
32096SOL     OW 2123   6.306   3.735   2.446 -0.0507  0.0241 -0.0136
32096SOL    HW1 2124   6.294   3.680   2.524 -0.4829 -1.8440 -1.3459
32096SOL    HW2 2125   6.278   3.822   2.475 -0.9343 -0.7693  1.7134
32097SOL     OW 2126   5.465   1.347   4.622 -0.0985 -0.1038 -0.6008
32097SOL    HW1 2127   5.372   1.338   4.603 -0.9519  1.9837  2.0488
32097SOL    HW2 2128   5.478   1.298   4.703  1.6752 -2.1383 -1.9749
32098SOL     OW 2129   9.401  10.207   7.866 -0.5095 -0.1990  0.0240
32098SOL    HW1 2130   9.448  10.222   7.948  0.2979  2.8441 -0.8670
32098SOL    HW2 2131   9.312  10.237   7.883 -0.8403 -1.2591  0.2564
32099SOL     OW 2132   9.010   3.227  10.147 -0.0970 -0.3982 -0.0846
32099SOL    HW1 2133   9.008   3.228  10.242  0.4848  2.4314 -0.0242
32099SOL    HW2 2134   8.960   3.304  10.121  1.1817 -0.1499 -2.0051
32100SOL     OW 2135   7.522   5.541   9.097  0.0864 -0.8161  0.0633
32100SOL    HW1 2136   7.453   5.588   9.144  2.3421  2.7573  0.2251
32100SOL    HW2 2137   7.508   5.563   9.005  1.6290  1.0957  0.2143
32101SOL     OW 2138   8.425   3.431   3.856  0.2803 -0.0694  0.1702
32101SOL    HW1 2139   8.484   3.402   3.786  1.1932  1.0742  0.4398
32101SOL    HW2 2140   8.482   3.469   3.922 -0.6719 -0.0674  1.0165
32102SOL     OW 2141  10.793  10.449   0.915 -0.6545  0.7562  0.0487
32102SOL    HW1 2142  10.803  10.383   0.847 -0.7409  0.7493  0.0425
32102SOL    HW2 2143  10.713  10.424   0.962  0.1093  0.0119  0.9804
32103SOL     OW 2144   4.041   1.198   8.321 -0.2950  0.0409  0.2457
32103SOL    HW1 2145   4.125   1.239   8.296 -0.4820  0.9234  1.0156
32103SOL    HW2 2146   4.065   1.133   8.386 -0.1632  0.0110  0.1685
32104SOL     OW 2147  10.668   3.678  10.099 -0.5063  0.2155 -0.1762
32104SOL    HW1 2148  10.601   3.729  10.145  1.0574  1.6591  0.6455
32104SOL    HW2 2149  10.683   3.726  10.018 -0.4722 -0.1033 -0.3596
32105SOL     OW 2150   1.955   7.513   8.902  0.1418 -0.3422 -0.3687
32105SOL    HW1 2151   1.919   7.443   8.848 -1.4727 -1.4767  2.0145
32105SOL    HW2 2152   2.035   7.476   8.940  0.6039  0.0142 -0.9703
32106SOL     OW 2153   1.885   4.147   0.013 -0.3420  0.7032 -0.2787
32106SOL    HW1 2154   1.840   4.091  -0.050 -2.3031  1.9815 -0.0916
32106SOL    HW2 2155   1.840   4.231   0.008 -0.8040  0.8003  3.0005
32107SOL     OW 2156   0.380   5.719   5.151  0.2900 -0.2960 -0.1067
32107SOL    HW1 2157   0.455   5.724   5.210 -0.0890 -0.9914  0.4455
32107SOL    HW2 2158   0.306   5.750   5.203 -0.1326 -1.3610 -0.0587
32108SOL     OW 2159   1.495   7.236   8.271 -0.1123  0.0871 -0.4885
32108SOL    HW1 2160   1.576   7.238   8.220  0.6460 -1.5852  0.5622
32108SOL    HW2 2161   1.523   7.222   8.361 -1.3439  4.0010  0.7037
32109SOL     OW 2162   4.282   8.784   6.667  0.4003  0.3336  0.0236
32109SOL    HW1 2163   4.261   8.867   6.710  0.1199  0.1492  0.2425
32109SOL    HW2 2164   4.250   8.717   6.728 -0.0998  0.0692 -0.5253
32110SOL     OW 2165   9.715   4.030   8.895  0.0368  0.1856 -0.1568
32110SOL    HW1 2166   9.773   3.956   8.914  0.4524  0.1073 -1.6269
32110SOL    HW2 2167   9.747   4.065   8.812 -0.2050  1.9770  0.4639
32111SOL     OW 2168   9.420   4.143   4.338  0.0449  0.2951  0.3322
32111SOL    HW1 2169   9.333   4.182   4.325 -0.4287 -0.5557  0.8331
32111SOL    HW2 2170   9.468   4.164   4.257 -0.5131  1.0395  0.1769
32112SOL     OW 2171   6.920   8.699   5.107  0.3382  0.8952 -0.5062
32112SOL    HW1 2172   6.868   8.648   5.169 -1.8533  3.0787 -0.3857
32112SOL    HW2 2173   6.971   8.634   5.059 -2.1993 -1.4136 -0.2989
32113SOL     OW 2174   1.117  10.854   4.236 -0.3892  0.1877 -0.0175
32113SOL    HW1 2175   1.062  10.925   4.203  0.9412  0.4105 -1.9504
32113SOL    HW2 2176   1.081  10.833   4.322 -0.4198  3.6959  0.9855
32114SOL     OW 2177   3.182   5.768   0.501 -0.1359 -0.4252 -0.0297
32114SOL    HW1 2178   3.252   5.795   0.441 -0.0526  0.5052  0.4744
32114SOL    HW2 2179   3.182   5.672   0.496  1.4659 -0.4683  0.2689
32115SOL     OW 2180   4.253   3.079   6.374  0.0386  0.9810 -0.4223
32115SOL    HW1 2181   4.195   3.135   6.426  1.4991  0.6883  1.6017
32115SOL    HW2 2182   4.341   3.113   6.389  0.6515  0.0891 -1.7248
32116SOL     OW 2183   3.437   4.727   4.948  0.2396  0.0911  0.1330
32116SOL    HW1 2184   3.364   4.785   4.971  1.3713  1.6700 -0.1278
32116SOL    HW2 2185   3.447   4.670   5.024 -0.0871  1.0722  0.9324
32117SOL     OW 2186   8.874   9.482   5.613  0.1357 -0.1087 -0.1110
32117SOL    HW1 2187   8.916   9.563   5.642 -0.7412 -0.0436  1.0304
32117SOL    HW2 2188   8.803   9.467   5.676 -2.5174  0.5347 -2.7291
32118SOL     OW 2189   2.559   7.987   5.189  0.1469 -0.5005 -0.3664
32118SOL    HW1 2190   2.488   7.923   5.180 -0.7273  0.0984  1.6810
32118SOL    HW2 2191   2.624   7.943   5.243  0.2470 -0.2006 -0.2442
32119SOL     OW 2192   4.960   3.602   6.955 -0.1496  0.2278  0.1043
32119SOL    HW1 2193   4.949   3.619   7.048  1.1451  1.3731  0.0692
32119SOL    HW2 2194   5.025   3.532   6.950  0.9907  1.2733  0.0373
32120SOL     OW 2195   0.374   5.484   9.153 -0.0085  0.8676 -0.0576
32120SOL    HW1 2196   0.428   5.560   9.133 -1.3404  1.5640 -1.1313
32120SOL    HW2 2197   0.357   5.443   9.068  0.2654 -0.3586  0.4500
32121SOL     OW 2198   4.599   5.127   8.323 -0.1269  0.2756 -0.4563
32121SOL    HW1 2199   4.600   5.216   8.286  0.9227 -0.6760 -2.8848
32121SOL    HW2 2200   4.666   5.130   8.392  0.0163  1.3222 -0.6129
32122SOL     OW 2201   0.634  10.713   9.786  0.1649 -0.4033  0.3189
32122SOL    HW1 2202   0.676  10.786   9.831 -0.2592  0.3764 -0.5287
32122SOL    HW2 2203   0.707  10.659   9.754  0.5764  0.9334 -1.1342
32123SOL     OW 2204   0.466   3.660   8.044 -0.0923 -0.1686 -0.1097
32123SOL    HW1 2205   0.529   3.592   8.020  0.1003 -0.1994  0.4758
32123SOL    HW2 2206   0.441   3.640   8.134  2.5167  2.3744  1.3744
32124SOL     OW 2207   5.046   0.260   5.950  0.3336  0.3128 -0.3371
32124SOL    HW1 2208   4.986   0.299   5.886  1.5402  0.1174 -1.6286
32124SOL    HW2 2209   5.132   0.264   5.908  0.8332 -1.8146  0.3660
32125SOL     OW 2210   3.299   3.679   2.839 -0.4931 -0.1700  0.4492
32125SOL    HW1 2211   3.273   3.769   2.854  0.4419  0.0336  0.9040
32125SOL    HW2 2212   3.216   3.632   2.823 -1.1478  0.4179  1.9756
32126SOL     OW 2213   8.500   6.193  10.369  0.3176 -0.2192  0.0417
32126SOL    HW1 2214   8.432   6.126  10.380  2.1502 -1.9180  2.1038
32126SOL    HW2 2215   8.539   6.174  10.284  0.0585 -1.0587  0.0991
32127SOL     OW 2216   8.587   4.278   7.669  0.5337 -0.6533  0.1533
32127SOL    HW1 2217   8.589   4.276   7.573 -0.5477  0.9113  0.0601
32127SOL    HW2 2218   8.522   4.212   7.693  1.7350 -1.9677 -0.0971
32128SOL     OW 2219   4.273   5.295   5.601 -0.0882 -0.1125 -0.1595
32128SOL    HW1 2220   4.337   5.270   5.667 -0.9372 -1.2459  0.2681
32128SOL    HW2 2221   4.192   5.312   5.651 -0.5115 -0.1246 -0.8258
32129SOL     OW 2222   9.768   0.595  10.492 -0.1483  0.3159 -0.2289
32129SOL    HW1 2223   9.801   0.624  10.407  0.0931  0.9851  0.0875
32129SOL    HW2 2224   9.699   0.658  10.513  0.5170  0.7973  0.5615
32130SOL     OW 2225   6.786   8.854   7.674  0.2971  0.4411  0.2941
32130SOL    HW1 2226   6.875   8.889   7.681  0.2233  0.3797  1.7672
32130SOL    HW2 2227   6.730   8.931   7.669  0.2176  0.5629  2.4578
32131SOL     OW 2228   4.139   2.440   3.505  0.3835  0.0515 -0.3962
32131SOL    HW1 2229   4.148   2.504   3.575  0.3451 -2.6098  2.2647
32131SOL    HW2 2230   4.101   2.489   3.432  3.9109  3.8536 -0.0003
32132SOL     OW 2231   0.084   0.978   9.453  0.2955  0.1658  0.7286
32132SOL    HW1 2232   0.088   0.992   9.359 -1.0926  0.3173  0.6727
32132SOL    HW2 2233  -0.010   0.979   9.474  0.5307 -0.8483  1.9609
32133SOL     OW 2234   7.432   6.472   4.482 -0.1063 -0.0349 -0.1527
32133SOL    HW1 2235   7.487   6.481   4.560 -0.2137  0.3095 -0.1141
32133SOL    HW2 2236   7.392   6.559   4.471 -0.2931 -0.1565 -0.4390
32134SOL     OW 2237   1.968  10.821   6.735  0.5212 -0.7997  0.3776
32134SOL    HW1 2238   1.944  10.743   6.685 -0.3573 -0.3320  0.0479
32134SOL    HW2 2239   1.889  10.844   6.783  0.5463  0.2913 -0.0797
32135SOL     OW 2240   1.572   8.525   3.999 -0.9454  0.1651 -0.3328
32135SOL    HW1 2241   1.490   8.557   4.037 -0.4445  0.6960  0.3230
32135SOL    HW2 2242   1.628   8.602   3.996  0.0001 -0.4675  0.4958
32136SOL     OW 2243   3.703   7.460   8.520  0.0627  0.0010 -0.0770
32136SOL    HW1 2244   3.733   7.459   8.611 -0.4091  1.0610  0.1006
32136SOL    HW2 2245   3.668   7.372   8.506  1.4252 -0.6307  0.3109
32137SOL     OW 2246   8.169   8.398   7.613  0.2461  0.4235  0.1446
32137SOL    HW1 2247   8.136   8.467   7.670 -0.6305  0.7128 -0.7005
32137SOL    HW2 2248   8.184   8.441   7.529  0.5233 -0.2323 -0.1490
32138SOL     OW 2249   3.659   8.764   7.038 -0.4591 -0.3618  0.0760
32138SOL    HW1 2250   3.726   8.748   6.971  1.2780  0.3092  1.5899
32138SOL    HW2 2251   3.626   8.676   7.060  0.8986 -0.8351  0.2781
32139SOL     OW 2252   7.568   5.304  10.582 -0.1326 -0.1402 -0.4014
32139SOL    HW1 2253   7.590   5.285  10.674  1.2367 -0.9193 -0.8637
32139SOL    HW2 2254   7.505   5.236  10.559  0.1705 -0.4642 -0.2847
32140SOL     OW 2255  10.882   2.891   9.483 -0.3031  0.1426 -0.0119
32140SOL    HW1 2256  10.840   2.836   9.549  0.9612 -1.2897 -0.3343
32140SOL    HW2 2257  10.822   2.964   9.470 -0.9036  0.1109  2.2152
32141SOL     OW 2258   8.909   3.387   9.367 -0.1251 -0.4507 -0.7893
32141SOL    HW1 2259   8.976   3.448   9.399 -1.2601 -0.0299  0.9059
32141SOL    HW2 2260   8.835   3.443   9.344  0.1211 -0.8908 -2.8760
32142SOL     OW 2261   2.227   7.215   9.452  0.0650 -0.0662 -0.1673
32142SOL    HW1 2262   2.241   7.121   9.448 -0.3295 -0.1521  0.3521
32142SOL    HW2 2263   2.288   7.246   9.520 -0.3714 -0.0638  0.2258
32143SOL     OW 2264   6.807   6.126   0.916  0.2344 -0.1170 -0.0748
32143SOL    HW1 2265   6.765   6.040   0.921  0.6396 -0.2826  0.5052
32143SOL    HW2 2266   6.749   6.177   0.859 -0.0610 -0.7410 -0.3452
32144SOL     OW 2267   3.721   8.074   1.475  0.1587 -0.0311  0.0535
32144SOL    HW1 2268   3.742   8.024   1.395 -0.3911  2.6809 -1.9173
32144SOL    HW2 2269   3.784   8.146   1.475 -0.9103  0.9348  1.1637
32145SOL     OW 2270   9.195   1.360   6.677  0.4480 -0.3529 -0.3457
32145SOL    HW1 2271   9.174   1.453   6.685 -2.8882 -0.8321 -1.7488
32145SOL    HW2 2272   9.249   1.355   6.598 -1.6900  0.2382 -1.9497
32146SOL     OW 2273   1.571   3.415   6.696 -0.2640  0.0575 -0.4120
32146SOL    HW1 2274   1.575   3.322   6.717  2.8271 -0.5037 -2.7588
32146SOL    HW2 2275   1.594   3.420   6.603 -0.8080  3.1531 -0.4942
32147SOL     OW 2276   7.400   0.990   9.897 -0.6694  0.0971  0.1955
32147SOL    HW1 2277   7.417   1.015   9.987 -2.8581 -0.0726  0.7098
32147SOL    HW2 2278   7.310   0.958   9.897 -0.9359  0.6442 -2.1600
32148SOL     OW 2279   3.441   2.535   6.675  0.1517 -0.3442 -0.8469
32148SOL    HW1 2280   3.532   2.562   6.659 -0.6651  1.6246 -2.6493
32148SOL    HW2 2281   3.397   2.614   6.703 -0.8958 -1.4619  0.8367
32149SOL     OW 2282   9.293   2.493   7.141  0.0266  0.8672  0.5959
32149SOL    HW1 2283   9.374   2.498   7.091  0.1834 -0.5635  0.6791
32149SOL    HW2 2284   9.317   2.448   7.222 -0.6500  1.3238  1.0645
32150SOL     OW 2285   6.158   5.213   4.730 -0.9109 -0.4159  0.3437
32150SOL    HW1 2286   6.070   5.178   4.745 -1.0360  0.6175  2.2361
32150SOL    HW2 2287   6.203   5.202   4.813 -0.0815  1.4136  0.1703
32151SOL     OW 2288  10.856  10.617   9.846 -0.6513  0.3473  0.1610
32151SOL    HW1 2289  10.824  10.684   9.907  0.6611  0.3406  0.9043
32151SOL    HW2 2290  10.801  10.626   9.769 -0.9654  1.8197  0.5236
32152SOL     OW 2291   6.026   0.914   3.772  0.5534  0.2705  0.4775
32152SOL    HW1 2292   5.968   0.990   3.758 -1.6581 -0.9129  2.4926
32152SOL    HW2 2293   5.998   0.850   3.707  0.1554  0.0141  0.8938
32153SOL     OW 2294   6.410   7.900   8.614 -0.5116 -0.4587  0.4229
32153SOL    HW1 2295   6.492   7.879   8.659 -1.0915  1.6322  2.6618
32153SOL    HW2 2296   6.370   7.815   8.596  1.6252 -1.4879  0.2298
32154SOL     OW 2297   5.164   8.462   8.334  0.0599 -0.1908 -0.1078
32154SOL    HW1 2298   5.257   8.441   8.344  0.3515  0.7246 -0.7727
32154SOL    HW2 2299   5.126   8.386   8.292  0.9580  0.2891 -1.8699
32155SOL     OW 2300   4.706   0.317   5.508  0.2064 -0.0519 -0.1849
32155SOL    HW1 2301   4.719   0.336   5.415  0.4807  2.7815  0.3380
32155SOL    HW2 2302   4.616   0.343   5.525  0.4897  0.4887  0.5416
32156SOL     OW 2303   9.477   7.744   9.953 -0.1621 -0.2862 -0.0325
32156SOL    HW1 2304   9.444   7.829   9.922  0.3557  0.6854  1.9000
32156SOL    HW2 2305   9.567   7.740   9.919 -0.7230 -0.8784 -1.5392
32157SOL     OW 2306   4.327   3.133   5.265  0.3693  0.2291  0.0231
32157SOL    HW1 2307   4.354   3.194   5.333  1.2204  0.3828 -0.4358
32157SOL    HW2 2308   4.290   3.058   5.312  0.0421  0.7541  0.6082
32158SOL     OW 2309   0.920   0.516   9.257 -0.1083 -0.3173 -0.9432
32158SOL    HW1 2310   0.901   0.434   9.302 -1.4356  0.5145  0.1170
32158SOL    HW2 2311   0.861   0.580   9.298 -0.4460  0.7813 -2.9761
32159SOL     OW 2312   6.241   0.301   6.864  0.1885  0.0419  0.3675
32159SOL    HW1 2313   6.181   0.371   6.889  0.7640  1.5346 -2.1944
32159SOL    HW2 2314   6.193   0.250   6.798 -0.3587 -2.3238  2.4115
32160SOL     OW 2315   2.523   5.659   9.408  0.5089 -0.2321 -0.3544
32160SOL    HW1 2316   2.451   5.612   9.451  1.6655 -0.2479  1.6442
32160SOL    HW2 2317   2.540   5.607   9.329 -0.1002 -1.5949  0.3660
32161SOL     OW 2318   0.112   5.344   3.144 -0.3126 -0.3198  0.2521
32161SOL    HW1 2319   0.055   5.324   3.219  0.5738  3.5207  2.2378
32161SOL    HW2 2320   0.092   5.435   3.123  3.1300  0.3398 -0.7587
32162SOL     OW 2321   4.943   0.761   5.709  0.3988 -0.1086  0.1941
32162SOL    HW1 2322   4.862   0.710   5.714  0.4306 -0.0574  3.2299
32162SOL    HW2 2323   4.915   0.847   5.677  0.1890 -1.4730 -3.9621
32163SOL     OW 2324   2.354   5.287  10.646 -0.2194  0.1019  0.0428
32163SOL    HW1 2325   2.356   5.216  10.582 -0.2846  0.2687 -0.1423
32163SOL    HW2 2326   2.363   5.242  10.731 -0.1948 -0.1214 -0.0779
32164SOL     OW 2327   0.688   6.770  10.394  0.8104 -0.0521  0.6619
32164SOL    HW1 2328   0.723   6.728  10.315  1.2121 -0.7610  1.1987
32164SOL    HW2 2329   0.703   6.705  10.464 -0.7239  0.0059  1.0862
32165SOL     OW 2330   2.314   9.995   2.152  0.2884  0.2610  0.2857
32165SOL    HW1 2331   2.381  10.062   2.167  1.1826  0.6084 -3.9250
32165SOL    HW2 2332   2.232  10.045   2.145  0.3765  0.4672  0.7307
32166SOL     OW 2333   9.486   1.911   8.329  0.3689  0.2661  0.3826
32166SOL    HW1 2334   9.443   1.952   8.254 -1.5574 -0.8892  0.7784
32166SOL    HW2 2335   9.558   1.860   8.291 -1.0712 -0.9444 -0.8076
32167SOL     OW 2336   1.392   2.307   9.594  0.1389 -0.0025  0.0518
32167SOL    HW1 2337   1.419   2.266   9.512 -1.5561 -0.2689 -0.4128
32167SOL    HW2 2338   1.432   2.394   9.591 -0.2761  0.1686 -1.2933
32168SOL     OW 2339   7.612   3.775   4.486  0.0622 -0.0988  0.4054
32168SOL    HW1 2340   7.604   3.790   4.392  0.8792 -0.2584  0.3005
32168SOL    HW2 2341   7.586   3.858   4.525  3.3543  1.3324 -0.1266
32169SOL     OW 2342  10.083   6.796   0.450 -0.7133  0.0650  0.2900
32169SOL    HW1 2343  10.003   6.841   0.476 -0.8847  0.1552 -0.3567
32169SOL    HW2 2344  10.069   6.775   0.357 -0.3895 -0.7750  0.4177
32170SOL     OW 2345   3.840   1.263   9.404  1.0372 -0.2086  0.0351
32170SOL    HW1 2346   3.859   1.356   9.396  0.7221 -0.2317 -1.2861
32170SOL    HW2 2347   3.897   1.221   9.339  0.8530 -0.8965  0.3025
32171SOL     OW 2348  10.720  10.893   5.366  0.3312  0.5662  0.4433
32171SOL    HW1 2349  10.787  10.828   5.346 -0.3467 -0.2392  0.7275
32171SOL    HW2 2350  10.754  10.975   5.330  1.2041  0.0582  0.0918
32172SOL     OW 2351   5.489   3.716   4.547 -0.0173 -0.5234 -0.0201
32172SOL    HW1 2352   5.465   3.728   4.455  0.2299 -2.2573 -0.3506
32172SOL    HW2 2353   5.584   3.700   4.546  0.1823  0.5383  0.6631
32173SOL     OW 2354   9.165   7.585   3.332  0.2298 -0.0004  0.8914
32173SOL    HW1 2355   9.244   7.580   3.386 -0.3256  1.3898  1.9269
32173SOL    HW2 2356   9.098   7.540   3.384  0.8207 -3.5675 -1.1495
32174SOL     OW 2357   0.062   8.260   5.715  0.9794  0.0068 -0.4807
32174SOL    HW1 2358   0.054   8.209   5.634  2.2311 -0.8944 -0.0735
32174SOL    HW2 2359   0.122   8.209   5.769  1.8143  1.6397  0.1869
32175SOL     OW 2360   1.853   5.664   3.131  0.5275 -0.9761 -0.5092
32175SOL    HW1 2361   1.887   5.645   3.044 -0.3339  0.6100 -1.2395
32175SOL    HW2 2362   1.777   5.720   3.115  0.8148 -0.0026  1.2760
32176SOL     OW 2363   8.854   6.051   6.823 -0.1576  0.3524  0.4449
32176SOL    HW1 2364   8.769   6.066   6.864 -0.7443 -0.5277 -0.4138
32176SOL    HW2 2365   8.840   6.068   6.730  0.5359 -0.0448  0.2577
32177SOL     OW 2366   2.081   7.579   8.207  0.0149  0.2677 -0.1283
32177SOL    HW1 2367   2.004   7.528   8.182 -1.1658  1.3903  1.0195
32177SOL    HW2 2368   2.098   7.634   8.131 -0.4225  0.1222 -0.3362
32178SOL     OW 2369   6.050  10.610   5.708  0.2540  0.3049 -0.0430
32178SOL    HW1 2370   6.001  10.532   5.684 -0.7170  0.3530  1.6435
32178SOL    HW2 2371   5.999  10.683   5.673  0.1774  0.2691 -0.0052
32179SOL     OW 2372   2.369  10.291   6.686 -0.1101 -0.0231  0.4701
32179SOL    HW1 2373   2.407  10.231   6.622  0.0189  1.4184 -0.8555
32179SOL    HW2 2374   2.276  10.291   6.667  0.0963  1.5211 -0.7647
32180SOL     OW 2375  10.848   4.636   2.902 -0.0748  0.1794 -0.3248
32180SOL    HW1 2376  10.918   4.595   2.952 -1.7423  0.8315  2.7703
32180SOL    HW2 2377  10.879   4.724   2.884  0.8593 -0.3110 -1.2250
32181SOL     OW 2378   0.355   6.191   8.991  0.2741 -0.0765  0.6866
32181SOL    HW1 2379   0.396   6.190   9.077 -0.8279  0.8985  1.2458
32181SOL    HW2 2380   0.332   6.283   8.976 -0.8981 -0.4569  0.0175
32182SOL     OW 2381   9.105   0.403   9.975 -0.0391 -0.0147 -0.1019
32182SOL    HW1 2382   9.107   0.491   9.938  0.6525 -0.5952 -1.5380
32182SOL    HW2 2383   9.046   0.354   9.918 -0.7996 -0.3738  0.9693
32183SOL     OW 2384   0.967   7.065   9.404  0.6511  0.7399 -0.0241
32183SOL    HW1 2385   0.973   7.093   9.495 -0.8730 -0.1674  0.4038
32183SOL    HW2 2386   1.017   6.984   9.400  0.5473  0.6724  0.0512
32184SOL     OW 2387  10.740   3.896   2.266 -0.6411  0.1801  0.3174
32184SOL    HW1 2388  10.741   3.800   2.260 -1.2616  0.2165 -0.6825
32184SOL    HW2 2389  10.706   3.924   2.181 -1.0044  1.2708  0.8106
32185SOL     OW 2390   0.492  10.667   2.050  0.1674  0.2319 -0.0988
32185SOL    HW1 2391   0.419  10.689   2.107 -0.2632 -0.8575 -0.2019
32185SOL    HW2 2392   0.546  10.607   2.101  0.3798  0.1350 -0.4308
32186SOL     OW 2393   5.762   5.787  10.083 -0.4217 -0.1462  0.0310
32186SOL    HW1 2394   5.722   5.825  10.162  0.1908 -1.6067  1.0918
32186SOL    HW2 2395   5.827   5.851  10.056 -1.3456  0.8505  0.0754
32187SOL     OW 2396   6.058   5.978   0.487 -0.8422 -0.4101  0.5202
32187SOL    HW1 2397   6.061   6.067   0.523  2.6859  0.0509 -0.5253
32187SOL    HW2 2398   6.067   5.990   0.393 -1.0089 -1.8801  0.2952
32188SOL     OW 2399   0.553   0.653   9.763 -0.1009 -0.2272 -0.5944
32188SOL    HW1 2400   0.469   0.639   9.805  1.2303 -2.9083  1.4887
32188SOL    HW2 2401   0.548   0.604   9.681 -0.5908 -0.3663 -0.4820
32189SOL     OW 2402  10.446   8.386   8.547 -0.2383 -1.0836  0.6562
32189SOL    HW1 2403  10.407   8.345   8.624  0.5090 -2.7006  0.2327
32189SOL    HW2 2404  10.470   8.312   8.491 -0.3829  0.0397 -0.9426
32190SOL     OW 2405   5.347   0.109   9.855 -0.2773 -0.2912 -0.0079
32190SOL    HW1 2406   5.310   0.051   9.789  1.6511  0.8102 -2.2027
32190SOL    HW2 2407   5.388   0.180   9.805 -0.9635  2.0366  2.4941
32191SOL     OW 2408  10.017   0.735   0.220 -0.0308 -0.4525 -0.2222
32191SOL    HW1 2409  10.033   0.772   0.133  0.9685 -0.5456 -0.0927
32191SOL    HW2 2410  10.049   0.645   0.213  2.0718  0.1500  0.8281
32192SOL     OW 2411   4.618   5.931   8.301 -0.4788  0.1075 -0.5392
32192SOL    HW1 2412   4.544   5.915   8.360 -1.0235  1.2517 -0.8706
32192SOL    HW2 2413   4.691   5.951   8.359 -0.7436  0.1805 -0.2230
32193SOL     OW 2414   5.015   8.825   7.909  0.3630  0.0319  0.7782
32193SOL    HW1 2415   4.950   8.780   7.854  0.3011 -0.1897  1.0266
32193SOL    HW2 2416   5.088   8.844   7.850  0.8670 -1.3946  0.9117
32194SOL     OW 2417  10.896   5.607  10.306  0.2417 -0.0323 -0.3179
32194SOL    HW1 2418  10.905   5.522  10.350 -0.3415  0.1078  0.0893
32194SOL    HW2 2419  10.810   5.639  10.334 -0.3257 -0.1230 -1.8963
32195SOL     OW 2420   9.530   0.218   8.378 -0.3344 -0.6393  0.3181
32195SOL    HW1 2421   9.470   0.210   8.452 -0.8136  0.6538  0.0952
32195SOL    HW2 2422   9.485   0.276   8.317 -0.1262 -1.9833 -1.1803
32196SOL     OW 2423   8.533   5.485   9.060  0.0441 -0.0880 -0.1468
32196SOL    HW1 2424   8.519   5.477   9.155  0.3895 -2.2414 -0.2212
32196SOL    HW2 2425   8.583   5.566   9.050  1.8095 -0.8566  1.7460
32197SOL     OW 2426  10.372   0.969   2.132  0.0168 -0.2093 -0.0119
32197SOL    HW1 2427  10.404   0.981   2.043  0.2606  1.8203  0.3153
32197SOL    HW2 2428  10.372   1.056   2.171  1.2874 -1.1889  2.4607
32198SOL     OW 2429   6.844   5.102   3.203 -0.0342  0.2079  0.4144
32198SOL    HW1 2430   6.813   5.094   3.113 -0.3903  0.4754  0.5072
32198SOL    HW2 2431   6.911   5.034   3.213 -1.4362 -1.1941  0.5681
32199SOL     OW 2432   8.841   1.097   2.932  0.1741  0.2907  0.4544
32199SOL    HW1 2433   8.933   1.089   2.955  0.4665  0.4541 -0.6058
32199SOL    HW2 2434   8.794   1.078   3.013  1.1205 -0.5550  0.8249
32200SOL     OW 2435   5.298   9.476   9.862 -0.0828  0.5248 -0.2321
32200SOL    HW1 2436   5.324   9.411   9.796 -0.0091 -1.0208  1.2529
32200SOL    HW2 2437   5.310   9.561   9.818  1.4680 -0.3775 -1.6692
32201SOL     OW 2438   4.198   7.476   7.360  0.5889  1.0117  1.2843
32201SOL    HW1 2439   4.197   7.414   7.432 -0.1311  1.2331  1.4758
32201SOL    HW2 2440   4.288   7.476   7.329  0.4924 -0.5621  0.8996
32202SOL     OW 2441   4.844   1.867   4.449  0.1124  0.0769  0.4770
32202SOL    HW1 2442   4.878   1.832   4.366 -0.0525 -1.7768  1.1649
32202SOL    HW2 2443   4.909   1.842   4.514 -0.9515 -0.6206  1.2888
32203SOL     OW 2444   3.581   2.486   0.012 -0.1911  0.1559 -0.4425
32203SOL    HW1 2445   3.654   2.427   0.027 -1.1048 -1.1063 -0.8295
32203SOL    HW2 2446   3.587   2.550   0.083 -0.4659 -1.7096  1.3416
32204SOL     OW 2447   5.699   7.865   7.208 -0.4563  0.1935  0.1176
32204SOL    HW1 2448   5.731   7.789   7.256 -2.0880 -0.6137 -0.0095
32204SOL    HW2 2449   5.778   7.913   7.184  0.7429 -2.0859 -0.8340
32205SOL     OW 2450   5.463   5.189   7.972 -0.4244 -0.4304  0.5884
32205SOL    HW1 2451   5.380   5.223   8.005 -0.7326 -0.4184 -0.1613
32205SOL    HW2 2452   5.437   5.122   7.908  0.1497 -0.5371  0.4612
32206SOL     OW 2453   8.637   7.849   7.684 -0.5544 -0.2120  0.7957
32206SOL    HW1 2454   8.619   7.774   7.628  2.2819  1.8038 -3.3696
32206SOL    HW2 2455   8.550   7.879   7.712 -2.1605 -2.0037 -1.7880
32207SOL     OW 2456   5.111   5.343   1.303 -0.1606  0.3537 -0.5176
32207SOL    HW1 2457   5.025   5.330   1.262 -0.9053  0.3542  0.9770
32207SOL    HW2 2458   5.100   5.312   1.393  1.5685 -0.1366 -0.4259
32208SOL     OW 2459   2.376   0.310   6.846  0.0651 -0.9430 -0.2834
32208SOL    HW1 2460   2.372   0.403   6.821 -0.7950 -0.2918  1.9449
32208SOL    HW2 2461   2.454   0.304   6.902  0.5260 -1.7427 -0.9997
32209SOL     OW 2462   4.905   4.154   9.457 -0.6946  0.3092  0.6498
32209SOL    HW1 2463   4.912   4.200   9.541 -3.2569  0.4823  0.8587
32209SOL    HW2 2464   4.813   4.165   9.432  0.1309  0.8445 -2.5397
32210SOL     OW 2465   4.794   7.945   6.484  0.3581 -0.2852 -0.0217
32210SOL    HW1 2466   4.803   7.851   6.495  1.2797 -0.1973  0.1069
32210SOL    HW2 2467   4.872   7.982   6.526  0.4715  0.4703 -0.8443
32211SOL     OW 2468   6.817   3.897   8.562  0.3544  0.4650  0.4191
32211SOL    HW1 2469   6.811   3.818   8.508  1.1745  0.5999  0.1015
32211SOL    HW2 2470   6.754   3.958   8.524 -0.6634 -0.2166  0.9909
32212SOL     OW 2471   4.388   0.737   8.792  0.0831  0.7133  0.5427
32212SOL    HW1 2472   4.297   0.726   8.767  0.0727  0.6701  0.5997
32212SOL    HW2 2473   4.390   0.721   8.886  0.0016  1.5744  0.7004
32213SOL     OW 2474   9.277   3.850   5.985 -0.7835 -0.2038 -0.3246
32213SOL    HW1 2475   9.233   3.840   5.901 -1.2315  0.2363 -0.1453
32213SOL    HW2 2476   9.310   3.762   6.006  0.2944 -0.1028 -1.4681
32214SOL     OW 2477   3.067  10.263   3.341 -0.0409 -0.0983 -0.3114
32214SOL    HW1 2478   3.048  10.352   3.372  0.5518  0.4735 -1.5122
32214SOL    HW2 2479   3.149  10.240   3.383 -0.3344 -0.1975  0.2175
32215SOL     OW 2480   6.128  10.866   6.203  0.2621 -0.2135  0.3119
32215SOL    HW1 2481   6.042  10.872   6.244  0.8076  1.0391  1.3434
32215SOL    HW2 2482   6.111  10.832   6.115 -1.2472 -0.1691  0.5647
32216SOL     OW 2483   7.909   4.187  10.872  0.2303  0.2780 -0.7174
32216SOL    HW1 2484   7.951   4.270  10.850 -1.8995  1.0705 -2.0753
32216SOL    HW2 2485   7.952   4.123  10.815 -0.5360  1.1183 -2.3115
32217SOL     OW 2486   0.926  10.072  10.093 -0.0338  0.5635  0.1215
32217SOL    HW1 2487   0.982  10.086  10.169 -0.0241 -0.5915  0.3491
32217SOL    HW2 2488   0.837  10.074  10.128 -0.0511  0.5847  0.0754
32218SOL     OW 2489   2.280   1.887   0.497  0.2364 -0.1404 -0.4809
32218SOL    HW1 2490   2.196   1.899   0.542 -0.4605  0.8624 -1.9978
32218SOL    HW2 2491   2.338   1.850   0.565 -0.0992  3.2798  1.9326
32219SOL     OW 2492   0.765   5.245   8.185 -0.0378  0.1624 -0.0674
32219SOL    HW1 2493   0.786   5.185   8.113 -2.6789 -1.0562  0.0872
32219SOL    HW2 2494   0.672   5.263   8.175  0.4269  3.4622  0.5593
32220SOL     OW 2495   6.331   3.446  10.766  0.2193 -0.3014 -0.3361
32220SOL    HW1 2496   6.359   3.515  10.705  0.3903 -0.3631 -0.3279
32220SOL    HW2 2497   6.412   3.412  10.802  0.1028  1.8251  2.2976
32221SOL     OW 2498  10.288   1.157   6.028  0.7139  0.0744 -0.0786
32221SOL    HW1 2499  10.258   1.130   5.941 -0.6510 -0.5633  0.5499
32221SOL    HW2 2500  10.217   1.130   6.086  1.4354  0.8382  1.1877
32222SOL     OW 2501   5.229   1.929   1.548  0.2772  0.4398 -0.1004
32222SOL    HW1 2502   5.283   1.999   1.511 -0.2289  0.9581  0.1247
32222SOL    HW2 2503   5.141   1.947   1.517  0.2886 -0.6928 -0.8796
32223SOL     OW 2504   2.803   4.328   8.394  0.2805  0.8324 -0.1409
32223SOL    HW1 2505   2.748   4.344   8.471 -0.5120  1.3295 -0.8011
32223SOL    HW2 2506   2.874   4.392   8.402  1.7383 -0.8991  1.5886
32224SOL     OW 2507   8.252   2.727   8.737  0.3063 -0.0034 -0.7149
32224SOL    HW1 2508   8.179   2.789   8.746 -1.0627 -1.4297 -1.4920
32224SOL    HW2 2509   8.210   2.644   8.713  2.0300 -1.3617  0.6516
32225SOL     OW 2510   5.839   0.980   2.933  0.0706  0.5400 -0.2778
32225SOL    HW1 2511   5.759   1.029   2.950 -0.6655 -0.6311 -0.2421
32225SOL    HW2 2512   5.817   0.924   2.858  0.8107  0.0943 -0.1730
32226SOL     OW 2513   5.521   4.061   6.412 -0.4279  0.2975  0.2872
32226SOL    HW1 2514   5.502   4.120   6.339 -0.3417  0.2135  0.1960
32226SOL    HW2 2515   5.534   3.976   6.371  2.0645  0.6824  0.1042
32227SOL     OW 2516   7.883   0.494   9.225 -0.5657 -0.3588 -0.5778
32227SOL    HW1 2517   7.798   0.500   9.268  0.4414  2.4760  1.2592
32227SOL    HW2 2518   7.872   0.540   9.142 -1.6475 -3.0408 -2.0374
32228SOL     OW 2519   5.375   3.055   5.958 -0.2790 -0.2144  0.1121
32228SOL    HW1 2520   5.407   2.970   5.929  0.6054 -0.2931  1.2748
32228SOL    HW2 2521   5.455   3.107   5.972 -0.8080  1.0245 -1.1655
32229SOL     OW 2522   7.861   5.741   5.369  0.2956  0.0082 -0.4276
32229SOL    HW1 2523   7.908   5.729   5.286  1.2380  0.6341 -0.0039
32229SOL    HW2 2524   7.924   5.715   5.436 -0.0353  0.6749  0.1504
32230SOL     OW 2525   5.079   9.026   9.223 -0.5737  0.4195 -0.8782
32230SOL    HW1 2526   5.102   9.076   9.301 -1.8596 -1.7509  1.0462
32230SOL    HW2 2527   5.135   9.061   9.154  1.4595  1.6896  1.2649
32231SOL     OW 2528   0.335   3.965   6.062  0.2518  0.2090 -0.3362
32231SOL    HW1 2529   0.431   3.970   6.063  0.2626 -0.0248  0.1391
32231SOL    HW2 2530   0.313   3.913   6.140 -0.2255 -0.2678 -0.7781
32232SOL     OW 2531   1.260   0.254   5.310 -0.1717  0.3717 -0.7257
32232SOL    HW1 2532   1.265   0.349   5.297 -0.0351  0.6044  0.7969
32232SOL    HW2 2533   1.351   0.224   5.300  0.2048  0.7799  1.1616
32233SOL     OW 2534   6.345   8.613   6.605  0.3827 -0.2556  0.4800
32233SOL    HW1 2535   6.273   8.611   6.669 -0.5706 -0.1363 -0.5606
32233SOL    HW2 2536   6.396   8.534   6.625  1.8097  1.2029  3.2426
32234SOL     OW 2537   1.221   2.716   0.733 -0.0331  0.4660  0.2523
32234SOL    HW1 2538   1.167   2.755   0.665 -1.6533  0.1541  1.3111
32234SOL    HW2 2539   1.193   2.758   0.814  0.7465 -0.2799  0.9390
32235SOL     OW 2540  10.482   1.207   9.523 -0.5872 -0.8365 -0.2318
32235SOL    HW1 2541  10.407   1.250   9.563 -0.7647 -1.2740 -0.0863
32235SOL    HW2 2542  10.539   1.278   9.495  0.4611 -0.4903  2.4735
32236SOL     OW 2543   9.249   4.374   5.003  0.4979 -0.0564  0.2155
32236SOL    HW1 2544   9.241   4.347   4.912  1.0077  2.4542 -0.6702
32236SOL    HW2 2545   9.211   4.462   5.005  2.0986  0.6686  2.0084
32237SOL     OW 2546   4.180   1.683   5.280 -0.7825 -0.3469 -0.2215
32237SOL    HW1 2547   4.129   1.658   5.203  1.1340  0.6777 -1.9172
32237SOL    HW2 2548   4.190   1.778   5.272 -0.0507 -0.3090  0.9915
32238SOL     OW 2549   0.609   0.118  10.013 -0.0294  0.9331  0.5834
32238SOL    HW1 2550   0.613   0.114  10.109 -0.3054 -0.7783  0.5656
32238SOL    HW2 2551   0.515   0.121   9.993 -0.2463 -2.6079  0.3806
32239SOL     OW 2552  10.774   3.002   0.735 -0.2074  0.5388  0.2034
32239SOL    HW1 2553  10.729   3.063   0.794  0.7203 -0.4820  2.0243
32239SOL    HW2 2554  10.703   2.956   0.691 -1.0405 -0.5457  2.5120
32240SOL     OW 2555   6.388   3.956   3.683 -0.2369  0.2117  0.0071
32240SOL    HW1 2556   6.332   3.999   3.619  0.2616 -1.9166 -2.0151
32240SOL    HW2 2557   6.447   3.902   3.630  2.0928  0.4645  2.1559
32241SOL     OW 2558  10.869   2.995   3.508 -0.5467  0.1348  0.2888
32241SOL    HW1 2559  10.880   3.061   3.440 -0.9899 -0.2543 -0.1621
32241SOL    HW2 2560  10.948   2.941   3.501 -0.6077  0.0749  0.0663
32242SOL     OW 2561   9.814   0.697   2.662  0.2785 -0.6012  0.3179
32242SOL    HW1 2562   9.724   0.664   2.663  0.2874 -0.8287 -1.9369
32242SOL    HW2 2563   9.810   0.778   2.712 -1.9417  1.0618 -2.2573
32243SOL     OW 2564   7.703   9.535   4.493 -0.2299  0.2255 -0.3087
32243SOL    HW1 2565   7.783   9.485   4.478  1.2341  2.0311  0.9916
32243SOL    HW2 2566   7.636   9.468   4.507  1.4745 -1.3933  0.6996
32244SOL     OW 2567   2.296   3.152   4.938 -0.1936  0.1945  0.2027
32244SOL    HW1 2568   2.203   3.173   4.934 -0.3151 -0.4457 -0.7839
32244SOL    HW2 2569   2.304   3.095   5.014 -1.0489 -1.6426 -1.0065
32245SOL     OW 2570   8.274   0.880   8.487  0.3288 -0.0568  0.9082
32245SOL    HW1 2571   8.221   0.920   8.556 -0.5124  1.4487 -0.5418
32245SOL    HW2 2572   8.260   0.785   8.498 -2.0558  0.2538  1.0749
32246SOL     OW 2573   9.370   3.698   8.312  0.1245 -0.3848  0.2464
32246SOL    HW1 2574   9.292   3.709   8.257 -0.7887 -1.7312  1.2027
32246SOL    HW2 2575   9.440   3.679   8.251 -1.2509 -3.8609 -0.4543
32247SOL     OW 2576   4.118   3.155   5.732  0.2508  0.0078  0.2547
32247SOL    HW1 2577   4.039   3.186   5.777  1.3805  1.6411  1.2352
32247SOL    HW2 2578   4.112   3.195   5.645 -1.0937 -1.7775 -0.5496
32248SOL     OW 2579  10.007   5.950   5.325  0.3065 -0.2630  0.2056
32248SOL    HW1 2580  10.096   5.974   5.299  0.2500  0.9782  1.0659
32248SOL    HW2 2581   9.973   6.028   5.369 -1.3215 -0.5991 -0.3745
32249SOL     OW 2582   8.871   3.240   3.610  1.0065 -0.0699 -0.0613
32249SOL    HW1 2583   8.916   3.158   3.586 -0.1009 -0.7324  0.0659
32249SOL    HW2 2584   8.891   3.300   3.538 -0.0036 -1.1684 -1.3085
32250SOL     OW 2585   0.679   0.468   9.970  0.1925 -0.3056  0.4192
32250SOL    HW1 2586   0.674   0.544   9.911 -0.1214  0.5009  1.4622
32250SOL    HW2 2587   0.707   0.396   9.913  1.1680  0.7308 -0.4588
32251SOL     OW 2588   1.295   5.936   5.754 -0.2921 -0.0759  0.0085
32251SOL    HW1 2589   1.340   5.985   5.822  0.3554  0.2692 -0.6450
32251SOL    HW2 2590   1.347   5.952   5.675 -1.4282  0.1208 -0.7249
32252SOL     OW 2591   0.074   9.260   0.266  0.6238  0.1945  0.3010
32252SOL    HW1 2592   0.048   9.170   0.283 -0.0859  0.6316  1.6297
32252SOL    HW2 2593  -0.006   9.311   0.278  1.3150  1.1560  0.9857
32253SOL     OW 2594  10.662   4.840   9.242  0.2460 -0.1933 -0.2848
32253SOL    HW1 2595  10.671   4.849   9.147  1.7671 -0.3840 -0.1915
32253SOL    HW2 2596  10.608   4.762   9.254 -1.9277  1.1377 -0.9789
32254SOL     OW 2597   0.113   0.099   0.135 -0.3716 -0.0557 -0.1193
32254SOL    HW1 2598   0.161   0.019   0.114 -4.0128 -2.7339  0.7280
32254SOL    HW2 2599   0.052   0.111   0.062 -0.9119  1.0919  0.4883
32255SOL     OW 2600   4.448   6.731   5.741  0.0200 -0.2890  0.1200
32255SOL    HW1 2601   4.439   6.684   5.824  0.5286 -1.3460 -0.3895
32255SOL    HW2 2602   4.539   6.714   5.714 -0.6277 -1.4660 -1.4949
32256SOL     OW 2603   5.028   8.806  10.528  0.0368  0.0043 -0.5447
32256SOL    HW1 2604   4.972   8.756  10.587 -0.3569 -0.0432 -0.9528
32256SOL    HW2 2605   5.060   8.879  10.581  0.4026 -0.5227 -0.0216
32257SOL     OW 2606   2.251   4.430   0.922  0.0520 -0.3053  0.0973
32257SOL    HW1 2607   2.315   4.455   0.989 -1.0597  1.9401  0.4441
32257SOL    HW2 2608   2.258   4.499   0.856 -0.3818 -1.3128 -1.0264
32258SOL     OW 2609   3.615   9.370   3.550  0.5203  0.2981 -0.1214
32258SOL    HW1 2610   3.545   9.396   3.490 -1.3234 -0.8477  1.3855
32258SOL    HW2 2611   3.659   9.298   3.504 -1.8559 -1.6357  0.3776
32259SOL     OW 2612   4.723   3.523   6.037  0.1790 -0.1292  0.4309
32259SOL    HW1 2613   4.721   3.439   5.991  0.3118 -0.0594  0.2948
32259SOL    HW2 2614   4.815   3.548   6.036  0.2853 -0.4408  1.3168
32260SOL     OW 2615   6.200   4.241   8.236 -0.3852 -0.7332  0.8425
32260SOL    HW1 2616   6.253   4.286   8.302 -0.4144 -0.4332  0.6622
32260SOL    HW2 2617   6.249   4.252   8.155 -1.1347  0.2728  0.5107
32261SOL     OW 2618   7.385   8.689   9.573  0.4762  0.7458 -0.4226
32261SOL    HW1 2619   7.374   8.710   9.480  0.0785 -0.6676 -0.7069
32261SOL    HW2 2620   7.327   8.615   9.588 -0.4736  1.7910  1.2795
32262SOL     OW 2621   6.352   0.508   2.630  0.1136 -0.1885 -0.1064
32262SOL    HW1 2622   6.405   0.459   2.567 -0.3490 -0.4543 -0.2890
32262SOL    HW2 2623   6.383   0.598   2.621 -0.1895 -0.1657 -0.9648
32263SOL     OW 2624   3.472   2.618   7.427 -0.5708 -0.1996 -0.1087
32263SOL    HW1 2625   3.428   2.643   7.345 -0.2403  0.7262 -0.0138
32263SOL    HW2 2626   3.463   2.695   7.483  3.8775  1.3512 -1.1574
32264SOL     OW 2627   7.046  10.445   1.073 -0.0172  0.1602 -0.0142
32264SOL    HW1 2628   7.121  10.503   1.057 -0.1369  0.8322  1.7156
32264SOL    HW2 2629   7.003  10.482   1.150 -1.3286 -1.0321 -0.1430
32265SOL     OW 2630   8.986   1.183   3.591  0.5265 -0.2003 -0.7027
32265SOL    HW1 2631   9.052   1.250   3.579 -0.6682  1.4806  1.3785
32265SOL    HW2 2632   8.903   1.228   3.576 -0.2508 -1.7902 -1.4401
32266SOL     OW 2633   8.053   2.956   3.379 -0.2380  0.5579  0.0831
32266SOL    HW1 2634   8.136   2.959   3.333 -0.1270 -0.7454  0.1632
32266SOL    HW2 2635   7.992   3.001   3.321  0.6682  2.2679  0.3964
32267SOL     OW 2636  10.335   7.515   1.001 -0.3113 -0.4778 -0.1817
32267SOL    HW1 2637  10.241   7.503   0.989 -0.7088  0.8483  1.2544
32267SOL    HW2 2638  10.375   7.479   0.922 -2.1120  0.1743 -1.4427
32268SOL     OW 2639   4.550   0.997  10.465  0.0206  0.1717  0.1172
32268SOL    HW1 2640   4.463   1.034  10.449  0.4040  0.6269 -1.0054
32268SOL    HW2 2641   4.556   0.924  10.403  0.0072 -0.6198  1.0092
32269SOL     OW 2642   4.134   4.478   2.327  0.3512 -0.3426 -0.1455
32269SOL    HW1 2643   4.080   4.406   2.295 -0.0965  0.1737 -0.5513
32269SOL    HW2 2644   4.078   4.527   2.387  0.7910 -0.5706  0.4713
32270SOL     OW 2645   3.514   4.758  10.192 -0.6761  0.7160 -0.8241
32270SOL    HW1 2646   3.545   4.848  10.200  0.7311  0.3646 -2.0063
32270SOL    HW2 2647   3.585   4.712  10.148 -0.7368 -1.3412  1.1109
32271SOL     OW 2648   7.670   4.886   4.674 -0.3173 -0.3009 -0.3398
32271SOL    HW1 2649   7.695   4.812   4.730  0.4272 -0.4737 -0.8740
32271SOL    HW2 2650   7.688   4.855   4.585  2.1779  1.2889 -0.4737
32272SOL     OW 2651   2.461   6.328   3.379  0.4291  0.0747  0.2442
32272SOL    HW1 2652   2.397   6.382   3.426 -0.5079  1.7398 -2.6733
32272SOL    HW2 2653   2.472   6.250   3.434 -0.1908  2.0105  3.3517
32273SOL     OW 2654   6.425  10.436  10.308 -0.4594  0.6585  0.1899
32273SOL    HW1 2655   6.378  10.463  10.228  1.3509  1.9651 -0.5013
32273SOL    HW2 2656   6.411  10.341  10.312 -2.9190  0.9329 -0.0856
32274SOL     OW 2657  10.230   5.380   2.903  1.0425 -0.0949 -0.0088
32274SOL    HW1 2658  10.205   5.408   2.815  0.4304  0.4281  0.3252
32274SOL    HW2 2659  10.312   5.426   2.920  0.9266  0.1535 -0.1250
32275SOL     OW 2660   0.687   9.985  10.484 -0.5058 -0.8270 -0.0126
32275SOL    HW1 2661   0.701  10.014  10.394  0.6455 -0.7634  0.1675
32275SOL    HW2 2662   0.608   9.932  10.481 -1.1433  0.1384 -0.8429
32276SOL     OW 2663   7.263   2.969   0.223 -0.0535 -0.5293 -0.3069
32276SOL    HW1 2664   7.225   3.048   0.186 -0.7419 -0.6491  0.1203
32276SOL    HW2 2665   7.189   2.909   0.234  0.0992 -0.4743  1.2888
32277SOL     OW 2666   8.765   3.595   5.617  0.5497  0.0578 -0.8129
32277SOL    HW1 2667   8.727   3.616   5.532 -1.4901  0.0679  0.0361
32277SOL    HW2 2668   8.828   3.665   5.633 -0.7944  1.4300 -1.2812
32278SOL     OW 2669   5.398   2.906   0.048 -0.2936  0.4029  0.1457
32278SOL    HW1 2670   5.388   2.928   0.141 -1.1998  0.7688 -0.0265
32278SOL    HW2 2671   5.415   2.989   0.005 -0.1998  0.2798 -0.0552
32279SOL     OW 2672   5.434   9.293   0.650 -0.2145 -0.3302  0.3842
32279SOL    HW1 2673   5.495   9.241   0.598  1.9380 -0.0259  2.4221
32279SOL    HW2 2674   5.427   9.376   0.602 -0.9352 -1.1996 -1.0845
32280SOL     OW 2675   9.353   7.045   2.886 -0.0441  0.5760  0.1157
32280SOL    HW1 2676   9.272   7.075   2.845  0.0931  0.1699 -0.4621
32280SOL    HW2 2677   9.377   6.966   2.837 -0.4903 -0.6081  1.7170
32281SOL     OW 2678   3.357   9.411   2.320 -0.1534 -0.3352 -0.5368
32281SOL    HW1 2679   3.333   9.499   2.291  0.7546 -0.3273 -1.2986
32281SOL    HW2 2680   3.300   9.394   2.395  0.2644  1.2573  0.1856
32282SOL     OW 2681   0.272   3.191   6.662 -0.3753  0.3717  0.0387
32282SOL    HW1 2682   0.255   3.188   6.756 -0.9525  1.2205 -0.0298
32282SOL    HW2 2683   0.197   3.239   6.626  0.2516  0.7750 -0.7548
32283SOL     OW 2684  10.001   8.369   9.211 -0.3220  0.0748 -0.7214
32283SOL    HW1 2685   9.984   8.287   9.166  2.2740 -0.1466 -1.4603
32283SOL    HW2 2686  10.096   8.370   9.224 -0.3497  2.6716 -0.1719
32284SOL     OW 2687   5.829   2.177   0.340  0.1619  0.2876  0.4793
32284SOL    HW1 2688   5.779   2.140   0.267 -1.3791 -0.3712  1.8105
32284SOL    HW2 2689   5.887   2.241   0.299 -0.0968 -0.6054 -1.4016
32285SOL     OW 2690   6.556   9.053   7.075  0.3780 -0.5958  0.2010
32285SOL    HW1 2691   6.621   8.982   7.072  1.5837  0.4706  0.5920
32285SOL    HW2 2692   6.507   9.038   7.156  1.9922  0.1614  1.3603
32286SOL     OW 2693   5.915   1.503   2.021  0.3205 -0.4569  0.7557
32286SOL    HW1 2694   5.950   1.529   1.935 -0.9219  0.9727  0.6313
32286SOL    HW2 2695   5.841   1.562   2.035 -0.3067 -1.5377  2.2424
32287SOL     OW 2696   0.738   4.281   1.684  0.3941 -0.2153  0.0428
32287SOL    HW1 2697   0.708   4.353   1.630  0.0006  0.5855  1.2859
32287SOL    HW2 2698   0.660   4.227   1.699  0.7122 -1.0049 -0.9896
32288SOL     OW 2699   8.290   3.412   0.978 -0.9439  0.3907 -0.2073
32288SOL    HW1 2700   8.249   3.380   1.059  1.7748 -0.1122  1.0659
32288SOL    HW2 2701   8.374   3.446   1.006 -0.5438  1.6066 -2.6697
32289SOL     OW 2702   0.900   4.910   9.229  0.3417 -0.6732 -0.3314
32289SOL    HW1 2703   0.879   4.989   9.180  1.2098 -1.0841 -1.3947
32289SOL    HW2 2704   0.834   4.907   9.298  0.1321  0.8330 -0.4205
32290SOL     OW 2705   5.045   6.501  10.345 -0.1751  0.2092  0.1839
32290SOL    HW1 2706   5.077   6.421  10.386  1.9251  1.2894  0.7679
32290SOL    HW2 2707   4.968   6.525  10.397  0.4281 -0.2935  1.3330
32291SOL     OW 2708   0.456   2.128   2.374 -0.9284 -0.6082  0.2627
32291SOL    HW1 2709   0.480   2.185   2.447  2.0928  2.3542 -2.6922
32291SOL    HW2 2710   0.375   2.165   2.340 -0.6202  0.0225  0.2041
32292SOL     OW 2711   1.881   4.581   9.070  0.4291 -0.1949  0.0237
32292SOL    HW1 2712   1.957   4.606   9.123  1.6219 -0.5563 -1.4749
32292SOL    HW2 2713   1.841   4.510   9.120 -0.7840  1.9692  2.3932
32293SOL     OW 2714   4.525   1.024   6.480  0.4903  0.8130 -0.5833
32293SOL    HW1 2715   4.467   0.952   6.456 -0.0598  1.3904 -1.0475
32293SOL    HW2 2716   4.603   1.012   6.425  0.0390  1.0510 -1.2864
32294SOL     OW 2717   6.776   0.467   6.276  0.1402 -0.0094 -0.4027
32294SOL    HW1 2718   6.715   0.394   6.261 -1.4747  1.3092 -0.5981
32294SOL    HW2 2719   6.781   0.474   6.372 -3.3173  2.3356 -0.2030
32295SOL     OW 2720   7.936   7.341   4.249  0.2396 -0.7132 -0.1515
32295SOL    HW1 2721   7.906   7.253   4.272  0.2825 -0.9928 -1.1154
32295SOL    HW2 2722   7.930   7.344   4.153 -1.3290  0.8947 -0.0556
32296SOL     OW 2723   8.568   6.446   3.003 -0.1015 -0.1284  0.7591
32296SOL    HW1 2724   8.649   6.421   3.048 -0.4241 -2.2106  0.2622
32296SOL    HW2 2725   8.586   6.431   2.910 -0.0334  2.4571  0.2720
32297SOL     OW 2726   9.012   2.448   1.928 -0.0646 -0.2365  0.3448
32297SOL    HW1 2727   9.029   2.536   1.895 -1.8503  0.6023  1.5111
32297SOL    HW2 2728   8.932   2.420   1.882  0.7224 -1.4596 -0.3435
32298SOL     OW 2729   9.250   1.013   5.318 -0.3662  0.0070  0.2143
32298SOL    HW1 2730   9.307   1.088   5.301 -1.2336  0.2997 -1.6624
32298SOL    HW2 2731   9.264   0.993   5.410  0.4925  1.9707  0.5714
32299SOL     OW 2732   3.193   5.047   7.506 -0.0826 -0.7309 -0.3816
32299SOL    HW1 2733   3.258   5.116   7.515 -1.9299  1.2722 -1.3541
32299SOL    HW2 2734   3.131   5.063   7.577  0.0090 -2.0726  0.0255
32300SOL     OW 2735   5.603  10.227   5.802 -0.4739  0.1332 -0.5399
32300SOL    HW1 2736   5.687  10.253   5.764 -1.1351  0.7753 -1.6183
32300SOL    HW2 2737   5.588  10.290   5.873 -0.4282  0.5533 -0.8966
32301SOL     OW 2738   5.916   5.932   6.580 -0.1047  0.8455  0.0513
32301SOL    HW1 2739   5.965   6.010   6.556  2.7525 -0.3119  1.7030
32301SOL    HW2 2740   5.918   5.930   6.675 -0.2238 -1.1682  0.0537
32302SOL     OW 2741   9.380   2.941   8.336  0.1054 -0.6658  0.1293
32302SOL    HW1 2742   9.472   2.918   8.332  0.3773  0.3359  0.3389
32302SOL    HW2 2743   9.366   2.970   8.427  0.2414  1.7217 -0.5522
32303SOL     OW 2744   3.663   9.889   0.491  0.2211 -0.0432  0.4728
32303SOL    HW1 2745   3.626   9.814   0.445 -1.0951  0.0975  1.2567
32303SOL    HW2 2746   3.669   9.860   0.582  1.0752  0.3114  0.5334
32304SOL     OW 2747   7.436   4.296   4.218  0.3210  0.2169  0.0210
32304SOL    HW1 2748   7.345   4.267   4.204  0.2469 -0.1207  1.1007
32304SOL    HW2 2749   7.429   4.390   4.235  0.1142  0.0996  0.6012
32305SOL     OW 2750   0.748   9.497   8.215  0.0658 -0.0359  0.7026
32305SOL    HW1 2751   0.662   9.495   8.257 -0.2565 -0.1459  0.0625
32305SOL    HW2 2752   0.801   9.434   8.264 -1.1049 -2.2538 -0.6909
32306SOL     OW 2753   4.913   3.288   9.620 -0.1811 -0.1426  0.3485
32306SOL    HW1 2754   4.846   3.356   9.611 -1.2780 -1.1433  0.5695
32306SOL    HW2 2755   4.872   3.210   9.580  0.4641 -1.0227  1.3590
32307SOL     OW 2756   7.116   2.711   8.044 -0.2581  0.6157 -0.0135
32307SOL    HW1 2757   7.023   2.690   8.056 -0.2698  0.6805  0.0093
32307SOL    HW2 2758   7.119   2.806   8.048 -0.1003  0.5865  0.6446
32308SOL     OW 2759   8.394   3.545   1.451  0.0874 -0.3300  0.4751
32308SOL    HW1 2760   8.362   3.597   1.524 -0.1907 -0.4439  0.4365
32308SOL    HW2 2761   8.489   3.559   1.451  0.1445 -0.6703  1.1206
32309SOL     OW 2762   4.807   9.814   7.941 -0.2239 -0.1023 -0.9528
32309SOL    HW1 2763   4.810   9.758   7.863 -0.8781  0.3499 -1.3136
32309SOL    HW2 2764   4.724   9.790   7.983 -0.8096  1.0157 -1.4392
32310SOL     OW 2765   0.018   4.336   7.056  0.4762 -0.1033 -0.4313
32310SOL    HW1 2766   0.092   4.348   6.997  0.5386 -2.1278 -0.8385
32310SOL    HW2 2767  -0.051   4.298   7.002 -0.5823  0.8880  0.1502
32311SOL     OW 2768   6.278  10.825   3.800 -0.2782  0.2472  0.0510
32311SOL    HW1 2769   6.322  10.906   3.774  0.3141  0.1795  0.8082
32311SOL    HW2 2770   6.267  10.777   3.718  0.8359  0.3819 -0.1908
32312SOL     OW 2771   6.018   0.198   3.699 -0.2082  0.3038  0.4491
32312SOL    HW1 2772   6.077   0.268   3.727 -1.7601  0.9078  2.4038
32312SOL    HW2 2773   6.076   0.132   3.661  1.3580  2.3773 -0.9782
32313SOL     OW 2774   6.466   9.217   5.180  0.7896 -0.5250 -0.4421
32313SOL    HW1 2775   6.387   9.266   5.159  1.5906  1.5115  0.9191
32313SOL    HW2 2776   6.512   9.207   5.097 -0.6094 -1.3103 -1.1650
32314SOL     OW 2777  10.193   4.860   0.683  0.0798  0.1345  0.4726
32314SOL    HW1 2778  10.284   4.875   0.659 -0.4721  1.0727 -1.1646
32314SOL    HW2 2779  10.158   4.948   0.699 -1.3790  0.1359 -2.2493
32315SOL     OW 2780   1.718   8.078   6.049 -0.0505 -0.1130 -0.1847
32315SOL    HW1 2781   1.642   8.135   6.039  0.9084  1.1689 -0.4046
32315SOL    HW2 2782   1.742   8.086   6.141 -0.7319 -1.2715  0.1135
32316SOL     OW 2783   2.889   3.371   7.729 -0.0575 -0.2956 -0.2731
32316SOL    HW1 2784   2.874   3.465   7.730  1.2136 -0.0276 -1.9769
32316SOL    HW2 2785   2.914   3.350   7.819 -1.7554  0.6963  0.4881
32317SOL     OW 2786   2.865   6.899   9.151  0.6062 -0.1420 -0.7465
32317SOL    HW1 2787   2.952   6.873   9.181  0.9186 -1.8097 -2.8610
32317SOL    HW2 2788   2.878   6.925   9.060 -1.1323 -0.6068 -1.1683
32318SOL     OW 2789  10.882   0.983   7.818 -0.3204 -0.2282 -0.3408
32318SOL    HW1 2790  10.851   1.002   7.730  2.0441  0.4903 -1.1125
32318SOL    HW2 2791  10.926   0.898   7.810 -1.5988 -1.0089  0.5931
32319SOL     OW 2792   4.591   4.219   5.422  0.3844  0.2656 -0.1669
32319SOL    HW1 2793   4.597   4.220   5.327 -0.0001  1.0341 -0.1848
32319SOL    HW2 2794   4.665   4.272   5.451  0.9040 -0.5304 -0.0101
32320SOL     OW 2795   4.505   6.643   7.609  0.8487  0.3648  0.4047
32320SOL    HW1 2796   4.520   6.674   7.520 -0.7168 -0.8246 -0.3386
32320SOL    HW2 2797   4.497   6.723   7.661  1.5009  1.0934 -0.5750
32321SOL     OW 2798   1.193   1.803   7.343  0.2266 -0.2807  0.2324
32321SOL    HW1 2799   1.222   1.823   7.432 -0.0033 -2.1810  0.7701
32321SOL    HW2 2800   1.235   1.720   7.322 -1.7762 -1.1959 -0.4095
32322SOL     OW 2801   0.739   0.542   7.688  0.0505 -0.3459  0.7915
32322SOL    HW1 2802   0.808   0.592   7.732 -0.5753 -0.2770  1.7089
32322SOL    HW2 2803   0.660   0.594   7.700  0.0092  0.1483 -1.2408
32323SOL     OW 2804   8.376   6.690   8.477  0.0784  0.5828  0.0600
32323SOL    HW1 2805   8.408   6.619   8.423  0.1250 -0.1228  0.9875
32323SOL    HW2 2806   8.306   6.651   8.529  0.9390  0.8733  1.4822
32324SOL     OW 2807   1.271   7.270   9.604 -0.7864 -0.3676  0.1976
32324SOL    HW1 2808   1.332   7.302   9.537 -1.3122 -2.9325 -1.6692
32324SOL    HW2 2809   1.204   7.339   9.611 -0.3501  0.2698 -1.4544
32325SOL     OW 2810   8.435   4.632   4.041  0.2332 -0.1191 -0.4793
32325SOL    HW1 2811   8.435   4.576   4.119 -0.5033  0.3387 -0.1306
32325SOL    HW2 2812   8.517   4.680   4.046 -1.4420  2.9257  2.3316
32326SOL     OW 2813   2.080   9.872   7.150 -0.6262 -1.0027  0.3958
32326SOL    HW1 2814   2.070   9.847   7.242  0.9077 -0.6658  0.6830
32326SOL    HW2 2815   2.163   9.832   7.123 -0.7613 -0.5972 -0.6664
32327SOL     OW 2816   4.339   0.074   1.872 -0.0021  0.5575  0.1703
32327SOL    HW1 2817   4.259   0.120   1.897 -1.6196 -1.4944 -0.8866
32327SOL    HW2 2818   4.341  -0.003   1.930 -0.6418 -1.1293 -1.9015
32328SOL     OW 2819   7.592   3.469  10.888  0.0238 -0.6640  0.3517
32328SOL    HW1 2820   7.603   3.563  10.876 -1.0871 -0.5560  0.1084
32328SOL    HW2 2821   7.540   3.460  10.967  0.4951 -1.0990  0.6236
32329SOL     OW 2822   9.007   5.849   8.251 -0.4988 -0.4640  0.4871
32329SOL    HW1 2823   9.021   5.897   8.333  1.9087 -2.5399  1.4079
32329SOL    HW2 2824   8.918   5.815   8.258 -0.1759 -1.0301  2.5127
32330SOL     OW 2825   8.170   7.667   8.318 -0.1072 -0.5724 -0.2332
32330SOL    HW1 2826   8.243   7.712   8.359 -0.0930 -0.2959 -0.5560
32330SOL    HW2 2827   8.092   7.700   8.362  0.0124 -1.6271  0.8264
32331SOL     OW 2828   3.201   8.657   9.751 -0.2565 -0.6442 -0.5857
32331SOL    HW1 2829   3.133   8.598   9.785  1.0580 -0.7380  2.2102
32331SOL    HW2 2830   3.240   8.608   9.678  0.6475 -3.2892  1.4890
32332SOL     OW 2831   4.128   7.532   0.591 -0.4211  0.7522  0.3668
32332SOL    HW1 2832   4.203   7.590   0.607  0.0178 -0.1238  1.6863
32332SOL    HW2 2833   4.139   7.461   0.654 -0.7821 -0.9504 -1.4183
32333SOL     OW 2834   6.767   5.353   5.186  0.2631  0.8750 -0.7725
32333SOL    HW1 2835   6.753   5.433   5.135  1.7434  2.7259  1.4807
32333SOL    HW2 2836   6.679   5.325   5.210 -0.3121  1.6070 -1.9088
32334SOL     OW 2837   1.265   5.945   8.022 -0.3025  0.4852 -0.5728
32334SOL    HW1 2838   1.258   5.923   7.929 -3.0193  0.7986 -0.5332
32334SOL    HW2 2839   1.210   6.023   8.032  0.6024  0.9430  1.1583
32335SOL     OW 2840   7.094   5.088   7.075  0.2611 -0.4667 -0.1824
32335SOL    HW1 2841   7.032   5.098   7.003  1.1394  0.9174 -0.7867
32335SOL    HW2 2842   7.069   5.156   7.138 -0.8054 -1.9766  1.0948
32336SOL     OW 2843   1.410  10.652   6.101  0.0819 -0.3458  0.0418
32336SOL    HW1 2844   1.358  10.661   6.180 -1.8033  0.7916 -1.2370
32336SOL    HW2 2845   1.363  10.588   6.048  0.6623 -0.2296 -0.6314
32337SOL     OW 2846   9.416  10.719   2.363  0.4873  0.4423  0.3538
32337SOL    HW1 2847   9.509  10.706   2.345  0.2494 -1.0884  0.0706
32337SOL    HW2 2848   9.380  10.757   2.283  0.7812  0.6237  0.3071
32338SOL     OW 2849   0.038  10.085   1.607 -0.8079 -0.0438  0.8580
32338SOL    HW1 2850   0.123  10.040   1.605 -0.0929  1.2678  0.0316
32338SOL    HW2 2851   0.003  10.074   1.519 -0.7007  0.8419  0.6964
32339SOL     OW 2852   7.237   4.038   2.508 -0.0984  0.3757 -0.1915
32339SOL    HW1 2853   7.229   4.131   2.530 -0.6779  0.4416 -0.6519
32339SOL    HW2 2854   7.148   4.013   2.481 -0.5220 -0.8874  2.1570
32340SOL     OW 2855   2.532   8.735   5.439  0.2145 -0.1557 -0.3748
32340SOL    HW1 2856   2.614   8.699   5.472  0.1348  0.4212  0.4688
32340SOL    HW2 2857   2.476   8.742   5.516 -0.2288  0.5446 -0.7507
32341SOL     OW 2858   3.931  10.702   0.173  0.2538  0.1377 -0.2193
32341SOL    HW1 2859   3.941  10.612   0.206  1.0496  0.9019  1.7759
32341SOL    HW2 2860   3.875  10.693   0.096  0.6841 -2.1181 -0.3465
32342SOL     OW 2861   3.855   4.111   1.071  0.0650  0.3781 -0.3524
32342SOL    HW1 2862   3.854   4.173   1.144  1.7116 -0.7971  0.7262
32342SOL    HW2 2863   3.789   4.046   1.094  0.0778  0.3972 -0.2612
32343SOL     OW 2864   5.968   5.925   9.956  0.1997  0.3105 -0.0202
32343SOL    HW1 2865   5.967   6.010  10.000  1.6294  0.4857 -0.2851
32343SOL    HW2 2866   6.047   5.927   9.903  0.3247 -1.2394  0.0760
32344SOL     OW 2867   3.746   1.324   6.074  0.8669  0.1161 -0.2078
32344SOL    HW1 2868   3.766   1.231   6.089  0.1697 -0.0002  0.0501
32344SOL    HW2 2869   3.670   1.322   6.016 -0.0894  0.5008  1.0012
32345SOL     OW 2870   9.157   6.606   3.376  0.5397  0.0192  0.1113
32345SOL    HW1 2871   9.116   6.606   3.462  1.7517 -0.1611  0.7095
32345SOL    HW2 2872   9.245   6.570   3.391  0.3950 -1.0519 -1.3808
32346SOL     OW 2873   4.852   6.280   7.732 -0.0244 -0.4669 -0.3854
32346SOL    HW1 2874   4.811   6.255   7.815 -0.8485 -0.2084 -0.7014
32346SOL    HW2 2875   4.779   6.311   7.678  0.1631 -2.5171 -1.9462
32347SOL     OW 2876   9.371   3.057   9.955 -0.2051 -0.3457  0.0517
32347SOL    HW1 2877   9.339   2.990  10.015  0.1784  0.4494  1.1776
32347SOL    HW2 2878   9.467   3.056   9.966 -0.2100  0.5921  0.3549
32348SOL     OW 2879   1.266   1.344   0.408  0.3674 -0.3887  0.1229
32348SOL    HW1 2880   1.333   1.412   0.400  1.0774 -1.2214 -1.3856
32348SOL    HW2 2881   1.311   1.269   0.447  0.3046 -0.9043 -0.7645
32349SOL     OW 2882   4.639   7.193   5.194  0.3391 -0.4576 -0.2972
32349SOL    HW1 2883   4.684   7.117   5.231 -0.6070 -0.1659  1.5919
32349SOL    HW2 2884   4.637   7.257   5.266 -1.8451  0.0445 -0.7259
32350SOL     OW 2885   1.143   4.864   6.242 -0.1968 -0.3836 -0.1111
32350SOL    HW1 2886   1.207   4.921   6.285  0.5548 -1.5441  0.3421
32350SOL    HW2 2887   1.127   4.907   6.158  1.7398 -0.4145 -0.5536
32351SOL     OW 2888   9.334   7.714   1.486 -0.0144  0.1229 -0.5252
32351SOL    HW1 2889   9.327   7.734   1.579  2.3740 -1.5067  0.1162
32351SOL    HW2 2890   9.304   7.793   1.442  0.6492  1.6852  1.6598
32352SOL     OW 2891   5.984   3.255   5.716  0.3655 -0.1549 -0.5243
32352SOL    HW1 2892   6.079   3.262   5.725  0.4014  0.2971 -1.1609
32352SOL    HW2 2893   5.949   3.297   5.794  0.6815 -0.0795 -0.4213
32353SOL     OW 2894   3.912   8.117   0.702 -0.1681 -0.0495  0.3914
32353SOL    HW1 2895   3.973   8.078   0.765  1.1159 -0.3476 -0.9817
32353SOL    HW2 2896   3.858   8.043   0.673 -0.0903 -0.1070  0.3937
32354SOL     OW 2897   9.966   6.842   4.446  0.1797  0.6863 -0.1822
32354SOL    HW1 2898   9.961   6.788   4.525 -0.3570 -0.2492 -0.8349
32354SOL    HW2 2899  10.026   6.796   4.388  0.4946  1.3150 -0.3688
32355SOL     OW 2900   3.186   5.359   3.673  0.2859  0.5389 -0.0976
32355SOL    HW1 2901   3.140   5.284   3.711 -0.2889  1.3811  0.9371
32355SOL    HW2 2902   3.122   5.401   3.616  0.6416  0.1918 -0.7641
32356SOL     OW 2903   4.655   2.191   7.182  0.0908  0.2125 -0.4588
32356SOL    HW1 2904   4.737   2.144   7.166  1.4170  2.3029 -0.2225
32356SOL    HW2 2905   4.631   2.229   7.098  0.1304  0.7265 -0.2463
32357SOL     OW 2906   8.241   3.577   6.583 -0.5907 -0.5533 -0.0224
32357SOL    HW1 2907   8.287   3.522   6.647 -0.7333 -1.5025 -0.7199
32357SOL    HW2 2908   8.253   3.532   6.500 -0.5890  0.5579 -0.6419
32358SOL     OW 2909   1.400  10.767   5.195  0.3290 -0.9069  0.0807
32358SOL    HW1 2910   1.421  10.716   5.117 -0.8154 -1.1872 -0.0486
32358SOL    HW2 2911   1.310  10.745   5.216  0.4259 -0.3774  1.1412
32359SOL     OW 2912   9.937   5.846   6.722  0.0908  0.0473  0.1778
32359SOL    HW1 2913   9.991   5.806   6.791  1.5765 -3.4438 -2.6661
32359SOL    HW2 2914   9.859   5.791   6.718  1.0187 -1.2339 -2.2020
32360SOL     OW 2915   0.095   7.063   0.591 -0.0017 -0.0046  0.0899
32360SOL    HW1 2916   0.042   6.990   0.560  1.0799  0.3133 -2.8375
32360SOL    HW2 2917   0.033   7.118   0.640 -1.0991 -2.1943  1.3426
32361SOL     OW 2918   7.219   3.351   0.469 -0.7794  0.1187  0.0017
32361SOL    HW1 2919   7.314   3.345   0.473 -0.8545 -0.9147  0.5540
32361SOL    HW2 2920   7.191   3.267   0.433 -1.4000  1.0919 -1.9189
32362SOL     OW 2921   1.678   3.801   6.231  0.1303 -0.3235  0.8007
32362SOL    HW1 2922   1.714   3.855   6.160 -1.7558 -0.0248  0.0087
32362SOL    HW2 2923   1.658   3.864   6.301 -2.3003  0.1486 -0.2163
32363SOL     OW 2924   5.381   4.450   3.622 -0.5775  0.5118 -0.0144
32363SOL    HW1 2925   5.365   4.479   3.532  2.7045  1.1038 -0.5484
32363SOL    HW2 2926   5.424   4.365   3.612  0.0432  0.6967  0.9568
32364SOL     OW 2927   4.336  10.676   3.077  0.6803  0.3219 -0.1276
32364SOL    HW1 2928   4.296  10.697   3.161 -0.4548 -0.6797 -0.3910
32364SOL    HW2 2929   4.286  10.728   3.013 -1.5782 -2.3370 -0.6835
32365SOL     OW 2930   4.245   5.253   8.347 -0.2152 -0.2761  0.0262
32365SOL    HW1 2931   4.214   5.323   8.405  0.6874 -0.5896  0.9187
32365SOL    HW2 2932   4.295   5.195   8.404  0.1708 -0.9397 -0.9565
32366SOL     OW 2933   4.923   5.816  10.284  0.3810  0.0830 -0.0459
32366SOL    HW1 2934   4.918   5.875  10.359 -2.1609  0.2208 -0.2318
32366SOL    HW2 2935   5.015   5.818  10.257  0.9537  1.5508  1.8365
32367SOL     OW 2936   4.873   6.766   7.298  0.5460 -0.8818 -0.2055
32367SOL    HW1 2937   4.864   6.844   7.353 -0.2590 -0.7162 -0.5641
32367SOL    HW2 2938   4.963   6.770   7.266  0.8887 -0.7506  0.7447
32368SOL     OW 2939   7.525   5.228   7.363  0.0382  0.0923 -0.1345
32368SOL    HW1 2940   7.543   5.154   7.305 -1.1624  0.4732 -1.0451
32368SOL    HW2 2941   7.612   5.261   7.388  0.5957 -0.2965 -1.4574
32369SOL     OW 2942   3.190   2.757   8.624 -0.3026 -0.4673  0.2532
32369SOL    HW1 2943   3.128   2.700   8.671 -0.7438 -0.4112 -0.2583
32369SOL    HW2 2944   3.239   2.800   8.694 -1.8702  0.6510  0.7226
32370SOL     OW 2945  10.286   3.354   0.751 -0.2249  0.0605  0.1073
32370SOL    HW1 2946  10.346   3.390   0.686 -0.0828 -0.5142 -0.0789
32370SOL    HW2 2947  10.254   3.431   0.798 -0.1888  0.4646 -0.5167
32371SOL     OW 2948   0.740   1.550   5.633 -0.0400  0.0386  0.4172
32371SOL    HW1 2949   0.734   1.456   5.652  0.8943 -0.2930 -0.8245
32371SOL    HW2 2950   0.775   1.555   5.544 -1.5479  1.5536 -0.1418
32372SOL     OW 2951   4.875   7.638   9.779 -0.2096 -0.7642  0.3457
32372SOL    HW1 2952   4.820   7.619   9.856 -0.1893 -0.7669  0.3595
32372SOL    HW2 2953   4.838   7.719   9.743  0.3417 -0.2513  0.8915
32373SOL     OW 2954   1.879   8.317   6.339 -0.3427 -0.1349  0.1723
32373SOL    HW1 2955   1.818   8.345   6.271 -0.7144 -2.5811 -0.6275
32373SOL    HW2 2956   1.832   8.331   6.421 -1.0279  0.2466 -0.2746
32374SOL     OW 2957   5.253   3.932   6.607  0.1546 -0.6638 -0.0404
32374SOL    HW1 2958   5.311   3.974   6.545 -1.2169 -0.1894 -1.0640
32374SOL    HW2 2959   5.273   3.839   6.600  1.9203 -0.3756  0.8666
32375SOL     OW 2960   9.322   4.449  10.830 -0.0765  0.1257 -0.6791
32375SOL    HW1 2961   9.250   4.498  10.791 -0.3379  0.8157  0.6105
32375SOL    HW2 2962   9.398   4.506  10.822  0.3833 -0.6584 -2.1619
32376SOL     OW 2963   0.803   3.200   3.044  0.5601  0.2423  0.0694
32376SOL    HW1 2964   0.774   3.235   3.128 -1.2967  0.9683 -0.8151
32376SOL    HW2 2965   0.805   3.105   3.058 -1.8274  0.1774  0.3752
32377SOL     OW 2966   8.465   0.757   6.335  0.1369 -0.3476 -0.1230
32377SOL    HW1 2967   8.491   0.665   6.344  0.4624 -0.1806  0.7198
32377SOL    HW2 2968   8.422   0.761   6.250  0.5439 -1.1801 -0.3808
32378SOL     OW 2969   9.334   1.416  10.010  0.3634 -0.4117 -0.2732
32378SOL    HW1 2970   9.400   1.347  10.006  0.2945 -0.4633 -0.5620
32378SOL    HW2 2971   9.250   1.370  10.005  0.2712 -0.4246  1.1074
32379SOL     OW 2972  10.582   9.912   7.166 -0.5364 -0.6002 -0.0946
32379SOL    HW1 2973  10.616   9.964   7.094  1.5668 -2.5207 -0.5871
32379SOL    HW2 2974  10.627   9.945   7.243 -0.4228 -0.6127 -0.1554
32380SOL     OW 2975   2.256   2.125   3.873 -0.4843  0.6183 -0.0241
32380SOL    HW1 2976   2.237   2.183   3.946  0.8969 -0.4363  1.2294
32380SOL    HW2 2977   2.292   2.183   3.805 -1.3164  1.5323  0.2994
32381SOL     OW 2978   7.713   9.004   0.221 -0.1476  0.0101  0.6919
32381SOL    HW1 2979   7.726   9.055   0.141 -0.7554  0.4673  0.8784
32381SOL    HW2 2980   7.798   8.964   0.238 -0.0317 -0.1548 -0.2270
32382SOL     OW 2981   4.075   9.402   3.582  0.2799 -0.3617  0.9183
32382SOL    HW1 2982   4.007   9.400   3.649 -2.5152  0.3533 -1.6786
32382SOL    HW2 2983   4.074   9.492   3.550  2.6755 -0.2812  0.9162
32383SOL     OW 2984   1.829   5.542   9.409  0.1004 -0.3576  0.6012
32383SOL    HW1 2985   1.734   5.530   9.407  0.0828 -0.1837  0.3528
32383SOL    HW2 2986   1.864   5.463   9.369 -0.0671  0.9348 -2.3663
32384SOL     OW 2987   1.622   4.230   5.339 -0.2597  0.4223  0.0478
32384SOL    HW1 2988   1.669   4.305   5.304 -0.2410  1.3906  2.0093
32384SOL    HW2 2989   1.542   4.225   5.287 -1.2520  3.1304  1.1345
32385SOL     OW 2990   5.626   0.514   5.521 -0.8228 -0.7462  0.0033
32385SOL    HW1 2991   5.631   0.419   5.512 -0.1649 -0.6337 -0.8536
32385SOL    HW2 2992   5.563   0.541   5.454 -0.9702 -0.5639  0.2121
32386SOL     OW 2993   4.086   0.913   9.433  0.0052  0.0632  0.9334
32386SOL    HW1 2994   4.149   0.855   9.391  0.8223  1.3078  0.3715
32386SOL    HW2 2995   4.058   0.972   9.363 -2.0917 -0.6804  1.0845
32387SOL     OW 2996   0.101   3.195   6.201  0.1057  0.6391  0.0438
32387SOL    HW1 2997   0.056   3.249   6.136  0.8716  0.1730 -0.8994
32387SOL    HW2 2998   0.030   3.163   6.258 -0.4460  1.9580  0.1456
32388SOL     OW 2999   1.879   4.803   6.145 -0.0572  0.1871  0.0328
32388SOL    HW1 3000   1.833   4.883   6.119  1.4037  0.6892 -1.1056
32388SOL    HW2 3001   1.813   4.752   6.192 -1.3127  1.5847 -0.1427
32389SOL     OW 3002   6.772   0.172   1.907  0.1812  0.2472 -0.6938
32389SOL    HW1 3003   6.717   0.107   1.949  1.6896  0.3388  1.6156
32389SOL    HW2 3004   6.728   0.256   1.924  0.4646  0.2212  0.1894
32390SOL     OW 3005   4.673   9.651   0.622 -0.6953  0.5112  0.1158
32390SOL    HW1 3006   4.590   9.662   0.669 -0.7952  0.6397 -0.0921
32390SOL    HW2 3007   4.683   9.731   0.571  1.7844  2.7508  3.6071
32391SOL     OW 3008   9.437  10.860   0.644  0.2183  0.0948  0.1084
32391SOL    HW1 3009   9.525  10.878   0.612  0.5780 -0.2567  0.8826
32391SOL    HW2 3010   9.392  10.945   0.642  0.2773  0.1156 -1.1475
32392SOL     OW 3011   0.404   3.893   5.657 -0.4132 -0.1663 -0.1005
32392SOL    HW1 3012   0.464   3.841   5.603 -0.9145 -1.7542  0.7918
32392SOL    HW2 3013   0.434   3.983   5.648  0.2438 -0.5477 -2.0488
32393SOL     OW 3014   2.492   0.816   2.637  0.5527 -0.3198 -0.5477
32393SOL    HW1 3015   2.519   0.807   2.546  1.0532 -0.0781 -0.4269
32393SOL    HW2 3016   2.426   0.885   2.636  0.3066 -0.5582 -0.7758
32394SOL     OW 3017   1.645   2.880   3.284 -0.1659  0.5838 -0.5482
32394SOL    HW1 3018   1.628   2.788   3.301 -0.8018  0.7678 -0.1348
32394SOL    HW2 3019   1.718   2.881   3.222  0.8336 -0.1520  0.5945
32395SOL     OW 3020   2.981   7.807   0.909  0.3077  0.9114  0.3157
32395SOL    HW1 3021   2.953   7.716   0.922  0.9838  0.5614 -0.5483
32395SOL    HW2 3022   2.953   7.853   0.988 -1.5439  0.3228  0.0507
32396SOL     OW 3023  10.467   6.510   2.354  0.0506  0.1169 -0.2525
32396SOL    HW1 3024  10.535   6.539   2.415  3.3284 -1.0907 -3.0404
32396SOL    HW2 3025  10.472   6.415   2.356 -0.9336  0.0243 -1.2369
32397SOL     OW 3026   6.740   8.384   8.961  0.3216  0.0481 -0.1711
32397SOL    HW1 3027   6.686   8.311   8.930 -0.1251  1.2859 -2.4755
32397SOL    HW2 3028   6.827   8.367   8.923  0.1523  0.8274 -0.9178
32398SOL     OW 3029   2.397   2.155   9.409 -0.3022  0.2285  0.2337
32398SOL    HW1 3030   2.437   2.110   9.334  0.5610  0.3037  0.6284
32398SOL    HW2 3031   2.410   2.248   9.391  1.9505  0.2329  1.4897
32399SOL     OW 3032  10.280   3.329   6.330  0.2930  0.2363 -0.3089
32399SOL    HW1 3033  10.186   3.322   6.344  0.2658  1.3096  0.1612
32399SOL    HW2 3034  10.316   3.346   6.417  0.6282  2.3959 -0.8039
32400SOL     OW 3035   5.275   7.583   1.283 -0.0229 -0.1330 -0.9619
32400SOL    HW1 3036   5.287   7.621   1.196  1.5704  3.1078  0.5325
32400SOL    HW2 3037   5.183   7.598   1.304 -0.5358 -1.3479 -2.1902
32401SOL     OW 3038   3.164   6.074   8.925  0.0900  0.2743 -0.4522
32401SOL    HW1 3039   3.184   6.038   9.012  0.1755  1.1256 -0.1136
32401SOL    HW2 3040   3.095   6.138   8.940 -0.9874 -0.6623 -1.2439
32402SOL     OW 3041   7.445   9.402   4.466 -0.4988  0.1511 -0.0447
32402SOL    HW1 3042   7.405   9.460   4.402 -1.1052 -1.0541 -0.7981
32402SOL    HW2 3043   7.425   9.314   4.434  1.2431 -0.4890  0.5020
32403SOL     OW 3044   3.088   1.056   7.637  0.5973  0.2074  0.2914
32403SOL    HW1 3045   3.080   1.046   7.732 -0.7158 -0.6044  0.1154
32403SOL    HW2 3046   3.056   0.973   7.601 -2.1305  1.6589 -0.9565
32404SOL     OW 3047   8.817   5.097   1.235 -0.0404  0.0159  0.3410
32404SOL    HW1 3048   8.898   5.063   1.197  0.2868  1.3568 -0.2066
32404SOL    HW2 3049   8.829   5.086   1.330  0.5301 -0.3324  0.2368
32405SOL     OW 3050   9.245   7.538   1.279 -0.5578 -0.3664  0.3714
32405SOL    HW1 3051   9.295   7.457   1.285 -1.1112 -0.6381  1.6128
32405SOL    HW2 3052   9.290   7.599   1.337  0.3832  0.5449 -1.2282
32406SOL     OW 3053  10.817   2.478   4.753  0.2998  0.1924  0.0062
32406SOL    HW1 3054  10.876   2.426   4.807 -0.9989 -2.2963 -0.8086
32406SOL    HW2 3055  10.813   2.430   4.670 -2.1503  0.7297 -0.2508
32407SOL     OW 3056   4.133   7.747   7.314  0.4662 -0.2507  0.4960
32407SOL    HW1 3057   4.160   7.656   7.326  1.6359  0.2326  1.8040
32407SOL    HW2 3058   4.074   7.764   7.387  0.7382  0.2086  0.6124
32408SOL     OW 3059   1.084   4.885   0.963 -0.0360 -0.2373  0.7143
32408SOL    HW1 3060   1.164   4.937   0.966 -0.2382  0.0805  0.5941
32408SOL    HW2 3061   1.100   4.813   1.025  0.4063 -0.2723  0.5594
32409SOL     OW 3062   2.921   8.081   9.137 -0.0936  0.6078 -0.2528
32409SOL    HW1 3063   3.013   8.069   9.160  0.6813  1.0059 -2.7892
32409SOL    HW2 3064   2.911   8.176   9.133 -1.2543  0.6405  2.0948
32410SOL     OW 3065   8.260  10.611   6.965  0.4685  0.1618 -0.4538
32410SOL    HW1 3066   8.356  10.611   6.968  0.5133 -0.3457 -1.3321
32410SOL    HW2 3067   8.235  10.537   7.021  0.5433  0.8672  0.5266
32411SOL     OW 3068   3.393   0.833   1.849 -0.9268  0.1727  0.2612
32411SOL    HW1 3069   3.356   0.893   1.784 -3.1857 -0.2445  1.0729
32411SOL    HW2 3070   3.484   0.861   1.858 -0.9051  1.0797 -2.0797
32412SOL     OW 3071   7.500   4.410   0.066  0.1761 -0.0103 -0.3255
32412SOL    HW1 3072   7.541   4.345   0.010  0.3578  0.6570 -0.9932
32412SOL    HW2 3073   7.552   4.490   0.052  0.4033  0.1101  1.0105
32413SOL     OW 3074   6.479   8.105   6.719  0.1523  0.4271 -0.3202
32413SOL    HW1 3075   6.491   8.010   6.731  0.5805  0.4450 -0.5751
32413SOL    HW2 3076   6.540   8.127   6.649 -0.8121  0.6823 -1.0982
32414SOL     OW 3077   0.903   4.081   1.129 -0.0282  0.0800  0.1098
32414SOL    HW1 3078   0.828   4.039   1.088 -0.5710  0.9624  0.1955
32414SOL    HW2 3079   0.976   4.021   1.111 -0.2518  0.3794 -2.0603
32415SOL     OW 3080   2.203   9.566   6.091  0.8012  0.5818 -0.0246
32415SOL    HW1 3081   2.157   9.557   6.174  2.3472  0.6116  0.8702
32415SOL    HW2 3082   2.275   9.503   6.096  2.3060  2.1934 -0.3150
32416SOL     OW 3083   6.743   0.285   9.462  0.1573 -0.0826  0.1624
32416SOL    HW1 3084   6.678   0.299   9.530  0.1400  0.3695  0.0588
32416SOL    HW2 3085   6.757   0.372   9.424  0.2596 -0.3054 -0.3237
32417SOL     OW 3086   2.906   4.364   9.547 -0.0011 -0.1011 -0.2112
32417SOL    HW1 3087   2.837   4.379   9.482  0.1080 -0.6793 -0.4682
32417SOL    HW2 3088   2.869   4.397   9.629 -0.6239 -0.4900 -0.3287
32418SOL     OW 3089   3.112   7.023   2.283 -0.2967 -0.5527 -0.0680
32418SOL    HW1 3090   3.090   6.931   2.296 -3.6149 -0.1045 -1.5329
32418SOL    HW2 3091   3.090   7.041   2.192  1.2696  1.4978 -0.1275
32419SOL     OW 3092   1.265   5.408   9.564 -0.0133 -0.4156  0.5780
32419SOL    HW1 3093   1.345   5.443   9.604 -0.0171 -0.9810  1.1054
32419SOL    HW2 3094   1.290   5.322   9.531 -0.4765 -0.7347  1.0339
32420SOL     OW 3095   5.542  10.480   3.316  0.3657  0.7916 -0.7093
32420SOL    HW1 3096   5.537  10.469   3.411  0.7896 -0.7126 -0.8327
32420SOL    HW2 3097   5.603  10.553   3.304  1.5500  0.0050  0.1700
32421SOL     OW 3098   9.179   1.445   3.843  0.2140  0.1302 -0.3657
32421SOL    HW1 3099   9.237   1.506   3.889 -0.7477  0.7418  0.0731
32421SOL    HW2 3100   9.238   1.386   3.797  1.1891  1.3295 -0.7242
32422SOL     OW 3101   1.918   1.181   3.594  0.1351 -0.1009 -0.7089
32422SOL    HW1 3102   1.839   1.128   3.609 -1.3021  1.4529 -2.2529
32422SOL    HW2 3103   1.939   1.166   3.501  0.8026  0.5858 -0.6765
32423SOL     OW 3104   1.766   5.643   1.848 -0.0634  0.0745 -0.3058
32423SOL    HW1 3105   1.743   5.690   1.768 -0.5596  1.3225  0.5345
32423SOL    HW2 3106   1.717   5.561   1.843  0.4428 -0.1773 -1.5789
32424SOL     OW 3107   3.166   5.259   5.951  0.4814  0.2936  0.1638
32424SOL    HW1 3108   3.110   5.193   5.992  0.0970 -0.2907 -1.2551
32424SOL    HW2 3109   3.245   5.259   6.004  0.0237 -0.4738  0.8706
32425SOL     OW 3110   6.604   9.947   8.170  0.5078 -0.5638 -0.3445
32425SOL    HW1 3111   6.558   9.875   8.126  0.8905 -0.9763 -0.0853
32425SOL    HW2 3112   6.600   9.924   8.263  0.0870  0.0771 -0.2030
32426SOL     OW 3113   9.451   9.514   3.251  0.4999  0.2831  0.2322
32426SOL    HW1 3114   9.543   9.539   3.254  0.2441  1.1663  1.0738
32426SOL    HW2 3115   9.436   9.490   3.159  2.4335 -3.3776  0.6526
32427SOL     OW 3116   6.231   2.697  10.315 -0.1952 -0.0935  0.2266
32427SOL    HW1 3117   6.285   2.771  10.343 -0.8268  0.5755 -0.2432
32427SOL    HW2 3118   6.164   2.737  10.259  0.9420 -1.3381 -2.1418
32428SOL     OW 3119   9.590   0.020  10.275 -0.3029 -0.0242 -0.3329
32428SOL    HW1 3120   9.525  -0.039  10.312  0.4881 -0.5008  0.3232
32428SOL    HW2 3121   9.571   0.105  10.315  1.7916 -0.9220  2.8841
32429SOL     OW 3122   0.731   0.816   1.625  0.3353  0.0932  0.2378
32429SOL    HW1 3123   0.761   0.782   1.709  0.4817  0.1666  0.2169
32429SOL    HW2 3124   0.717   0.909   1.640  0.5755  0.1502  0.1264
32430SOL     OW 3125   3.512   5.899  10.402  0.0390  0.0618  0.5023
32430SOL    HW1 3126   3.573   5.970  10.382  0.3111 -0.5957 -1.2143
32430SOL    HW2 3127   3.567   5.820  10.405 -0.5557 -0.3835  0.0380
32431SOL     OW 3128   6.914  10.747   6.624 -0.0877  0.0651  0.0077
32431SOL    HW1 3129   6.885  10.729   6.534  1.0360  1.7244 -0.7446
32431SOL    HW2 3130   6.938  10.661   6.659  0.7383 -0.4740 -1.7720
32432SOL     OW 3131   5.829   6.789   2.721 -0.6317  0.2809 -0.4968
32432SOL    HW1 3132   5.759   6.774   2.658 -0.2614 -0.5953 -0.7072
32432SOL    HW2 3133   5.910   6.773   2.672 -0.3192  0.1826  0.0435
32433SOL     OW 3134   6.234   5.813   9.388  0.1266 -0.0559  0.3113
32433SOL    HW1 3135   6.151   5.814   9.341 -0.6038  1.5737  1.5050
32433SOL    HW2 3136   6.296   5.852   9.327 -0.4753  0.6775  0.1489
32434SOL     OW 3137   2.519   4.623   2.420 -0.5025  0.2679 -0.2438
32434SOL    HW1 3138   2.567   4.706   2.422  0.4020 -0.2280  2.1573
32434SOL    HW2 3139   2.442   4.639   2.474 -0.8429 -0.1913 -0.5846
32435SOL     OW 3140   4.060  10.035   5.765 -0.2991 -0.1762  0.3536
32435SOL    HW1 3141   4.153  10.044   5.744 -0.7970  1.8564 -1.3946
32435SOL    HW2 3142   4.038  10.117   5.810 -1.1607 -0.8532  1.2146
32436SOL     OW 3143   8.930   0.621   5.044 -0.2405  0.0139  0.2403
32436SOL    HW1 3144   8.925   0.650   5.135 -0.5051  1.5801 -0.2354
32436SOL    HW2 3145   9.013   0.656   5.013  0.5837 -1.8188  0.2725
32437SOL     OW 3146   9.624   3.243  10.507  0.0120  0.0621  0.3272
32437SOL    HW1 3147   9.597   3.205  10.590 -1.2130  1.2669  0.5113
32437SOL    HW2 3148   9.642   3.335  10.527  2.6389 -0.2662 -0.1547
32438SOL     OW 3149   1.354   9.643   5.546  0.2155  0.4658 -0.3769
32438SOL    HW1 3150   1.284   9.579   5.533  0.5329  0.1584 -0.5853
32438SOL    HW2 3151   1.310   9.728   5.542 -0.3641  0.2438  0.9093
32439SOL     OW 3152   7.159   0.810   5.430  0.1661 -0.2921 -0.0614
32439SOL    HW1 3153   7.099   0.751   5.385 -1.0561  0.2826  0.7258
32439SOL    HW2 3154   7.213   0.753   5.484 -1.1757 -0.7269  0.8933
32440SOL     OW 3155   0.165   7.635   1.842 -0.3321  0.4359 -0.5689
32440SOL    HW1 3156   0.213   7.624   1.924 -0.1385  3.3667 -0.2008
32440SOL    HW2 3157   0.229   7.610   1.775  0.7247  1.4133  0.0377
32441SOL     OW 3158   0.995   4.057   2.665 -0.1956 -0.6917  0.1725
32441SOL    HW1 3159   0.953   4.081   2.748 -0.4941 -1.1306  0.1509
32441SOL    HW2 3160   0.928   4.006   2.619  0.2151 -1.0390 -0.0423
32442SOL     OW 3161   0.170   4.447   9.859 -0.0077  0.3950 -0.3455
32442SOL    HW1 3162   0.252   4.495   9.851 -1.0480  2.2295 -0.4945
32442SOL    HW2 3163   0.159   4.405   9.773  1.0191 -0.3311 -0.1410
32443SOL     OW 3164   1.880   0.429   0.780  0.3760  0.9736 -0.2069
32443SOL    HW1 3165   1.889   0.409   0.687  4.1969 -0.2241  0.2264
32443SOL    HW2 3166   1.932   0.509   0.792  1.5539  0.0539  1.1362
32444SOL     OW 3167  10.896   8.686   9.354  0.2561 -0.2767 -0.5666
32444SOL    HW1 3168  10.962   8.637   9.402 -1.6909 -0.6013  1.9463
32444SOL    HW2 3169  10.918   8.778   9.370  0.0288 -0.3850  0.4331
32445SOL     OW 3170  10.365   8.412  10.225 -0.2921 -0.5089  0.1107
32445SOL    HW1 3171  10.365   8.418  10.320  0.1145 -0.0692  0.0877
32445SOL    HW2 3172  10.417   8.488  10.196  0.1813 -1.0296 -0.4319
32446SOL     OW 3173   0.161   0.886   4.172 -0.1536 -0.9000 -0.1485
32446SOL    HW1 3174   0.227   0.935   4.223 -0.1207  0.5339 -1.4877
32446SOL    HW2 3175   0.092   0.867   4.235 -0.4860  1.5368  0.3360
32447SOL     OW 3176   6.076   8.125   5.703 -0.2254  0.2295  0.2452
32447SOL    HW1 3177   6.107   8.095   5.618  1.4111  1.1773  0.4748
32447SOL    HW2 3178   5.994   8.078   5.716 -0.0801 -0.5752 -1.4638
32448SOL     OW 3179   3.325   8.296   9.824  0.7711 -0.6112 -0.6504
32448SOL    HW1 3180   3.404   8.286   9.877  0.3156  1.7880  0.6231
32448SOL    HW2 3181   3.280   8.212   9.832  2.4887 -1.5493 -0.2524
32449SOL     OW 3182   8.272   5.301   3.811 -0.3056 -0.1056 -0.3169
32449SOL    HW1 3183   8.196   5.255   3.845 -1.1241 -0.3492 -2.3107
32449SOL    HW2 3184   8.271   5.281   3.717  1.1765  1.3661 -0.6809
32450SOL     OW 3185   2.919  10.742   3.540 -0.2389  0.4683  0.2940
32450SOL    HW1 3186   2.955  10.654   3.547 -0.6836  0.2077 -0.5650
32450SOL    HW2 3187   2.893  10.765   3.629 -2.4500 -1.2810  0.2011
32451SOL     OW 3188   6.651   8.741   0.128 -0.0670  0.3904 -0.1541
32451SOL    HW1 3189   6.649   8.735   0.223  1.1790 -1.3006 -0.1714
32451SOL    HW2 3190   6.730   8.791   0.108  0.3545 -0.2995 -0.2798
32452SOL     OW 3191   6.500   8.918   5.632  0.2756  0.1322  0.0797
32452SOL    HW1 3192   6.550   8.841   5.605 -0.3827 -0.4322  0.4261
32452SOL    HW2 3193   6.440   8.934   5.559 -0.0262 -0.0778  0.2795
32453SOL     OW 3194   5.565  10.435   3.596  0.5510  0.3693 -0.2079
32453SOL    HW1 3195   5.642  10.399   3.640  0.7658  1.1135  0.0262
32453SOL    HW2 3196   5.499  10.366   3.603 -0.0033  1.0877  2.7899
32454SOL     OW 3197   8.986   9.354   9.768  0.4261 -0.4231  0.2706
32454SOL    HW1 3198   9.028   9.272   9.742  1.5055  0.0934  0.3300
32454SOL    HW2 3199   8.983   9.406   9.688 -0.0422 -0.4244  0.2851
32455SOL     OW 3200   9.646   2.941   5.170  0.5661 -0.0641  0.4371
32455SOL    HW1 3201   9.558   2.903   5.181  0.4669  0.0313 -0.0155
32455SOL    HW2 3202   9.647   3.015   5.231  0.4680 -0.2932  0.7195
32456SOL     OW 3203   3.274   2.908   8.843  0.2819 -0.1788 -0.4416
32456SOL    HW1 3204   3.303   2.969   8.911  0.9726 -1.7597  0.7322
32456SOL    HW2 3205   3.179   2.905   8.853  0.5032 -2.0433  2.0122
32457SOL     OW 3206   3.583   2.556   3.037 -0.2696  0.0938  0.3872
32457SOL    HW1 3207   3.509   2.504   3.006  0.4644  0.2876 -1.8605
32457SOL    HW2 3208   3.647   2.490   3.067 -1.1592 -0.0819  1.9887
32458SOL     OW 3209   4.307   2.515   6.307  0.1987 -0.0004  0.1952
32458SOL    HW1 3210   4.232   2.564   6.339  1.2785  1.0725  1.1715
32458SOL    HW2 3211   4.273   2.427   6.292 -2.4435  1.4799 -4.0608
32459SOL     OW 3212   3.145   4.500  10.662 -0.1118 -0.0323  0.5797
32459SOL    HW1 3213   3.173   4.434  10.599  0.6941  0.5591  0.2950
32459SOL    HW2 3214   3.092   4.453  10.726 -0.5708 -0.7230 -0.2933
32460SOL     OW 3215   8.785   1.237  10.429 -0.5253  0.4038 -0.0953
32460SOL    HW1 3216   8.877   1.218  10.414 -0.4302  0.1025  0.8423
32460SOL    HW2 3217   8.765   1.307  10.367  0.4928  0.9070  0.1265
32461SOL     OW 3218  10.618   9.052  10.197 -0.3184 -0.0876  0.1460
32461SOL    HW1 3219  10.583   8.972  10.237  1.3998 -1.1246 -0.3119
32461SOL    HW2 3220  10.589   9.047  10.106  1.6263 -1.4336 -0.4801
32462SOL     OW 3221   4.123   6.216   4.056  0.2230  0.4064  0.3052
32462SOL    HW1 3222   4.090   6.225   3.966  0.9738 -1.0282 -0.1513
32462SOL    HW2 3223   4.073   6.144   4.093 -1.0559  1.8864  1.5551
32463SOL     OW 3224   3.552   9.972   8.294 -0.1476  1.2111  0.0750
32463SOL    HW1 3225   3.504   9.896   8.262  0.3364  0.5710  0.8261
32463SOL    HW2 3226   3.622   9.935   8.348  1.2873  2.1068 -1.1111
32464SOL     OW 3227   4.558   9.831   4.069  0.0086 -0.1876 -0.0735
32464SOL    HW1 3228   4.541   9.756   4.012  0.8195  0.1868 -0.8264
32464SOL    HW2 3229   4.510   9.811   4.150  0.6500 -1.7665 -0.0599
32465SOL     OW 3230   4.402   3.983   7.851  0.2469  0.1058  0.2301
32465SOL    HW1 3231   4.365   3.976   7.763  0.7690  0.0981  0.0064
32465SOL    HW2 3232   4.416   3.892   7.878  2.6795  0.0910 -0.8082
32466SOL     OW 3233   4.031   1.641   5.504  0.5285 -0.2338  0.0035
32466SOL    HW1 3234   4.093   1.645   5.577  0.5215 -2.3946  0.1790
32466SOL    HW2 3235   4.083   1.664   5.427  1.7676 -2.5849  0.0586
32467SOL     OW 3236   3.931   8.667   2.321  0.7355 -0.1982 -0.6182
32467SOL    HW1 3237   3.990   8.719   2.375 -1.2965  3.6964 -1.7338
32467SOL    HW2 3238   3.960   8.682   2.231  0.2608 -1.3242 -0.9827
32468SOL     OW 3239   3.781   7.914  10.509 -0.1170 -0.0314  0.1896
32468SOL    HW1 3240   3.775   7.878  10.420 -2.7678  0.1691  0.2245
32468SOL    HW2 3241   3.753   7.842  10.566  1.2960 -0.0637  0.8909
32469SOL     OW 3242   4.027   0.296   9.872  0.6066  0.2770 -0.5540
32469SOL    HW1 3243   4.110   0.338   9.851  1.2729 -0.8922 -0.3374
32469SOL    HW2 3244   4.018   0.226   9.807 -0.6290  0.8948 -1.0942
32470SOL     OW 3245   7.276   8.754   8.809 -0.1511  0.1215 -0.1189
32470SOL    HW1 3246   7.368   8.766   8.789 -0.6843  1.3567 -2.0905
32470SOL    HW2 3247   7.246   8.689   8.745 -1.1099  1.4502 -1.0837
32471SOL     OW 3248   8.581   7.071   6.637  0.4151  0.2390 -0.3420
32471SOL    HW1 3249   8.549   7.110   6.556  1.7239 -0.7934 -1.4287
32471SOL    HW2 3250   8.621   7.143   6.685  1.4150  0.5417 -1.5787
32472SOL     OW 3251   4.310   7.040   4.762 -0.6040 -0.0538  0.1367
32472SOL    HW1 3252   4.288   6.950   4.739  1.6112 -0.8649  0.9101
32472SOL    HW2 3253   4.402   7.036   4.788 -0.1460  2.6195 -0.7587
32473SOL     OW 3254   2.822   2.312   4.823  0.0162  0.6776 -0.1711
32473SOL    HW1 3255   2.850   2.329   4.912  0.5429  1.9438 -0.5594
32473SOL    HW2 3256   2.781   2.395   4.794 -1.1388 -0.0543 -0.7360
32474SOL     OW 3257   6.776   0.789  10.555  0.0180 -0.3061 -0.0385
32474SOL    HW1 3258   6.798   0.788  10.648  0.3641 -0.8988 -0.1195
32474SOL    HW2 3259   6.858   0.816  10.512 -0.0954 -0.1900 -0.1801
32475SOL     OW 3260   7.162   4.100   6.903  0.1043 -0.0636 -0.0274
32475SOL    HW1 3261   7.174   4.013   6.865 -2.4219 -1.1464  1.3557
32475SOL    HW2 3262   7.237   4.112   6.961  0.8840 -0.9606 -0.8223
32476SOL     OW 3263   5.875   5.168   4.738  0.1559 -0.4129  0.1728
32476SOL    HW1 3264   5.813   5.220   4.790 -1.2114 -2.2961  0.5429
32476SOL    HW2 3265   5.831   5.156   4.654  1.2694  0.5185 -0.5773
32477SOL     OW 3266  10.142   5.600   3.132 -0.4220  0.4498  0.1911
32477SOL    HW1 3267  10.147   5.637   3.044 -0.2639  1.2626  0.5332
32477SOL    HW2 3268  10.048   5.590   3.148 -0.5036 -3.0828 -1.4111
32478SOL     OW 3269  10.686   8.891   4.300 -0.2250  0.1638 -0.5165
32478SOL    HW1 3270  10.704   8.828   4.370  1.5406 -0.1952 -1.2260
32478SOL    HW2 3271  10.644   8.839   4.231  1.2318 -0.2864 -1.1025
32479SOL     OW 3272   6.658   2.420   7.251 -0.1572 -0.3434 -0.0926
32479SOL    HW1 3273   6.615   2.358   7.309  0.7964  0.7501  1.8879
32479SOL    HW2 3274   6.596   2.432   7.178 -1.2229 -2.0501  0.4745
32480SOL     OW 3275   9.734   0.737   1.544 -0.0827 -0.0869  0.1732
32480SOL    HW1 3276   9.659   0.682   1.566 -0.5880  0.4127 -0.2858
32480SOL    HW2 3277   9.808   0.696   1.590 -0.5828 -0.7282  0.4179
32481SOL     OW 3278  10.478   5.461   2.999  0.0577  0.6238  0.8715
32481SOL    HW1 3279  10.556   5.412   2.974 -1.3769 -1.0939 -0.6272
32481SOL    HW2 3280  10.491   5.548   2.962  0.1074 -0.4601 -1.9423
32482SOL     OW 3281   4.774   6.248   1.750  0.0239  0.6234  0.4815
32482SOL    HW1 3282   4.784   6.169   1.803 -1.9320  0.1639  0.2515
32482SOL    HW2 3283   4.836   6.237   1.678 -0.2251 -0.7188  0.4502
32483SOL     OW 3284  10.701   4.422   8.485  0.3015  0.0060 -0.2507
32483SOL    HW1 3285  10.641   4.464   8.423 -0.0372  0.7723  0.5758
32483SOL    HW2 3286  10.783   4.469   8.475  0.8787 -1.2050 -1.5611
32484SOL     OW 3287   8.464   4.357   2.617  0.3875  0.5400  0.4799
32484SOL    HW1 3288   8.382   4.395   2.586 -0.5890 -0.8295  1.2979
32484SOL    HW2 3289   8.516   4.345   2.537 -0.3848  0.9960 -0.1071
32485SOL     OW 3290   3.075   4.564   2.800  0.0962 -0.2577  0.5927
32485SOL    HW1 3291   3.153   4.527   2.758  0.5663  0.1649  1.0838
32485SOL    HW2 3292   3.037   4.621   2.734 -2.9798 -4.5376 -1.8338
32486SOL     OW 3293   3.451   4.917   2.997  0.4275  1.0376  0.0990
32486SOL    HW1 3294   3.397   4.924   3.075 -0.7804  1.3384 -0.7246
32486SOL    HW2 3295   3.437   4.828   2.965  1.4432  0.6950  0.5781
32487SOL     OW 3296   5.242   1.351   4.229  0.2626  0.0326  0.1932
32487SOL    HW1 3297   5.229   1.369   4.322  0.3313 -1.0812  0.4297
32487SOL    HW2 3298   5.338   1.348   4.218  0.3326  2.4788 -0.4009
32488SOL     OW 3299   2.492   7.250   5.470 -0.2358 -1.1194  0.2494
32488SOL    HW1 3300   2.466   7.324   5.524  1.3690 -0.9293  0.8045
32488SOL    HW2 3301   2.429   7.181   5.492 -2.0166  0.1623 -0.5849
32489SOL     OW 3302   8.351   8.658   7.151  0.7399 -0.8701  0.2193
32489SOL    HW1 3303   8.298   8.680   7.074  0.1408 -2.2457  0.2224
32489SOL    HW2 3304   8.437   8.697   7.133  0.0103  0.6134 -0.1932
32490SOL     OW 3305   2.843   7.582   4.695 -0.5726  0.0676  0.8550
32490SOL    HW1 3306   2.921   7.608   4.645 -0.3187  0.2788  1.3526
32490SOL    HW2 3307   2.808   7.665   4.728 -1.1280 -0.0088  0.4646
32491SOL     OW 3308   7.775   3.391   7.650 -0.0292  0.0942  0.1702
32491SOL    HW1 3309   7.755   3.435   7.733 -0.5582  1.0968 -0.4666
32491SOL    HW2 3310   7.858   3.429   7.623 -1.2083  1.8905 -1.1277
32492SOL     OW 3311   4.131   3.834  10.731 -0.6618 -0.0083  0.0094
32492SOL    HW1 3312   4.075   3.889  10.785  0.2364  0.7169  0.2403
32492SOL    HW2 3313   4.071   3.774  10.686 -1.8231  1.9902 -1.2409
32493SOL     OW 3314   5.452   9.905   8.040 -0.0731 -0.2690  0.0045
32493SOL    HW1 3315   5.496   9.981   8.079  0.0679  0.6286 -1.8115
32493SOL    HW2 3316   5.361   9.915   8.068  0.1149  0.0410  0.5425
32494SOL     OW 3317   0.179   8.907   9.666  0.1629  0.2571  0.6547
32494SOL    HW1 3318   0.244   8.862   9.613  1.9563  1.6055  1.5785
32494SOL    HW2 3319   0.230   8.965   9.723 -1.8995  2.1576  0.7197
32495SOL     OW 3320   1.294  10.407   4.516 -0.0721 -0.4059 -0.4297
32495SOL    HW1 3321   1.382  10.429   4.548 -0.4700 -0.0328  0.4454
32495SOL    HW2 3322   1.286  10.313   4.530 -0.3495 -0.2039  0.8873
32496SOL     OW 3323   1.733   8.413   9.560  0.5840 -0.1593 -0.2307
32496SOL    HW1 3324   1.739   8.318   9.546 -0.2949  0.0851 -2.8084
32496SOL    HW2 3325   1.785   8.451   9.489 -1.5784  1.3050 -1.1285
32497SOL     OW 3326   3.418   3.759   7.875  0.2778 -0.3148 -0.3327
32497SOL    HW1 3327   3.446   3.761   7.966 -0.4200  1.9259 -0.1157
32497SOL    HW2 3328   3.430   3.667   7.848  1.1744 -0.8646  1.7636
32498SOL     OW 3329   9.088   9.655   6.918 -0.0547  0.2561 -0.1410
32498SOL    HW1 3330   9.151   9.720   6.949  0.7536 -0.7024  0.3082
32498SOL    HW2 3331   9.096   9.656   6.823 -0.7705  1.4954 -0.2017
32499SOL     OW 3332   8.418   9.598   6.606  0.0320  0.1215  0.2269
32499SOL    HW1 3333   8.338   9.576   6.654  0.3190 -0.4849  0.4454
32499SOL    HW2 3334   8.483   9.614   6.674 -0.1579  1.6515  0.0673
32500SOL     OW 3335   5.998   5.343   7.783 -0.2484 -0.0422 -0.4208
32500SOL    HW1 3336   5.924   5.335   7.723  2.0707  1.0744 -3.7085
32500SOL    HW2 3337   5.984   5.426   7.828 -0.6957  0.4593 -1.4620
32501SOL     OW 3338   3.370   0.155   9.315  0.3603 -0.1299  0.7615
32501SOL    HW1 3339   3.370   0.158   9.410 -1.4814 -1.8100  0.8694
32501SOL    HW2 3340   3.381   0.062   9.293 -0.0671  0.1174 -0.6278
32502SOL     OW 3341   4.451   4.785   2.751  0.3070 -0.3232  0.5857
32502SOL    HW1 3342   4.533   4.756   2.711 -0.8692  0.9423 -3.1676
32502SOL    HW2 3343   4.406   4.704   2.773  1.5561 -1.0834  0.4860
32503SOL     OW 3344   4.529   9.439   8.815 -0.3731 -0.1175  0.2727
32503SOL    HW1 3345   4.480   9.514   8.781 -1.2725 -0.6161  0.4460
32503SOL    HW2 3346   4.462   9.374   8.837  0.4266 -1.2468 -0.5086
32504SOL     OW 3347   9.441  10.212   4.849  0.3208 -0.1436  0.1104
32504SOL    HW1 3348   9.491  10.137   4.881 -2.1766 -1.6239  0.8597
32504SOL    HW2 3349   9.439  10.273   4.923  2.2587  0.6812 -0.4613
32505SOL     OW 3350   0.905   6.064   3.254 -0.3231  0.4016 -0.0790
32505SOL    HW1 3351   0.910   6.084   3.347  0.9852  0.1918 -0.0859
32505SOL    HW2 3352   0.996   6.059   3.225 -0.6708 -1.0325 -1.0403
32506SOL     OW 3353   9.068  10.067   3.918  0.4848 -0.1560 -0.2217
32506SOL    HW1 3354   9.052  10.108   4.003 -2.8575 -2.2176  0.3301
32506SOL    HW2 3355   9.160  10.040   3.921  0.6070  0.3223  2.5022
32507SOL     OW 3356   9.281  10.098   6.212 -0.4002  0.0053 -0.7870
32507SOL    HW1 3357   9.356  10.140   6.172 -0.5908  0.7583 -0.3655
32507SOL    HW2 3358   9.218  10.086   6.140 -0.9462  1.8046 -0.6499
32508SOL     OW 3359   0.082   1.554   1.906  0.2213 -0.4698  0.3664
32508SOL    HW1 3360   0.132   1.474   1.923  0.5752 -0.1651  0.7781
32508SOL    HW2 3361  -0.010   1.528   1.917  0.3777 -0.5386  1.7868
32509SOL     OW 3362   5.162   2.616   9.835  0.2628  0.0942 -0.1640
32509SOL    HW1 3363   5.107   2.553   9.882 -0.3087  0.7256  0.0397
32509SOL    HW2 3364   5.211   2.661   9.904 -0.3683  0.8279 -0.1699
32510SOL     OW 3365  10.290   0.167   9.230  0.8244  0.2165 -0.0559
32510SOL    HW1 3366  10.367   0.202   9.185  0.4804  0.8405 -0.1725
32510SOL    HW2 3367  10.299   0.197   9.320  0.7020  0.3108 -0.0761
32511SOL     OW 3368   5.689   8.568   1.911 -0.7320  0.9285  0.1486
32511SOL    HW1 3369   5.729   8.499   1.859 -0.1570  0.0301  1.7228
32511SOL    HW2 3370   5.595   8.552   1.905 -0.7578  1.4190 -1.3386
32512SOL     OW 3371   1.577  10.326   7.464  0.1030  0.0191  0.2907
32512SOL    HW1 3372   1.535  10.266   7.526  0.1274 -1.2452 -0.8580
32512SOL    HW2 3373   1.521  10.322   7.386  0.5380  0.9058 -0.0780
32513SOL     OW 3374   4.134   1.282   5.813  0.5058  0.1829 -0.1163
32513SOL    HW1 3375   4.144   1.291   5.908  0.3526  0.5840 -0.1372
32513SOL    HW2 3376   4.220   1.308   5.778  0.7505 -0.5332 -0.0580
32514SOL     OW 3377   2.019   3.058  10.064  0.2843  0.1444  0.1280
32514SOL    HW1 3378   1.936   3.090  10.029  0.4541 -0.2137 -0.6308
32514SOL    HW2 3379   2.032   3.107  10.145 -0.9334 -0.1695  0.5436
32515SOL     OW 3380   0.670  10.706   7.800 -0.2573 -0.1369  0.5468
32515SOL    HW1 3381   0.717  10.789   7.793  1.0713 -0.9140 -0.0553
32515SOL    HW2 3382   0.623  10.699   7.718 -2.2403  1.0671  1.4995
32516SOL     OW 3383  10.661   5.080   1.564  0.5712  0.3193  0.0070
32516SOL    HW1 3384  10.750   5.090   1.532  1.1687 -1.3155  1.0385
32516SOL    HW2 3385  10.639   5.167   1.600  1.2348  1.0983 -1.3847
32517SOL     OW 3386   4.608   6.281   5.139  0.4359  0.7748 -0.5867
32517SOL    HW1 3387   4.635   6.250   5.225  1.0278 -0.9443 -1.3581
32517SOL    HW2 3388   4.668   6.353   5.119  0.2850  1.1948  0.4283
32518SOL     OW 3389   8.951   6.654  10.638 -0.1446  0.3493 -0.4361
32518SOL    HW1 3390   9.001   6.677  10.716  0.4823  0.7868 -0.9591
32518SOL    HW2 3391   9.015   6.618  10.577 -0.9359 -2.0036 -0.0118
32519SOL     OW 3392   4.397   1.651   3.457 -0.1454  0.1791 -0.0245
32519SOL    HW1 3393   4.418   1.725   3.514 -0.0745  0.2607 -0.1556
32519SOL    HW2 3394   4.332   1.686   3.395 -1.5740 -0.3827  1.1067
32520SOL     OW 3395   5.667   5.564   0.358  0.1887  0.0776  0.1413
32520SOL    HW1 3396   5.639   5.592   0.445 -2.5324 -0.1834 -0.5737
32520SOL    HW2 3397   5.700   5.643   0.317 -0.5983  0.6908  0.6632
32521SOL     OW 3398   2.139   1.553   1.122  0.0919  0.6531 -0.2618
32521SOL    HW1 3399   2.185   1.472   1.142 -2.1038 -0.5815  0.0897
32521SOL    HW2 3400   2.101   1.539   1.035 -2.2371  0.2856  0.7347
32522SOL     OW 3401   3.423   5.793   9.426  0.0159 -0.2083  0.6735
32522SOL    HW1 3402   3.375   5.844   9.491 -0.0990  0.2164  0.2564
32522SOL    HW2 3403   3.495   5.754   9.476 -0.4133 -0.3676  1.1755
32523SOL     OW 3404  10.792   1.143  10.656  0.0044 -0.0703  0.8262
32523SOL    HW1 3405  10.830   1.061  10.624  1.8854  0.4463  1.5882
32523SOL    HW2 3406  10.794   1.201  10.580 -0.1412 -0.3309  0.6214
32524SOL     OW 3407  10.871   7.851   5.873 -0.0459  0.1527  0.1245
32524SOL    HW1 3408  10.916   7.806   5.801 -0.5170 -0.7771  0.4036
32524SOL    HW2 3409  10.899   7.805   5.952  1.0171  1.5970  0.6532
32525SOL     OW 3410   8.246   6.740   4.036  0.3083 -0.4804  0.4330
32525SOL    HW1 3411   8.161   6.774   4.009 -0.0070 -2.2500 -1.0590
32525SOL    HW2 3412   8.307   6.771   3.969  0.3402 -1.3095  0.0622
32526SOL     OW 3413   2.369   1.351   8.197  0.6076 -0.0936  0.1250
32526SOL    HW1 3414   2.290   1.405   8.189  0.4104 -0.5094 -0.9673
32526SOL    HW2 3415   2.428   1.385   8.129  2.0312  1.2493  1.9440
32527SOL     OW 3416   5.958   8.187   9.179 -0.0373 -0.0091 -0.2506
32527SOL    HW1 3417   6.003   8.149   9.255 -0.5763 -2.0808 -0.9064
32527SOL    HW2 3418   5.973   8.282   9.187 -1.2605  0.0271  3.2223
32528SOL     OW 3419   5.585   1.978   9.584 -0.7896  0.9643  0.0844
32528SOL    HW1 3420   5.657   2.002   9.526 -0.0193  1.2049  1.1172
32528SOL    HW2 3421   5.627   1.939   9.660 -1.8027  0.3534  0.3511
32529SOL     OW 3422   3.003  10.527   9.812  0.0808 -0.5811 -0.4147
32529SOL    HW1 3423   3.092  10.500   9.837  0.4554 -0.3363 -1.4666
32529SOL    HW2 3424   2.955  10.444   9.807 -0.4628 -0.5869  2.6236
32530SOL     OW 3425   0.200   7.810   2.222  0.0995  0.0807 -0.3396
32530SOL    HW1 3426   0.258   7.879   2.190 -0.5510  2.2479  2.7427
32530SOL    HW2 3427   0.211   7.812   2.318 -3.6222 -0.6830  0.2509
32531SOL     OW 3428   8.875   2.270   3.557 -0.6714 -0.3886 -0.0833
32531SOL    HW1 3429   8.970   2.271   3.556 -0.5699  0.7664  2.5254
32531SOL    HW2 3430   8.849   2.341   3.499  0.1125  0.2161  0.2956
32532SOL     OW 3431   9.424   4.193   5.124  0.0885  0.9499  0.2020
32532SOL    HW1 3432   9.387   4.269   5.080 -0.7850  0.2747 -0.2453
32532SOL    HW2 3433   9.356   4.125   5.118  0.2759  0.5629  1.8186
32533SOL     OW 3434   3.107   4.578   1.122  0.8603  0.7469  0.1617
32533SOL    HW1 3435   3.194   4.560   1.086  0.4293  1.7983 -1.5518
32533SOL    HW2 3436   3.049   4.520   1.073  0.4467  0.9809  0.3702
32534SOL     OW 3437   3.443   0.901   5.755  0.0096 -0.1188 -0.1020
32534SOL    HW1 3438   3.414   0.850   5.679 -0.7970  0.7552 -0.3971
32534SOL    HW2 3439   3.476   0.982   5.718 -0.3407  0.2960  0.4738
32535SOL     OW 3440   5.233   7.848   5.903  0.5539 -0.4506  0.6367
32535SOL    HW1 3441   5.287   7.908   5.851  0.0442 -2.6692 -2.8329
32535SOL    HW2 3442   5.143   7.876   5.886  0.3183 -2.0059 -0.9340
32536SOL     OW 3443  10.208   1.158   0.729 -0.1482  0.0661 -0.3290
32536SOL    HW1 3444  10.130   1.196   0.769  1.2383  3.6758 -0.6717
32536SOL    HW2 3445  10.190   1.160   0.635  0.5178  1.4062 -0.4407
32537SOL     OW 3446   9.778  10.012   7.867 -0.1245 -0.5139  0.1415
32537SOL    HW1 3447   9.785  10.076   7.937  1.8454 -0.4639 -0.0426
32537SOL    HW2 3448   9.691   9.975   7.876 -0.3514  0.3711  1.8374
32538SOL     OW 3449  10.625   1.095   1.430  0.4720  0.0356 -0.0769
32538SOL    HW1 3450  10.575   1.051   1.499  0.8346  0.3956  0.4123
32538SOL    HW2 3451  10.665   1.170   1.473  1.2933 -0.1488 -0.5125
32539SOL     OW 3452   4.150   8.604   9.835 -0.3107  0.3492 -0.5123
32539SOL    HW1 3453   4.101   8.522   9.825 -0.2376  0.4667 -2.1413
32539SOL    HW2 3454   4.239   8.576   9.856 -0.7626  0.0980  1.1684
32540SOL     OW 3455   1.842   8.833   3.161 -0.2243 -0.0089 -0.0065
32540SOL    HW1 3456   1.881   8.751   3.132  0.8368  0.1727  0.8617
32540SOL    HW2 3457   1.779   8.855   3.092  0.1785 -1.0418 -0.7278
32541SOL     OW 3458   4.936   6.529   7.755 -0.2802 -0.4912  0.0647
32541SOL    HW1 3459   4.923   6.435   7.768 -2.6682 -0.2006  0.1129
32541SOL    HW2 3460   4.942   6.540   7.660  3.1611 -0.9814  0.1115
32542SOL     OW 3461   1.271   6.033   3.632 -0.1638 -0.4349  0.7615
32542SOL    HW1 3462   1.237   5.948   3.602  0.1983  0.1703 -1.5979
32542SOL    HW2 3463   1.256   6.092   3.558  2.2931  0.8399  1.1864
32543SOL     OW 3464   3.416   2.646   8.510  0.0395 -0.0743  0.2610
32543SOL    HW1 3465   3.439   2.681   8.424  0.8073  0.1206  0.5393
32543SOL    HW2 3466   3.335   2.690   8.533  1.5512  2.4809  1.1158
32544SOL     OW 3467   9.432   5.228   0.743 -0.0968 -0.1907 -0.0202
32544SOL    HW1 3468   9.483   5.241   0.823 -1.1965 -2.6391  1.1927
32544SOL    HW2 3469   9.348   5.271   0.761 -0.6915 -1.5549  0.5784
32545SOL     OW 3470  10.868   2.727   2.279  0.2874  0.0457 -0.0624
32545SOL    HW1 3471  10.866   2.758   2.188 -0.7083 -0.7083 -0.3121
32545SOL    HW2 3472  10.789   2.762   2.318  0.4427 -0.0844  0.3672
32546SOL     OW 3473   3.611   0.935   9.841  0.4807 -0.6383 -0.2466
32546SOL    HW1 3474   3.660   0.878   9.781 -2.2109 -1.2630 -2.0045
32546SOL    HW2 3475   3.611   0.886   9.924  0.7530 -1.7878 -0.8925
32547SOL     OW 3476   5.200  10.719   8.006 -0.2662  0.3318 -0.5213
32547SOL    HW1 3477   5.243  10.711   8.091 -1.3300 -2.6930 -0.1387
32547SOL    HW2 3478   5.121  10.770   8.023  0.4293  1.3240 -0.1451
32548SOL     OW 3479   1.816   6.282   3.651  0.5181  0.3802  0.2662
32548SOL    HW1 3480   1.844   6.191   3.649  0.9478  0.4744 -2.6979
32548SOL    HW2 3481   1.864   6.320   3.724  0.4578 -1.6877  1.4696
32549SOL     OW 3482   4.936   7.655   6.541  0.3202 -0.1752  0.1892
32549SOL    HW1 3483   4.962   7.604   6.464 -0.5025 -0.6803  0.2258
32549SOL    HW2 3484   5.009   7.644   6.602  0.2020 -1.2647  0.1649
32550SOL     OW 3485   6.109   6.649  10.195 -0.7892  0.2413  0.0004
32550SOL    HW1 3486   6.148   6.720  10.245 -0.5906 -0.2157  0.5047
32550SOL    HW2 3487   6.027   6.686  10.162  0.2059  1.3182 -1.3598
32551SOL     OW 3488   6.304  10.040   7.924  0.1082 -0.0792 -0.2569
32551SOL    HW1 3489   6.237  10.049   7.856  1.0494  0.4055 -1.1245
32551SOL    HW2 3490   6.280   9.959   7.969 -1.0794  0.0960 -0.5360
32552SOL     OW 3491   4.630  10.321   5.704 -0.0672  0.0143  0.0015
32552SOL    HW1 3492   4.721  10.336   5.731  0.2173 -1.4031 -0.0704
32552SOL    HW2 3493   4.587  10.289   5.783 -0.7780  1.6036  0.2920
32553SOL     OW 3494   5.050   3.141   8.486  0.3453 -0.1615  0.5521
32553SOL    HW1 3495   5.057   3.193   8.566  0.3749  0.0873  0.3878
32553SOL    HW2 3496   5.130   3.160   8.437  0.3907 -0.4180  0.5228
32554SOL     OW 3497   9.139   8.211   6.831  0.0639  0.5546 -0.7234
32554SOL    HW1 3498   9.100   8.254   6.754  0.2437  2.1895  0.0460
32554SOL    HW2 3499   9.106   8.261   6.905 -0.5309 -1.3420  0.3305
32555SOL     OW 3500   6.383   5.637   1.361  0.2926  0.2604  0.1784
32555SOL    HW1 3501   6.437   5.715   1.372  2.1772 -0.9577  0.1067
32555SOL    HW2 3502   6.434   5.567   1.403 -1.6373 -0.8209  0.8285
32556SOL     OW 3503   0.744   4.719   3.167  0.2319  0.1989  0.7930
32556SOL    HW1 3504   0.780   4.803   3.137  2.5760 -0.8824  0.3785
32556SOL    HW2 3505   0.788   4.702   3.250  1.4818 -1.5889 -0.1602
32557SOL     OW 3506   8.507   5.111   0.512 -0.0022 -0.3557  0.1882
32557SOL    HW1 3507   8.492   5.135   0.420  0.3264  1.8652  0.6479
32557SOL    HW2 3508   8.436   5.050   0.533 -1.4879  0.9095 -0.9135
32558SOL     OW 3509   9.073   4.474   9.013  0.0067  0.2138 -0.6960
32558SOL    HW1 3510   9.147   4.451   8.956 -0.2999 -0.8183 -0.6974
32558SOL    HW2 3511   9.084   4.568   9.029  0.7168  0.2959 -1.5564
32559SOL     OW 3512   4.563   5.098   2.370 -0.1467  0.7332  0.7229
32559SOL    HW1 3513   4.659   5.108   2.369  0.0563 -0.8171 -1.4208
32559SOL    HW2 3514   4.548   5.008   2.344 -2.2318  0.6365  2.0325
32560SOL     OW 3515   7.675   0.052   3.543 -0.6397 -0.1956  0.0056
32560SOL    HW1 3516   7.756   0.025   3.499 -1.7019  0.3012 -2.4182
32560SOL    HW2 3517   7.655  -0.020   3.603 -0.1191 -1.8876 -1.7531
32561SOL     OW 3518   6.762   3.290   6.755  0.1885 -0.6994 -0.4631
32561SOL    HW1 3519   6.848   3.258   6.727  0.9648  2.0980 -1.5690
32561SOL    HW2 3520   6.700   3.235   6.707  1.3981 -1.0284 -1.7341
32562SOL     OW 3521   3.953   0.294   0.557  0.2846  0.5107  0.3777
32562SOL    HW1 3522   3.867   0.287   0.599 -0.2938 -0.0199 -0.8525
32562SOL    HW2 3523   3.948   0.374   0.505 -0.1686 -0.4787 -1.1692
32563SOL     OW 3524   3.074   3.283   6.955 -0.2018 -0.0966  0.3111
32563SOL    HW1 3525   3.005   3.335   6.996 -1.3565  0.3702 -2.0868
32563SOL    HW2 3526   3.063   3.196   6.994 -1.3017  0.2913  0.9312
32564SOL     OW 3527   4.665  10.282   2.137  0.5370  0.3759  0.0562
32564SOL    HW1 3528   4.741  10.226   2.155 -0.0745  0.1843  2.3015
32564SOL    HW2 3529   4.591  10.221   2.133  0.0350  0.8700  1.3473
32565SOL     OW 3530   0.905   3.686   7.096  0.3537 -0.2893 -0.1972
32565SOL    HW1 3531   0.871   3.600   7.071  0.2067 -0.1713 -0.4068
32565SOL    HW2 3532   0.996   3.685   7.069  0.4270 -0.4789  0.0495
32566SOL     OW 3533   3.763   7.238   9.518 -0.2703 -0.3731 -0.4777
32566SOL    HW1 3534   3.674   7.259   9.546  0.0750  0.6978 -0.1440
32566SOL    HW2 3535   3.795   7.176   9.584 -0.4136  0.0192 -0.0416
32567SOL     OW 3536   2.159   5.598   0.196  0.0512  0.5057  1.1849
32567SOL    HW1 3537   2.189   5.538   0.128 -1.0971  0.2739  0.8631
32567SOL    HW2 3538   2.107   5.663   0.150 -2.8743 -1.0586  2.0474
32568SOL     OW 3539   4.937   1.295   8.001 -0.2271  0.6769  0.1098
32568SOL    HW1 3540   4.908   1.205   8.016  2.0599 -0.3506 -1.1779
32568SOL    HW2 3541   4.953   1.330   8.089 -0.7955 -0.2615  0.6125
32569SOL     OW 3542   5.206   1.435   4.538  0.0559 -0.3079 -0.3025
32569SOL    HW1 3543   5.186   1.404   4.626 -2.2197 -0.3136 -0.7683
32569SOL    HW2 3544   5.160   1.518   4.531  1.2288  0.2892 -1.0895
32570SOL     OW 3545   6.662   3.579  10.072  0.0099  0.2228  0.0558
32570SOL    HW1 3546   6.681   3.627   9.991 -0.7893  0.4365 -0.0188
32570SOL    HW2 3547   6.593   3.631  10.114  0.0640 -0.1632  0.6208
32571SOL     OW 3548  10.105   9.407   7.668 -0.2234 -0.6328 -0.1146
32571SOL    HW1 3549  10.200   9.400   7.678 -0.3290 -0.3475  1.2926
32571SOL    HW2 3550  10.072   9.408   7.757 -1.7014 -2.5007 -0.5745
32572SOL     OW 3551   1.664   1.086   1.114 -0.3983 -0.5288 -0.0343
32572SOL    HW1 3552   1.592   1.093   1.177 -0.8192 -0.3930 -0.5182
32572SOL    HW2 3553   1.630   1.027   1.046 -0.3964  0.2555 -0.7288
32573SOL     OW 3554   4.974   8.197   4.584 -0.4103 -0.3595  0.3177
32573SOL    HW1 3555   5.010   8.282   4.557 -0.7817  0.3172  1.8315
32573SOL    HW2 3556   5.049   8.152   4.623 -0.4234 -0.3392  0.3668
32574SOL     OW 3557   2.640   5.462   1.547  0.3621 -0.6798  0.1498
32574SOL    HW1 3558   2.545   5.451   1.540  0.2430  1.1733 -2.0880
32574SOL    HW2 3559   2.656   5.552   1.520  2.8225 -1.0973  0.0068
32575SOL     OW 3560   0.629  10.619   9.264 -0.6530  1.0480 -0.0463
32575SOL    HW1 3561   0.647  10.612   9.358  3.4961 -0.7461 -0.7606
32575SOL    HW2 3562   0.605  10.531   9.237  2.0855  0.5420 -1.1741
32576SOL     OW 3563   0.785   6.905   2.354 -0.6007 -0.0878  0.0729
32576SOL    HW1 3564   0.747   6.839   2.412  1.1690 -0.7350  0.5634
32576SOL    HW2 3565   0.856   6.945   2.406 -0.3989  0.8524 -0.8869
32577SOL     OW 3566   3.687   7.220   4.906 -0.1856 -0.1722 -0.1713
32577SOL    HW1 3567   3.717   7.182   4.989  0.5428  0.1107 -0.3006
32577SOL    HW2 3568   3.765   7.226   4.852 -0.5940 -0.0288 -0.7611
32578SOL     OW 3569   5.468   4.998   0.698  0.2023  0.4565 -0.3449
32578SOL    HW1 3570   5.507   5.067   0.752  0.1909  0.4519 -0.3309
32578SOL    HW2 3571   5.543   4.957   0.655  0.1170  1.3292 -1.3665
32579SOL     OW 3572   5.624   6.452   8.519 -0.0748 -0.1768 -0.6326
32579SOL    HW1 3573   5.619   6.391   8.445  2.4458 -0.7669 -0.4217
32579SOL    HW2 3574   5.683   6.521   8.488  0.7958 -0.2977  0.6962
32580SOL     OW 3575   3.346   9.087   2.239  0.0566  0.7555  0.5842
32580SOL    HW1 3576   3.315   9.050   2.157 -1.2065  1.3473  0.7629
32580SOL    HW2 3577   3.268   9.091   2.294  0.9533 -0.0043  1.9687
32581SOL     OW 3578   4.001  10.229   4.026  0.1385 -0.1135  0.3058
32581SOL    HW1 3579   3.952  10.155   3.991  1.8913 -0.6640 -1.1432
32581SOL    HW2 3580   4.040  10.195   4.107 -0.8568 -0.0457  0.8263
32582SOL     OW 3581   9.344   1.888   8.084  0.2966 -0.0321 -0.2960
32582SOL    HW1 3582   9.310   1.890   7.995  0.2669 -0.6603 -0.3072
32582SOL    HW2 3583   9.306   1.808   8.122  0.2370  0.2794  0.3050
32583SOL     OW 3584   8.389   6.240  10.027 -0.3162 -0.0014  0.4222
32583SOL    HW1 3585   8.360   6.183   9.956 -0.0315  0.4059 -0.0278
32583SOL    HW2 3586   8.378   6.187  10.106  1.6882 -1.3983 -0.1399
32584SOL     OW 3587   3.560   4.249   9.890  0.0350  0.2551  0.1119
32584SOL    HW1 3588   3.563   4.167   9.840  1.4522 -0.1818  0.8582
32584SOL    HW2 3589   3.489   4.299   9.850  0.5187 -0.4455 -1.7266
32585SOL     OW 3590   1.400   8.463   9.422 -0.1581 -0.7870  0.2955
32585SOL    HW1 3591   1.487   8.432   9.401 -0.7265 -1.7696 -0.6846
32585SOL    HW2 3592   1.347   8.384   9.431 -1.4347 -0.1817 -1.3214
32586SOL     OW 3593   2.911   1.705   1.045  0.0831  0.1208  0.3539
32586SOL    HW1 3594   2.825   1.674   1.072  1.2000 -1.4668  2.4035
32586SOL    HW2 3595   2.916   1.795   1.079 -1.1123  0.6420 -0.7506
32587SOL     OW 3596   6.841   3.357   3.077  0.3049 -0.2518 -0.4359
32587SOL    HW1 3597   6.822   3.373   2.985  0.4757 -1.8216 -0.7810
32587SOL    HW2 3598   6.766   3.307   3.109  0.7664 -0.7179 -0.0513
32588SOL     OW 3599   6.964   3.823   8.110  0.3824 -0.4077 -0.8578
32588SOL    HW1 3600   6.884   3.816   8.058  1.1149 -0.9570 -1.9470
32588SOL    HW2 3601   6.968   3.741   8.159 -1.1321  0.7383  1.3768
32589SOL     OW 3602   5.092  10.166   4.719 -0.1216  0.1055  0.4360
32589SOL    HW1 3603   5.130  10.211   4.794  1.0541  1.8313 -1.1282
32589SOL    HW2 3604   4.999  10.155   4.742 -0.1574  2.1166  1.4724
32590SOL     OW 3605  10.303   4.012   1.317  0.5170  0.6817 -0.2537
32590SOL    HW1 3606  10.359   3.935   1.313  0.6991  0.8278 -0.5451
32590SOL    HW2 3607  10.344   4.067   1.384  2.3336  2.0241 -2.3058
32591SOL     OW 3608   8.838   8.787   2.569 -0.0671  0.0166 -0.4204
32591SOL    HW1 3609   8.795   8.832   2.496  0.0075 -0.3134 -0.6679
32591SOL    HW2 3610   8.910   8.739   2.529  0.5498  0.5687 -0.0113
32592SOL     OW 3611   2.343   6.253   9.446  0.1629  0.2496 -0.5883
32592SOL    HW1 3612   2.273   6.189   9.436  0.6456 -0.0747 -2.2454
32592SOL    HW2 3613   2.300   6.338   9.431  0.2402 -0.0137 -2.6163
32593SOL     OW 3614  10.456   9.328   5.255  0.1557  0.8055 -0.0229
32593SOL    HW1 3615  10.470   9.341   5.161  0.9222 -0.3841 -0.0992
32593SOL    HW2 3616  10.378   9.273   5.260 -0.0454  1.0980  0.0521
32594SOL     OW 3617   5.244   8.149   6.437 -0.1546  0.6064 -0.0514
32594SOL    HW1 3618   5.206   8.090   6.373  0.7337 -0.2012  0.1524
32594SOL    HW2 3619   5.169   8.177   6.491 -0.4043 -1.6125  0.8778
32595SOL     OW 3620   6.438   8.673   6.326  0.1328 -0.8010  0.2604
32595SOL    HW1 3621   6.480   8.682   6.241 -0.1377  1.2393  0.3030
32595SOL    HW2 3622   6.508   8.642   6.384  1.0938  0.6332 -0.0964
32596SOL     OW 3623   6.424   2.275   7.350 -0.0687  0.2465  0.0991
32596SOL    HW1 3624   6.387   2.331   7.418 -0.3017 -1.3964  1.4038
32596SOL    HW2 3625   6.365   2.285   7.276 -0.4577  1.2310  0.5248
32597SOL     OW 3626   2.535   2.833   0.541 -0.5952  0.1520  0.0402
32597SOL    HW1 3627   2.570   2.779   0.470 -0.3876  1.4411 -0.8758
32597SOL    HW2 3628   2.459   2.785   0.572 -2.4996  0.8476 -3.0449
32598SOL     OW 3629   2.888   8.314   1.858  0.3314  0.7001  0.9192
32598SOL    HW1 3630   2.865   8.405   1.877 -0.4848  0.9393 -0.9898
32598SOL    HW2 3631   2.970   8.319   1.809 -1.2801  0.7315 -1.9662
32599SOL     OW 3632   1.006   5.607   5.910  0.4061 -0.1923 -0.0335
32599SOL    HW1 3633   1.025   5.640   5.822  0.7399  1.3692  0.5945
32599SOL    HW2 3634   0.981   5.516   5.896  1.1172 -0.1725 -1.6739
32600SOL     OW 3635   2.983   8.167   0.968 -0.1768  0.5816 -0.2774
32600SOL    HW1 3636   2.895   8.164   0.930 -0.8483 -1.1470  1.2619
32600SOL    HW2 3637   2.988   8.089   1.024  2.7732 -0.0738 -1.2256
32601SOL     OW 3638   7.931   2.145   3.756  0.0214 -0.1046 -0.3989
32601SOL    HW1 3639   8.026   2.150   3.770  0.0790  0.1629 -0.8601
32601SOL    HW2 3640   7.921   2.107   3.669 -0.3081 -0.6224 -0.1382
32602SOL     OW 3641   9.174   4.438   4.529  0.2497  0.2642 -0.2190
32602SOL    HW1 3642   9.079   4.427   4.541  0.2745  1.3628  1.3300
32602SOL    HW2 3643   9.212   4.387   4.601  0.8159  0.4463 -0.3878
32603SOL     OW 3644   4.077   8.374   2.145 -0.2302 -0.1489 -0.0385
32603SOL    HW1 3645   3.995   8.326   2.156 -1.1306  1.6579  1.7359
32603SOL    HW2 3646   4.137   8.334   2.208 -0.1662 -0.5974 -0.3831
32604SOL     OW 3647   3.948   9.353   4.342  0.0729  0.2010  0.4677
32604SOL    HW1 3648   3.955   9.258   4.331 -0.2661  0.1730  0.4817
32604SOL    HW2 3649   3.873   9.364   4.401  0.0899  0.4784  0.4359
32605SOL     OW 3650   5.765   6.024   5.957  0.0901  0.0197  0.1901
32605SOL    HW1 3651   5.847   5.980   5.932 -0.3402  0.2325 -1.7401
32605SOL    HW2 3652   5.696   5.964   5.927 -0.4841  0.7825 -0.0197
32606SOL     OW 3653   6.366   4.994   6.682 -0.2299  0.2048 -0.2280
32606SOL    HW1 3654   6.332   4.906   6.666 -1.6890  0.6245  0.4011
32606SOL    HW2 3655   6.288   5.049   6.692  0.5670  2.0479 -2.8776
32607SOL     OW 3656   9.479   2.348   4.756 -0.0328 -0.4857 -0.2861
32607SOL    HW1 3657   9.435   2.397   4.826  0.2239 -0.3396 -0.2226
32607SOL    HW2 3658   9.549   2.300   4.801  0.1059 -0.4257 -0.4357
32608SOL     OW 3659   3.619   1.013   4.891  0.0970  0.3160 -0.0169
32608SOL    HW1 3660   3.630   0.929   4.847  0.5466  0.5750 -0.4087
32608SOL    HW2 3661   3.547   1.055   4.844  0.3245  0.4328 -0.2640
32609SOL     OW 3662  10.867   6.998   3.803 -0.1512 -0.6145 -0.4570
32609SOL    HW1 3663  10.902   6.995   3.714 -0.0433 -1.0424 -0.4028
32609SOL    HW2 3664  10.945   6.999   3.859 -0.1974 -2.0495 -0.3167
32610SOL     OW 3665   1.009   5.061  10.469 -0.0267  0.5579  0.3611
32610SOL    HW1 3666   1.008   5.154  10.488 -0.5395  0.5555  0.3591
32610SOL    HW2 3667   1.007   5.056  10.373  1.1558  0.5541  0.3260
32611SOL     OW 3668  10.142   4.370   8.110  0.3856  0.2120  0.3891
32611SOL    HW1 3669  10.100   4.422   8.041  1.3604  1.8161  0.9436
32611SOL    HW2 3670  10.226   4.345   8.074 -0.1753 -1.2427  0.0386
32612SOL     OW 3671   4.866   6.912   9.667  1.0597  0.0521  0.3778
32612SOL    HW1 3672   4.850   6.898   9.761  1.9369  1.1314  0.7263
32612SOL    HW2 3673   4.920   6.992   9.665 -1.2551  1.7067 -1.1935
32613SOL     OW 3674   8.693   1.123   6.437 -0.3520  0.0267  0.5118
32613SOL    HW1 3675   8.631   1.165   6.378  1.3182 -0.5614 -1.8062
32613SOL    HW2 3676   8.732   1.195   6.487 -1.8200  0.5277  0.9866
32614SOL     OW 3677   2.541   1.502   7.746  0.5764  0.1110 -0.1835
32614SOL    HW1 3678   2.541   1.573   7.682 -2.8343  1.0909  0.7105
32614SOL    HW2 3679   2.550   1.422   7.694  0.5461  1.0000 -1.6000
32615SOL     OW 3680   5.791   5.270  10.298  0.1011 -0.5417 -0.3042
32615SOL    HW1 3681   5.750   5.192  10.336 -0.8544 -1.3258 -2.7577
32615SOL    HW2 3682   5.718   5.319  10.261  0.9185  0.5469 -0.5131
32616SOL     OW 3683   9.269   8.670   9.608 -0.0367 -0.0038 -0.0296
32616SOL    HW1 3684   9.361   8.659   9.585  0.2530  0.8367  0.6540
32616SOL    HW2 3685   9.253   8.603   9.675  0.0182 -0.2805 -0.2907
32617SOL     OW 3686   4.498   4.234  10.105  0.0648  0.1097 -0.0137
32617SOL    HW1 3687   4.555   4.159  10.122  0.9776  1.3144  2.7371
32617SOL    HW2 3688   4.417   4.215  10.151 -0.2457  0.2012 -0.5103
32618SOL     OW 3689   7.580  10.049   7.149 -0.9543  0.3271  0.0855
32618SOL    HW1 3690   7.565   9.964   7.109  0.5051  0.2010 -0.2355
32618SOL    HW2 3691   7.518  10.108   7.104 -2.0132 -0.5483  0.3557
32619SOL     OW 3692   6.307   9.152   8.643 -0.0156  0.4890 -0.5391
32619SOL    HW1 3693   6.218   9.116   8.647  0.4873 -0.8426 -0.8715
32619SOL    HW2 3694   6.364   9.075   8.648  1.1366  1.3727  0.2969
32620SOL     OW 3695   3.835   1.318   0.785  0.3910 -0.0592 -0.2974
32620SOL    HW1 3696   3.821   1.265   0.863 -2.2504  0.8699 -0.0435
32620SOL    HW2 3697   3.776   1.392   0.795  2.0274  1.5692 -1.8937
32621SOL     OW 3698   8.040   3.710   8.446 -0.3620 -0.6800  0.3873
32621SOL    HW1 3699   8.108   3.758   8.493 -2.1326 -0.8314  3.3307
32621SOL    HW2 3700   8.068   3.618   8.451  0.3068 -0.5413 -0.4652
32622SOL     OW 3701   5.472   0.858   4.187 -0.0596  0.2101  0.0838
32622SOL    HW1 3702   5.438   0.778   4.149  0.2357 -0.4624  1.1979
32622SOL    HW2 3703   5.478   0.919   4.113  1.3963 -1.3374 -1.1349
32623SOL     OW 3704   7.590   6.563   5.923  0.2159 -0.2258  0.1617
32623SOL    HW1 3705   7.526   6.498   5.892 -0.9334  0.6759  0.5592
32623SOL    HW2 3706   7.675   6.521   5.910 -0.4914 -1.8828  0.5790
32624SOL     OW 3707   0.066   5.278   8.193 -0.4197 -0.1529 -0.1034
32624SOL    HW1 3708  -0.003   5.304   8.133 -0.3415 -0.1527 -0.1943
32624SOL    HW2 3709   0.140   5.256   8.136 -0.0675  0.6600  0.0276
32625SOL     OW 3710   3.142   8.194   3.780 -0.0970 -0.0818 -0.0532
32625SOL    HW1 3711   3.126   8.268   3.838  1.8340  0.7348 -0.4642
32625SOL    HW2 3712   3.143   8.118   3.838  3.5435  0.8915  1.4901
32626SOL     OW 3713   8.780   6.816   8.672 -0.1699  0.4993  0.6233
32626SOL    HW1 3714   8.800   6.723   8.679  0.7412  0.6343 -0.0895
32626SOL    HW2 3715   8.750   6.827   8.582 -2.2161  0.5569  1.2565
32627SOL     OW 3716   4.786   8.071   1.471  0.1448 -0.4335 -0.2151
32627SOL    HW1 3717   4.753   7.984   1.448 -0.5734 -0.0478 -0.6829
32627SOL    HW2 3718   4.711   8.129   1.460  0.9930  0.4991 -1.4199
32628SOL     OW 3719   7.811   7.433   2.424 -0.8688  0.7751 -0.1173
32628SOL    HW1 3720   7.857   7.453   2.505  0.0685 -0.6430 -0.2685
32628SOL    HW2 3721   7.719   7.427   2.450 -0.5738  0.2590  0.8661
32629SOL     OW 3722  10.551   5.307   3.360 -0.1821  0.7773  0.4102
32629SOL    HW1 3723  10.608   5.375   3.396 -0.7414  0.6872  1.5039
32629SOL    HW2 3724  10.466   5.349   3.351 -0.6527  0.1130  1.5553
32630SOL     OW 3725   0.207   2.902   4.926 -1.0440 -0.0446 -0.3656
32630SOL    HW1 3726   0.209   2.931   5.017  0.2114 -0.6854 -0.1567
32630SOL    HW2 3727   0.293   2.927   4.891 -1.5053  0.1771 -1.3758
32631SOL     OW 3728   5.170   6.232   7.934 -0.1715 -0.4043  0.1759
32631SOL    HW1 3729   5.098   6.256   7.992  0.3470  0.7385  0.3649
32631SOL    HW2 3730   5.181   6.308   7.877 -0.2264 -1.2447 -0.9768
32632SOL     OW 3731   0.831   6.679   9.559 -0.2163  0.2408  0.0465
32632SOL    HW1 3732   0.892   6.667   9.487 -0.4183 -1.6688  0.1463
32632SOL    HW2 3733   0.856   6.763   9.598  1.9541 -0.2016 -0.2804
32633SOL     OW 3734   6.299   4.723   9.343 -0.0055  0.0934 -0.1920
32633SOL    HW1 3735   6.260   4.636   9.340 -0.2408  0.2124 -0.5392
32633SOL    HW2 3736   6.226   4.784   9.335  0.0581  0.3396  0.9770
32634SOL     OW 3737   5.203   5.159   5.846  0.0477  0.5462 -0.4355
32634SOL    HW1 3738   5.261   5.195   5.913 -2.2810  1.1131  1.3877
32634SOL    HW2 3739   5.121   5.208   5.855 -1.5383 -1.7530 -1.3202
32635SOL     OW 3740   2.808   0.352   8.606  0.7045  0.4048 -0.3004
32635SOL    HW1 3741   2.901   0.362   8.582  1.0287 -1.6247 -0.0733
32635SOL    HW2 3742   2.765   0.328   8.524  0.4871  0.7227 -0.2805
32636SOL     OW 3743   3.550   7.928   5.572 -0.2513 -0.1258 -0.0924
32636SOL    HW1 3744   3.572   7.886   5.489  0.0950  0.7898 -0.4820
32636SOL    HW2 3745   3.532   8.019   5.548  1.1297  0.4713  0.9963
32637SOL     OW 3746   1.167   5.784   9.222 -0.2029  0.0298  0.7836
32637SOL    HW1 3747   1.188   5.877   9.215 -3.5112  0.7819 -1.3697
32637SOL    HW2 3748   1.093   5.779   9.282 -1.0739 -0.9542 -0.3003
32638SOL     OW 3749   6.233   2.328   7.157 -0.1492 -0.0133 -0.3119
32638SOL    HW1 3750   6.193   2.332   7.244  0.5595  0.9178 -0.0234
32638SOL    HW2 3751   6.166   2.287   7.102 -1.1567  0.7143  0.3537
32639SOL     OW 3752   5.254   3.569   0.032  0.2112 -0.2270  0.2042
32639SOL    HW1 3753   5.218   3.536  -0.050 -1.9847  0.9236  0.6263
32639SOL    HW2 3754   5.180   3.568   0.093  0.6801  2.7333  0.9933
32640SOL     OW 3755   7.014   2.731   1.265 -0.7757 -0.9390  0.0007
32640SOL    HW1 3756   7.107   2.730   1.243 -0.9354  1.1657 -1.0137
32640SOL    HW2 3757   7.007   2.674   1.341  1.3491 -1.1508  0.0980
32641SOL     OW 3758  10.652   4.234   0.740 -0.1728  0.0354 -0.3989
32641SOL    HW1 3759  10.587   4.164   0.749 -0.1977  0.2877  2.2641
32641SOL    HW2 3760  10.634   4.293   0.813  2.9851  0.1769  0.4242
32642SOL     OW 3761   4.920   7.001   2.190 -0.2834 -0.1707  0.7435
32642SOL    HW1 3762   4.840   7.034   2.229 -0.8303 -3.6677  2.9912
32642SOL    HW2 3763   4.988   7.017   2.256  0.5614  1.1477 -0.3888
32643SOL     OW 3764   9.845  10.624   7.331 -0.7689 -0.0102 -0.6897
32643SOL    HW1 3765   9.881  10.711   7.353 -0.7181 -0.0341 -0.6757
32643SOL    HW2 3766   9.822  10.630   7.238  0.0217 -0.2462 -0.9072
32644SOL     OW 3767   9.705   6.988   0.488 -0.0128  0.6011  0.6604
32644SOL    HW1 3768   9.611   6.974   0.498 -0.2941  0.6451 -1.4948
32644SOL    HW2 3769   9.741   6.901   0.471  0.1427  0.7424  0.2508
32645SOL     OW 3770   9.617   0.759   1.897  0.0524  0.5557 -0.0462
32645SOL    HW1 3771   9.633   0.837   1.950 -0.9219  0.2375  0.7394
32645SOL    HW2 3772   9.693   0.703   1.913  0.6455  1.2243 -0.4338
32646SOL     OW 3773   0.238   5.717   8.840  0.3065 -0.0558  0.2376
32646SOL    HW1 3774   0.149   5.684   8.827  1.0487 -1.8254 -0.6966
32646SOL    HW2 3775   0.256   5.770   8.762 -0.3653  1.4489  1.0585
32647SOL     OW 3776   6.382   3.631   1.964  0.2125 -0.0027  0.2141
32647SOL    HW1 3777   6.353   3.716   1.932 -0.1571 -0.0750  0.3564
32647SOL    HW2 3778   6.366   3.634   2.059 -2.4997 -1.2699 -0.1080
32648SOL     OW 3779  10.018   7.565   6.631  0.1989 -0.9828  0.0261
32648SOL    HW1 3780   9.924   7.570   6.613 -0.0505 -0.7277  1.2826
32648SOL    HW2 3781  10.025   7.503   6.704  1.1151 -1.7529 -0.6921
32649SOL     OW 3782   7.314   2.810   8.324  0.3145  0.2032  0.0369
32649SOL    HW1 3783   7.282   2.819   8.414 -2.2143  0.1973 -0.7784
32649SOL    HW2 3784   7.331   2.899   8.296 -2.1029  0.5734 -0.4765
32650SOL     OW 3785   9.828   6.203   2.152 -0.1665 -0.2872  0.3017
32650SOL    HW1 3786   9.834   6.212   2.057  2.4476 -1.4924  0.2541
32650SOL    HW2 3787   9.761   6.266   2.179 -0.6782  0.3600 -2.2706
32651SOL     OW 3788   1.834   9.785  10.587 -0.5648  0.3998 -0.3818
32651SOL    HW1 3789   1.799   9.761  10.501  0.1208 -0.7031 -0.3712
32651SOL    HW2 3790   1.792   9.725  10.648 -0.1795  0.4043 -0.1086
32652SOL     OW 3791   3.822   9.697  10.689  1.0233  0.1626  0.2930
32652SOL    HW1 3792   3.747   9.695  10.630  0.1594 -0.3388  1.3725
32652SOL    HW2 3793   3.869   9.777  10.665  0.3391  0.3127 -0.6157
32653SOL     OW 3794   5.466   4.235   2.190 -0.1906  0.8322 -0.3036
32653SOL    HW1 3795   5.483   4.156   2.139 -0.5118  0.2231  0.5002
32653SOL    HW2 3796   5.370   4.239   2.195 -0.1675  1.0543 -0.0245
32654SOL     OW 3797  10.536   6.653   9.754 -0.0280  0.1082  0.0002
32654SOL    HW1 3798  10.557   6.661   9.661 -0.5212  0.8617 -0.0517
32654SOL    HW2 3799  10.465   6.589   9.757 -1.6926  1.8537 -0.4051
32655SOL     OW 3800   2.884   6.428  10.724  0.0739 -0.1182  0.2331
32655SOL    HW1 3801   2.948   6.489  10.761 -0.7866  0.2048  1.2385
32655SOL    HW2 3802   2.877   6.454  10.632  0.1751  0.9108  0.4978
32656SOL     OW 3803   5.809   4.371   6.189  0.0555 -0.1321 -0.2040
32656SOL    HW1 3804   5.783   4.462   6.200  0.6074 -0.0156  0.2038
32656SOL    HW2 3805   5.782   4.328   6.270 -1.9899 -0.7855 -1.1727
32657SOL     OW 3806   4.520   8.415   0.291 -0.2076  0.1915 -0.2039
32657SOL    HW1 3807   4.577   8.449   0.223  0.9217 -0.3724  0.4266
32657SOL    HW2 3808   4.531   8.475   0.365  0.1748 -0.3453  0.1839
32658SOL     OW 3809   0.826   4.095   0.039  0.6203  0.7340 -0.1462
32658SOL    HW1 3810   0.918   4.083   0.062  0.7311 -0.5063 -1.1121
32658SOL    HW2 3811   0.795   4.007   0.018 -0.6864  1.1877 -0.1920
32659SOL     OW 3812   9.998   0.475   1.547  0.0693  1.0792  0.3727
32659SOL    HW1 3813   9.974   0.541   1.613 -3.1891  0.2883  0.1529
32659SOL    HW2 3814   9.980   0.392   1.590  0.0471  0.4786 -0.7801
32660SOL     OW 3815   0.819   4.194   7.355 -0.2077 -0.5286  1.0441
32660SOL    HW1 3816   0.884   4.263   7.352 -1.7081  0.8901 -0.8639
32660SOL    HW2 3817   0.870   4.113   7.350  1.4780  0.4364  1.6200
32661SOL     OW 3818   2.989   6.197   5.116  0.8554 -0.3513 -0.4260
32661SOL    HW1 3819   2.897   6.211   5.139  0.5148  2.1745 -2.8058
32661SOL    HW2 3820   2.987   6.127   5.051  0.4780  0.2395 -1.0675
32662SOL     OW 3821   6.102   4.345   9.743  0.3482 -0.0621 -0.0581
32662SOL    HW1 3822   6.036   4.399   9.787 -2.5442 -2.5888 -0.8894
32662SOL    HW2 3823   6.181   4.399   9.741 -1.2345  2.6110  2.3661
32663SOL     OW 3824   1.328   3.061   7.195 -0.6487 -0.1411  0.0095
32663SOL    HW1 3825   1.397   3.015   7.147  0.1387  0.5889  0.4110
32663SOL    HW2 3826   1.289   3.120   7.131  0.7370  1.1968  0.3413
32664SOL     OW 3827   4.645  10.095   9.946 -0.0785  0.3031 -0.2209
32664SOL    HW1 3828   4.613  10.175   9.988 -0.4730  0.4729 -0.8266
32664SOL    HW2 3829   4.739  10.109   9.937 -0.1809  0.8201 -0.5661
32665SOL     OW 3830   4.286   7.817   4.214  0.8539  0.3025  0.2800
32665SOL    HW1 3831   4.209   7.771   4.181 -0.1088  0.8781  1.6150
32665SOL    HW2 3832   4.328   7.755   4.273  1.5366 -0.0695 -0.5707
32666SOL     OW 3833   5.414   0.313   5.340 -0.0735  0.2111 -0.6907
32666SOL    HW1 3834   5.459   0.385   5.297  0.3272  0.0567 -0.5343
32666SOL    HW2 3835   5.397   0.250   5.269  1.6923 -0.6069 -0.4478
32667SOL     OW 3836   9.903   9.523   7.085 -0.2172  0.0831 -0.1760
32667SOL    HW1 3837   9.888   9.457   7.153  0.4546 -0.4744 -0.5612
32667SOL    HW2 3838   9.826   9.581   7.091 -0.5155 -0.3686  0.5731
32668SOL     OW 3839   9.234   1.066   6.721  0.3506 -0.0670 -0.1243
32668SOL    HW1 3840   9.200   1.154   6.737 -0.5109 -0.0954 -1.6269
32668SOL    HW2 3841   9.274   1.040   6.804 -0.4648  1.2506  0.7105
32669SOL     OW 3842   9.968   4.997   6.006  0.4204 -0.3032 -0.2674
32669SOL    HW1 3843   9.983   4.903   6.001  1.2340 -0.1290 -1.5372
32669SOL    HW2 3844   9.877   5.006   6.034  0.0633 -1.4636 -1.0048
32670SOL     OW 3845   0.537   6.522   5.575 -0.1551  0.1080 -0.4200
32670SOL    HW1 3846   0.529   6.485   5.487 -0.9155 -0.5543 -0.0921
32670SOL    HW2 3847   0.616   6.576   5.571  0.8938 -1.3904 -0.9898
32671SOL     OW 3848   3.334   6.412   7.627  0.0746 -0.3975 -0.1381
32671SOL    HW1 3849   3.280   6.333   7.621 -1.8455  0.8696 -0.1493
32671SOL    HW2 3850   3.284   6.479   7.581  0.8385  1.2666  1.3653
32672SOL     OW 3851   0.586   8.686  10.890  0.2576 -0.2347 -0.0035
32672SOL    HW1 3852   0.559   8.700  10.980  0.6881 -0.8226  0.2267
32672SOL    HW2 3853   0.677   8.655  10.896  0.6565  0.7466 -0.6995
32673SOL     OW 3854   7.213   0.169   5.822  0.5224  0.9496  0.1708
32673SOL    HW1 3855   7.172   0.083   5.832  0.1354  1.2874  1.9087
32673SOL    HW2 3856   7.297   0.152   5.780  0.3950 -0.2574  0.3812
32674SOL     OW 3857   3.522   7.143  10.837  0.0380  0.1981  0.0653
32674SOL    HW1 3858   3.609   7.180  10.822  0.1598  0.3624  1.1182
32674SOL    HW2 3859   3.469   7.174  10.763 -0.0234  2.9490  1.1884
32675SOL     OW 3860   7.403   5.636  10.263  0.0882 -0.4292  0.4925
32675SOL    HW1 3861   7.399   5.554  10.311  1.5808 -2.2208 -2.1740
32675SOL    HW2 3862   7.312   5.660  10.248 -0.4108 -2.3341  0.2394
32676SOL     OW 3863   1.821   4.680   3.532  0.0641 -0.1708  0.3272
32676SOL    HW1 3864   1.775   4.631   3.463  0.2609  1.3219 -0.9057
32676SOL    HW2 3865   1.764   4.671   3.608  0.1860 -2.4589  0.2255
32677SOL     OW 3866   4.853   4.984   4.882  0.0654  0.4417  0.6990
32677SOL    HW1 3867   4.805   4.980   4.964 -2.3893  1.3037 -0.6036
32677SOL    HW2 3868   4.823   5.065   4.840  1.2817  0.0702 -1.0193
32678SOL     OW 3869   9.897   3.267   2.466 -0.5254  0.4013  0.0305
32678SOL    HW1 3870   9.905   3.361   2.483 -0.7700  0.0238  2.6924
32678SOL    HW2 3871   9.810   3.244   2.499 -0.2082 -0.8854  0.0271
32679SOL     OW 3872   0.126  10.226   8.762  0.1560 -0.2657 -0.1803
32679SOL    HW1 3873   0.080  10.249   8.842  0.2591 -0.9597  0.0933
32679SOL    HW2 3874   0.062  10.237   8.692 -0.4706 -1.2854  0.2001
32680SOL     OW 3875   8.959   7.232   8.426  0.3930  0.3387 -0.8349
32680SOL    HW1 3876   9.054   7.239   8.411  0.5128  1.1023  0.1087
32680SOL    HW2 3877   8.952   7.186   8.510  0.0499  2.2104  0.2355
32681SOL     OW 3878  10.910   8.924   5.053  0.1550 -0.1361  0.4490
32681SOL    HW1 3879  10.900   8.961   4.965  0.9076 -1.4743 -0.2345
32681SOL    HW2 3880  10.824   8.935   5.093 -0.9224 -1.5151 -1.2988
32682SOL     OW 3881   3.897  10.856   9.640  0.1995 -0.3464 -0.4386
32682SOL    HW1 3882   3.810  10.878   9.608  0.1298 -0.8992 -0.6445
32682SOL    HW2 3883   3.911  10.766   9.611  0.5462 -0.5127  0.2135
32683SOL     OW 3884   3.847   2.185  10.059 -0.5498  0.6355 -0.1031
32683SOL    HW1 3885   3.769   2.175  10.113  0.3979 -0.8556  1.0651
32683SOL    HW2 3886   3.826   2.139   9.978  0.1244 -2.5576  1.3864
32684SOL     OW 3887   5.337   3.873   5.731 -0.2953  0.2201  0.2697
32684SOL    HW1 3888   5.390   3.818   5.789  2.0844  0.3570 -1.5936
32684SOL    HW2 3889   5.254   3.825   5.722 -1.3343  0.7820  4.5670
32685SOL     OW 3890   4.111   0.079   0.438 -0.1517 -0.4180 -0.2279
32685SOL    HW1 3891   4.085   0.057   0.349  0.6565 -0.6164 -0.4229
32685SOL    HW2 3892   4.036   0.127   0.474 -0.4148 -0.1973 -1.0586
32686SOL     OW 3893  10.324   6.667   2.800  0.1920  0.0399  0.7106
32686SOL    HW1 3894  10.292   6.598   2.858  0.0894  0.2817  0.9430
32686SOL    HW2 3895  10.293   6.748   2.839  0.1369  0.2074  0.3263
32687SOL     OW 3896   5.245   9.404   7.530  0.1661  0.4168 -0.4290
32687SOL    HW1 3897   5.216   9.314   7.543  0.3447  0.5727  1.3637
32687SOL    HW2 3898   5.339   9.397   7.516  0.0463  0.2711 -1.1934
32688SOL     OW 3899   7.170   3.483   4.474  0.2439 -0.2735  0.6725
32688SOL    HW1 3900   7.114   3.463   4.399  0.4366 -0.0278  0.4623
32688SOL    HW2 3901   7.149   3.415   4.538 -0.6997  0.1312  0.8117
32689SOL     OW 3902   1.779   6.946   5.047 -0.2814 -0.1872 -0.3443
32689SOL    HW1 3903   1.805   6.974   4.959 -1.6403 -1.2636 -1.1355
32689SOL    HW2 3904   1.744   7.025   5.087  0.1598  0.2729 -0.8394
32690SOL     OW 3905   2.459   6.739   6.195 -0.6428 -0.1226 -0.1255
32690SOL    HW1 3906   2.423   6.824   6.169  2.0488  0.7155 -1.4307
32690SOL    HW2 3907   2.481   6.750   6.288 -0.2588  0.6326 -0.2974
32691SOL     OW 3908  10.812   3.596   6.582  0.6144  0.4094  0.0605
32691SOL    HW1 3909  10.796   3.549   6.501 -0.2161  0.6824  0.0609
32691SOL    HW2 3910  10.743   3.662   6.586 -0.1125 -0.3779  1.5748
32692SOL     OW 3911   8.042   3.028   7.556 -0.6342  0.3302  0.2012
32692SOL    HW1 3912   7.985   2.979   7.497  0.3521 -1.0190  0.3099
32692SOL    HW2 3913   8.005   3.013   7.643 -0.3437 -0.2299  0.2325
32693SOL     OW 3914   2.957   6.270   1.379  0.0205  0.3059  0.1636
32693SOL    HW1 3915   2.953   6.176   1.360 -0.3007  0.7324 -2.0575
32693SOL    HW2 3916   2.903   6.311   1.312 -1.3988  1.9875  2.2084
32694SOL     OW 3917   0.389   8.239   6.758  0.2307  0.2439 -0.1784
32694SOL    HW1 3918   0.464   8.227   6.699  0.1932 -1.5187  0.0639
32694SOL    HW2 3919   0.313   8.236   6.701  0.2942  1.3836 -0.3466
32695SOL     OW 3920   1.507   5.417   9.959  0.0666  0.3168 -0.6904
32695SOL    HW1 3921   1.560   5.487   9.998 -0.2994  1.6102 -2.3832
32695SOL    HW2 3922   1.459   5.379  10.033  1.2190  1.0117  0.4571
32696SOL     OW 3923   7.491   8.013   6.455  0.2291 -0.2511  0.2136
32696SOL    HW1 3924   7.412   8.063   6.437  0.4492  1.1661  2.7289
32696SOL    HW2 3925   7.461   7.922   6.464 -0.6604 -0.1493 -1.3870
32697SOL     OW 3926   4.769   1.281   3.669 -0.2621  0.1131 -0.0504
32697SOL    HW1 3927   4.747   1.205   3.616 -0.3528 -0.2979  0.5650
32697SOL    HW2 3928   4.737   1.356   3.619 -2.2551 -0.4076  0.3739
32698SOL     OW 3929   2.391  10.639   9.975 -0.2452  0.1710 -0.5489
32698SOL    HW1 3930   2.460  10.657  10.038 -1.3659 -0.4968  0.9231
32698SOL    HW2 3931   2.363  10.725   9.945 -0.2357  0.5426  0.4759
32699SOL     OW 3932   9.977   1.832   2.833  0.2111  0.4424  0.0919
32699SOL    HW1 3933   9.992   1.898   2.900  0.9801 -0.3516  0.7239
32699SOL    HW2 3934   9.993   1.878   2.750 -1.6742  1.6814  0.3503
32700SOL     OW 3935   4.012   6.691   2.837  0.0698 -0.4744  0.3072
32700SOL    HW1 3936   4.006   6.597   2.853 -1.6953  0.1657  4.5653
32700SOL    HW2 3937   3.931   6.713   2.791 -0.1827 -0.8047  0.5961
32701SOL     OW 3938   3.012   8.936   0.009 -0.2016  0.3017 -0.1868
32701SOL    HW1 3939   2.950   8.893  -0.050  0.4288 -2.0202  0.6964
32701SOL    HW2 3940   2.966   8.938   0.093 -0.4891  2.1279 -0.3480
32702SOL     OW 3941   5.948   1.543   4.251 -0.4182  0.0591  0.0470
32702SOL    HW1 3942   5.943   1.554   4.346 -3.7241 -1.4475  0.1894
32702SOL    HW2 3943   5.864   1.573   4.219  1.0917  1.7806 -2.6662
32703SOL     OW 3944   6.864   1.357   2.094 -0.2110 -0.1846 -0.1388
32703SOL    HW1 3945   6.796   1.413   2.056  0.6250  1.7935  1.1717
32703SOL    HW2 3946   6.946   1.389   2.057  0.1860 -1.6330 -0.6030
32704SOL     OW 3947  10.364   6.073   1.127  0.3269 -0.0246  0.1650
32704SOL    HW1 3948  10.449   6.090   1.089  0.4309 -1.4304 -0.3220
32704SOL    HW2 3949  10.378   6.077   1.222  1.1496 -1.0549  0.1105
32705SOL     OW 3950   0.429  10.706   5.684  0.2726 -0.0597 -0.1313
32705SOL    HW1 3951   0.376  10.766   5.736  1.2965 -1.1997  2.4060
32705SOL    HW2 3952   0.369  10.672   5.618 -1.7818 -0.2103  1.6930
32706SOL     OW 3953   7.327   2.367   0.785  0.2345  0.1360 -0.5779
32706SOL    HW1 3954   7.301   2.278   0.810 -0.9027  0.6801  0.2524
32706SOL    HW2 3955   7.320   2.367   0.689 -1.0612 -0.3058 -0.5048
32707SOL     OW 3956   2.905  10.512   2.081  0.1526  0.6155 -0.2960
32707SOL    HW1 3957   2.954  10.581   2.037  1.1119  0.1770  0.0606
32707SOL    HW2 3958   2.971  10.464   2.131 -0.5689 -0.2969 -0.1996
32708SOL     OW 3959   0.134   1.399   3.002 -0.1041 -0.4982  0.2928
32708SOL    HW1 3960   0.160   1.307   3.011 -0.8257 -0.6634  0.7841
32708SOL    HW2 3961   0.175   1.427   2.920  0.6798 -1.0632  0.4814
32709SOL     OW 3962   7.433   6.377   2.148 -0.4237  0.3915 -0.2742
32709SOL    HW1 3963   7.418   6.286   2.123  2.4751 -0.4785  0.7998
32709SOL    HW2 3964   7.405   6.383   2.239  2.5126 -0.4748  0.8011
32710SOL     OW 3965   2.198   2.127  10.719 -0.0971 -0.3970  0.0241
32710SOL    HW1 3966   2.107   2.156  10.726 -0.3237 -1.2984  1.2227
32710SOL    HW2 3967   2.222   2.144  10.628 -0.6233  2.2175  0.2857
32711SOL     OW 3968   4.958   5.571   2.521 -0.1444 -0.2439  0.3405
32711SOL    HW1 3969   4.953   5.623   2.602 -0.0914 -2.3079  1.7535
32711SOL    HW2 3970   5.050   5.575   2.496 -0.0914  0.1158  0.5800
32712SOL     OW 3971   2.051   8.787   0.039  0.2098 -0.5580  0.2381
32712SOL    HW1 3972   2.142   8.801   0.012  0.5488  0.7749  1.9276
32712SOL    HW2 3973   2.055   8.713   0.099  0.1687 -0.5793  0.2141
32713SOL     OW 3974   6.664   8.378   2.617 -0.2401 -0.4025 -0.7902
32713SOL    HW1 3975   6.744   8.362   2.567 -0.5182 -0.5285 -1.2008
32713SOL    HW2 3976   6.653   8.473   2.615  0.8764 -0.2051  0.8098
32714SOL     OW 3977   3.627   2.245   1.338  0.3113  0.1581  0.3929
32714SOL    HW1 3978   3.607   2.263   1.247  2.1011 -1.1135 -0.3079
32714SOL    HW2 3979   3.663   2.328   1.372 -0.0092  0.5203 -0.1394
32715SOL     OW 3980  10.166   2.151   0.423 -0.2061 -0.1794 -0.3427
32715SOL    HW1 3981  10.232   2.194   0.369 -0.8381 -0.9699 -1.8261
32715SOL    HW2 3982  10.082   2.179   0.385 -0.7680  0.8701  1.5453
32716SOL     OW 3983   8.282   1.903   4.844  0.0980 -0.1622 -0.6219
32716SOL    HW1 3984   8.212   1.845   4.874 -1.3547  1.1102 -1.3886
32716SOL    HW2 3985   8.244   1.991   4.851  1.9527  0.6490 -0.2218
32717SOL     OW 3986   7.438   6.586   9.536 -0.0725  0.1388 -0.0536
32717SOL    HW1 3987   7.494   6.648   9.582 -0.5714  1.7410 -1.5079
32717SOL    HW2 3988   7.498   6.533   9.484  0.1431  2.3272 -2.1784
32718SOL     OW 3989   1.606   3.490   5.371  0.0937 -0.2435 -0.2739
32718SOL    HW1 3990   1.531   3.477   5.313  0.3986 -0.2559 -0.6735
32718SOL    HW2 3991   1.672   3.429   5.338  0.7088  0.6332 -0.6973
32719SOL     OW 3992   2.511  10.795   4.028 -0.7713  0.3326  0.0579
32719SOL    HW1 3993   2.507  10.728   3.959  0.0955  0.4957 -0.1597
32719SOL    HW2 3994   2.559  10.868   3.989 -0.1483  0.3777  0.8720
32720SOL     OW 3995   6.088   6.948   1.445  0.0425  0.1533  0.2009
32720SOL    HW1 3996   6.053   6.919   1.361  2.4770 -0.0115 -0.8623
32720SOL    HW2 3997   6.087   6.869   1.500 -1.5789  0.2678  0.3773
32721SOL     OW 3998   6.913   5.923   9.095 -0.3750  0.1774  0.1469
32721SOL    HW1 3999   6.936   5.855   9.032 -0.8261  0.6205 -0.5153
32721SOL    HW2 4000   6.997   5.957   9.126 -0.1502 -0.8988  0.7337
32722SOL     OW 4001   4.977  10.588   0.937 -0.5117 -0.3350  0.0718
32722SOL    HW1 4002   4.963  10.681   0.955 -0.0133 -0.4174  0.9639
32722SOL    HW2 4003   5.006  10.585   0.846  0.0962  0.4560  0.2272
32723SOL     OW 4004  10.766   7.443   6.350  0.7130 -0.4948 -0.0340
32723SOL    HW1 4005  10.757   7.536   6.370  2.3349 -0.4965  0.7985
32723SOL    HW2 4006  10.713   7.398   6.416 -1.5989 -0.1453 -1.5378
32724SOL     OW 4007   3.642   3.967   9.946  0.4912  0.6010  0.2661
32724SOL    HW1 4008   3.703   3.900   9.977 -1.2169 -1.2130 -0.0568
32724SOL    HW2 4009   3.577   3.973  10.016  0.0753  1.1939 -0.1648
32725SOL     OW 4010   3.298   0.495   2.005  0.4254  0.5832  0.2146
32725SOL    HW1 4011   3.279   0.568   1.946  0.9026  0.2786 -0.3266
32725SOL    HW2 4012   3.214   0.477   2.049 -0.0017  0.6567 -0.5551
32726SOL     OW 4013   1.936   7.749   0.830 -0.7965  0.1269 -0.1667
32726SOL    HW1 4014   1.995   7.792   0.891  0.3179  3.6752 -3.3228
32726SOL    HW2 4015   1.849   7.763   0.866 -0.2111  2.3761  0.5396
32727SOL     OW 4016   6.104   1.759   7.601 -0.4443  0.2917 -0.2046
32727SOL    HW1 4017   6.027   1.702   7.601  0.2744 -0.6910 -0.1843
32727SOL    HW2 4018   6.132   1.762   7.510 -0.8775  1.1935 -0.3260
32728SOL     OW 4019   4.800   2.869  10.358 -0.5225 -0.3891  0.7432
32728SOL    HW1 4020   4.807   2.935  10.289 -0.6927 -1.7224 -0.5751
32728SOL    HW2 4021   4.721   2.894  10.406  0.5689  1.6052  1.6604
32729SOL     OW 4022   5.184   1.379   1.598 -0.5099 -0.1504 -0.4003
32729SOL    HW1 4023   5.183   1.469   1.630  1.8889 -0.0920 -0.3518
32729SOL    HW2 4024   5.191   1.388   1.503  2.2007 -0.1903 -0.2710
32730SOL     OW 4025   9.890   8.665   5.196  0.0392 -0.3730 -0.3987
32730SOL    HW1 4026   9.964   8.640   5.140  0.1924 -0.8263 -0.0006
32730SOL    HW2 4027   9.813   8.651   5.141  0.2490  0.1774 -0.8454
32731SOL     OW 4028   9.939   6.914   5.594 -0.3933 -0.1590 -0.5480
32731SOL    HW1 4029  10.015   6.860   5.613  0.0749  0.5272 -0.4516
32731SOL    HW2 4030   9.944   6.931   5.499  0.0552  0.5880 -0.4016
32732SOL     OW 4031   3.073   2.441   1.406 -0.1833 -0.0152  0.3625
32732SOL    HW1 4032   3.073   2.402   1.493 -0.2035  2.0236  1.3376
32732SOL    HW2 4033   2.995   2.406   1.364 -0.4959 -0.5710  1.3789
32733SOL     OW 4034   5.630   5.624   0.981  0.4808 -0.3338  0.4288
32733SOL    HW1 4035   5.693   5.554   0.999 -0.0050 -1.3373 -1.5115
32733SOL    HW2 4036   5.555   5.580   0.941 -0.2438  1.1738  0.0293
32734SOL     OW 4037   2.407   9.705   1.431  0.4843  0.4814  0.3025
32734SOL    HW1 4038   2.346   9.775   1.455  0.7054  0.7610  0.0497
32734SOL    HW2 4039   2.464   9.744   1.365 -0.6220 -0.5246 -1.3079
32735SOL     OW 4040   0.010   0.875   4.383  0.1695 -0.4643  0.4222
32735SOL    HW1 4041  -0.055   0.910   4.444 -1.1516  0.1663 -1.2476
32735SOL    HW2 4042  -0.022   0.788   4.362  0.5229 -0.6127  0.4956
32736SOL     OW 4043   3.585   1.481   2.711 -0.1766 -0.2815  0.3084
32736SOL    HW1 4044   3.492   1.498   2.698 -0.0334 -0.6737 -1.4534
32736SOL    HW2 4045   3.619   1.561   2.751 -1.7261 -1.1290  3.5864
32737SOL     OW 4046   3.366   0.886   3.269 -0.0530  0.0939 -0.2562
32737SOL    HW1 4047   3.381   0.958   3.208  1.1785 -0.4734 -0.6603
32737SOL    HW2 4048   3.368   0.927   3.355 -0.7465  0.7437 -0.5413
32738SOL     OW 4049  10.465   1.565   2.351 -0.0302 -0.0176 -0.5327
32738SOL    HW1 4050  10.503   1.485   2.387 -1.6602  0.1099  1.6833
32738SOL    HW2 4051  10.427   1.537   2.268 -3.5627 -2.5925  1.6504
32739SOL     OW 4052   3.291  10.201   3.969  0.3435 -0.1633 -0.1550
32739SOL    HW1 4053   3.270  10.282   3.922 -0.3071 -0.9072 -1.1881
32739SOL    HW2 4054   3.212  10.181   4.018  0.8354  0.3159  0.8755
32740SOL     OW 4055   3.432   1.160   1.197  0.0129 -0.0101 -0.1472
32740SOL    HW1 4056   3.451   1.093   1.262  0.8033  0.2481 -0.1052
32740SOL    HW2 4057   3.348   1.197   1.226 -0.5681 -1.1400 -0.3184
32741SOL     OW 4058   0.748   4.574   8.093 -0.1800  0.5602 -0.2499
32741SOL    HW1 4059   0.815   4.546   8.155  0.4038  1.4298 -0.4729
32741SOL    HW2 4060   0.683   4.504   8.095  0.0720  0.3388  0.9673
32742SOL     OW 4061   4.528   1.740  10.134  0.1266  0.4099  0.0484
32742SOL    HW1 4062   4.577   1.661  10.158 -0.0669  0.1627 -0.3630
32742SOL    HW2 4063   4.588   1.787  10.076  0.8863  1.3652  1.5565
32743SOL     OW 4064   3.948   9.161   3.194 -0.2109  0.1679  0.5318
32743SOL    HW1 4065   3.985   9.076   3.173  0.8803  0.6756  0.2934
32743SOL    HW2 4066   3.881   9.176   3.128  0.8422  0.2637 -0.5388
32744SOL     OW 4067   4.180   5.555   5.961  0.0251  0.8967 -0.0677
32744SOL    HW1 4068   4.218   5.540   6.048  0.0999 -0.2795 -0.2890
32744SOL    HW2 4069   4.247   5.526   5.900 -0.4186  0.7807 -0.5031
32745SOL     OW 4070   4.583   3.848   9.322  0.4582 -0.4071  0.0341
32745SOL    HW1 4071   4.671   3.869   9.292  0.9717 -2.9006 -0.4306
32745SOL    HW2 4072   4.556   3.774   9.267 -1.6635 -0.1554  0.6299
32746SOL     OW 4073   5.118   2.377   5.050 -0.0188  0.2021 -0.1147
32746SOL    HW1 4074   5.091   2.292   5.016  0.9933 -0.3749  0.4996
32746SOL    HW2 4075   5.182   2.409   4.987 -1.7984  1.4496 -1.4218
32747SOL     OW 4076   9.368   2.766   1.903 -0.6759  0.1847  0.6320
32747SOL    HW1 4077   9.459   2.738   1.903 -1.0102 -1.0489  2.1654
32747SOL    HW2 4078   9.360   2.821   1.981 -1.4419 -0.5061  1.0600
32748SOL     OW 4079   6.683   6.217   1.151  0.4641 -0.1467 -0.0729
32748SOL    HW1 4080   6.707   6.298   1.196 -0.2394  0.8542 -1.4488
32748SOL    HW2 4081   6.743   6.213   1.077 -0.2028 -0.3323 -0.6017
32749SOL     OW 4082   8.743   2.705   0.005 -0.3516 -0.1341  0.3108
32749SOL    HW1 4083   8.819   2.750  -0.030  0.0056 -1.4405 -0.6687
32749SOL    HW2 4084   8.672   2.769  -0.001  0.0637  0.2102 -1.3523
32750SOL     OW 4085   3.092   0.008   2.790 -0.1206  0.2835 -0.7262
32750SOL    HW1 4086   3.025   0.044   2.731 -2.1106 -1.8187  0.1015
32750SOL    HW2 4087   3.070   0.044   2.876  1.1160  1.2001 -0.7735
32751SOL     OW 4088   9.739   4.736   1.219  0.5287  0.9060 -0.0307
32751SOL    HW1 4089   9.720   4.747   1.126  0.3920 -0.9651 -0.2678
32751SOL    HW2 4090   9.832   4.759   1.228  0.5200  1.1729 -0.6059
32752SOL     OW 4091   5.538   5.081  10.694  0.0273 -0.3947 -0.5285
32752SOL    HW1 4092   5.478   5.009  10.716  1.5865 -1.4165  0.5973
32752SOL    HW2 4093   5.492   5.160  10.724 -0.9764 -1.0785 -0.1973
32753SOL     OW 4094  10.124  10.170   7.909  0.1357 -0.2714 -0.0277
32753SOL    HW1 4095  10.204  10.209   7.943 -0.0100  0.0711 -0.0770
32753SOL    HW2 4096  10.108  10.216   7.826  0.4518 -1.0461 -0.5293
32754SOL     OW 4097   7.286   8.777   8.434 -1.1540  0.0779 -0.1236
32754SOL    HW1 4098   7.204   8.745   8.473 -0.1778 -0.2043  1.8348
32754SOL    HW2 4099   7.336   8.810   8.509  0.2222  0.9638 -1.3832
32755SOL     OW 4100   5.257   6.660   4.250 -0.3600  0.0079  0.0075
32755SOL    HW1 4101   5.340   6.658   4.203  0.6588 -0.4069  1.7257
32755SOL    HW2 4102   5.207   6.730   4.208  1.1944  0.8365 -0.5356
32756SOL     OW 4103  10.902   2.576   4.087  0.1469 -0.6836 -0.9564
32756SOL    HW1 4104  10.832   2.513   4.069  0.3224 -2.3940  3.1543
32756SOL    HW2 4105  10.857   2.649   4.129  0.5484 -1.0156  0.1004
32757SOL     OW 4106   1.192  10.069   1.200 -0.0596  0.1101  0.3819
32757SOL    HW1 4107   1.142  10.008   1.144 -1.3215  0.5698  0.9765
32757SOL    HW2 4108   1.156  10.155   1.179 -0.8690  0.2543  2.1742
32758SOL     OW 4109   7.090   2.194   9.977  0.1661  0.2815 -0.3273
32758SOL    HW1 4110   7.166   2.216   9.923 -0.8088 -0.7016 -2.2026
32758SOL    HW2 4111   7.117   2.114  10.023 -0.8923 -2.3382 -3.8804
32759SOL     OW 4112   7.533   4.648   9.266 -0.1989  0.0691 -0.2459
32759SOL    HW1 4113   7.608   4.693   9.305  0.2611  0.3498 -1.4084
32759SOL    HW2 4114   7.571   4.573   9.221 -0.6658 -0.0406 -0.4595
32760SOL     OW 4115   3.527   4.432   5.561  0.1289 -0.5133  1.2574
32760SOL    HW1 4116   3.515   4.432   5.656  0.0439  1.1609  1.2748
32760SOL    HW2 4117   3.589   4.503   5.545 -0.6885 -0.0555 -0.0316
32761SOL     OW 4118   8.076   6.430   5.303  0.2637 -0.0419  0.4429
32761SOL    HW1 4119   7.985   6.442   5.330  0.1338  2.0650 -0.6969
32761SOL    HW2 4120   8.085   6.335   5.291 -1.6040 -0.3559  1.1423
32762SOL     OW 4121   1.653  10.318   7.979  0.2461  0.0267 -0.2681
32762SOL    HW1 4122   1.633  10.226   7.996  3.4034 -0.6011  0.8329
32762SOL    HW2 4123   1.576  10.352   7.935 -1.3476 -2.9394 -0.0171
32763SOL     OW 4124   2.403   2.917   2.494  0.0323  0.4668 -0.3199
32763SOL    HW1 4125   2.377   2.836   2.451 -0.8478  0.8987 -0.6241
32763SOL    HW2 4126   2.322   2.952   2.531  0.6922  0.3150  1.3682
32764SOL     OW 4127   8.681   3.554   3.984  0.4412 -0.5588 -0.0296
32764SOL    HW1 4128   8.727   3.491   3.928  0.9989  0.0162 -0.2321
32764SOL    HW2 4129   8.747   3.580   4.048  0.1037 -0.4528  0.2739
32765SOL     OW 4130   9.572   1.734   5.195  0.3778  0.1758  0.0803
32765SOL    HW1 4131   9.644   1.793   5.218  0.2445  0.2807  0.2297
32765SOL    HW2 4132   9.493   1.780   5.225  0.0799  0.9017 -1.7092
32766SOL     OW 4133   6.458   3.058   4.383 -0.0750 -0.2650 -0.1134
32766SOL    HW1 4134   6.536   3.005   4.396 -1.0744 -1.6570  0.3488
32766SOL    HW2 4135   6.487   3.148   4.401  2.5350  0.0009 -4.1942
32767SOL     OW 4136   2.546   9.535   8.710  0.3759 -0.0875 -0.5753
32767SOL    HW1 4137   2.560   9.454   8.662  0.5106 -0.2782 -0.2208
32767SOL    HW2 4138   2.479   9.582   8.660 -1.4488 -1.4530  0.4612
32768SOL     OW 4139   2.585   6.383   5.332 -0.4260  0.0245  0.2663
32768SOL    HW1 4140   2.524   6.332   5.279 -0.1619 -0.3276  0.2991
32768SOL    HW2 4141   2.609   6.325   5.404  0.9712 -0.3507 -0.4537
32769SOL     OW 4142   6.035   3.459   4.811  0.5808  0.4010 -1.0051
32769SOL    HW1 4143   5.987   3.465   4.894  1.0214  0.2123 -0.7271
32769SOL    HW2 4144   6.122   3.493   4.833  0.5446  0.8204 -1.5202
32770SOL     OW 4145   2.148   9.028   8.469  0.1726 -0.3129  0.5055
32770SOL    HW1 4146   2.162   9.104   8.413 -0.1976 -1.6250 -1.4583
32770SOL    HW2 4147   2.078   9.055   8.529 -0.4075  0.6716 -0.5814
32771SOL     OW 4148   6.211   4.156   1.006 -0.8059  0.1254 -0.3000
32771SOL    HW1 4149   6.161   4.186   1.081 -1.3356 -2.0011  0.2636
32771SOL    HW2 4150   6.276   4.225   0.991 -2.5741  1.9869  0.2158
32772SOL     OW 4151   9.338   9.532   6.357  0.2396  0.7171  0.2617
32772SOL    HW1 4152   9.277   9.561   6.289 -0.3526  0.0177  0.4833
32772SOL    HW2 4153   9.345   9.437   6.343  0.2434  0.5944  1.0739
32773SOL     OW 4154   3.766   6.754   7.219 -0.0386 -0.5212  0.3508
32773SOL    HW1 4155   3.778   6.697   7.296 -1.0410 -0.1667  0.7866
32773SOL    HW2 4156   3.855   6.775   7.192  0.3673 -2.3417  0.1289
32774SOL     OW 4157   6.758   0.682   1.122 -0.1643  0.1014  0.4702
32774SOL    HW1 4158   6.850   0.688   1.096 -0.9278 -0.8916 -2.8684
32774SOL    HW2 4159   6.753   0.601   1.173  0.3101 -1.8179 -2.3145
32775SOL     OW 4160  10.302   7.812   5.172  0.6277 -0.2630 -0.4990
32775SOL    HW1 4161  10.267   7.770   5.094  0.4014 -0.7251 -0.1510
32775SOL    HW2 4162  10.252   7.774   5.244  1.8351 -0.9429  0.0143
32776SOL     OW 4163   6.727   5.022   5.324  0.4526 -0.0853  0.0735
32776SOL    HW1 4164   6.654   4.983   5.276 -1.3060  0.4667  2.1470
32776SOL    HW2 4165   6.696   5.110   5.347  1.8417  0.2096  0.8998
32777SOL     OW 4166  10.311   5.921   3.579  0.6435  0.2640 -0.0543
32777SOL    HW1 4167  10.267   5.860   3.520  1.6540 -0.2958 -0.2438
32777SOL    HW2 4168  10.240   5.972   3.618 -0.1391 -0.3426 -0.6596
32778SOL     OW 4169   6.499   5.553   6.057  0.0444  0.4788 -0.3850
32778SOL    HW1 4170   6.414   5.579   6.021  0.7255  1.3144 -1.4621
32778SOL    HW2 4171   6.562   5.574   5.988  0.9744 -1.6567 -0.2673
32779SOL     OW 4172   9.051   4.511   6.335 -0.4489  0.7032  0.3450
32779SOL    HW1 4173   9.127   4.506   6.277 -2.1492  1.9872 -2.1852
32779SOL    HW2 4174   8.990   4.568   6.289 -2.6380  0.3962  2.6627
32780SOL     OW 4175   0.343   6.544   7.980  0.4210 -0.0158 -0.0377
32780SOL    HW1 4176   0.326   6.487   7.905 -0.5107 -0.6823  0.6594
32780SOL    HW2 4177   0.386   6.621   7.942 -0.8730  0.0853 -1.3845
32781SOL     OW 4178   1.541   8.575   9.110  0.6576 -0.3482 -0.0717
32781SOL    HW1 4179   1.450   8.602   9.098  0.6008  0.0495  1.1375
32781SOL    HW2 4180   1.581   8.588   9.024  0.9420  4.6931  0.5031
32782SOL     OW 4181   8.094   0.944   3.196  0.7509 -0.0318  0.8146
32782SOL    HW1 4182   8.083   0.905   3.283 -0.9046 -1.0911  0.1884
32782SOL    HW2 4183   8.051   1.029   3.202 -0.8859 -0.7964  0.6295
32783SOL     OW 4184   6.729   5.660   4.445 -0.0794  0.7121 -0.2062
32783SOL    HW1 4185   6.739   5.664   4.540  0.3764  1.3754 -0.2792
32783SOL    HW2 4186   6.697   5.747   4.421 -0.6413  0.3991 -0.6124
32784SOL     OW 4187   6.696   5.185   8.094  0.0766  0.3719  0.0814
32784SOL    HW1 4188   6.659   5.265   8.057 -0.6143 -0.3602 -0.8768
32784SOL    HW2 4189   6.791   5.194   8.081 -0.0974  0.3802 -1.4546
32785SOL     OW 4190   6.197   3.997   0.627 -0.1439  0.0765  0.7186
32785SOL    HW1 4191   6.229   4.075   0.581  0.2614  0.0568  0.9619
32785SOL    HW2 4192   6.173   4.029   0.714 -1.8377  0.3110  0.2151
32786SOL     OW 4193   5.563   4.623   3.321  0.0899 -0.0394 -0.2525
32786SOL    HW1 4194   5.611   4.581   3.392 -0.6040  1.2224  1.0219
32786SOL    HW2 4195   5.614   4.701   3.300 -1.5292  1.6033  1.4725
32787SOL     OW 4196   1.865   0.954   6.124 -0.4385 -0.0926 -0.0955
32787SOL    HW1 4197   1.885   1.042   6.093  1.7113 -0.1354  0.9643
32787SOL    HW2 4198   1.775   0.938   6.096 -0.2030  1.6444 -2.0513
32788SOL     OW 4199   1.161  10.854   1.225 -0.5638  0.2719 -0.2746
32788SOL    HW1 4200   1.080  10.804   1.220 -1.8196  2.3191 -3.2391
32788SOL    HW2 4201   1.145  10.920   1.292 -1.2348  0.4530 -0.6099
32789SOL     OW 4202   3.237   6.788   1.967 -0.2211 -0.0440  0.1777
32789SOL    HW1 4203   3.255   6.877   1.937 -0.7640 -0.3174 -0.9954
32789SOL    HW2 4204   3.214   6.798   2.060 -0.9945  1.1279 -0.1247
32790SOL     OW 4205   1.503   4.363  10.613 -0.1376  0.6300  0.0787
32790SOL    HW1 4206   1.470   4.414  10.539  0.2638  0.6695 -0.0725
32790SOL    HW2 4207   1.556   4.294  10.574 -0.0401  0.5658  0.3213
32791SOL     OW 4208  10.021   3.433   6.894  0.5379  0.7912  0.3081
32791SOL    HW1 4209  10.115   3.415   6.893  0.4252  0.1762  0.1979
32791SOL    HW2 4210   9.992   3.418   6.804  0.5029  1.9576  0.1130
32792SOL     OW 4211   9.110   2.171   4.812 -0.3102  0.3366  0.7235
32792SOL    HW1 4212   9.160   2.151   4.891 -1.7845 -0.3431  1.5051
32792SOL    HW2 4213   9.175   2.169   4.742  1.1387  1.5136  1.9580
32793SOL     OW 4214  10.223  10.118   1.551  0.0071 -0.0022 -0.0028
32793SOL    HW1 4215  10.294  10.158   1.501 -0.5625  2.3430  0.9042
32793SOL    HW2 4216  10.143  10.156   1.515 -0.6996 -1.3196  0.0992
32794SOL     OW 4217  10.180   7.575   8.159 -0.0165 -0.4231 -0.5135
32794SOL    HW1 4218  10.254   7.569   8.099 -0.3685  1.2729 -1.1829
32794SOL    HW2 4219  10.190   7.500   8.217  0.7468 -1.7106 -2.2204
32795SOL     OW 4220   0.058   6.939   8.633  0.2154  0.2442  0.4418
32795SOL    HW1 4221   0.061   6.908   8.542 -0.6679  0.2550  0.4037
32795SOL    HW2 4222  -0.023   6.989   8.638 -1.0744 -1.8509  1.9075
32796SOL     OW 4223   3.214   2.463   4.161 -0.0657  0.1717  0.3165
32796SOL    HW1 4224   3.280   2.528   4.183  0.6098 -0.7190  1.0194
32796SOL    HW2 4225   3.191   2.482   4.071  3.7680 -1.5994 -1.2677
32797SOL     OW 4226  10.265   8.357   9.179 -0.0463 -0.1291 -0.0127
32797SOL    HW1 4227  10.249   8.339   9.086 -0.7574  0.3375  0.0127
32797SOL    HW2 4228  10.340   8.302   9.201  0.6183  0.3356 -1.0550
32798SOL     OW 4229   3.611   7.259   9.820  0.2816  0.1777 -0.4816
32798SOL    HW1 4230   3.554   7.265   9.743  0.5789  0.8149 -0.6659
32798SOL    HW2 4231   3.558   7.293   9.892  1.2159  3.3409 -1.1162
32799SOL     OW 4232   8.478   3.971   8.091 -0.1840 -0.5084  0.0090
32799SOL    HW1 4233   8.435   3.969   8.177  1.4436 -0.6846  0.8770
32799SOL    HW2 4234   8.494   3.879   8.071 -1.1950 -0.5060 -0.8394
32800SOL     OW 4235   2.852   4.987   9.790  0.7734  0.6391 -0.0131
32800SOL    HW1 4236   2.842   4.953   9.701 -1.1968 -0.3960  0.5581
32800SOL    HW2 4237   2.860   5.082   9.779  3.3348  0.3642 -1.4315
32801SOL     OW 4238   7.290   3.810   8.467  0.1530 -0.0695 -0.2518
32801SOL    HW1 4239   7.269   3.827   8.375  1.0778 -0.7149 -0.5928
32801SOL    HW2 4240   7.376   3.768   8.465  0.0251 -0.4233  0.8865
32802SOL     OW 4241  10.104   4.009   3.326 -0.1200 -0.0271 -0.2499
32802SOL    HW1 4242  10.022   3.960   3.334 -0.7610  0.8817 -1.0918
32802SOL    HW2 4243  10.167   3.957   3.376 -1.0109 -1.1757 -0.2689
32803SOL     OW 4244   4.628   0.809   1.657 -0.3563 -0.3298  0.0530
32803SOL    HW1 4245   4.717   0.821   1.689  0.3427 -2.1441 -1.0470
32803SOL    HW2 4246   4.587   0.895   1.667  0.7835  0.0271  2.6647
32804SOL     OW 4247   1.676   6.154   7.919 -0.2660 -0.2024 -0.7375
32804SOL    HW1 4248   1.629   6.162   8.002  0.8961  0.0740 -0.0832
32804SOL    HW2 4249   1.719   6.068   7.923 -1.2443 -0.7649 -1.6348
32805SOL     OW 4250   7.427   4.224   2.803 -0.7734 -0.3631 -0.3065
32805SOL    HW1 4251   7.472   4.205   2.885 -1.8313  0.3110  0.4672
32805SOL    HW2 4252   7.493   4.214   2.735  0.2004 -0.6311  0.6639
32806SOL     OW 4253  10.076   6.215   0.555 -0.1793  0.0526  0.1727
32806SOL    HW1 4254  10.106   6.163   0.480 -1.9428  0.6976 -1.0351
32806SOL    HW2 4255   9.984   6.232   0.537 -0.8711 -0.3896  2.8670
32807SOL     OW 4256   2.753   0.800   0.976 -0.4587  0.2425  0.1339
32807SOL    HW1 4257   2.770   0.772   1.066  0.4947 -1.6945 -0.5849
32807SOL    HW2 4258   2.697   0.877   0.985  1.1499  1.2553  2.4162
32808SOL     OW 4259   5.437   1.827   1.985  0.2303  0.5503 -0.4562
32808SOL    HW1 4260   5.394   1.889   1.925 -2.2587  0.3455  0.9755
32808SOL    HW2 4261   5.387   1.834   2.066  1.2527 -1.7691  0.4576
32809SOL     OW 4262   0.207   1.788   3.543  0.2505  0.1098  0.1928
32809SOL    HW1 4263   0.270   1.799   3.472  0.7995 -0.8674  0.5039
32809SOL    HW2 4264   0.245   1.837   3.616  1.7099 -2.0577  0.9899
32810SOL     OW 4265   3.168   9.945   4.548 -0.1703  0.5811  0.1017
32810SOL    HW1 4266   3.200   9.855   4.545 -1.6030 -0.0177 -3.7885
32810SOL    HW2 4267   3.073   9.937   4.542 -0.3575  2.3404  0.1954
32811SOL     OW 4268   3.314   2.799   9.567  0.0277  0.3313  0.3420
32811SOL    HW1 4269   3.238   2.760   9.525  0.2252 -1.1242  1.2355
32811SOL    HW2 4270   3.369   2.724   9.590  2.1466  1.3708 -1.0130
32812SOL     OW 4271   7.014   8.580  10.058  0.1344 -0.6418 -0.2345
32812SOL    HW1 4272   6.965   8.515  10.108 -0.2227 -1.0442 -1.0903
32812SOL    HW2 4273   7.019   8.544   9.970  2.0517 -0.6378 -0.1546
32813SOL     OW 4274   8.480   6.880   2.421 -0.2633 -0.4848  0.0429
32813SOL    HW1 4275   8.455   6.797   2.461 -1.1885 -0.4313 -0.4123
32813SOL    HW2 4276   8.576   6.878   2.420 -0.2546 -1.0312  1.0974
32814SOL     OW 4277   0.272   5.112   0.650  0.5748 -0.5581 -0.1790
32814SOL    HW1 4278   0.338   5.123   0.719 -0.4904  0.0773  0.7891
32814SOL    HW2 4279   0.189   5.111   0.698 -0.1687 -0.4718 -1.4400
32815SOL     OW 4280   0.457   0.215   0.523 -0.1677  0.2731 -0.9348
32815SOL    HW1 4281   0.483   0.240   0.612  0.2365  0.6008 -1.1397
32815SOL    HW2 4282   0.373   0.258   0.510 -1.2881 -1.5186  0.0617
32816SOL     OW 4283   0.267   1.280   3.870  0.6839 -0.1946 -0.1472
32816SOL    HW1 4284   0.285   1.370   3.842  1.3407 -0.6464 -1.2198
32816SOL    HW2 4285   0.304   1.225   3.802  1.1192 -1.3180  0.9548
32817SOL     OW 4286   2.701   9.953   8.725  0.5809  0.5498 -0.0796
32817SOL    HW1 4287   2.615   9.938   8.686  0.1996  0.5001  0.7675
32817SOL    HW2 4288   2.702  10.047   8.746  0.8445  0.6077 -0.3442
32818SOL     OW 4289   7.047   3.128  10.185  0.5272  0.0095  0.4362
32818SOL    HW1 4290   6.959   3.154  10.161  0.1592 -0.3864  1.3148
32818SOL    HW2 4291   7.059   3.041  10.146  0.1199 -0.4097  1.2246
32819SOL     OW 4292   8.137   0.946   5.686 -0.2541  0.3799  0.0251
32819SOL    HW1 4293   8.126   1.041   5.692 -0.7588  0.3059  0.2958
32819SOL    HW2 4294   8.123   0.926   5.594  0.6580  0.6639 -0.1890
32820SOL     OW 4295   9.211   9.014   9.903 -0.3906 -0.6254 -0.0237
32820SOL    HW1 4296   9.205   9.086   9.965 -0.2445  0.4560 -1.2181
32820SOL    HW2 4297   9.261   8.947   9.949  0.9439  0.6841  0.5418
32821SOL     OW 4298   9.224   6.147   4.338 -0.2192  0.2313 -0.0747
32821SOL    HW1 4299   9.132   6.173   4.334 -0.0747  0.8147  0.2581
32821SOL    HW2 4300   9.223   6.053   4.321 -0.9387  0.1181  0.5389
32822SOL     OW 4301   2.392   0.826   5.141 -0.0041  0.4457 -0.2837
32822SOL    HW1 4302   2.387   0.896   5.077 -1.0257  0.5795 -0.0760
32822SOL    HW2 4303   2.406   0.747   5.090 -1.4394  0.4685 -0.7302
32823SOL     OW 4304   1.746   8.985   6.408 -0.3059  0.6974 -0.1784
32823SOL    HW1 4305   1.681   9.052   6.389 -1.9823 -0.3159  1.6608
32823SOL    HW2 4306   1.696   8.909   6.437  1.5742 -1.0687 -1.2548
32824SOL     OW 4307   6.019   1.193   0.528  0.1131 -0.1129 -0.2804
32824SOL    HW1 4308   6.081   1.238   0.586  1.6513 -0.1532 -1.7808
32824SOL    HW2 4309   6.011   1.105   0.564  0.9828 -0.1096 -0.0518
32825SOL     OW 4310   7.288   5.802   8.553 -0.3321 -0.1786 -0.1556
32825SOL    HW1 4311   7.310   5.893   8.532 -3.2590  0.2723 -1.8270
32825SOL    HW2 4312   7.234   5.808   8.632 -0.4317 -0.4841 -0.1987
32826SOL     OW 4313   8.422   2.501   6.993  0.3568 -0.3506  0.1943
32826SOL    HW1 4314   8.398   2.418   6.952  1.0889  0.2307 -1.5155
32826SOL    HW2 4315   8.473   2.547   6.926 -1.6092  2.2982  0.3369
32827SOL     OW 4316   6.004   3.447   2.311  0.1466  0.1463  0.1223
32827SOL    HW1 4317   6.063   3.373   2.296  1.2267  0.8198  0.8610
32827SOL    HW2 4318   5.961   3.427   2.394 -1.8234 -1.0426 -1.1137
32828SOL     OW 4319   8.658   9.857   9.154  0.1847  1.0206  0.0793
32828SOL    HW1 4320   8.649   9.949   9.126 -1.2328  0.2706 -2.1763
32828SOL    HW2 4321   8.746   9.832   9.125 -0.4840  0.8851 -2.0392
32829SOL     OW 4322   4.409  10.851  10.909  0.2807  0.1681 -0.0566
32829SOL    HW1 4323   4.439  10.760  10.900  0.1087  0.2197 -1.3757
32829SOL    HW2 4324   4.467  10.901  10.852  0.1606  0.8407  0.4027
32830SOL     OW 4325   1.061   2.361   2.572  0.3734  0.4869  0.0657
32830SOL    HW1 4326   1.079   2.280   2.619  0.5422  0.9243  0.7723
32830SOL    HW2 4327   1.062   2.336   2.479  2.8423  0.1245  0.1201
32831SOL     OW 4328   0.015   6.678   3.817  0.2582 -0.5160 -0.4338
32831SOL    HW1 4329  -0.063   6.733   3.828  0.5315 -0.3165  0.6653
32831SOL    HW2 4330   0.088   6.740   3.820  0.6210 -0.9792  1.6582
32832SOL     OW 4331   9.525   8.649   6.795 -0.6606  0.2958 -0.0585
32832SOL    HW1 4332   9.567   8.735   6.802 -1.4269  0.5372  2.3271
32832SOL    HW2 4333   9.461   8.659   6.725  1.0497  0.8327 -1.6313
32833SOL     OW 4334  10.356   3.826   4.379  0.3456 -0.4112  0.2825
32833SOL    HW1 4335  10.280   3.785   4.420 -0.3243 -0.6745 -1.1405
32833SOL    HW2 4336  10.425   3.760   4.383  0.7645  0.1013  2.2611
32834SOL     OW 4337   0.007   9.975   7.124  0.7069 -0.4141  0.5395
32834SOL    HW1 4338  -0.053   9.988   7.198  0.6796 -1.7015  0.7709
32834SOL    HW2 4339   0.009   9.880   7.112  0.0530 -0.1836 -1.6803
32835SOL     OW 4340   9.348   5.052   7.971 -0.2717 -0.2868  0.0763
32835SOL    HW1 4341   9.390   5.117   8.027 -2.4054 -0.1254  1.6007
32835SOL    HW2 4342   9.301   5.103   7.906 -1.8328 -0.2291  1.1893
32836SOL     OW 4343   9.726   0.448   4.886  0.3037  0.3069 -0.5238
32836SOL    HW1 4344   9.820   0.439   4.902  0.0671  1.2775  1.6644
32836SOL    HW2 4345   9.715   0.540   4.864 -0.1380  0.1639 -0.9046
32837SOL     OW 4346   7.899   2.704   4.858 -0.2802 -0.1267  0.8732
32837SOL    HW1 4347   7.868   2.651   4.784  0.7041 -0.7021  0.8533
32837SOL    HW2 4348   7.878   2.653   4.935  3.5840 -2.2832  0.7512
32838SOL     OW 4349   1.733   3.310   4.106  0.2297  0.0693  0.2897
32838SOL    HW1 4350   1.712   3.248   4.037 -0.2827 -0.6035  1.0368
32838SOL    HW2 4351   1.806   3.270   4.153  0.5348  0.4961  0.1892
32839SOL     OW 4352   9.471   1.264   9.317 -0.1871 -0.3876  0.4803
32839SOL    HW1 4353   9.547   1.272   9.259  1.2593 -0.3177  2.2796
32839SOL    HW2 4354   9.396   1.281   9.260  1.0593 -1.2028 -1.5523
32840SOL     OW 4355   1.081   4.373  10.237 -0.2914 -0.1591  0.2486
32840SOL    HW1 4356   1.096   4.464  10.263  0.8508  0.1506 -1.3623
32840SOL    HW2 4357   1.018   4.340  10.302  0.9401  1.0910  2.1965
32841SOL     OW 4358   2.296  10.414   8.083  0.3843 -0.0898 -0.4200
32841SOL    HW1 4359   2.362  10.390   8.148  0.0830 -2.0011 -0.7771
32841SOL    HW2 4360   2.313  10.507   8.065  2.1421 -0.2134  0.4236
32842SOL     OW 4361   2.645  10.339   0.097 -0.1004 -0.3606 -0.1362
32842SOL    HW1 4362   2.580  10.409   0.088  0.3881  0.0491 -0.5429
32842SOL    HW2 4363   2.604  10.275   0.155 -0.3618  0.4821  0.6191
32843SOL     OW 4364   2.411   2.086   4.638  0.1026  0.2586  0.2788
32843SOL    HW1 4365   2.346   2.124   4.578  0.3472 -1.1460 -0.9243
32843SOL    HW2 4366   2.485   2.146   4.634 -0.2324  0.6603 -0.1068
32844SOL     OW 4367   6.093   8.744   7.711 -0.1529 -0.0947 -0.1056
32844SOL    HW1 4368   6.044   8.738   7.793  1.6264  1.3567  1.1253
32844SOL    HW2 4369   6.025   8.756   7.644 -1.5445  1.6118  1.4936
32845SOL     OW 4370   0.042   9.017   8.970  0.0473  0.1025 -0.0531
32845SOL    HW1 4371  -0.050   9.040   8.957  0.2923  0.0156 -2.3422
32845SOL    HW2 4372   0.039   8.932   9.013 -0.9537 -0.1632 -0.6083
32846SOL     OW 4373   3.162   4.581   0.142  0.2134  0.2726  0.5538
32846SOL    HW1 4374   3.082   4.610   0.098 -0.4366  0.9180  2.0813
32846SOL    HW2 4375   3.185   4.499   0.099 -0.8775  0.4193 -0.3659
32847SOL     OW 4376   9.174   7.347   1.594  0.2301 -0.1046  0.2060
32847SOL    HW1 4377   9.111   7.415   1.615 -1.1018 -1.4608  0.8337
32847SOL    HW2 4378   9.132   7.266   1.623  1.5488 -1.2506 -0.9148
32848SOL     OW 4379   5.369   4.616   8.372  0.6184  0.2784  0.1676
32848SOL    HW1 4380   5.445   4.558   8.385 -0.5053 -1.3558 -0.2590
32848SOL    HW2 4381   5.406   4.704   8.375  2.2865 -0.4079  1.6456
32849SOL     OW 4382   1.438   9.635   6.749 -0.1555 -0.1031  0.3847
32849SOL    HW1 4383   1.487   9.696   6.695 -1.9093  0.9478 -0.1235
32849SOL    HW2 4384   1.502   9.599   6.810  1.3896  0.4937 -0.8291
32850SOL     OW 4385   5.879   0.422   2.433  0.1105 -0.4846  0.1699
32850SOL    HW1 4386   5.878   0.449   2.341 -0.8702 -0.7593  0.0834
32850SOL    HW2 4387   5.942   0.480   2.474  0.5105 -0.3085 -0.6676
32851SOL     OW 4388   3.471   0.341   2.131 -0.0503  0.0247 -0.0952
32851SOL    HW1 4389   3.460   0.368   2.222 -1.8714 -1.2684  0.1173
32851SOL    HW2 4390   3.414   0.399   2.081  0.3861  0.2510 -0.3389
32852SOL     OW 4391   2.569   6.866  10.221  0.0034 -0.9163  0.5916
32852SOL    HW1 4392   2.501   6.859  10.288  0.9433  1.4700  1.9316
32852SOL    HW2 4393   2.526   6.911  10.148 -0.5849 -2.0476  0.2154
32853SOL     OW 4394   1.437   3.563  10.467  0.5409  0.2742  0.3441
32853SOL    HW1 4395   1.503   3.512  10.420 -0.0398  0.8457 -1.1433
32853SOL    HW2 4396   1.355   3.544  10.422 -0.1718  0.3016  1.5839
32854SOL     OW 4397   3.930   5.262   7.276 -0.1312  0.2084  0.1403
32854SOL    HW1 4398   4.026   5.270   7.271 -0.1520  0.7532  0.4591
32854SOL    HW2 4399   3.912   5.172   7.249  0.3289  0.5979 -1.5964
32855SOL     OW 4400   4.464   4.814   5.053 -0.3481 -0.7747 -0.1208
32855SOL    HW1 4401   4.386   4.837   5.001 -0.9966 -2.0884  0.2229
32855SOL    HW2 4402   4.430   4.803   5.142  0.4390 -0.3024  0.2425
32856SOL     OW 4403   2.270   2.006   8.676  0.2294  0.0882  0.1334
32856SOL    HW1 4404   2.182   1.970   8.691  0.2659  0.4833  1.4281
32856SOL    HW2 4405   2.270   2.031   8.583 -1.1486  0.4097  0.1949
32857SOL     OW 4406   6.187   7.474   4.349  0.0193  0.4097  0.0460
32857SOL    HW1 4407   6.104   7.491   4.393  1.1932  2.0684  1.7718
32857SOL    HW2 4408   6.239   7.424   4.412  0.5129 -0.2259 -0.8350
32858SOL     OW 4409   9.791   4.127   9.899 -0.0384 -0.2433 -0.8638
32858SOL    HW1 4410   9.870   4.089   9.937 -0.4731 -0.5544 -0.2496
32858SOL    HW2 4411   9.720   4.100   9.958 -0.6027  0.0382 -1.3939
32859SOL     OW 4412   3.305   1.007   3.876 -0.1321 -0.4724  0.5065
32859SOL    HW1 4413   3.237   1.052   3.927  0.2021 -0.3565  0.8532
32859SOL    HW2 4414   3.328   0.930   3.929 -2.1030 -2.2177 -0.9687
32860SOL     OW 4415   6.949   2.466   7.662 -0.6233 -0.1975 -0.3036
32860SOL    HW1 4416   7.036   2.428   7.668 -0.7441 -0.6059 -0.9987
32860SOL    HW2 4417   6.916   2.465   7.752 -0.6157 -1.7515 -0.2935
32861SOL     OW 4418   0.162   2.332   1.318  0.0884  0.0516 -0.2155
32861SOL    HW1 4419   0.194   2.315   1.229 -0.0342  0.0282 -0.2554
32861SOL    HW2 4420   0.085   2.276   1.327  0.4361 -0.3856  0.1117
32862SOL     OW 4421   8.582  10.885   1.210 -0.4644  0.3992  0.2938
32862SOL    HW1 4422   8.624  10.910   1.292 -0.7007  0.9891  0.2400
32862SOL    HW2 4423   8.515  10.953   1.195 -0.5006  0.2376 -0.3218
32863SOL     OW 4424   4.487   8.996   0.895 -1.0819 -0.0733 -0.8004
32863SOL    HW1 4425   4.477   9.053   0.818  1.2713  1.1688 -0.3047
32863SOL    HW2 4426   4.469   9.053   0.970 -0.3409 -0.4216 -0.3459
32864SOL     OW 4427   9.294   2.535   5.390  0.0136 -0.1125  0.5943
32864SOL    HW1 4428   9.351   2.499   5.322 -0.9530 -0.7598  0.1043
32864SOL    HW2 4429   9.217   2.566   5.342 -1.0190 -1.2674  1.4478
32865SOL     OW 4430   2.493  10.406   6.063  0.3952 -0.0658  0.0455
32865SOL    HW1 4431   2.474  10.325   6.110 -2.5837  0.9465  0.7943
32865SOL    HW2 4432   2.408  10.448   6.050  1.5073  1.6240 -2.8507
32866SOL     OW 4433   2.679   2.122   9.440  0.6384 -0.0769 -0.2115
32866SOL    HW1 4434   2.589   2.142   9.416  0.6915  0.7323  0.2395
32866SOL    HW2 4435   2.731   2.190   9.398  0.8900  0.3580  0.7656
32867SOL     OW 4436   6.700   4.689   4.025 -0.2869 -0.6992  0.5011
32867SOL    HW1 4437   6.645   4.661   3.953 -1.7556  0.1112  1.2519
32867SOL    HW2 4438   6.699   4.785   4.020  1.8252 -0.6527  0.0046
32868SOL     OW 4439   3.855  10.720   6.955 -0.1422 -0.1320  0.6003
32868SOL    HW1 4440   3.790  10.697   6.889  0.8616  0.5104 -0.6732
32868SOL    HW2 4441   3.817  10.794   7.002 -0.0905  0.6691 -0.5741
32869SOL     OW 4442   7.573   4.374   3.388 -0.5081  0.1458 -0.4750
32869SOL    HW1 4443   7.627   4.383   3.309 -1.0163 -0.7010 -0.9305
32869SOL    HW2 4444   7.504   4.312   3.363 -0.6760 -0.1321  0.6375
32870SOL     OW 4445   8.649   2.001   7.301 -0.3921 -0.2929 -0.1767
32870SOL    HW1 4446   8.685   1.953   7.375 -1.6087 -0.5520  0.2694
32870SOL    HW2 4447   8.708   2.076   7.290 -1.7715  1.4235  2.9479
32871SOL     OW 4448   1.438   4.764  10.387  0.4832 -0.1733  0.5460
32871SOL    HW1 4449   1.501   4.801  10.326  1.0110  0.0824  1.2279
32871SOL    HW2 4450   1.354   4.804  10.362  0.7779  0.3023  0.3022
32872SOL     OW 4451   0.101   8.359   6.164  0.6625  0.3013  0.1877
32872SOL    HW1 4452   0.089   8.289   6.228  0.7023  2.8704  3.2854
32872SOL    HW2 4453   0.023   8.355   6.108  0.6463 -2.0840  0.2651
32873SOL     OW 4454   3.763   9.843   9.722 -0.4017 -0.5085 -0.8558
32873SOL    HW1 4455   3.765   9.776   9.654  0.1832 -1.0658 -0.3088
32873SOL    HW2 4456   3.710   9.803   9.792  1.3497 -1.1315  0.1799
32874SOL     OW 4457   6.539  10.187   9.984  0.0829 -0.4939  0.7363
32874SOL    HW1 4458   6.510  10.231   9.904  0.1991  1.0982  1.5199
32874SOL    HW2 4459   6.462  10.187  10.041  0.4023 -0.2428  1.1762
32875SOL     OW 4460   7.107   0.372   7.033  0.1584 -0.1458 -0.5824
32875SOL    HW1 4461   7.093   0.286   7.074 -0.0962  0.1507 -0.0332
32875SOL    HW2 4462   7.202   0.380   7.027  0.2069 -0.0738  0.2241
32876SOL     OW 4463   5.426   1.932   7.351 -0.2647 -0.0666  0.0225
32876SOL    HW1 4464   5.355   1.992   7.374  0.7275  0.8341  0.8141
32876SOL    HW2 4465   5.506   1.979   7.374  0.5585 -1.5187  0.2246
32877SOL     OW 4466   0.241   6.749   4.156 -0.1684 -0.9721 -0.1331
32877SOL    HW1 4467   0.214   6.744   4.247 -0.4866 -1.2988 -0.2410
32877SOL    HW2 4468   0.333   6.722   4.157 -0.2445 -1.2335  0.0606
32878SOL     OW 4469   2.854   3.911   5.948  0.1215  0.0069  0.8390
32878SOL    HW1 4470   2.794   3.845   5.914  1.0310  0.3147 -1.6324
32878SOL    HW2 4471   2.938   3.866   5.956  1.0951  1.0256 -2.1966
32879SOL     OW 4472   2.086   1.498   0.870  0.3839  0.1112 -0.1138
32879SOL    HW1 4473   2.108   1.544   0.789 -0.2372  1.0039  0.1959
32879SOL    HW2 4474   2.038   1.420   0.842 -1.6122  1.4239 -0.5928
32880SOL     OW 4475   1.874   9.420   8.265 -0.0101 -0.5959  0.8939
32880SOL    HW1 4476   1.797   9.363   8.267  0.1479 -0.7869  2.3108
32880SOL    HW2 4477   1.844   9.501   8.306  0.2003 -0.2103  0.2910
32881SOL     OW 4478   5.855   4.841   6.916 -0.4082 -0.2114 -0.5315
32881SOL    HW1 4479   5.773   4.889   6.929  0.9969  2.1537  0.2154
32881SOL    HW2 4480   5.892   4.833   7.004  2.3975  3.1641 -1.1900
32882SOL     OW 4481   9.406   9.212   6.688  0.1064  0.1922 -0.0550
32882SOL    HW1 4482   9.352   9.148   6.641  1.4283 -1.1288  0.1414
32882SOL    HW2 4483   9.343   9.266   6.736 -1.0637 -1.0068 -0.1731
32883SOL     OW 4484   3.472   0.436   0.593 -0.7286 -0.5723  0.3869
32883SOL    HW1 4485   3.410   0.380   0.638 -1.4627 -0.1720 -0.0990
32883SOL    HW2 4486   3.433   0.524   0.597 -0.6780 -0.4803 -0.7597
32884SOL     OW 4487   0.705   8.479   3.579  0.3987 -0.3174 -0.4381
32884SOL    HW1 4488   0.708   8.385   3.597  0.8234  0.0120  1.4566
32884SOL    HW2 4489   0.687   8.485   3.485  1.4544 -2.2833 -0.8249
32885SOL     OW 4490   2.469   4.552   4.242  0.1332  0.4087 -0.0357
32885SOL    HW1 4491   2.420   4.471   4.225 -1.1933  1.2361 -0.3190
32885SOL    HW2 4492   2.555   4.522   4.270 -1.3519 -1.2446  3.3597
32886SOL     OW 4493   2.967   8.634   4.449 -0.0251  0.4379 -0.1648
32886SOL    HW1 4494   2.991   8.541   4.445 -1.4737  0.0720 -1.0534
32886SOL    HW2 4495   3.044   8.680   4.416  0.8781 -0.3927  0.6966
32887SOL     OW 4496   6.050   0.595  10.266  0.1706  0.0333  0.2509
32887SOL    HW1 4497   6.020   0.556  10.348 -0.6483 -0.4713 -0.2653
32887SOL    HW2 4498   6.081   0.521  10.214 -0.1418  0.2337 -0.2292
32888SOL     OW 4499   2.807  10.240   6.287 -0.1176 -0.0147 -0.1908
32888SOL    HW1 4500   2.837  10.324   6.252  0.9918  0.3185  1.4627
32888SOL    HW2 4501   2.765  10.262   6.370  1.6773 -1.2158  1.1009
32889SOL     OW 4502   5.636  10.458   7.054  0.2043 -0.0817  0.3188
32889SOL    HW1 4503   5.675  10.419   6.976  0.9440  2.0082 -0.4477
32889SOL    HW2 4504   5.544  10.468   7.032  0.3914  0.4108 -0.2877
32890SOL     OW 4505   4.009   2.247   8.038  0.2744  0.3700  0.2532
32890SOL    HW1 4506   4.057   2.323   8.068  0.5655 -0.4640  2.0024
32890SOL    HW2 4507   4.059   2.172   8.070 -0.8846 -0.5420  0.0228
32891SOL     OW 4508   0.951   2.414   6.272 -0.0445 -0.2905  0.4933
32891SOL    HW1 4509   0.898   2.363   6.211 -0.2340 -0.4095  0.7572
32891SOL    HW2 4510   0.889   2.447   6.337  0.1625 -0.2147  0.6551
32892SOL     OW 4511   7.544   2.254  10.145  0.2259 -0.1182 -0.0898
32892SOL    HW1 4512   7.638   2.251  10.157  0.1721  1.7719  1.1939
32892SOL    HW2 4513   7.528   2.334  10.095 -0.7476 -0.0013  0.3726
32893SOL     OW 4514   3.870   9.786  10.104 -0.0967  0.2591  0.1743
32893SOL    HW1 4515   3.924   9.769  10.027  0.8044  2.0152  0.3749
32893SOL    HW2 4516   3.922   9.755  10.178 -0.0291  0.5323  0.2430
32894SOL     OW 4517   5.297   0.263   5.840  0.1845  0.3461 -0.1342
32894SOL    HW1 4518   5.317   0.354   5.860 -1.3086  1.6993 -3.8156
32894SOL    HW2 4519   5.367   0.236   5.781 -0.5931 -0.0753 -0.8886
32895SOL     OW 4520   5.196   7.281   7.109 -0.1727 -0.1126 -0.3488
32895SOL    HW1 4521   5.145   7.361   7.120  0.2345  0.0836  0.1853
32895SOL    HW2 4522   5.287   7.311   7.099  0.0032 -0.5084 -0.0011
32896SOL     OW 4523   4.154   4.556   1.135 -0.0323 -0.2885  0.2153
32896SOL    HW1 4524   4.218   4.597   1.193 -0.2252  0.1772  0.1054
32896SOL    HW2 4525   4.180   4.584   1.048  0.4684 -1.2769  0.0317
32897SOL     OW 4526  10.773   9.662   8.624  0.0938  0.2103 -0.1575
32897SOL    HW1 4527  10.779   9.584   8.569 -0.2734  1.2117 -1.6767
32897SOL    HW2 4528  10.863   9.692   8.634 -0.0159  1.3898 -2.3035
32898SOL     OW 4529   7.079   7.420   8.161  0.7760  0.2795 -0.0674
32898SOL    HW1 4530   7.091   7.515   8.157 -1.1871  0.5512 -0.5621
32898SOL    HW2 4531   7.134   7.386   8.091  1.1589  1.1024 -0.1797
32899SOL     OW 4532   2.270   5.318   3.854 -0.1201  0.1315  0.6260
32899SOL    HW1 4533   2.265   5.238   3.905  0.4829  0.3956  1.1148
32899SOL    HW2 4534   2.246   5.388   3.916 -1.0052  0.2973  0.1108
32900SOL     OW 4535   7.327  10.332   1.052  0.3614 -0.2241 -0.3616
32900SOL    HW1 4536   7.288  10.283   0.979 -0.7900 -1.2239  0.8688
32900SOL    HW2 4537   7.309  10.423   1.032 -1.2844 -0.5745 -0.6152
32901SOL     OW 4538   7.494   9.757   2.232 -0.6037  0.3260  0.3177
32901SOL    HW1 4539   7.550   9.818   2.281 -0.7738 -0.3996  1.4488
32901SOL    HW2 4540   7.556   9.708   2.177 -0.1148 -0.3869  1.4681
32902SOL     OW 4541   9.356   7.184   4.180  0.7225  0.2271 -0.1381
32902SOL    HW1 4542   9.270   7.155   4.149 -0.0415  0.7814  1.3475
32902SOL    HW2 4543   9.415   7.168   4.106 -0.8887  1.0676 -1.6820
32903SOL     OW 4544   2.657   2.598   4.062 -0.7170  0.5262 -0.3367
32903SOL    HW1 4545   2.584   2.657   4.042 -1.1929 -0.4418 -1.5257
32903SOL    HW2 4546   2.624   2.541   4.132 -1.0361  0.2126 -0.7433
32904SOL     OW 4547  10.782   5.696   7.796 -0.2435  0.2961  0.1554
32904SOL    HW1 4548  10.742   5.759   7.856 -2.5246  0.2713 -1.2359
32904SOL    HW2 4549  10.708   5.657   7.750  1.3864  0.1669 -2.5114
32905SOL     OW 4550   0.024   5.918   5.455 -0.2403 -0.0309 -0.4546
32905SOL    HW1 4551  -0.053   5.864   5.475 -1.0374 -0.1878 -3.4814
32905SOL    HW2 4552  -0.011   6.007   5.451  0.5946  0.5073  1.9908
32906SOL     OW 4553   2.342   7.529   0.353 -0.0432 -0.6206 -0.5352
32906SOL    HW1 4554   2.294   7.508   0.433  2.3518 -0.0314  1.1493
32906SOL    HW2 4555   2.429   7.492   0.367  0.5891 -0.0618 -2.6818
32907SOL     OW 4556   7.106   5.621   7.924 -0.4830 -0.0337  0.2720
32907SOL    HW1 4557   7.077   5.698   7.973  0.0740  0.4075 -0.0765
32907SOL    HW2 4558   7.192   5.646   7.890 -0.7727 -0.4088 -0.7614
32908SOL     OW 4559  10.749   1.051  10.899 -0.0515 -0.2455  0.1606
32908SOL    HW1 4560  10.701   0.970  10.880  2.7592 -1.6684 -1.5352
32908SOL    HW2 4561  10.752   1.097  10.814  0.7874  0.2525  0.4493
32909SOL     OW 4562   2.234  10.764   3.068 -0.6595 -0.1927  0.4102
32909SOL    HW1 4563   2.187  10.794   3.145  1.9884 -0.5429  2.2818
32909SOL    HW2 4564   2.284  10.688   3.098  0.0346 -0.6804 -1.7945
32910SOL     OW 4565   6.587   8.878   1.082  0.4121  0.8442 -0.0251
32910SOL    HW1 4566   6.523   8.822   1.039  0.5253  0.7282 -0.0446
32910SOL    HW2 4567   6.593   8.844   1.171  0.7856  0.5598 -0.1532
32911SOL     OW 4568   4.168   3.805   5.266 -0.3631  0.6391  0.5548
32911SOL    HW1 4569   4.131   3.860   5.196  0.2259  1.6488  1.0189
32911SOL    HW2 4570   4.261   3.827   5.267 -0.0076 -0.8002  0.3817
32912SOL     OW 4571   9.029   6.203   7.695 -0.0473  0.1194  0.3995
32912SOL    HW1 4572   9.086   6.132   7.726  0.3447  0.3110  0.1197
32912SOL    HW2 4573   9.021   6.262   7.770  0.7508  0.4877  0.2023
32913SOL     OW 4574   2.842   3.819   5.360 -0.2548  0.0485  0.0811
32913SOL    HW1 4575   2.781   3.779   5.299 -0.2992  0.4962 -0.1691
32913SOL    HW2 4576   2.822   3.913   5.357  0.2248  0.1595  0.2395
32914SOL     OW 4577   1.466   0.162   9.526 -0.4313  0.0069  0.1123
32914SOL    HW1 4578   1.414   0.209   9.591 -1.0907 -1.1141  0.4246
32914SOL    HW2 4579   1.551   0.207   9.526 -1.7042  2.6559 -1.2770
32915SOL     OW 4580   3.646   9.386   2.783 -0.1982 -0.4172  0.0620
32915SOL    HW1 4581   3.669   9.350   2.869 -0.5466 -4.3452 -1.2928
32915SOL    HW2 4582   3.726   9.379   2.732  0.4241  3.2271  0.2714
32916SOL     OW 4583   2.793   7.392   9.901  0.4870 -0.3864  0.6294
32916SOL    HW1 4584   2.889   7.396   9.892  0.4522 -0.2851  0.2986
32916SOL    HW2 4585   2.771   7.302   9.880  0.4133 -0.1688 -0.2461
32917SOL     OW 4586   3.435   1.463   0.403 -0.1127  0.2317 -0.0453
32917SOL    HW1 4587   3.522   1.436   0.375  1.0689 -2.3735  5.0095
32917SOL    HW2 4588   3.450   1.533   0.466 -1.6364 -0.2846  0.9566
32918SOL     OW 4589   3.307   4.810   9.228 -0.0543 -0.1443  0.2663
32918SOL    HW1 4590   3.268   4.892   9.259 -0.1441 -0.0156 -0.1788
32918SOL    HW2 4591   3.285   4.746   9.296  0.7772  0.3897  1.0573
32919SOL     OW 4592   1.128   0.208   6.363 -0.0128 -0.4199  0.3593
32919SOL    HW1 4593   1.172   0.196   6.278  0.0521  0.5324  0.2365
32919SOL    HW2 4594   1.141   0.301   6.382  1.2085 -0.9064  2.1018
32920SOL     OW 4595   5.188  10.157   1.279 -0.6610  0.1990  0.0948
32920SOL    HW1 4596   5.176  10.243   1.238 -0.3543 -0.4746 -1.4972
32920SOL    HW2 4597   5.265  10.167   1.334 -0.4424  0.8731 -0.3187
32921SOL     OW 4598   3.610   4.297  10.150 -0.0463 -0.3258 -0.1243
32921SOL    HW1 4599   3.699   4.310  10.183  0.2292 -0.8816 -0.6313
32921SOL    HW2 4600   3.621   4.288  10.056 -0.7543  0.5926 -0.3008
32922SOL     OW 4601   8.332   1.489   9.245 -0.3165 -0.2202  0.5915
32922SOL    HW1 4602   8.338   1.394   9.255 -0.7616 -0.4018 -0.7197
32922SOL    HW2 4603   8.406   1.512   9.189 -0.3369  0.1826  0.7229
32923SOL     OW 4604   5.453   7.941   1.842  0.0662  1.1257  0.4354
32923SOL    HW1 4605   5.434   7.951   1.749 -0.8938  0.6773  0.5723
32923SOL    HW2 4606   5.407   7.861   1.868  1.4733  0.4663  0.9955
32924SOL     OW 4607   1.854   4.350   4.641  0.1104 -0.2235  0.2586
32924SOL    HW1 4608   1.829   4.272   4.690  0.5173 -0.5430 -0.0302
32924SOL    HW2 4609   1.772   4.382   4.603  0.3252 -2.5433 -2.5442
32925SOL     OW 4610   0.401   0.296   7.981 -0.1777 -0.2506 -0.9156
32925SOL    HW1 4611   0.490   0.331   7.987 -0.5767  1.1087 -2.3158
32925SOL    HW2 4612   0.413   0.201   7.984  0.9930 -0.1286  2.3704
32926SOL     OW 4613   4.187   3.614   8.222 -0.2511 -0.6241 -0.5253
32926SOL    HW1 4614   4.223   3.526   8.226 -2.6031 -1.6395  0.2293
32926SOL    HW2 4615   4.110   3.611   8.280 -1.9576  1.1081 -2.5311
32927SOL     OW 4616   0.564   2.949   2.824  0.2088 -0.1303 -0.0296
32927SOL    HW1 4617   0.536   2.895   2.751  0.4577 -0.7193  0.3036
32927SOL    HW2 4618   0.656   2.968   2.806  0.2030 -0.0647  0.0072
32928SOL     OW 4619   0.753   2.068   0.487 -0.0736  0.5272 -0.0160
32928SOL    HW1 4620   0.837   2.036   0.455 -1.0186 -1.3330 -0.8321
32928SOL    HW2 4621   0.772   2.102   0.575  1.3094 -1.0640  0.3526
32929SOL     OW 4622   9.126   9.943   5.663 -0.3620  0.1250  0.1244
32929SOL    HW1 4623   9.210   9.940   5.710  0.6414  0.0949 -1.5660
32929SOL    HW2 4624   9.105  10.036   5.658 -0.3366  0.1459  0.4065
32930SOL     OW 4625   6.296  10.609  10.466  0.4885  0.0716  0.1113
32930SOL    HW1 4626   6.367  10.556  10.429  1.3601  0.5202  1.1091
32930SOL    HW2 4627   6.275  10.672  10.397  1.8485  0.6697  0.2223
32931SOL     OW 4628   6.404   7.758   8.124 -0.0977  0.2402 -0.1231
32931SOL    HW1 4629   6.401   7.753   8.029 -0.8797 -0.6960 -0.0626
32931SOL    HW2 4630   6.321   7.721   8.153  1.1306 -1.8323  0.9884
32932SOL     OW 4631   3.041   8.659   9.490  0.0984  1.2203  0.1820
32932SOL    HW1 4632   3.050   8.728   9.424  1.1338 -0.5490 -1.6633
32932SOL    HW2 4633   2.997   8.701   9.564 -0.6252  3.4490 -1.4207
32933SOL     OW 4634   9.635   3.219   4.509 -0.0569  0.6784 -0.0697
32933SOL    HW1 4635   9.722   3.180   4.508 -0.6147 -0.6242 -0.6370
32933SOL    HW2 4636   9.596   3.191   4.426 -1.1668  0.8610  0.3759
32934SOL     OW 4637   3.021   6.226   6.507  0.4422  0.1263 -0.6030
32934SOL    HW1 4638   2.980   6.250   6.425  0.2943 -0.9768 -0.8784
32934SOL    HW2 4639   3.023   6.130   6.505  4.7637  0.0195 -1.5376
32935SOL     OW 4640   7.360   4.676   7.849  0.5772  1.0449 -0.1808
32935SOL    HW1 4641   7.382   4.716   7.933  1.1367 -0.6350  0.5170
32935SOL    HW2 4642   7.276   4.633   7.863  0.5654  0.9404 -0.5480
32936SOL     OW 4643   2.020   7.668   5.061  0.2734 -0.3057 -0.1688
32936SOL    HW1 4644   1.974   7.593   5.098 -0.0731  0.3035  0.6553
32936SOL    HW2 4645   1.972   7.687   4.980 -0.8796  0.2492  0.6148
32937SOL     OW 4646  10.106   4.679   2.593  0.8427 -0.8133  0.3918
32937SOL    HW1 4647  10.040   4.631   2.544  1.1309  0.0701 -0.8911
32937SOL    HW2 4648  10.058   4.749   2.637  0.4628 -2.0573  2.0576
32938SOL     OW 4649   4.920   5.455   3.332 -0.7968  0.3245  0.1503
32938SOL    HW1 4650   4.932   5.472   3.425 -0.3124 -1.3972  0.4476
32938SOL    HW2 4651   4.833   5.490   3.312 -0.9581  0.6105  1.2689
32939SOL     OW 4652   1.772   7.456   0.971  0.1990 -0.9735  0.1943
32939SOL    HW1 4653   1.804   7.526   1.029 -0.6802 -0.9955  0.7295
32939SOL    HW2 4654   1.683   7.484   0.949  1.3542  0.4718 -3.4155
32940SOL     OW 4655   7.506   6.725   3.702  0.2554  0.2374 -0.4083
32940SOL    HW1 4656   7.534   6.711   3.792  1.1196 -1.3456 -0.8817
32940SOL    HW2 4657   7.417   6.691   3.698 -0.1626  1.2556  0.0773
32941SOL     OW 4658  10.673   1.214   4.734  0.4663  0.5771 -0.0963
32941SOL    HW1 4659  10.593   1.247   4.693 -0.0594  1.4425  1.5545
32941SOL    HW2 4660  10.744   1.252   4.682 -0.1315 -0.9631 -2.1824
32942SOL     OW 4661  10.021   9.304   1.659  0.1198  0.3130 -0.0653
32942SOL    HW1 4662   9.973   9.353   1.726 -0.9462 -2.1779  1.1357
32942SOL    HW2 4663   9.985   9.215   1.664  3.2676 -1.1327 -0.7384
32943SOL     OW 4664   3.358  10.742   8.801  0.2097 -0.2618  0.6026
32943SOL    HW1 4665   3.263  10.749   8.809  0.2406 -1.1297  2.1994
32943SOL    HW2 4666   3.390  10.830   8.822 -0.2197 -0.1623  0.8541
32944SOL     OW 4667   6.678   5.272   3.920  0.0340  0.3582  0.2446
32944SOL    HW1 4668   6.685   5.367   3.911  0.4580  0.4910  1.7602
32944SOL    HW2 4669   6.740   5.237   3.856 -0.1253  1.0905 -0.3272
32945SOL     OW 4670   3.260   3.242   0.419 -0.6385 -0.4090 -0.2887
32945SOL    HW1 4671   3.232   3.155   0.446  2.6117 -1.6006 -0.2548
32945SOL    HW2 4672   3.304   3.279   0.495  1.5900 -0.4983 -1.4422
32946SOL     OW 4673   2.664   9.967   8.224  0.1468 -0.9132  0.4729
32946SOL    HW1 4674   2.611   9.944   8.300 -0.2593 -0.2007  0.4075
32946SOL    HW2 4675   2.676   9.883   8.178  1.1071 -1.5124  1.7351
32947SOL     OW 4676   5.781   0.213   2.556 -0.3896  0.0101  0.9378
32947SOL    HW1 4677   5.792   0.242   2.647  2.4361  1.1873  0.3084
32947SOL    HW2 4678   5.814   0.286   2.503 -0.6643 -1.2146 -1.0077
32948SOL     OW 4679   8.181   3.727   8.937 -0.1517  0.3255 -0.3619
32948SOL    HW1 4680   8.199   3.821   8.925  0.4167  0.1401 -1.0335
32948SOL    HW2 4681   8.098   3.713   8.892 -0.1655  0.4813 -0.3864
32949SOL     OW 4682   3.570   6.046   4.129  0.3983 -0.0878  0.1339
32949SOL    HW1 4683   3.540   5.987   4.060 -0.3215  0.3054  0.1006
32949SOL    HW2 4684   3.525   6.015   4.208  1.7522 -0.9757  0.6012
32950SOL     OW 4685   5.998   6.292   9.669  0.4016 -0.0420 -0.2150
32950SOL    HW1 4686   6.063   6.325   9.607  0.6562 -0.3558 -0.1197
32950SOL    HW2 4687   5.940   6.237   9.617  0.8085 -0.5682 -0.1192
32951SOL     OW 4688   8.073   6.532   2.910 -0.1987  0.2321  0.0176
32951SOL    HW1 4689   8.089   6.442   2.937 -0.1038  0.0330 -0.6732
32951SOL    HW2 4690   7.981   6.548   2.933 -0.3436 -0.1894 -0.2444
32952SOL     OW 4691   5.112  10.364   7.574  0.5659 -0.4338  0.5842
32952SOL    HW1 4692   5.089  10.453   7.603  0.9842 -0.8034  2.1375
32952SOL    HW2 4693   5.031  10.314   7.585  0.8034 -0.6450  1.4919
32953SOL     OW 4694   2.062   7.117   6.833 -0.8123  0.0057  0.0742
32953SOL    HW1 4695   2.013   7.041   6.802  1.6422 -1.1880 -1.2226
32953SOL    HW2 4696   2.069   7.174   6.756  0.5820 -0.3019 -0.0506
32954SOL     OW 4697   1.734   6.132  10.408  0.2665 -0.2287 -0.0114
32954SOL    HW1 4698   1.643   6.118  10.384  0.1211 -0.2867  0.5733
32954SOL    HW2 4699   1.761   6.052  10.452  0.3012  0.1719  0.7088
32955SOL     OW 4700   3.703   5.195   2.143  0.5501  0.1910  0.1713
32955SOL    HW1 4701   3.657   5.215   2.224  0.3864  0.2930  0.0568
32955SOL    HW2 4702   3.795   5.186   2.168  0.5830  0.7816  0.2816
32956SOL     OW 4703   3.809   6.256   8.113  0.0637 -0.2264 -0.7186
32956SOL    HW1 4704   3.757   6.251   8.194 -0.7847  0.7499 -1.1810
32956SOL    HW2 4705   3.894   6.290   8.142  0.0751 -0.7311 -0.1212
32957SOL     OW 4706   5.446   5.376   3.985 -0.6690  0.2095  0.1284
32957SOL    HW1 4707   5.537   5.384   3.957 -0.8878 -2.5660 -1.8281
32957SOL    HW2 4708   5.400   5.444   3.937 -0.0170 -0.2165 -1.1600
32958SOL     OW 4709   1.912   0.355   7.410 -0.0042 -0.6209  0.4817
32958SOL    HW1 4710   1.854   0.302   7.355  1.4919 -2.0265  0.1667
32958SOL    HW2 4711   1.855   0.392   7.477 -1.3457 -1.4924 -0.1458
32959SOL     OW 4712   5.474   5.636   8.908  0.0730 -0.0803  0.3807
32959SOL    HW1 4713   5.423   5.637   8.827 -0.0212  0.6072  0.4442
32959SOL    HW2 4714   5.436   5.707   8.961  1.0525  0.3958  0.4526
32960SOL     OW 4715   2.687   0.615   7.254  0.4921  0.1969  0.1848
32960SOL    HW1 4716   2.732   0.637   7.173 -0.6900 -1.7703 -1.0767
32960SOL    HW2 4717   2.596   0.642   7.239  0.2269 -0.3456  0.7885
32961SOL     OW 4718  10.166   4.444   9.063 -0.4962  0.7189 -0.2107
32961SOL    HW1 4719  10.095   4.430   8.999 -0.2320 -2.2677 -0.0022
32961SOL    HW2 4720  10.121   4.468   9.144 -1.2509 -0.2667 -0.3110
32962SOL     OW 4721   7.468   3.240   3.241  0.1736 -0.6882  0.5046
32962SOL    HW1 4722   7.414   3.200   3.309 -2.5516  1.0147 -0.4661
32962SOL    HW2 4723   7.436   3.201   3.159 -0.9293  1.6226 -0.2461
32963SOL     OW 4724   8.409  10.698   9.086  0.0456  0.1511 -0.2957
32963SOL    HW1 4725   8.319  10.719   9.063 -0.0757  2.6515  1.8769
32963SOL    HW2 4726   8.462  10.740   9.018 -0.4269  0.9166 -0.2106
32964SOL     OW 4727  10.225   3.236   0.001  0.0794  0.1696 -0.2224
32964SOL    HW1 4728  10.319   3.226   0.018 -0.1114 -1.8483 -0.1302
32964SOL    HW2 4729  10.182   3.209   0.082 -0.6146  0.6344 -0.4200
32965SOL     OW 4730   4.733   6.321   8.297 -0.1956  0.4247 -0.2606
32965SOL    HW1 4731   4.703   6.301   8.385  2.4194  0.8637  0.7956
32965SOL    HW2 4732   4.811   6.268   8.285 -0.0551  0.9679 -2.0299
32966SOL     OW 4733   3.393   1.810   6.627  0.4094  0.0622 -0.1355
32966SOL    HW1 4734   3.316   1.842   6.582 -0.9345 -1.4640  0.9585
32966SOL    HW2 4735   3.462   1.812   6.561 -0.5419  1.4904 -1.1267
32967SOL     OW 4736   4.774   1.751   8.238 -0.7199 -0.6994  0.9622
32967SOL    HW1 4737   4.797   1.807   8.312 -2.1145  1.1383  0.0823
32967SOL    HW2 4738   4.859   1.720   8.205  0.0732  0.4151  1.8504
32968SOL     OW 4739   0.757   1.591   0.771 -0.5526 -0.1700 -0.1949
32968SOL    HW1 4740   0.742   1.614   0.680 -0.3561  1.1970  0.0966
32968SOL    HW2 4741   0.722   1.665   0.821  1.8877  0.4782  0.7161
32969SOL     OW 4742   2.550   0.814   6.371  0.0538  0.6762  0.3626
32969SOL    HW1 4743   2.547   0.807   6.466 -0.4554  1.2793  0.3937
32969SOL    HW2 4744   2.607   0.889   6.354  0.2085  0.5203  0.1933
32970SOL     OW 4745   1.822   2.006   7.461  0.8456  0.3851  0.6746
32970SOL    HW1 4746   1.880   2.040   7.530 -0.8294  0.7065  2.0023
32970SOL    HW2 4747   1.757   2.075   7.449  0.4863 -0.1409 -0.4674
32971SOL     OW 4748   8.314   3.715   5.466  0.6352  0.3953  0.1858
32971SOL    HW1 4749   8.355   3.796   5.437 -1.2143  0.8697 -1.3504
32971SOL    HW2 4750   8.220   3.731   5.454  0.2271 -2.0098 -0.2670
32972SOL     OW 4751   3.553  10.589   3.822  0.1830 -0.0674  0.8890
32972SOL    HW1 4752   3.566  10.516   3.882 -0.8540 -0.2531  0.9053
32972SOL    HW2 4753   3.459  10.604   3.821  0.1619 -0.0551 -0.6612
32973SOL     OW 4754   2.763   4.431   2.113  0.1002 -0.2925 -0.6077
32973SOL    HW1 4755   2.735   4.456   2.201 -1.3249 -0.6027 -0.9487
32973SOL    HW2 4756   2.702   4.477   2.055  0.4549 -0.8033 -1.4007
32974SOL     OW 4757   0.316   6.440   0.164 -0.5348  0.4050  0.8031
32974SOL    HW1 4758   0.318   6.442   0.259 -0.1736  0.9598  0.7888
32974SOL    HW2 4759   0.249   6.505   0.140 -0.4900  0.4065  0.6809
32975SOL     OW 4760  10.112   6.690  10.137 -0.2054  0.4273 -0.1291
32975SOL    HW1 4761  10.181   6.658  10.195  1.2533 -0.2600 -2.1246
32975SOL    HW2 4762  10.090   6.776  10.172  0.2642 -0.1410  1.6946
32976SOL     OW 4763   3.354   2.071   8.223 -0.2221  0.1498 -0.1496
32976SOL    HW1 4764   3.299   2.035   8.292  0.7124 -0.0591  0.5097
32976SOL    HW2 4765   3.293   2.113   8.162 -1.1257 -0.4676  0.3223
32977SOL     OW 4766   9.669   9.928   4.671  0.5027  0.2625  0.0270
32977SOL    HW1 4767   9.615   9.944   4.748 -1.2945 -0.2262 -1.0641
32977SOL    HW2 4768   9.730   9.859   4.699  1.0876  1.3357  1.5065
32978SOL     OW 4769   2.628   5.505   6.152  0.2314 -0.5623  0.0397
32978SOL    HW1 4770   2.715   5.477   6.181  1.5991  1.9313 -1.2804
32978SOL    HW2 4771   2.635   5.601   6.144 -2.3078 -0.3894 -1.1762
32979SOL     OW 4772   8.718  10.510   7.989 -0.0376  0.0331  0.0539
32979SOL    HW1 4773   8.668  10.468   7.919  3.2181  0.4542 -2.7637
32979SOL    HW2 4774   8.666  10.588   8.011 -2.0851 -1.1047 -0.5085
32980SOL     OW 4775  10.418   4.425   6.168 -0.0744  0.2870  0.1973
32980SOL    HW1 4776  10.437   4.497   6.228 -0.5184  2.3485 -1.9612
32980SOL    HW2 4777  10.492   4.426   6.106 -2.0052  1.6940 -2.2724
32981SOL     OW 4778   6.966   0.317   9.847  0.1280  0.4718 -1.0440
32981SOL    HW1 4779   7.048   0.366   9.860 -0.7049  2.0628 -1.5679
32981SOL    HW2 4780   6.900   0.384   9.830 -1.1745 -0.8216 -1.2959
32982SOL     OW 4781   2.428  10.015   3.804  0.1709 -0.2818 -0.6899
32982SOL    HW1 4782   2.450   9.989   3.714  3.1817  0.3957 -0.2576
32982SOL    HW2 4783   2.502   9.986   3.856 -1.4495 -0.5481  1.6231
32983SOL     OW 4784   1.391   4.323   1.573 -0.6499  0.4652  0.5001
32983SOL    HW1 4785   1.345   4.264   1.632 -2.2246  0.4520 -0.6817
32983SOL    HW2 4786   1.339   4.404   1.574 -0.5279  0.5664 -0.6098
32984SOL     OW 4787   1.331   6.418   6.723  0.2917 -0.9061 -0.0728
32984SOL    HW1 4788   1.402   6.384   6.669  0.7734  0.2955 -0.2288
32984SOL    HW2 4789   1.251   6.389   6.680  0.6863 -0.9876 -0.7507
32985SOL     OW 4790  10.216   8.609   6.179 -0.6226 -0.0020 -0.5597
32985SOL    HW1 4791  10.146   8.591   6.242 -0.7933 -1.0855 -1.0325
32985SOL    HW2 4792  10.218   8.531   6.123  0.3898  0.3911 -1.0896
32986SOL     OW 4793   0.114  10.390   9.733  0.4945  0.0138 -0.0981
32986SOL    HW1 4794   0.205  10.403   9.758  0.0676  1.2294  0.8925
32986SOL    HW2 4795   0.063  10.435   9.800 -0.8127  0.2097 -1.1634
32987SOL     OW 4796   3.295   9.856   3.040  0.2623 -0.2228  0.1753
32987SOL    HW1 4797   3.275   9.881   3.130  1.1407  0.4709  0.1985
32987SOL    HW2 4798   3.228   9.792   3.017 -0.8375  0.6583  0.8257
32988SOL     OW 4799   6.483   4.460   1.101 -0.2896 -0.8475 -0.5381
32988SOL    HW1 4800   6.547   4.396   1.129 -0.7009 -0.8884  0.3406
32988SOL    HW2 4801   6.417   4.409   1.053 -2.1632 -1.6736  2.5829
32989SOL     OW 4802   3.496   0.024   0.564 -0.3247 -0.0048 -0.4849
32989SOL    HW1 4803   3.471   0.069   0.484  2.5445  1.7747 -0.5327
32989SOL    HW2 4804   3.487   0.090   0.633  1.6573 -0.0051 -0.1566
32990SOL     OW 4805   5.063   6.322   3.023 -0.3780 -0.3302 -0.3396
32990SOL    HW1 4806   5.084   6.335   2.930  0.8573  1.0226  0.0993
32990SOL    HW2 4807   5.148   6.318   3.066 -0.8165 -3.4156  0.5017
32991SOL     OW 4808   4.657   1.407   2.322 -0.2312 -0.7044  0.1723
32991SOL    HW1 4809   4.566   1.422   2.297 -0.2751  0.1513  0.8046
32991SOL    HW2 4810   4.693   1.352   2.252 -1.9316 -3.3392  1.2091
32992SOL     OW 4811   1.628   2.935   5.599  0.4006 -0.3408  0.1195
32992SOL    HW1 4812   1.723   2.940   5.586  0.4026  2.3501  0.5560
32992SOL    HW2 4813   1.592   3.000   5.539 -1.3152 -2.0849 -0.8237
32993SOL     OW 4814   9.524   4.421   9.891 -0.3977 -0.3639 -0.2604
32993SOL    HW1 4815   9.501   4.338   9.932  2.2237 -1.8776 -1.5893
32993SOL    HW2 4816   9.583   4.464   9.953 -1.8733  0.6873  0.4979
32994SOL     OW 4817   2.679   1.334   4.657  0.5209 -0.1502  0.6767
32994SOL    HW1 4818   2.653   1.331   4.565 -1.1481 -0.4950  1.1240
32994SOL    HW2 4819   2.625   1.403   4.695 -0.9317 -1.9172  1.9770
32995SOL     OW 4820   2.479   8.535   4.631  0.2388  0.1631 -0.0435
32995SOL    HW1 4821   2.421   8.612   4.631  0.6858  0.5623 -2.3201
32995SOL    HW2 4822   2.540   8.551   4.559 -0.2571 -2.7811 -1.2375
32996SOL     OW 4823   8.311   4.619   3.802 -0.2603 -0.1061 -0.3855
32996SOL    HW1 4824   8.368   4.622   3.879 -0.9755  3.3373  0.1756
32996SOL    HW2 4825   8.253   4.544   3.818 -0.0120  0.1525  2.1545
32997SOL     OW 4826   7.472   6.663   8.641  0.1359  0.4448  0.8176
32997SOL    HW1 4827   7.481   6.687   8.734 -3.4973  0.5906  1.2582
32997SOL    HW2 4828   7.445   6.744   8.598 -1.4866 -0.3456  0.2833
32998SOL     OW 4829   4.114   8.139   1.587  0.5918 -0.4684 -0.4072
32998SOL    HW1 4830   4.157   8.206   1.640 -0.1395  0.0211 -0.4251
32998SOL    HW2 4831   4.037   8.183   1.550  0.4739 -1.1245 -0.9638
32999SOL     OW 4832   1.762   0.263   4.089  0.0617  0.3217 -0.0381
32999SOL    HW1 4833   1.676   0.228   4.110 -1.0436  0.4582 -3.7093
32999SOL    HW2 4834   1.773   0.337   4.148 -2.2616  0.1995  0.6339
33000SOL     OW 4835   6.577   7.442  10.793  0.1056  0.3565 -0.5376
33000SOL    HW1 4836   6.515   7.505  10.830  0.1233 -0.3334  0.6884
33000SOL    HW2 4837   6.527   7.361  10.785  0.6488 -0.0111 -0.2276
33001SOL     OW 4838   6.182   4.161   6.498 -0.0641  0.1028 -0.4482
33001SOL    HW1 4839   6.236   4.134   6.572 -0.7251  2.1196  0.8430
33001SOL    HW2 4840   6.218   4.246   6.472 -0.7380  0.0691 -1.5278
33002SOL     OW 4841   7.290   5.780   9.031 -0.5498  0.0387 -0.4094
33002SOL    HW1 4842   7.306   5.842   9.103  0.3365  0.5322 -1.0061
33002SOL    HW2 4843   7.251   5.704   9.073  0.4040  0.1195  0.6860
33003SOL     OW 4844   0.779   8.579   1.297 -0.1515  0.0676 -0.2206
33003SOL    HW1 4845   0.786   8.516   1.368 -0.0683  0.2852 -0.0319
33003SOL    HW2 4846   0.692   8.564   1.260 -1.8057  2.3974  2.3098
33004SOL     OW 4847   2.339   7.015   2.762 -0.5872 -0.4693  0.1411
33004SOL    HW1 4848   2.339   7.047   2.672 -1.2257 -0.7108  0.0512
33004SOL    HW2 4849   2.420   6.965   2.770  0.7595  1.6267  0.4653
33005SOL     OW 4850   5.294   8.686  10.672 -0.0398 -0.0434  0.2536
33005SOL    HW1 4851   5.330   8.773  10.687 -1.2075  0.7703 -1.4055
33005SOL    HW2 4852   5.264   8.687  10.581 -2.9229 -1.1269  1.0926
33006SOL     OW 4853   0.896   3.331   2.828  0.5041  0.6228 -0.1810
33006SOL    HW1 4854   0.971   3.383   2.855  1.1786 -0.5461  0.2777
33006SOL    HW2 4855   0.878   3.274   2.903 -1.1190  1.1698 -0.1057
33007SOL     OW 4856   9.549   9.390   0.452 -0.6308  0.2354 -0.1321
33007SOL    HW1 4857   9.565   9.306   0.495 -0.5823  0.9137  1.2066
33007SOL    HW2 4858   9.473   9.426   0.497  0.7717  1.9834  0.9513
33008SOL     OW 4859  10.880   5.495   7.947 -0.3946 -0.4962 -0.0022
33008SOL    HW1 4860  10.856   5.558   7.879 -1.4098 -0.2862  0.5379
33008SOL    HW2 4861  10.908   5.550   8.020  0.6293 -0.7207 -0.2045
33009SOL     OW 4862   5.697   0.018   2.770  0.5127 -0.2362  0.0685
33009SOL    HW1 4863   5.778   0.059   2.802  1.7001 -1.1901 -1.5456
33009SOL    HW2 4864   5.717  -0.007   2.680 -1.8645  0.1802 -0.6489
33010SOL     OW 4865   9.242   0.253   3.849 -0.2607 -0.2077 -0.6462
33010SOL    HW1 4866   9.337   0.249   3.860 -0.4798  0.1216  1.7933
33010SOL    HW2 4867   9.210   0.171   3.887 -0.9502 -0.6887 -2.1657
33011SOL     OW 4868   5.354   2.245   0.323 -0.4295 -0.0339  0.0620
33011SOL    HW1 4869   5.421   2.273   0.385  0.7897 -0.0736 -1.2049
33011SOL    HW2 4870   5.395   2.177   0.271 -1.4952 -0.1505 -0.6695
33012SOL     OW 4871   6.240   3.550   0.066  0.2621  0.0569 -0.6660
33012SOL    HW1 4872   6.161   3.604   0.054  0.4416  0.4600 -0.0898
33012SOL    HW2 4873   6.253   3.507  -0.018  0.0097  0.7801 -1.0859
33013SOL     OW 4874   3.425  10.027   4.984  0.0164  0.6689 -0.6334
33013SOL    HW1 4875   3.401  10.031   4.891  0.8694  1.1205 -0.8537
33013SOL    HW2 4876   3.521  10.033   4.983  0.0873 -0.1856  0.2319
33014SOL     OW 4877   5.880   5.995   1.803 -0.1048 -0.0782 -0.1540
33014SOL    HW1 4878   5.967   5.999   1.842  0.4426 -0.3282 -1.2916
33014SOL    HW2 4879   5.860   6.086   1.779  0.9511 -0.2881 -2.1244
33015SOL     OW 4880   2.894   1.797   6.084  0.2106  0.3284  0.6981
33015SOL    HW1 4881   2.920   1.719   6.035  0.0836 -1.5014  3.3310
33015SOL    HW2 4882   2.799   1.802   6.072  0.2575  0.2580  0.2823
33016SOL     OW 4883   8.968   8.996   7.798  0.4385  0.1899  0.2170
33016SOL    HW1 4884   8.911   8.990   7.875  1.3341  1.4297  1.0054
33016SOL    HW2 4885   8.915   8.961   7.726 -0.9177  0.2984  1.1295
33017SOL     OW 4886   3.546   2.686   0.223  0.2645  0.1905  0.2559
33017SOL    HW1 4887   3.467   2.660   0.269 -0.2264 -2.5656 -1.9004
33017SOL    HW2 4888   3.515   2.741   0.150  0.5089  0.3349  0.2580
33018SOL     OW 4889   0.014   4.130   8.398  0.1392  0.1855  0.2962
33018SOL    HW1 4890   0.063   4.066   8.347  1.3941  1.8271 -0.6811
33018SOL    HW2 4891   0.051   4.124   8.486  0.3799 -0.2937  0.1645
33019SOL     OW 4892   4.019   1.242   1.190 -0.2035 -0.3016  0.0944
33019SOL    HW1 4893   4.056   1.169   1.140 -0.6018 -1.2344  1.1432
33019SOL    HW2 4894   4.094   1.281   1.234 -0.0098 -0.1443 -0.3648
33020SOL     OW 4895   1.571   7.865   4.157  0.4388 -0.6560  0.7652
33020SOL    HW1 4896   1.527   7.880   4.241  2.0208 -1.6398  1.8308
33020SOL    HW2 4897   1.528   7.787   4.122 -0.2038 -0.2669  0.6847
33021SOL     OW 4898   0.156   6.397   2.040 -0.1792  0.3797 -0.0467
33021SOL    HW1 4899   0.251   6.391   2.028 -0.0558  1.6062  0.1818
33021SOL    HW2 4900   0.120   6.377   1.954  0.3206  0.7032 -0.3348
33022SOL     OW 4901   6.985   7.906   8.019 -0.3235  0.1871 -0.1116
33022SOL    HW1 4902   6.928   7.857   8.079 -0.5245 -1.0203 -1.2342
33022SOL    HW2 4903   7.050   7.842   7.991  1.5060  1.4845  0.9502
33023SOL     OW 4904   1.543   5.078   0.135  0.0806 -0.0472  0.0777
33023SOL    HW1 4905   1.526   4.993   0.177  0.5523  0.6610  1.7441
33023SOL    HW2 4906   1.607   5.121   0.191  0.4555  1.0993 -1.1867
33024SOL     OW 4907  10.157   1.317   1.928 -0.0152 -0.2443 -0.0858
33024SOL    HW1 4908  10.092   1.362   1.875 -1.3034 -2.0296 -0.1369
33024SOL    HW2 4909  10.120   1.316   2.016 -0.2202 -1.4798 -0.1627
33025SOL     OW 4910   3.320   5.899   0.317 -0.1950 -0.4704  0.3212
33025SOL    HW1 4911   3.412   5.872   0.315 -0.6388 -2.0482 -0.4418
33025SOL    HW2 4912   3.317   5.969   0.382  1.8902  1.0090 -1.0585
33026SOL     OW 4913   4.707   1.597  10.396 -0.1409 -0.0036  0.5281
33026SOL    HW1 4914   4.762   1.549  10.457 -0.6138 -1.0069  0.1897
33026SOL    HW2 4915   4.623   1.605  10.441 -0.9647 -2.0385 -0.4983
33027SOL     OW 4916   4.726   4.524   8.390  0.0452 -0.0546  0.2710
33027SOL    HW1 4917   4.656   4.462   8.372  2.2963 -2.8266  0.3242
33027SOL    HW2 4918   4.715   4.548   8.482  0.1419 -1.8530  0.7749
33028SOL     OW 4919   4.801   2.521   8.754  0.6345  0.2925 -0.0295
33028SOL    HW1 4920   4.866   2.591   8.756 -1.1662  2.0553 -0.4383
33028SOL    HW2 4921   4.818   2.475   8.672  1.1678  0.9037 -0.2679
33029SOL     OW 4922   4.960   4.384   2.950 -0.3331  0.0960  0.2581
33029SOL    HW1 4923   4.975   4.356   2.860  0.5787 -1.6040  0.8968
33029SOL    HW2 4924   5.037   4.435   2.974  0.2376 -0.9189  0.6162
33030SOL     OW 4925   7.657   5.093   0.743  0.2830  0.0316  0.6465
33030SOL    HW1 4926   7.634   5.176   0.784  0.3031  1.0322 -1.2256
33030SOL    HW2 4927   7.674   5.116   0.651  0.0225 -2.0857  0.0092
33031SOL     OW 4928   8.437   2.682   8.926 -0.5823  0.4505 -0.2771
33031SOL    HW1 4929   8.376   2.704   8.855  1.6006 -2.9055 -3.5835
33031SOL    HW2 4930   8.451   2.588   8.917 -0.2798 -0.2837  4.9804
33032SOL     OW 4931   2.348   0.885   1.427 -0.7365  0.8284 -0.5144
33032SOL    HW1 4932   2.347   0.814   1.491  1.2669 -0.1158 -1.4392
33032SOL    HW2 4933   2.339   0.965   1.479  1.0706  0.1010  1.0128
33033SOL     OW 4934   8.732   1.609   5.341 -0.1075 -0.2622  0.4000
33033SOL    HW1 4935   8.691   1.540   5.394 -2.1082 -0.7401 -1.6281
33033SOL    HW2 4936   8.676   1.617   5.264  2.7023  0.3235 -1.7525
33034SOL     OW 4937   7.362   3.958   0.296 -0.0773 -0.6626 -0.1644
33034SOL    HW1 4938   7.457   3.969   0.290 -0.2823  0.6489 -2.0597
33034SOL    HW2 4939   7.342   3.888   0.234 -0.4808  0.2051 -1.0453
33035SOL     OW 4940   8.742   9.331   9.392  0.2281  0.3936  0.3524
33035SOL    HW1 4941   8.726   9.274   9.317  1.3031  0.2733  0.2071
33035SOL    HW2 4942   8.765   9.271   9.464  1.4265  0.6236  0.1813
33036SOL     OW 4943   9.315   9.570   9.178 -0.1354  0.5795  0.0771
33036SOL    HW1 4944   9.270   9.546   9.258  1.0197  0.0305  0.5854
33036SOL    HW2 4945   9.408   9.569   9.201  0.1530  2.1001 -0.8178
33037SOL     OW 4946   3.627   3.587   8.774  0.0437  0.3636 -0.3780
33037SOL    HW1 4947   3.628   3.681   8.758 -0.5470  0.2216 -1.2808
33037SOL    HW2 4948   3.711   3.570   8.818  0.8848  1.0559 -1.6638
33038SOL     OW 4949   4.099   3.252   3.171 -0.1028 -0.6400  0.2012
33038SOL    HW1 4950   4.161   3.219   3.237  0.3218 -0.4614 -0.1050
33038SOL    HW2 4951   4.113   3.196   3.095 -0.0292 -0.3407 -0.0075
33039SOL     OW 4952   8.211   3.053   0.826 -0.1092  0.1431 -0.1915
33039SOL    HW1 4953   8.298   3.089   0.844  0.5493 -0.2364 -2.3368
33039SOL    HW2 4954   8.176   3.030   0.912  1.1378  2.0104  0.8772
33040SOL     OW 4955   1.092   6.881   7.976 -0.4477  0.4921  0.5700
33040SOL    HW1 4956   1.171   6.904   8.025  0.3501 -1.8686  0.4859
33040SOL    HW2 4957   1.119   6.879   7.885 -0.8393  0.5997  0.4494
33041SOL     OW 4958   7.211  10.583   4.680  0.2959 -0.0644 -0.2905
33041SOL    HW1 4959   7.126  10.626   4.681  0.9742  1.3274  0.4050
33041SOL    HW2 4960   7.266  10.637   4.736  1.8792 -0.4565 -1.3963
33042SOL     OW 4961   5.036   0.525   3.717  0.5698 -0.1720 -0.7029
33042SOL    HW1 4962   5.035   0.525   3.813 -0.2396 -2.0658 -0.6839
33042SOL    HW2 4963   4.953   0.566   3.693  0.4341 -0.3834 -0.5940
33043SOL     OW 4964   0.570  10.908   4.419  0.1824 -0.2778  0.1259
33043SOL    HW1 4965   0.496  10.906   4.480  0.4029  0.4111  0.4255
33043SOL    HW2 4966   0.534  10.941   4.337 -0.1798 -1.4851 -0.2242
33044SOL     OW 4967   7.468  10.361   2.977  0.4238  0.2020  0.5015
33044SOL    HW1 4968   7.511  10.442   2.949 -0.3517  0.7014  0.7292
33044SOL    HW2 4969   7.445  10.377   3.069 -1.7821  0.6218 -0.0819
33045SOL     OW 4970   2.704   1.842   9.332 -0.1089 -0.0006 -0.0805
33045SOL    HW1 4971   2.695   1.923   9.381  0.8001 -0.6917  1.2854
33045SOL    HW2 4972   2.675   1.864   9.243  0.3058  1.8420  0.2124
33046SOL     OW 4973   4.611   2.467   0.953 -0.5745  0.0540 -0.3601
33046SOL    HW1 4974   4.577   2.528   1.019  0.5084  0.5422 -0.2365
33046SOL    HW2 4975   4.611   2.517   0.871  1.4558  0.6787 -0.0366
33047SOL     OW 4976   8.901   3.963   1.648 -0.4410  0.0965  0.2254
33047SOL    HW1 4977   8.993   3.936   1.648 -0.4224  0.1285 -1.0916
33047SOL    HW2 4978   8.892   4.019   1.571 -1.5409  0.1784  0.4016
33048SOL     OW 4979  10.390   6.846   7.141 -0.4755 -0.2900  0.1447
33048SOL    HW1 4980  10.366   6.808   7.225 -1.5407 -2.4107 -1.0368
33048SOL    HW2 4981  10.463   6.905   7.162 -0.1862 -1.3276  2.4354
33049SOL     OW 4982   2.735   7.788   4.851 -0.3193 -0.2360 -0.1426
33049SOL    HW1 4983   2.755   7.871   4.894 -1.0481  0.5819 -1.3359
33049SOL    HW2 4984   2.681   7.741   4.915 -0.0293  0.2655  0.4850
33050SOL     OW 4985  10.728  10.831   9.994 -0.8125 -1.0179 -0.0755
33050SOL    HW1 4986  10.749  10.850  10.086 -0.0163  2.8461 -0.8699
33050SOL    HW2 4987  10.638  10.799   9.996 -1.1730 -0.0796  2.0197
33051SOL     OW 4988   1.059   9.429  10.838  0.3799 -1.0328 -0.1255
33051SOL    HW1 4989   1.021   9.344  10.857  0.9792 -1.0166  1.2339
33051SOL    HW2 4990   1.109   9.452  10.916  0.2521  0.5554 -0.4598
33052SOL     OW 4991   1.658   3.582   6.878  0.2790  0.0491 -0.1153
33052SOL    HW1 4992   1.705   3.642   6.821  1.3609 -1.1196 -0.5179
33052SOL    HW2 4993   1.625   3.514   6.819  0.8497 -0.8271  0.5375
33053SOL     OW 4994   5.330   2.097  10.297  0.6556 -0.2594  0.3919
33053SOL    HW1 4995   5.345   2.108  10.391  0.3320  0.4952  0.3571
33053SOL    HW2 4996   5.395   2.152  10.255 -0.7825  1.3965  0.2175
33054SOL     OW 4997   1.155   1.653   1.784  0.5260  0.5480  0.0255
33054SOL    HW1 4998   1.162   1.722   1.850 -0.0158 -0.7963  1.5578
33054SOL    HW2 4999   1.241   1.650   1.742  1.2002  0.7802  1.3586
33055SOL     OW 5000   6.663   3.383   7.940  1.0059  0.6727  0.7330
33055SOL    HW1 5001   6.677   3.437   7.862  2.4490 -0.1503  0.3775
33055SOL    HW2 5002   6.712   3.427   8.009 -0.3291  1.4387  1.2312
33056SOL     OW 5003   4.243   7.156   4.356  0.6872  0.1527  0.2849
33056SOL    HW1 5004   4.286   7.090   4.409  0.9349  0.7081  0.7910
33056SOL    HW2 5005   4.190   7.207   4.418  1.0341  0.8503  0.0224
33057SOL     OW 5006   0.659   2.175   4.501 -0.1421  0.2222  0.2688
33057SOL    HW1 5007   0.641   2.212   4.414  0.0890 -1.0296 -0.3193
33057SOL    HW2 5008   0.603   2.098   4.506  0.2696 -0.0333  1.0152
33058SOL     OW 5009   5.696   3.311   3.032  0.1510  0.6568 -0.0684
33058SOL    HW1 5010   5.619   3.346   3.076 -0.9175 -0.0022 -1.3685
33058SOL    HW2 5011   5.747   3.389   3.008 -0.7928  1.1715 -0.4181
33059SOL     OW 5012   5.137   9.870  10.212  0.5897  0.0906 -0.2778
33059SOL    HW1 5013   5.206   9.930  10.241 -0.6858  1.0649  0.8580
33059SOL    HW2 5014   5.059   9.925  10.207 -0.6127 -1.4711  0.7324
33060SOL     OW 5015   7.764  10.363   2.819 -0.2340 -0.2588  0.4942
33060SOL    HW1 5016   7.723  10.448   2.836  0.1378 -0.1649  0.9588
33060SOL    HW2 5017   7.757  10.351   2.725 -0.4719  0.1978  0.4524
33061SOL     OW 5018   6.583   5.894   8.960  0.0289 -0.2423  0.0934
33061SOL    HW1 5019   6.648   5.865   8.895 -0.7947 -1.3452 -0.2741
33061SOL    HW2 5020   6.525   5.952   8.911 -0.4369 -0.8648 -0.1038
33062SOL     OW 5021   5.704   7.586   6.680 -0.2221 -0.0467  0.0919
33062SOL    HW1 5022   5.641   7.613   6.613  0.3680 -0.6790 -0.7493
33062SOL    HW2 5023   5.758   7.664   6.694 -1.9311  0.9012  1.7532
33063SOL     OW 5024   8.534   5.129   7.528  0.1863  0.0362  0.4637
33063SOL    HW1 5025   8.456   5.163   7.572  0.9077  0.4501  1.4545
33063SOL    HW2 5026   8.533   5.170   7.442 -0.9147 -0.3015  0.3045
33064SOL     OW 5027   4.710   3.170   9.851  0.1294 -0.2368  0.2561
33064SOL    HW1 5028   4.797   3.179   9.812  0.5553 -1.5635  0.8482
33064SOL    HW2 5029   4.674   3.091   9.810 -2.3097  2.1455 -2.6749
33065SOL     OW 5030  10.756   9.900   1.942  0.3321 -0.5826  0.3867
33065SOL    HW1 5031  10.693   9.970   1.925  1.3754  0.1195 -0.7012
33065SOL    HW2 5032  10.838   9.945   1.962  0.6866 -1.4940  1.0775
33066SOL     OW 5033   8.858   7.890   9.348 -0.1563  0.6128  0.0241
33066SOL    HW1 5034   8.946   7.910   9.381  0.0446 -0.3441  0.1235
33066SOL    HW2 5035   8.845   7.798   9.372 -0.9773  0.5976 -0.4562
33067SOL     OW 5036   7.978   7.170   8.657  0.2844 -0.0365 -0.2898
33067SOL    HW1 5037   8.015   7.241   8.710 -1.4558  0.8105 -0.1328
33067SOL    HW2 5038   8.016   7.090   8.693 -0.0040  0.6056  1.5266
33068SOL     OW 5039   0.022   3.344   4.557 -0.5268  0.5070 -0.3283
33068SOL    HW1 5040  -0.010   3.363   4.645 -0.2866 -1.1873  0.1588
33068SOL    HW2 5041   0.115   3.326   4.568 -0.7386 -0.9436 -0.7055
33069SOL     OW 5042   3.915   6.396   4.647 -0.3756 -0.3706 -0.0472
33069SOL    HW1 5043   3.987   6.333   4.638 -1.0641 -1.2492  0.4100
33069SOL    HW2 5044   3.843   6.358   4.598 -0.6483  0.3194 -0.1896
33070SOL     OW 5045   5.102   0.723   8.833  0.0617 -0.2574  0.2411
33070SOL    HW1 5046   5.105   0.803   8.780 -1.4172 -0.5498 -0.3240
33070SOL    HW2 5047   5.080   0.753   8.921 -0.1933 -0.0136  0.0939
33071SOL     OW 5048   1.260   0.313   4.388 -0.5251 -0.6610  0.2216
33071SOL    HW1 5049   1.178   0.348   4.353 -0.0108  0.7047  0.3180
33071SOL    HW2 5050   1.235   0.266   4.467 -1.1458  0.2941  0.6032
33072SOL     OW 5051   6.994   5.459   3.027 -0.2997  0.2903 -0.6246
33072SOL    HW1 5052   7.084   5.431   3.046  0.1720  2.1405  0.1765
33072SOL    HW2 5053   7.004   5.549   2.995 -1.8101  0.2140 -1.3742
33073SOL     OW 5054   5.851   7.402   0.028  0.0952 -0.1948  0.2356
33073SOL    HW1 5055   5.846   7.321   0.079 -1.0314  0.8814  1.9312
33073SOL    HW2 5056   5.944   7.424   0.027  0.2268 -0.6789  1.1099
33074SOL     OW 5057   5.654   5.054   1.589 -0.0036  0.6881 -0.2332
33074SOL    HW1 5058   5.707   5.091   1.659  1.0828 -0.8130 -0.2066
33074SOL    HW2 5059   5.615   4.975   1.627  1.1412 -0.5214 -1.4546
33075SOL     OW 5060   6.853   0.398   5.010  0.6928  0.4206 -0.0732
33075SOL    HW1 5061   6.859   0.313   4.966  0.3827  1.0399 -1.3771
33075SOL    HW2 5062   6.944   0.423   5.028  0.7547 -0.4495  0.8668
33076SOL     OW 5063   3.166   2.696   6.684  0.5594  0.2673  0.0766
33076SOL    HW1 5064   3.176   2.694   6.588  0.2343  0.0514  0.0454
33076SOL    HW2 5065   3.074   2.675   6.698  1.0484 -1.8937  0.5159
33077SOL     OW 5066   1.302   7.573   4.540 -0.2303  0.2991  0.1850
33077SOL    HW1 5067   1.311   7.515   4.616  0.8620  0.2128 -0.0018
33077SOL    HW2 5068   1.217   7.616   4.553  0.7898  1.7828  2.5020
33078SOL     OW 5069   0.012   6.523   7.913  0.1876 -0.5278 -0.2458
33078SOL    HW1 5070   0.072   6.498   7.843  0.3561 -2.4616  0.5366
33078SOL    HW2 5071  -0.060   6.461   7.907  0.0275 -0.5122  1.0544
33079SOL     OW 5072   2.059   7.486   2.847  0.0452  0.5080  0.2809
33079SOL    HW1 5073   2.112   7.407   2.834 -1.4606 -0.7150  1.2210
33079SOL    HW2 5074   1.969   7.454   2.850 -0.6915  2.3914 -0.1765
33080SOL     OW 5075   7.525   5.835   0.241 -0.4510 -0.0211  0.2205
33080SOL    HW1 5076   7.517   5.920   0.284  0.6452 -0.8413  2.1428
33080SOL    HW2 5077   7.507   5.771   0.310  1.5566 -1.4100 -0.4668
33081SOL     OW 5078   4.402   5.454   8.726  0.2074  0.3669  0.5426
33081SOL    HW1 5079   4.335   5.400   8.685  1.9874 -1.5937  0.0182
33081SOL    HW2 5080   4.452   5.490   8.652 -0.3225  1.9413  0.9165
33082SOL     OW 5081  10.121   3.046   5.052 -0.4550  0.2674 -0.1447
33082SOL    HW1 5082  10.027   3.025   5.050 -0.4060  0.0918 -1.0587
33082SOL    HW2 5083  10.134   3.101   4.975  0.6726 -1.9026 -1.6209
33083SOL     OW 5084   2.909   9.693   6.392  0.4061 -0.2847 -0.6615
33083SOL    HW1 5085   2.953   9.773   6.364 -0.1367  0.0865 -0.4689
33083SOL    HW2 5086   2.865   9.662   6.313 -1.4894  0.9999 -0.1748
33084SOL     OW 5087  10.223   4.086   0.022  0.5683 -0.1871  0.3205
33084SOL    HW1 5088  10.150   4.145   0.006  0.0539 -0.7284  0.6149
33084SOL    HW2 5089  10.264   4.076  -0.064  0.4018  0.2543  0.1861
33085SOL     OW 5090   5.341   8.605   0.406 -0.3101 -0.0334 -0.1874
33085SOL    HW1 5091   5.293   8.688   0.413  0.4814  0.4517 -0.3565
33085SOL    HW2 5092   5.384   8.610   0.320 -1.2319 -1.1534 -0.7241
33086SOL     OW 5093   5.097   1.336   1.140 -0.5164 -0.1789  0.0577
33086SOL    HW1 5094   5.123   1.398   1.208  0.4620 -0.7505  0.2233
33086SOL    HW2 5095   5.002   1.343   1.136 -0.4749  0.8107  0.5717
33087SOL     OW 5096   8.812   0.538  10.013  0.7115  0.2617  0.0836
33087SOL    HW1 5097   8.806   0.600  10.086  0.3131  1.4704 -0.9438
33087SOL    HW2 5098   8.727   0.544   9.970  0.6799 -0.9862 -0.0800
33088SOL     OW 5099   2.483   2.379   5.575  0.4168 -0.4157 -0.2070
33088SOL    HW1 5100   2.446   2.300   5.614 -1.1386 -0.1814 -1.1041
33088SOL    HW2 5101   2.417   2.447   5.591  0.4667  0.0435 -1.7827
33089SOL     OW 5102   6.063   0.420   8.083 -0.6286  0.1568  0.0153
33089SOL    HW1 5103   6.042   0.333   8.051  1.0108 -0.9804  1.8179
33089SOL    HW2 5104   6.067   0.411   8.178 -2.1815  2.6444  0.4160
33090SOL     OW 5105   8.184  10.320   2.768  0.1705 -0.1304 -0.3468
33090SOL    HW1 5106   8.279  10.330   2.764  0.1678  0.1452  0.2781
33090SOL    HW2 5107   8.170  10.225   2.767  0.3945 -0.1681 -1.5598
33091SOL     OW 5108   5.055   4.073   8.572 -0.2761  0.5254  0.2521
33091SOL    HW1 5109   5.088   4.109   8.655 -0.7221  1.3519  0.0855
33091SOL    HW2 5110   4.978   4.126   8.552  0.0742  0.6245 -0.9133
33092SOL     OW 5111   6.691   3.462   8.867 -0.0254  0.4709 -0.3904
33092SOL    HW1 5112   6.656   3.523   8.801  0.3777 -0.9427 -1.9730
33092SOL    HW2 5113   6.681   3.509   8.950 -2.5423  1.4933 -1.1620
33093SOL     OW 5114   2.391   2.976   0.802 -0.0614  0.4194  0.5657
33093SOL    HW1 5115   2.348   2.894   0.778 -0.5369  0.3547  1.6093
33093SOL    HW2 5116   2.464   2.949   0.858  0.1679  0.6689  0.3885
33094SOL     OW 5117   2.492   4.249   1.632 -0.3901 -0.3468 -0.1881
33094SOL    HW1 5118   2.529   4.271   1.717 -0.5062 -1.6088  0.2204
33094SOL    HW2 5119   2.433   4.175   1.650 -2.1335  0.7791 -1.0235
33095SOL     OW 5120  10.102   9.901   7.559  0.1989 -0.0782  0.4041
33095SOL    HW1 5121  10.102   9.807   7.540 -1.9226 -0.1087  0.3213
33095SOL    HW2 5122  10.065   9.908   7.647 -2.4926  0.7759 -0.6882
33096SOL     OW 5123   4.205   9.485   6.829  0.3944 -0.2532  0.0867
33096SOL    HW1 5124   4.293   9.472   6.793 -0.2493  0.4311 -1.9105
33096SOL    HW2 5125   4.173   9.565   6.786 -1.3183 -0.6772  0.4784
33097SOL     OW 5126   5.303   3.741   8.847 -0.0819 -0.0426 -0.1363
33097SOL    HW1 5127   5.223   3.695   8.873 -0.0857  0.1074  0.1244
33097SOL    HW2 5128   5.369   3.673   8.839 -0.5489 -0.3658 -1.7055
33098SOL     OW 5129   8.959   4.856   2.651 -0.1760  0.2348 -0.5482
33098SOL    HW1 5130   8.987   4.948   2.646  2.0596 -0.4468 -3.9699
33098SOL    HW2 5131   9.021   4.817   2.714 -0.6390  0.8697  0.3311
33099SOL     OW 5132   1.675   9.694   1.762  0.3632  0.2960  0.5044
33099SOL    HW1 5133   1.692   9.600   1.769  0.8864  0.3662  0.2849
33099SOL    HW2 5134   1.612   9.713   1.832 -0.3968 -0.3647  0.0156
33100SOL     OW 5135   9.926   6.566   8.653 -0.0186  0.5287 -0.4685
33100SOL    HW1 5136   9.857   6.531   8.596 -0.0013 -0.4587  0.0927
33100SOL    HW2 5137   9.999   6.584   8.593  0.3089 -1.3115 -0.6885
33101SOL     OW 5138   9.531   4.620  10.874 -0.0775 -0.2380  0.2547
33101SOL    HW1 5139   9.572   4.579  10.797 -0.0228  0.0076  0.1517
33101SOL    HW2 5140   9.603   4.634  10.935 -0.0677 -0.1415  0.2216
33102SOL     OW 5141   6.986   2.411   3.386  0.5266 -0.0606  0.4316
33102SOL    HW1 5142   7.028   2.448   3.308  1.3487 -0.4823  0.6579
33102SOL    HW2 5143   7.021   2.322   3.392  1.4836  0.3928  1.9999
33103SOL     OW 5144   9.169   3.031   6.608 -0.0781 -0.7343  0.3238
33103SOL    HW1 5145   9.263   3.043   6.595 -0.0215 -0.7071  0.7334
33103SOL    HW2 5146   9.163   2.951   6.660 -0.2368 -0.3321  0.9378
33104SOL     OW 5147   5.599   7.850   8.940 -0.3446  0.7751 -0.2122
33104SOL    HW1 5148   5.530   7.890   8.994  1.0435 -0.2943  2.5715
33104SOL    HW2 5149   5.555   7.779   8.894 -1.2195  0.3448  1.2241
33105SOL     OW 5150   3.082   6.761   2.268  0.1458  0.1394  0.3552
33105SOL    HW1 5151   3.132   6.694   2.315 -0.4278 -0.6201 -0.0967
33105SOL    HW2 5152   3.025   6.712   2.210 -0.3089  1.0296  0.0324
33106SOL     OW 5153   5.805   3.200   7.777 -0.6504  0.0504 -0.5824
33106SOL    HW1 5154   5.761   3.250   7.845 -2.3059 -1.6614 -0.3116
33106SOL    HW2 5155   5.781   3.243   7.695  0.3404  1.3869 -0.1907
33107SOL     OW 5156   7.968   7.323   7.894  0.0551 -0.1992  0.4470
33107SOL    HW1 5157   7.991   7.386   7.962  2.2647 -1.2622  0.7603
33107SOL    HW2 5158   7.961   7.240   7.940 -0.5245 -0.5858 -0.3129
33108SOL     OW 5159   8.561   0.292   6.888  0.4704 -0.3073  0.2220
33108SOL    HW1 5160   8.608   0.321   6.966  2.1663  1.1276 -1.2485
33108SOL    HW2 5161   8.569   0.196   6.889  2.6881 -0.1594  0.5185
33109SOL     OW 5162   3.043   2.224   7.648  0.2976  0.6052  0.3243
33109SOL    HW1 5163   2.947   2.225   7.648  0.2388 -1.6187  0.3118
33109SOL    HW2 5164   3.067   2.135   7.672  2.3469  0.5584 -1.5480
33110SOL     OW 5165   2.597   7.426   4.526 -0.3966  0.0756 -0.2817
33110SOL    HW1 5166   2.639   7.510   4.510  1.0255 -0.7084 -0.7995
33110SOL    HW2 5167   2.641   7.392   4.604 -1.6567  0.2409  0.5257
33111SOL     OW 5168   9.838  10.846   3.902  0.4315  0.1248  0.2450
33111SOL    HW1 5169   9.914  10.797   3.871  0.7028  0.6075  0.1394
33111SOL    HW2 5170   9.778  10.779   3.935  0.4473 -0.3431 -0.6375
33112SOL     OW 5171   5.900   3.242   2.539 -0.1294 -0.4800 -0.3835
33112SOL    HW1 5172   5.867   3.152   2.539  1.2721 -1.0325 -1.4495
33112SOL    HW2 5173   5.840   3.289   2.596 -2.2384 -1.5902 -1.5600
33113SOL     OW 5174   7.401   2.875   4.406 -0.3248 -0.2868 -0.5672
33113SOL    HW1 5175   7.367   2.891   4.318 -0.8401  0.5630 -0.2246
33113SOL    HW2 5176   7.407   2.962   4.445 -0.3931 -0.6882  0.3478
33114SOL     OW 5177   6.584   4.632   9.340  0.0470  0.3501  0.1429
33114SOL    HW1 5178   6.496   4.660   9.365  0.5806  3.3500 -0.9437
33114SOL    HW2 5179   6.574   4.598   9.251 -0.2196 -0.9477  0.6351
33115SOL     OW 5180   8.883   5.031   9.540  0.7942 -0.0219  0.0496
33115SOL    HW1 5181   8.930   4.953   9.509  0.2682 -0.3513  0.0739
33115SOL    HW2 5182   8.829   4.999   9.612  2.4533  0.8367  1.7592
33116SOL     OW 5183   7.099   0.724   5.064 -0.6367  0.0479  0.7811
33116SOL    HW1 5184   7.121   0.642   5.107  0.2849  0.9184  2.0446
33116SOL    HW2 5185   7.127   0.712   4.973 -0.4090 -0.9792  0.9831
33117SOL     OW 5186   7.323   5.899   7.279 -0.2458  0.7184 -0.2622
33117SOL    HW1 5187   7.296   5.863   7.363 -2.0610  1.4146 -0.5132
33117SOL    HW2 5188   7.263   5.860   7.215 -0.3074  1.8680 -0.9318
33118SOL     OW 5189   6.342   7.444   6.671  0.3285 -0.2059 -0.1895
33118SOL    HW1 5190   6.379   7.356   6.662 -0.1758 -0.3259 -1.2198
33118SOL    HW2 5191   6.319   7.469   6.582 -0.7452  0.4469  0.2570
33119SOL     OW 5192   0.478   0.249   8.452  0.5320  0.7690  0.2008
33119SOL    HW1 5193   0.398   0.224   8.407  1.1454 -1.0154  0.0110
33119SOL    HW2 5194   0.449   0.282   8.537 -0.4217  0.3997  0.0264
33120SOL     OW 5195  10.469   4.315   6.541  0.7832  0.3430  0.0610
33120SOL    HW1 5196  10.461   4.242   6.601  0.7325  0.5255  0.2771
33120SOL    HW2 5197  10.553   4.302   6.497  0.1617 -0.5920 -0.8994
33121SOL     OW 5198   4.351   4.629   1.925  0.0566  0.0939  0.1990
33121SOL    HW1 5199   4.391   4.565   1.985  1.9340 -1.4496 -2.4996
33121SOL    HW2 5200   4.381   4.603   1.838 -2.4766  2.2595 -1.4872
33122SOL     OW 5201   7.112   8.685   2.365  0.0570  0.5010 -0.1096
33122SOL    HW1 5202   7.140   8.679   2.456  0.8732  0.1991 -0.3632
33122SOL    HW2 5203   7.099   8.594   2.338 -0.1367  0.5849 -0.3013
33123SOL     OW 5204   1.136   5.315   3.461 -0.2602  0.1034 -0.1229
33123SOL    HW1 5205   1.174   5.403   3.454  0.2987  0.0398  1.5660
33123SOL    HW2 5206   1.108   5.294   3.372  1.0003  1.3578 -0.8677
33124SOL     OW 5207   1.981   2.701   6.875 -0.0149 -0.0815  0.0890
33124SOL    HW1 5208   2.065   2.678   6.835 -0.0905 -0.4666  0.1530
33124SOL    HW2 5209   1.921   2.631   6.849 -0.0465 -0.3796  0.9356
33125SOL     OW 5210  10.087   5.482   6.738  0.0033 -0.0247 -0.0154
33125SOL    HW1 5211  10.139   5.519   6.666 -0.2905 -0.2987 -0.3739
33125SOL    HW2 5212  10.010   5.444   6.695 -1.0224  1.2809  0.5914
33126SOL     OW 5213   4.882   2.686   8.474 -0.3174  0.0315  0.1657
33126SOL    HW1 5214   4.946   2.752   8.500  0.4159  1.0015 -3.4827
33126SOL    HW2 5215   4.935   2.611   8.446 -0.9072 -0.2142 -0.3126
33127SOL     OW 5216   8.746   3.480   9.684  0.1859  0.4020  0.1374
33127SOL    HW1 5217   8.696   3.549   9.640 -0.5233 -0.7896 -1.0171
33127SOL    HW2 5218   8.826   3.523   9.714 -0.1171  1.6654 -0.7931
33128SOL     OW 5219   2.180   9.323   8.791  0.7253 -0.4220 -0.1861
33128SOL    HW1 5220   2.089   9.348   8.808  0.8434 -0.0535 -0.0937
33128SOL    HW2 5221   2.173   9.240   8.744  0.3760 -0.9229  0.7426
33129SOL     OW 5222   9.395   1.384  10.427  0.6885  0.0888 -0.4944
33129SOL    HW1 5223   9.472   1.436  10.452  0.6349 -1.2994  3.1463
33129SOL    HW2 5224   9.428   1.321  10.363  2.4088  0.1130  0.3100
33130SOL     OW 5225   9.361   2.697   8.259  0.1172  0.2546  0.0000
33130SOL    HW1 5226   9.364   2.787   8.292  1.3257  0.9496 -1.8375
33130SOL    HW2 5227   9.356   2.642   8.338  0.4842  1.8829  1.2015
33131SOL     OW 5228   1.464   5.407   5.828  0.3946  0.0574 -0.2796
33131SOL    HW1 5229   1.550   5.449   5.822  0.6500 -0.5205 -0.8994
33131SOL    HW2 5230   1.410   5.468   5.877  0.9927  0.7105 -0.4210
33132SOL     OW 5231  10.199   7.729   0.567  0.7890  0.3555  0.4145
33132SOL    HW1 5232  10.158   7.805   0.525  0.8823  1.0277  1.4920
33132SOL    HW2 5233  10.247   7.767   0.641  1.7393 -0.6372  0.3236
33133SOL     OW 5234   4.139   0.220   7.552  0.1120  0.0151 -0.4940
33133SOL    HW1 5235   4.100   0.180   7.474  0.7501 -1.2407 -0.1991
33133SOL    HW2 5236   4.065   0.257   7.600 -0.4805 -0.6161 -0.8986
33134SOL     OW 5237   2.399   9.275   1.316 -0.2389 -0.1780  0.1499
33134SOL    HW1 5238   2.379   9.354   1.368 -1.2485  0.2460 -0.8248
33134SOL    HW2 5239   2.430   9.309   1.233 -1.3119 -0.7836 -0.5211
33135SOL     OW 5240   1.655   4.132   6.712 -0.3507 -0.6064 -0.1426
33135SOL    HW1 5241   1.654   4.081   6.631  0.1013 -2.2477  0.8489
33135SOL    HW2 5242   1.738   4.111   6.754  1.0070  2.8370 -0.7877
33136SOL     OW 5243   2.495   7.443   2.670  0.3779 -0.0527 -0.6525
33136SOL    HW1 5244   2.465   7.533   2.686 -1.3069 -0.9292  1.5323
33136SOL    HW2 5245   2.551   7.423   2.745  1.8613 -0.4517 -1.7919
33137SOL     OW 5246   8.714  10.745   8.944  0.0139  0.1753  0.4327
33137SOL    HW1 5247   8.772  10.797   8.999 -0.2998  0.1705  0.7778
33137SOL    HW2 5248   8.705  10.662   8.991  0.8452 -0.3617 -0.3166
33138SOL     OW 5249   7.416   1.293   1.675  0.1755 -0.6631  0.4101
33138SOL    HW1 5250   7.498   1.281   1.722 -0.4128  0.9848  1.9765
33138SOL    HW2 5251   7.433   1.365   1.614  0.4358 -1.6606 -0.7385
33139SOL     OW 5252   8.589   7.386   4.699 -0.1842  0.2967  0.1840
33139SOL    HW1 5253   8.545   7.442   4.763 -1.5665  0.8398 -1.1769
33139SOL    HW2 5254   8.523   7.321   4.674  0.2426  0.2421 -0.8612
33140SOL     OW 5255   9.692   6.361   3.870 -0.1064  0.3629 -0.1377
33140SOL    HW1 5256   9.616   6.382   3.923 -0.4977  0.2589 -0.6459
33140SOL    HW2 5257   9.767   6.380   3.926 -0.5175 -0.6144  0.7674
33141SOL     OW 5258   2.691   2.959   6.050 -0.0500 -0.0049 -0.4754
33141SOL    HW1 5259   2.664   3.036   5.999 -0.1934  0.2918  0.0399
33141SOL    HW2 5260   2.758   2.917   5.996 -0.1882  0.3146 -0.9023
33142SOL     OW 5261   4.245   7.434   1.449 -0.1831  0.0925 -0.2904
33142SOL    HW1 5262   4.295   7.386   1.383  1.1554  0.3473  0.5026
33142SOL    HW2 5263   4.228   7.519   1.408 -0.2938 -0.1289 -0.7125
33143SOL     OW 5264   2.808   3.701   8.643 -0.1268  0.4301  0.3284
33143SOL    HW1 5265   2.784   3.608   8.646 -0.3912  0.5134  1.8029
33143SOL    HW2 5266   2.872   3.707   8.573 -0.0555 -0.8837  0.2515
33144SOL     OW 5267   0.297   1.497  10.125  0.0578  0.3567 -0.5508
33144SOL    HW1 5268   0.367   1.433  10.136  0.9152  1.2228 -0.8213
33144SOL    HW2 5269   0.333   1.561  10.063 -0.3279  1.7184  0.5830
33145SOL     OW 5270   6.864   1.854   9.403 -0.3762  0.3526  0.3121
33145SOL    HW1 5271   6.848   1.833   9.495 -0.6769 -1.0221 -0.0382
33145SOL    HW2 5272   6.960   1.857   9.396 -0.3508  0.3140  0.6324
33146SOL     OW 5273  10.088   6.453   6.911  0.0433  0.3066 -1.2455
33146SOL    HW1 5274  10.076   6.358   6.906 -0.6689  0.3831 -1.0126
33146SOL    HW2 5275  10.003   6.487   6.938  1.1385  0.7154  2.2855
33147SOL     OW 5276   2.895   9.189   0.707  0.5811 -0.0147  0.0315
33147SOL    HW1 5277   2.860   9.178   0.796  0.7183  1.3301  0.2735
33147SOL    HW2 5278   2.990   9.183   0.719  0.5837 -0.2851 -0.1070
33148SOL     OW 5279   7.595   3.702  10.225  0.2581  0.0296  0.4832
33148SOL    HW1 5280   7.571   3.641  10.295  1.3643 -0.1971  0.6920
33148SOL    HW2 5281   7.656   3.763  10.267  0.1789  0.4815 -0.0517
33149SOL     OW 5282   5.311   8.867   0.495 -0.1971  0.5879  0.0251
33149SOL    HW1 5283   5.333   8.896   0.583  2.4444 -0.8162 -0.0480
33149SOL    HW2 5284   5.327   8.943   0.439  0.9848  0.6984  0.4733
33150SOL     OW 5285   8.632   2.877   3.117  0.1301 -0.0324 -0.1107
33150SOL    HW1 5286   8.598   2.954   3.162  0.3154  1.5678 -2.4934
33150SOL    HW2 5287   8.714   2.857   3.162  0.0964  1.1998  0.5415
33151SOL     OW 5288   3.566   8.245   3.582  0.0584  0.4158  0.4949
33151SOL    HW1 5289   3.487   8.192   3.581  1.5128 -1.8961 -0.6925
33151SOL    HW2 5290   3.623   8.203   3.645  1.1217  0.7789 -0.1928
33152SOL     OW 5291   8.871  10.075   4.736  0.0769 -0.0810 -0.2656
33152SOL    HW1 5292   8.936  10.072   4.666 -0.8107  0.1401 -1.1185
33152SOL    HW2 5293   8.887  10.158   4.781  0.2570  0.0732 -0.6106
33153SOL     OW 5294  10.298   5.323   8.329  0.2147  0.1384 -0.5457
33153SOL    HW1 5295  10.255   5.383   8.268 -1.0154  1.7934  1.7954
33153SOL    HW2 5296  10.389   5.352   8.332 -0.6343  3.0179  1.6171
33154SOL     OW 5297   4.806   0.767  10.125 -0.0313 -0.0274  0.7323
33154SOL    HW1 5298   4.774   0.690  10.077  1.7203 -0.7921  0.6983
33154SOL    HW2 5299   4.902   0.758  10.122  0.2323  2.2846  0.5315
33155SOL     OW 5300   2.801   8.781   5.312 -0.1696 -0.6151  0.0763
33155SOL    HW1 5301   2.824   8.783   5.405  1.9359 -2.5837 -0.3097
33155SOL    HW2 5302   2.748   8.703   5.302  0.7233 -1.1534 -0.5666
33156SOL     OW 5303   7.090   6.336   8.407  0.4398  1.3166 -0.5842
33156SOL    HW1 5304   7.041   6.393   8.347  2.9868  0.9431 -3.2492
33156SOL    HW2 5305   7.144   6.282   8.350  0.4409 -1.6542  1.9796
33157SOL     OW 5306   9.993   9.746   5.597 -0.9982  0.1653  0.1442
33157SOL    HW1 5307   9.924   9.684   5.618 -0.7348 -0.0383  0.4069
33157SOL    HW2 5308  10.044   9.703   5.529 -0.9462  0.1869  0.1691
33158SOL     OW 5309   3.780   0.143   4.263 -0.2048 -0.4267 -0.0887
33158SOL    HW1 5310   3.771   0.065   4.318  0.4623  1.2085  2.4856
33158SOL    HW2 5311   3.712   0.132   4.196 -0.9111 -2.6437  0.8864
33159SOL     OW 5312   2.173  10.767   4.035  0.1857  1.1074  0.4377
33159SOL    HW1 5313   2.213  10.703   4.094  2.5507  1.3228 -0.7948
33159SOL    HW2 5314   2.166  10.847   4.086 -0.2753  0.5864  1.1962
33160SOL     OW 5315   9.720   7.465   9.445  0.0452  0.5690 -0.2365
33160SOL    HW1 5316   9.652   7.403   9.472  0.5902 -1.7093 -3.5694
33160SOL    HW2 5317   9.798   7.438   9.494  0.0231 -0.8287 -0.9128
33161SOL     OW 5318   3.144   6.548   6.918  0.3798  0.5128 -0.1341
33161SOL    HW1 5319   3.149   6.504   6.834 -1.1474  0.2998 -0.1360
33161SOL    HW2 5320   3.199   6.495   6.976 -2.1709 -2.0861  0.1182
33162SOL     OW 5321   8.007   7.632  10.163 -0.0957 -0.3257  0.5298
33162SOL    HW1 5322   8.095   7.667  10.145 -0.6498  0.3465 -1.0490
33162SOL    HW2 5323   8.023   7.544  10.197  1.1704 -0.4806 -0.4028
33163SOL     OW 5324   8.180   7.490   7.038  0.4781  0.4351  0.0129
33163SOL    HW1 5325   8.122   7.488   6.962 -1.9320 -0.2484  1.7599
33163SOL    HW2 5326   8.216   7.401   7.042  1.1582  0.6672 -0.6857
33164SOL     OW 5327   4.945   5.113   9.929  0.4129 -0.4483 -0.0585
33164SOL    HW1 5328   4.941   5.127   9.834 -0.5752 -1.7571 -0.2527
33164SOL    HW2 5329   4.902   5.190   9.966  0.6315 -0.0162 -0.6779
33165SOL     OW 5330  10.490   5.382   7.287 -0.2795 -0.0131  0.4927
33165SOL    HW1 5331  10.425   5.452   7.283 -0.8179 -0.5264  0.2047
33165SOL    HW2 5332  10.536   5.387   7.203  0.9202  1.1568  1.1800
33166SOL     OW 5333   3.025   2.813   8.070 -0.3619 -0.9111 -0.5155
33166SOL    HW1 5334   3.094   2.880   8.072 -0.3241 -0.8005 -2.7322
33166SOL    HW2 5335   3.027   2.773   8.157  0.5555  1.0183  0.4083
33167SOL     OW 5336  10.229   7.502   6.464  0.5032  0.3782 -0.1167
33167SOL    HW1 5337  10.198   7.457   6.386 -0.0620 -2.1288  1.4292
33167SOL    HW2 5338  10.150   7.520   6.515  1.0557 -0.6441  1.1511
33168SOL     OW 5339   5.078   2.877   8.526 -0.2098  0.1993  0.0867
33168SOL    HW1 5340   5.058   2.970   8.536 -0.9981  0.0519 -0.0546
33168SOL    HW2 5341   5.100   2.867   8.433  2.1252  0.6428  0.5345
33169SOL     OW 5342   8.272   3.021   7.403 -0.3122 -0.6255 -0.1387
33169SOL    HW1 5343   8.268   3.104   7.356  0.1412 -0.1621  0.6107
33169SOL    HW2 5344   8.185   3.010   7.441  0.0963  0.3761  1.1702
33170SOL     OW 5345   3.566   0.302   0.923 -0.0389  0.2524 -0.4580
33170SOL    HW1 5346   3.560   0.249   1.002 -3.1051  0.0108 -0.7448
33170SOL    HW2 5347   3.481   0.292   0.881  0.6410  2.3432 -2.5245
33171SOL     OW 5348   8.527   6.730   2.751 -0.5932 -0.1317 -0.4323
33171SOL    HW1 5349   8.523   6.819   2.714  2.7859 -0.1255 -1.1369
33171SOL    HW2 5350   8.510   6.742   2.844  2.6261  1.8518  0.0539
33172SOL     OW 5351   9.964   4.319   9.794  0.1260 -0.2161  0.2004
33172SOL    HW1 5352   9.883   4.275   9.817 -0.9091  1.2320 -0.5484
33172SOL    HW2 5353  10.002   4.346   9.877 -1.5487  1.4709  0.4612
33173SOL     OW 5354  10.747   0.439   9.140 -0.9992  0.1805 -0.1334
33173SOL    HW1 5355  10.763   0.513   9.199 -0.9924 -1.1779  1.6455
33173SOL    HW2 5356  10.764   0.474   9.053  0.3905  1.8978  0.7595
33174SOL     OW 5357   0.740   2.535   3.923  0.4218  0.1166 -0.1041
33174SOL    HW1 5358   0.715   2.478   3.851  0.3384 -0.1251  0.1120
33174SOL    HW2 5359   0.749   2.622   3.884  1.3403 -0.1879 -0.5925
33175SOL     OW 5360   6.725   2.817   0.197  0.4793  0.0325 -0.1178
33175SOL    HW1 5361   6.694   2.752   0.261  0.1003  0.8375  0.5296
33175SOL    HW2 5362   6.646   2.843   0.150  0.5111  0.5415  0.1061
33176SOL     OW 5363   3.662   3.662   4.766 -0.1182  0.2380 -0.9826
33176SOL    HW1 5364   3.659   3.751   4.730  0.5710  1.2972  1.3360
33176SOL    HW2 5365   3.740   3.623   4.726  0.9043  1.5324 -0.3281
33177SOL     OW 5366   9.489   4.575   5.298 -0.1985 -0.1314 -0.3294
33177SOL    HW1 5367   9.492   4.614   5.211 -0.3335  0.1998 -0.1850
33177SOL    HW2 5368   9.402   4.535   5.303 -0.8810  1.3853  0.3171
33178SOL     OW 5369   5.321   9.330   6.029 -0.3939  0.0806 -0.1575
33178SOL    HW1 5370   5.288   9.386   6.100 -2.0924 -0.6575 -0.3172
33178SOL    HW2 5371   5.287   9.371   5.949  0.3171  0.1038 -0.4589
33179SOL     OW 5372   3.458   5.058   0.996  0.0937 -0.3776  0.6232
33179SOL    HW1 5373   3.461   5.154   0.997 -1.1280 -0.3284  2.0395
33179SOL    HW2 5374   3.499   5.034   0.912  1.1857  1.3314  0.6092
33180SOL     OW 5375   4.863   7.937   6.210 -0.7643  0.0040  0.1313
33180SOL    HW1 5376   4.930   8.001   6.235 -1.4796  2.1008 -2.8103
33180SOL    HW2 5377   4.789   7.956   6.268  0.1785 -0.5182  1.5631
33181SOL     OW 5378   5.194  10.452   1.847  0.1329 -0.3112 -0.0657
33181SOL    HW1 5379   5.150  10.531   1.817  0.0950  0.6825  2.3945
33181SOL    HW2 5380   5.288  10.471   1.838  0.1584 -1.1512 -2.1569
33182SOL     OW 5381   4.387  10.763   4.679  0.4147 -0.0856  0.6811
33182SOL    HW1 5382   4.396  10.669   4.664  1.3514 -0.0805  1.1331
33182SOL    HW2 5383   4.295  10.776   4.700  0.0291 -0.7265 -0.5208
33183SOL     OW 5384   2.608   8.869   9.768  0.0089 -0.3925 -0.3331
33183SOL    HW1 5385   2.516   8.852   9.787 -0.1409  1.7498  1.1796
33183SOL    HW2 5386   2.632   8.942   9.825  2.3310 -0.0910 -1.5486
33184SOL     OW 5387   0.901   8.420   7.608  0.5398 -0.2472  0.4488
33184SOL    HW1 5388   0.898   8.325   7.620 -1.3363 -0.1497  1.0841
33184SOL    HW2 5389   0.811   8.449   7.624  0.6046  1.4121 -1.7197
33185SOL     OW 5390   5.224   8.990   2.115  0.2279 -0.4411 -0.0119
33185SOL    HW1 5391   5.214   8.934   2.038  0.1598  2.3357 -2.2224
33185SOL    HW2 5392   5.318   8.997   2.128  0.2565 -0.5678 -0.1504
33186SOL     OW 5393   3.499   6.013   3.516 -0.0571 -0.5299  0.2087
33186SOL    HW1 5394   3.433   5.969   3.462 -0.1346 -0.7122  0.4498
33186SOL    HW2 5395   3.561   6.050   3.453 -0.7479  0.2263 -0.0537
33187SOL     OW 5396  10.319  10.782   8.148 -0.3057  0.1205  0.0432
33187SOL    HW1 5397  10.377  10.858   8.140  0.6628 -0.7042 -1.1643
33187SOL    HW2 5398  10.265  10.801   8.225 -0.3403  2.1878 -0.4173
33188SOL     OW 5399   0.698   7.887   4.598  0.7478  0.5065 -1.0927
33188SOL    HW1 5400   0.705   7.968   4.547  1.4201  0.8143 -0.5270
33188SOL    HW2 5401   0.742   7.906   4.680  0.4370 -0.2670 -0.7344
33189SOL     OW 5402   8.599   3.081   4.864 -0.3073 -0.2184  0.0778
33189SOL    HW1 5403   8.673   3.136   4.889 -0.2304 -0.6341  0.7846
33189SOL    HW2 5404   8.558   3.056   4.946  0.0360 -1.7225 -0.1756
33190SOL     OW 5405   2.997   7.842   6.782  0.3216 -0.1086 -0.8022
33190SOL    HW1 5406   2.963   7.887   6.704  0.9879  0.5606 -0.7142
33190SOL    HW2 5407   2.920   7.800   6.821 -0.3982  1.3032 -0.6603
33191SOL     OW 5408   6.954   6.409   0.301 -0.9475 -0.2478  0.0780
33191SOL    HW1 5409   7.028   6.350   0.289  1.2466  1.7412  2.7471
33191SOL    HW2 5410   6.927   6.432   0.212  0.6580 -2.1590 -0.9654
33192SOL     OW 5411  10.907   4.975   6.604 -0.3911  0.6918 -0.3517
33192SOL    HW1 5412  10.885   5.068   6.605 -0.2897  0.7391 -1.4137
33192SOL    HW2 5413  10.994   4.971   6.565  0.7462  0.3389  2.0173
33193SOL     OW 5414   9.805   4.855   3.521 -0.1606 -0.1809  0.3181
33193SOL    HW1 5415   9.722   4.864   3.568  0.5639  0.1200  1.5737
33193SOL    HW2 5416   9.810   4.762   3.498 -1.5080  0.0436 -1.0760
33194SOL     OW 5417   7.153   7.675   8.019 -0.2178 -0.3339  0.7802
33194SOL    HW1 5418   7.131   7.595   7.971 -1.4961  0.4608 -0.0127
33194SOL    HW2 5419   7.247   7.668   8.034 -0.4803 -2.5215  1.7754
33195SOL     OW 5420   3.084   3.799   5.227 -0.7377 -0.2786 -0.4953
33195SOL    HW1 5421   3.002   3.801   5.275 -0.3374 -0.5558  0.2168
33195SOL    HW2 5422   3.062   3.831   5.139 -1.3761  0.7111  0.0105
33196SOL     OW 5423  10.847   4.782  10.701  0.4471 -0.0508 -0.0303
33196SOL    HW1 5424  10.907   4.851  10.673 -0.7401  1.0288 -0.0285
33196SOL    HW2 5425  10.868   4.707  10.645  1.3739  0.5023 -0.4372
33197SOL     OW 5426   6.255  10.257   3.894  0.4008  0.1430 -0.1814
33197SOL    HW1 5427   6.187  10.202   3.932  0.7670 -0.0987  0.1233
33197SOL    HW2 5428   6.312  10.197   3.847  0.5612  0.3117 -0.2042
33198SOL     OW 5429   0.806   2.581   0.838  0.0742  0.5020  0.3982
33198SOL    HW1 5430   0.746   2.655   0.838  1.0641  1.3530 -0.7764
33198SOL    HW2 5431   0.762   2.513   0.888 -2.2191  0.8176 -1.0640
33199SOL     OW 5432   9.194   6.626   1.025 -0.3279 -0.2212 -0.1800
33199SOL    HW1 5433   9.113   6.578   1.010 -1.0553  1.1415 -0.7555
33199SOL    HW2 5434   9.165   6.714   1.052  0.9352  0.4452 -0.9033
33200SOL     OW 5435   5.037   9.034   3.532 -0.5581 -0.3234  0.0631
33200SOL    HW1 5436   5.076   8.963   3.583  1.2816  0.5234 -0.0863
33200SOL    HW2 5437   4.970   9.071   3.590 -0.6339 -1.3270  0.6384
33201SOL     OW 5438   6.003   0.776   7.741  0.1436  0.1771  0.1206
33201SOL    HW1 5439   5.960   0.857   7.713 -0.4741 -0.4443 -0.7779
33201SOL    HW2 5440   5.933   0.712   7.745  0.3484  0.0301  2.3746
33202SOL     OW 5441   7.428   6.151   6.516  0.4516 -0.6308  0.7009
33202SOL    HW1 5442   7.400   6.230   6.469  0.9772  0.2745  1.8796
33202SOL    HW2 5443   7.438   6.085   6.447 -1.5180 -0.1393 -0.1438
33203SOL     OW 5444   2.310   4.076   7.440  0.3534  0.0443  0.1976
33203SOL    HW1 5445   2.389   4.118   7.475  1.2742 -2.0071  0.7600
33203SOL    HW2 5446   2.344   4.009   7.381 -0.8725 -1.8602  1.5433
33204SOL     OW 5447   4.777   4.892   5.834 -0.1175 -0.1058  0.5928
33204SOL    HW1 5448   4.715   4.963   5.822  1.5213  1.0766 -1.4787
33204SOL    HW2 5449   4.847   4.909   5.770  0.5275 -3.3883  0.2449
33205SOL     OW 5450   1.953  10.113   0.097  0.0164 -0.5787  0.2622
33205SOL    HW1 5451   1.982  10.130   0.187  0.0321 -0.3540  0.2154
33205SOL    HW2 5452   1.863  10.144   0.095  0.5916  1.2107 -0.3136
33206SOL     OW 5453   5.897   7.439   5.088  0.4502  0.5124  0.0752
33206SOL    HW1 5454   5.892   7.529   5.119  1.7576  0.5212  0.2782
33206SOL    HW2 5455   5.850   7.440   5.004  2.1900  1.8556 -0.9432
33207SOL     OW 5456   8.680   6.960  10.201 -0.3569  0.0236 -0.1668
33207SOL    HW1 5457   8.771   6.991  10.202  0.0975 -1.2126 -0.8992
33207SOL    HW2 5458   8.675   6.899  10.275 -0.4120 -0.3476 -0.4716
33208SOL     OW 5459   4.142   2.540   7.315 -0.0150  0.3186  0.6031
33208SOL    HW1 5460   4.057   2.577   7.292  0.6772  0.8210 -1.3678
33208SOL    HW2 5461   4.136   2.521   7.408 -2.1844  0.5852  0.5562
33209SOL     OW 5462   5.849  10.575   3.522 -0.1832  0.1478  0.1339
33209SOL    HW1 5463   5.826  10.483   3.535 -0.2257  0.0514 -0.5654
33209SOL    HW2 5464   5.939  10.572   3.488  0.1692  0.4177  1.0168
33210SOL     OW 5465   6.834   2.162   9.862  0.3469  0.2921 -0.5152
33210SOL    HW1 5466   6.807   2.074   9.890  0.7680 -0.2114 -1.6276
33210SOL    HW2 5467   6.920   2.175   9.901 -0.3905  0.9083  1.0115
33211SOL     OW 5468   4.335   4.980  10.524  0.3567 -0.4025 -0.6350
33211SOL    HW1 5469   4.349   4.962  10.431  0.2833 -0.2358 -0.6796
33211SOL    HW2 5470   4.277   5.056  10.525 -0.3604 -0.9476 -0.4524
33212SOL     OW 5471   8.584   5.814   4.386  0.0198 -0.1653 -0.0563
33212SOL    HW1 5472   8.557   5.875   4.456  2.1736 -1.1222  1.7229
33212SOL    HW2 5473   8.506   5.806   4.331 -1.0129  2.5470  0.8017
33213SOL     OW 5474   3.640   3.063   1.073  0.2808 -1.3767 -0.0335
33213SOL    HW1 5475   3.633   3.049   1.168  1.8557  0.4332  0.4222
33213SOL    HW2 5476   3.633   3.158   1.063 -1.3003 -1.6351 -1.9220
33214SOL     OW 5477   3.749   8.754   2.887  0.2211 -0.2958  0.7006
33214SOL    HW1 5478   3.835   8.774   2.850 -0.2103 -0.0820 -0.2310
33214SOL    HW2 5479   3.689   8.814   2.842 -0.3793 -0.2614  1.5256
33215SOL     OW 5480   2.934   4.008   6.484  0.0031 -0.3503 -0.1519
33215SOL    HW1 5481   2.951   4.022   6.391  1.0444 -1.2456 -0.1113
33215SOL    HW2 5482   3.018   4.028   6.527 -0.2584 -0.6570  0.5140
33216SOL     OW 5483   2.651  10.752   9.339  0.4337  0.1950 -0.6090
33216SOL    HW1 5484   2.679  10.680   9.395  0.4266 -0.3383 -1.2680
33216SOL    HW2 5485   2.602  10.811   9.396  0.1829 -0.4786 -0.1231
33217SOL     OW 5486   8.776   7.792   6.588  0.1817 -0.6427  0.4734
33217SOL    HW1 5487   8.799   7.844   6.665 -0.6006  0.9163 -0.2965
33217SOL    HW2 5488   8.735   7.855   6.528 -1.2626 -2.2507 -0.3134
33218SOL     OW 5489   6.597   5.797   4.065 -0.2461  0.8501  0.1177
33218SOL    HW1 5490   6.691   5.805   4.054 -0.3872  1.7701 -0.5435
33218SOL    HW2 5491   6.560   5.872   4.018 -1.4106 -0.5562 -1.3351
33219SOL     OW 5492  10.198   8.024   6.131 -0.0523 -0.1904 -0.0854
33219SOL    HW1 5493  10.287   8.047   6.104 -0.2555  0.9475  0.1794
33219SOL    HW2 5494  10.210   7.953   6.195  0.8301  1.3453  1.5448
33220SOL     OW 5495   9.529   6.003   4.282  0.1467  0.3208 -0.2868
33220SOL    HW1 5496   9.523   5.988   4.376  2.3582  0.2486 -0.1099
33220SOL    HW2 5497   9.506   6.095   4.271 -0.1897  0.3112  0.3214
33221SOL     OW 5498   0.002   8.954   2.661  0.1031 -0.0939  0.4408
33221SOL    HW1 5499   0.022   8.861   2.646 -1.1065 -0.0881 -1.7539
33221SOL    HW2 5500   0.047   9.000   2.590 -0.9506  0.7507  0.2925
33222SOL     OW 5501   2.414   3.033   9.402 -0.0958  0.3159 -0.1177
33222SOL    HW1 5502   2.455   2.996   9.480  0.4149 -1.2242 -1.0838
33222SOL    HW2 5503   2.473   3.009   9.331 -0.8706  1.1669 -1.0655
33223SOL     OW 5504   5.752  10.045  10.153  0.4881 -0.3873  0.5544
33223SOL    HW1 5505   5.673  10.048  10.207  1.1620  0.6165  1.5185
33223SOL    HW2 5506   5.803  10.121  10.180  2.2748 -1.5727  0.7082
33224SOL     OW 5507   0.325   5.453   8.057  0.1515  0.2787  0.1610
33224SOL    HW1 5508   0.288   5.538   8.032  1.0410  0.4848 -0.5175
33224SOL    HW2 5509   0.324   5.402   7.976  0.7059  0.0591  0.2867
33225SOL     OW 5510   6.952   3.497   3.520 -0.5935  0.1132  0.3844
33225SOL    HW1 5511   6.970   3.409   3.487  0.5786  0.3370  0.4004
33225SOL    HW2 5512   6.917   3.483   3.608  0.7222 -0.3022  0.8576
33226SOL     OW 5513   6.360   6.998   1.382 -0.5292  0.0580  0.5724
33226SOL    HW1 5514   6.421   6.949   1.327 -0.6441 -0.0215  0.5141
33226SOL    HW2 5515   6.286   6.938   1.395 -1.4521  0.8042 -0.8887
33227SOL     OW 5516   4.076  10.692   3.878 -0.1609 -0.1124 -1.2725
33227SOL    HW1 5517   3.987  10.703   3.913 -0.3488  0.4929 -1.9091
33227SOL    HW2 5518   4.100  10.602   3.900 -0.2179  0.2679  0.5045
33228SOL     OW 5519   2.675   9.225   1.205  0.4777 -0.0572 -0.3316
33228SOL    HW1 5520   2.650   9.185   1.288  1.0433 -1.9313 -1.0162
33228SOL    HW2 5521   2.728   9.301   1.230 -0.1807 -0.0155  1.0162
33229SOL     OW 5522   6.882   5.687   8.942  0.4481  0.5132  0.2016
33229SOL    HW1 5523   6.878   5.625   9.016  0.7376 -0.8745 -0.9036
33229SOL    HW2 5524   6.928   5.639   8.873 -1.1692  1.1898 -1.4236
33230SOL     OW 5525   7.295   8.158   6.352 -0.1116  0.1299 -0.2731
33230SOL    HW1 5526   7.206   8.133   6.379 -0.6438  0.7411 -1.3863
33230SOL    HW2 5527   7.316   8.234   6.408  1.1629 -2.0606  2.4881
33231SOL     OW 5528   9.902   3.459  10.251 -0.3763 -0.6173 -0.2101
33231SOL    HW1 5529   9.897   3.375  10.296  0.4731 -1.4060 -1.4896
33231SOL    HW2 5530   9.846   3.448  10.174 -2.4663  0.9819  0.9945
33232SOL     OW 5531   3.358   3.761   2.571 -0.2466  0.3241  0.2534
33232SOL    HW1 5532   3.295   3.707   2.618 -0.5193  0.7262  0.3530
33232SOL    HW2 5533   3.321   3.849   2.573  0.0269  0.4542 -0.2017
33233SOL     OW 5534   9.608   4.214   9.285 -0.2440  0.2059 -0.4793
33233SOL    HW1 5535   9.556   4.268   9.345 -2.5661 -1.5556 -0.7319
33233SOL    HW2 5536   9.591   4.251   9.198 -0.5658  0.0299 -0.4934
33234SOL     OW 5537   9.100   6.662   4.049 -0.3100  0.3099  0.5020
33234SOL    HW1 5538   9.078   6.630   3.962  0.8960 -1.9694  0.9788
33234SOL    HW2 5539   9.166   6.730   4.034 -0.3206  0.1282 -0.3895
33235SOL     OW 5540   1.414   6.764   2.452 -0.8539 -0.1273  0.8163
33235SOL    HW1 5541   1.407   6.786   2.359 -0.4601  1.7744  1.1804
33235SOL    HW2 5542   1.489   6.704   2.457 -2.4098 -2.2924 -0.3398
33236SOL     OW 5543   5.148   9.682   7.464 -0.1187  0.1774 -0.2736
33236SOL    HW1 5544   5.192   9.600   7.487  0.5236  1.3502  3.4374
33236SOL    HW2 5545   5.185   9.707   7.380  2.2089 -1.6752  0.0972
33237SOL     OW 5546   4.089   8.512   3.580  0.1683 -0.4151  0.3443
33237SOL    HW1 5547   4.012   8.530   3.526  0.1572 -1.4387 -0.0024
33237SOL    HW2 5548   4.137   8.445   3.531  0.0765 -1.4869  1.6753
33238SOL     OW 5549   3.374   0.821   5.507  0.6845  0.6658  0.4693
33238SOL    HW1 5550   3.311   0.872   5.457 -0.9341 -0.1432  1.5813
33238SOL    HW2 5551   3.395   0.747   5.451  1.0725  1.1988 -0.1117
33239SOL     OW 5552   0.995   9.904   3.623 -0.1459 -0.0958 -0.7861
33239SOL    HW1 5553   0.910   9.863   3.637  0.8807 -3.3200 -2.6646
33239SOL    HW2 5554   0.979   9.971   3.556 -1.4060  0.3997 -0.0224
33240SOL     OW 5555   0.236   7.048   6.226  0.1085  0.3714 -1.0287
33240SOL    HW1 5556   0.304   7.114   6.240  0.1708  0.0789  0.1114
33240SOL    HW2 5557   0.285   6.970   6.200  0.0242  0.7791 -2.5498
33241SOL     OW 5558   8.123   2.190   1.740 -0.6134  0.3494 -0.3554
33241SOL    HW1 5559   8.121   2.251   1.813  0.2849  0.8029 -0.6933
33241SOL    HW2 5560   8.209   2.204   1.699 -0.6794 -0.6339 -0.8637
33242SOL     OW 5561   6.977   3.435   8.576  0.6226  0.0348  0.2026
33242SOL    HW1 5562   6.930   3.511   8.609  1.4051  0.4698  0.3514
33242SOL    HW2 5563   6.938   3.360   8.621  0.1487  0.3965  0.3944
33243SOL     OW 5564   1.331   8.156   7.667 -0.3110  0.2878  0.2034
33243SOL    HW1 5565   1.354   8.070   7.632 -1.3826  0.6447 -1.4898
33243SOL    HW2 5566   1.351   8.217   7.596  1.2168  1.5977  1.6606
33244SOL     OW 5567   9.999   8.104   8.731 -0.0015  0.2247  0.3336
33244SOL    HW1 5568   9.947   8.039   8.683 -0.3526  0.2876  0.6229
33244SOL    HW2 5569  10.006   8.178   8.671  3.9223 -1.5461 -1.7284
33245SOL     OW 5570   2.007   7.583   0.606 -0.1824 -0.3520  0.3067
33245SOL    HW1 5571   2.074   7.531   0.650  1.7183  0.0655 -1.8610
33245SOL    HW2 5572   1.964   7.632   0.676  2.7545  0.4235  1.7016
33246SOL     OW 5573   9.692   4.244   5.223 -0.1092  0.3854 -0.4208
33246SOL    HW1 5574   9.616   4.218   5.170 -0.0533 -0.7049 -0.0164
33246SOL    HW2 5575   9.721   4.327   5.186  0.1820 -0.5180 -2.3498
33247SOL     OW 5576   3.339   7.136   6.475  0.2977  0.0916 -0.4135
33247SOL    HW1 5577   3.252   7.099   6.490  0.0579  0.3377 -1.1485
33247SOL    HW2 5578   3.376   7.083   6.404  1.1930 -0.7139  0.6087
33248SOL     OW 5579   1.266   6.229   4.164 -0.1911 -0.1553  0.7121
33248SOL    HW1 5580   1.188   6.257   4.211 -0.2026 -0.2387  0.7428
33248SOL    HW2 5581   1.236   6.211   4.075 -0.1428  0.1363  0.6368
33249SOL     OW 5582   3.857   8.422   4.802 -1.0468  0.1522  0.2040
33249SOL    HW1 5583   3.913   8.363   4.751 -2.5660 -0.6405 -0.6392
33249SOL    HW2 5584   3.909   8.501   4.813 -0.6178  0.3618 -2.5818
33250SOL     OW 5585   7.381  10.735   3.684 -0.5081  0.0530 -0.8204
33250SOL    HW1 5586   7.334  10.686   3.751  2.0620 -3.2104 -1.1428
33250SOL    HW2 5587   7.418  10.810   3.730 -0.9778 -0.6661  0.7931
33251SOL     OW 5588   5.606   7.614   6.124 -0.4678  0.1248  0.4717
33251SOL    HW1 5589   5.647   7.603   6.210 -0.1755  2.3346  0.6839
33251SOL    HW2 5590   5.679   7.607   6.062 -0.1898  1.2479  0.6429
33252SOL     OW 5591   9.726   9.096  10.472 -0.3623  0.0874 -0.2490
33252SOL    HW1 5592   9.631   9.097  10.488 -0.3156 -0.2022  0.0540
33252SOL    HW2 5593   9.740   9.166  10.408 -0.5545  1.2467  0.9533
33253SOL     OW 5594   6.174   4.418   8.533 -0.2149 -0.0420  0.0594
33253SOL    HW1 5595   6.117   4.458   8.468  0.6007 -0.3239 -0.8405
33253SOL    HW2 5596   6.243   4.482   8.549  0.6439 -0.7347 -0.7869
33254SOL     OW 5597   1.768   4.026   5.463 -0.1745 -0.0068 -0.2490
33254SOL    HW1 5598   1.860   4.024   5.435 -0.7972 -1.2178 -2.4066
33254SOL    HW2 5599   1.737   4.112   5.436  0.3764  0.5399  0.7902
33255SOL     OW 5600   5.412   9.551   8.890 -0.0144  0.0340  0.1703
33255SOL    HW1 5601   5.419   9.644   8.912  1.5547  0.1367 -0.5839
33255SOL    HW2 5602   5.403   9.507   8.974  0.3310  0.7953  0.6228
33256SOL     OW 5603   3.587   6.674   2.915  0.1303  0.0819 -0.2348
33256SOL    HW1 5604   3.606   6.585   2.885  0.7598 -0.2908  1.1519
33256SOL    HW2 5605   3.637   6.731   2.856  0.2282 -0.5265 -0.7412
33257SOL     OW 5606   2.504   7.499   4.883  0.5933 -0.6287 -0.3257
33257SOL    HW1 5607   2.411   7.520   4.892  0.2362 -2.0616 -0.3543
33257SOL    HW2 5608   2.549   7.567   4.934 -0.4702 -0.0144 -0.1701
33258SOL     OW 5609   8.101   2.030   0.031  0.8643 -0.7826 -0.0853
33258SOL    HW1 5610   8.037   2.021  -0.040 -1.2116  1.9082  1.2506
33258SOL    HW2 5611   8.169   2.087  -0.006  1.6130 -2.1829 -0.9400
33259SOL     OW 5612   2.466   2.103   2.207  0.0858 -0.3402  0.0627
33259SOL    HW1 5613   2.413   2.181   2.189 -1.3535 -0.9874  1.2324
33259SOL    HW2 5614   2.522   2.128   2.281 -0.8232 -0.5610  0.8546
33260SOL     OW 5615   1.077  10.877   7.655 -0.2817 -0.1069 -0.0984
33260SOL    HW1 5616   1.134  10.868   7.732 -2.4429  0.2848  1.6658
33260SOL    HW2 5617   1.071  10.788   7.620  0.7555 -0.2951  0.1800
33261SOL     OW 5618   8.509   5.637   1.895  0.2647  0.5224 -0.0479
33261SOL    HW1 5619   8.448   5.564   1.882  0.8166  0.0012  0.2471
33261SOL    HW2 5620   8.585   5.597   1.936  1.4914  0.8732 -1.8659
33262SOL     OW 5621   6.183   3.688   0.913 -0.4992 -0.1097  0.7184
33262SOL    HW1 5622   6.230   3.768   0.891 -1.4826  0.6215  1.1455
33262SOL    HW2 5623   6.098   3.719   0.944 -1.5150 -1.3916 -0.6310
33263SOL     OW 5624  10.448  10.698   0.291  0.4125 -0.2197 -0.5620
33263SOL    HW1 5625  10.475  10.638   0.221 -2.3469 -2.4428  0.0468
33263SOL    HW2 5626  10.373  10.745   0.254 -0.4777 -0.7222  0.5439
33264SOL     OW 5627   5.153   1.134   1.520  0.2392 -0.4767 -0.0532
33264SOL    HW1 5628   5.210   1.206   1.545 -0.0061  0.0648 -1.0185
33264SOL    HW2 5629   5.067   1.159   1.551  0.3603 -0.9191  0.6740
33265SOL     OW 5630   3.437   3.723   6.449  0.3545  0.1252  0.6237
33265SOL    HW1 5631   3.364   3.735   6.510 -0.2365 -0.2029 -0.0087
33265SOL    HW2 5632   3.484   3.647   6.483 -0.5968 -0.7303  0.0865
33266SOL     OW 5633   2.236   9.754   4.084 -0.1738 -0.2972 -0.5691
33266SOL    HW1 5634   2.200   9.666   4.093 -0.8097  0.0883  0.9225
33266SOL    HW2 5635   2.304   9.760   4.151 -2.4564  1.4159  1.8261
33267SOL     OW 5636   8.718   0.219   6.624 -0.2870  0.1446  0.6104
33267SOL    HW1 5637   8.794   0.249   6.674  0.1915 -0.4490  0.2402
33267SOL    HW2 5638   8.645   0.225   6.686  0.2262 -0.1926  1.2526
33268SOL     OW 5639   6.499   2.880   9.760 -0.2100 -0.6282 -0.2812
33268SOL    HW1 5640   6.429   2.945   9.762 -1.9982 -2.4023 -1.0885
33268SOL    HW2 5641   6.545   2.896   9.677  0.8566  0.9978  0.5838
33269SOL     OW 5642   0.054   6.598   4.790  0.2895  0.3937  1.0328
33269SOL    HW1 5643   0.078   6.545   4.866  1.5113 -0.1304  0.3142
33269SOL    HW2 5644   0.117   6.572   4.722  1.0057  2.8210  0.6671
33270SOL     OW 5645   4.674  10.647   9.184  0.0600 -0.5619 -0.5996
33270SOL    HW1 5646   4.675  10.741   9.168 -1.3582 -0.3877  0.2127
33270SOL    HW2 5647   4.657  10.609   9.098  1.4755 -0.1392 -1.0864
33271SOL     OW 5648   0.201   0.699   3.472  0.0315  0.1015  0.1319
33271SOL    HW1 5649   0.152   0.761   3.419  0.6152 -0.1553 -0.7240
33271SOL    HW2 5650   0.291   0.732   3.471  0.1796 -0.2758  0.4095
33272SOL     OW 5651   7.384   7.018   0.515 -1.0294  0.4117  0.1056
33272SOL    HW1 5652   7.440   7.000   0.439 -0.2891 -0.9525  0.9321
33272SOL    HW2 5653   7.297   6.990   0.488 -0.5466 -1.2271  0.1374
33273SOL     OW 5654   1.492  10.617   7.774  0.4643 -0.1019  0.1785
33273SOL    HW1 5655   1.446  10.696   7.802 -1.9793 -1.6554  0.8617
33273SOL    HW2 5656   1.471  10.609   7.681  0.4386 -0.1109  0.1848
33274SOL     OW 5657   5.250   1.783   0.176  0.5810 -0.1049  0.0523
33274SOL    HW1 5658   5.227   1.691   0.179 -1.2201  0.3061 -0.0293
33274SOL    HW2 5659   5.220   1.813   0.090 -1.3421  1.1233  1.0955
33275SOL     OW 5660   4.273   0.778   7.010 -0.1561 -0.6258  0.2791
33275SOL    HW1 5661   4.221   0.786   6.930  0.1664 -0.5471  0.0739
33275SOL    HW2 5662   4.241   0.848   7.067 -1.9727 -2.0727  1.1417
33276SOL     OW 5663   5.994   8.446  10.587  0.0418  0.3836  0.6732
33276SOL    HW1 5664   5.961   8.371  10.538  0.2311  0.3089  0.6579
33276SOL    HW2 5665   5.941   8.520  10.557 -0.0730  0.2754  0.6099
33277SOL     OW 5666   4.022   6.115   9.465 -0.2960 -0.8516 -0.0935
33277SOL    HW1 5667   4.076   6.189   9.436 -3.6360  0.3888 -4.1311
33277SOL    HW2 5668   4.055   6.040   9.416  0.9537 -1.3461  1.4413
33278SOL     OW 5669   0.254   7.983   0.125 -0.2627  0.2689 -0.4749
33278SOL    HW1 5670   0.349   7.979   0.130 -0.3171  0.6673  1.5208
33278SOL    HW2 5671   0.229   8.046   0.193 -1.8777  1.2797 -1.9133
33279SOL     OW 5672   3.030   7.840   5.737  0.1537  0.0494 -0.1526
33279SOL    HW1 5673   3.126   7.844   5.741  0.3431 -0.8040 -2.3668
33279SOL    HW2 5674   3.010   7.747   5.724 -0.9853  0.2369  0.1148
33280SOL     OW 5675   4.585   8.088   9.332 -0.3915 -0.1676 -0.3636
33280SOL    HW1 5676   4.662   8.034   9.350 -1.0226 -1.1936 -0.6470
33280SOL    HW2 5677   4.577   8.145   9.408 -0.8754 -1.8708  0.9081
33281SOL     OW 5678   8.714   9.297   6.077  0.1994 -0.2358  0.2102
33281SOL    HW1 5679   8.766   9.272   6.000  0.7505  1.7829 -0.1272
33281SOL    HW2 5680   8.778   9.299   6.149 -0.3175 -2.1356  0.7730
33282SOL     OW 5681  10.687   4.602   1.470  0.2269  0.8777 -0.6542
33282SOL    HW1 5682  10.592   4.605   1.486  0.6398  0.6253  2.7708
33282SOL    HW2 5683  10.705   4.511   1.448 -0.3159  0.9096 -1.2510
33283SOL     OW 5684   2.104   8.829   2.439 -0.0526 -0.0626  0.2019
33283SOL    HW1 5685   2.191   8.817   2.477  0.4443  1.4639 -0.3923
33283SOL    HW2 5686   2.043   8.801   2.508  0.8889 -0.7735  0.7654
33284SOL     OW 5687   2.535   6.726   3.374  0.2168 -0.0897  0.1253
33284SOL    HW1 5688   2.474   6.656   3.399 -0.5934  1.0240  1.3334
33284SOL    HW2 5689   2.492   6.769   3.300 -0.0131  0.0903  0.3621
33285SOL     OW 5690  10.313   9.670   8.463  0.3039  0.3680  0.0309
33285SOL    HW1 5691  10.393   9.665   8.411  0.0487 -2.4437 -0.2121
33285SOL    HW2 5692  10.249   9.711   8.404  0.9522  0.5437 -0.5620
33286SOL     OW 5693  10.777   8.262   8.445 -0.0662  0.5528  0.9310
33286SOL    HW1 5694  10.834   8.327   8.406 -2.4111  2.1356 -0.1232
33286SOL    HW2 5695  10.717   8.237   8.375  1.5759 -3.9369  0.8564
33287SOL     OW 5696   4.503   2.647   8.551 -0.3869  0.4826 -0.9934
33287SOL    HW1 5697   4.433   2.587   8.523 -0.3755 -0.1608  0.3224
33287SOL    HW2 5698   4.567   2.592   8.595  0.0956  1.3245 -0.6069
33288SOL     OW 5699   3.099   4.921   3.062  0.2596  0.0085 -0.0569
33288SOL    HW1 5700   3.075   4.923   3.155  1.7819  1.8148  0.3518
33288SOL    HW2 5701   3.113   4.829   3.043  1.5720 -0.2782  1.9886
33289SOL     OW 5702   1.370  10.821   5.835 -0.4123 -0.1352 -0.0075
33289SOL    HW1 5703   1.335  10.900   5.793 -0.9609  0.3510  1.3065
33289SOL    HW2 5704   1.369  10.842   5.928  0.8316 -1.1606  0.2546
33290SOL     OW 5705   4.947   0.209   4.993 -0.7445  0.2920 -0.2621
33290SOL    HW1 5706   4.973   0.201   5.085  0.1038  0.7229 -0.4609
33290SOL    HW2 5707   5.011   0.268   4.954 -0.9980 -0.0128 -1.1775
33291SOL     OW 5708   3.424   4.460   3.907 -0.1412 -0.2351  0.4220
33291SOL    HW1 5709   3.419   4.481   4.000  0.5769 -2.2271  0.9668
33291SOL    HW2 5710   3.493   4.517   3.872  0.6427 -0.5354  1.4551
33292SOL     OW 5711   0.058   0.765  10.256 -0.1437  0.5474  0.6610
33292SOL    HW1 5712  -0.012   0.712  10.295  0.1176 -0.1097  0.2508
33292SOL    HW2 5713   0.014   0.818  10.189 -0.0675 -0.8415 -0.5388
33293SOL     OW 5714   8.208   1.684   4.278  0.2770 -0.6963  0.0404
33293SOL    HW1 5715   8.134   1.625   4.265  0.9861 -1.7086  0.3884
33293SOL    HW2 5716   8.190   1.727   4.362  0.7370 -1.9938  0.8374
33294SOL     OW 5717   0.916   2.670   4.581 -0.0242 -0.2329  0.0073
33294SOL    HW1 5718   0.846   2.608   4.597 -1.6252  1.7958  1.4235
33294SOL    HW2 5719   0.910   2.690   4.488 -0.1483 -1.3910 -0.2480
33295SOL     OW 5720   3.611   1.740  10.841  0.0805 -0.1011 -0.4318
33295SOL    HW1 5721   3.522   1.725  10.811  0.2942 -1.0790 -0.6270
33295SOL    HW2 5722   3.659   1.763  10.761 -0.6219  3.9369  0.0859
33296SOL     OW 5723   2.870   1.044   5.416 -0.8534 -0.2614  0.0373
33296SOL    HW1 5724   2.789   1.087   5.388  0.5349  1.3061 -1.9121
33296SOL    HW2 5725   2.904   1.100   5.486  0.1660  1.0092 -1.4271
33297SOL     OW 5726   7.503   6.133   0.619 -0.2096  0.4985  0.2388
33297SOL    HW1 5727   7.410   6.119   0.631  0.1949 -2.7716  0.3525
33297SOL    HW2 5728   7.543   6.105   0.702  0.9476  0.8752 -0.1590
33298SOL     OW 5729   3.682  10.464   7.126 -0.3720  0.0612 -0.2373
33298SOL    HW1 5730   3.753  10.473   7.190  0.2181  0.9473 -0.9831
33298SOL    HW2 5731   3.615  10.526   7.155  0.0026  0.6480 -0.5968
33299SOL     OW 5732   0.780   5.147  10.148 -0.0050  0.5147 -0.1491
33299SOL    HW1 5733   0.857   5.195  10.178  0.1277 -0.5908  1.3905
33299SOL    HW2 5734   0.771   5.171  10.056  0.7095  2.5670  0.2681
33300SOL     OW 5735   4.212   9.520   5.128 -0.3722 -0.4592 -0.6806
33300SOL    HW1 5736   4.230   9.427   5.142 -0.2303 -0.2411  0.7303
33300SOL    HW2 5737   4.139   9.539   5.187  1.5022  0.9767  1.2683
33301SOL     OW 5738   7.627   2.471  10.794 -0.1219 -0.1793 -0.1523
33301SOL    HW1 5739   7.544   2.499  10.833 -0.2920  0.2070 -0.7784
33301SOL    HW2 5740   7.609   2.383  10.760  0.2010 -0.7664  1.1596
33302SOL     OW 5741  10.527   5.457   1.492  0.3522  0.0929  0.1038
33302SOL    HW1 5742  10.587   5.393   1.530  0.5879 -0.8238 -1.6815
33302SOL    HW2 5743  10.518   5.525   1.558 -0.9433 -2.3847  2.6573
33303SOL     OW 5744   9.360   2.693   4.430  0.7272  0.0059 -0.1302
33303SOL    HW1 5745   9.298   2.720   4.499  0.8938  0.6453 -0.2184
33303SOL    HW2 5746   9.304   2.664   4.358  0.5237 -3.1304  1.1377
33304SOL     OW 5747   5.586   2.964   3.775  0.2519 -0.5322  0.0175
33304SOL    HW1 5748   5.603   3.036   3.713  1.3393  0.1385  1.0391
33304SOL    HW2 5749   5.672   2.921   3.784  0.0617 -0.7261  0.9219
33305SOL     OW 5750   7.408   6.712   0.369  0.1915 -0.1835 -0.4738
33305SOL    HW1 5751   7.388   6.621   0.349  0.6360 -0.2703 -0.5293
33305SOL    HW2 5752   7.346   6.763   0.316  0.3432 -0.4404 -0.9012
33306SOL     OW 5753   3.290   6.851   3.233 -0.0535 -0.4702  0.2964
33306SOL    HW1 5754   3.267   6.763   3.202  1.7736  0.1185 -3.2170
33306SOL    HW2 5755   3.385   6.855   3.227  0.0548  1.2103  2.1523
33307SOL     OW 5756   7.403   9.821   3.306 -0.0294 -0.2138 -0.0381
33307SOL    HW1 5757   7.432   9.735   3.275  0.0195 -0.2969  0.2340
33307SOL    HW2 5758   7.480   9.877   3.294  0.3997 -0.5358  1.0886
33308SOL     OW 5759   1.759   0.859   7.733 -0.0668  0.0878  0.0395
33308SOL    HW1 5760   1.838   0.884   7.685 -0.9025  2.6744 -0.1496
33308SOL    HW2 5761   1.778   0.881   7.824 -0.0224 -0.8121  0.2621
33309SOL     OW 5762   3.208   2.092   1.513 -0.0925  0.2481  0.1608
33309SOL    HW1 5763   3.299   2.070   1.530  0.5246  1.6130 -1.1567
33309SOL    HW2 5764   3.186   2.046   1.432 -0.4251  0.3265  0.2024
33310SOL     OW 5765  10.097   7.937   4.927  0.3909 -0.2239 -0.0801
33310SOL    HW1 5766  10.133   7.854   4.959  0.3744 -0.1189  0.2191
33310SOL    HW2 5767  10.067   7.918   4.838  1.2004 -0.3021 -0.3381
33311SOL     OW 5768   8.000   8.676   5.407  0.2453  0.0046 -0.0065
33311SOL    HW1 5769   8.094   8.659   5.396  0.3250  1.2610 -1.9572
33311SOL    HW2 5770   7.961   8.590   5.421  1.5605 -0.6962 -0.4643
33312SOL     OW 5771   1.678   8.163   1.645  0.3435  0.1319  0.3253
33312SOL    HW1 5772   1.598   8.185   1.693  0.7609  1.2780  0.5244
33312SOL    HW2 5773   1.748   8.209   1.692  1.0080 -0.2098 -0.3078
33313SOL     OW 5774   4.800   3.772   2.706  0.0166 -0.8179 -0.1931
33313SOL    HW1 5775   4.773   3.754   2.616  0.7122 -0.9325 -0.3790
33313SOL    HW2 5776   4.786   3.867   2.716 -0.1978 -0.8291 -0.3676
33314SOL     OW 5777   2.778   7.853   1.157 -0.1796  0.0198  0.1955
33314SOL    HW1 5778   2.831   7.898   1.223  0.7645 -0.0954 -0.4632
33314SOL    HW2 5779   2.708   7.915   1.136 -0.2522  0.2186  1.0100
33315SOL     OW 5780   3.010   3.330   7.978  0.6544  0.3599  0.4793
33315SOL    HW1 5781   3.105   3.338   7.973  0.6159  0.6276  0.1681
33315SOL    HW2 5782   2.996   3.246   8.023  1.0397 -0.5679 -1.0231
33316SOL     OW 5783   3.557   4.381   0.101 -0.3567 -0.0028 -0.3995
33316SOL    HW1 5784   3.482   4.327   0.076 -0.3770  0.6609 -1.9298
33316SOL    HW2 5785   3.528   4.471   0.085  1.0673  0.2199 -2.0271
33317SOL     OW 5786   7.342   3.747   0.891  0.2831 -0.2064 -0.0771
33317SOL    HW1 5787   7.290   3.720   0.967  1.3009  5.5712  3.1880
33317SOL    HW2 5788   7.432   3.722   0.912  0.7382  2.3555  1.4050
33318SOL     OW 5789   0.034   8.335  10.407 -0.4844  0.2991  0.0375
33318SOL    HW1 5790   0.001   8.279  10.336  1.8553 -0.3083 -0.6393
33318SOL    HW2 5791   0.110   8.289  10.442 -0.3649  1.5743  1.6053
33319SOL     OW 5792   9.296   3.331   9.522 -0.4116  0.0953 -0.2816
33319SOL    HW1 5793   9.200   3.336   9.520 -0.3822  0.9878  0.1270
33319SOL    HW2 5794   9.318   3.326   9.615 -0.1148 -1.8356 -0.4137
33320SOL     OW 5795   4.923   2.807   6.089 -0.0076  0.6934 -0.2050
33320SOL    HW1 5796   4.983   2.733   6.076  0.0531  0.7970 -0.5426
33320SOL    HW2 5797   4.979   2.879   6.116 -0.0239  0.6977 -0.1834
33321SOL     OW 5798   2.822   4.072   9.605  0.4801  0.6110  0.0660
33321SOL    HW1 5799   2.842   3.979   9.600  0.3217  0.5142  0.9991
33321SOL    HW2 5800   2.893   4.109   9.659 -0.2049  0.7755  0.8770
33322SOL     OW 5801   8.197   1.174  10.671 -0.3086  0.4748 -0.4418
33322SOL    HW1 5802   8.147   1.098  10.701  0.1267  0.9471  1.6833
33322SOL    HW2 5803   8.151   1.204  10.593 -1.1267 -1.3012 -0.6863
33323SOL     OW 5804  10.514   2.301   2.101 -0.0394  0.3900  0.2571
33323SOL    HW1 5805  10.420   2.308   2.083 -0.1636  0.9728  1.0904
33323SOL    HW2 5806  10.519   2.243   2.177  0.2482  0.7655  0.5220
33324SOL     OW 5807   4.713   4.939   0.848 -0.1204 -0.4042 -0.6952
33324SOL    HW1 5808   4.717   4.951   0.753 -0.5257 -2.2275 -0.9747
33324SOL    HW2 5809   4.692   4.846   0.860  0.1954 -0.2768  1.1836
33325SOL     OW 5810   9.698   5.143  10.628 -0.3023 -0.2899 -0.0912
33325SOL    HW1 5811   9.708   5.156  10.722 -1.5058 -0.8204  0.1341
33325SOL    HW2 5812   9.685   5.048  10.618  0.7351 -0.3685 -0.8938
33326SOL     OW 5813   5.929   3.839   7.052 -0.2470  0.1664  0.8000
33326SOL    HW1 5814   5.956   3.886   6.973  0.4711 -0.4089  0.6942
33326SOL    HW2 5815   5.884   3.905   7.105 -0.4380  0.6405  0.0607
33327SOL     OW 5816   1.439  10.310   1.995  0.0380 -0.1576 -0.6265
33327SOL    HW1 5817   1.425  10.368   1.920  1.2555  0.1905 -0.6093
33327SOL    HW2 5818   1.523  10.338   2.031 -2.0410  2.1904  3.1198
33328SOL     OW 5819   2.106   1.770   8.511  0.2590 -0.1187 -0.2069
33328SOL    HW1 5820   2.087   1.798   8.600 -0.3142 -0.2114 -0.2948
33328SOL    HW2 5821   2.193   1.805   8.492  0.4964 -0.3271  0.4841
33329SOL     OW 5822   3.947   5.661   8.632  0.0163 -0.0417  0.2607
33329SOL    HW1 5823   3.919   5.596   8.568 -0.9756 -0.5774  1.2118
33329SOL    HW2 5824   3.944   5.615   8.716  0.2051  0.9681  0.8397
33330SOL     OW 5825   9.091   5.784   7.494  0.0039  0.5684  0.1871
33330SOL    HW1 5826   9.181   5.751   7.494  0.6603  2.2746  0.1968
33330SOL    HW2 5827   9.060   5.769   7.584 -0.2197 -1.2232 -0.1502
33331SOL     OW 5828   2.541   3.774   6.279 -0.6867 -0.4028  0.2060
33331SOL    HW1 5829   2.603   3.817   6.339  0.0032  1.0686 -1.4800
33331SOL    HW2 5830   2.457   3.779   6.324 -0.0854  0.0981  1.3184
33332SOL     OW 5831   7.527   0.290   8.714  0.1390  0.2401 -0.0573
33332SOL    HW1 5832   7.581   0.361   8.748  1.1816 -0.0807 -0.9844
33332SOL    HW2 5833   7.446   0.332   8.686  0.7129  1.0493 -0.5254
33333SOL     OW 5834   8.346   8.513  10.757 -0.2851  0.4316 -0.1935
33333SOL    HW1 5835   8.253   8.535  10.760 -0.2916  0.3546  0.2107
33333SOL    HW2 5836   8.349   8.422  10.786 -0.0396  0.5762  0.2444
33334SOL     OW 5837   4.238   5.509   4.491 -0.2590  0.7944 -0.4662
33334SOL    HW1 5838   4.294   5.528   4.567  1.7647  0.2947 -1.7496
33334SOL    HW2 5839   4.274   5.429   4.454 -2.8566 -0.4532 -0.4972
33335SOL     OW 5840  10.224   7.363   5.752  0.2790  0.1851 -0.0854
33335SOL    HW1 5841  10.168   7.301   5.798 -0.0685  1.1199  0.7715
33335SOL    HW2 5842  10.244   7.319   5.669 -0.0730 -1.0045  0.4328
33336SOL     OW 5843   8.565   8.020   8.834  0.4068 -0.6605 -0.0144
33336SOL    HW1 5844   8.523   8.015   8.919 -1.0177 -1.2541 -0.7145
33336SOL    HW2 5845   8.493   8.012   8.771  1.1179  2.0127 -1.3288
33337SOL     OW 5846   8.187   8.447   4.419 -0.2873  0.3598 -0.2063
33337SOL    HW1 5847   8.271   8.447   4.373 -0.6653  0.7535 -0.9242
33337SOL    HW2 5848   8.159   8.356   4.418 -0.0585  0.2901 -0.3204
33338SOL     OW 5849   9.740   3.564   4.773  0.0858 -0.4694 -0.2173
33338SOL    HW1 5850   9.816   3.574   4.717  0.8465 -0.9418  0.7083
33338SOL    HW2 5851   9.756   3.624   4.847 -1.2125  0.6571 -0.7962
33339SOL     OW 5852   9.520   3.891   7.328 -0.8324  0.0681 -0.5059
33339SOL    HW1 5853   9.443   3.927   7.285  0.4390  2.1953 -1.1377
33339SOL    HW2 5854   9.541   3.953   7.397  1.8856  1.1288 -2.1261
33340SOL     OW 5855   4.802   8.179   3.002 -0.6095 -0.3510  0.6598
33340SOL    HW1 5856   4.872   8.201   2.940 -0.5964  2.7892  1.6188
33340SOL    HW2 5857   4.735   8.135   2.948 -0.0727  1.1438 -1.3441
33341SOL     OW 5858   4.551   8.153   0.204  0.5974  0.0104  0.7807
33341SOL    HW1 5859   4.502   8.107   0.273  0.6620 -0.7011  0.3590
33341SOL    HW2 5860   4.534   8.246   0.221 -2.5201 -0.2070 -0.4695
33342SOL     OW 5861   2.869   3.690   1.180 -0.2355  0.6344  0.4045
33342SOL    HW1 5862   2.794   3.703   1.238  1.0698  1.7758  1.9482
33342SOL    HW2 5863   2.867   3.766   1.122  0.0777  1.0375  0.9039
33343SOL     OW 5864  10.023   9.683   4.966 -0.6485 -0.2395 -0.9455
33343SOL    HW1 5865  10.074   9.608   4.997 -0.8532 -0.3533 -0.8830
33343SOL    HW2 5866  10.006   9.735   5.045 -2.0530 -1.0548 -0.6726
33344SOL     OW 5867   5.353   7.068   3.555 -0.0763 -0.0093  0.0077
33344SOL    HW1 5868   5.339   7.113   3.472 -1.2793 -0.6709 -0.1655
33344SOL    HW2 5869   5.364   6.976   3.531 -1.1228 -0.3142  0.6058
33345SOL     OW 5870   4.016   0.651   8.133 -0.3833  0.2575 -0.1988
33345SOL    HW1 5871   3.929   0.662   8.173 -0.0397 -1.5839  1.2170
33345SOL    HW2 5872   4.074   0.636   8.208  0.4124 -2.6991 -1.2572
33346SOL     OW 5873   8.301   2.397   7.654 -0.2330  0.1202 -0.3867
33346SOL    HW1 5874   8.382   2.361   7.619  0.0706  0.9669 -0.5591
33346SOL    HW2 5875   8.329   2.465   7.715 -0.8189  0.8182 -0.8813
33347SOL     OW 5876   0.818   7.185   1.159 -0.3278  0.5160 -0.0194
33347SOL    HW1 5877   0.854   7.251   1.100  1.3102 -0.2812  0.0427
33347SOL    HW2 5878   0.729   7.170   1.127 -0.6818  2.5980 -0.1431
33348SOL     OW 5879   4.114   2.414   0.546  0.4455  0.4242 -0.2544
33348SOL    HW1 5880   4.167   2.452   0.616 -0.2104 -0.4600  0.7559
33348SOL    HW2 5881   4.176   2.358   0.498  0.7013  0.3118  0.1928
33349SOL     OW 5882   1.923   4.600   2.808 -0.1714  0.3307  0.0432
33349SOL    HW1 5883   1.965   4.650   2.878 -0.9331  0.4141  0.4466
33349SOL    HW2 5884   1.947   4.509   2.825  0.0581  0.4065  0.1201
33350SOL     OW 5885   2.436   4.691   8.235 -0.1632 -0.2402  0.1689
33350SOL    HW1 5886   2.374   4.631   8.194 -0.4201  1.2845 -1.7848
33350SOL    HW2 5887   2.506   4.701   8.171 -0.0920  1.4618  0.4676
33351SOL     OW 5888   4.930   9.512   1.758 -0.0469 -0.1302 -0.6254
33351SOL    HW1 5889   4.839   9.540   1.765 -0.5432 -1.6692 -0.6688
33351SOL    HW2 5890   4.959   9.548   1.674 -0.3711  0.9966 -0.2703
33352SOL     OW 5891   5.593   8.646   6.649 -0.5787 -0.9396  0.5265
33352SOL    HW1 5892   5.642   8.607   6.577 -0.5721  0.2610 -0.1330
33352SOL    HW2 5893   5.660   8.681   6.708 -0.6039 -0.9861  0.5821
33353SOL     OW 5894   8.926   5.206   2.128 -0.6336 -0.0900  0.0927
33353SOL    HW1 5895   8.892   5.132   2.078 -1.0360 -0.2039  0.5274
33353SOL    HW2 5896   8.988   5.166   2.190 -2.8666 -0.4613  2.2238
33354SOL     OW 5897   2.978   9.289   3.200 -0.4151 -0.3619  0.0788
33354SOL    HW1 5898   2.966   9.272   3.107 -0.7178 -0.4399  0.1299
33354SOL    HW2 5899   3.002   9.203   3.237 -0.1637 -0.3035  0.0535
33355SOL     OW 5900  10.156   2.059   8.253  0.1684 -0.2312 -0.5357
33355SOL    HW1 5901  10.150   1.994   8.323 -1.7419 -0.2498 -0.6817
33355SOL    HW2 5902  10.227   2.117   8.281 -1.0526  0.2618  1.8572
33356SOL     OW 5903   8.080   5.614   3.134 -0.3400  1.2533 -0.1593
33356SOL    HW1 5904   8.093   5.709   3.136 -0.7471  1.3111  1.1702
33356SOL    HW2 5905   7.985   5.604   3.128 -0.3648  0.9587  0.5756
33357SOL     OW 5906   2.016   9.642   5.289 -0.4349 -0.0754  0.0822
33357SOL    HW1 5907   2.098   9.597   5.309  0.2775  1.0213 -0.3058
33357SOL    HW2 5908   1.956   9.571   5.266  0.3723 -0.9029  0.4246
33358SOL     OW 5909   5.699   7.138   8.597  0.5397  0.0304 -0.4222
33358SOL    HW1 5910   5.651   7.217   8.571  0.9404  1.3299  2.3675
33358SOL    HW2 5911   5.632   7.076   8.624  0.2805  0.5407  0.1422
33359SOL     OW 5912   6.702  10.499   0.365  0.2881 -0.0681  0.0600
33359SOL    HW1 5913   6.788  10.488   0.326  0.0431  0.4110 -0.6419
33359SOL    HW2 5914   6.642  10.508   0.290 -0.0837  1.7070  0.5111
33360SOL     OW 5915   2.304   2.642   3.880  0.6357 -0.4779  0.4844
33360SOL    HW1 5916   2.313   2.556   3.839  0.1983 -0.6050  0.6507
33360SOL    HW2 5917   2.253   2.694   3.817  0.4559 -0.5008  0.6084
33361SOL     OW 5918   7.337   5.252   8.567  0.2003  0.1980 -0.6860
33361SOL    HW1 5919   7.356   5.165   8.532  0.8804  0.7445 -1.7499
33361SOL    HW2 5920   7.334   5.308   8.489 -1.9814  0.8440 -0.1902
33362SOL     OW 5921   6.378  10.924   1.703  0.3601  0.1658  0.2916
33362SOL    HW1 5922   6.423  10.994   1.655  1.0838 -1.2779 -1.2101
33362SOL    HW2 5923   6.420  10.924   1.789 -0.9439  2.7891  1.0273
33363SOL     OW 5924   9.584   7.517   9.007 -0.2109 -0.3905  0.2706
33363SOL    HW1 5925   9.572   7.585   8.941  0.6958 -0.5169 -0.0403
33363SOL    HW2 5926   9.596   7.564   9.089 -1.1390 -0.2268  0.3234
33364SOL     OW 5927   8.017   1.997  10.113  0.5144  0.5079 -0.2260
33364SOL    HW1 5928   7.957   2.068  10.133 -0.0366 -0.0168  0.0367
33364SOL    HW2 5929   8.083   2.001  10.182 -2.0102 -2.0291  2.7068
33365SOL     OW 5930   5.578   4.677   7.964 -0.1218  0.1577  0.4866
33365SOL    HW1 5931   5.610   4.607   8.021 -0.0890  2.1655  3.1221
33365SOL    HW2 5932   5.484   4.679   7.979  0.0452  1.5069  1.5118
33366SOL     OW 5933   6.213   5.821   7.511 -0.7696 -0.1160 -0.1003
33366SOL    HW1 5934   6.128   5.778   7.497 -0.8128  0.2082 -0.9016
33366SOL    HW2 5935   6.262   5.759   7.564 -1.2800 -0.5987 -0.1721
33367SOL     OW 5936   6.248   0.175   2.479 -0.0183  0.1255 -0.8847
33367SOL    HW1 5937   6.239   0.191   2.573  0.5571  0.3892 -0.8700
33367SOL    HW2 5938   6.173   0.120   2.457  1.0645 -1.9020  0.1826
33368SOL     OW 5939   1.801   6.816   6.123 -0.0577 -0.2884 -0.2479
33368SOL    HW1 5940   1.745   6.741   6.102  0.3968 -0.2616 -1.6614
33368SOL    HW2 5941   1.858   6.825   6.047 -1.4030  2.7111 -0.9980
33369SOL     OW 5942  10.499   5.705   4.775 -0.1896  0.3333 -0.2822
33369SOL    HW1 5943  10.589   5.734   4.758 -0.4447  3.1359  2.3243
33369SOL    HW2 5944  10.446   5.752   4.710 -0.0294  0.8097 -0.0663
33370SOL     OW 5945   9.937   8.747   4.103  0.6219  0.2829 -0.3367
33370SOL    HW1 5946  10.013   8.774   4.155  1.2360  2.6141 -2.2718
33370SOL    HW2 5947   9.959   8.659   4.074  0.7602 -0.6442  2.2763
33371SOL     OW 5948   1.564   9.931   2.694  0.0967 -0.1490  0.1877
33371SOL    HW1 5949   1.606   9.991   2.633  2.0943 -0.7413  0.8940
33371SOL    HW2 5950   1.536   9.986   2.767  0.9109  0.0951  0.3252
33372SOL     OW 5951   5.691   2.061   7.549 -0.4751 -0.7420  0.3837
33372SOL    HW1 5952   5.658   2.118   7.619  1.3213  0.1972  0.5341
33372SOL    HW2 5953   5.684   1.973   7.585  0.9001 -0.2343  2.0039
33373SOL     OW 5954   7.440   6.071  10.410  0.6736  0.2155  0.4012
33373SOL    HW1 5955   7.355   6.039  10.380  0.8883 -0.3876  0.4364
33373SOL    HW2 5956   7.467   6.133  10.342  0.3787  0.1280  0.2018
33374SOL     OW 5957   4.229   1.381   1.321 -0.0839 -0.0464 -0.0831
33374SOL    HW1 5958   4.264   1.380   1.232  1.8596  0.2493  0.6175
33374SOL    HW2 5959   4.307   1.386   1.377 -1.2555 -0.1270  1.6326
33375SOL     OW 5960  10.050   0.819   9.132  0.1631 -0.1998  0.2382
33375SOL    HW1 5961   9.964   0.838   9.168  0.5704 -1.4761  2.0069
33375SOL    HW2 5962  10.101   0.899   9.147 -0.3513  0.1120  0.3281
33376SOL     OW 5963   5.496   0.017  10.083 -0.0851 -0.0454  0.4229
33376SOL    HW1 5964   5.423   0.077  10.063 -0.0611  0.2226  1.1403
33376SOL    HW2 5965   5.488  -0.051  10.017 -0.0872  0.7643 -0.4421
33377SOL     OW 5966   4.653   4.934   9.626  0.2437  0.1132 -0.2550
33377SOL    HW1 5967   4.632   4.860   9.571 -1.6706 -0.2541  0.8875
33377SOL    HW2 5968   4.713   4.899   9.692  2.4481  0.5310 -1.9366
33378SOL     OW 5969   3.286   4.194   4.758 -0.2537  0.4919 -0.4455
33378SOL    HW1 5970   3.336   4.269   4.788  0.5292  1.0250 -2.8826
33378SOL    HW2 5971   3.278   4.138   4.835  1.9286  1.5707  0.6405
33379SOL     OW 5972   1.883   4.913   0.090 -0.3927  0.1185  0.1460
33379SOL    HW1 5973   1.793   4.925   0.062 -0.8205  2.7820  2.2129
33379SOL    HW2 5974   1.879   4.920   0.186  1.8456 -1.2343  0.4141
33380SOL     OW 5975   8.924   0.777   4.387 -0.0197 -0.2053  0.3618
33380SOL    HW1 5976   8.874   0.777   4.469  0.2414 -1.0023  0.5316
33380SOL    HW2 5977   8.896   0.857   4.342  0.5375  0.7720  1.6570
33381SOL     OW 5978   1.840   1.454   3.387 -0.0797  0.1503  0.5473
33381SOL    HW1 5979   1.799   1.402   3.456  0.5582  1.0936  1.6763
33381SOL    HW2 5980   1.781   1.528   3.374 -0.8340 -0.6585 -0.8427
33382SOL     OW 5981  10.383   5.657   9.962 -0.5267  0.0263 -0.5398
33382SOL    HW1 5982  10.378   5.575  10.011  2.1569 -0.0011 -0.1717
33382SOL    HW2 5983  10.435   5.715  10.017 -0.7674  1.3578 -1.6560
33383SOL     OW 5984   0.641   6.908  10.115 -0.8256  0.2402  0.0967
33383SOL    HW1 5985   0.640   7.002  10.097  1.0369 -0.1282 -2.4962
33383SOL    HW2 5986   0.552   6.879  10.097 -0.4145  0.8706 -3.7157
33384SOL     OW 5987   5.848   0.615   1.394  0.0121  0.2220  0.6246
33384SOL    HW1 5988   5.796   0.584   1.320  0.1304 -1.0256  1.0507
33384SOL    HW2 5989   5.899   0.539   1.421  0.0380  0.6876  1.9319
33385SOL     OW 5990   7.725   9.431   6.465 -0.4550  0.7402  0.7447
33385SOL    HW1 5991   7.668   9.498   6.426 -1.4837  0.2561  1.3571
33385SOL    HW2 5992   7.702   9.432   6.558 -0.8676 -0.8085  0.6816
33386SOL     OW 5993   7.723   3.402   4.386 -0.2291 -0.5581  0.3340
33386SOL    HW1 5994   7.755   3.483   4.425  0.1813 -0.5835  0.0568
33386SOL    HW2 5995   7.628   3.407   4.396 -0.3625  0.7211 -1.1208
33387SOL     OW 5996   7.602   4.140   0.320  0.4738  0.5758 -0.4648
33387SOL    HW1 5997   7.664   4.086   0.272  0.1434 -2.3319  2.0651
33387SOL    HW2 5998   7.647   4.162   0.401 -0.3333  2.1059 -0.3864
33388SOL     OW 5999   3.305   7.098   7.390 -0.6911 -0.7641 -0.1504
33388SOL    HW1 6000   3.246   7.023   7.378  0.4600 -1.7628  0.1717
33388SOL    HW2 6001   3.392   7.062   7.371 -0.1992  0.7236 -0.8402
33389SOL     OW 6002   0.712   6.099   2.432 -0.2704 -0.1767  0.1113
33389SOL    HW1 6003   0.751   6.184   2.413 -0.1331 -0.0823  0.7912
33389SOL    HW2 6004   0.663   6.113   2.513  1.5507 -1.2718  1.4806
33390SOL     OW 6005   4.006   3.096   6.679  0.1603 -0.6768 -0.4525
33390SOL    HW1 6006   4.055   3.145   6.613 -0.0671  0.2542  0.0442
33390SOL    HW2 6007   3.933   3.154   6.701 -1.1557 -2.0043 -1.1473
33391SOL     OW 6008   1.690   9.818   8.724 -0.1820  0.1902  0.0949
33391SOL    HW1 6009   1.730   9.786   8.643  1.4273  0.2903  0.8127
33391SOL    HW2 6010   1.673   9.739   8.775  2.3767  0.2909  1.2268
33392SOL     OW 6011   4.722   6.525   8.113 -0.2614  0.0733  0.4356
33392SOL    HW1 6012   4.722   6.455   8.178  0.8411  1.5978  2.1851
33392SOL    HW2 6013   4.687   6.484   8.034  0.3728 -2.4354  1.3526
33393SOL     OW 6014   8.049   0.898  10.734 -0.0339 -0.0887 -0.3112
33393SOL    HW1 6015   8.081   0.897  10.824  1.2748  1.2746 -0.7067
33393SOL    HW2 6016   7.955   0.887  10.741  0.2057 -1.5351  1.1115
33394SOL     OW 6017  10.492   2.484   0.571 -0.0226  0.0605 -0.2449
33394SOL    HW1 6018  10.462   2.426   0.642  2.5037 -0.6397  0.3346
33394SOL    HW2 6019  10.478   2.572   0.606  0.2763 -0.2662  0.7319
33395SOL     OW 6020   4.785   1.001   1.032  0.3045  0.1716  0.2037
33395SOL    HW1 6021   4.731   1.079   1.039  0.9534  0.7975 -1.3064
33395SOL    HW2 6022   4.768   0.969   0.943  2.4001  0.4011 -0.3155
33396SOL     OW 6023   0.902  10.855   8.072  0.2134  0.4458  0.5857
33396SOL    HW1 6024   0.851  10.840   7.993 -1.0006 -0.4400  1.4838
33396SOL    HW2 6025   0.855  10.925   8.118  1.4728  1.6559  0.0759
33397SOL     OW 6026   3.829   5.143   4.245 -0.1831  0.5497 -0.0349
33397SOL    HW1 6027   3.785   5.224   4.219 -1.4389  0.1702  0.8258
33397SOL    HW2 6028   3.921   5.167   4.252 -0.3365  1.5614 -1.1418
33398SOL     OW 6029   1.136   0.527   5.277  0.3142  0.2726 -0.4557
33398SOL    HW1 6030   1.080   0.509   5.201 -1.4875  0.7433  0.7011
33398SOL    HW2 6031   1.165   0.617   5.265 -1.8761  1.1662  0.5050
33399SOL     OW 6032   9.597   7.417  10.415  0.3265  0.2269  0.3399
33399SOL    HW1 6033   9.641   7.463  10.487  0.3649  0.9902 -0.1604
33399SOL    HW2 6034   9.561   7.338  10.455 -0.0320  0.8586  1.2925
33400SOL     OW 6035   5.509   0.671   0.228 -1.0878  0.5650 -0.0326
33400SOL    HW1 6036   5.542   0.612   0.296  0.8459  1.6840  0.0745
33400SOL    HW2 6037   5.483   0.750   0.276 -1.3723  0.7100 -0.4205
33401SOL     OW 6038   3.869   2.747   6.895 -0.2252 -1.2838 -0.0533
33401SOL    HW1 6039   3.946   2.721   6.944 -0.2699  0.0758  0.7995
33401SOL    HW2 6040   3.851   2.836   6.924 -1.0496 -0.9072 -1.5775
33402SOL     OW 6041   9.324  10.840   5.859 -0.1546  0.0173  0.1176
33402SOL    HW1 6042   9.360  10.914   5.810  0.6814 -0.3570  0.1536
33402SOL    HW2 6043   9.338  10.863   5.951  1.8139 -0.9767  0.1194
33403SOL     OW 6044   8.313   2.300   5.189 -0.0135  0.1167  0.0940
33403SOL    HW1 6045   8.233   2.314   5.139  0.9476 -0.1830 -1.6231
33403SOL    HW2 6046   8.380   2.350   5.142  1.1034 -0.8425  0.6025
33404SOL     OW 6047   3.588   3.238   7.939 -0.0437 -0.0246 -0.2445
33404SOL    HW1 6048   3.659   3.174   7.947 -0.4276 -0.3809  0.4051
33404SOL    HW2 6049   3.589   3.284   8.022  1.2172  1.8950 -1.2463
33405SOL     OW 6050   1.373   6.391   7.645 -0.6688 -0.0188 -0.4616
33405SOL    HW1 6051   1.364   6.330   7.719  2.3396  0.1805  0.1812
33405SOL    HW2 6052   1.350   6.339   7.568 -1.7517 -0.8644  0.4025
33406SOL     OW 6053   7.103   9.001   0.319  0.1113  0.2427 -0.4203
33406SOL    HW1 6054   7.106   9.005   0.414 -0.3169  0.4944 -0.4184
33406SOL    HW2 6055   7.191   8.972   0.294 -0.0846 -0.8710  0.1037
33407SOL     OW 6056   8.144   9.296   5.595  0.6071  0.0320 -0.3476
33407SOL    HW1 6057   8.140   9.315   5.502  1.8438  1.5608 -0.1374
33407SOL    HW2 6058   8.057   9.318   5.629  0.3313  0.0196 -1.0384
33408SOL     OW 6059   5.318  10.143   9.861 -0.5457  0.2641 -0.3037
33408SOL    HW1 6060   5.379  10.125   9.789  0.6482  1.1240  0.4504
33408SOL    HW2 6061   5.375  10.163   9.936 -1.7545  1.3210  0.3664
33409SOL     OW 6062   4.345   8.023   7.737 -0.0147  0.2182 -0.6769
33409SOL    HW1 6063   4.288   8.095   7.766 -1.1773 -0.4300 -1.2438
33409SOL    HW2 6064   4.406   8.064   7.676 -0.4824  0.7949 -0.7694
33410SOL     OW 6065   1.536   1.850   6.380 -0.3555 -0.0147 -0.1872
33410SOL    HW1 6066   1.554   1.908   6.307 -1.8076 -1.6919 -1.9714
33410SOL    HW2 6067   1.441   1.838   6.380 -0.3415 -0.5542  1.6064
33411SOL     OW 6068   9.556   9.473   7.762  0.0331  0.5935 -0.4501
33411SOL    HW1 6069   9.582   9.515   7.680 -0.3463 -0.7446 -1.2843
33411SOL    HW2 6070   9.468   9.441   7.745  0.9174 -2.0629 -0.5024
33412SOL     OW 6071   9.541   8.890   9.778 -0.0669  0.1104 -0.3918
33412SOL    HW1 6072   9.602   8.816   9.781 -1.2082 -0.8386  0.4563
33412SOL    HW2 6073   9.597   8.968   9.785  1.2270 -0.6031 -2.0057
33413SOL     OW 6074   7.051   3.991   7.769 -0.6945 -0.0267 -0.2105
33413SOL    HW1 6075   7.047   4.064   7.830 -1.2054 -0.2253 -0.0034
33413SOL    HW2 6076   6.982   4.008   7.705  0.1752  0.4504 -1.0486
33414SOL     OW 6077   1.622   1.528   6.893 -0.3004  0.5965  0.4074
33414SOL    HW1 6078   1.645   1.435   6.888  0.4210  0.7205  1.1913
33414SOL    HW2 6079   1.588   1.540   6.982  0.0894  1.1751  0.4864
33415SOL     OW 6080   0.946   3.644  10.422  0.0550  0.4047  0.2873
33415SOL    HW1 6081   0.989   3.560  10.407 -0.1074  0.0125  1.8524
33415SOL    HW2 6082   1.014   3.709  10.406 -0.2222  0.1283 -2.5003
33416SOL     OW 6083   0.072   9.745   8.896  0.5080  0.0709  0.9956
33416SOL    HW1 6084   0.135   9.680   8.928 -0.2538 -0.0591  2.3213
33416SOL    HW2 6085   0.099   9.763   8.806  1.2835 -1.4135  0.9012
33417SOL     OW 6086   3.684   7.585   2.452 -0.3389 -0.2076  0.4063
33417SOL    HW1 6087   3.705   7.542   2.369  0.1177  0.0807  0.3670
33417SOL    HW2 6088   3.593   7.562   2.469  0.1420 -1.9214  0.8331
33418SOL     OW 6089   2.869   6.867   5.999  0.1561  0.5481 -0.1328
33418SOL    HW1 6090   2.922   6.928   5.948 -0.2119  0.1444 -1.0172
33418SOL    HW2 6091   2.932   6.823   6.057  0.9496 -0.4931 -1.7053
33419SOL     OW 6092   3.454   6.004   3.788  0.2628  0.4897 -0.1234
33419SOL    HW1 6093   3.379   6.058   3.812  1.1133  0.9892  1.5231
33419SOL    HW2 6094   3.478   6.033   3.700 -1.1680  0.6416 -0.4789
33420SOL     OW 6095   5.686   0.205   6.387 -0.5136  0.2776 -0.3314
33420SOL    HW1 6096   5.713   0.259   6.313  2.2985  1.9441  1.7272
33420SOL    HW2 6097   5.746   0.131   6.386  0.8688  1.2959  1.2599
33421SOL     OW 6098   5.288   0.976   9.070  0.0946  0.3336 -0.4969
33421SOL    HW1 6099   5.230   0.901   9.085 -0.6363  0.7649 -1.0463
33421SOL    HW2 6100   5.273   1.033   9.145  3.4618 -1.6844  1.9699
33422SOL     OW 6101   7.788   2.915   4.182 -0.2039  0.0224  0.1762
33422SOL    HW1 6102   7.825   2.988   4.231 -1.6980  1.5133 -0.7952
33422SOL    HW2 6103   7.854   2.895   4.115 -0.1787  1.1311 -0.1431
33423SOL     OW 6104   4.340   9.903   7.449  0.1757 -0.3908  0.2201
33423SOL    HW1 6105   4.345   9.847   7.527 -2.8225 -0.3458  0.5354
33423SOL    HW2 6106   4.288   9.852   7.387 -1.0627  1.2775 -0.1535
33424SOL     OW 6107   4.208   0.133   1.374 -0.2645 -0.7070  0.1568
33424SOL    HW1 6108   4.175   0.163   1.289 -0.8565 -3.5754 -0.7329
33424SOL    HW2 6109   4.152   0.058   1.397  1.8351 -1.9688  1.5555
33425SOL     OW 6110   7.353   3.560   6.095 -0.3732  0.1648 -0.3149
33425SOL    HW1 6111   7.382   3.514   6.174 -0.0126 -0.0859 -0.5868
33425SOL    HW2 6112   7.326   3.490   6.035 -2.8386  0.4159  0.3858
33426SOL     OW 6113   5.652   1.262   3.088  0.1448 -0.1533 -0.3138
33426SOL    HW1 6114   5.610   1.195   3.033 -0.9275  1.1341 -1.1468
33426SOL    HW2 6115   5.601   1.341   3.071  3.1165  1.6210 -1.6145
33427SOL     OW 6116   5.483   6.480   6.654  0.0865  0.4438 -0.2293
33427SOL    HW1 6117   5.393   6.500   6.627 -0.0118  0.0265 -0.2254
33427SOL    HW2 6118   5.501   6.394   6.614  0.2218  0.1861  0.3782
33428SOL     OW 6119   0.998   4.642   1.676 -0.0439  0.1492  0.2293
33428SOL    HW1 6120   1.029   4.643   1.767 -0.0497  0.0140  0.2324
33428SOL    HW2 6121   0.904   4.628   1.683  0.0792 -0.7581  0.1693
33429SOL     OW 6122   8.171   3.278   7.842 -0.9179 -0.3055 -0.7376
33429SOL    HW1 6123   8.156   3.198   7.791  1.1793  0.3287 -2.4849
33429SOL    HW2 6124   8.252   3.260   7.890 -0.7033  0.5929 -0.7577
33430SOL     OW 6125   8.912   5.754   7.286  0.0885  0.1114  0.2253
33430SOL    HW1 6126   8.987   5.762   7.344 -0.0125  0.4479  0.3120
33430SOL    HW2 6127   8.910   5.662   7.261  1.0522  0.2711 -0.4797
33431SOL     OW 6128   8.447  10.271   7.664  0.1319  0.4793 -0.4738
33431SOL    HW1 6129   8.353  10.255   7.650  0.2109 -0.3797 -0.1286
33431SOL    HW2 6130   8.486  10.264   7.577 -0.0374  0.1474 -0.5255
33432SOL     OW 6131   3.218   8.580   8.380 -0.2095 -0.4840 -0.7377
33432SOL    HW1 6132   3.298   8.568   8.330 -1.1776 -0.3562 -2.3628
33432SOL    HW2 6133   3.160   8.629   8.322 -1.2745 -0.0560  0.6221
33433SOL     OW 6134   2.050   6.281   6.052 -0.2443  0.0269 -0.3659
33433SOL    HW1 6135   1.981   6.346   6.060 -0.9483 -0.9295  2.7305
33433SOL    HW2 6136   2.004   6.199   6.033  0.0428 -0.4651  0.9280
33434SOL     OW 6137   1.759   3.871   9.604 -0.2480 -0.0066 -0.0812
33434SOL    HW1 6138   1.784   3.959   9.634  1.8678  0.3489 -2.5660
33434SOL    HW2 6139   1.758   3.877   9.509  1.5496 -3.0191 -0.4215
33435SOL     OW 6140  10.389   6.897   1.427  0.4620 -0.0862 -0.2198
33435SOL    HW1 6141  10.307   6.848   1.421  0.6900 -0.3452 -1.9654
33435SOL    HW2 6142  10.423   6.879   1.514 -1.1611 -0.2472  0.4090
33436SOL     OW 6143   3.502   5.231  10.095  0.1719  0.6748  0.3346
33436SOL    HW1 6144   3.537   5.248  10.008 -3.4298  1.7072 -1.1261
33436SOL    HW2 6145   3.479   5.317  10.129 -0.7446  0.1206  1.1760
33437SOL     OW 6146   5.974   9.663   4.097  0.0846 -0.1306  0.0752
33437SOL    HW1 6147   5.938   9.720   4.029 -0.6230  0.8778  1.2650
33437SOL    HW2 6148   6.044   9.614   4.053 -1.3593 -0.6485 -1.7752
33438SOL     OW 6149   9.801   8.170   6.624 -0.4567  0.0414  0.2417
33438SOL    HW1 6150   9.862   8.129   6.686  0.3245  0.9036  0.0585
33438SOL    HW2 6151   9.808   8.263   6.642 -0.3524  0.2958 -1.0276
33439SOL     OW 6152   0.965   0.444   1.982 -0.4223  0.0485  0.6224
33439SOL    HW1 6153   1.033   0.510   1.969 -2.1453  1.6908 -0.7966
33439SOL    HW2 6154   0.931   0.461   2.070  1.3089 -1.1544  1.5638
33440SOL     OW 6155   7.495   2.026   0.682  0.7175  0.0010 -0.0583
33440SOL    HW1 6156   7.509   1.956   0.747  2.8559 -0.6192 -1.1058
33440SOL    HW2 6157   7.578   2.073   0.679  0.6355  0.0949 -2.2268
33441SOL     OW 6158   1.291   7.679   5.819 -0.1246  0.3999  0.1397
33441SOL    HW1 6159   1.361   7.709   5.876 -0.1251 -0.1590  0.4384
33441SOL    HW2 6160   1.264   7.594   5.855 -0.5113  0.3042 -0.3518
33442SOL     OW 6161   0.902   2.669   9.653 -0.6208  0.1901 -0.3543
33442SOL    HW1 6162   0.833   2.722   9.693 -0.7837 -0.8375  0.7851
33442SOL    HW2 6163   0.902   2.696   9.561 -2.0615  0.7190 -0.2303
33443SOL     OW 6164   3.327   9.071   4.719 -0.3464  0.8737 -0.3091
33443SOL    HW1 6165   3.288   8.998   4.767 -1.0725  0.7036 -1.1472
33443SOL    HW2 6166   3.387   9.030   4.657 -0.2917  1.0341 -0.3633
33444SOL     OW 6167   7.324  10.701  10.616 -0.5488 -0.1436  0.2135
33444SOL    HW1 6168   7.370  10.782  10.593 -0.6668 -0.0054  0.4506
33444SOL    HW2 6169   7.273  10.680  10.538 -0.6700  0.1201  0.2194
33445SOL     OW 6170   6.373   5.385   0.615 -0.3516  0.1108 -0.0974
33445SOL    HW1 6171   6.465   5.374   0.641  0.0118  0.5485 -1.1513
33445SOL    HW2 6172   6.377   5.425   0.528 -1.4980 -2.0495 -1.2230
33446SOL     OW 6173   9.898   7.565   7.955 -0.4031  0.3759  0.2074
33446SOL    HW1 6174   9.870   7.543   7.867 -0.0270  2.0510 -0.3752
33446SOL    HW2 6175   9.991   7.586   7.947  0.0509 -1.0127  1.3280
33447SOL     OW 6176   1.057   8.568   5.175  0.3964 -0.6255 -0.2987
33447SOL    HW1 6177   1.117   8.500   5.144  0.5214 -1.0229  0.7679
33447SOL    HW2 6178   1.115   8.636   5.209  0.2626 -0.1466 -1.0019
33448SOL     OW 6179   3.895   3.515   5.061 -0.5118 -0.6658  0.3782
33448SOL    HW1 6180   3.925   3.475   4.980 -2.7984 -0.8800 -0.4173
33448SOL    HW2 6181   3.885   3.608   5.040 -1.5861 -0.8012  0.2314
33449SOL     OW 6182   8.968   5.067   9.281  0.5029 -0.9490  0.0629
33449SOL    HW1 6183   8.904   5.050   9.350  1.2954 -0.6236  0.8899
33449SOL    HW2 6184   8.933   5.142   9.234 -0.5482 -1.7966 -0.5342
33450SOL     OW 6185   6.951   1.888   1.311  0.2328  0.0751 -0.3506
33450SOL    HW1 6186   7.004   1.950   1.262 -2.2168 -0.0175 -3.4447
33450SOL    HW2 6187   6.916   1.938   1.385  2.1430  0.9145  0.0372
33451SOL     OW 6188   2.582   5.461   8.369  0.7137 -0.4032 -0.1833
33451SOL    HW1 6189   2.669   5.425   8.383 -0.7273 -3.7489  1.2611
33451SOL    HW2 6190   2.534   5.390   8.326 -1.5860  0.9507  0.0033
33452SOL     OW 6191   1.013   2.215   5.414  0.2634  0.2200  0.3510
33452SOL    HW1 6192   0.979   2.300   5.442  1.4762  0.4583  1.1709
33452SOL    HW2 6193   0.947   2.182   5.352  0.3104  2.2719 -0.8846
33453SOL     OW 6194   8.956   9.297  10.350  0.6445  0.7461  0.0124
33453SOL    HW1 6195   8.903   9.218  10.344 -0.1752  1.3686 -1.1777
33453SOL    HW2 6196   8.947   9.325  10.441 -1.1586  0.8820 -0.1732
33454SOL     OW 6197   8.876   5.325   3.311  0.7688 -0.3604  0.3255
33454SOL    HW1 6198   8.896   5.255   3.373  0.8436  0.8750  1.7559
33454SOL    HW2 6199   8.808   5.377   3.354 -1.1630 -0.9798 -1.8155
33455SOL     OW 6200   3.991   5.999   5.880 -0.1868 -0.2825  0.1732
33455SOL    HW1 6201   4.019   6.026   5.968 -2.1366  1.3033  0.3700
33455SOL    HW2 6202   4.065   6.023   5.824  0.5776 -0.1579  1.1867
33456SOL     OW 6203   4.109   6.363  10.402 -0.0329 -0.2592  0.2112
33456SOL    HW1 6204   4.133   6.354  10.494 -0.6027 -0.4117  0.3459
33456SOL    HW2 6205   4.131   6.279  10.362 -0.2937 -0.3811  0.3237
33457SOL     OW 6206   5.487   5.357   1.988 -0.0315  0.0435  0.3203
33457SOL    HW1 6207   5.538   5.370   1.908 -0.9031 -2.6614 -0.7756
33457SOL    HW2 6208   5.396   5.355   1.958 -0.3558 -1.2967  1.3023
33458SOL     OW 6209  10.287   4.629  10.571 -0.0779 -0.0281 -0.0761
33458SOL    HW1 6210  10.335   4.663  10.495  0.5452  0.3334  0.4664
33458SOL    HW2 6211  10.246   4.549  10.539  0.4272 -0.0432 -0.7168
33459SOL     OW 6212   2.900   2.244   6.176 -0.2365 -0.1048  0.1156
33459SOL    HW1 6213   2.959   2.185   6.129  0.6323  1.1942 -0.4760
33459SOL    HW2 6214   2.938   2.331   6.164 -1.0316  0.4964  1.6654
33460SOL     OW 6215   4.683   3.277  10.785 -0.0324 -0.4961 -0.3473
33460SOL    HW1 6216   4.727   3.194  10.763 -0.0008 -0.3157 -0.9675
33460SOL    HW2 6217   4.699   3.287  10.879  2.1533  0.0752 -0.7076
33461SOL     OW 6218   3.098   7.383   0.922  0.7589  0.4819  0.1613
33461SOL    HW1 6219   3.127   7.368   1.012  0.5483  0.6032  0.2505
33461SOL    HW2 6220   3.028   7.448   0.930  0.3576  0.0796 -0.0366
33462SOL     OW 6221   0.578   7.232   8.305  0.4530 -0.0183  0.0982
33462SOL    HW1 6222   0.526   7.182   8.242  0.6080  0.3007 -0.2884
33462SOL    HW2 6223   0.669   7.216   8.279  0.5816 -0.7853  0.9277
33463SOL     OW 6224   8.560   0.750   8.987 -0.1941  0.2942 -0.2531
33463SOL    HW1 6225   8.589   0.659   8.997  0.7825  0.7205  1.2165
33463SOL    HW2 6226   8.517   0.752   8.902 -1.5954 -1.8865  0.3164
33464SOL     OW 6227   2.218   1.581   4.546 -0.7378  0.1944 -0.4991
33464SOL    HW1 6228   2.153   1.516   4.574 -0.6917 -0.5626 -2.0595
33464SOL    HW2 6229   2.196   1.659   4.597 -1.4504 -0.7161  0.6519
33465SOL     OW 6230  10.196   6.115  10.180 -0.7252  0.3054 -0.3946
33465SOL    HW1 6231  10.108   6.150  10.193 -0.8991 -0.3081  0.1732
33465SOL    HW2 6232  10.182   6.026  10.145 -0.4170 -0.6277  1.7081
33466SOL     OW 6233   6.163   2.023   5.071  0.6454 -0.3594 -0.0405
33466SOL    HW1 6234   6.108   2.057   5.141  0.3746 -0.6748 -0.0983
33466SOL    HW2 6235   6.251   2.019   5.109  0.5403 -0.3155  0.2070
33467SOL     OW 6236   1.447   8.326   5.691  0.0550  1.0922 -0.0415
33467SOL    HW1 6237   1.368   8.352   5.738 -0.9615 -1.0659 -0.4090
33467SOL    HW2 6238   1.429   8.346   5.599 -1.2204 -1.6656 -0.4984
33468SOL     OW 6239   8.205   8.840   7.586 -0.5095  0.2712  0.5279
33468SOL    HW1 6240   8.172   8.930   7.584  1.0347  0.8496 -0.0854
33468SOL    HW2 6241   8.153   8.794   7.520 -0.7749  0.9057  0.2878
33469SOL     OW 6242   0.327   6.933   5.267  0.1860 -0.3475 -0.7400
33469SOL    HW1 6243   0.242   6.915   5.226 -0.2042 -0.4036  0.0645
33469SOL    HW2 6244   0.361   6.846   5.289 -0.1132 -0.2761  0.0327
33470SOL     OW 6245   9.741   7.517   3.232  0.0959 -0.6069  0.2281
33470SOL    HW1 6246   9.688   7.504   3.312 -0.5334 -0.6780 -0.1916
33470SOL    HW2 6247   9.695   7.587   3.185  1.4680  0.7275  0.7696
33471SOL     OW 6248   8.947   2.793   3.137 -0.5744 -0.4985  0.1930
33471SOL    HW1 6249   8.953   2.705   3.101 -0.3697 -0.9849  1.3824
33471SOL    HW2 6250   9.021   2.840   3.099  1.1496 -1.7204  1.8830
33472SOL     OW 6251   2.318   6.817   6.627 -0.3550 -0.2759 -0.4314
33472SOL    HW1 6252   2.342   6.881   6.694  0.0038 -1.0188  0.1627
33472SOL    HW2 6253   2.284   6.742   6.676  0.4399 -1.0580 -1.0338
33473SOL     OW 6254   1.119   3.637   4.514 -0.1078  0.1434 -0.2477
33473SOL    HW1 6255   1.038   3.631   4.465 -0.9428  0.5985  1.0226
33473SOL    HW2 6256   1.092   3.650   4.605  1.3771 -1.0053  0.4099
33474SOL     OW 6257   1.972   3.133   9.238 -0.2435  0.8415  0.0040
33474SOL    HW1 6258   1.885   3.169   9.252  0.2371  1.9827  0.1473
33474SOL    HW2 6259   2.031   3.208   9.243  0.5691  0.4474 -2.1984
33475SOL     OW 6260   3.268   8.469   8.851  0.4086  0.6353  0.6743
33475SOL    HW1 6261   3.220   8.460   8.769 -0.0367 -1.2438  1.1051
33475SOL    HW2 6262   3.207   8.441   8.919  1.3691  0.3838  1.4669
33476SOL     OW 6263   6.888   7.540   7.319  0.0556  0.6292 -0.2277
33476SOL    HW1 6264   6.869   7.552   7.412  0.2534  0.6474 -0.1901
33476SOL    HW2 6265   6.875   7.447   7.304 -0.0071  0.6315 -0.1891
33477SOL     OW 6266   0.868   4.226  10.323  0.3469  0.0550  0.4746
33477SOL    HW1 6267   0.930   4.162  10.286  0.0809 -1.3238  2.2771
33477SOL    HW2 6268   0.789   4.216  10.269 -0.1694 -2.1885  1.5010
33478SOL     OW 6269  10.375   3.216   0.453  0.0824  0.4198 -0.1334
33478SOL    HW1 6270  10.451   3.257   0.412 -0.9305  1.4497 -1.0464
33478SOL    HW2 6271  10.306   3.282   0.447 -0.2840  0.4636  2.8436
33479SOL     OW 6272   7.045   0.235   1.917 -0.1614  0.1565  0.6869
33479SOL    HW1 6273   6.960   0.191   1.915 -0.7853  1.3374  0.3338
33479SOL    HW2 6274   7.035   0.304   1.983 -0.6700  2.5308 -1.6678
33480SOL     OW 6275   2.145   3.496   4.931  0.2269  0.2027  0.3738
33480SOL    HW1 6276   2.195   3.515   5.010  1.8762 -1.9079 -0.0605
33480SOL    HW2 6277   2.065   3.548   4.939  0.5575  0.3910  3.1789
33481SOL     OW 6278   2.636   2.393   9.624 -0.4089 -0.4269 -0.7371
33481SOL    HW1 6279   2.602   2.318   9.674 -0.9212  0.2677 -0.0089
33481SOL    HW2 6280   2.728   2.373   9.611 -0.4060 -0.9113 -0.0344
33482SOL     OW 6281   8.735   4.953   7.604  0.2850  0.5419  0.3543
33482SOL    HW1 6282   8.784   4.921   7.528  0.3889 -1.7404  1.2922
33482SOL    HW2 6283   8.682   5.025   7.570  1.3328  0.4892 -1.5599
33483SOL     OW 6284   8.526   9.184   4.229 -0.2989 -0.3613 -0.0795
33483SOL    HW1 6285   8.436   9.203   4.201 -0.8371 -1.8361  0.5572
33483SOL    HW2 6286   8.555   9.115   4.169  0.8929  0.9694 -1.0941
33484SOL     OW 6287   4.817   7.154   1.368 -0.3929 -1.0759 -0.1093
33484SOL    HW1 6288   4.872   7.199   1.303 -1.8224 -1.3651 -1.6028
33484SOL    HW2 6289   4.746   7.216   1.386 -1.4624 -2.0159 -0.9022
33485SOL     OW 6290   5.525   6.724   0.592  0.3884 -0.1798  0.2679
33485SOL    HW1 6291   5.542   6.797   0.532 -1.0585 -0.0774 -0.0561
33485SOL    HW2 6292   5.569   6.649   0.551 -1.3043 -0.3130 -1.4549
33486SOL     OW 6293   7.835   2.517  10.491  0.2083 -0.3787 -0.6675
33486SOL    HW1 6294   7.887   2.528  10.411  0.3363 -0.2476 -0.5678
33486SOL    HW2 6295   7.746   2.541  10.465  0.5605  1.4437 -0.3385
33487SOL     OW 6296   7.769   1.960   3.044 -0.3627  0.0851 -0.0296
33487SOL    HW1 6297   7.713   1.958   2.966  1.4916 -0.7450 -1.4495
33487SOL    HW2 6298   7.846   2.010   3.016  0.4942 -0.5250  1.1417
33488SOL     OW 6299   4.610   8.845   3.595  0.0977  0.3360 -0.7316
33488SOL    HW1 6300   4.592   8.834   3.688  0.2385  1.1941 -0.5997
33488SOL    HW2 6301   4.681   8.784   3.577  0.5913  0.7207 -0.1085
33489SOL     OW 6302   0.988   4.290   1.815 -0.3064  0.2660 -0.6870
33489SOL    HW1 6303   0.900   4.285   1.780 -0.0953 -0.4234 -1.1286
33489SOL    HW2 6304   0.981   4.256   1.904 -0.5076  0.3485 -0.6713
33490SOL     OW 6305   6.827   8.623   3.353  0.1712 -0.1599 -0.0346
33490SOL    HW1 6306   6.793   8.557   3.294 -0.1969  0.2038 -0.2365
33490SOL    HW2 6307   6.751   8.678   3.374  0.7531  1.0825 -1.0480
33491SOL     OW 6308   4.226   5.785  10.329  0.2362  0.3914  0.0084
33491SOL    HW1 6309   4.293   5.831  10.279 -0.2444  2.7878  1.3893
33491SOL    HW2 6310   4.153   5.847  10.333 -1.3411 -1.3911  0.1518
33492SOL     OW 6311   1.263   2.243   0.936  0.0074 -0.2988 -0.0221
33492SOL    HW1 6312   1.263   2.168   0.877  0.1950 -3.3711  3.5239
33492SOL    HW2 6313   1.172   2.272   0.938 -0.4723 -1.7160 -0.0504
33493SOL     OW 6314   2.963   2.607   3.229 -0.2923  0.1555 -0.0499
33493SOL    HW1 6315   2.951   2.692   3.273  0.3014 -0.3568  1.1412
33493SOL    HW2 6316   2.920   2.544   3.286  0.3941 -0.5170 -0.2598
33494SOL     OW 6317   4.200   5.798   7.823 -0.5126 -0.0738  0.5870
33494SOL    HW1 6318   4.187   5.704   7.837 -0.3072 -0.6098 -2.2043
33494SOL    HW2 6319   4.291   5.805   7.793 -1.3144  0.5701 -1.9474
33495SOL     OW 6320   3.950   9.012  10.338 -0.2372  0.6328 -0.2147
33495SOL    HW1 6321   3.973   8.959  10.415 -0.5363  2.3642  1.1557
33495SOL    HW2 6322   3.865   8.980  10.311  0.7330 -1.3400 -1.1271
33496SOL     OW 6323   9.619   5.991  10.461 -0.0295 -0.2526  0.0162
33496SOL    HW1 6324   9.596   5.911  10.508  2.1135 -0.8063  0.1981
33496SOL    HW2 6325   9.713   6.001  10.474  0.0058  1.5007 -1.2376
33497SOL     OW 6326   2.428   5.580  10.133 -0.0440  0.3986 -0.1166
33497SOL    HW1 6327   2.338   5.598  10.104  0.2711 -0.1804 -1.5211
33497SOL    HW2 6328   2.483   5.626  10.070  0.7060 -2.3585 -1.6407
33498SOL     OW 6329   4.774   9.916   7.552 -0.5931  0.5439 -0.1903
33498SOL    HW1 6330   4.737   9.856   7.616 -0.0364  1.4118  0.9745
33498SOL    HW2 6331   4.704   9.930   7.488 -0.5416 -1.8218 -0.8681
33499SOL     OW 6332   5.602   9.281   9.469 -0.9604 -0.1037 -0.4680
33499SOL    HW1 6333   5.688   9.275   9.511 -1.3346 -0.3957  0.2768
33499SOL    HW2 6334   5.592   9.196   9.425 -1.2555 -0.4382  0.2267
33500SOL     OW 6335   0.080   5.014   4.127 -0.3849 -0.0775  0.0205
33500SOL    HW1 6336   0.162   5.058   4.104  0.0397 -1.0771 -0.3926
33500SOL    HW2 6337   0.012   5.077   4.102  0.2413  0.7551  0.3519
33501SOL     OW 6338   4.396   0.119   4.218 -0.1881 -1.1049 -0.2240
33501SOL    HW1 6339   4.364   0.029   4.215 -0.1334 -1.2473  2.0552
33501SOL    HW2 6340   4.483   0.114   4.179 -0.0827 -2.0933  0.1067
33502SOL     OW 6341   7.272   2.537   2.453 -0.3980  0.0951 -0.2542
33502SOL    HW1 6342   7.256   2.624   2.418  4.6810  1.4513 -0.0455
33502SOL    HW2 6343   7.306   2.487   2.379  1.7301  0.0805  0.6685
33503SOL     OW 6344   2.227   4.687   6.406  0.4276  0.1142 -0.4866
33503SOL    HW1 6345   2.285   4.675   6.482  2.0549  0.4831 -1.6155
33503SOL    HW2 6346   2.139   4.686   6.443  1.1834  0.7741  1.4770
33504SOL     OW 6347   8.051   3.647   6.335  0.5358 -0.7216 -0.5587
33504SOL    HW1 6348   8.105   3.568   6.327 -0.9409 -1.8596  0.2074
33504SOL    HW2 6349   7.969   3.625   6.291  0.5119  0.8412 -1.3827
33505SOL     OW 6350   2.872  10.164   3.604 -0.1086 -0.2494 -0.5554
33505SOL    HW1 6351   2.884  10.174   3.509  0.5808  1.0748 -0.3652
33505SOL    HW2 6352   2.931  10.230   3.642  0.2055 -1.2823  0.8203
33506SOL     OW 6353   4.726   0.783   8.176 -0.8741 -0.0408 -0.3853
33506SOL    HW1 6354   4.638   0.783   8.214 -1.1726 -0.3576 -1.0554
33506SOL    HW2 6355   4.721   0.720   8.104  0.2279 -0.9112  0.2754
33507SOL     OW 6356  10.586   4.811  10.705 -0.3039  0.0224  0.1310
33507SOL    HW1 6357  10.552   4.789  10.619  0.0793  0.5045 -0.1462
33507SOL    HW2 6358  10.681   4.797  10.698 -0.3045 -0.2467  0.5713
33508SOL     OW 6359   3.286   2.953   1.053 -0.6959 -0.3961 -0.2450
33508SOL    HW1 6360   3.292   3.029   1.110 -2.1021 -0.6047  0.2325
33508SOL    HW2 6361   3.218   2.976   0.990 -1.8667 -1.5977  0.5163
33509SOL     OW 6362   8.449   6.998   4.415  0.2121  0.6170 -0.2553
33509SOL    HW1 6363   8.429   7.087   4.389  2.9488  1.7846  1.1578
33509SOL    HW2 6364   8.523   6.972   4.359 -0.4917 -0.7639 -0.5986
33510SOL     OW 6365   3.936  10.295   8.477  0.0209  0.4814 -0.2760
33510SOL    HW1 6366   3.934  10.300   8.573 -0.9871 -0.0681 -0.2596
33510SOL    HW2 6367   4.016  10.247   8.457 -0.2243 -0.1819  0.3288
33511SOL     OW 6368   6.959   8.601   7.778 -0.0048 -0.1938 -0.0802
33511SOL    HW1 6369   6.881   8.654   7.794  0.3024 -0.2618  1.7756
33511SOL    HW2 6370   7.030   8.650   7.819  0.9151 -0.2633 -1.5257
33512SOL     OW 6371   6.814   6.706   2.727  0.1024 -0.5595 -0.5668
33512SOL    HW1 6372   6.788   6.656   2.649  2.9600 -1.0970 -1.2870
33512SOL    HW2 6373   6.853   6.641   2.785 -0.2187  0.1554  0.4685
33513SOL     OW 6374   2.063   8.350   0.421 -0.4993 -0.1555 -0.1023
33513SOL    HW1 6375   2.100   8.388   0.500 -0.1069  0.8720 -0.7544
33513SOL    HW2 6376   2.005   8.418   0.386  1.2067  0.4532 -1.9941
33514SOL     OW 6377   6.213   4.322   1.341  0.2306  0.0759 -0.6427
33514SOL    HW1 6378   6.203   4.413   1.313  0.1609  0.4831  0.6372
33514SOL    HW2 6379   6.298   4.320   1.385 -0.2650 -0.2049  0.3217
33515SOL     OW 6380   3.220   9.926   3.280  0.7188 -0.3906  0.2264
33515SOL    HW1 6381   3.213  10.012   3.322 -0.0614 -0.2197 -0.2367
33515SOL    HW2 6382   3.139   9.882   3.304 -0.0798 -0.0349 -1.6466
33516SOL     OW 6383   6.860   7.965   0.343  0.0931  0.6057 -0.4165
33516SOL    HW1 6384   6.895   7.972   0.254 -1.0519  0.1797 -0.9252
33516SOL    HW2 6385   6.794   7.896   0.338 -0.0409  0.6194  0.7519
33517SOL     OW 6386   5.690   0.323   8.095 -0.5971 -0.3567 -0.5846
33517SOL    HW1 6387   5.751   0.363   8.034 -0.8445 -1.6488 -1.7279
33517SOL    HW2 6388   5.737   0.248   8.131 -0.8067 -0.1882  0.0543
33518SOL     OW 6389   7.413  10.128   3.519 -0.0428  0.0260 -0.4800
33518SOL    HW1 6390   7.382  10.038   3.530  2.3509 -0.9503 -1.1021
33518SOL    HW2 6391   7.333  10.180   3.516 -1.4918 -1.9694  0.6380
33519SOL     OW 6392   9.716   4.188   9.648 -1.1606 -0.1736  0.2854
33519SOL    HW1 6393   9.734   4.180   9.741 -0.6157  1.3402  0.3323
33519SOL    HW2 6394   9.766   4.117   9.607  0.1867  0.3651  0.9652
33520SOL     OW 6395   2.676   9.614   3.546  0.4020 -0.4879 -0.0965
33520SOL    HW1 6396   2.711   9.697   3.512  1.5137 -0.1175  1.7920
33520SOL    HW2 6397   2.680   9.554   3.472  2.6372  0.2817 -0.6933
33521SOL     OW 6398   1.628  10.760   4.650 -0.2341 -0.2676  0.4500
33521SOL    HW1 6399   1.686  10.740   4.723  0.9683  0.7672 -0.2005
33521SOL    HW2 6400   1.553  10.803   4.691  0.6915  0.8499  1.0356
33522SOL     OW 6401   5.102   4.451  10.165  0.5816 -0.1669 -0.2704
33522SOL    HW1 6402   5.072   4.437  10.255  0.7343  0.0678 -0.1832
33522SOL    HW2 6403   5.196   4.462  10.173  1.0414 -2.9569 -0.7482
33523SOL     OW 6404   6.490   1.119   8.163 -0.1430 -0.0406 -0.2224
33523SOL    HW1 6405   6.427   1.074   8.107  0.4243 -1.3140  0.1215
33523SOL    HW2 6406   6.445   1.198   8.193 -1.9572 -1.4238  0.8579
33524SOL     OW 6407   3.874   2.856   1.250 -0.1501 -0.0472 -0.3861
33524SOL    HW1 6408   3.833   2.867   1.336  0.4433 -3.0543  0.3973
33524SOL    HW2 6409   3.812   2.802   1.201  0.4380 -0.0584 -1.1418
33525SOL     OW 6410   1.006   6.398   1.025  0.7293  0.1438 -0.1928
33525SOL    HW1 6411   1.076   6.425   1.084  0.6885 -0.7103  0.2585
33525SOL    HW2 6412   1.043   6.327   0.974  0.7959  0.9382 -1.2850
33526SOL     OW 6413   6.504   8.703   1.597  0.4682 -0.0427 -0.2725
33526SOL    HW1 6414   6.526   8.787   1.557  0.4514  0.6605  1.1341
33526SOL    HW2 6415   6.468   8.651   1.525  0.1607  1.2659 -1.1090
33527SOL     OW 6416   6.476   2.604   5.841  0.2310 -0.0307  0.2296
33527SOL    HW1 6417   6.484   2.608   5.746  1.2070  0.4349  0.3172
33527SOL    HW2 6418   6.446   2.516   5.859 -1.5923  0.3798 -0.6065
33528SOL     OW 6419   8.657  10.902   3.995 -0.2432  0.6415  0.4378
33528SOL    HW1 6420   8.699  10.817   3.988 -0.1732  0.8038 -1.4561
33528SOL    HW2 6421   8.666  10.925   4.088 -0.6971 -1.6045  1.0954
33529SOL     OW 6422   3.795   2.980   3.755 -0.1021  0.0389  0.2001
33529SOL    HW1 6423   3.734   2.999   3.684  1.2323 -0.1409 -1.0517
33529SOL    HW2 6424   3.807   2.885   3.751  0.9791  0.1737 -0.2319
33530SOL     OW 6425   2.393   2.280   0.027 -0.0622 -0.0031 -0.0756
33530SOL    HW1 6426   2.438   2.199   0.002  0.1616  0.0651  0.1062
33530SOL    HW2 6427   2.319   2.251   0.081 -1.4353 -0.2738 -1.9890
33531SOL     OW 6428   4.275   4.583   9.598  0.1700  0.3009  0.3764
33531SOL    HW1 6429   4.225   4.629   9.666  0.2605  1.5205 -0.3547
33531SOL    HW2 6430   4.239   4.615   9.515 -0.6310 -1.9127 -0.2035
33532SOL     OW 6431   5.413   3.252   9.019 -0.1236 -0.0273  0.1557
33532SOL    HW1 6432   5.475   3.222   8.952  1.2782  2.5489  0.1377
33532SOL    HW2 6433   5.443   3.211   9.100  2.2238  1.6966  0.2875
33533SOL     OW 6434   4.957   7.254   0.157 -0.1526  0.2136  0.0343
33533SOL    HW1 6435   4.907   7.186   0.203  0.3654 -1.0132 -1.1541
33533SOL    HW2 6436   4.914   7.336   0.182 -1.8311 -0.6728  0.2055
33534SOL     OW 6437   0.465   3.437   9.630  0.2725  0.0439 -0.1328
33534SOL    HW1 6438   0.485   3.343   9.629 -1.7119 -0.4195 -0.7402
33534SOL    HW2 6439   0.506   3.471   9.551  1.5957 -0.1435  0.4406
33535SOL     OW 6440   1.460   8.328   6.719  0.0036  0.4906 -0.4406
33535SOL    HW1 6441   1.407   8.342   6.798 -0.7406  0.7683 -0.9666
33535SOL    HW2 6442   1.546   8.303   6.751 -1.2331 -3.2137  0.4818
33536SOL     OW 6443   7.484   2.420   8.257  0.2597 -0.1869 -0.3594
33536SOL    HW1 6444   7.414   2.461   8.206  0.2281 -0.7044 -0.7493
33536SOL    HW2 6445   7.553   2.404   8.193 -0.2643 -1.9799 -0.5235
33537SOL     OW 6446   3.211   4.141   9.019 -0.3142 -0.5308 -0.2398
33537SOL    HW1 6447   3.234   4.168   9.108 -0.0970 -0.6386 -0.2621
33537SOL    HW2 6448   3.181   4.051   9.028  0.5326 -0.8460 -0.3893
33538SOL     OW 6449   8.247   7.438   6.599 -0.0318  0.3425  0.0936
33538SOL    HW1 6450   8.165   7.389   6.611  0.0946 -0.0198 -0.4536
33538SOL    HW2 6451   8.283   7.404   6.517  0.4745  0.7784  0.1293
33539SOL     OW 6452   5.270   5.101   4.839 -0.5675 -0.0168 -0.9548
33539SOL    HW1 6453   5.196   5.150   4.803 -1.1545 -0.4267 -0.3347
33539SOL    HW2 6454   5.230   5.027   4.885  0.0575  1.0148  1.4240
33540SOL     OW 6455   0.022   6.114   3.157  0.1911  0.4884  0.4571
33540SOL    HW1 6456  -0.010   6.062   3.230 -2.6048  2.1023  0.5163
33540SOL    HW2 6457  -0.057   6.148   3.115  1.7950  2.0270 -1.5195
33541SOL     OW 6458   3.696  10.601   5.657  0.6595  0.5101  0.4396
33541SOL    HW1 6459   3.756  10.556   5.717  2.7698  3.0530  0.4009
33541SOL    HW2 6460   3.753  10.646   5.595 -1.3352  1.9192 -0.4667
33542SOL     OW 6461   4.022   9.211   0.728  0.0007 -0.1805  0.1605
33542SOL    HW1 6462   4.053   9.173   0.646  0.2112 -1.2484  0.7222
33542SOL    HW2 6463   3.989   9.298   0.703 -0.9601 -0.9064 -1.2401
33543SOL     OW 6464   6.329   5.028   4.624  0.0589 -0.1547  0.5191
33543SOL    HW1 6465   6.376   5.055   4.545  1.4503 -1.0103  1.0128
33543SOL    HW2 6466   6.266   5.098   4.640  1.7329  1.4851  0.2887
33544SOL     OW 6467   0.725   2.509   6.448 -0.3469  0.0981 -0.1974
33544SOL    HW1 6468   0.786   2.506   6.522  0.4705 -0.8354 -0.8971
33544SOL    HW2 6469   0.675   2.590   6.462  0.1315  0.1898  1.1011
33545SOL     OW 6470   3.240   4.450   8.817  0.5573 -0.0006 -0.2751
33545SOL    HW1 6471   3.223   4.490   8.903 -0.9419 -1.6594  0.2714
33545SOL    HW2 6472   3.190   4.368   8.819  0.6200 -0.1614 -2.6908
33546SOL     OW 6473   6.416   4.864   2.655  0.2451 -0.4573 -0.9801
33546SOL    HW1 6474   6.377   4.936   2.606 -0.1959 -1.0876 -1.5661
33546SOL    HW2 6475   6.345   4.831   2.710  0.6088 -0.0683 -0.2560
33547SOL     OW 6476   3.949  10.597   4.281  0.3681  0.0219  0.2191
33547SOL    HW1 6477   3.925  10.553   4.199  1.3559 -0.0660 -0.0270
33547SOL    HW2 6478   3.987  10.528   4.335 -0.0864  0.1257  0.6877
33548SOL     OW 6479   8.241   2.119   1.157  0.1722 -0.5029  0.2295
33548SOL    HW1 6480   8.308   2.054   1.137  1.0149  0.3019  0.3819
33548SOL    HW2 6481   8.200   2.137   1.072  0.9003 -0.1810 -0.0562
33549SOL     OW 6482   0.746   6.887   1.345  0.8810 -0.2439 -0.1919
33549SOL    HW1 6483   0.683   6.927   1.284  2.1544  1.6851 -0.3231
33549SOL    HW2 6484   0.782   6.813   1.296 -0.3124 -0.5993 -0.5953
33550SOL     OW 6485   0.834  10.300   9.135  0.0988 -0.0367 -0.1265
33550SOL    HW1 6486   0.831  10.289   9.040  0.9478  0.5880 -0.2301
33550SOL    HW2 6487   0.866  10.215   9.168  0.7500  0.0721 -0.4734
33551SOL     OW 6488   6.982  10.193   5.651 -0.6681 -0.1000  0.2757
33551SOL    HW1 6489   7.005  10.102   5.632 -0.1364 -0.1266  1.0275
33551SOL    HW2 6490   6.890  10.200   5.626 -0.3334 -0.4428 -1.1795
33552SOL     OW 6491   3.802   9.721   2.647 -0.0272 -0.8718 -0.1839
33552SOL    HW1 6492   3.715   9.682   2.634 -0.2190 -0.2303 -0.9273
33552SOL    HW2 6493   3.863   9.648   2.633 -0.4095 -1.0980 -0.7188
33553SOL     OW 6494   6.080   2.657   6.468 -0.1588  0.4518  0.3305
33553SOL    HW1 6495   6.089   2.687   6.378 -2.0788  2.1750  0.6273
33553SOL    HW2 6496   6.062   2.563   6.461  0.5702  0.3947 -1.0106
33554SOL     OW 6497   0.262   2.000   3.744  0.3569  0.0244 -0.0242
33554SOL    HW1 6498   0.221   2.086   3.751 -0.9805 -0.5368 -0.5526
33554SOL    HW2 6499   0.294   1.981   3.832 -0.9598  0.2990  0.5392
33555SOL     OW 6500   4.890   7.509   5.236  0.3824  0.5738 -0.4050
33555SOL    HW1 6501   4.955   7.470   5.294  0.1315  0.9591  0.1492
33555SOL    HW2 6502   4.806   7.476   5.270  0.2235  0.9518 -0.4320
33556SOL     OW 6503  10.559   9.738   8.803  0.3384  0.7233 -0.2918
33556SOL    HW1 6504  10.500   9.805   8.771  0.5770  0.7845 -0.6078
33556SOL    HW2 6505  10.615   9.716   8.728 -0.0739 -0.1957 -0.3462
33557SOL     OW 6506   4.135   9.038   3.465 -0.1311 -0.1257  0.1552
33557SOL    HW1 6507   4.198   8.982   3.420  0.3797  1.1527 -0.7859
33557SOL    HW2 6508   4.052   8.989   3.461  0.8856 -2.1958  2.1028
33558SOL     OW 6509   5.524   2.917   1.263 -0.5864 -0.7092 -0.2779
33558SOL    HW1 6510   5.570   2.972   1.326  1.0396 -1.1290 -1.0496
33558SOL    HW2 6511   5.552   2.828   1.283 -1.1101 -0.9894 -0.7418
33559SOL     OW 6512   3.443   6.971   5.399 -0.7048  0.7582 -0.7346
33559SOL    HW1 6513   3.465   6.926   5.481 -0.9625  0.9632 -0.5516
33559SOL    HW2 6514   3.462   7.063   5.416 -1.5110  0.9161 -0.6310
33560SOL     OW 6515   5.078   1.398   9.432 -0.1540 -0.0937 -0.2032
33560SOL    HW1 6516   5.147   1.461   9.411 -1.6964  1.4950 -0.8209
33560SOL    HW2 6517   5.026   1.392   9.352 -1.1209 -0.7011  0.4435
33561SOL     OW 6518   6.535   5.211   5.841 -0.1601 -0.5900 -0.0451
33561SOL    HW1 6519   6.617   5.195   5.794 -0.3224  0.4489 -0.7006
33561SOL    HW2 6520   6.468   5.167   5.788  0.0057 -1.7578  0.6885
33562SOL     OW 6521   9.629   5.496   6.854  0.4265 -0.2883 -0.1367
33562SOL    HW1 6522   9.696   5.546   6.808 -0.7094  0.8028 -0.6948
33562SOL    HW2 6523   9.642   5.406   6.827 -1.3333  0.4905 -4.2311
33563SOL     OW 6524   1.584   5.308   9.268  0.7284  0.1782 -0.1439
33563SOL    HW1 6525   1.585   5.375   9.337 -1.0419  0.9673 -0.8385
33563SOL    HW2 6526   1.621   5.352   9.192  1.8894 -0.4391  0.0313
33564SOL     OW 6527   1.531  10.482   4.102 -0.4525  0.1309 -0.4820
33564SOL    HW1 6528   1.488  10.545   4.044  0.6969  2.5088  1.0721
33564SOL    HW2 6529   1.546  10.531   4.183  0.5977 -2.1604  0.8084
33565SOL     OW 6530   5.688   9.824   4.968  0.5128 -0.2077 -0.2934
33565SOL    HW1 6531   5.603   9.780   4.982  0.1466  0.3071 -0.8402
33565SOL    HW2 6532   5.721   9.841   5.056  0.4673 -1.1988 -0.0665
33566SOL     OW 6533   6.965  10.707   7.854 -0.9879  0.4084  0.0572
33566SOL    HW1 6534   6.896  10.728   7.917 -0.5616 -0.5588  0.8685
33566SOL    HW2 6535   6.925  10.643   7.795 -1.4175  1.3851 -0.7479
33567SOL     OW 6536   3.160   0.418  10.408  0.0217 -0.1631 -0.5830
33567SOL    HW1 6537   3.076   0.390  10.445 -0.0311  2.5674  1.7484
33567SOL    HW2 6538   3.226   0.368  10.456 -0.2120 -1.3337 -1.4598
33568SOL     OW 6539   5.898   9.639   3.299  0.4088 -0.2930 -0.2912
33568SOL    HW1 6540   5.838   9.702   3.259  0.7698  0.8330  0.8872
33568SOL    HW2 6541   5.872   9.555   3.262  0.3059  0.5999 -2.3750
33569SOL     OW 6542   4.115   2.647   4.734  0.0620 -0.8135  0.9740
33569SOL    HW1 6543   4.124   2.700   4.655  0.7496  1.5257  2.5349
33569SOL    HW2 6544   4.082   2.562   4.702  0.1082  0.1015 -1.7574
33570SOL     OW 6545   7.365   6.769  10.628 -0.0973  0.8249  0.1776
33570SOL    HW1 6546   7.372   6.777  10.723  0.5927  1.2096  0.0987
33570SOL    HW2 6547   7.413   6.689  10.607  1.7689  1.9534 -0.0676
33571SOL     OW 6548   8.455   0.232   0.381  0.0498  0.0790  0.1433
33571SOL    HW1 6549   8.471   0.239   0.475 -2.7685 -1.2080  0.8409
33571SOL    HW2 6550   8.372   0.183   0.375  0.5386 -0.5528 -3.0323
33572SOL     OW 6551   1.975   0.746   3.852  0.1704  0.3395 -0.7727
33572SOL    HW1 6552   2.014   0.686   3.916 -0.3425  0.0175 -0.7580
33572SOL    HW2 6553   2.038   0.748   3.780  0.2100 -0.1813 -0.7554
33573SOL     OW 6554   2.232   7.464   1.338  0.4111  0.2618  0.1727
33573SOL    HW1 6555   2.171   7.404   1.381  0.1561  0.4197  0.0327
33573SOL    HW2 6556   2.186   7.493   1.259  0.0010  1.6378  0.8814
33574SOL     OW 6557   0.330   6.790   1.876 -0.2141 -0.3437 -0.2258
33574SOL    HW1 6558   0.271   6.865   1.881  0.5367  0.2498 -0.0563
33574SOL    HW2 6559   0.399   6.818   1.816 -0.2714 -1.1560 -0.7023
33575SOL     OW 6560   5.535   2.790   2.680 -0.0131  0.2923  0.4851
33575SOL    HW1 6561   5.532   2.815   2.588 -3.0078 -0.3013  0.2854
33575SOL    HW2 6562   5.498   2.865   2.726  1.4652  0.5831  1.2448
33576SOL     OW 6563   5.029   3.623   1.822  0.0087 -0.1036  0.2876
33576SOL    HW1 6564   5.073   3.538   1.823  1.4903  0.6441  0.6742
33576SOL    HW2 6565   5.018   3.643   1.730 -0.9256 -0.9913  0.1917
33577SOL     OW 6566   7.654  10.647   5.700 -0.3562 -0.3442  0.1258
33577SOL    HW1 6567   7.610  10.634   5.616 -0.0257 -0.9430  0.0420
33577SOL    HW2 6568   7.720  10.713   5.683 -0.8619  0.1668  0.1227
33578SOL     OW 6569   7.619   7.049   2.459  0.4693  0.8516 -0.1907
33578SOL    HW1 6570   7.532   7.088   2.453  0.2071  0.5896  1.3267
33578SOL    HW2 6571   7.606   6.958   2.434  0.1140  0.6113  0.7990
33579SOL     OW 6572   6.924   1.414   8.228  0.3939  0.2662  0.9738
33579SOL    HW1 6573   6.862   1.476   8.190 -0.7655 -2.6166 -2.3326
33579SOL    HW2 6574   7.009   1.440   8.191 -0.1247 -0.2144 -0.6250
33580SOL     OW 6575   9.418   5.349   1.886 -0.2060  0.2872 -0.5529
33580SOL    HW1 6576   9.354   5.313   1.946  0.0050 -0.5372 -0.8153
33580SOL    HW2 6577   9.482   5.394   1.942  0.3769 -1.0794 -0.0997
33581SOL     OW 6578   9.970   3.014  10.203  0.1890 -0.1203  0.1939
33581SOL    HW1 6579   9.954   2.972  10.118 -0.3876 -0.7518  0.6008
33581SOL    HW2 6580   9.892   3.067  10.218  0.7666  0.8469 -0.1565
33582SOL     OW 6581   6.119   2.869   9.827 -0.0357  0.0197 -0.7682
33582SOL    HW1 6582   6.057   2.806   9.790  1.5032 -2.3340  0.3840
33582SOL    HW2 6583   6.175   2.895   9.754 -1.3204  0.9459 -1.4748
33583SOL     OW 6584   7.902   7.138   5.518  0.7108 -0.0231  0.4019
33583SOL    HW1 6585   7.829   7.076   5.523  1.5419 -0.9843  0.6451
33583SOL    HW2 6586   7.927   7.138   5.425  0.1994  0.5771  0.2483
33584SOL     OW 6587   5.881   9.089   4.697 -0.4609 -0.2040 -0.3356
33584SOL    HW1 6588   5.885   9.184   4.695  3.1287 -0.2120  0.0335
33584SOL    HW2 6589   5.859   9.068   4.788  1.6339  0.3711  0.3711
33585SOL     OW 6590   2.799   8.376   4.704  0.2331 -0.2505  0.2341
33585SOL    HW1 6591   2.752   8.344   4.782  0.3953  0.7681  0.7690
33585SOL    HW2 6592   2.878   8.322   4.700  0.5783  0.1502  1.2145
33586SOL     OW 6593   6.207   4.452   9.330 -0.1703  0.5087 -0.5568
33586SOL    HW1 6594   6.228   4.414   9.245  1.0898  0.3703 -0.1946
33586SOL    HW2 6595   6.277   4.422   9.388 -0.6452  1.1563  0.3776
33587SOL     OW 6596   0.773   5.758   7.094 -0.3419  0.1825 -0.2091
33587SOL    HW1 6597   0.685   5.778   7.127 -0.2668  1.0303 -0.5064
33587SOL    HW2 6598   0.829   5.760   7.172 -0.3646  0.9977 -0.2045
33588SOL     OW 6599   3.675   2.697   1.148  0.0232  0.1017 -0.1838
33588SOL    HW1 6600   3.582   2.722   1.149  0.2333  0.9052  0.2446
33588SOL    HW2 6601   3.677   2.617   1.097 -0.7991  0.5153 -0.9074
33589SOL     OW 6602   2.161   3.118   6.741 -0.0148 -0.1684 -0.0183
33589SOL    HW1 6603   2.070   3.147   6.732  0.1537  1.1800  1.8867
33589SOL    HW2 6604   2.161   3.061   6.817  0.7847  0.1354  0.2209
33590SOL     OW 6605   5.627   5.677   2.255  0.1357 -0.2627 -0.7261
33590SOL    HW1 6606   5.624   5.753   2.198  0.5604  0.0092 -0.3926
33590SOL    HW2 6607   5.720   5.664   2.275 -0.0328 -0.0304  0.3062
33591SOL     OW 6608   6.787   3.408   9.808  0.1154  0.1584 -0.1341
33591SOL    HW1 6609   6.744   3.355   9.875 -0.0820 -2.1297 -1.9562
33591SOL    HW2 6610   6.815   3.486   9.855 -1.2530 -0.6779  2.2940
33592SOL     OW 6611   2.987   6.231   1.709  0.4489 -0.0065 -0.3090
33592SOL    HW1 6612   2.955   6.201   1.624 -0.0881  2.0437 -0.9066
33592SOL    HW2 6613   2.922   6.199   1.771 -1.5930  2.0147 -1.2328
33593SOL     OW 6614   2.185   2.494   9.807 -0.1061 -0.1812  0.0263
33593SOL    HW1 6615   2.250   2.492   9.877  0.5160  0.1120 -0.5364
33593SOL    HW2 6616   2.114   2.438   9.839 -0.0859  0.3948  1.1329
33594SOL     OW 6617  10.514   0.755   4.633 -0.4142 -0.2487 -0.2416
33594SOL    HW1 6618  10.587   0.787   4.686 -0.6137 -0.6417  0.2813
33594SOL    HW2 6619  10.437   0.802   4.667 -0.7387 -1.3621  0.6483
33595SOL     OW 6620   6.578   7.642  10.435  0.1556  0.4606 -0.7607
33595SOL    HW1 6621   6.632   7.644  10.356 -2.0664 -0.5698 -2.4114
33595SOL    HW2 6622   6.556   7.549  10.447  0.3377  0.6134  1.0256
33596SOL     OW 6623   3.156   3.078   6.565  0.0973 -0.1000  0.5079
33596SOL    HW1 6624   3.120   3.162   6.535 -0.1493 -0.1712  0.6021
33596SOL    HW2 6625   3.132   3.016   6.497 -0.5018 -0.2709  0.8676
33597SOL     OW 6626   4.719   7.668   8.694 -0.3289 -0.0937 -0.3899
33597SOL    HW1 6627   4.776   7.679   8.770 -0.0338 -1.2983 -0.4287
33597SOL    HW2 6628   4.640   7.718   8.716 -1.7054 -3.1253  2.2401
33598SOL     OW 6629   7.090   6.598   3.066  0.3645 -0.9588  0.1156
33598SOL    HW1 6630   7.173   6.554   3.050  0.4205 -0.7475 -0.1825
33598SOL    HW2 6631   7.107   6.690   3.046 -0.1214 -1.0187 -0.6153
33599SOL     OW 6632   9.454   3.582   4.886 -0.4860  0.4678 -0.1021
33599SOL    HW1 6633   9.549   3.576   4.873 -0.6591 -1.6140 -0.8242
33599SOL    HW2 6634   9.420   3.500   4.850 -2.5574  1.1015  0.2869
33600SOL     OW 6635   9.241   3.452   2.427  0.0850 -0.0771  0.4160
33600SOL    HW1 6636   9.272   3.541   2.413 -1.4647  0.4555  0.1566
33600SOL    HW2 6637   9.225   3.447   2.521  1.3528 -0.5140  0.6294
33601SOL     OW 6638   2.260   3.535   5.170  0.0970 -0.0312  0.3381
33601SOL    HW1 6639   2.258   3.449   5.211  0.4327  0.0541  0.5388
33601SOL    HW2 6640   2.353   3.551   5.152 -0.1846 -0.7960 -2.0453
33602SOL     OW 6641   2.914   2.076   0.416  0.0260 -0.8363 -0.0994
33602SOL    HW1 6642   2.854   2.041   0.351  0.1288 -2.6444  0.7091
33602SOL    HW2 6643   2.860   2.085   0.495  0.0695  0.6421 -0.2205
33603SOL     OW 6644   6.796   6.925   2.556  0.4827  0.1418 -0.1839
33603SOL    HW1 6645   6.713   6.917   2.509  0.6693 -0.3914 -0.4261
33603SOL    HW2 6646   6.789   6.862   2.628  0.8403 -0.2013 -0.4485
33604SOL     OW 6647  10.548   5.911   1.741  0.8907  0.1498 -0.0299
33604SOL    HW1 6648  10.491   5.948   1.808 -1.6905 -1.9198 -0.9192
33604SOL    HW2 6649  10.525   5.959   1.661  1.8659  0.6393 -0.0322
33605SOL     OW 6650   4.251   1.270  10.061  0.6700  0.4866  0.2422
33605SOL    HW1 6651   4.260   1.279   9.966  2.1176 -2.4765 -0.0290
33605SOL    HW2 6652   4.181   1.206  10.073  0.7082  0.5983  1.1315
33606SOL     OW 6653   6.686   9.279   7.062  0.8208 -0.0154  0.1295
33606SOL    HW1 6654   6.612   9.339   7.054 -0.0596 -0.8474  1.5706
33606SOL    HW2 6655   6.651   9.194   7.038  1.3976 -0.3617  0.4785
33607SOL     OW 6656   7.257   5.231   6.468  0.2595  0.3228 -0.9915
33607SOL    HW1 6657   7.232   5.304   6.411 -2.3774 -0.1755 -0.5825
33607SOL    HW2 6658   7.189   5.166   6.455  1.2366 -1.0670  0.5006
33608SOL     OW 6659   0.373   6.884   0.207  0.0779  0.6467 -0.1964
33608SOL    HW1 6660   0.292   6.860   0.253  0.4176  0.5627  0.3655
33608SOL    HW2 6661   0.378   6.823   0.134 -0.0914  0.2946  0.0817
33609SOL     OW 6662   9.371   5.516  10.509 -0.2254  0.1758 -0.4011
33609SOL    HW1 6663   9.361   5.504  10.603  2.5309 -0.5096 -0.1079
33609SOL    HW2 6664   9.398   5.608  10.499  2.8683 -0.5942 -0.0727
33610SOL     OW 6665   4.376   6.688   7.918 -0.1100  0.1014 -0.0445
33610SOL    HW1 6666   4.438   6.725   7.856 -0.0143  0.1659  0.0884
33610SOL    HW2 6667   4.306   6.651   7.864 -0.4515  0.9060 -0.1715
33611SOL     OW 6668  10.788   3.576   9.789 -0.1574 -0.3442 -0.4765
33611SOL    HW1 6669  10.865   3.520   9.778  0.7448  1.0706 -1.7815
33611SOL    HW2 6670  10.719   3.516   9.816  1.2332 -1.7627  0.1054
33612SOL     OW 6671   7.392   4.395   9.336 -0.8197 -0.0538  0.0184
33612SOL    HW1 6672   7.326   4.371   9.271 -0.0431  1.9667 -1.5972
33612SOL    HW2 6673   7.417   4.484   9.314  1.6549 -0.3539  1.2648
33613SOL     OW 6674   4.197   4.875   5.613 -0.1167 -0.0250 -0.0099
33613SOL    HW1 6675   4.289   4.871   5.639 -0.2657  1.5720  0.9388
33613SOL    HW2 6676   4.199   4.893   5.519  0.6066  1.9062  0.3362
33614SOL     OW 6677   0.372   4.194  10.210 -0.0979  0.4452 -0.4336
33614SOL    HW1 6678   0.391   4.110  10.168  2.4262  0.9664 -0.4729
33614SOL    HW2 6679   0.440   4.253  10.178  0.4848  1.5163  2.4786
33615SOL     OW 6680   1.058   3.144   6.352 -0.0909  0.1158 -0.1905
33615SOL    HW1 6681   0.983   3.201   6.333 -0.1778 -0.0224 -0.2577
33615SOL    HW2 6682   1.051   3.127   6.446  1.4602  2.4390  0.4455
33616SOL     OW 6683   3.087   0.582   0.018  0.1011 -0.7357 -0.1344
33616SOL    HW1 6684   3.088   0.676  -0.002  2.1020 -1.1228 -2.2434
33616SOL    HW2 6685   3.049   0.541  -0.060 -1.1105 -1.7086  0.9143
33617SOL     OW 6686   1.806   1.983   9.187 -0.0926  0.0816  0.1747
33617SOL    HW1 6687   1.734   1.950   9.133 -0.0981  0.9039 -0.3454
33617SOL    HW2 6688   1.832   2.064   9.144  2.5900 -1.2352 -0.8690
33618SOL     OW 6689   1.436   5.200   3.288  0.2425 -0.2387  0.7111
33618SOL    HW1 6690   1.395   5.284   3.266 -0.0822 -0.1562  1.5775
33618SOL    HW2 6691   1.375   5.159   3.349  0.5235 -0.9969  0.4936
33619SOL     OW 6692   1.761   4.482   5.184 -0.2019  0.6555  0.1463
33619SOL    HW1 6693   1.827   4.476   5.115 -0.7576  0.8374 -0.4196
33619SOL    HW2 6694   1.724   4.570   5.172 -1.2291  0.1902 -0.1962
33620SOL     OW 6695   6.768   7.610   2.998  0.2280 -0.4311 -0.7915
33620SOL    HW1 6696   6.678   7.621   3.027  0.4710 -0.7834  0.1376
33620SOL    HW2 6697   6.821   7.621   3.077  1.1104  1.0470 -1.5300
33621SOL     OW 6698   2.270   6.770  10.261  0.0012  0.1186 -0.0130
33621SOL    HW1 6699   2.288   6.691  10.210  1.0105  0.3887 -0.0920
33621SOL    HW2 6700   2.304   6.750  10.349 -3.4181 -1.0940  1.2222
33622SOL     OW 6701   6.323   9.439   6.753  0.5110  0.0546 -0.1760
33622SOL    HW1 6702   6.250   9.389   6.789  1.1047 -0.3131  0.5517
33622SOL    HW2 6703   6.339   9.401   6.667  0.5624 -0.5996  0.1236
33623SOL     OW 6704   0.000   0.831   6.762  0.2701  0.0429 -0.7541
33623SOL    HW1 6705  -0.033   0.848   6.673  0.1579 -0.1364 -0.7476
33623SOL    HW2 6706  -0.074   0.848   6.819  1.1558  3.2457 -0.3774
33624SOL     OW 6707   1.273   3.023   0.136  0.4128  0.0042 -0.5490
33624SOL    HW1 6708   1.262   3.079   0.059 -1.5598 -1.2153 -1.2160
33624SOL    HW2 6709   1.247   2.936   0.106 -0.8326 -0.4273  1.6059
33625SOL     OW 6710   9.791   6.364   0.825  0.1416 -0.6013  0.2424
33625SOL    HW1 6711   9.749   6.347   0.909 -0.6472 -0.3073 -0.0800
33625SOL    HW2 6712   9.880   6.392   0.847  0.0797 -0.9565  0.9546
33626SOL     OW 6713   4.932   8.337   7.537  0.0703 -0.3164  0.5349
33626SOL    HW1 6714   4.913   8.321   7.629  0.3203  1.1764  0.8740
33626SOL    HW2 6715   4.964   8.253   7.504 -2.3714 -1.5932  1.1490
33627SOL     OW 6716   2.900   6.585   5.655 -0.3363  0.4402 -0.3088
33627SOL    HW1 6717   2.966   6.554   5.716 -0.1130  0.4905 -0.5263
33627SOL    HW2 6718   2.857   6.658   5.700  0.2982  0.9323 -0.4906
33628SOL     OW 6719   4.049   5.381   2.663  0.0622  0.4111  0.2866
33628SOL    HW1 6720   4.054   5.409   2.755 -2.0029  1.2186  0.2163
33628SOL    HW2 6721   4.097   5.448   2.615  2.4725 -0.8129  0.8510
33629SOL     OW 6722   6.461   9.775   5.493  0.4009  0.1572  0.6092
33629SOL    HW1 6723   6.404   9.837   5.449  0.5318 -0.9634 -1.2993
33629SOL    HW2 6724   6.417   9.755   5.575 -1.2400  0.3954 -0.1694
33630SOL     OW 6725   3.942   7.525   1.338  0.2712 -0.4739  0.1411
33630SOL    HW1 6726   3.922   7.470   1.262 -0.0592  0.2272 -0.2792
33630SOL    HW2 6727   3.949   7.462   1.410  0.9697 -1.1867 -0.5270
33631SOL     OW 6728   2.838   2.855  10.527  0.6889 -0.2707 -0.8890
33631SOL    HW1 6729   2.813   2.768  10.496  0.5537 -0.3105 -0.6731
33631SOL    HW2 6730   2.884   2.838  10.610  0.5155 -0.1267 -0.7624
33632SOL     OW 6731   4.682   8.199   7.802 -0.2220  0.1010  0.2380
33632SOL    HW1 6732   4.692   8.284   7.845  1.1427  0.8000 -1.3684
33632SOL    HW2 6733   4.758   8.149   7.830  0.7892  0.6343 -1.4605
33633SOL     OW 6734   6.676   9.963   9.829 -0.1454  0.5232 -0.1280
33633SOL    HW1 6735   6.747  10.005   9.878  0.3762 -0.6126  0.1281
33633SOL    HW2 6736   6.714   9.880   9.799 -0.9158  0.5512 -1.2211
33634SOL     OW 6737   2.236  10.164   4.649 -0.2150  0.2125  0.0375
33634SOL    HW1 6738   2.201  10.123   4.569 -1.2926 -0.3661  0.7715
33634SOL    HW2 6739   2.282  10.242   4.618 -1.2856  0.4362 -1.0919
33635SOL     OW 6740  10.016   3.312  10.757 -0.1659 -0.7233 -0.2189
33635SOL    HW1 6741  10.086   3.285  10.817 -0.0730  0.4617  0.2428
33635SOL    HW2 6742  10.060   3.367  10.692 -0.9338  2.0652  1.4403
33636SOL     OW 6743   9.945   2.897   3.576 -0.0999 -0.3099  0.4296
33636SOL    HW1 6744   9.883   2.862   3.641  0.5663 -0.5398  0.9517
33636SOL    HW2 6745   9.892   2.908   3.497 -0.6675 -1.1207  0.6757
33637SOL     OW 6746   7.139   6.721   9.826  0.1408 -0.0352  0.1024
33637SOL    HW1 6747   7.045   6.740   9.818  0.1058 -0.2132  0.0839
33637SOL    HW2 6748   7.182   6.789   9.774  0.0276  0.1184  0.2114
33638SOL     OW 6749   3.354  10.788   8.329 -0.1602  0.3760  0.2630
33638SOL    HW1 6750   3.371  10.707   8.282 -2.1377  1.2081 -2.1228
33638SOL    HW2 6751   3.334  10.852   8.260  0.1286  2.5972  2.1085
33639SOL     OW 6752   3.548   2.924   5.866  0.0442  0.0154  0.1838
33639SOL    HW1 6753   3.495   2.920   5.787 -1.2703 -0.6282  1.0708
33639SOL    HW2 6754   3.613   2.992   5.848 -0.1405 -0.2205 -1.4851
33640SOL     OW 6755   2.762  10.249   8.038  0.3497  0.3989 -0.3152
33640SOL    HW1 6756   2.728  10.188   8.102  0.6850  1.9035  1.3802
33640SOL    HW2 6757   2.780  10.196   7.960 -1.0740 -1.2837  0.4559
33641SOL     OW 6758   1.486  10.629   1.696  0.2482  0.0399  0.0478
33641SOL    HW1 6759   1.468  10.635   1.602  2.1318  2.7432 -0.2649
33641SOL    HW2 6760   1.402  10.605   1.735 -1.1311  0.9447 -2.1623
33642SOL     OW 6761   3.959  10.132   6.258  0.2298  0.2078 -0.3876
33642SOL    HW1 6762   4.007  10.197   6.309 -0.5587 -1.2060  2.3765
33642SOL    HW2 6763   4.023  10.062   6.242  0.2514  0.2869 -0.6633
33643SOL     OW 6764   1.532   3.964   0.251 -0.1455 -0.3057 -0.4667
33643SOL    HW1 6765   1.515   3.949   0.345 -1.6014  0.6996 -0.5324
33643SOL    HW2 6766   1.603   3.904   0.230 -0.3973 -1.2113  1.0781
33644SOL     OW 6767   1.089   4.226   9.658 -0.5829  0.1903 -0.1695
33644SOL    HW1 6768   1.163   4.286   9.668 -0.1765 -0.3271 -0.0007
33644SOL    HW2 6769   1.020   4.279   9.618 -0.5046  0.9784  0.7099
33645SOL     OW 6770   7.880  10.608   4.397  0.0687  0.3373 -0.2583
33645SOL    HW1 6771   7.941  10.546   4.438 -1.2819 -0.6511  0.3340
33645SOL    HW2 6772   7.926  10.692   4.398  1.0705 -0.2057  0.9500
33646SOL     OW 6773   0.120   0.378   1.924  0.1700 -0.0352  0.4042
33646SOL    HW1 6774   0.076   0.298   1.952 -0.3763  0.3838  0.7774
33646SOL    HW2 6775   0.200   0.348   1.880 -2.0071 -1.0232 -3.3099
33647SOL     OW 6776   0.680   8.589   6.768 -0.1196 -0.3181 -0.0593
33647SOL    HW1 6777   0.647   8.583   6.857 -1.2219 -0.8895 -0.4841
33647SOL    HW2 6778   0.606   8.563   6.713  0.9754 -1.4855 -1.0624
33648SOL     OW 6779   7.129   6.376   2.576  0.0854  0.2912 -0.0467
33648SOL    HW1 6780   7.154   6.467   2.592  0.0249  0.1404  0.9272
33648SOL    HW2 6781   7.035   6.381   2.557 -0.1762  0.3157  1.1699
33649SOL     OW 6782   9.629   5.365   3.041  0.1842 -0.1448 -0.6147
33649SOL    HW1 6783   9.639   5.447   3.090 -0.6320 -0.2422 -0.2642
33649SOL    HW2 6784   9.715   5.323   3.047  0.7984  0.9635 -1.3284
33650SOL     OW 6785   2.883   5.918   3.687 -0.5808  0.5082  0.3247
33650SOL    HW1 6786   2.952   5.858   3.714  1.3243  2.2745 -0.3401
33650SOL    HW2 6787   2.831   5.868   3.624 -0.1174 -0.9767  1.0795
33651SOL     OW 6788   7.090   8.630   6.212 -0.2170  0.4004  0.0557
33651SOL    HW1 6789   7.159   8.619   6.277  0.3767  0.1505 -0.6012
33651SOL    HW2 6790   7.012   8.593   6.253  0.3622 -0.6168  0.2752
33652SOL     OW 6791   8.999   0.149   4.287 -0.0643 -0.0053 -0.2361
33652SOL    HW1 6792   8.936   0.221   4.293 -1.6815 -1.1728 -1.9681
33652SOL    HW2 6793   9.083   0.189   4.307 -0.9368  2.3172 -0.8715
33653SOL     OW 6794   3.657   3.987   2.324  0.4571 -0.7843 -0.0087
33653SOL    HW1 6795   3.718   4.051   2.286 -0.8114  0.7323  0.3618
33653SOL    HW2 6796   3.580   4.040   2.347 -0.0793 -2.2199  1.6664
33654SOL     OW 6797   3.986   6.160   4.918  0.6294 -0.5914 -0.1990
33654SOL    HW1 6798   3.943   6.120   4.842 -3.2476 -2.6253  2.7074
33654SOL    HW2 6799   4.049   6.095   4.947  1.6140 -0.1097 -1.1976
33655SOL     OW 6800   5.465   8.480   4.378 -0.8552  0.0736  0.4900
33655SOL    HW1 6801   5.452   8.442   4.464  0.2307 -0.5043  0.4146
33655SOL    HW2 6802   5.404   8.433   4.321 -0.9806 -0.1172  0.7851
33656SOL     OW 6803   9.049   6.277   9.872  0.0192  0.2137 -0.0375
33656SOL    HW1 6804   9.110   6.215   9.831 -0.1091  0.7275 -1.0300
33656SOL    HW2 6805   9.100   6.316   9.943  0.1393 -0.9341  0.5338
33657SOL     OW 6806   6.660   9.269   6.510  0.0829  0.1348  0.2283
33657SOL    HW1 6807   6.669   9.305   6.598  1.1642 -0.4832  0.3866
33657SOL    HW2 6808   6.723   9.198   6.506 -0.3018 -0.1710 -0.8881
33658SOL     OW 6809   2.036   0.611   7.866  0.3045  0.5114 -0.0698
33658SOL    HW1 6810   1.978   0.536   7.855 -0.3364  0.8271  0.9898
33658SOL    HW2 6811   2.118   0.585   7.823  0.4979 -1.2703  1.2799
33659SOL     OW 6812   6.164   8.130   8.283  0.2227 -0.4434 -0.5443
33659SOL    HW1 6813   6.235   8.066   8.286  1.4774  0.9345 -0.0444
33659SOL    HW2 6814   6.206   8.214   8.300 -1.5544  0.3869 -0.0018
33660SOL     OW 6815   7.185   5.432   3.865 -0.2877 -0.0902  0.3338
33660SOL    HW1 6816   7.201   5.486   3.787 -2.0398  1.7886  1.2047
33660SOL    HW2 6817   7.266   5.439   3.916  0.1927  0.1642 -0.4419
33661SOL     OW 6818   2.930   1.178   1.522  0.0337 -0.5536  0.2956
33661SOL    HW1 6819   2.989   1.187   1.597  1.2009 -0.8675 -0.5630
33661SOL    HW2 6820   2.895   1.089   1.529  1.6621 -1.3023 -0.5789
33662SOL     OW 6821   5.332   3.959   9.810  0.1076 -0.5469 -0.3847
33662SOL    HW1 6822   5.355   4.020   9.741  0.7680 -0.9412 -0.5287
33662SOL    HW2 6823   5.371   3.996   9.889 -3.2104  1.5151  0.4455
33663SOL     OW 6824   3.443   3.537   9.102  0.3812 -0.1443 -0.2817
33663SOL    HW1 6825   3.460   3.567   9.012  0.1552 -1.0212 -0.6340
33663SOL    HW2 6826   3.427   3.443   9.092  0.4746 -0.2676  0.7011
33664SOL     OW 6827   5.490   6.650  10.774  0.1365 -0.5037 -0.1338
33664SOL    HW1 6828   5.489   6.745  10.787 -1.2582 -0.4459 -0.5653
33664SOL    HW2 6829   5.572   6.634  10.726 -0.1601  0.6407 -1.0842
33665SOL     OW 6830  10.917   5.972   8.258 -0.0751 -0.3615  0.5909
33665SOL    HW1 6831  10.924   6.008   8.346 -1.4928 -1.0386  1.0046
33665SOL    HW2 6832  10.913   6.048   8.200 -1.4369  0.1498  1.3178
33666SOL     OW 6833   7.587   8.239   3.967  0.3206 -0.3011 -0.0880
33666SOL    HW1 6834   7.606   8.262   4.058  2.2420  0.7362 -0.6837
33666SOL    HW2 6835   7.603   8.320   3.919  1.4926 -1.3730 -1.5926
33667SOL     OW 6836   3.687   2.912   0.824  0.4110 -0.2130  0.5456
33667SOL    HW1 6837   3.673   2.958   0.906 -0.3907 -2.4181  1.7233
33667SOL    HW2 6838   3.743   2.837   0.847  1.1038 -0.2702 -1.1426
33668SOL     OW 6839   4.854   3.307   8.286  0.5474 -0.1864  0.1997
33668SOL    HW1 6840   4.893   3.385   8.327 -0.2167 -0.0496  0.6737
33668SOL    HW2 6841   4.923   3.241   8.291  1.3367  0.5514 -0.5329
33669SOL     OW 6842   3.536   3.427   3.867  0.0595 -0.5703  0.3211
33669SOL    HW1 6843   3.564   3.479   3.792  1.9563 -0.9023  0.7624
33669SOL    HW2 6844   3.596   3.452   3.937 -1.3885 -0.6120  1.6168
33670SOL     OW 6845   1.135   9.713   9.884 -0.0076  0.1370  0.1232
33670SOL    HW1 6846   1.065   9.776   9.867 -0.3487 -0.5575 -1.1213
33670SOL    HW2 6847   1.182   9.706   9.801 -1.8079 -3.4686 -0.8037
33671SOL     OW 6848   9.096   4.653   8.636  0.0599  0.2638  0.6854
33671SOL    HW1 6849   9.048   4.712   8.579 -0.1587 -0.3426  0.2295
33671SOL    HW2 6850   9.185   4.689   8.640  0.4883 -0.4581 -1.2239
33672SOL     OW 6851   8.159   1.608   5.193  0.3534  0.4835  0.3458
33672SOL    HW1 6852   8.216   1.613   5.269 -1.0578 -0.9707  1.5921
33672SOL    HW2 6853   8.087   1.551   5.221  0.1606 -0.7719 -2.3334
33673SOL     OW 6854   5.148   7.858   8.836 -0.0351 -0.2586  0.0759
33673SOL    HW1 6855   5.053   7.866   8.831 -0.2778 -2.2342  0.7476
33673SOL    HW2 6856   5.174   7.825   8.750  0.0701  0.3108 -0.1182
33674SOL     OW 6857   4.890  10.318   4.517  0.0220  0.0519  0.0275
33674SOL    HW1 6858   4.935  10.252   4.466 -0.2080 -0.5915  0.6329
33674SOL    HW2 6859   4.959  10.369   4.559  0.1945 -0.1614 -0.0007
33675SOL     OW 6860   2.255   9.303   0.828  0.1002 -0.7835 -0.4814
33675SOL    HW1 6861   2.333   9.356   0.811  0.7012 -0.4322  2.8267
33675SOL    HW2 6862   2.288   9.218   0.855 -0.6865 -0.9518 -0.0150
33676SOL     OW 6863   6.192   1.562   9.137 -0.3512 -0.1751  0.1185
33676SOL    HW1 6864   6.211   1.651   9.105 -0.7771  0.2759  1.0600
33676SOL    HW2 6865   6.277   1.527   9.161 -0.2181  0.1496  0.1357
33677SOL     OW 6866   6.778   4.086   9.108  0.4135 -0.6498 -0.3547
33677SOL    HW1 6867   6.751   4.100   9.017 -0.9875 -2.7694 -0.3459
33677SOL    HW2 6868   6.867   4.051   9.102 -0.6712 -3.6063 -1.2350
33678SOL     OW 6869   7.376  10.276   0.007 -0.0056 -0.8769 -0.5493
33678SOL    HW1 6870   7.433  10.216  -0.041 -0.9658 -0.8493 -1.7856
33678SOL    HW2 6871   7.288  10.252  -0.021 -0.7222 -1.6285  2.1263
33679SOL     OW 6872   7.973   9.867   1.569  0.5694  0.4771 -0.3296
33679SOL    HW1 6873   7.927   9.783   1.558  0.5225  0.6543 -1.6208
33679SOL    HW2 6874   7.961   9.912   1.485  2.7403  0.7200 -0.5616
33680SOL     OW 6875   1.596   6.867  10.500  0.3046 -0.2892 -0.3013
33680SOL    HW1 6876   1.542   6.835  10.573  1.8159  0.1483  1.0693
33680SOL    HW2 6877   1.539   6.929  10.454  0.3849  2.2417  2.6767
33681SOL     OW 6878   3.307   5.706  10.751  0.2350 -0.5221 -0.2132
33681SOL    HW1 6879   3.296   5.626  10.802  0.3251 -0.4352 -0.0568
33681SOL    HW2 6880   3.338   5.676  10.665  0.4222 -0.6408 -0.1041
33682SOL     OW 6881   3.449   1.656   7.540 -0.2337  0.4013  0.3444
33682SOL    HW1 6882   3.370   1.611   7.571 -0.4189  0.4790 -0.0205
33682SOL    HW2 6883   3.509   1.585   7.515 -0.1433  0.3402  0.7235
33683SOL     OW 6884   4.560   9.633   0.219 -0.5655  0.9367 -0.4755
33683SOL    HW1 6885   4.585   9.546   0.250 -1.1142  0.9441  0.0051
33683SOL    HW2 6886   4.638   9.686   0.233  0.4408  0.1192 -2.5412
33684SOL     OW 6887   6.136   4.764   0.738  0.1526 -0.2521  0.1006
33684SOL    HW1 6888   6.049   4.791   0.766  0.2268  0.1885 -0.0919
33684SOL    HW2 6889   6.150   4.808   0.654 -0.7051 -2.7806 -1.4990
33685SOL     OW 6890   4.351   5.421   7.598  0.7034  0.1943  0.2280
33685SOL    HW1 6891   4.436   5.381   7.578  1.5714  0.9496  2.1638
33685SOL    HW2 6892   4.320   5.373   7.675 -0.5216  0.1183 -0.2946
33686SOL     OW 6893   5.048   0.248   8.327 -0.6235  0.0737  0.0641
33686SOL    HW1 6894   5.116   0.287   8.382 -0.9271 -0.3897  0.7752
33686SOL    HW2 6895   5.093   0.176   8.282 -0.3905  0.4165 -0.2625
33687SOL     OW 6896   9.823   2.551   7.642 -0.2314  0.1152 -0.3436
33687SOL    HW1 6897   9.902   2.498   7.630  1.3676  2.2358  0.1655
33687SOL    HW2 6898   9.805   2.545   7.735  0.5176  1.1688 -0.1170
33688SOL     OW 6899   9.279   5.273   1.266 -0.4152 -0.0258 -0.5028
33688SOL    HW1 6900   9.224   5.351   1.258 -0.2704  0.1480  0.1498
33688SOL    HW2 6901   9.269   5.228   1.182 -0.1817  0.8930 -1.0313
33689SOL     OW 6902   2.670   9.994   6.241  0.0670 -0.2717  0.2300
33689SOL    HW1 6903   2.661   9.949   6.325  0.0569  1.7471  1.3718
33689SOL    HW2 6904   2.725  10.070   6.260 -1.8204  1.5105 -1.0289
33690SOL     OW 6905   5.975   5.342   4.155 -0.4680  0.0007  0.1785
33690SOL    HW1 6906   5.967   5.354   4.061 -3.3039  1.9465  0.5498
33690SOL    HW2 6907   6.068   5.325   4.169  0.0025 -0.5778 -2.9483
33691SOL     OW 6908   5.494   7.274   2.800  0.1650 -0.1134  0.2651
33691SOL    HW1 6909   5.468   7.184   2.819 -1.2650  0.3481  0.5667
33691SOL    HW2 6910   5.416   7.314   2.761  0.6506  1.1218  0.5231
33692SOL     OW 6911   4.528   0.280   8.762  0.1124 -0.2086 -0.3049
33692SOL    HW1 6912   4.455   0.238   8.716  0.9104 -1.2298 -0.6853
33692SOL    HW2 6913   4.551   0.355   8.706  0.5680 -0.9885 -1.1969
33693SOL     OW 6914   2.732   9.970  10.318 -0.1265  0.0155 -0.0156
33693SOL    HW1 6915   2.736  10.063  10.294  0.7830 -0.3236 -1.3424
33693SOL    HW2 6916   2.706   9.926  10.237  0.4351 -0.9668  0.3192
33694SOL     OW 6917  10.050   3.598   3.860 -0.6875  0.0687  0.1163
33694SOL    HW1 6918  10.119   3.543   3.898 -1.8346 -0.7105  1.1841
33694SOL    HW2 6919  10.095   3.678   3.833  0.7561 -0.7315  0.0329
33695SOL     OW 6920   9.770   5.732   8.949  0.5349 -0.6408 -0.7236
33695SOL    HW1 6921   9.782   5.782   9.029 -0.2059  0.0357 -1.0188
33695SOL    HW2 6922   9.677   5.708   8.949  0.2708  0.2586 -1.8688
33696SOL     OW 6923   0.808   7.468   6.706  0.0610  0.2496  0.6199
33696SOL    HW1 6924   0.732   7.455   6.649 -0.0579  1.2679  0.5269
33696SOL    HW2 6925   0.855   7.542   6.666  0.0293  0.9248  1.7833
33697SOL     OW 6926   7.434   9.368   9.373  0.1648  0.3361  0.5138
33697SOL    HW1 6927   7.511   9.413   9.408  1.3127  2.5676 -4.1084
33697SOL    HW2 6928   7.366   9.436   9.371 -0.4230 -0.2554  0.2015
33698SOL     OW 6929   0.863   3.890   6.191 -0.1434 -0.2296 -0.3119
33698SOL    HW1 6930   0.867   3.833   6.268 -1.0716  1.2016  0.8606
33698SOL    HW2 6931   0.893   3.835   6.119  0.0073 -1.8626  0.9280
33699SOL     OW 6932   2.568   9.216   8.196 -0.4989  0.2779  0.0500
33699SOL    HW1 6933   2.508   9.175   8.258  0.5012  0.5599  1.2704
33699SOL    HW2 6934   2.633   9.260   8.252 -0.7087  2.3067 -1.1818
33700SOL     OW 6935   3.033   2.775   9.766 -0.1174  0.5413  0.0807
33700SOL    HW1 6936   3.050   2.737   9.680 -0.1693  0.3964  0.1351
33700SOL    HW2 6937   2.963   2.722   9.803  0.6944 -0.1342  0.6865
33701SOL     OW 6938  10.593   9.280  10.839  0.1482 -0.1366 -0.1103
33701SOL    HW1 6939  10.576   9.347  10.773  0.7127  0.3169  0.1882
33701SOL    HW2 6940  10.584   9.197  10.793 -1.7974  0.0911 -0.1978
33702SOL     OW 6941   4.592   3.318   4.927  0.3585 -0.3685  0.1216
33702SOL    HW1 6942   4.588   3.398   4.979 -0.8067  1.0419 -1.9617
33702SOL    HW2 6943   4.584   3.247   4.990 -1.7892  1.2416  1.8020
33703SOL     OW 6944   8.660  10.703  10.678 -0.0797  0.2537  0.3710
33703SOL    HW1 6945   8.601  10.638  10.716  0.6145  0.7745  2.4887
33703SOL    HW2 6946   8.620  10.787  10.700  0.6096  0.5876  0.3568
33704SOL     OW 6947   9.433   0.800   2.290  0.4033 -0.2411 -0.3086
33704SOL    HW1 6948   9.369   0.817   2.221 -1.0358 -1.4252  0.6687
33704SOL    HW2 6949   9.397   0.842   2.368  1.0650 -0.5150  0.1590
33705SOL     OW 6950   1.197  10.801   3.965 -0.0289  0.0980 -0.8010
33705SOL    HW1 6951   1.202  10.778   4.058  0.0019  0.7728 -0.6320
33705SOL    HW2 6952   1.172  10.719   3.922 -0.1113 -0.2057 -0.1921
33706SOL     OW 6953   7.880   4.092   1.930 -0.1391 -0.4480 -0.1140
33706SOL    HW1 6954   7.965   4.060   1.901 -0.1630 -1.1690  0.5895
33706SOL    HW2 6955   7.836   4.015   1.966 -1.2786 -0.1801 -0.8919
33707SOL     OW 6956   5.396   5.866   9.783  0.4215  0.0001 -0.2707
33707SOL    HW1 6957   5.387   5.955   9.817 -0.1968  0.2562 -1.0908
33707SOL    HW2 6958   5.370   5.810   9.857  0.0570  0.5136 -0.0048
33708SOL     OW 6959   3.733   5.439   0.012 -0.0642 -0.1638  0.6774
33708SOL    HW1 6960   3.667   5.391  -0.037 -0.5226  1.1933 -0.0712
33708SOL    HW2 6961   3.722   5.409   0.103 -1.8150  0.1651  0.5899
33709SOL     OW 6962   8.735   0.765  10.176  0.4850 -0.4382 -0.6182
33709SOL    HW1 6963   8.642   0.787  10.169  0.7822  0.8749 -0.7731
33709SOL    HW2 6964   8.760   0.789  10.265  0.4463 -1.7762 -0.2352
33710SOL     OW 6965   0.249   8.231   1.073 -0.0397  0.0118  0.0223
33710SOL    HW1 6966   0.276   8.322   1.060 -1.5447  0.5394  0.3667
33710SOL    HW2 6967   0.155   8.237   1.091 -0.2048 -1.6395 -0.2035
33711SOL     OW 6968   6.465  10.352   2.091  0.3235  0.0642  0.4474
33711SOL    HW1 6969   6.492  10.438   2.123  1.0170  0.0552 -0.0907
33711SOL    HW2 6970   6.546  10.310   2.062 -0.3044  0.2559 -1.7584
33712SOL     OW 6971   0.203   7.200   5.812 -0.2785  0.5327  0.2401
33712SOL    HW1 6972   0.148   7.276   5.829  0.3116  1.1205 -0.4139
33712SOL    HW2 6973   0.234   7.172   5.898 -0.3271  1.1637  0.4635
33713SOL     OW 6974   1.784   6.005   2.205  0.5757  0.6920 -0.3171
33713SOL    HW1 6975   1.782   6.097   2.229  3.4795  1.4421 -2.3815
33713SOL    HW2 6976   1.735   6.001   2.123 -2.2484 -0.3041  1.2937
33714SOL     OW 6977   2.590   3.778   9.068  0.5653  0.5743  0.0357
33714SOL    HW1 6978   2.601   3.827   9.149 -1.0181  1.3648 -0.2004
33714SOL    HW2 6979   2.595   3.686   9.095 -1.1169  0.7980  1.2454
33715SOL     OW 6980   4.992   1.632   8.122  0.2863  0.4601  0.3439
33715SOL    HW1 6981   5.026   1.551   8.159  0.9522  0.4444 -0.2678
33715SOL    HW2 6982   5.069   1.675   8.085 -0.0555  1.3726  0.6598
33716SOL     OW 6983   0.739   4.558   1.797  0.8256  0.0757 -0.1049
33716SOL    HW1 6984   0.725   4.639   1.847 -0.5535 -0.8806  1.1335
33716SOL    HW2 6985   0.727   4.488   1.860 -2.1812 -1.2491 -1.9299
33717SOL     OW 6986   9.611   5.669   4.868 -0.0615  0.0668 -1.1183
33717SOL    HW1 6987   9.530   5.650   4.821 -0.6587 -0.5545  0.1328
33717SOL    HW2 6988   9.670   5.597   4.844 -0.6052 -0.6345 -0.3748
33718SOL     OW 6989  10.377   5.539   5.950 -0.1439  0.2642 -0.5431
33718SOL    HW1 6990  10.382   5.546   5.855  0.5115  1.7786 -0.4197
33718SOL    HW2 6991  10.468   5.545   5.979 -0.3262 -0.3549  0.1739
33719SOL     OW 6992   1.267   3.416   4.395  0.4993 -0.5035  0.2335
33719SOL    HW1 6993   1.346   3.379   4.435 -0.4277 -1.0182  1.6857
33719SOL    HW2 6994   1.206   3.425   4.468  0.2663  2.9087 -0.2422
33720SOL     OW 6995  10.432   9.819  10.400  0.4121  0.0458  0.2863
33720SOL    HW1 6996  10.395   9.811  10.488  1.6466 -0.3111  0.7989
33720SOL    HW2 6997  10.372   9.770  10.344 -0.1643 -0.0749  0.9907
33721SOL     OW 6998   0.220   9.317   0.816 -0.2160 -0.8247 -0.6071
33721SOL    HW1 6999   0.136   9.272   0.831 -1.4531  1.7935  1.0861
33721SOL    HW2 7000   0.205   9.372   0.739 -0.9486  1.3736  1.0011
33722SOL     OW 7001   1.947   2.207   4.584  0.4097 -0.1593  0.3911
33722SOL    HW1 7002   2.000   2.275   4.541  0.3477 -0.3939 -0.0622
33722SOL    HW2 7003   1.888   2.256   4.641  0.2647  0.1812 -0.0436
33723SOL     OW 7004  10.224   1.196   8.381  0.2973  0.5779  0.2999
33723SOL    HW1 7005  10.153   1.181   8.318 -0.1737  0.1334  0.9222
33723SOL    HW2 7006  10.186   1.254   8.447 -0.2715 -1.4475  1.8729
33724SOL     OW 7007   2.020   2.260   9.910 -0.0182  0.0758 -0.4596
33724SOL    HW1 7008   2.074   2.261   9.989 -0.2269 -0.5538 -0.2995
33724SOL    HW2 7009   1.936   2.297   9.938  0.1325  0.4950 -0.5597
33725SOL     OW 7010   9.585   1.827   1.432  0.0391 -0.4175 -0.3831
33725SOL    HW1 7011   9.532   1.907   1.432  0.8194  0.1772  1.8155
33725SOL    HW2 7012   9.521   1.756   1.435 -0.6556  0.1718 -0.9164
33726SOL     OW 7013   0.384   3.312   0.200 -0.1557  0.1110  0.5361
33726SOL    HW1 7014   0.366   3.406   0.207 -0.9894 -0.1398  2.2827
33726SOL    HW2 7015   0.458   3.298   0.259  0.0015 -0.3297  0.2367
33727SOL     OW 7016   2.970   8.203   5.876  0.1839 -0.0418 -0.1164
33727SOL    HW1 7017   3.019   8.148   5.814 -1.8250 -0.9991 -0.9159
33727SOL    HW2 7018   2.987   8.292   5.847 -0.1773 -0.4460 -1.6397
33728SOL     OW 7019  10.285   5.894   2.970  0.0465 -0.7435 -0.3491
33728SOL    HW1 7020  10.218   5.873   2.905 -0.6379  1.9055 -0.6255
33728SOL    HW2 7021  10.356   5.833   2.952 -1.9193 -3.1706 -0.5473
33729SOL     OW 7022   0.355   7.555   3.685  0.0295 -0.8283  0.0884
33729SOL    HW1 7023   0.317   7.642   3.690 -1.1140 -1.2436 -0.9887
33729SOL    HW2 7024   0.319   7.508   3.760 -2.5157 -1.5350 -1.4751
33730SOL     OW 7025   6.467   5.556   6.916  0.0916  0.0246  0.4344
33730SOL    HW1 7026   6.538   5.492   6.916  1.4347  1.4513  1.1957
33730SOL    HW2 7027   6.495   5.623   6.853  0.0390  1.2351  1.6572
33731SOL     OW 7028   8.084   0.216   8.316  0.2728 -0.1125  0.0346
33731SOL    HW1 7029   8.042   0.183   8.395 -2.0404  0.8913 -0.7039
33731SOL    HW2 7030   8.108   0.306   8.337 -0.3089  0.1442 -0.3683
33732SOL     OW 7031   9.603  10.795   7.856  0.6163 -0.0653  0.3624
33732SOL    HW1 7032   9.588  10.778   7.949  0.3074  0.1981  0.3611
33732SOL    HW2 7033   9.698  10.807   7.849  0.7519 -0.9690  0.4987
33733SOL     OW 7034   3.721   0.998   5.813  0.6770  0.2461  0.2927
33733SOL    HW1 7035   3.665   0.929   5.848 -2.1555  1.2473 -1.8711
33733SOL    HW2 7036   3.805   0.954   5.796  0.1413 -1.7241  2.2073
33734SOL     OW 7037   6.758   8.408   7.424 -0.8517  0.0722  0.2309
33734SOL    HW1 7038   6.716   8.487   7.390 -3.0664 -1.7259 -1.5470
33734SOL    HW2 7039   6.714   8.392   7.507  1.3099  1.9024  1.8751
33735SOL     OW 7040  10.492   8.790   6.552 -0.2452  0.2939  0.3029
33735SOL    HW1 7041  10.489   8.751   6.464  1.4931  0.0004  0.3414
33735SOL    HW2 7042  10.468   8.718   6.610  1.4735 -0.3624  0.2563
33736SOL     OW 7043   9.600   0.360  10.804  0.3318 -0.2760  0.2937
33736SOL    HW1 7044   9.637   0.403  10.881  0.2350 -2.9252  1.9347
33736SOL    HW2 7045   9.676   0.325  10.758  0.2486 -0.7122  0.4844
33737SOL     OW 7046   3.937   1.344   2.875  0.3023  0.0436 -0.3516
33737SOL    HW1 7047   3.931   1.362   2.969 -1.0400  1.7260 -0.7139
33737SOL    HW2 7048   3.858   1.294   2.855  0.0336  0.6166 -0.7572
33738SOL     OW 7049   4.471   0.775   8.285  0.1447 -0.0506  0.1835
33738SOL    HW1 7050   4.494   0.683   8.299 -0.3100  0.0683  1.9468
33738SOL    HW2 7051   4.405   0.794   8.352 -1.3311  1.0126 -1.4679
33739SOL     OW 7052   5.226   4.392   9.156 -0.0884  0.2662 -0.3658
33739SOL    HW1 7053   5.155   4.344   9.113  0.0047  0.2505 -0.5039
33739SOL    HW2 7054   5.219   4.368   9.248 -0.0497 -0.0103 -0.4327
33740SOL     OW 7055   8.391   5.583   8.383  0.1295  0.1713  0.1565
33740SOL    HW1 7056   8.483   5.556   8.386  0.4130  1.1003  0.2637
33740SOL    HW2 7057   8.342   5.501   8.385  0.9777 -0.4112 -1.3116
33741SOL     OW 7058   5.457   1.724   9.855 -0.5788 -0.2815  0.4730
33741SOL    HW1 7059   5.516   1.656   9.821  0.2394  0.3980  0.4855
33741SOL    HW2 7060   5.450   1.705   9.949  0.5197  0.2619  0.6822
33742SOL     OW 7061   2.075   5.062  10.896 -0.2618  0.0437 -0.1700
33742SOL    HW1 7062   2.030   5.075  10.812 -0.3140  1.5537  0.0551
33742SOL    HW2 7063   2.017   5.007  10.947 -0.7611  0.0426 -0.7293
33743SOL     OW 7064   3.881   1.291   9.663 -0.3864  0.0885  0.0922
33743SOL    HW1 7065   3.863   1.282   9.569  1.5104 -0.5432 -0.2477
33743SOL    HW2 7066   3.936   1.217   9.684 -3.0631 -1.4375  2.4042
33744SOL     OW 7067   1.848   9.459   5.216  0.0676 -0.4085  0.0553
33744SOL    HW1 7068   1.760   9.455   5.255  0.0935 -0.2308  0.1302
33744SOL    HW2 7069   1.832   9.457   5.121  0.0521 -2.0223  0.0555
33745SOL     OW 7070   7.702   5.458   8.492 -0.8510 -0.4616 -0.4304
33745SOL    HW1 7071   7.703   5.413   8.577 -0.7809  0.3249 -0.0119
33745SOL    HW2 7072   7.682   5.549   8.513 -0.4502 -0.1841 -1.2244
33746SOL     OW 7073   0.908   9.200   9.919  0.0944  0.2189 -0.4442
33746SOL    HW1 7074   0.864   9.264   9.864 -0.3363 -1.1372 -1.7265
33746SOL    HW2 7075   0.974   9.252   9.966 -1.8465  2.0350  0.4735
33747SOL     OW 7076   8.000   1.626   0.110 -0.4101 -0.0219  0.2987
33747SOL    HW1 7077   7.908   1.635   0.133 -1.3315 -0.7458 -2.6623
33747SOL    HW2 7078   8.009   1.535   0.080  1.3223 -0.0051  0.6528
33748SOL     OW 7079   3.846   0.951   6.942  0.1367 -0.7475 -0.4609
33748SOL    HW1 7080   3.886   0.942   7.029 -0.7144 -0.1774  0.0067
33748SOL    HW2 7081   3.872   1.037   6.912 -0.2436 -0.6096 -0.4049
33749SOL     OW 7082   8.298   7.111   8.151 -0.6373 -0.1739  0.2147
33749SOL    HW1 7083   8.211   7.093   8.116 -0.8954 -0.8837  1.1903
33749SOL    HW2 7084   8.328   7.027   8.187 -0.3338  0.4819  1.5634
33750SOL     OW 7085   5.474   2.230   3.203  0.0667 -0.1769 -0.5225
33750SOL    HW1 7086   5.439   2.144   3.226  3.7998 -1.0632  3.0506
33750SOL    HW2 7087   5.419   2.292   3.251 -2.0178 -0.5016 -2.3204
33751SOL     OW 7088   7.102   2.630   9.412 -0.0724 -0.7299 -0.3545
33751SOL    HW1 7089   7.171   2.563   9.414  0.4011 -0.2517 -0.4810
33751SOL    HW2 7090   7.148   2.711   9.391 -0.7505 -0.4865 -0.9330
33752SOL     OW 7091   0.845   6.767   8.205 -0.4546 -0.2889  0.4893
33752SOL    HW1 7092   0.829   6.805   8.118  0.2146 -1.4002 -0.1451
33752SOL    HW2 7093   0.823   6.674   8.194 -0.2843 -0.4509  1.4879
33753SOL     OW 7094   6.631   1.147   5.808 -0.2202 -0.0278  0.8875
33753SOL    HW1 7095   6.584   1.224   5.778 -2.0063 -1.6464 -0.7221
33753SOL    HW2 7096   6.703   1.182   5.861 -1.0081  2.6945  0.3071
33754SOL     OW 7097   2.769   4.061   2.511 -0.1288 -0.1754  0.1525
33754SOL    HW1 7098   2.822   4.114   2.451 -0.9647 -0.2390 -0.6649
33754SOL    HW2 7099   2.708   4.123   2.551 -1.1895 -0.5153 -0.8948
33755SOL     OW 7100   1.637   9.409   3.637 -0.6890 -0.1197  0.6860
33755SOL    HW1 7101   1.707   9.406   3.571 -1.6740  0.2097 -0.4070
33755SOL    HW2 7102   1.681   9.387   3.719  1.1731  2.3149  0.4571
33756SOL     OW 7103   9.500   8.577   3.279  0.1662  0.0097  0.2399
33756SOL    HW1 7104   9.409   8.605   3.271  0.3236  1.8157  3.1561
33756SOL    HW2 7105   9.507   8.541   3.368  2.4634  0.9229  0.5174
33757SOL     OW 7106   6.505   7.116   0.478  0.3217 -0.3800 -0.2964
33757SOL    HW1 7107   6.540   7.105   0.567  1.5447  0.3997 -0.6527
33757SOL    HW2 7108   6.502   7.028   0.442  2.1954 -0.4640 -0.3221
33758SOL     OW 7109   5.386  10.820   6.014  0.1526 -0.1212 -0.0394
33758SOL    HW1 7110   5.291  10.806   6.020  0.1402 -0.1861 -0.3508
33758SOL    HW2 7111   5.424  10.732   6.015  0.0886 -0.2050 -1.7406
33759SOL     OW 7112   0.045   1.281   0.936 -0.1104 -0.4600 -0.4567
33759SOL    HW1 7113   0.028   1.189   0.918 -1.2162 -0.3225 -0.2185
33759SOL    HW2 7114   0.126   1.282   0.987  0.6071 -1.1840 -1.5484
33760SOL     OW 7115   2.045   0.614   5.814  0.1759 -0.3731 -0.2383
33760SOL    HW1 7116   2.138   0.632   5.831  0.3222 -1.1189 -0.2321
33760SOL    HW2 7117   2.000   0.692   5.845  0.8273  0.1288 -0.5230
33761SOL     OW 7118   0.305   5.290   4.317  0.3405 -0.0242 -0.1367
33761SOL    HW1 7119   0.372   5.355   4.292  0.2626 -0.0386 -0.3882
33761SOL    HW2 7120   0.223   5.329   4.286  0.2052  0.0925  0.3620
33762SOL     OW 7121   2.266   6.952   9.585  0.3606  0.0820  0.2581
33762SOL    HW1 7122   2.314   6.940   9.503  0.9816  1.5648  0.3797
33762SOL    HW2 7123   2.333   6.941   9.653  0.2224  0.6392  0.4887
33763SOL     OW 7124   2.977  10.479   8.127 -0.2207 -0.2849  0.0087
33763SOL    HW1 7125   2.986  10.395   8.172  0.6984  0.1745  0.7111
33763SOL    HW2 7126   3.011  10.462   8.039  0.1080 -0.6211  0.1955
33764SOL     OW 7127   9.109   4.697   9.714 -0.0496 -0.4035 -0.0888
33764SOL    HW1 7128   9.166   4.628   9.749  1.2206 -0.4906 -2.1780
33764SOL    HW2 7129   9.107   4.763   9.784  1.8142 -0.8592  0.4723
33765SOL     OW 7130   7.432   3.499   0.174 -0.1636 -0.7017 -0.0849
33765SOL    HW1 7131   7.337   3.515   0.167 -0.3592 -1.8334 -0.2395
33765SOL    HW2 7132   7.460   3.554   0.247 -1.1931 -1.3495  0.8399
33766SOL     OW 7133   3.681   9.205   9.186  0.2776  0.2709  0.2696
33766SOL    HW1 7134   3.750   9.262   9.219 -0.1596  1.4983 -0.8367
33766SOL    HW2 7135   3.696   9.121   9.229  2.4503  0.5011  0.0493
33767SOL     OW 7136   1.217   3.417   0.331  1.2929  0.5771  0.5205
33767SOL    HW1 7137   1.271   3.439   0.256 -0.2583 -1.1727 -1.2080
33767SOL    HW2 7138   1.218   3.322   0.335 -1.8039  0.4379  0.2292
33768SOL     OW 7139   0.519   4.343   3.352  0.3824  1.0561 -0.3224
33768SOL    HW1 7140   0.537   4.358   3.445  1.7910  0.5792 -0.5014
33768SOL    HW2 7141   0.582   4.277   3.325 -2.5726 -1.8542 -0.7092
33769SOL     OW 7142   9.788   7.718   5.966 -0.0429 -0.0858  0.2457
33769SOL    HW1 7143   9.833   7.717   6.051  0.1486  0.1911  0.1486
33769SOL    HW2 7144   9.741   7.635   5.963  0.4539 -0.3756  0.3546
33770SOL     OW 7145   3.277   1.723   9.657 -0.6854  0.3170 -0.3446
33770SOL    HW1 7146   3.291   1.679   9.740 -0.9577  0.4487 -0.2282
33770SOL    HW2 7147   3.187   1.756   9.661 -1.2323 -0.9845 -1.2929
33771SOL     OW 7148   1.827   7.382   9.171 -0.4308  0.0037  0.3803
33771SOL    HW1 7149   1.847   7.454   9.113 -2.5460  1.0074  0.8067
33771SOL    HW2 7150   1.887   7.312   9.145 -1.1566  0.4502 -2.8690
33772SOL     OW 7151   9.037   0.112   4.812  0.6910 -0.1403  0.1681
33772SOL    HW1 7152   9.026   0.198   4.852  2.0142  0.3417 -0.4607
33772SOL    HW2 7153   8.969   0.108   4.744 -1.0290 -0.6385  1.8435
33773SOL     OW 7154   0.240  10.630   8.812  0.3039  0.0617 -0.6644
33773SOL    HW1 7155   0.257  10.645   8.905 -0.1208 -2.3940 -0.1205
33773SOL    HW2 7156   0.146  10.613   8.807  0.2725  0.4565 -1.6135
33774SOL     OW 7157   1.858   6.909   0.260 -0.0916 -0.3259  0.5506
33774SOL    HW1 7158   1.857   6.894   0.166 -0.2595 -2.3246  0.8279
33774SOL    HW2 7159   1.817   6.832   0.297 -1.1985  0.9901  2.2271
33775SOL     OW 7160   3.310   4.416   5.771  0.2775  0.1137 -0.1341
33775SOL    HW1 7161   3.301   4.413   5.866 -1.4649 -1.2263 -0.2785
33775SOL    HW2 7162   3.278   4.502   5.746  0.9228  0.5466  0.4815
33776SOL     OW 7163   1.017   1.914  10.644 -0.3341 -0.0315 -0.2447
33776SOL    HW1 7164   0.965   1.971  10.700 -1.2462  0.7758 -1.8447
33776SOL    HW2 7165   1.022   1.831  10.692  0.2691  1.0878  1.7187
33777SOL     OW 7166   5.281   1.165   5.691 -0.3993  0.3585 -0.4378
33777SOL    HW1 7167   5.316   1.102   5.753  1.2638 -0.4516 -2.0778
33777SOL    HW2 7168   5.316   1.250   5.721 -0.2344  0.0909  0.1414
33778SOL     OW 7169   8.841   0.903   6.108 -0.2082  0.3174 -0.4956
33778SOL    HW1 7170   8.919   0.938   6.152 -0.6344  0.1725  0.3971
33778SOL    HW2 7171   8.815   0.828   6.161 -1.6776  1.0960 -0.0589
33779SOL     OW 7172   5.942   6.068   8.168  0.3038  0.1507  0.9397
33779SOL    HW1 7173   5.877   6.130   8.201 -1.4586 -0.3390 -1.3218
33779SOL    HW2 7174   5.944   5.998   8.233 -0.2472  0.9244  1.8187
33780SOL     OW 7175   1.709   8.871   2.914  0.0369 -0.0890  0.4671
33780SOL    HW1 7176   1.722   8.966   2.912 -1.6744  0.1668 -0.4281
33780SOL    HW2 7177   1.717   8.844   2.823  1.5931 -1.0077  0.8357
33781SOL     OW 7178   9.906   2.301   2.858 -0.1208 -0.4597 -0.2514
33781SOL    HW1 7179   9.949   2.387   2.855 -1.1912  0.0722 -1.1779
33781SOL    HW2 7180   9.842   2.309   2.928  0.8669 -1.0611  0.7451
33782SOL     OW 7181   2.347   7.106   8.228 -0.0837 -0.2389 -0.4326
33782SOL    HW1 7182   2.369   7.176   8.167 -0.4287  0.4501  0.2036
33782SOL    HW2 7183   2.373   7.025   8.184 -0.9101  0.1894 -1.7425
33783SOL     OW 7184   7.129   8.411   9.293  0.4158 -0.0117  0.0548
33783SOL    HW1 7185   7.190   8.358   9.343 -1.1421 -0.2511  1.8255
33783SOL    HW2 7186   7.069   8.447   9.359 -0.2012  1.7671 -1.3875
33784SOL     OW 7187   4.428   1.126   3.370  0.0567 -0.0848  0.3577
33784SOL    HW1 7188   4.376   1.115   3.450  0.4809  2.3203  1.0681
33784SOL    HW2 7189   4.376   1.185   3.315  0.5985 -0.2194 -0.3157
33785SOL     OW 7190   6.270  10.680   4.051 -0.4725  0.2315 -0.5428
33785SOL    HW1 7191   6.250  10.748   3.987  0.0315 -0.2675 -1.2412
33785SOL    HW2 7192   6.359  10.652   4.030 -0.0323  0.5228  0.8018
33786SOL     OW 7193   7.565   4.127   1.645  0.0432 -0.2171  0.0821
33786SOL    HW1 7194   7.626   4.069   1.690 -1.4114  0.1563  2.6986
33786SOL    HW2 7195   7.568   4.098   1.553  1.6923 -2.3106  0.7127
33787SOL     OW 7196   7.348   2.965   6.540 -0.1029  0.4248 -0.3417
33787SOL    HW1 7197   7.425   2.945   6.486 -0.8581  1.2804 -1.7926
33787SOL    HW2 7198   7.364   2.919   6.622  0.8794 -1.3225 -1.4427
33788SOL     OW 7199   2.067   3.006   9.020  0.1377  0.1585 -0.1891
33788SOL    HW1 7200   2.033   3.056   8.946 -1.1489 -0.4364 -0.0418
33788SOL    HW2 7201   2.014   3.034   9.094  0.8265  0.1111  0.3340
33789SOL     OW 7202   3.684   9.687   7.767 -0.5890 -0.0237 -0.1941
33789SOL    HW1 7203   3.645   9.761   7.720 -0.6214  0.7326  0.9889
33789SOL    HW2 7204   3.743   9.728   7.830  0.9852 -1.0981 -0.9120
33790SOL     OW 7205   7.484   3.083   2.700 -0.1111 -0.1679 -0.1147
33790SOL    HW1 7206   7.476   2.996   2.740 -2.6877  0.7758  1.7822
33790SOL    HW2 7207   7.575   3.089   2.672  0.7549 -2.6210  1.7806
33791SOL     OW 7208   2.253   8.887   0.651  0.1816 -0.3450  0.1794
33791SOL    HW1 7209   2.315   8.816   0.667 -0.3364 -0.7159  0.5787
33791SOL    HW2 7210   2.296   8.965   0.686  0.4059 -0.6049  0.4890
33792SOL     OW 7211   3.605   5.031   0.716 -0.4179 -0.0049 -0.0500
33792SOL    HW1 7212   3.669   4.977   0.761  0.0768  0.2459 -0.4408
33792SOL    HW2 7213   3.637   5.120   0.725 -0.1685  0.0326 -1.1003
33793SOL     OW 7214   5.135   9.442   8.363  0.1806  0.3987 -0.3542
33793SOL    HW1 7215   5.150   9.392   8.443 -0.2475  0.8648  0.0272
33793SOL    HW2 7216   5.196   9.405   8.299  0.4354 -0.0634  0.1526
33794SOL     OW 7217   9.995   4.081   6.924  0.3608 -0.0843  0.0684
33794SOL    HW1 7218  10.074   4.071   6.871  0.7214 -1.1322  0.7756
33794SOL    HW2 7219   9.962   4.168   6.902  1.1879 -0.0068 -0.9375
33795SOL     OW 7220   4.079   2.968   9.812 -0.6221  0.4456  0.9807
33795SOL    HW1 7221   4.085   3.063   9.824  0.5921  0.6638 -1.0186
33795SOL    HW2 7222   4.027   2.957   9.733 -1.6918 -0.6351  1.7897
33796SOL     OW 7223   2.236   0.411   5.979 -0.1032 -0.1726  0.5348
33796SOL    HW1 7224   2.145   0.384   5.964  0.4346 -1.7301 -0.1332
33796SOL    HW2 7225   2.248   0.404   6.074 -1.2038  1.9263  0.8877
33797SOL     OW 7226   0.529   6.950   0.730 -0.7088 -0.3955 -0.4385
33797SOL    HW1 7227   0.609   6.969   0.681 -0.1568 -0.3745  0.4463
33797SOL    HW2 7228   0.461   6.942   0.663 -0.1315  0.4197 -1.1408
33798SOL     OW 7229   8.693   6.306   4.251 -0.6265 -0.2802  0.2772
33798SOL    HW1 7230   8.715   6.259   4.331 -0.3899  3.2921  2.5265
33798SOL    HW2 7231   8.598   6.318   4.255 -0.4378  1.2456  0.9295
33799SOL     OW 7232   6.383   9.272   4.340 -0.3869  0.5637  0.0654
33799SOL    HW1 7233   6.299   9.228   4.355 -0.0199 -0.8647 -1.7226
33799SOL    HW2 7234   6.446   9.200   4.333  0.7303  1.5435 -0.2175
33800SOL     OW 7235   8.606   4.976   3.093  0.1177  0.6195 -0.2806
33800SOL    HW1 7236   8.563   5.056   3.065  0.2765  1.0939  0.7918
33800SOL    HW2 7237   8.691   4.977   3.050  0.0503  0.9474 -0.4024
33801SOL     OW 7238   9.214   1.646   8.754 -0.0757  0.1974 -0.1378
33801SOL    HW1 7239   9.256   1.634   8.839 -1.0698  0.2721  0.3894
33801SOL    HW2 7240   9.171   1.562   8.736 -1.7924  0.8853  0.5577
33802SOL     OW 7241   4.607   4.499   4.298 -0.0323  0.4286 -0.2159
33802SOL    HW1 7242   4.687   4.522   4.343 -1.5511 -0.4886  3.2409
33802SOL    HW2 7243   4.558   4.581   4.294  0.2227  0.5700 -0.4669
33803SOL     OW 7244   9.588   5.848   6.017 -0.1291  0.4908 -0.1576
33803SOL    HW1 7245   9.591   5.889   6.103  0.5431  1.3462 -0.5708
33803SOL    HW2 7246   9.625   5.913   5.958 -2.1948  0.6342 -1.3962
33804SOL     OW 7247   6.501   7.351   4.122  0.2569  0.2247 -0.4596
33804SOL    HW1 7248   6.420   7.300   4.117  0.2485  0.1417  0.3841
33804SOL    HW2 7249   6.534   7.352   4.032 -1.2231  1.1744 -1.0315
33805SOL     OW 7250   7.435   9.765   6.045 -0.5752  0.3032  0.1480
33805SOL    HW1 7251   7.464   9.677   6.022 -0.5100  0.1653  0.7479
33805SOL    HW2 7252   7.402   9.802   5.962 -0.8627 -0.3793 -0.0448
33806SOL     OW 7253   9.397   6.973   8.675 -0.2492  0.0311  0.3825
33806SOL    HW1 7254   9.332   6.951   8.608  0.1238 -1.2339  0.4006
33806SOL    HW2 7255   9.347   7.016   8.744 -1.2402 -1.6161  0.7523
33807SOL     OW 7256   1.562   3.186   7.573  0.5038  0.6171 -0.1961
33807SOL    HW1 7257   1.501   3.114   7.586  0.6933  0.5514  0.3578
33807SOL    HW2 7258   1.556   3.206   7.479  0.5578 -0.2108 -0.3822
33808SOL     OW 7259   1.732  10.079   5.768  0.0942 -0.1660 -0.2256
33808SOL    HW1 7260   1.642  10.111   5.777 -0.0787 -0.6224 -0.3072
33808SOL    HW2 7261   1.723   9.985   5.754  0.5799 -0.1939 -0.3764
33809SOL     OW 7262   6.688   2.639   6.013  0.3618 -0.9537 -0.0224
33809SOL    HW1 7263   6.658   2.711   6.068  1.5635  1.4968 -2.2868
33809SOL    HW2 7264   6.618   2.626   5.950  0.2059 -1.6807  0.3008
33810SOL     OW 7265   3.551   3.537   9.732 -0.1038  0.2272 -0.1784
33810SOL    HW1 7266   3.514   3.496   9.655  0.1162 -1.1622  0.4337
33810SOL    HW2 7267   3.609   3.605   9.698  0.4261 -0.7337 -1.2526
33811SOL     OW 7268   4.568   7.444   8.626 -0.1568  0.4460 -0.8306
33811SOL    HW1 7269   4.605   7.532   8.635  0.4974  0.3313 -2.1263
33811SOL    HW2 7270   4.578   7.404   8.712  0.1051  1.4201 -0.3974
33812SOL     OW 7271   1.134   2.297   5.768  0.5151  0.8109  0.1809
33812SOL    HW1 7272   1.187   2.315   5.690  2.5759  1.1314  1.6051
33812SOL    HW2 7273   1.193   2.254   5.829 -0.6426  1.8981  2.1644
33813SOL     OW 7274   4.660   6.853   1.393 -0.2635 -0.1444  0.0791
33813SOL    HW1 7275   4.614   6.829   1.474 -0.6360 -1.9080 -0.6185
33813SOL    HW2 7276   4.654   6.949   1.390 -0.9890 -0.1073  1.6938
33814SOL     OW 7277  10.884   0.939  10.497 -0.3585  0.2769 -0.1782
33814SOL    HW1 7278  10.948   0.869  10.486  0.0181  0.6436 -0.3417
33814SOL    HW2 7279  10.898   0.997  10.422 -0.0302  1.0231  0.4457
33815SOL     OW 7280   7.320   0.527   1.253  0.0344 -0.5485  0.0435
33815SOL    HW1 7281   7.366   0.446   1.231  1.0653 -0.1535  0.6749
33815SOL    HW2 7282   7.369   0.595   1.207  0.1625 -0.1066  0.8147
33816SOL     OW 7283   2.535   7.172   7.958  0.1807 -0.0972 -0.2787
33816SOL    HW1 7284   2.555   7.265   7.967  0.4265 -0.1244 -0.5385
33816SOL    HW2 7285   2.611   7.135   7.914  0.4927 -0.5960  0.6474
33817SOL     OW 7286   2.400   5.295   4.569 -0.1025 -0.2207 -0.4342
33817SOL    HW1 7287   2.386   5.390   4.578 -1.3609 -0.3973 -0.2674
33817SOL    HW2 7288   2.425   5.266   4.657  0.0413 -0.0725 -0.4269
33818SOL     OW 7289   0.272   5.121   8.853 -0.2219  0.0350  0.1739
33818SOL    HW1 7290   0.258   5.131   8.947  0.7410 -0.9340  0.4385
33818SOL    HW2 7291   0.331   5.192   8.829  0.7639 -0.6274  0.6109
33819SOL     OW 7292  10.383   6.530  10.205 -0.0559  0.3592 -0.1918
33819SOL    HW1 7293  10.400   6.489  10.289  0.0144 -0.3504 -0.5419
33819SOL    HW2 7294  10.433   6.612  10.206 -1.8481  1.5222  1.3584
33820SOL     OW 7295   1.168   4.861  10.912 -0.4491  0.1938  0.1141
33820SOL    HW1 7296   1.159   4.936  10.854 -0.9315  0.2328  0.2419
33820SOL    HW2 7297   1.257   4.830  10.896 -0.2249  0.8243  0.1059
33821SOL     OW 7298   4.052   5.686  10.038  0.1936 -0.0403  0.0152
33821SOL    HW1 7299   4.060   5.666   9.945 -0.6364  1.1826 -0.3462
33821SOL    HW2 7300   4.047   5.782  10.041  1.9188  0.0372  1.4629
33822SOL     OW 7301   7.542   9.647   2.949 -0.3378 -0.2225  0.4830
33822SOL    HW1 7302   7.537   9.737   2.918 -1.7146 -0.3148  0.3984
33822SOL    HW2 7303   7.493   9.646   3.031  0.0767 -0.7947  0.7374
33823SOL     OW 7304   1.606   2.953   9.612  0.2105 -0.0761 -0.2830
33823SOL    HW1 7305   1.691   2.953   9.568  0.1141 -0.1466 -0.4743
33823SOL    HW2 7306   1.599   2.866   9.650  0.0772 -0.1904 -0.5624
33824SOL     OW 7307  10.293   5.327   1.777 -0.0581 -0.3670  0.0374
33824SOL    HW1 7308  10.364   5.322   1.841 -0.2544  0.7596  0.3712
33824SOL    HW2 7309  10.234   5.256   1.802  0.5483 -0.8115  0.2484
33825SOL     OW 7310   4.946   1.570   5.292  0.5508 -0.1901  0.3242
33825SOL    HW1 7311   5.026   1.609   5.327  0.6552 -1.5846  1.7621
33825SOL    HW2 7312   4.896   1.544   5.369 -0.4400 -1.0052 -0.5586
33826SOL     OW 7313   2.412   4.549   8.815  0.1706  0.2715  0.3989
33826SOL    HW1 7314   2.391   4.545   8.908  0.2041 -0.1093  0.3911
33826SOL    HW2 7315   2.331   4.527   8.770  0.8614 -2.7648  0.3858
33827SOL     OW 7316   7.683   0.197   5.962  0.2106 -0.6990 -0.0650
33827SOL    HW1 7317   7.654   0.277   5.919  1.9547 -0.5286 -0.9891
33827SOL    HW2 7318   7.638   0.126   5.915  0.6414 -0.3976 -0.9526
33828SOL     OW 7319   5.498   6.720   1.389  0.2344 -0.4455 -0.0512
33828SOL    HW1 7320   5.579   6.672   1.406  0.5297  0.1472  0.2406
33828SOL    HW2 7321   5.522   6.812   1.399 -0.3636 -0.2406 -0.4450
33829SOL     OW 7322   6.227   1.012   2.247 -0.4987  0.3510  0.0119
33829SOL    HW1 7323   6.269   1.034   2.330 -0.2291  0.4166 -0.1388
33829SOL    HW2 7324   6.300   1.007   2.185 -0.7491  0.7853 -0.3213
33830SOL     OW 7325   2.039   9.424   2.139  0.2352 -0.1789 -0.1701
33830SOL    HW1 7326   2.084   9.505   2.164 -1.1569  0.1654  1.3920
33830SOL    HW2 7327   2.043   9.369   2.217 -1.3016 -0.4642 -0.2729
33831SOL     OW 7328   7.651   7.477   9.242 -0.5520  0.1473  0.0476
33831SOL    HW1 7329   7.634   7.505   9.332  0.2219  1.9145 -0.3124
33831SOL    HW2 7330   7.584   7.523   9.191  0.3435  0.8462 -0.5047
33832SOL     OW 7331   3.772   6.970   9.119  0.0167  0.4456  0.4070
33832SOL    HW1 7332   3.787   7.048   9.173  0.6459 -0.9932  2.3944
33832SOL    HW2 7333   3.692   6.931   9.154  1.3942 -1.4740  1.5690
33833SOL     OW 7334   2.030   2.659   1.630 -0.3018 -0.0816 -0.2778
33833SOL    HW1 7335   2.019   2.754   1.629  0.6814  0.0649 -2.0358
33833SOL    HW2 7336   2.125   2.646   1.621 -0.6259 -1.1553 -3.2922
33834SOL     OW 7337   1.044   0.775   5.973  0.5688  0.1917  0.9961
33834SOL    HW1 7338   1.126   0.814   5.942  1.1261 -0.9933  0.9585
33834SOL    HW2 7339   1.068   0.687   6.000 -0.7722 -0.3070  0.6106
33835SOL     OW 7340   3.449   3.260   5.763 -0.0078  0.1428  0.1806
33835SOL    HW1 7341   3.399   3.178   5.754  0.8502 -0.7027  2.3055
33835SOL    HW2 7342   3.390   3.328   5.730 -1.3621 -1.1561 -0.1883
33836SOL     OW 7343   2.242   4.188   6.788  0.3388 -0.3398 -0.4533
33836SOL    HW1 7344   2.301   4.256   6.822  1.1458 -1.6706  0.9170
33836SOL    HW2 7345   2.263   4.182   6.695  0.4295  1.0812 -0.5565
33837SOL     OW 7346  10.465   3.449   0.963  0.0262  0.0115 -0.2113
33837SOL    HW1 7347  10.392   3.512   0.961  0.1372  0.1493  0.0183
33837SOL    HW2 7348  10.509   3.460   0.879  1.1345  1.5328  0.5359
33838SOL     OW 7349   4.087   8.000   6.417  0.1683 -0.4703  0.0862
33838SOL    HW1 7350   3.999   7.965   6.404  0.3430 -0.7494 -0.3649
33838SOL    HW2 7351   4.103   8.054   6.339  0.8841 -1.4484 -0.4745
33839SOL     OW 7352   8.510   9.465   6.083 -0.6087  0.5739 -0.2864
33839SOL    HW1 7353   8.536   9.537   6.141  1.9931  0.2293 -0.9317
33839SOL    HW2 7354   8.578   9.399   6.095 -1.6200 -0.7423 -1.5504
33840SOL     OW 7355   6.623  10.018   8.738  0.4313 -0.1642  0.0552
33840SOL    HW1 7356   6.646   9.977   8.655  2.0291  0.1371  0.3159
33840SOL    HW2 7357   6.542  10.066   8.720  0.4761 -0.5300 -1.1837
33841SOL     OW 7358   3.315   5.993  10.823 -0.1350  0.5926 -0.2525
33841SOL    HW1 7359   3.326   6.048  10.746  2.0427  0.9945  0.2902
33841SOL    HW2 7360   3.330   5.904  10.791 -0.8321  0.5774 -0.5710
33842SOL     OW 7361   2.043   8.187   0.069 -0.2535 -0.0615 -0.1464
33842SOL    HW1 7362   2.055   8.230  -0.016 -1.5711 -0.0093 -0.3373
33842SOL    HW2 7363   1.948   8.183   0.079 -0.1167  0.1270  1.4320
33843SOL     OW 7364   8.560   0.828   6.815 -0.9745  0.2205 -0.1340
33843SOL    HW1 7365   8.588   0.792   6.731 -0.1380  1.8614 -0.6061
33843SOL    HW2 7366   8.484   0.882   6.795 -0.0188  1.6475 -0.1019
33844SOL     OW 7367   2.378   0.300   0.191  0.2862 -0.3995  0.0529
33844SOL    HW1 7368   2.323   0.377   0.206  0.5250 -0.0961 -0.5748
33844SOL    HW2 7369   2.396   0.266   0.278  0.7502  0.6574  0.3894
33845SOL     OW 7370   9.344   9.901   9.858 -0.5005  0.0201  0.2048
33845SOL    HW1 7371   9.401   9.827   9.841 -1.7751 -0.6375 -1.5216
33845SOL    HW2 7372   9.380   9.972   9.804 -0.2334  0.1668  0.5752
33846SOL     OW 7373   7.145   0.990   5.078  0.2371 -0.1243 -0.0686
33846SOL    HW1 7374   7.060   1.017   5.044 -0.2466 -0.0810  1.1306
33846SOL    HW2 7375   7.133   0.899   5.105  0.2729  0.1797  1.0166
33847SOL     OW 7376   4.490   8.061   3.348  0.1143 -0.0395 -0.1725
33847SOL    HW1 7377   4.490   7.973   3.386  0.9462  0.0046 -0.0455
33847SOL    HW2 7378   4.539   8.114   3.411  0.5244  0.2888 -0.7581
33848SOL     OW 7379   0.660   9.839   6.035  0.5537 -0.0569  0.5369
33848SOL    HW1 7380   0.720   9.830   6.108 -0.8804 -2.1550  1.5639
33848SOL    HW2 7381   0.668   9.757   5.986 -1.7434 -0.6501  1.0120
33849SOL     OW 7382   6.270   9.697   4.357 -0.5288  0.6931 -0.3694
33849SOL    HW1 7383   6.298   9.621   4.408 -0.0596  0.2591 -1.2492
33849SOL    HW2 7384   6.211   9.745   4.415 -0.2017  0.0820  0.4821
33850SOL     OW 7385   6.632   0.226   6.250  0.2123  0.1060 -0.1840
33850SOL    HW1 7386   6.540   0.199   6.250  0.5230 -1.0198 -1.1625
33850SOL    HW2 7387   6.669   0.186   6.328  0.8830 -3.2796 -2.0559
33851SOL     OW 7388   8.009   6.650   9.443 -0.6003 -0.7152  0.0020
33851SOL    HW1 7389   8.031   6.646   9.536  0.2493  0.1469 -0.1447
33851SOL    HW2 7390   7.941   6.717   9.438 -0.8532 -0.9672  0.0316
33852SOL     OW 7391   6.503   6.450  10.379  0.1670  0.0074 -1.1250
33852SOL    HW1 7392   6.498   6.466  10.474  0.3494  2.4465 -1.4621
33852SOL    HW2 7393   6.569   6.382  10.370  0.4493  0.0177  0.4870
33853SOL     OW 7394   7.437   9.446   8.381  0.4219 -0.4313 -0.1170
33853SOL    HW1 7395   7.515   9.390   8.382 -0.5763 -1.9010  1.2428
33853SOL    HW2 7396   7.471   9.534   8.397  1.7559 -1.1704  1.5599
33854SOL     OW 7397  10.847   2.265   5.071  0.3062  0.5044  0.1323
33854SOL    HW1 7398  10.794   2.198   5.029  0.3980  0.8504 -0.5363
33854SOL    HW2 7399  10.905   2.298   5.002  0.1717  1.3714  0.4196
33855SOL     OW 7400   1.653   5.117  10.351 -0.2994 -0.1218  0.4652
33855SOL    HW1 7401   1.729   5.157  10.308 -1.8552 -0.7278 -3.2267
33855SOL    HW2 7402   1.588   5.187  10.353 -0.2284 -0.0846  2.0452
33856SOL     OW 7403   2.434   4.717   4.819 -0.2949 -0.3156 -0.0001
33856SOL    HW1 7404   2.368   4.722   4.888 -0.5196 -0.2516 -0.2196
33856SOL    HW2 7405   2.409   4.641   4.767  0.5766 -1.1041  0.7087
33857SOL     OW 7406   5.863   8.554   1.665 -0.3738 -0.5063 -0.3053
33857SOL    HW1 7407   5.803   8.516   1.601  0.2672 -1.0646 -0.5808
33857SOL    HW2 7408   5.948   8.552   1.623 -0.3820  1.7343 -0.5319
33858SOL     OW 7409   0.739   3.648   0.916 -0.9262  0.6138  0.2076
33858SOL    HW1 7410   0.797   3.590   0.866 -0.2886  0.8727  0.6252
33858SOL    HW2 7411   0.799   3.703   0.966 -1.5245 -0.2867  2.0152
33859SOL     OW 7412   6.946   6.363   4.431  0.4611  0.1324 -0.3461
33859SOL    HW1 7413   6.905   6.382   4.516  0.2500 -0.4924 -0.3069
33859SOL    HW2 7414   7.036   6.341   4.453  0.8787  1.6434 -0.4448
33860SOL     OW 7415  10.864   0.702   9.966 -0.4762  0.1676 -0.0531
33860SOL    HW1 7416  10.941   0.684   9.912 -1.4474  0.7654 -1.7435
33860SOL    HW2 7417  10.800   0.637   9.937 -0.4311 -0.7723  1.8281
33861SOL     OW 7418   8.520   2.182   2.375  0.1097 -0.0303 -0.3455
33861SOL    HW1 7419   8.475   2.099   2.387  0.2675  0.2628  4.8055
33861SOL    HW2 7420   8.457   2.248   2.403  1.8056  0.9035  1.5414
33862SOL     OW 7421   2.432   6.116   2.021 -0.0166  0.0961 -0.0541
33862SOL    HW1 7422   2.449   6.210   2.019  0.0857  0.1642  2.2942
33862SOL    HW2 7423   2.511   6.077   2.058  0.5508 -1.1499 -2.3257
33863SOL     OW 7424  10.415   3.700   9.869 -0.0325  0.0221 -0.1480
33863SOL    HW1 7425  10.507   3.680   9.854 -0.1728 -0.3860 -0.4861
33863SOL    HW2 7426  10.396   3.774   9.811  0.4008  0.9539  0.8552
33864SOL     OW 7427   0.682  10.741   8.737  0.1216 -0.1528  0.1438
33864SOL    HW1 7428   0.605  10.761   8.684  0.3459  1.7245  0.4376
33864SOL    HW2 7429   0.647  10.706   8.819 -0.2646 -2.0758 -0.8013
33865SOL     OW 7430   5.122   6.421   2.778  0.4934  0.0616  0.0735
33865SOL    HW1 7431   5.167   6.498   2.745  1.9258 -1.7328 -2.4938
33865SOL    HW2 7432   5.093   6.374   2.700 -2.9466 -0.6343  1.5684
33866SOL     OW 7433   9.024   9.402  10.045  0.0938  0.2801 -0.2130
33866SOL    HW1 7434   9.018   9.373   9.954  0.7100 -3.0215  0.6676
33866SOL    HW2 7435   8.934   9.425  10.068 -0.4244 -0.6794 -1.1483
33867SOL     OW 7436  10.667   2.012   7.998 -0.4094 -0.0468 -0.5862
33867SOL    HW1 7437  10.598   2.042   8.057  0.8018  0.3324  0.6920
33867SOL    HW2 7438  10.620   1.966   7.928 -2.0577  1.5742 -0.6267
33868SOL     OW 7439   9.451   0.193   6.663 -0.2996  0.1345  0.0533
33868SOL    HW1 7440   9.474   0.135   6.591 -0.5834  0.5341 -0.3672
33868SOL    HW2 7441   9.511   0.169   6.733 -2.2548 -2.6330  0.9230
33869SOL     OW 7442   4.360   5.582   4.128  0.5771  0.5496 -0.4178
33869SOL    HW1 7443   4.339   5.499   4.171  0.0834  0.7114 -0.3342
33869SOL    HW2 7444   4.285   5.638   4.147  1.0351  1.1133 -0.2207
33870SOL     OW 7445   0.025   2.485   8.636  0.0587  0.0497 -0.1772
33870SOL    HW1 7446   0.007   2.466   8.544 -4.2132  1.4224  0.1997
33870SOL    HW2 7447  -0.031   2.560   8.657  0.6303 -0.4052  3.6348
33871SOL     OW 7448   6.703   9.823   4.457  0.1595 -0.7468 -0.2857
33871SOL    HW1 7449   6.745   9.909   4.469 -0.2338 -0.4042 -1.2636
33871SOL    HW2 7450   6.695   9.788   4.545 -0.2401  0.4976  0.1922
33872SOL     OW 7451   0.446   6.365   4.064  0.4039  0.4442 -0.1119
33872SOL    HW1 7452   0.497   6.401   4.137 -0.7857  1.3925  0.2827
33872SOL    HW2 7453   0.363   6.339   4.103 -0.2119  0.8733 -1.1006
33873SOL     OW 7454   1.478   8.770   5.500 -0.5933  0.1208 -0.2952
33873SOL    HW1 7455   1.540   8.825   5.453 -0.5679 -0.3490 -0.8171
33873SOL    HW2 7456   1.502   8.780   5.592  1.4525 -1.4625 -0.5891
33874SOL     OW 7457   8.913   9.773   6.239 -0.0184 -0.1188  0.0094
33874SOL    HW1 7458   8.978   9.766   6.308 -0.0433 -2.2981 -0.1337
33874SOL    HW2 7459   8.843   9.712   6.264 -0.6664  0.0585 -1.2484
33875SOL     OW 7460   1.675   5.810   1.315  0.1583 -0.3431  0.1432
33875SOL    HW1 7461   1.591   5.834   1.275  0.3318  0.7635  0.4165
33875SOL    HW2 7462   1.694   5.723   1.280 -1.3545 -0.8328  0.4709
33876SOL     OW 7463   4.008   0.068   1.744 -0.0428  0.3624 -0.0332
33876SOL    HW1 7464   4.071  -0.004   1.736  0.4384  0.8051 -0.3218
33876SOL    HW2 7465   3.929   0.027   1.780 -0.6986 -0.8064 -2.6150
33877SOL     OW 7466   7.766   2.021   4.756 -0.5044 -0.1879  0.6907
33877SOL    HW1 7467   7.780   2.088   4.822  0.7450  1.2442 -0.9160
33877SOL    HW2 7468   7.679   2.041   4.719  0.8249  2.2520 -1.4680
33878SOL     OW 7469  10.241   3.925   1.602  0.1345  0.3765 -0.4170
33878SOL    HW1 7470  10.224   3.934   1.696  0.1334 -0.4017 -0.3297
33878SOL    HW2 7471  10.322   3.972   1.587  0.9251 -0.7190  0.2689
33879SOL     OW 7472   7.575   9.989   8.444  0.1300 -0.2685 -0.1841
33879SOL    HW1 7473   7.625  10.043   8.506  0.8929 -0.4153 -0.6622
33879SOL    HW2 7474   7.490  10.033   8.438  0.3827  0.2942  0.2229
33880SOL     OW 7475   5.240   1.655   1.569  0.0112 -0.3225  0.1094
33880SOL    HW1 7476   5.252   1.749   1.579 -1.5360 -0.2325  1.5957
33880SOL    HW2 7477   5.295   1.631   1.495  2.5772  1.2811  1.3521
33881SOL     OW 7478   4.855   5.087   5.308  0.6209 -0.6872 -0.4088
33881SOL    HW1 7479   4.886   5.166   5.264  0.0530 -0.3170 -0.1542
33881SOL    HW2 7480   4.790   5.049   5.249 -1.1452  0.5359  0.6436
33882SOL     OW 7481   8.551  10.254   4.143 -0.0018 -0.2813 -0.3083
33882SOL    HW1 7482   8.545  10.218   4.055 -1.3574  0.5805 -0.6005
33882SOL    HW2 7483   8.493  10.199   4.196 -1.1617  0.6973 -0.5124
33883SOL     OW 7484   9.451   1.108   7.231  0.0610 -0.7125 -0.2318
33883SOL    HW1 7485   9.531   1.060   7.210 -0.1951 -0.9753 -0.6236
33883SOL    HW2 7486   9.469   1.148   7.316  1.2335  0.6176 -1.0653
33884SOL     OW 7487   8.667   9.126   5.758 -0.2220  0.7464 -0.0718
33884SOL    HW1 7488   8.760   9.142   5.774 -0.3355  0.9407  0.4285
33884SOL    HW2 7489   8.634   9.210   5.726 -0.2294  0.6846 -0.2255
33885SOL     OW 7490   5.956   8.922   0.102 -0.4577  0.5440 -0.0254
33885SOL    HW1 7491   6.023   8.912   0.169  0.7072 -0.0880 -1.2281
33885SOL    HW2 7492   5.934   8.833   0.075 -2.8904  0.6450  1.3282
33886SOL     OW 7493   7.269   6.131   6.733 -0.5840  0.1549 -0.6267
33886SOL    HW1 7494   7.212   6.203   6.705 -0.4708 -0.0187 -1.3246
33886SOL    HW2 7495   7.336   6.127   6.665  0.0692  0.1364  0.0142
33887SOL     OW 7496   5.494   8.182   0.040 -0.5979 -0.3749 -0.1496
33887SOL    HW1 7497   5.412   8.227   0.063 -0.7094 -0.5293 -0.2476
33887SOL    HW2 7498   5.559   8.252   0.039 -0.3377 -0.5257  1.8339
33888SOL     OW 7499   9.723   7.995   6.396 -0.2898  0.2339  0.0616
33888SOL    HW1 7500   9.759   8.003   6.485 -1.1598  0.2742  0.4259
33888SOL    HW2 7501   9.630   7.979   6.410 -0.9605  2.8137 -0.8531
33889SOL     OW 7502   9.895   2.737   9.110 -0.1335 -0.0976 -0.5322
33889SOL    HW1 7503   9.930   2.723   9.022 -0.8579  0.0955 -0.8571
33889SOL    HW2 7504   9.801   2.749   9.097 -0.3268 -0.6077  0.3247
33890SOL     OW 7505   6.133   4.267   4.810  0.3298  0.2507  0.0190
33890SOL    HW1 7506   6.132   4.344   4.754 -2.5618  0.1713 -0.1995
33890SOL    HW2 7507   6.151   4.194   4.751  1.5764  0.5637 -0.0194
33891SOL     OW 7508   0.173   9.937  10.289 -0.7804  0.2775 -0.8424
33891SOL    HW1 7509   0.117   9.955  10.365  0.3726  1.0887 -0.1649
33891SOL    HW2 7510   0.111   9.928  10.216 -1.8663  0.1468  0.0552
33892SOL     OW 7511   7.879   2.801   2.664 -0.1319 -0.0986 -0.2716
33892SOL    HW1 7512   7.930   2.741   2.719 -3.3133 -1.0371  1.9358
33892SOL    HW2 7513   7.833   2.857   2.726 -0.2806  2.0316 -2.1986
33893SOL     OW 7514   3.085   2.773   9.022  0.0068  0.6646  0.3062
33893SOL    HW1 7515   3.099   2.698   8.964 -0.8598  1.2302 -0.6613
33893SOL    HW2 7516   3.156   2.766   9.087  1.9739  0.8563 -1.6990
33894SOL     OW 7517   7.933   1.334  10.017  0.1581 -0.2281 -0.1242
33894SOL    HW1 7518   7.862   1.313   9.956 -1.7012 -0.8270  2.1241
33894SOL    HW2 7519   7.978   1.408   9.977 -2.2859  0.7436 -1.2251
33895SOL     OW 7520   1.353   1.364   8.755 -0.3510  0.3553 -0.3478
33895SOL    HW1 7521   1.277   1.321   8.715  0.9020  1.6476 -4.6784
33895SOL    HW2 7522   1.417   1.294   8.765 -0.6548 -0.0125 -0.8686
33896SOL     OW 7523   8.383   5.915   3.129  0.1646  0.0325 -0.6414
33896SOL    HW1 7524   8.419   5.875   3.207  0.4931 -1.5456 -1.5610
33896SOL    HW2 7525   8.291   5.889   3.129  0.4905 -1.2005 -1.4968
33897SOL     OW 7526   2.361   7.851   5.627 -0.2497  0.3354  0.9903
33897SOL    HW1 7527   2.283   7.813   5.669 -0.2664 -1.1561 -0.2877
33897SOL    HW2 7528   2.327   7.891   5.547  0.2652 -0.3115  0.4327
33898SOL     OW 7529   8.729   5.278  10.559  0.4178  0.4572 -0.1185
33898SOL    HW1 7530   8.808   5.280  10.612 -0.0126 -0.1153  0.5735
33898SOL    HW2 7531   8.700   5.369  10.555  0.2562  0.4626  0.9570
33899SOL     OW 7532   9.645   0.612   8.796  0.0834  0.2807  0.4021
33899SOL    HW1 7533   9.577   0.596   8.730 -1.2500 -1.6674  2.1449
33899SOL    HW2 7534   9.705   0.538   8.787 -0.7809 -0.6865  2.1112
33900SOL     OW 7535   2.556   8.522   1.305 -0.1843  0.2207  0.0261
33900SOL    HW1 7536   2.469   8.559   1.318 -0.3953 -0.1551 -0.3116
33900SOL    HW2 7537   2.548   8.465   1.228  1.1310  2.7287 -2.1447
33901SOL     OW 7538   8.751   4.638   5.734 -0.3213  0.3595  0.7721
33901SOL    HW1 7539   8.693   4.631   5.659  1.1125 -0.5782 -0.2858
33901SOL    HW2 7540   8.720   4.716   5.781 -1.1614  1.0389 -0.8499
33902SOL     OW 7541   4.756   4.638   7.996 -0.8081  0.0816  0.5108
33902SOL    HW1 7542   4.845   4.612   8.020  0.1344  2.3487 -0.2363
33902SOL    HW2 7543   4.716   4.667   8.077  0.0342  1.4081  0.4742
33903SOL     OW 7544   3.806   3.836   8.144 -0.0034  1.1166 -0.8587
33903SOL    HW1 7545   3.831   3.771   8.209 -0.4888  0.1907 -1.5794
33903SOL    HW2 7546   3.768   3.907   8.195 -0.8613  0.1801 -0.1574
33904SOL     OW 7547   0.073   4.403   1.469  0.1821 -0.8405 -0.1678
33904SOL    HW1 7548   0.025   4.416   1.387 -0.7860 -1.5267  0.2650
33904SOL    HW2 7549   0.016   4.346   1.521  1.1542 -1.0822  0.6625
33905SOL     OW 7550   1.510   2.053   8.036 -0.0602 -0.1785  0.1946
33905SOL    HW1 7551   1.561   2.088   7.963 -0.9167  0.6399 -0.0369
33905SOL    HW2 7552   1.453   1.987   7.997 -1.7633  1.4599 -0.2521
33906SOL     OW 7553   3.727   7.909   1.256 -0.4708  0.0896 -0.0133
33906SOL    HW1 7554   3.662   7.939   1.193 -1.1920  0.6959  0.9948
33906SOL    HW2 7555   3.803   7.886   1.202 -2.1769 -2.7160 -1.4696
33907SOL     OW 7556   3.031   6.532   1.196 -0.0747 -0.3391  0.2314
33907SOL    HW1 7557   2.996   6.593   1.131  0.2296 -1.0315 -0.6025
33907SOL    HW2 7558   2.962   6.524   1.262 -1.0891 -0.9289 -0.8752
33908SOL     OW 7559   1.494   8.347   6.459  0.3352  0.1385 -0.8633
33908SOL    HW1 7560   1.460   8.329   6.546  0.3466  2.2100 -0.3723
33908SOL    HW2 7561   1.589   8.355   6.471  0.1486  2.8682 -0.4917
33909SOL     OW 7562   9.209   5.235  10.048 -0.2128 -0.0555  0.3282
33909SOL    HW1 7563   9.159   5.246  10.130 -0.9309  1.6150 -0.2944
33909SOL    HW2 7564   9.300   5.251  10.074 -0.1867 -1.3011  1.1182
33910SOL     OW 7565   2.940  10.717   9.597 -0.3160  0.3853  0.4528
33910SOL    HW1 7566   2.943  10.676   9.510 -2.7313  1.6160 -0.2963
33910SOL    HW2 7567   2.942  10.644   9.658  2.6287 -0.4796 -0.5105
33911SOL     OW 7568   0.645  10.898   9.262 -0.3215  0.4931  0.4812
33911SOL    HW1 7569   0.657  10.806   9.285  0.2938  0.1978 -0.9336
33911SOL    HW2 7570   0.677  10.946   9.338  0.9417 -0.4451  0.5736
33912SOL     OW 7571   8.484   2.628   3.190  0.0934  0.2613 -0.0835
33912SOL    HW1 7572   8.548   2.577   3.139  1.5774  0.4030  1.5196
33912SOL    HW2 7573   8.496   2.718   3.159  0.9542  0.3414  0.4358
33913SOL     OW 7574   2.101   9.255   7.850  0.6272  0.0604 -0.4659
33913SOL    HW1 7575   2.087   9.330   7.793  0.8507  0.5542  0.1203
33913SOL    HW2 7576   2.193   9.231   7.837  0.4528 -0.3707 -0.9516
33914SOL     OW 7577   4.417   0.223   7.196 -0.6714 -0.5629 -0.1368
33914SOL    HW1 7578   4.456   0.242   7.282  2.6038 -0.7092 -1.4462
33914SOL    HW2 7579   4.422   0.128   7.187 -1.7504 -0.6236 -0.1928
33915SOL     OW 7580   1.813   7.912   0.316  0.0454  0.2765 -0.0213
33915SOL    HW1 7581   1.882   7.973   0.343  1.1591 -1.1865  0.5674
33915SOL    HW2 7582   1.835   7.891   0.225  0.2181  0.0328  0.0754
33916SOL     OW 7583   6.288   1.189   0.929 -0.0154 -0.6756 -0.3528
33916SOL    HW1 7584   6.322   1.111   0.973  0.0875  0.8387  2.5292
33916SOL    HW2 7585   6.303   1.260   0.992 -0.9829  1.5204 -2.4344
33917SOL     OW 7586   5.076  10.454   4.659  0.2103  0.1576  0.3580
33917SOL    HW1 7587   5.075  10.496   4.745 -1.2678 -1.2272  1.0686
33917SOL    HW2 7588   5.100  10.363   4.677  0.4672 -0.0094 -0.7722
33918SOL     OW 7589   5.129   4.315   6.705  0.0056  0.0158  0.1086
33918SOL    HW1 7590   5.054   4.256   6.715 -0.8691  0.9534 -0.6678
33918SOL    HW2 7591   5.177   4.307   6.787  0.4197 -2.4271 -0.3004
33919SOL     OW 7592   2.060   9.428   7.037 -0.7928 -0.2304 -0.5884
33919SOL    HW1 7593   2.019   9.499   6.988  0.5847  0.7894 -0.3128
33919SOL    HW2 7594   1.991   9.395   7.095 -2.0285 -0.4872 -2.1277
33920SOL     OW 7595   9.962   7.053   3.020 -0.2186 -0.3743 -0.0089
33920SOL    HW1 7596   9.910   7.083   2.945 -0.2526  1.9634  0.8742
33920SOL    HW2 7597  10.031   7.119   3.029 -0.4491 -0.3816  2.2358
33921SOL     OW 7598   6.718   5.181   1.443  0.5418 -0.6864 -0.3338
33921SOL    HW1 7599   6.666   5.200   1.365 -0.3818 -0.9646  0.1958
33921SOL    HW2 7600   6.656   5.139   1.503  1.1947 -0.3220  0.6115
33922SOL     OW 7601   3.542   5.836   8.051  0.2991 -0.7958  0.6002
33922SOL    HW1 7602   3.610   5.881   8.100  1.5438 -1.0309 -0.8495
33922SOL    HW2 7603   3.569   5.844   7.959 -0.9624 -1.9915  0.0904
33923SOL     OW 7604   2.662   7.594  10.492 -0.1364 -0.5157  0.2406
33923SOL    HW1 7605   2.571   7.622  10.482  0.1131  0.4016  0.5237
33923SOL    HW2 7606   2.655   7.499  10.507 -0.9351 -0.7833 -1.4766
33924SOL     OW 7607   7.179   4.139   6.101  0.1596  1.0344 -0.2538
33924SOL    HW1 7608   7.138   4.101   6.023 -0.1055  0.7718  0.0089
33924SOL    HW2 7609   7.257   4.085   6.116 -0.9288 -0.3280  0.9102
33925SOL     OW 7610  10.339  10.579   4.401  0.0211  0.5158  0.2982
33925SOL    HW1 7611  10.281  10.523   4.452 -0.3123  0.4000 -0.1976
33925SOL    HW2 7612  10.421  10.580   4.450 -0.6467  1.3223  1.4080
33926SOL     OW 7613   8.575   9.292   7.004  0.1186  0.4497  0.2653
33926SOL    HW1 7614   8.617   9.268   6.921  0.7080  0.3723  0.5840
33926SOL    HW2 7615   8.627   9.366   7.036 -0.3262  0.7093  0.3944
33927SOL     OW 7616   5.632   0.942  10.761 -0.5207  0.1879 -0.4405
33927SOL    HW1 7617   5.723   0.954  10.788  0.1126  0.5422 -2.5435
33927SOL    HW2 7618   5.602   0.865  10.809  1.2427 -0.5916 -0.5240
33928SOL     OW 7619   3.819   9.793   7.474  0.4938 -0.4277  0.3969
33928SOL    HW1 7620   3.731   9.809   7.510 -0.7031 -1.0044 -2.0608
33928SOL    HW2 7621   3.820   9.843   7.393  3.0387  0.7450  1.0605
33929SOL     OW 7622   8.971   8.532   1.248 -0.3583 -0.8404  0.0865
33929SOL    HW1 7623   9.027   8.491   1.183  0.8712  0.3937  0.3061
33929SOL    HW2 7624   8.882   8.519   1.216  0.2386  0.5104 -2.3673
33930SOL     OW 7625   9.421   9.572   9.519  0.0709 -0.6802 -0.2360
33930SOL    HW1 7626   9.446   9.519   9.444  1.2241 -0.3012 -0.1387
33930SOL    HW2 7627   9.342   9.619   9.490  1.3456  0.6486 -1.8060
33931SOL     OW 7628   0.293   8.023   7.127 -0.0503  0.6401 -0.5054
33931SOL    HW1 7629   0.242   7.944   7.142  0.2270  0.3139 -1.1959
33931SOL    HW2 7630   0.236   8.095   7.152 -0.0847  0.2016  0.7288
33932SOL     OW 7631   9.868   1.401   1.519 -0.5353  0.1998 -0.0061
33932SOL    HW1 7632   9.851   1.450   1.439 -3.2571 -0.8832 -0.2001
33932SOL    HW2 7633   9.860   1.309   1.493  2.5254 -0.3741  0.7418
33933SOL     OW 7634   8.389   1.898   0.466  0.0918 -0.6485 -0.0222
33933SOL    HW1 7635   8.413   1.982   0.426  0.3093 -0.2505  0.9253
33933SOL    HW2 7636   8.472   1.861   0.494 -0.1027 -0.6828  0.5198
33934SOL     OW 7637   8.348   3.156  10.209  0.2422 -0.1134 -0.5292
33934SOL    HW1 7638   8.362   3.243  10.170 -1.7307  0.4213 -0.1953
33934SOL    HW2 7639   8.376   3.165  10.300 -0.4598  0.3732 -0.3469
33935SOL     OW 7640   1.937   6.725   8.736  0.0374 -0.4719  0.2274
33935SOL    HW1 7641   1.848   6.756   8.722  0.1478  0.4362  1.2881
33935SOL    HW2 7642   1.960   6.758   8.823  1.7707  0.2324 -0.4344
33936SOL     OW 7643   9.918   5.043   2.405  0.3901 -0.0630  0.4392
33936SOL    HW1 7644   9.986   4.979   2.384 -0.1631 -0.7189  0.6161
33936SOL    HW2 7645   9.842   5.015   2.354  0.1388  0.4435  0.5324
33937SOL     OW 7646   6.818   8.576   4.277 -0.5430 -0.7362 -0.0709
33937SOL    HW1 7647   6.894   8.528   4.309  1.4612  2.1894 -0.0988
33937SOL    HW2 7648   6.820   8.659   4.324 -2.2137  0.4633 -1.9580
33938SOL     OW 7649   0.043  10.726  10.237  0.2808 -0.1787 -0.5747
33938SOL    HW1 7650  -0.032  10.678  10.203 -0.8692  1.3835 -0.3560
33938SOL    HW2 7651   0.026  10.817  10.214  1.3768  0.4091  0.7770
33939SOL     OW 7652   4.974   7.648   5.683  0.1509 -0.0594 -0.1926
33939SOL    HW1 7653   5.018   7.732   5.669 -0.4696  0.3213  0.1279
33939SOL    HW2 7654   4.908   7.665   5.750  0.3267 -0.9144  0.2200
33940SOL     OW 7655   1.242   3.224  10.228 -0.0368 -0.7981 -0.1621
33940SOL    HW1 7656   1.325   3.216  10.181 -0.1785 -0.6128 -0.4479
33940SOL    HW2 7657   1.214   3.134  10.243 -0.8064 -0.8862 -1.8851
33941SOL     OW 7658   3.989   3.668   2.435  0.9392 -0.0925  0.0101
33941SOL    HW1 7659   3.906   3.705   2.406  1.0845  0.2869  0.0633
33941SOL    HW2 7660   3.977   3.573   2.430  0.1315 -0.0633  1.0442
33942SOL     OW 7661   1.966   7.985   3.339  0.1557  0.6545 -0.6847
33942SOL    HW1 7662   2.017   7.997   3.259 -0.0067 -2.1338 -1.2933
33942SOL    HW2 7663   2.031   7.983   3.409  0.6639 -0.3054 -1.1645
33943SOL     OW 7664   9.951   2.125   1.938  0.0699 -0.4136  0.1863
33943SOL    HW1 7665   9.910   2.155   2.019 -0.4323 -0.3556 -0.0846
33943SOL    HW2 7666   9.983   2.037   1.958  0.1612 -0.3049  0.5190
33944SOL     OW 7667   3.123   9.828   8.055 -0.1580  0.0747  0.0895
33944SOL    HW1 7668   3.083   9.757   8.106  0.1733  0.8176  1.4427
33944SOL    HW2 7669   3.059   9.846   7.986 -0.3045 -1.4408 -0.2132
33945SOL     OW 7670   9.551  10.120  10.137 -0.2731 -0.0051 -0.1903
33945SOL    HW1 7671   9.461  10.114  10.104 -1.0303 -0.3415  1.7924
33945SOL    HW2 7672   9.578  10.029  10.150  0.0028  0.1131  0.0891
33946SOL     OW 7673   6.681   4.173   2.449 -0.6709 -0.2172 -0.4312
33946SOL    HW1 7674   6.707   4.109   2.516 -0.2902 -0.2207 -0.5807
33946SOL    HW2 7675   6.677   4.123   2.368 -1.3885 -0.2676 -0.3720
33947SOL     OW 7676   3.479   5.265   8.263 -0.9317 -0.2466  0.0792
33947SOL    HW1 7677   3.498   5.276   8.356  1.1857  1.5249 -0.4815
33947SOL    HW2 7678   3.564   5.269   8.220 -1.6475 -2.8302 -1.8489
33948SOL     OW 7679   7.988   5.971   6.026  0.2506 -0.1592  0.0372
33948SOL    HW1 7680   7.968   5.929   6.109  0.6911  1.2633  0.8962
33948SOL    HW2 7681   7.934   5.924   5.962  0.2421 -1.5657  1.0364
33949SOL     OW 7682   4.242   9.599   4.187 -0.2735  0.0736  0.6654
33949SOL    HW1 7683   4.206   9.544   4.118  1.1164  0.1910 -0.2006
33949SOL    HW2 7684   4.172   9.607   4.251 -1.4421 -0.4135 -0.5204
33950SOL     OW 7685   0.452   4.073   9.331  0.4558 -0.1732  0.2443
33950SOL    HW1 7686   0.412   4.032   9.255  0.3195  0.3810  0.0129
33950SOL    HW2 7687   0.496   4.001   9.377 -2.2127 -1.1719  1.4525
33951SOL     OW 7688  10.820   7.414   3.900  0.3513 -0.2884  0.0197
33951SOL    HW1 7689  10.822   7.510   3.901 -2.0577 -0.1637  1.1088
33951SOL    HW2 7690  10.876   7.389   3.826  2.7175  1.8257  0.9835
33952SOL     OW 7691   5.008   7.723  10.088 -0.0952 -0.1068 -0.5122
33952SOL    HW1 7692   5.096   7.696  10.116  1.3429  3.0172 -1.6329
33952SOL    HW2 7693   4.949   7.673  10.145  2.3770 -1.9797  0.6002
33953SOL     OW 7694   1.243   0.470  10.512  0.0369  0.1245  0.1325
33953SOL    HW1 7695   1.305   0.478  10.585  0.0542 -1.1252  0.2851
33953SOL    HW2 7696   1.186   0.547  10.521  1.1501  0.9500  0.3706
33954SOL     OW 7697   7.015   3.734   4.231  0.6155  0.2897  0.7850
33954SOL    HW1 7698   6.984   3.766   4.315  0.7891 -0.0564  0.9810
33954SOL    HW2 7699   6.944   3.754   4.170  0.4063  0.3595  1.0516
33955SOL     OW 7700  10.108   6.592   7.388  0.1962 -0.1431  0.1755
33955SOL    HW1 7701  10.192   6.617   7.426  0.3648  0.7936 -0.7966
33955SOL    HW2 7702  10.110   6.624   7.299 -0.6867 -1.2591 -0.2813
33956SOL     OW 7703   4.883   2.932   3.180  0.0889  0.0328 -0.1884
33956SOL    HW1 7704   4.960   2.877   3.194 -0.3390 -0.3974  0.5047
33956SOL    HW2 7705   4.809   2.877   3.204 -0.4175  0.5546 -0.5277
33957SOL     OW 7706   4.914   9.926   6.419 -0.7916  0.6490  0.0785
33957SOL    HW1 7707   4.899   9.832   6.414  1.2028  0.2446  0.8239
33957SOL    HW2 7708   4.858   9.963   6.351 -2.5002 -0.9377  0.5648
33958SOL     OW 7709   0.803   8.805   3.775  0.2902  0.2888 -0.5653
33958SOL    HW1 7710   0.768   8.851   3.699 -0.2502  1.9964  0.6484
33958SOL    HW2 7711   0.825   8.874   3.837 -2.1191 -1.0802  2.0407
33959SOL     OW 7712   6.430   6.826   5.448  0.5868 -0.3725 -0.2263
33959SOL    HW1 7713   6.361   6.888   5.422  0.2317 -0.3777  0.6358
33959SOL    HW2 7714   6.463   6.791   5.366  1.0300  1.2136 -0.7726
33960SOL     OW 7715  10.204   3.428   5.686 -0.5829  0.2301  0.0533
33960SOL    HW1 7716  10.159   3.438   5.602 -0.3855 -1.2958 -0.2659
33960SOL    HW2 7717  10.283   3.480   5.677 -1.5506  1.7852  0.0911
33961SOL     OW 7718   6.282   3.615   2.205  0.1814  0.1967  0.0804
33961SOL    HW1 7719   6.270   3.526   2.239 -0.4173 -0.2014 -1.0988
33961SOL    HW2 7720   6.300   3.668   2.282  2.8099 -1.3054  0.6099
33962SOL     OW 7721   4.398   8.477   1.772  0.4280  0.3161  0.0795
33962SOL    HW1 7722   4.377   8.486   1.864  1.5619 -0.7738  0.4747
33962SOL    HW2 7723   4.380   8.563   1.734  0.5017  0.9393  1.4314
33963SOL     OW 7724   4.111   7.984   9.717 -0.3813 -0.7680  0.0356
33963SOL    HW1 7725   4.149   7.908   9.761  0.4740 -0.0262  0.6109
33963SOL    HW2 7726   4.158   8.059   9.754 -0.0367 -0.0674 -1.7499
33964SOL     OW 7727   8.915   1.867   9.216 -0.2901  0.3625  0.7261
33964SOL    HW1 7728   8.870   1.794   9.259  0.0592 -1.1116 -1.3006
33964SOL    HW2 7729   9.004   1.864   9.249 -0.4454  0.3225  1.1516
33965SOL     OW 7730   6.362   0.387  10.329  0.0507  0.5640  0.0044
33965SOL    HW1 7731   6.309   0.365  10.252  0.1231  1.4660 -0.3179
33965SOL    HW2 7732   6.304   0.367  10.404 -0.6923  1.3788 -0.3376
33966SOL     OW 7733   1.544   1.337   4.458 -0.1401 -0.1743 -0.0042
33966SOL    HW1 7734   1.452   1.364   4.465  0.2737  1.0378  0.9674
33966SOL    HW2 7735   1.578   1.343   4.547  0.7175 -1.2954 -0.2314
33967SOL     OW 7736   9.505   6.501   0.234  0.0361 -0.1033  0.3142
33967SOL    HW1 7737   9.522   6.588   0.198  0.1813 -0.1177  0.3460
33967SOL    HW2 7738   9.470   6.518   0.321  0.5168 -0.0829  0.5092
33968SOL     OW 7739   4.264   4.626   9.996 -0.4432 -0.1045  0.4505
33968SOL    HW1 7740   4.258   4.709   9.948  1.6135 -0.1166  0.0968
33968SOL    HW2 7741   4.173   4.595  10.002 -1.1643  1.7927 -0.0566
33969SOL     OW 7742   5.478   1.532   9.150  0.4689 -0.2742 -0.4675
33969SOL    HW1 7743   5.421   1.498   9.081  0.5760 -2.5235  0.4366
33969SOL    HW2 7744   5.477   1.463   9.217 -0.0466  1.9884  2.0457
33970SOL     OW 7745   2.206   8.678   7.881  0.2834  0.2354  0.2983
33970SOL    HW1 7746   2.133   8.708   7.936 -0.0717  1.8588 -0.9900
33970SOL    HW2 7747   2.267   8.638   7.943 -1.4329 -0.7307  1.4779
33971SOL     OW 7748   8.769   6.234   5.090  0.2654 -0.9260 -0.2737
33971SOL    HW1 7749   8.860   6.245   5.119 -0.1402 -1.1100  1.1081
33971SOL    HW2 7750   8.716   6.275   5.158 -0.7370 -1.5408 -0.6589
33972SOL     OW 7751   1.832   8.894   5.138 -0.0075  0.3486  0.1930
33972SOL    HW1 7752   1.808   8.981   5.170 -0.0241  0.1661  0.6971
33972SOL    HW2 7753   1.874   8.852   5.213 -1.5944 -0.7119  0.5501
33973SOL     OW 7754   1.353   7.064   1.785  0.6667 -0.9405  0.0286
33973SOL    HW1 7755   1.431   7.008   1.781 -0.1619 -2.4048  2.2118
33973SOL    HW2 7756   1.355   7.100   1.874 -0.8329 -0.5299 -0.0878
33974SOL     OW 7757   9.309   3.953   2.009 -0.0447  0.3057  0.4403
33974SOL    HW1 7758   9.362   4.031   2.020 -1.6314  1.7949 -1.5092
33974SOL    HW2 7759   9.225   3.986   1.976 -1.0937 -2.1625  0.4091
33975SOL     OW 7760   6.712  10.443  10.384 -0.1857  0.1509  0.3383
33975SOL    HW1 7761   6.618  10.440  10.367 -0.3581 -0.1215  1.2558
33975SOL    HW2 7762   6.750  10.380  10.324 -0.5047  0.7777 -0.5339
33976SOL     OW 7763   5.590   9.432   5.580  0.5901  0.3879  0.1282
33976SOL    HW1 7764   5.626   9.386   5.656  1.9009  0.4134 -0.4463
33976SOL    HW2 7765   5.543   9.507   5.616  1.2280  0.4158  0.9160
33977SOL     OW 7766   5.889   4.950   9.848  0.0627 -0.1120 -0.3521
33977SOL    HW1 7767   5.806   4.995   9.830  1.0075  1.7475 -0.3268
33977SOL    HW2 7768   5.867   4.884   9.913 -1.2927  0.7508  0.1047
33978SOL     OW 7769   4.996   0.387   6.931 -0.0212  0.2924 -0.4430
33978SOL    HW1 7770   4.985   0.434   7.014  0.1742  0.1257 -0.3218
33978SOL    HW2 7771   4.949   0.440   6.867  0.1881  0.6496 -0.3040
33979SOL     OW 7772   0.071   0.986   8.762  0.1718  0.4307  0.1377
33979SOL    HW1 7773   0.005   0.932   8.805  1.0750 -0.6184  0.2671
33979SOL    HW2 7774   0.091   0.938   8.681  1.0081  0.5546  0.2669
33980SOL     OW 7775   0.719   9.416   2.691  0.0388 -0.0413  0.1823
33980SOL    HW1 7776   0.762   9.381   2.614  0.2710  0.1358  0.2298
33980SOL    HW2 7777   0.674   9.495   2.660 -0.3530 -0.2883  0.1083
33981SOL     OW 7778   4.817   9.466   8.054 -0.0170 -0.7138  0.5938
33981SOL    HW1 7779   4.728   9.464   8.090  0.1449 -0.3152  1.0139
33981SOL    HW2 7780   4.866   9.524   8.112  0.3981 -0.5441  0.0842
33982SOL     OW 7781   3.153   0.465   2.484  0.0317  0.2561 -0.1375
33982SOL    HW1 7782   3.156   0.371   2.502 -0.3811  0.0660 -1.0167
33982SOL    HW2 7783   3.208   0.504   2.552 -0.1788 -0.5735  0.5217
33983SOL     OW 7784   4.595   7.096   0.645  0.2048  0.1344  0.0176
33983SOL    HW1 7785   4.627   7.024   0.591 -1.4379 -1.2102  0.7556
33983SOL    HW2 7786   4.608   7.066   0.735 -0.6019  0.7263  0.3416
33984SOL     OW 7787   1.643   9.690   5.625 -0.2440  0.1569 -0.1839
33984SOL    HW1 7788   1.586   9.637   5.569  2.4535 -1.7898 -1.2854
33984SOL    HW2 7789   1.593   9.771   5.639 -3.6882 -1.7741 -0.1377
33985SOL     OW 7790   8.466   1.560   3.632 -0.4953  0.3707  0.3321
33985SOL    HW1 7791   8.546   1.573   3.582 -1.2735  6.5656 -0.0617
33985SOL    HW2 7792   8.395   1.580   3.571 -1.9297  1.0672  2.1250
33986SOL     OW 7793   9.371   7.385   7.296 -0.1553 -0.2055  0.5270
33986SOL    HW1 7794   9.391   7.454   7.233  1.1661 -1.3712 -0.4200
33986SOL    HW2 7795   9.278   7.368   7.284 -0.1996  0.4888 -0.1876
33987SOL     OW 7796   1.969   4.755   1.697 -0.2078  0.6030 -0.7235
33987SOL    HW1 7797   2.032   4.826   1.700  0.3000  0.1292  0.6578
33987SOL    HW2 7798   1.896   4.786   1.750 -1.1659  1.1228 -2.2597
33988SOL     OW 7799   3.524  10.583   9.887  0.0025 -0.3384 -0.4786
33988SOL    HW1 7800   3.512  10.630   9.804  0.2033 -1.9983 -1.4826
33988SOL    HW2 7801   3.570  10.646   9.943  1.0409  0.3936 -2.0622
33989SOL     OW 7802   9.480   0.535   9.389 -0.4774 -0.7400 -0.6146
33989SOL    HW1 7803   9.399   0.484   9.390 -0.5733 -0.5952  0.3416
33989SOL    HW2 7804   9.515   0.526   9.478 -1.3119  2.1254  0.1031
33990SOL     OW 7805   4.695  10.428   1.768 -0.2831  0.1470 -0.0102
33990SOL    HW1 7806   4.734  10.461   1.687 -0.3458  0.4158  0.0706
33990SOL    HW2 7807   4.602  10.421   1.749 -0.5064  1.5332  0.4791
33991SOL     OW 7808  10.684   9.023   8.912  0.2463  0.3741 -0.2349
33991SOL    HW1 7809  10.726   8.942   8.883  1.0232  0.7579 -0.2154
33991SOL    HW2 7810  10.660   9.007   9.003  0.0111  0.0228 -0.3571
33992SOL     OW 7811   7.852   9.615   6.776 -0.3005 -0.3548  0.0775
33992SOL    HW1 7812   7.823   9.528   6.803  1.6594 -0.2624  2.9477
33992SOL    HW2 7813   7.946   9.605   6.760 -0.4123  0.8565 -1.5744
33993SOL     OW 7814   3.848  10.149   6.589 -0.2222 -0.6089  0.0636
33993SOL    HW1 7815   3.771  10.139   6.645  0.6825 -1.2703  1.2444
33993SOL    HW2 7816   3.848  10.241   6.564 -0.8315 -0.3631  0.9071
33994SOL     OW 7817   7.812   1.035   3.369 -0.1544 -0.3675 -0.3358
33994SOL    HW1 7818   7.867   1.113   3.381 -1.7825  1.0473 -1.6274
33994SOL    HW2 7819   7.727   1.069   3.342 -0.4754 -2.6441 -2.5785
33995SOL     OW 7820   9.268   0.054   5.500 -0.1383  0.0827  0.0585
33995SOL    HW1 7821   9.261  -0.003   5.423 -2.1528 -1.6079  1.3740
33995SOL    HW2 7822   9.178   0.074   5.524  0.4305  0.7732  1.8173
33996SOL     OW 7823   6.283  10.682   6.366  0.2430  0.1625 -0.5745
33996SOL    HW1 7824   6.263  10.593   6.335  2.1549 -0.1764 -0.9199
33996SOL    HW2 7825   6.240  10.740   6.303 -2.8478 -0.4255  0.8185
33997SOL     OW 7826   0.526  10.112   6.821  0.3801 -0.0685  0.0395
33997SOL    HW1 7827   0.444  10.133   6.867  0.9195  0.0114  0.9986
33997SOL    HW2 7828   0.507  10.130   6.729 -0.2650  1.3146  0.4057
33998SOL     OW 7829   0.902   4.354   4.281  0.2826  0.4987  0.1205
33998SOL    HW1 7830   0.967   4.293   4.248 -0.1992  1.4897 -2.9646
33998SOL    HW2 7831   0.818   4.309   4.266  0.0805  0.0645  2.2090
33999SOL     OW 7832   4.026  10.287   5.338  0.1874 -0.2451  0.0622
33999SOL    HW1 7833   4.034  10.195   5.312 -1.6430 -0.1878 -0.8552
33999SOL    HW2 7834   4.050  10.336   5.260 -1.1529 -0.0117 -0.2326
34000SOL     OW 7835   3.208  10.745   1.239 -0.4742 -0.0965  0.5580
34000SOL    HW1 7836   3.177  10.835   1.245 -0.2202  0.0527 -0.1852
34000SOL    HW2 7837   3.269  10.735   1.312 -1.3510 -0.0247  1.3183
34001SOL     OW 7838   3.657   3.990   4.921  0.4487 -0.5447  0.1884
34001SOL    HW1 7839   3.641   4.078   4.955 -1.0025 -0.3964 -0.7743
34001SOL    HW2 7840   3.728   4.001   4.858 -0.7869  0.2663 -1.1129
34002SOL     OW 7841   3.891   3.265   7.439  0.7449  0.2123 -0.2520
34002SOL    HW1 7842   3.811   3.309   7.409  1.5606  0.7322 -1.7624
34002SOL    HW2 7843   3.889   3.274   7.534  0.0279  2.0419 -0.3930
34003SOL     OW 7844   6.629   1.273   6.292  0.0995 -0.3627  0.1662
34003SOL    HW1 7845   6.696   1.206   6.301 -0.9613 -1.4251  0.3156
34003SOL    HW2 7846   6.610   1.275   6.198  0.6099  0.2231  0.0684
34004SOL     OW 7847  10.603   8.738   1.609 -0.3602  0.1217  0.4391
34004SOL    HW1 7848  10.560   8.689   1.539 -1.8196 -1.2164  2.1838
34004SOL    HW2 7849  10.532   8.785   1.653  0.0273 -1.1530  2.6166
34005SOL     OW 7850   3.264   0.052   3.642 -0.0301  0.1683  0.4271
34005SOL    HW1 7851   3.186   0.107   3.645  0.1976  0.5164  0.0804
34005SOL    HW2 7852   3.304   0.062   3.729 -0.1023  0.3901  0.4360
34006SOL     OW 7853   4.672   4.154   2.730 -0.0238  0.1342 -0.2721
34006SOL    HW1 7854   4.681   4.248   2.746 -0.1104 -0.1665  1.7918
34006SOL    HW2 7855   4.594   4.147   2.675  0.8833  1.3430 -1.8195
34007SOL     OW 7856   9.341   2.144   4.631  0.0270 -0.1566 -0.4498
34007SOL    HW1 7857   9.411   2.197   4.669  1.9573 -0.1912 -3.6641
34007SOL    HW2 7858   9.378   2.057   4.622  0.0956  0.0641 -3.1887
34008SOL     OW 7859   0.752   1.720   2.114 -0.8156  0.2071  0.7402
34008SOL    HW1 7860   0.810   1.791   2.143  1.2443 -0.1216 -2.2145
34008SOL    HW2 7861   0.810   1.644   2.103 -1.8341 -0.2892 -1.7833
34009SOL     OW 7862   2.246   3.316  10.755 -0.1125 -0.1203 -0.0931
34009SOL    HW1 7863   2.183   3.314  10.827  1.1277  2.7753  1.2364
34009SOL    HW2 7864   2.260   3.410  10.738  0.8307 -0.6951 -3.0711
34010SOL     OW 7865   4.963   1.430   9.194 -0.6025 -0.0921 -0.1840
34010SOL    HW1 7866   4.995   1.505   9.143  0.1525 -0.3719 -0.1303
34010SOL    HW2 7867   4.892   1.394   9.141  0.3339 -0.5283 -1.1826
34011SOL     OW 7868   4.495   0.012   1.389 -0.3562  0.1702  0.0994
34011SOL    HW1 7869   4.415   0.050   1.356 -0.4750  0.0415  0.2359
34011SOL    HW2 7870   4.536   0.082   1.440 -2.0465 -0.7169  2.8929
34012SOL     OW 7871   4.034   5.247  10.205  0.3701 -0.2737  0.7818
34012SOL    HW1 7872   4.078   5.223  10.123  1.1092  0.1322  1.0403
34012SOL    HW2 7873   4.002   5.336  10.189  0.2576 -0.3040  0.8371
34013SOL     OW 7874   8.792   0.543   9.309  0.4847 -0.6321  0.3991
34013SOL    HW1 7875   8.834   0.627   9.291  0.4891 -0.6157  0.4841
34013SOL    HW2 7876   8.857   0.495   9.361  0.7963 -0.9833 -0.2970
34014SOL     OW 7877   9.451   3.908   1.520  0.0996  0.0873  0.1956
34014SOL    HW1 7878   9.456   3.890   1.614  1.5068 -0.5165  0.0364
34014SOL    HW2 7879   9.543   3.911   1.492 -0.2982 -1.6585 -1.4918
34015SOL     OW 7880   2.836   4.727   3.878 -0.5580  0.3845 -0.1949
34015SOL    HW1 7881   2.923   4.759   3.901  0.6999 -0.4445 -3.1942
34015SOL    HW2 7882   2.824   4.648   3.929  0.7491  0.1820 -0.1806
34016SOL     OW 7883   7.653   2.260   7.721 -0.6591 -0.2084 -0.0641
34016SOL    HW1 7884   7.630   2.207   7.644 -0.5289  0.7558 -0.7887
34016SOL    HW2 7885   7.574   2.310   7.739 -1.2985 -1.7126  1.5603
34017SOL     OW 7886   3.912   6.473   6.502 -0.1180 -0.3331  0.3927
34017SOL    HW1 7887   3.847   6.403   6.491  0.7868 -1.1319 -0.0840
34017SOL    HW2 7888   3.921   6.511   6.415  0.6210 -0.7601  0.2750
34018SOL     OW 7889   0.204   6.074  10.256  0.2948 -0.2827 -0.1686
34018SOL    HW1 7890   0.203   6.093  10.350 -1.7692  1.8731 -0.5194
34018SOL    HW2 7891   0.138   6.005  10.245 -0.2887  0.2691 -0.1537
34019SOL     OW 7892   8.525   5.600   7.724  0.2980  0.7273  0.0185
34019SOL    HW1 7893   8.546   5.570   7.813  0.9651  1.4021  0.0887
34019SOL    HW2 7894   8.552   5.691   7.722  0.2008  0.7412 -0.8596
34020SOL     OW 7895   7.854   9.395  10.041  0.1097  0.2441  0.6192
34020SOL    HW1 7896   7.763   9.393  10.014  0.6253 -0.7325 -1.2421
34020SOL    HW2 7897   7.872   9.488  10.058 -1.4595  0.3254  1.9989
34021SOL     OW 7898   1.951   5.535   1.609  0.0683  0.4447 -0.1078
34021SOL    HW1 7899   2.025   5.591   1.584  0.1191  0.1710 -0.5967
34021SOL    HW2 7900   1.931   5.486   1.529  0.5386 -0.7973  0.5103
34022SOL     OW 7901   2.695   5.338   6.494  0.1997 -0.1206  0.1252
34022SOL    HW1 7902   2.704   5.362   6.587 -0.5633 -0.2219  0.2364
34022SOL    HW2 7903   2.600   5.337   6.480  0.2484 -1.5820 -0.2717
34023SOL     OW 7904   7.738   1.132   8.673  0.2210 -0.0789 -0.7812
34023SOL    HW1 7905   7.826   1.170   8.676  1.2693 -2.3611  0.3257
34023SOL    HW2 7906   7.694   1.166   8.751  1.1448 -1.0972  0.2102
34024SOL     OW 7907  10.110   1.584   4.758  0.0376  0.2557 -0.3451
34024SOL    HW1 7908  10.122   1.506   4.812  0.0181 -0.4843 -1.4033
34024SOL    HW2 7909  10.017   1.605   4.766 -0.2961 -0.8050 -1.3800
34025SOL     OW 7910   6.834   0.088   7.657  0.2245  0.1418  0.0572
34025SOL    HW1 7911   6.747   0.116   7.685 -0.5202 -1.0661 -0.9007
34025SOL    HW2 7912   6.840   0.115   7.565  1.5114  1.6056  0.5362
34026SOL     OW 7913   3.932   3.670   7.558  0.5882 -0.0927 -0.0178
34026SOL    HW1 7914   3.888   3.596   7.599  2.2623 -0.8014  0.5814
34026SOL    HW2 7915   3.925   3.654   7.464  0.3473 -0.6555  0.0924
34027SOL     OW 7916   8.078   6.787   5.160 -0.3295 -0.4431  0.0845
34027SOL    HW1 7917   8.158   6.776   5.212  0.0830 -3.4162 -0.9493
34027SOL    HW2 7918   8.105   6.764   5.071 -1.7342  1.4173 -0.8855
34028SOL     OW 7919   2.753   8.036  10.577 -0.5236  0.5908  0.1805
34028SOL    HW1 7920   2.838   8.065  10.545 -0.0569 -0.4460  0.4068
34028SOL    HW2 7921   2.763   8.031  10.672 -0.4724 -0.5709  0.1326
34029SOL     OW 7922   7.192   9.132   9.784 -0.5968  0.3123 -0.4142
34029SOL    HW1 7923   7.176   9.039   9.770  2.1279 -0.3882  0.4858
34029SOL    HW2 7924   7.140   9.154   9.861 -2.2493 -0.1052 -1.3736
34030SOL     OW 7925   4.065   9.673   3.535 -0.6038  0.7254 -0.6896
34030SOL    HW1 7926   3.992   9.713   3.488 -2.4189 -0.4670  0.9555
34030SOL    HW2 7927   4.121   9.746   3.560  0.2898  1.4572 -4.2539
34031SOL     OW 7928   1.466   7.120   1.273  0.0857 -0.6003  0.1473
34031SOL    HW1 7929   1.395   7.122   1.337 -0.6448  1.8397 -0.6325
34031SOL    HW2 7930   1.532   7.064   1.313  0.2407  1.8215  3.7380
34032SOL     OW 7931   1.558   8.637  10.733 -0.2144  0.1439 -0.3492
34032SOL    HW1 7932   1.600   8.582  10.800  0.4957  0.5445 -0.4638
34032SOL    HW2 7933   1.581   8.595  10.650  2.2187  1.8181 -0.6025
34033SOL     OW 7934   1.778   7.230   5.344 -0.2117 -0.2874 -0.1382
34033SOL    HW1 7935   1.715   7.186   5.402 -0.4867 -1.1999 -1.1077
34033SOL    HW2 7936   1.743   7.217   5.256  0.7503  0.1769 -0.6024
34034SOL     OW 7937   0.768   8.221   8.627 -0.7940 -0.0686  0.7299
34034SOL    HW1 7938   0.744   8.141   8.674 -1.8998 -0.3824 -0.2993
34034SOL    HW2 7939   0.693   8.239   8.570  0.0714  0.8498 -0.1783
34035SOL     OW 7940   8.723   1.576   4.875  0.2000 -0.5074 -0.2030
34035SOL    HW1 7941   8.672   1.578   4.794 -0.7630 -1.3056  0.3649
34035SOL    HW2 7942   8.696   1.495   4.918 -0.0296  0.3640  1.3722
34036SOL     OW 7943  10.587   1.729   7.399 -0.1374  0.1612  0.1728
34036SOL    HW1 7944  10.650   1.797   7.424 -0.2905  0.5793 -0.5387
34036SOL    HW2 7945  10.532   1.771   7.333  0.1528 -0.8597 -0.7382
34037SOL     OW 7946   2.009   0.058   0.631 -0.3467  0.4477  0.3410
34037SOL    HW1 7947   2.064   0.128   0.595  3.1082 -1.8306  0.7366
34037SOL    HW2 7948   2.036  -0.021   0.585 -4.2113 -0.7633 -0.2019
34038SOL     OW 7949   3.249   8.352   4.724 -0.5793 -0.8796  0.0487
34038SOL    HW1 7950   3.333   8.393   4.746 -0.0611 -2.1049  0.4288
34038SOL    HW2 7951   3.185   8.396   4.781  0.2012 -1.6086  1.5491
34039SOL     OW 7952   5.827   5.065   8.378  0.2410 -0.1765  0.4340
34039SOL    HW1 7953   5.903   5.122   8.390  1.2081 -1.1425 -0.8004
34039SOL    HW2 7954   5.765   5.092   8.447  1.0013  1.7497  0.4176
34040SOL     OW 7955   0.023   2.540   9.143 -0.3746 -0.6129 -0.1375
34040SOL    HW1 7956   0.094   2.476   9.134 -0.1021 -0.0368 -2.5587
34040SOL    HW2 7957   0.065   2.617   9.181 -0.3506 -1.2384  1.1606
34041SOL     OW 7958   8.140   5.898   4.346 -0.1365  0.2400  0.3767
34041SOL    HW1 7959   8.164   5.808   4.366 -1.8546  0.2038  2.6318
34041SOL    HW2 7960   8.191   5.920   4.268 -1.1099 -3.3320 -1.4605
34042SOL     OW 7961   9.111   3.430   7.722  0.3794  0.4857 -0.4850
34042SOL    HW1 7962   9.205   3.445   7.719  0.7355 -0.9332  1.5111
34042SOL    HW2 7963   9.072   3.517   7.729  1.7682  1.0074  1.6896
34043SOL     OW 7964   1.963   1.209   9.472  0.7879 -0.4102 -0.1086
34043SOL    HW1 7965   2.037   1.192   9.414 -1.4061 -0.9866 -3.0010
34043SOL    HW2 7966   1.926   1.122   9.490 -0.1462 -0.0327 -0.1440
34044SOL     OW 7967   8.499   0.031   9.915  0.1829 -0.7006 -0.1904
34044SOL    HW1 7968   8.558   0.003   9.845  1.0855 -2.8301  1.3008
34044SOL    HW2 7969   8.549   0.019   9.995 -1.9126 -1.7356  1.0783
34045SOL     OW 7970   6.854   4.163   0.282  0.5625 -0.0575 -0.3153
34045SOL    HW1 7971   6.762   4.163   0.257  0.8684  0.8821 -1.5827
34045SOL    HW2 7972   6.901   4.142   0.201  1.4147 -2.7380  0.7601
34046SOL     OW 7973  10.013   7.268   3.590 -0.0598  0.0484 -0.0496
34046SOL    HW1 7974  10.022   7.288   3.497  0.6669 -0.5337 -0.1114
34046SOL    HW2 7975  10.099   7.233   3.616  0.0676  1.0948  1.0620
34047SOL     OW 7976   7.903   6.441   7.774 -0.2647 -0.0907  0.0513
34047SOL    HW1 7977   7.895   6.536   7.767 -0.9490 -0.0653  0.9256
34047SOL    HW2 7978   7.945   6.414   7.693  0.6103  1.0289  0.1079
34048SOL     OW 7979   4.481   5.617   0.462  0.1072  0.5245 -0.1740
34048SOL    HW1 7980   4.403   5.560   0.457  1.4067 -1.4271  0.4023
34048SOL    HW2 7981   4.460   5.679   0.532 -1.1424  0.4185 -0.4195
34049SOL     OW 7982   7.753   5.771   3.360 -0.3028 -0.5740  0.1799
34049SOL    HW1 7983   7.784   5.713   3.429  0.9098  1.5334  1.4961
34049SOL    HW2 7984   7.659   5.754   3.355 -0.1686 -1.7895  1.3188
34050SOL     OW 7985   6.891   5.562   1.928 -0.7159 -0.0789  0.5621
34050SOL    HW1 7986   6.818   5.506   1.954 -0.6929 -0.7311 -0.7185
34050SOL    HW2 7987   6.884   5.569   1.833 -0.4119  1.6925  0.6391
34051SOL     OW 7988   6.007   2.416   0.326 -0.1513  0.0233 -0.1943
34051SOL    HW1 7989   5.967   2.450   0.246  0.2579  1.4354  0.1736
34051SOL    HW2 7990   5.943   2.436   0.395  0.0017 -0.1512  0.0005
34052SOL     OW 7991   1.089   9.161   2.283  0.3483 -0.4450  0.5825
34052SOL    HW1 7992   1.067   9.074   2.313 -0.2016 -0.5022  0.0466
34052SOL    HW2 7993   1.184   9.166   2.290  0.5645 -1.6977 -0.9435
34053SOL     OW 7994   3.399   1.534   0.934 -0.1272 -0.8641 -0.0533
34053SOL    HW1 7995   3.330   1.571   0.880  1.8504  1.4317 -1.2552
34053SOL    HW2 7996   3.392   1.439   0.923 -2.8296 -0.6836 -0.3327
34054SOL     OW 7997   3.730   7.167  10.651  0.0879 -0.0450 -0.2561
34054SOL    HW1 7998   3.770   7.240  10.603  0.7799  0.2241  0.7026
34054SOL    HW2 7999   3.763   7.089  10.607  2.0183  0.1558  0.7071
34055SOL     OW 8000   5.939   2.809   2.531 -0.1826  0.5231  0.0094
34055SOL    HW1 8001   5.889   2.889   2.548  0.4044  0.9813 -0.3969
34055SOL    HW2 8002   5.883   2.758   2.471 -1.2960 -0.1402  1.5413
34056SOL     OW 8003  10.809   9.787   8.015  0.0604  0.0354 -0.0214
34056SOL    HW1 8004  10.761   9.751   7.940  0.2320 -0.8823  0.2997
34056SOL    HW2 8005  10.777   9.737   8.090  0.5038  0.3705  0.3910
34057SOL     OW 8006   3.920   9.905  10.536 -0.2671  0.2952  0.1164
34057SOL    HW1 8007   3.856   9.956  10.488 -1.5875 -1.2680  0.1157
34057SOL    HW2 8008   3.961   9.849  10.470 -0.6001 -0.3704  0.4565
34058SOL     OW 8009   0.931   4.891   5.671  0.5136  0.2275 -0.4533
34058SOL    HW1 8010   0.854   4.867   5.722  0.8208  0.3429  0.0737
34058SOL    HW2 8011   0.901   4.889   5.580  0.0370 -0.2674 -0.2914
34059SOL     OW 8012   4.553   8.640   0.442  0.0703 -0.5441  0.4776
34059SOL    HW1 8013   4.565   8.735   0.449  1.6880 -0.6034 -0.8112
34059SOL    HW2 8014   4.617   8.603   0.502  0.1889 -0.8214  0.1856
34060SOL     OW 8015  10.412   1.617   2.708  0.3478 -0.4420 -0.1625
34060SOL    HW1 8016  10.352   1.645   2.777  1.2076 -1.7335  1.1601
34060SOL    HW2 8017  10.356   1.572   2.645 -0.3328 -0.0297  0.1388
34061SOL     OW 8018   4.286   8.391   8.949  0.3004 -0.1318  0.1538
34061SOL    HW1 8019   4.210   8.435   8.987  1.2962  0.5004  1.5265
34061SOL    HW2 8020   4.254   8.305   8.924 -0.9076  0.1828  0.5334
34062SOL     OW 8021   6.017   3.386   3.466 -0.5958  0.1641 -0.7721
34062SOL    HW1 8022   6.018   3.298   3.503 -0.2393  0.4108 -0.1814
34062SOL    HW2 8023   5.937   3.389   3.412 -1.1937 -0.1692  0.0757
34063SOL     OW 8024  10.653   5.984   0.125  0.0992  0.3416 -0.2553
34063SOL    HW1 8025  10.657   6.001   0.220 -0.3596 -0.3119 -0.1136
34063SOL    HW2 8026  10.570   5.938   0.112  0.0251  0.6828 -1.0227
34064SOL     OW 8027   2.931   9.836   8.807 -0.6374 -0.3363 -0.3557
34064SOL    HW1 8028   2.873   9.898   8.763  0.3659  1.1203  0.2799
34064SOL    HW2 8029   2.876   9.762   8.828 -2.9590  1.9312  2.3890
34065SOL     OW 8030   9.121   5.951   6.910  0.1493  0.5161  0.5371
34065SOL    HW1 8031   9.043   5.982   6.865  0.4770 -0.8409 -1.0912
34065SOL    HW2 8032   9.096   5.866   6.946  0.5638  0.5680  0.9616
34066SOL     OW 8033   9.768   1.708   5.792 -0.3841 -0.4633  0.2309
34066SOL    HW1 8034   9.729   1.661   5.718  2.7772 -2.0765 -0.5590
34066SOL    HW2 8035   9.799   1.639   5.851  0.2090  0.7404  1.3763
34067SOL     OW 8036   5.693   4.418   1.575 -0.0678 -0.0571 -0.1738
34067SOL    HW1 8037   5.606   4.379   1.565  0.1083 -0.6183  0.4259
34067SOL    HW2 8038   5.740   4.358   1.633  0.1273  1.1489  0.9690
34068SOL     OW 8039   8.426   1.432  10.268 -0.3251  0.4588 -0.5385
34068SOL    HW1 8040   8.481   1.502  10.233  1.4570 -0.8520 -0.5281
34068SOL    HW2 8041   8.400   1.381  10.191 -0.4879  0.3803 -0.4318
34069SOL     OW 8042   3.230   1.604   2.170  0.6765  0.4358 -0.2098
34069SOL    HW1 8043   3.170   1.666   2.212 -0.4097 -0.5926 -0.1866
34069SOL    HW2 8044   3.273   1.558   2.243 -2.1340 -2.2487 -0.0195
34070SOL     OW 8045   8.286   7.235   7.085  0.2585  0.0324  0.4597
34070SOL    HW1 8046   8.312   7.246   6.994  0.2726 -2.4489  0.0993
34070SOL    HW2 8047   8.359   7.271   7.135  0.0848  1.7639 -0.4536
34071SOL     OW 8048   0.344   8.029   2.094  0.1635  0.4956  0.2682
34071SOL    HW1 8049   0.424   8.034   2.041 -0.7704 -1.0898 -1.4259
34071SOL    HW2 8050   0.350   8.103   2.154  1.6810  1.9223 -1.5260
34072SOL     OW 8051  10.764   3.716   5.042 -0.1039  0.1455  0.3543
34072SOL    HW1 8052  10.856   3.743   5.041  0.1072 -0.5287 -0.9861
34072SOL    HW2 8053  10.720   3.783   5.094  0.7200  1.9542 -1.1793
34073SOL     OW 8054   7.988   9.366   3.496 -0.7174  0.1958  0.0501
34073SOL    HW1 8055   8.039   9.306   3.551  0.1033  0.0057 -0.8822
34073SOL    HW2 8056   8.005   9.453   3.534 -2.8816 -0.1981  2.1613
34074SOL     OW 8057  10.614   3.481   0.745  0.3737  0.0822  0.0162
34074SOL    HW1 8058  10.687   3.538   0.722  1.5679 -1.3435  0.1646
34074SOL    HW2 8059  10.549   3.497   0.676  1.3080  0.5122 -0.7838
34075SOL     OW 8060   0.898  10.181   2.269 -0.8048  0.4627  0.1335
34075SOL    HW1 8061   0.920  10.250   2.207 -0.7014  0.7894  0.5298
34075SOL    HW2 8062   0.953  10.199   2.346 -2.1651  1.0685  0.9883
34076SOL     OW 8063   7.962   8.385   5.011  0.1286 -0.1930  0.1598
34076SOL    HW1 8064   7.931   8.425   4.929  2.8342  0.7121 -0.5070
34076SOL    HW2 8065   7.897   8.411   5.076 -1.6094 -0.1741 -1.4933
34077SOL     OW 8066   7.014   2.334   6.188  0.2925  0.6091  0.5069
34077SOL    HW1 8067   6.941   2.395   6.202 -0.1910 -0.3207  2.4526
34077SOL    HW2 8068   7.062   2.335   6.272  2.2796  0.8405 -0.5670
34078SOL     OW 8069   1.514   7.132   9.222  0.6337 -0.6778  0.0609
34078SOL    HW1 8070   1.591   7.150   9.276  1.0383 -1.0593 -0.3886
34078SOL    HW2 8071   1.549   7.099   9.139  0.0716  1.0928 -0.9327
34079SOL     OW 8072   9.539  10.369   6.489 -0.2980  0.3093  0.0245
34079SOL    HW1 8073   9.514  10.287   6.447  0.1056 -0.6569  1.5767
34079SOL    HW2 8074   9.508  10.437   6.430 -0.7600 -0.9592 -1.2387
34080SOL     OW 8075   7.348   8.039   0.416 -0.0837 -0.0008 -0.4857
34080SOL    HW1 8076   7.346   8.133   0.396 -2.0973 -0.2431 -1.6074
34080SOL    HW2 8077   7.300   8.031   0.499 -2.1670 -0.2585 -1.6534
34081SOL     OW 8078   5.145   0.283   7.586 -0.4035 -0.3475 -0.1371
34081SOL    HW1 8079   5.211   0.232   7.540 -0.2027  0.6748 -1.0220
34081SOL    HW2 8080   5.072   0.289   7.525 -0.2961  0.6809 -0.1902
34082SOL     OW 8081  10.740   9.317   6.079  0.3111 -0.1858  0.4658
34082SOL    HW1 8082  10.806   9.305   6.147 -0.0558 -0.5245  0.7646
34082SOL    HW2 8083  10.660   9.283   6.117 -0.0539  0.2864  0.1280
34083SOL     OW 8084   5.892   7.093   8.199 -1.0523 -0.7564 -0.2001
34083SOL    HW1 8085   5.855   7.166   8.248 -1.2471 -0.9437 -0.0641
34083SOL    HW2 8086   5.825   7.072   8.133 -2.6498 -3.0872  1.9609
34084SOL     OW 8087   1.929   0.927   5.847 -0.2712 -0.5157 -0.0621
34084SOL    HW1 8088   1.855   0.980   5.816  0.9206  0.7182 -0.8980
34084SOL    HW2 8089   1.914   0.918   5.941 -0.5944  1.2228  0.0861
34085SOL     OW 8090   3.041   3.118   8.569 -0.3192  0.2146  0.4749
34085SOL    HW1 8091   3.077   3.063   8.499 -0.2536  0.2812  0.4570
34085SOL    HW2 8092   3.112   3.125   8.633 -1.2973 -2.3297  2.0128
34086SOL     OW 8093   8.848   3.271   0.724 -0.1220 -0.0308 -0.1355
34086SOL    HW1 8094   8.886   3.293   0.638  4.5026 -1.7576  1.1329
34086SOL    HW2 8095   8.825   3.178   0.716  0.0410 -0.1135  0.3480
34087SOL     OW 8096  10.192   0.423   4.088  0.7465 -0.0596 -0.0368
34087SOL    HW1 8097  10.155   0.335   4.088  0.9526 -0.2201  2.4801
34087SOL    HW2 8098  10.268   0.417   4.031  0.9203 -1.6180  0.3183
34088SOL     OW 8099  10.232   1.928   3.315 -0.1179 -0.1333 -0.2260
34088SOL    HW1 8100  10.306   1.963   3.366  1.4411 -0.6061 -2.0505
34088SOL    HW2 8101  10.216   1.842   3.352 -0.5170  0.4114  0.9078
34089SOL     OW 8102   6.688   2.952   9.953 -0.3991  0.6934  1.1601
34089SOL    HW1 8103   6.620   2.960  10.020 -1.4142  0.1265  0.2286
34089SOL    HW2 8104   6.643   2.915   9.877  1.4398 -2.3047  1.3493
34090SOL     OW 8105   7.026   4.033   3.283  0.1611 -0.0718  0.5043
34090SOL    HW1 8106   7.055   4.106   3.228 -0.2780  0.4104  0.8936
34090SOL    HW2 8107   7.106   3.990   3.311  0.3993 -0.1643 -0.2979
34091SOL     OW 8108   5.484   4.021   0.565 -0.4196 -0.2152  0.4652
34091SOL    HW1 8109   5.564   3.987   0.525 -0.2814  1.3349 -0.6819
34091SOL    HW2 8110   5.413   3.978   0.517 -0.2606 -0.4686  0.4592
34092SOL     OW 8111   6.608  10.060   7.841  0.1767 -0.4036 -0.5048
34092SOL    HW1 8112   6.513  10.069   7.852 -0.3955 -2.0408 -3.2345
34092SOL    HW2 8113   6.633  10.135   7.786  0.8292  0.9450  1.5301
34093SOL     OW 8114   9.479   2.777   6.421  0.6926 -0.0904 -0.2021
34093SOL    HW1 8115   9.407   2.840   6.423  0.0561 -0.7901  1.0832
34093SOL    HW2 8116   9.536   2.803   6.493  0.4083 -0.9498  0.3602
34094SOL     OW 8117   0.670   7.346   3.779 -0.0725  0.2247  0.2968
34094SOL    HW1 8118   0.652   7.318   3.869 -1.0445  0.2886  0.1385
34094SOL    HW2 8119   0.668   7.265   3.728 -0.1121  0.2569  0.2466
34095SOL     OW 8120  10.687   0.951   8.208 -0.2211 -0.3172  0.7028
34095SOL    HW1 8121  10.743   0.997   8.146 -1.2856 -1.5965 -1.2990
34095SOL    HW2 8122  10.729   0.966   8.293  0.8962  2.0915 -0.1759
34096SOL     OW 8123   0.859   0.753   6.228 -0.1996  0.0708 -0.0414
34096SOL    HW1 8124   0.849   0.659   6.217  0.2644  0.2459 -2.6620
34096SOL    HW2 8125   0.912   0.780   6.153  1.7928  2.0988  1.9219
34097SOL     OW 8126   9.917  10.383   2.131  0.1551 -0.3571 -0.3361
34097SOL    HW1 8127   9.976  10.308   2.143 -0.3356 -1.0275 -1.8440
34097SOL    HW2 8128   9.865  10.360   2.053 -0.7753  1.0630 -0.1640
34098SOL     OW 8129   3.729   1.510   8.383 -0.6315  0.5635 -1.0550
34098SOL    HW1 8130   3.761   1.475   8.466 -0.2586 -0.3335 -1.5738
34098SOL    HW2 8131   3.667   1.579   8.409  2.6180  3.3201  0.0158
34099SOL     OW 8132   4.395   6.414   2.253  0.1324 -0.2644 -0.0450
34099SOL    HW1 8133   4.473   6.446   2.300 -0.1896 -0.2956  0.5234
34099SOL    HW2 8134   4.363   6.341   2.307 -0.8974  0.4184  0.2878
34100SOL     OW 8135   4.313   7.722  10.351 -0.1070  0.1808 -0.4954
34100SOL    HW1 8136   4.307   7.627  10.355  0.5041  0.1793  1.2461
34100SOL    HW2 8137   4.225   7.753  10.371 -0.7086  0.0223 -2.6114
34101SOL     OW 8138   2.186   0.092   2.473 -0.2097 -0.0135 -0.1148
34101SOL    HW1 8139   2.226   0.177   2.452 -0.4261 -0.1363 -1.0799
34101SOL    HW2 8140   2.250   0.049   2.530  0.0530  0.6635  0.1169
34102SOL     OW 8141   5.636   8.991   9.637 -0.5139  0.1224  0.5775
34102SOL    HW1 8142   5.578   8.969   9.565 -0.9849  0.1448  0.9433
34102SOL    HW2 8143   5.610   9.079   9.664 -1.0856 -0.2937  1.4661
34103SOL     OW 8144   0.135   1.897   4.252  0.3317 -0.2466  0.3281
34103SOL    HW1 8145   0.114   1.891   4.158  1.1013  2.4688 -0.1117
34103SOL    HW2 8146   0.090   1.977   4.281  2.4054  0.5717  1.5364
34104SOL     OW 8147   7.494   1.160   8.524 -0.3522 -0.2406 -0.2590
34104SOL    HW1 8148   7.437   1.095   8.565 -0.0798  0.4503  1.2758
34104SOL    HW2 8149   7.577   1.153   8.570 -0.2373  1.0126 -0.2229
34105SOL     OW 8150   1.370   6.904   4.632  0.4282 -0.0372  0.7472
34105SOL    HW1 8151   1.462   6.888   4.612  0.7122 -0.4940  2.3211
34105SOL    HW2 8152   1.370   6.983   4.686 -0.1680  0.2550  0.3338
34106SOL     OW 8153   5.329   8.090   1.222  0.9450 -0.3522 -0.1559
34106SOL    HW1 8154   5.409   8.040   1.237  0.6824 -0.8616 -0.3972
34106SOL    HW2 8155   5.350   8.147   1.148  1.3886  0.2238  0.4079
34107SOL     OW 8156   7.398   6.435   4.090  0.1039 -0.3173 -0.4517
34107SOL    HW1 8157   7.442   6.354   4.116  0.2428 -0.7269 -1.8609
34107SOL    HW2 8158   7.445   6.504   4.137 -0.7289 -1.1088  1.6365
34108SOL     OW 8159   1.475   6.147   1.537  0.2557  0.4173 -0.0839
34108SOL    HW1 8160   1.412   6.144   1.609  0.8215 -2.3356  0.4161
34108SOL    HW2 8161   1.552   6.189   1.574 -0.1948  0.9997  0.2188
34109SOL     OW 8162   1.490   3.280   5.179  0.1710 -0.6069 -0.0441
34109SOL    HW1 8163   1.514   3.327   5.099 -0.2030  0.5791  0.5282
34109SOL    HW2 8164   1.397   3.299   5.191  0.0618 -1.3329  0.3205
34110SOL     OW 8165   5.034   1.752   1.226  0.4083 -0.1541  0.0946
34110SOL    HW1 8166   4.960   1.811   1.215  0.4495 -0.1711 -0.2955
34110SOL    HW2 8167   5.111   1.808   1.222  0.4033 -0.0460  1.1629
34111SOL     OW 8168  10.813   6.232   1.266 -0.1737 -0.1354  0.1220
34111SOL    HW1 8169  10.774   6.203   1.183 -0.4415 -0.2102  0.2749
34111SOL    HW2 8170  10.867   6.158   1.294  0.1497  0.0020 -0.1354
34112SOL     OW 8171   0.136   2.101   8.166  0.5302  0.6401 -0.4948
34112SOL    HW1 8172   0.121   2.062   8.080  2.3217 -0.3695 -0.3810
34112SOL    HW2 8173   0.182   2.183   8.147 -3.5435  3.2116 -0.7659
34113SOL     OW 8174   8.594  10.005  10.329 -0.0761  0.2118  0.0868
34113SOL    HW1 8175   8.688  10.016  10.344 -0.4100  1.4955  1.4933
34113SOL    HW2 8176   8.572  10.073  10.266 -0.2993  0.8778  0.8674
34114SOL     OW 8177  10.690   8.475   5.439 -0.1086  0.3896  0.1318
34114SOL    HW1 8178  10.655   8.556   5.402  1.2393  0.4463 -1.0587
34114SOL    HW2 8179  10.775   8.463   5.397  0.6670 -0.5302  1.8613
34115SOL     OW 8180   2.500   8.427   8.625 -0.0068  0.4210 -0.2211
34115SOL    HW1 8181   2.536   8.399   8.541 -1.9833 -0.5981 -0.8049
34115SOL    HW2 8182   2.497   8.348   8.678  1.3027  1.0724  0.8881
34116SOL     OW 8183  10.016   8.037   9.520 -0.4106  0.4122  0.1718
34116SOL    HW1 8184  10.070   8.088   9.460 -0.3926 -0.7537 -0.8380
34116SOL    HW2 8185  10.033   8.076   9.606  0.7730  1.1114 -0.3488
34117SOL     OW 8186   0.453   9.568   8.613  0.1931 -0.2461  0.0771
34117SOL    HW1 8187   0.477   9.556   8.705  1.1297 -0.5938 -0.2019
34117SOL    HW2 8188   0.464   9.481   8.574  2.0011  0.3393 -0.8409
34118SOL     OW 8189   3.529   5.836   2.932  0.1771 -0.1521 -0.4630
34118SOL    HW1 8190   3.573   5.914   2.966  0.1346 -0.3429  0.0469
34118SOL    HW2 8191   3.596   5.767   2.936  0.6612  0.1617 -2.2575
34119SOL     OW 8192   5.831   7.677   0.717 -0.1156 -0.5482  0.1071
34119SOL    HW1 8193   5.890   7.730   0.665 -1.6682 -0.1974 -1.3777
34119SOL    HW2 8194   5.889   7.621   0.770  1.5094  0.3008 -0.7109
34120SOL     OW 8195   1.117   6.185   7.985  0.0922 -0.3127 -0.2879
34120SOL    HW1 8196   1.044   6.124   7.991  0.5102 -0.6579  2.3950
34120SOL    HW2 8197   1.076   6.272   7.986 -0.3191 -0.4987  1.3342
34121SOL     OW 8198   6.197   9.547   8.120 -0.5109  0.2682  0.2127
34121SOL    HW1 8199   6.281   9.529   8.077  0.3196 -0.3657  1.9916
34121SOL    HW2 8200   6.155   9.461   8.127 -1.8382  0.7078 -1.5889
34122SOL     OW 8201   4.912   6.484   1.372 -0.4598 -0.3497  0.3041
34122SOL    HW1 8202   4.817   6.491   1.383 -0.7912  0.3133 -2.2541
34122SOL    HW2 8203   4.948   6.558   1.421 -1.5229  1.0566 -0.9604
34123SOL     OW 8204   7.965   1.227   1.123 -0.0362  0.8820  0.2810
34123SOL    HW1 8205   8.011   1.268   1.049  1.7335 -0.7347  0.4022
34123SOL    HW2 8206   7.873   1.235   1.101  0.4040  1.5851 -1.4841
34124SOL     OW 8207   1.987   1.182   6.313 -0.2361 -0.0172 -0.0182
34124SOL    HW1 8208   1.904   1.190   6.362  0.3171  1.6157  0.7160
34124SOL    HW2 8209   1.962   1.199   6.222 -0.9242 -0.9086 -0.0124
34125SOL     OW 8210   1.617   0.503   2.367 -1.0821  0.2127 -0.1769
34125SOL    HW1 8211   1.712   0.494   2.374 -1.2643 -1.6480  0.5216
34125SOL    HW2 8212   1.602   0.528   2.276  0.0393 -0.3208 -0.5293
34126SOL     OW 8213   1.088  10.732   5.573 -0.0812 -0.0122  0.0749
34126SOL    HW1 8214   1.142  10.670   5.622  0.2305 -0.4126 -0.7456
34126SOL    HW2 8215   1.116  10.818   5.604  2.9421 -0.0467 -2.1045
34127SOL     OW 8216   5.530   8.407   5.205  0.3112 -0.0867  0.2465
34127SOL    HW1 8217   5.575   8.342   5.151  1.2185  0.3023  0.5067
34127SOL    HW2 8218   5.458   8.438   5.150  0.1740 -0.9404 -0.0703
34128SOL     OW 8219   1.130   7.312   2.533  0.2355  0.0435  0.5578
34128SOL    HW1 8220   1.215   7.283   2.499  0.0178 -0.0355  0.0653
34128SOL    HW2 8221   1.066   7.278   2.470 -0.3548 -1.6100  1.9630
34129SOL     OW 8222   3.169   7.228   5.372  0.6890 -0.0027 -0.0570
34129SOL    HW1 8223   3.085   7.217   5.327  0.5270 -0.1632  0.2903
34129SOL    HW2 8224   3.218   7.148   5.351 -0.4271 -1.4112  2.3344
34130SOL     OW 8225   2.224   2.027   5.267 -0.5202 -0.1541 -0.3432
34130SOL    HW1 8226   2.278   2.095   5.227  0.9065 -0.0655  1.6227
34130SOL    HW2 8227   2.198   2.063   5.352 -0.7305 -1.5918  0.2333
34131SOL     OW 8228   4.670   7.273   8.070 -0.1041 -0.1381  0.2078
34131SOL    HW1 8229   4.708   7.327   8.139 -0.4549 -0.1160  0.3853
34131SOL    HW2 8230   4.670   7.185   8.106 -0.7488 -0.0502  0.4371
34132SOL     OW 8231   0.634   4.139   5.096 -0.5659 -0.4840 -0.8357
34132SOL    HW1 8232   0.540   4.144   5.116 -0.5371 -3.4545  0.4700
34132SOL    HW2 8233   0.639   4.160   5.003 -2.5147 -0.2856 -0.9434
34133SOL     OW 8234   1.464   6.657   3.775 -0.1688  0.1635  0.0067
34133SOL    HW1 8235   1.554   6.628   3.758  0.1601  1.4957 -0.6584
34133SOL    HW2 8236   1.438   6.609   3.854  1.4326  0.3618  0.7033
34134SOL     OW 8237   5.356   4.300   7.978 -0.3746  0.3312 -0.1465
34134SOL    HW1 8238   5.299   4.312   8.054 -0.6607 -1.8893  0.0520
34134SOL    HW2 8239   5.442   4.278   8.016 -0.2081  0.4530 -0.4534
34135SOL     OW 8240  10.894   1.225   4.191 -0.1537  0.1092  0.0579
34135SOL    HW1 8241  10.949   1.284   4.139 -0.5451  1.2064  0.8328
34135SOL    HW2 8242  10.842   1.178   4.127  0.3778  0.4030 -0.6051
34136SOL     OW 8243   5.115  10.841   3.854  0.2153  0.0845 -0.2363
34136SOL    HW1 8244   5.190  10.893   3.825 -0.3636  1.8221  1.2181
34136SOL    HW2 8245   5.127  10.831   3.948 -0.2514 -1.5631 -0.3228
34137SOL     OW 8246   5.340  10.318   6.865  0.1049 -0.2514 -0.1817
34137SOL    HW1 8247   5.300  10.355   6.944  1.3304 -0.4658  0.5583
34137SOL    HW2 8248   5.322  10.224   6.871 -0.8277 -0.1285 -0.7837
34138SOL     OW 8249   8.837   9.981   5.553  0.4637  0.0315 -0.2592
34138SOL    HW1 8250   8.798   9.905   5.510  1.0166  0.7241 -2.0592
34138SOL    HW2 8251   8.927   9.982   5.523  1.0742  0.1859  1.4684
34139SOL     OW 8252   7.759   1.954   6.108  0.1131 -0.4965 -0.5128
34139SOL    HW1 8253   7.816   1.888   6.069  1.1007 -0.4290  0.7218
34139SOL    HW2 8254   7.710   1.907   6.175  0.3403 -0.1309 -0.0797
34140SOL     OW 8255  10.605   8.254   3.760  0.2071 -0.0878  0.5515
34140SOL    HW1 8256  10.611   8.194   3.686  1.5315 -0.2515  0.7627
34140SOL    HW2 8257  10.651   8.333   3.731 -3.8510  2.0463 -0.7706
34141SOL     OW 8258   8.701   1.363   9.881  0.0516 -0.7438  0.0482
34141SOL    HW1 8259   8.757   1.382   9.806  0.4651 -0.1447  0.4965
34141SOL    HW2 8260   8.685   1.269   9.876  1.9704 -1.1284  0.4900
34142SOL     OW 8261   8.198   6.186   5.744 -0.2145  0.3215 -0.3036
34142SOL    HW1 8262   8.217   6.108   5.693 -0.5073 -0.6269  0.9778
34142SOL    HW2 8263   8.278   6.202   5.794 -0.0456  1.0368 -0.7935
34143SOL     OW 8264   6.719   9.620   7.313  0.6097  0.1779  0.2850
34143SOL    HW1 8265   6.734   9.608   7.407  1.9665  2.2458  0.4012
34143SOL    HW2 8266   6.725   9.715   7.300 -0.8464  0.0492 -1.7012
34144SOL     OW 8267   8.586   6.712   6.936  0.7767 -0.1404 -0.4960
34144SOL    HW1 8268   8.657   6.650   6.920 -0.8683 -1.8604 -1.4967
34144SOL    HW2 8269   8.622   6.797   6.909  2.3102 -1.0360 -1.4108
34145SOL     OW 8270  10.243   1.787   1.630 -0.0293  0.5411  0.2793
34145SOL    HW1 8271  10.171   1.763   1.687  2.1715 -1.5383  2.4049
34145SOL    HW2 8272  10.279   1.703   1.599  1.2565  1.4988 -1.0107
34146SOL     OW 8273  10.484   0.868   7.548  0.0801  0.5127  0.5194
34146SOL    HW1 8274  10.532   0.935   7.597  0.3537 -0.9063  2.3175
34146SOL    HW2 8275  10.551   0.825   7.495 -0.4115  2.8508 -2.2230
34147SOL     OW 8276   0.068   8.074   6.228  0.3602  0.1959  0.0083
34147SOL    HW1 8277   0.013   8.109   6.299  2.5244  3.0454  0.4457
34147SOL    HW2 8278   0.154   8.063   6.268  1.3694  0.8155 -1.8772
34148SOL     OW 8279   2.162   8.065   4.637  0.0848  0.4688  0.0614
34148SOL    HW1 8280   2.177   8.160   4.643 -0.3878  0.4657  1.6680
34148SOL    HW2 8281   2.233   8.034   4.581  2.0407  1.3914  1.8728
34149SOL     OW 8282   4.031   3.135  10.260 -0.3380 -0.4169 -0.0002
34149SOL    HW1 8283   4.094   3.199  10.228 -0.6061 -0.1352  0.0316
34149SOL    HW2 8284   3.993   3.097  10.181 -0.4665 -0.2499 -0.0194
34150SOL     OW 8285   8.671   5.025   1.881 -0.3946 -0.1457 -0.6281
34150SOL    HW1 8286   8.706   5.108   1.847 -0.5267  1.1727  2.1602
34150SOL    HW2 8287   8.746   4.981   1.918 -0.6949 -0.1499 -0.0127
34151SOL     OW 8288   6.686  10.725  10.408  0.0565  0.3401 -0.3199
34151SOL    HW1 8289   6.667  10.638  10.372 -2.0767  1.0209 -0.9615
34151SOL    HW2 8290   6.772  10.747  10.372  1.5897 -2.2489  1.3873
34152SOL     OW 8291   2.182   5.862   6.921 -0.3802 -0.2554 -0.4728
34152SOL    HW1 8292   2.096   5.891   6.953  0.6787  2.4326  0.2028
34152SOL    HW2 8293   2.219   5.813   6.994 -0.5893  0.2566 -0.0110
34153SOL     OW 8294   5.242   3.500   0.994  0.4561 -0.3338  0.6725
34153SOL    HW1 8295   5.270   3.577   1.043  0.6854 -2.1354  3.6356
34153SOL    HW2 8296   5.317   3.440   0.998  0.1591 -0.9095 -1.2448
34154SOL     OW 8297   2.063   6.396   9.118  0.1219  0.0995 -0.1206
34154SOL    HW1 8298   2.109   6.478   9.100  0.4137  0.6333  2.6032
34154SOL    HW2 8299   1.970   6.420   9.117  0.2400  0.7536  1.6593
34155SOL     OW 8300   4.679   2.789   0.809  0.6925  0.6543 -0.0432
34155SOL    HW1 8301   4.730   2.811   0.888  0.6356  0.6457 -0.0043
34155SOL    HW2 8302   4.596   2.835   0.821 -0.0361 -0.8040  0.7631
34156SOL     OW 8303   3.630  10.193   8.773  0.4061  1.0610 -0.1465
34156SOL    HW1 8304   3.556  10.203   8.832  0.6556 -2.2559  0.9001
34156SOL    HW2 8305   3.591  10.164   8.690  0.3854  1.7804 -0.3998
34157SOL     OW 8306   3.175   5.788   4.173  0.5095  0.1703  0.5562
34157SOL    HW1 8307   3.206   5.800   4.083 -0.5275  0.2950  0.2127
34157SOL    HW2 8308   3.128   5.868   4.194 -1.0521 -0.6749  0.4518
34158SOL     OW 8309   7.757   9.066   0.705 -0.0400  0.8699  0.3677
34158SOL    HW1 8310   7.666   9.040   0.713 -0.3212  1.1687 -1.4445
34158SOL    HW2 8311   7.758   9.127   0.632  2.2068 -2.4903 -2.7560
34159SOL     OW 8312   1.625   5.014   7.533 -0.4725  0.6410  0.7476
34159SOL    HW1 8313   1.563   5.078   7.568  0.0381  1.1197  0.7952
34159SOL    HW2 8314   1.701   5.066   7.507 -0.6536  0.2414 -0.6543
34160SOL     OW 8315   6.180   1.423   0.711  0.2573 -0.4528 -0.0619
34160SOL    HW1 8316   6.236   1.498   0.731 -1.2235  0.2223  1.9138
34160SOL    HW2 8317   6.195   1.361   0.782 -0.0913 -1.1004 -0.5384
34161SOL     OW 8318   8.118   2.133   4.779 -0.2276  0.5092  0.2702
34161SOL    HW1 8319   8.127   2.100   4.690  1.0897 -0.2463  0.6545
34161SOL    HW2 8320   8.157   2.221   4.777  1.1123 -0.0592  0.3875
34162SOL     OW 8321   5.369   7.651   8.042  0.7151 -0.1846  0.2673
34162SOL    HW1 8322   5.333   7.724   8.094 -1.3337 -0.9719  0.0429
34162SOL    HW2 8323   5.420   7.600   8.105 -1.2113 -0.7810  1.4153
34163SOL     OW 8324   6.869   8.451   6.379  0.2974  0.2203  0.4594
34163SOL    HW1 8325   6.876   8.406   6.463  0.6721 -1.6927 -0.5291
34163SOL    HW2 8326   6.907   8.390   6.316 -1.0455  1.0816 -1.2888
34164SOL     OW 8327   9.227   1.394   7.214 -1.0232  0.5315  0.0087
34164SOL    HW1 8328   9.262   1.325   7.158 -0.0372  1.8717 -1.0751
34164SOL    HW2 8329   9.271   1.382   7.298 -0.2800  0.3202 -0.4073
34165SOL     OW 8330   4.361  10.287   9.302 -0.2834 -0.6111 -0.2496
34165SOL    HW1 8331   4.427  10.241   9.251  1.3762  0.4687  0.8179
34165SOL    HW2 8332   4.357  10.375   9.264 -0.2709 -0.3258  0.3834
34166SOL     OW 8333   9.192   2.585   7.415  0.0600 -0.6267  0.3871
34166SOL    HW1 8334   9.103   2.553   7.402  0.0438 -0.7035  0.6759
34166SOL    HW2 8335   9.203   2.654   7.349  0.2152 -1.4454 -0.4643
34167SOL     OW 8336   5.647   5.075  10.445  0.3199 -0.0753  0.3393
34167SOL    HW1 8337   5.564   5.043  10.410  0.8377 -0.6817 -0.3675
34167SOL    HW2 8338   5.636   5.070  10.540 -0.6773  0.4678  0.2625
34168SOL     OW 8339   7.196   1.306   8.950 -0.1434  0.4183  0.2519
34168SOL    HW1 8340   7.208   1.376   8.887 -0.4553  1.5930  1.4519
34168SOL    HW2 8341   7.278   1.303   8.999  0.2840 -0.8168 -0.4916
34169SOL     OW 8342   1.380   6.812   7.655 -0.1503  0.1604  0.0781
34169SOL    HW1 8343   1.330   6.885   7.690  1.3386  1.7028 -0.8788
34169SOL    HW2 8344   1.421   6.772   7.732  0.5374  1.5438  0.4600
34170SOL     OW 8345   3.801   0.798   3.017 -0.1040  0.0895 -0.5289
34170SOL    HW1 8346   3.875   0.848   2.981  0.6684 -0.4195  0.3247
34170SOL    HW2 8347   3.833   0.765   3.101 -2.0071  1.6288  0.9025
34171SOL     OW 8348   7.872   1.793   3.849  0.1446 -0.3906 -0.2523
34171SOL    HW1 8349   7.806   1.798   3.780 -1.1846  0.0168  1.0015
34171SOL    HW2 8350   7.824   1.811   3.930  1.6668 -0.7686  0.7849
34172SOL     OW 8351  10.885   7.990   3.238 -0.1054  0.0771  0.9700
34172SOL    HW1 8352  10.847   7.993   3.150 -0.9855 -0.9362  1.2856
34172SOL    HW2 8353  10.965   8.042   3.231  0.0532 -0.2992 -0.5309
34173SOL     OW 8354   3.057   9.385   8.807 -0.2445 -0.4466 -0.1574
34173SOL    HW1 8355   2.997   9.418   8.740  0.4842  1.4641  0.0497
34173SOL    HW2 8356   3.031   9.430   8.887  0.4303 -0.8362  0.2979
34174SOL     OW 8357   7.447   0.336   4.977  0.7054  0.0257 -0.4671
34174SOL    HW1 8358   7.429   0.283   4.900  0.9037  0.1670 -0.6127
34174SOL    HW2 8359   7.401   0.418   4.961 -0.4894 -0.4858  0.2424
34175SOL     OW 8360   1.579   6.439   9.855 -0.3784 -0.9992 -0.1454
34175SOL    HW1 8361   1.492   6.475   9.837 -0.2128 -1.2300 -1.5171
34175SOL    HW2 8362   1.574   6.349   9.824  0.1506 -1.2092  0.3862
34176SOL     OW 8363   3.344   5.889   4.762  0.5519  0.8309  0.4073
34176SOL    HW1 8364   3.423   5.941   4.747 -0.1462  2.1589  1.1445
34176SOL    HW2 8365   3.272   5.951   4.750 -0.3025  0.1263  1.6602
34177SOL     OW 8366   6.015   3.242  10.076  0.3178  0.0724 -0.3084
34177SOL    HW1 8367   5.960   3.314  10.046 -0.9470 -0.6872  0.1288
34177SOL    HW2 8368   6.011   3.247  10.171  3.1296  1.5682 -0.1385
34178SOL     OW 8369   1.535   1.100   8.755 -0.2388  0.5006 -0.7309
34178SOL    HW1 8370   1.581   1.092   8.671  0.7644 -1.6141 -0.0351
34178SOL    HW2 8371   1.497   1.013   8.769 -0.7110  0.9421  0.8400
34179SOL     OW 8372   2.292   4.655   8.474 -0.1851 -0.1431  0.0903
34179SOL    HW1 8373   2.347   4.667   8.397 -1.1529  0.8814 -0.4653
34179SOL    HW2 8374   2.293   4.560   8.490 -0.2794 -0.4233 -1.4262
34180SOL     OW 8375   2.860   8.005   5.592 -0.2606 -0.6925  0.0170
34180SOL    HW1 8376   2.775   7.980   5.628 -0.6002  0.4670  0.0426
34180SOL    HW2 8377   2.923   7.950   5.640 -0.9468 -1.2304  0.3146
34181SOL     OW 8378   3.472   1.128   6.185 -0.2926  0.4501 -0.0937
34181SOL    HW1 8379   3.514   1.165   6.263 -0.7492  0.1646  0.2944
34181SOL    HW2 8380   3.475   1.033   6.199 -1.1980  0.4256  0.0238
34182SOL     OW 8381   2.137   6.261  10.487 -0.1961  0.5071 -0.1332
34182SOL    HW1 8382   2.148   6.228  10.576  0.0295 -1.6993 -0.9206
34182SOL    HW2 8383   2.076   6.334  10.496 -1.4347 -0.6628  1.6454
34183SOL     OW 8384   1.094   9.589   2.073  0.4796  0.0736 -0.1610
34183SOL    HW1 8385   1.114   9.658   2.136 -0.0114 -0.0935  0.1830
34183SOL    HW2 8386   1.009   9.614   2.037  0.5194 -0.1066 -0.3790
34184SOL     OW 8387   2.917   5.095   8.330  0.1671  0.0011 -0.1266
34184SOL    HW1 8388   2.865   5.049   8.395  1.2885  0.0600  0.8436
34184SOL    HW2 8389   2.908   5.187   8.353  1.8316 -0.0744  0.9538
34185SOL     OW 8390  10.660   7.065   7.765 -0.1265 -0.1189 -0.3710
34185SOL    HW1 8391  10.636   6.983   7.721 -0.6992  0.1155 -0.5077
34185SOL    HW2 8392  10.727   7.040   7.829 -1.1342 -0.8898  0.4048
34186SOL     OW 8393  10.075   5.725   6.926  0.5035  0.3599  0.8704
34186SOL    HW1 8394  10.086   5.646   6.874  0.4873  0.8024  0.1770
34186SOL    HW2 8395  10.005   5.703   6.987  0.2189 -0.0333  0.4174
34187SOL     OW 8396   9.657   8.199   8.500  0.3392 -0.4208  0.1304
34187SOL    HW1 8397   9.581   8.231   8.450  0.7725  0.1337 -0.1849
34187SOL    HW2 8398   9.662   8.258   8.575  0.2491 -0.6792  0.3409
34188SOL     OW 8399   3.257   4.793   2.556 -0.4544  0.6511  0.7954
34188SOL    HW1 8400   3.332   4.853   2.554 -1.4522  1.9370  0.4872
34188SOL    HW2 8401   3.285   4.718   2.503  0.2752  1.5489 -0.1367
34189SOL     OW 8402   2.012   5.520   6.452  0.0551 -0.1644 -0.3105
34189SOL    HW1 8403   2.048   5.498   6.366  0.9917  3.5862 -1.0618
34189SOL    HW2 8404   2.081   5.496   6.514  1.8503  2.1866 -1.2524
34190SOL     OW 8405   5.779   3.076   0.705 -0.3710  0.4099 -0.2081
34190SOL    HW1 8406   5.745   3.017   0.773 -1.3455  0.8424 -0.2907
34190SOL    HW2 8407   5.867   3.045   0.688 -0.8017 -0.9208 -0.1391
34191SOL     OW 8408   5.661   5.038   8.953  0.0159 -0.2534 -0.0851
34191SOL    HW1 8409   5.611   4.966   8.990  0.1664 -0.3026  0.0238
34191SOL    HW2 8410   5.688   5.090   9.029  0.7074 -0.6032 -0.0889
34192SOL     OW 8411   3.510  10.221   9.343  0.0827  0.3793  0.0382
34192SOL    HW1 8412   3.447  10.275   9.390 -0.2244  0.5425 -0.5504
34192SOL    HW2 8413   3.532  10.151   9.404 -0.4896  0.4548  0.3367
34193SOL     OW 8414   3.737   0.555   1.441 -0.4831  0.4758  0.1052
34193SOL    HW1 8415   3.824   0.519   1.422 -1.9101 -3.2437 -0.2439
34193SOL    HW2 8416   3.688   0.542   1.360 -2.0464  0.0177  1.0873
34194SOL     OW 8417   7.296   8.497   4.484  0.4355 -0.0767 -0.3634
34194SOL    HW1 8418   7.370   8.552   4.507 -0.3748  0.9192 -0.0360
34194SOL    HW2 8419   7.285   8.438   4.558  1.6969 -1.1374 -0.9868
34195SOL     OW 8420   0.691  10.024   7.186 -0.0812 -0.1918  0.0249
34195SOL    HW1 8421   0.718  10.100   7.238 -2.2436 -1.7535  3.8584
34195SOL    HW2 8422   0.763   9.961   7.197 -1.1089 -1.0464  2.6276
34196SOL     OW 8423   4.617   5.760   3.480 -0.0566  0.6799  0.3939
34196SOL    HW1 8424   4.549   5.704   3.518  0.6592  0.4796  1.4029
34196SOL    HW2 8425   4.593   5.849   3.505  0.4581  0.5415  1.4122
34197SOL     OW 8426   8.191   2.640   3.075  0.5590  0.0918 -0.0752
34197SOL    HW1 8427   8.244   2.672   3.148 -0.6559  1.5132  0.2250
34197SOL    HW2 8428   8.243   2.569   3.037  2.6653  1.4216  0.1951
34198SOL     OW 8429   8.584   2.398   1.865 -0.3191  0.2697  0.2860
34198SOL    HW1 8430   8.538   2.417   1.784  0.7397 -1.3040 -0.7365
34198SOL    HW2 8431   8.535   2.326   1.904 -0.4613  0.6089  0.7438
34199SOL     OW 8432   4.211   1.943   3.340  0.5853 -0.9407 -0.0118
34199SOL    HW1 8433   4.163   1.998   3.278  0.3037 -1.0675  0.0900
34199SOL    HW2 8434   4.228   1.862   3.293  1.0295 -0.7528 -0.1727
34200SOL     OW 8435   6.886   1.581   4.763 -0.2099 -0.1789  0.2143
34200SOL    HW1 8436   6.842   1.659   4.798 -0.1553 -0.3826  0.7442
34200SOL    HW2 8437   6.833   1.556   4.687 -1.2733 -0.6652  1.0831
34201SOL     OW 8438   4.994   7.181   8.346 -0.0766 -0.2832  0.5719
34201SOL    HW1 8439   5.027   7.133   8.422  1.0533 -0.5183 -0.0512
34201SOL    HW2 8440   4.991   7.272   8.374 -1.1990 -0.5443  1.4063
34202SOL     OW 8441   0.167   9.626   2.075  0.0554 -0.4715  0.4116
34202SOL    HW1 8442   0.074   9.634   2.054 -0.2736 -1.3085  1.4747
34202SOL    HW2 8443   0.179   9.685   2.150  0.2205 -0.9292  0.7441
34203SOL     OW 8444   3.214   6.929   1.109 -0.0253 -0.0742 -0.1260
34203SOL    HW1 8445   3.240   7.015   1.141 -0.0969 -0.1254  0.0687
34203SOL    HW2 8446   3.225   6.871   1.184 -2.0878  0.1639  0.4207
34204SOL     OW 8447   1.496   6.509  10.225  0.1371  0.0455  0.0857
34204SOL    HW1 8448   1.539   6.457  10.156  0.3332  0.4269 -0.0882
34204SOL    HW2 8449   1.410   6.530  10.189 -0.0943 -0.4912  0.3217
34205SOL     OW 8450   5.627   2.827   6.819 -0.1319  0.3361  0.3235
34205SOL    HW1 8451   5.571   2.889   6.864 -3.2558 -1.9688 -0.0678
34205SOL    HW2 8452   5.669   2.777   6.889  1.8563  2.2584  0.6227
34206SOL     OW 8453   5.673   6.952   3.803 -0.4321  0.3481  0.0278
34206SOL    HW1 8454   5.729   6.976   3.729  0.1898 -0.7824  0.1036
34206SOL    HW2 8455   5.729   6.963   3.880 -0.5552 -0.0533  0.1775
34207SOL     OW 8456   1.488   7.892   2.924  0.1215  0.1448  0.5686
34207SOL    HW1 8457   1.485   7.863   2.833 -1.2081  0.2992  0.5439
34207SOL    HW2 8458   1.560   7.955   2.926  2.1687 -2.0432  0.3263
34208SOL     OW 8459   9.903   1.307   5.346  0.0391  0.7904  0.3925
34208SOL    HW1 8460   9.827   1.284   5.400  0.8951 -1.6124  0.7238
34208SOL    HW2 8461   9.908   1.402   5.351 -1.7091  0.8679  2.0678
34209SOL     OW 8462   4.830   7.507   3.669 -0.0983  0.6224 -0.3680
34209SOL    HW1 8463   4.890   7.469   3.734 -1.3537 -0.4482  0.2226
34209SOL    HW2 8464   4.864   7.595   3.653  0.6281  0.6760  1.2551
34210SOL     OW 8465   9.619   0.591   8.069  0.4791  0.4828  0.1711
34210SOL    HW1 8466   9.563   0.602   8.146  0.1374  0.0033 -0.0047
34210SOL    HW2 8467   9.708   0.589   8.105  0.4559  2.0823  0.3658
34211SOL     OW 8468   2.580   5.019   4.704  0.6262 -0.4067  0.5185
34211SOL    HW1 8469   2.642   4.951   4.677  1.6721  0.6626  0.1526
34211SOL    HW2 8470   2.636   5.092   4.732 -0.4595  0.9688 -0.8060
34212SOL     OW 8471   9.015   1.132   4.837 -0.6942  0.1171 -0.5494
34212SOL    HW1 8472   9.022   1.215   4.884 -0.3512 -0.2725  0.0982
34212SOL    HW2 8473   9.101   1.121   4.796 -0.5392 -0.2068 -0.1422
34213SOL     OW 8474  10.776   4.098   6.234  0.8151  0.0331 -0.3527
34213SOL    HW1 8475  10.817   4.036   6.295  1.4578  2.1494  1.5276
34213SOL    HW2 8476  10.849   4.143   6.192  0.3672 -0.2961 -1.5072
34214SOL     OW 8477   6.781   5.286   2.447  0.7488 -0.0230 -0.3960
34214SOL    HW1 8478   6.696   5.267   2.407  1.7290  0.0925 -2.6941
34214SOL    HW2 8479   6.824   5.200   2.453  1.2014  0.1373 -1.1235
34215SOL     OW 8480   9.605   1.952   7.733 -0.8547 -0.4051  0.1045
34215SOL    HW1 8481   9.530   2.006   7.710 -1.6709 -1.5651 -0.0797
34215SOL    HW2 8482   9.610   1.886   7.663  1.1811  0.4365 -0.6214
34216SOL     OW 8483   0.687  10.922   4.697  0.0282 -0.3953  0.0602
34216SOL    HW1 8484   0.723  10.972   4.624 -0.7019  0.2072  0.0886
34216SOL    HW2 8485   0.763  10.896   4.749  0.4667  0.2026 -0.2737
34217SOL     OW 8486   2.271   4.181   5.490 -0.6835 -0.6901 -0.4174
34217SOL    HW1 8487   2.342   4.118   5.508  0.5857  0.8752  0.3176
34217SOL    HW2 8488   2.291   4.214   5.402 -0.1551  0.1505  0.0058
34218SOL     OW 8489   2.035   2.951   8.548  0.7613  0.5166  0.3908
34218SOL    HW1 8490   2.055   3.044   8.535  0.6032  0.6150  0.8407
34218SOL    HW2 8491   1.984   2.948   8.629  0.3124  0.0970  0.1061
34219SOL     OW 8492   8.080   3.908   1.873  0.6417 -0.1983  0.6898
34219SOL    HW1 8493   8.075   3.871   1.785 -0.6760  1.8312 -0.1518
34219SOL    HW2 8494   8.147   3.856   1.917  3.2474  0.3249 -2.3107
34220SOL     OW 8495   4.541   9.610   6.438 -0.1792 -0.2608  0.1840
34220SOL    HW1 8496   4.542   9.703   6.459 -3.5043 -0.1430  0.3106
34220SOL    HW2 8497   4.479   9.571   6.500 -0.8449 -2.0741 -1.5026
34221SOL     OW 8498   3.066   1.236   9.505 -0.3653 -0.0724 -0.5176
34221SOL    HW1 8499   3.062   1.284   9.587  0.6191 -1.3811  0.3436
34221SOL    HW2 8500   3.022   1.293   9.442 -2.1853  0.4573  1.1281
34222SOL     OW 8501   8.594   8.326   9.881  0.4111 -0.2289  0.4759
34222SOL    HW1 8502   8.563   8.306   9.793 -1.5483 -1.5760  1.4041
34222SOL    HW2 8503   8.683   8.358   9.868 -0.5814  1.9326 -2.1970
34223SOL     OW 8504   0.072   7.306   9.153  0.4237 -0.1463 -0.0638
34223SOL    HW1 8505  -0.017   7.336   9.139  0.7374  0.3102 -1.2449
34223SOL    HW2 8506   0.070   7.260   9.237 -0.4938  1.4834  0.8447
34224SOL     OW 8507   2.162   2.732   8.082  0.0981  0.9587  0.2369
34224SOL    HW1 8508   2.080   2.702   8.121  1.2612 -1.1044  1.2748
34224SOL    HW2 8509   2.211   2.770   8.154  0.4117  1.3987 -0.1995
34225SOL     OW 8510   0.960   2.794  10.097  0.1478  0.2115  0.3291
34225SOL    HW1 8511   0.925   2.733  10.032 -0.7504 -0.5754  1.5090
34225SOL    HW2 8512   1.017   2.740  10.152  1.3283  0.9812 -0.1148
34226SOL     OW 8513   9.014   6.742   7.341 -0.0745  0.1818  0.5893
34226SOL    HW1 8514   9.026   6.716   7.250  0.3197  0.3094  0.6071
34226SOL    HW2 8515   9.077   6.689   7.390  0.4013  0.8231  0.6803
34227SOL     OW 8516  10.903   4.995   0.758 -0.5672 -0.8058  0.8068
34227SOL    HW1 8517  10.918   5.073   0.810 -0.8445 -0.4529  0.3651
34227SOL    HW2 8518  10.828   4.952   0.799 -0.9229 -0.4142  0.5717
34228SOL     OW 8519   8.547   2.400   5.087  0.1259  0.1106  0.1579
34228SOL    HW1 8520   8.638   2.370   5.095 -0.1719 -1.1506 -0.8753
34228SOL    HW2 8521   8.536   2.463   5.158  1.8413  0.3768  0.2252
34229SOL     OW 8522   3.553   8.876   8.454 -0.0982 -0.4040 -0.7027
34229SOL    HW1 8523   3.541   8.802   8.514 -2.0617  1.3565  1.2721
34229SOL    HW2 8524   3.600   8.941   8.505  2.3779 -0.4866 -2.6890
34230SOL     OW 8525   6.052   7.633   2.326 -0.3462  0.5979 -0.2788
34230SOL    HW1 8526   5.970   7.682   2.341  0.1479  0.8340  2.1432
34230SOL    HW2 8527   6.024   7.542   2.322 -0.8568  0.7658 -0.6766
34231SOL     OW 8528   6.863   4.753  10.769  0.6218 -0.3578 -0.2093
34231SOL    HW1 8529   6.941   4.763  10.714  0.3020  0.2697 -0.5590
34231SOL    HW2 8530   6.892   4.779  10.857  0.7490  0.1076 -0.3867
34232SOL     OW 8531   8.415  10.448   5.163  1.0035  0.2682  0.5902
34232SOL    HW1 8532   8.422  10.353   5.159 -0.8251  0.1183  0.2482
34232SOL    HW2 8533   8.323  10.467   5.143  1.2881  2.0982  0.8068
34233SOL     OW 8534   4.003   0.858   9.778 -0.5657  0.4147  0.0242
34233SOL    HW1 8535   4.082   0.814   9.747 -0.4903  0.4286  0.1968
34233SOL    HW2 8536   3.994   0.830   9.869  0.7532  2.5370  0.8810
34234SOL     OW 8537   1.111   9.341  10.533  0.2147 -0.0515  0.8730
34234SOL    HW1 8538   1.058   9.399  10.478  2.3956  1.1295 -0.1291
34234SOL    HW2 8539   1.113   9.385  10.618 -0.1793  0.0412  0.8378
34235SOL     OW 8540   0.234   8.692   3.490  0.2724  0.0339  0.0224
34235SOL    HW1 8541   0.265   8.688   3.399 -0.9882  0.8126 -0.4659
34235SOL    HW2 8542   0.222   8.601   3.516  0.4112 -0.1866 -0.6785
34236SOL     OW 8543   3.009   2.958   5.184  0.1048 -0.4293  0.0823
34236SOL    HW1 8544   3.028   2.937   5.092  1.5601 -1.9728  0.6903
34236SOL    HW2 8545   2.979   3.049   5.182  2.7526  0.5220 -1.6435
34237SOL     OW 8546   2.912   5.571   0.383  0.3753 -0.3808 -0.2096
34237SOL    HW1 8547   2.907   5.639   0.315 -0.4339 -0.4494 -0.2289
34237SOL    HW2 8548   3.005   5.565   0.404  0.4956  0.4931 -0.4579
34238SOL     OW 8549   0.143   6.601   7.554  0.0892 -0.3424 -0.4120
34238SOL    HW1 8550   0.181   6.546   7.623  1.1513  1.1156  0.2230
34238SOL    HW2 8551   0.122   6.539   7.484  1.6559 -1.5299  0.0867
34239SOL     OW 8552   3.562  10.686   6.335 -0.0565 -0.3541 -0.7123
34239SOL    HW1 8553   3.654  10.688   6.311 -0.1777 -0.2510 -1.1778
34239SOL    HW2 8554   3.547  10.596   6.365 -0.1244 -0.7694 -1.9508
34240SOL     OW 8555   6.913   9.423   5.212  0.0617 -0.4260  0.0613
34240SOL    HW1 8556   6.818   9.418   5.210 -0.0170  0.4562 -2.1532
34240SOL    HW2 8557   6.940   9.397   5.123  1.8685 -0.4059  0.5595
34241SOL     OW 8558   1.739   8.896   3.761  0.2204  0.1095  0.3577
34241SOL    HW1 8559   1.781   8.824   3.809 -1.3364  0.3622  2.2223
34241SOL    HW2 8560   1.696   8.853   3.687  0.6679 -0.6414  0.5200
34242SOL     OW 8561   2.410   7.669  10.401  0.2131 -0.1046  0.1244
34242SOL    HW1 8562   2.401   7.595  10.340 -0.3589 -1.2038  1.4961
34242SOL    HW2 8563   2.326   7.714  10.396 -0.5923 -1.3732  1.5442
34243SOL     OW 8564   6.660  10.515   2.993  0.2305 -0.0706  0.2314
34243SOL    HW1 8565   6.735  10.544   3.045  0.4575 -1.5114  0.7532
34243SOL    HW2 8566   6.652  10.422   3.013 -0.5325 -0.3552 -1.2803
34244SOL     OW 8567   1.087   0.065   0.489 -0.9143 -0.0700  0.4200
34244SOL    HW1 8568   1.183   0.064   0.487 -0.9138  0.2554  0.1406
34244SOL    HW2 8569   1.062   0.079   0.398 -1.2043  1.6609  0.7442
34245SOL     OW 8570  10.679   4.891   0.854  0.0234  0.1815 -0.0659
34245SOL    HW1 8571  10.611   4.872   0.919  0.0704 -1.0445 -0.3492
34245SOL    HW2 8572  10.677   4.816   0.794  1.1829  0.4363 -0.4555
34246SOL     OW 8573   4.389   4.857   0.787  0.1344  0.7133  0.1647
34246SOL    HW1 8574   4.417   4.807   0.863 -0.1831  0.6447  0.2336
34246SOL    HW2 8575   4.464   4.852   0.727  0.2263  0.4298  0.3028
34247SOL     OW 8576   7.455   4.354   1.390 -0.3883 -0.8109 -0.0659
34247SOL    HW1 8577   7.523   4.408   1.349  1.1257 -2.4888  0.0661
34247SOL    HW2 8578   7.378   4.410   1.392  0.4691  0.5691 -1.9114
34248SOL     OW 8579   7.531   6.788   7.911 -0.1177 -0.6169 -0.2683
34248SOL    HW1 8580   7.458   6.734   7.881 -1.6790 -0.0803  2.2415
34248SOL    HW2 8581   7.551   6.755   7.998 -0.6206  2.2434  1.0595
34249SOL     OW 8582   6.057   1.610   0.944  0.2427  1.0349  0.0695
34249SOL    HW1 8583   6.137   1.607   0.891  1.1991  1.7456  1.4223
34249SOL    HW2 8584   6.064   1.535   1.003  0.0025  1.2122  0.3252
34250SOL     OW 8585  10.280   9.810   5.544  0.0425  0.3176  0.7923
34250SOL    HW1 8586  10.244   9.806   5.632  3.2369 -0.0325  2.1842
34250SOL    HW2 8587  10.260   9.725   5.506  1.0149 -0.5919  2.2370
34251SOL     OW 8588   4.035   5.444   3.895  0.6157 -0.3109  0.0738
34251SOL    HW1 8589   3.974   5.516   3.877  1.3085  0.2474 -0.0808
34251SOL    HW2 8590   4.122   5.481   3.879  0.9269 -1.7427 -2.0552
34252SOL     OW 8591   6.766   7.651  10.241 -0.6111 -0.0874 -0.0383
34252SOL    HW1 8592   6.834   7.600  10.285 -0.2670  1.1604  0.9148
34252SOL    HW2 8593   6.805   7.678  10.159 -0.5323 -0.6968 -0.2105
34253SOL     OW 8594   1.267   2.323   1.639 -0.3196 -0.1273  0.4474
34253SOL    HW1 8595   1.313   2.402   1.668 -1.7085  1.3256 -1.0765
34253SOL    HW2 8596   1.241   2.343   1.549 -1.5383 -1.9632  0.3488
34254SOL     OW 8597   3.674   8.117   9.740  0.1366 -0.1589  0.1666
34254SOL    HW1 8598   3.673   8.190   9.802  0.0241  0.3632 -0.4301
34254SOL    HW2 8599   3.737   8.055   9.776  0.7314  0.5409  0.3468
34255SOL     OW 8600   4.642   6.561   2.345  0.1933 -0.1594  0.3742
34255SOL    HW1 8601   4.645   6.613   2.265  2.0914 -0.6992  0.0611
34255SOL    HW2 8602   4.659   6.623   2.415 -0.1548  0.0752  0.2571
34256SOL     OW 8603   5.581   6.167  10.035 -0.3387  0.0812 -0.3296
34256SOL    HW1 8604   5.568   6.202  10.123  2.4935 -0.8936  0.5774
34256SOL    HW2 8605   5.562   6.241   9.977  1.5953  1.9965  1.3088
34257SOL     OW 8606   9.782   8.016   3.010 -0.0528 -0.3616  0.0349
34257SOL    HW1 8607   9.753   7.958   2.940  0.0415 -1.9839  1.2967
34257SOL    HW2 8608   9.878   8.020   3.000 -0.1032 -0.0455 -0.3324
34258SOL     OW 8609   7.353   2.109   3.184  0.5563 -0.5588 -0.7925
34258SOL    HW1 8610   7.331   2.118   3.091 -0.4238 -1.3239 -0.6475
34258SOL    HW2 8611   7.268   2.101   3.228  0.9248  1.1243  0.3349
34259SOL     OW 8612   3.101   3.466   0.342  0.3419  0.4073  0.0254
34259SOL    HW1 8613   3.021   3.479   0.393  0.5618 -0.0208  0.4833
34259SOL    HW2 8614   3.129   3.377   0.362  1.2352  0.7348  0.2972
34260SOL     OW 8615   0.090   8.425   6.910  0.1792 -0.2559 -0.1828
34260SOL    HW1 8616   0.072   8.505   6.959 -0.2267  0.4612 -1.4598
34260SOL    HW2 8617   0.182   8.434   6.883 -0.3673  0.6879 -1.8790
34261SOL     OW 8618   8.303   5.983  10.398  0.3086  0.3880  0.4541
34261SOL    HW1 8619   8.270   5.927  10.327  0.5607 -0.1152  0.7341
34261SOL    HW2 8620   8.232   6.045  10.414 -0.6886 -0.9252  1.3126
34262SOL     OW 8621   4.020   7.936  10.187 -0.5830  0.0007  0.0020
34262SOL    HW1 8622   4.052   7.891  10.266 -0.4219 -1.9586 -1.0909
34262SOL    HW2 8623   3.975   7.867  10.138 -2.8432  1.7236 -0.5114
34263SOL     OW 8624   9.111  10.305   0.237 -0.0074  0.1726  0.3150
34263SOL    HW1 8625   9.109  10.373   0.304  0.4201  1.0871 -0.5721
34263SOL    HW2 8626   9.060  10.342   0.165  1.9550  0.4645 -0.9922
34264SOL     OW 8627   9.286   0.445   6.057 -0.2425 -0.0325  0.1051
34264SOL    HW1 8628   9.226   0.499   6.006 -1.9911 -1.9112  0.0356
34264SOL    HW2 8629   9.345   0.406   5.992 -0.2861  0.1850 -0.0658
34265SOL     OW 8630   7.341  10.865   6.246  0.4672  0.7062 -0.2937
34265SOL    HW1 8631   7.275  10.925   6.211 -1.5857  0.7262  3.1728
34265SOL    HW2 8632   7.399  10.921   6.297  1.3598  0.2833 -0.8214
34266SOL     OW 8633   4.173   7.893   2.453 -0.0565 -0.6198  0.5297
34266SOL    HW1 8634   4.267   7.879   2.463 -0.3045 -1.8538  1.3566
34266SOL    HW2 8635   4.134   7.807   2.468 -1.2235 -0.5493 -1.5866
34267SOL     OW 8636   4.831   5.911   9.760  0.0593 -0.2341 -0.1724
34267SOL    HW1 8637   4.868   5.985   9.711 -0.6506  1.9494  2.3160
34267SOL    HW2 8638   4.904   5.881   9.815 -0.3697  0.5366  0.8536
34268SOL     OW 8639   8.321   0.141   9.572 -0.0783  0.1464 -0.0587
34268SOL    HW1 8640   8.369   0.192   9.637 -0.6593  1.3277 -0.5308
34268SOL    HW2 8641   8.285   0.206   9.512 -1.6416 -0.7520 -0.1478
34269SOL     OW 8642   6.141   3.195   1.375  0.1685 -0.0165  0.7378
34269SOL    HW1 8643   6.185   3.275   1.344 -0.2171  0.2846  0.9664
34269SOL    HW2 8644   6.210   3.129   1.376 -0.0901 -0.5191 -2.4352
34270SOL     OW 8645   2.991   2.532   4.702 -0.3142  0.1412  0.0925
34270SOL    HW1 8646   2.994   2.503   4.611  0.9103 -0.6820  0.3874
34270SOL    HW2 8647   2.910   2.583   4.707 -1.5044 -1.5418 -0.9326
34271SOL     OW 8648  10.319   2.013   2.576  0.1929  0.0416 -0.0937
34271SOL    HW1 8649  10.340   2.004   2.669  0.8318 -0.0317 -0.2362
34271SOL    HW2 8650  10.357   1.935   2.536  2.9335  1.6249 -0.8781
34272SOL     OW 8651   6.399   4.012   6.316 -0.1404 -0.0798  0.8870
34272SOL    HW1 8652   6.369   4.055   6.397  0.9733 -0.5938  1.5981
34272SOL    HW2 8653   6.491   3.992   6.332 -0.0774 -0.8010 -0.2602
34273SOL     OW 8654   6.157   2.284   5.843 -0.1573  0.2142  0.4095
34273SOL    HW1 8655   6.165   2.328   5.928  3.2326 -0.5419  0.6368
34273SOL    HW2 8656   6.145   2.192   5.864  1.1731 -0.0447  0.1439
34274SOL     OW 8657   7.557   0.230   4.511 -0.5755 -0.1980  0.3196
34274SOL    HW1 8658   7.526   0.143   4.537 -0.5468  0.5154  3.0989
34274SOL    HW2 8659   7.650   0.217   4.491 -0.5030 -0.7999  0.9844
34275SOL     OW 8660  10.814   5.603   5.811 -0.5941 -0.5287 -0.0673
34275SOL    HW1 8661  10.826   5.609   5.716 -2.3186 -0.3796 -0.2990
34275SOL    HW2 8662  10.867   5.675   5.846 -0.1090 -0.4595 -0.9106
34276SOL     OW 8663   8.847  10.272   4.067 -0.3261 -0.0382 -0.2297
34276SOL    HW1 8664   8.881  10.184   4.083  0.3576  0.0640 -0.9993
34276SOL    HW2 8665   8.761  10.274   4.109  0.5149 -0.3961  1.5970
34277SOL     OW 8666   4.542   2.520   1.260 -0.0142  0.1772 -0.2481
34277SOL    HW1 8667   4.594   2.572   1.321 -0.0308 -0.1529  0.0512
34277SOL    HW2 8668   4.518   2.581   1.190 -0.7000  0.7761  0.4906
34278SOL     OW 8669   7.531   8.860   2.864  0.1377  0.2661 -0.0958
34278SOL    HW1 8670   7.619   8.898   2.864 -0.0101  0.6065 -0.1163
34278SOL    HW2 8671   7.538   8.787   2.802  0.3033  0.5327 -0.3979
34279SOL     OW 8672   8.923   5.147   1.497 -0.0347 -0.5096 -0.3255
34279SOL    HW1 8673   8.922   5.112   1.586  0.5603 -0.3726 -0.2572
34279SOL    HW2 8674   8.852   5.210   1.495  0.4859  0.1122  0.3197
34280SOL     OW 8675  10.626   0.448   0.959  0.0973  0.6533  0.0684
34280SOL    HW1 8676  10.602   0.500   0.882  0.9172  0.6955 -0.1638
34280SOL    HW2 8677  10.617   0.510   1.032 -1.6943  0.3381  0.1667
34281SOL     OW 8678   3.205   6.043  10.117  0.0792  0.0070  0.1244
34281SOL    HW1 8679   3.179   6.018  10.028  1.5385 -0.2705 -0.2391
34281SOL    HW2 8680   3.176   5.970  10.172  1.0962 -0.8233 -0.4331
34282SOL     OW 8681   6.799   2.860   8.481  0.2672  0.2763 -0.6656
34282SOL    HW1 8682   6.777   2.870   8.573  0.5822  0.6065 -0.6187
34282SOL    HW2 8683   6.866   2.792   8.479 -0.9950 -1.0040 -0.8485
34283SOL     OW 8684   0.564   1.319   7.891  0.3454  0.1793 -0.7901
34283SOL    HW1 8685   0.596   1.409   7.890 -1.0153  0.6884 -1.2702
34283SOL    HW2 8686   0.544   1.300   7.799 -1.5908  0.2482 -0.4240
34284SOL     OW 8687   2.957   5.617   1.596  0.3638 -0.0782 -0.4852
34284SOL    HW1 8688   2.938   5.552   1.529 -0.4143 -2.0645  1.5566
34284SOL    HW2 8689   2.983   5.567   1.673  0.4838  2.0538  0.9750
34285SOL     OW 8690   0.042   5.742   4.347  0.3506  0.3219 -1.1434
34285SOL    HW1 8691   0.097   5.668   4.375  0.7263  0.4042 -1.6559
34285SOL    HW2 8692   0.017   5.784   4.429 -1.2938 -1.3648 -0.7150
34286SOL     OW 8693   6.856   2.603   5.709 -0.1792  0.3344 -0.4651
34286SOL    HW1 8694   6.817   2.632   5.792  2.4314  0.7535  0.6973
34286SOL    HW2 8695   6.883   2.684   5.666  0.4829  0.0124 -0.6645
34287SOL     OW 8696   5.878   2.729   0.386 -0.4566 -0.3417 -0.1154
34287SOL    HW1 8697   5.954   2.692   0.431 -1.4252 -0.6665  1.3733
34287SOL    HW2 8698   5.885   2.698   0.296  0.5353 -1.3531  0.2878
34288SOL     OW 8699   5.493  10.813   5.585 -0.4281 -0.3488  0.3897
34288SOL    HW1 8700   5.559  10.877   5.560 -0.8316  0.2071  0.7248
34288SOL    HW2 8701   5.542  10.747   5.634  0.2648 -1.1573 -1.3141
34289SOL     OW 8702   8.765   2.093   4.891  0.3484  0.4558  0.3280
34289SOL    HW1 8703   8.766   2.062   4.801 -1.2713  1.9054 -0.2473
34289SOL    HW2 8704   8.719   2.024   4.940 -0.1244  0.3409 -0.2643
34290SOL     OW 8705   4.403   8.321   7.144  0.2579 -0.5382  0.2882
34290SOL    HW1 8706   4.422   8.336   7.237 -0.9300 -1.8118  0.7604
34290SOL    HW2 8707   4.488   8.330   7.101  0.4825  2.7638  1.0736
34291SOL     OW 8708   6.742   7.581   7.106 -0.1525  0.2213 -0.6520
34291SOL    HW1 8709   6.775   7.576   7.196 -0.0142 -0.7677 -0.7464
34291SOL    HW2 8710   6.789   7.511   7.059  0.8416  1.6102 -1.8523
34292SOL     OW 8711   5.101   2.907   2.557 -0.1605 -0.4383 -0.4665
34292SOL    HW1 8712   5.160   2.976   2.590  1.1180 -1.5029 -0.4327
34292SOL    HW2 8713   5.056   2.948   2.483 -1.6466  1.3734  1.3142
34293SOL     OW 8714   5.391  10.315  10.458 -0.0112  0.4513 -0.3106
34293SOL    HW1 8715   5.429  10.277  10.537  0.0000 -1.1231 -1.0128
34293SOL    HW2 8716   5.382  10.408  10.477  2.4381  0.5750  0.5633
34294SOL     OW 8717   1.016   2.398   0.787  0.6433 -0.1867  0.0406
34294SOL    HW1 8718   0.955   2.467   0.760 -1.1513 -1.2835  1.0712
34294SOL    HW2 8719   1.057   2.432   0.866  0.8831  0.2830 -0.2772
34295SOL     OW 8720   7.193   5.964   5.654 -0.1608 -1.0882 -0.4128
34295SOL    HW1 8721   7.254   5.955   5.727 -1.3952 -2.3973  0.5179
34295SOL    HW2 8722   7.212   6.050   5.617  0.3352 -0.2741  1.6243
34296SOL     OW 8723  10.082   4.197   4.349 -0.2920 -0.5784 -0.0218
34296SOL    HW1 8724  10.087   4.255   4.424  0.5482 -3.0130  1.9512
34296SOL    HW2 8725  10.006   4.142   4.366 -2.0291  0.8032 -2.6254
34297SOL     OW 8726   4.763   5.970   0.079  0.5018  0.1643 -0.0501
34297SOL    HW1 8727   4.784   6.046   0.132 -1.6647  2.0005 -1.6553
34297SOL    HW2 8728   4.748   5.900   0.143  1.3248  1.3604  1.5349
34298SOL     OW 8729   8.393   5.713  10.530  0.3406  0.1443  0.1202
34298SOL    HW1 8730   8.356   5.678  10.450 -1.7163  1.7342  0.2843
34298SOL    HW2 8731   8.400   5.808  10.515  3.4555  0.1089  0.5272
34299SOL     OW 8732   2.278  10.270   5.646  0.0922 -0.3397 -0.6106
34299SOL    HW1 8733   2.328  10.192   5.669 -0.4220 -0.7341 -0.8191
34299SOL    HW2 8734   2.274  10.269   5.551 -1.3570 -0.9825 -0.5615
34300SOL     OW 8735   8.588   1.332   5.883  0.2120  0.1003 -0.6953
34300SOL    HW1 8736   8.628   1.313   5.968  0.6743 -1.0679 -1.1512
34300SOL    HW2 8737   8.662   1.358   5.828 -0.2973  2.7421 -0.2956
34301SOL     OW 8738   3.874  10.007   9.404  0.6693 -0.1533  0.0403
34301SOL    HW1 8739   3.790   9.986   9.365 -0.1579  0.9776  1.1581
34301SOL    HW2 8740   3.937   9.956   9.353 -0.5459 -0.0921 -1.5890
34302SOL     OW 8741   7.624   1.529   8.222  0.2589  0.1010 -0.0279
34302SOL    HW1 8742   7.700   1.473   8.238  0.4527  0.5315  0.6335
34302SOL    HW2 8743   7.553   1.469   8.200 -0.0864 -0.6427  2.6947
34303SOL     OW 8744   4.919   1.472   7.289  0.0931  0.0760  0.1649
34303SOL    HW1 8745   4.824   1.480   7.293  0.0866  0.8179 -1.0611
34303SOL    HW2 8746   4.951   1.556   7.323  0.3330 -0.2945  0.8837
34304SOL     OW 8747   5.526   0.947   2.120 -0.2526 -0.2649  0.1331
34304SOL    HW1 8748   5.579   0.968   2.197 -0.9105  0.1305  0.4917
34304SOL    HW2 8749   5.534   1.024   2.064 -1.4401  0.3307  0.7561
34305SOL     OW 8750   0.312   9.477  10.883  0.0486  0.3745 -0.4894
34305SOL    HW1 8751   0.405   9.462  10.902 -0.4044 -2.6201 -0.1599
34305SOL    HW2 8752   0.297   9.568  10.907  2.4783  0.4108  1.2423
34306SOL     OW 8753   1.121  10.239   0.033 -0.0701 -0.1683  0.0083
34306SOL    HW1 8754   1.097  10.328   0.010 -2.1286 -1.3731 -3.2096
34306SOL    HW2 8755   1.037  10.193   0.043  0.9270 -1.8796  1.0319
34307SOL     OW 8756   2.207   6.076   4.334  0.5495  0.1971 -0.2713
34307SOL    HW1 8757   2.183   6.036   4.418 -1.0555  1.9278  0.1771
34307SOL    HW2 8758   2.290   6.121   4.352  0.3800  0.2887  0.3268
34308SOL     OW 8759  10.637   5.011   4.126 -0.7939  0.1408 -0.4083
34308SOL    HW1 8760  10.544   5.011   4.148 -0.6479  1.4084  0.3248
34308SOL    HW2 8761  10.680   4.972   4.202 -0.5192  2.0752  0.4875
34309SOL     OW 8762  10.106   9.489   3.085 -0.0173 -0.7138  0.2646
34309SOL    HW1 8763  10.049   9.494   3.008  1.3319  0.0595 -0.7264
34309SOL    HW2 8764  10.182   9.543   3.062 -0.7154  1.8161  3.1547
34310SOL     OW 8765   9.143   1.785   3.055 -0.2458  0.2426 -0.7525
34310SOL    HW1 8766   9.198   1.803   2.979 -0.2022 -2.3221 -1.4258
34310SOL    HW2 8767   9.163   1.694   3.078  0.2007  1.0890  2.7507
34311SOL     OW 8768   9.711   9.634   8.477 -0.2574 -0.3744 -0.0304
34311SOL    HW1 8769   9.727   9.584   8.557  1.0470  1.5979  1.0328
34311SOL    HW2 8770   9.645   9.699   8.501 -2.2869 -1.7830 -1.5203
34312SOL     OW 8771   7.924   3.188   9.162 -0.1967 -0.6336 -0.2443
34312SOL    HW1 8772   7.977   3.196   9.082  1.4883  0.5435  0.9218
34312SOL    HW2 8773   7.934   3.273   9.205  0.0973 -1.7089  1.9136
34313SOL     OW 8774   2.679   3.768   3.135 -0.1592  0.4408  0.1260
34313SOL    HW1 8775   2.718   3.692   3.092 -0.4951  0.7166 -0.6969
34313SOL    HW2 8776   2.586   3.747   3.140 -0.0708  0.2418  1.1040
34314SOL     OW 8777   6.617   7.217   0.254 -0.0648 -0.5874 -0.0647
34314SOL    HW1 8778   6.552   7.260   0.198  0.2518  1.0539  0.7578
34314SOL    HW2 8779   6.570   7.202   0.337  1.0086  2.3588  1.2205
34315SOL     OW 8780   3.024   3.524   5.802 -0.0823  0.2356 -0.4157
34315SOL    HW1 8781   2.986   3.550   5.886  0.8848  1.1652 -0.2306
34315SOL    HW2 8782   2.976   3.576   5.737 -2.3257 -2.0524 -0.7341
34316SOL     OW 8783  10.902   6.830   5.469  0.0988  0.4043 -0.2969
34316SOL    HW1 8784  10.937   6.906   5.516  2.2252 -0.5057 -0.3070
34316SOL    HW2 8785  10.878   6.768   5.538  1.6735 -0.2711 -0.3098
34317SOL     OW 8786   2.195   4.128   6.008 -0.9103  0.4414  0.0078
34317SOL    HW1 8787   2.229   4.177   5.934 -0.3731 -0.2464 -0.2061
34317SOL    HW2 8788   2.181   4.194   6.076  1.9493  0.6244  0.5280
34318SOL     OW 8789   0.125   0.617   5.260 -0.3505 -0.2855  0.6622
34318SOL    HW1 8790   0.204   0.564   5.257 -0.4995 -0.5294 -1.9059
34318SOL    HW2 8791   0.071   0.577   5.328  0.0327 -2.7641 -0.3863
34319SOL     OW 8792   2.276   0.116   7.567 -0.0651 -0.3541  0.5400
34319SOL    HW1 8793   2.264   0.047   7.632 -0.6617 -0.9227 -0.1517
34319SOL    HW2 8794   2.341   0.081   7.506 -0.9434 -0.6585 -0.2521
34320SOL     OW 8795   0.280   7.788   2.491  0.0749  0.0518 -0.1579
34320SOL    HW1 8796   0.211   7.723   2.476 -0.2450  0.6206 -1.2339
34320SOL    HW2 8797   0.257   7.827   2.575 -0.4512 -0.3332 -0.1159
34321SOL     OW 8798   3.394   9.433   1.778 -0.1432  0.0092  0.2540
34321SOL    HW1 8799   3.385   9.496   1.707  0.0655  0.5441  0.6987
34321SOL    HW2 8800   3.485   9.443   1.808  0.2925 -1.4016 -0.5107
34322SOL     OW 8801   9.133   4.511   5.913  0.5617  0.1706  0.1662
34322SOL    HW1 8802   9.136   4.458   5.993  2.2227 -2.0269 -1.2499
34322SOL    HW2 8803   9.224   4.530   5.893  0.3124 -0.7240 -2.0581
34323SOL     OW 8804   1.926   3.083   1.198 -0.4476  0.5356  0.4516
34323SOL    HW1 8805   1.843   3.120   1.168 -0.9595  1.0043  2.2935
34323SOL    HW2 8806   1.900   3.017   1.263  0.4938 -2.2691 -1.8325
34324SOL     OW 8807   5.334   6.512   8.499 -0.2818  0.4335  0.1512
34324SOL    HW1 8808   5.406   6.454   8.477  1.2924  1.4507  2.2580
34324SOL    HW2 8809   5.346   6.589   8.444 -0.9669 -0.2086 -0.9233
34325SOL     OW 8810   6.913   1.557   3.493  0.4058 -0.3828  0.8059
34325SOL    HW1 8811   6.824   1.549   3.457  0.8807 -2.0068 -0.0790
34325SOL    HW2 8812   6.917   1.490   3.561  1.3220 -1.1805  0.0021
34326SOL     OW 8813   5.357   2.376   2.596 -0.2976 -0.5019 -0.2879
34326SOL    HW1 8814   5.303   2.427   2.536 -3.8055 -1.2056  2.0160
34326SOL    HW2 8815   5.304   2.300   2.619  2.4107 -2.2103  0.9047
34327SOL     OW 8816   0.424   4.413   3.032 -0.2115  0.0516 -0.2961
34327SOL    HW1 8817   0.438   4.395   3.125 -0.9665  1.1402  0.0456
34327SOL    HW2 8818   0.467   4.498   3.017  0.1113 -0.2271 -1.0039
34328SOL     OW 8819   1.570   8.754   6.085 -0.5501 -0.4152  0.7534
34328SOL    HW1 8820   1.575   8.679   6.144 -1.2738  1.0778  2.8285
34328SOL    HW2 8821   1.550   8.828   6.142  0.0157  1.3597 -1.2244
34329SOL     OW 8822   3.861   0.345  10.443 -0.0595 -0.1227  0.4193
34329SOL    HW1 8823   3.833   0.253  10.441  0.6089 -0.3235 -0.0345
34329SOL    HW2 8824   3.809   0.387  10.374 -1.1312  0.0780  1.3243
34330SOL     OW 8825   9.026   4.856   7.562  0.3369 -0.0168 -0.4306
34330SOL    HW1 8826   8.967   4.787   7.592 -0.3795  0.3271 -1.0257
34330SOL    HW2 8827   9.053   4.828   7.474  0.0154  0.4732 -0.6883
34331SOL     OW 8828   4.463   9.888  10.247  0.5535 -0.1340 -0.1817
34331SOL    HW1 8829   4.441   9.972  10.206 -0.6862 -0.3292  0.0682
34331SOL    HW2 8830   4.444   9.901  10.340  0.8716 -0.5261 -0.0608
34332SOL     OW 8831   2.466   5.934   5.843  0.6436 -0.4551  0.3539
34332SOL    HW1 8832   2.464   5.989   5.922 -2.5780 -0.0037  0.0843
34332SOL    HW2 8833   2.432   5.849   5.872  0.7349 -0.7187 -0.2921
34333SOL     OW 8834   0.164   9.320   2.731 -0.7054 -0.0258 -0.6693
34333SOL    HW1 8835   0.162   9.236   2.775  0.7223  0.2122 -0.0882
34333SOL    HW2 8836   0.240   9.315   2.673 -0.6526  0.8185 -0.6903
34334SOL     OW 8837   1.216   0.826  10.423  0.0755 -0.5512  0.5673
34334SOL    HW1 8838   1.128   0.865  10.428  1.3159  2.7065 -0.3298
34334SOL    HW2 8839   1.249   0.830  10.513 -0.5017 -1.3253  0.8189
34335SOL     OW 8840   1.154   8.848   0.488 -0.1310  0.4477  0.0886
34335SOL    HW1 8841   1.123   8.848   0.578  0.4120  1.9430  0.2980
34335SOL    HW2 8842   1.121   8.929   0.450  0.4738  0.3207 -0.7512
34336SOL     OW 8843   8.081   6.830   8.243 -0.2056  0.3308  0.2429
34336SOL    HW1 8844   8.171   6.839   8.273 -0.3789 -1.8610  1.7089
34336SOL    HW2 8845   8.064   6.736   8.248 -2.5578  0.6784 -0.0720
34337SOL     OW 8846   9.690   8.383  10.733 -0.2501 -0.0567  0.1565
34337SOL    HW1 8847   9.781   8.381  10.763  0.3367  2.9845 -1.0485
34337SOL    HW2 8848   9.646   8.442  10.795 -1.1660 -0.6944  0.1273
34338SOL     OW 8849   8.037   4.846   7.774  0.2034  0.1351  0.2961
34338SOL    HW1 8850   7.997   4.933   7.780  0.6289  0.4359 -0.8260
34338SOL    HW2 8851   7.965   4.785   7.787 -0.3814  0.6685 -0.3388
34339SOL     OW 8852   7.860   7.028  10.411 -0.5164 -0.4394 -0.7152
34339SOL    HW1 8853   7.931   7.044  10.350 -0.4179 -1.4158 -0.8828
34339SOL    HW2 8854   7.900   6.976  10.481 -0.8398 -0.1337 -0.2987
34340SOL     OW 8855   8.253   6.656   6.164 -0.5078  0.5524  0.2342
34340SOL    HW1 8856   8.313   6.726   6.137  0.2473  0.8553  2.5080
34340SOL    HW2 8857   8.274   6.640   6.256  0.2752 -3.6180 -0.4810
34341SOL     OW 8858   8.410   3.572   9.273  0.2109 -0.0390  0.2093
34341SOL    HW1 8859   8.409   3.540   9.183 -0.6824  0.0746  0.1624
34341SOL    HW2 8860   8.393   3.666   9.266  1.3883  0.1957  0.4292
34342SOL     OW 8861   2.895  10.133   1.288  0.0796 -0.2003  0.1877
34342SOL    HW1 8862   2.869  10.115   1.197 -0.9306 -0.7217  0.5597
34342SOL    HW2 8863   2.843  10.209   1.313  0.3492 -0.0646  0.3290
34343SOL     OW 8864  10.255  10.315   9.574 -0.1889  0.7378  0.2818
34343SOL    HW1 8865  10.205  10.357   9.643 -0.9003  0.2695  0.0644
34343SOL    HW2 8866  10.189  10.279   9.515  0.3736 -1.0110  0.6540
34344SOL     OW 8867   6.705   6.062   9.731 -0.1083  0.0631  0.4825
34344SOL    HW1 8868   6.731   5.976   9.764  0.2483  0.4330  1.1963
34344SOL    HW2 8869   6.786   6.101   9.697 -0.0938  0.4437  0.9339
34345SOL     OW 8870   9.663   5.475   4.209  0.2786 -0.4526 -0.2767
34345SOL    HW1 8871   9.749   5.492   4.172  0.9099 -0.0166  1.3373
34345SOL    HW2 8872   9.675   5.481   4.303 -1.8649  1.3007 -0.0386
34346SOL     OW 8873   0.253   5.324   3.868 -0.3146 -0.9310  0.4701
34346SOL    HW1 8874   0.309   5.337   3.792 -0.2261 -1.2768  0.4756
34346SOL    HW2 8875   0.266   5.402   3.922 -0.7798 -0.4314 -0.1207
34347SOL     OW 8876   2.570   1.977   8.098  0.6077 -0.7263 -0.6676
34347SOL    HW1 8877   2.490   2.026   8.117  1.3915 -0.1309  1.3088
34347SOL    HW2 8878   2.553   1.890   8.134  0.3086 -1.0492 -1.5739
34348SOL     OW 8879   0.862   8.065   8.042 -0.6484  0.5400 -0.0063
34348SOL    HW1 8880   0.951   8.063   8.077 -0.3505  2.8387 -0.4872
34348SOL    HW2 8881   0.810   8.107   8.111 -1.0199  0.7576 -0.4156
34349SOL     OW 8882   3.874   7.873   9.708  0.5608  0.1993 -0.1018
34349SOL    HW1 8883   3.955   7.912   9.739  1.7401 -0.6900 -1.8919
34349SOL    HW2 8884   3.880   7.876   9.612 -1.0670 -0.7741 -0.2865
34350SOL     OW 8885   6.417   4.754   1.975  0.0728  0.6360  0.1260
34350SOL    HW1 8886   6.357   4.827   1.990 -0.8161  0.1592 -0.9471
34350SOL    HW2 8887   6.421   4.709   2.059  0.9033  2.0769  0.9113
34351SOL     OW 8888   9.849   0.947   3.322 -0.6456  0.0339 -0.0752
34351SOL    HW1 8889   9.755   0.964   3.325 -0.2948  3.3640 -2.0908
34351SOL    HW2 8890   9.862   0.898   3.241 -0.5438  1.3195 -0.8735
34352SOL     OW 8891   5.086   3.768   5.641 -0.2164  0.1003 -0.2527
34352SOL    HW1 8892   5.078   3.815   5.558 -0.1047  0.3482 -0.1243
34352SOL    HW2 8893   4.996   3.753   5.669 -0.2563 -0.1313 -0.5005
34353SOL     OW 8894   8.429   9.957   7.077 -0.3599  0.8084  0.3160
34353SOL    HW1 8895   8.408  10.020   7.145 -1.2284  0.3349  0.5050
34353SOL    HW2 8896   8.499   9.998   7.027  1.3858  0.5289  2.4094
34354SOL     OW 8897   7.992   6.030   4.926  0.4267  0.4078  0.0263
34354SOL    HW1 8898   7.974   5.995   4.839 -0.9413  0.4978  0.2463
34354SOL    HW2 8899   7.963   6.121   4.922  1.1474  0.6589  0.3412
34355SOL     OW 8900   1.844   9.507   6.002  0.2662 -0.0742 -0.4744
34355SOL    HW1 8901   1.895   9.576   5.960 -0.3088 -0.1366 -1.2981
34355SOL    HW2 8902   1.753   9.535   5.992  0.1027 -0.1948  0.5571
34356SOL     OW 8903   0.212   2.410  10.527 -0.2165  0.5186 -0.1233
34356SOL    HW1 8904   0.265   2.338  10.562 -0.0147 -1.1810 -3.5407
34356SOL    HW2 8905   0.149   2.429  10.597  1.4765 -1.0411  1.9814
34357SOL     OW 8906  10.471   0.546   6.321 -0.1499  0.2754  0.0793
34357SOL    HW1 8907  10.504   0.458   6.338  0.7118  0.9402  2.3190
34357SOL    HW2 8908  10.550   0.596   6.299 -0.8780  0.1220 -3.5244
34358SOL     OW 8909   0.480   3.915   1.272  0.2168 -0.2312 -0.2735
34358SOL    HW1 8910   0.539   3.982   1.307 -0.8019  0.6332 -0.1363
34358SOL    HW2 8911   0.512   3.833   1.309  0.2476  0.4409  1.2801
34359SOL     OW 8912   0.251   3.520   0.435 -0.0540 -0.2934  0.4741
34359SOL    HW1 8913   0.263   3.539   0.528 -0.2176 -0.1003  0.4570
34359SOL    HW2 8914   0.332   3.551   0.394 -0.5573  0.9441  0.3690
34360SOL     OW 8915   0.417   0.474   3.881 -1.2663 -0.1596  0.7362
34360SOL    HW1 8916   0.483   0.421   3.925  2.1232  1.5235 -1.8525
34360SOL    HW2 8917   0.377   0.526   3.950 -0.0631 -1.3991  2.4459
34361SOL     OW 8918   4.297   0.573   0.585  0.1355 -0.1500  0.2398
34361SOL    HW1 8919   4.357   0.646   0.602  0.6747 -0.5539  0.0741
34361SOL    HW2 8920   4.212   0.615   0.570  0.4329  0.4396  0.1885
34362SOL     OW 8921   9.318   2.515   8.483 -0.1331 -0.7350  0.2253
34362SOL    HW1 8922   9.226   2.532   8.501 -0.1539  1.3963 -1.4922
34362SOL    HW2 8923   9.340   2.440   8.538 -2.7274 -0.9521  1.0878
34363SOL     OW 8924   5.533   3.333   9.894  0.2247 -0.1398  0.1045
34363SOL    HW1 8925   5.611   3.287   9.860  0.1362 -0.1701 -0.0598
34363SOL    HW2 8926   5.501   3.382   9.818  0.0531 -0.1689  0.1604
34364SOL     OW 8927   1.182   3.327   2.963 -0.7169  0.2443  0.0062
34364SOL    HW1 8928   1.188   3.408   3.014  3.6564 -0.7555  1.4406
34364SOL    HW2 8929   1.200   3.355   2.873  0.1135  0.9770  0.3815
34365SOL     OW 8930   1.514   4.826   0.939 -0.1591 -0.1275 -0.2333
34365SOL    HW1 8931   1.492   4.827   1.033 -1.0902  1.1954 -0.4517
34365SOL    HW2 8932   1.467   4.750   0.905 -1.0890  0.2784  0.0981
34366SOL     OW 8933   2.583   7.930   1.963 -0.0436  0.4172  0.1938
34366SOL    HW1 8934   2.584   7.857   2.025  1.3120  0.5532  0.3628
34366SOL    HW2 8935   2.652   7.988   1.994  0.7915  0.3914 -1.5583
34367SOL     OW 8936   1.573   6.066   5.921 -0.1089 -0.5562  1.2534
34367SOL    HW1 8937   1.589   6.014   5.843 -0.1329  0.1190  0.7837
34367SOL    HW2 8938   1.492   6.113   5.902 -0.9343 -1.5176  2.3056
34368SOL     OW 8939   2.248   7.032   7.337 -0.3692  0.2972  0.4376
34368SOL    HW1 8940   2.193   7.003   7.264  0.2726 -0.0987  0.1007
34368SOL    HW2 8941   2.195   7.097   7.383 -1.3729 -0.5453  0.5063
34369SOL     OW 8942   1.316   7.780   2.618  0.1499 -0.0737  0.0332
34369SOL    HW1 8943   1.257   7.811   2.550  0.0911 -0.4849 -0.1022
34369SOL    HW2 8944   1.403   7.785   2.579  0.2375  0.7127  0.2956
34370SOL     OW 8945   0.745   1.311   9.019  0.2723  0.0871 -0.1723
34370SOL    HW1 8946   0.779   1.376   9.080  1.0767  0.4575 -0.9972
34370SOL    HW2 8947   0.773   1.341   8.933  0.1001 -1.0003 -0.6303
34371SOL     OW 8948   6.016   6.763  10.832 -0.0355  0.1320 -0.3810
34371SOL    HW1 8949   5.995   6.763  10.925  0.6745 -0.6430 -0.2043
34371SOL    HW2 8950   5.942   6.805  10.790 -1.1319 -0.9944  0.3684
34372SOL     OW 8951   6.622   4.885   9.907 -0.6274  0.0361 -0.6165
34372SOL    HW1 8952   6.592   4.954   9.849 -0.8650 -0.2852 -0.8809
34372SOL    HW2 8953   6.717   4.880   9.892 -0.4034  1.0940  0.2668
34373SOL     OW 8954   2.866   3.517  10.312 -0.3313  0.3197  0.6441
34373SOL    HW1 8955   2.826   3.507  10.398 -0.4195 -3.2502  0.3364
34373SOL    HW2 8956   2.957   3.540  10.330 -1.0311  2.7205  1.5009
34374SOL     OW 8957  10.031   6.680   9.879  0.3265 -0.3758 -0.1844
34374SOL    HW1 8958  10.066   6.601   9.838  1.0296 -0.1389 -0.0699
34374SOL    HW2 8959  10.074   6.683   9.964  1.8363  1.1415 -0.9399
34375SOL     OW 8960   7.384   0.391   9.363 -0.4182 -0.6422 -0.0156
34375SOL    HW1 8961   7.471   0.414   9.333  0.1648 -0.3143  1.8238
34375SOL    HW2 8962   7.386   0.296   9.374  0.3421 -0.4430  1.8206
34376SOL     OW 8963   1.485   6.201   4.781 -0.3119 -0.0408 -0.1593
34376SOL    HW1 8964   1.485   6.265   4.710  2.7440  0.4978  0.1988
34376SOL    HW2 8965   1.392   6.180   4.794 -1.3180  3.0586 -1.3853
34377SOL     OW 8966   6.344   7.581   4.155  0.2765 -0.0769 -0.1196
34377SOL    HW1 8967   6.293   7.543   4.226  0.0385  0.1385 -0.1719
34377SOL    HW2 8968   6.419   7.523   4.144  0.6188  0.2055  0.6974
34378SOL     OW 8969   4.450   9.063   1.918 -0.2664 -0.8105 -0.9170
34378SOL    HW1 8970   4.397   9.139   1.895  1.6119  0.7164 -0.5387
34378SOL    HW2 8971   4.489   9.085   2.003  0.3545 -2.1785 -0.8076
34379SOL     OW 8972   6.160   1.765   6.872  0.3491  0.2190 -0.2736
34379SOL    HW1 8973   6.149   1.680   6.914 -0.9600 -0.2212 -1.4178
34379SOL    HW2 8974   6.193   1.745   6.784 -0.8530  0.7711 -0.8885
34380SOL     OW 8975   4.076   8.202   4.033 -0.4167 -0.2223 -0.3901
34380SOL    HW1 8976   4.016   8.129   4.041  2.8552 -3.2114 -0.4793
34380SOL    HW2 8977   4.075   8.224   3.939  0.6433 -2.2786 -0.9506
34381SOL     OW 8978   9.093   7.188   0.577 -0.3440 -0.4727 -0.6789
34381SOL    HW1 8979   9.096   7.234   0.493  0.1346 -0.3754 -0.6127
34381SOL    HW2 8980   9.038   7.243   0.633 -0.3979 -0.3723 -0.8311
34382SOL     OW 8981   5.358   2.427   7.474  0.1868  0.2547  0.3242
34382SOL    HW1 8982   5.304   2.492   7.429  1.1508  0.3171 -0.8154
34382SOL    HW2 8983   5.432   2.478   7.509 -1.0671  0.3934  3.0292
34383SOL     OW 8984   3.492   2.296   9.036 -0.0142  0.4467  0.2082
34383SOL    HW1 8985   3.448   2.214   9.055  1.9909 -0.7683 -0.1770
34383SOL    HW2 8986   3.564   2.301   9.100 -0.0555  1.8761  0.1890
34384SOL     OW 8987   7.386   9.305  10.626 -0.1081  0.1719 -0.4871
34384SOL    HW1 8988   7.411   9.394  10.603 -0.1563  0.3547  0.1538
34384SOL    HW2 8989   7.361   9.310  10.718 -0.8952 -0.3370 -0.6631
34385SOL     OW 8990   2.177   4.594   0.716  0.7086  0.6144  0.0015
34385SOL    HW1 8991   2.217   4.602   0.630 -1.9274 -1.0340 -1.5066
34385SOL    HW2 8992   2.130   4.676   0.728  0.7354  0.6795 -0.3243
34386SOL     OW 8993   0.990   3.063   6.092  1.0938  0.4204 -0.4593
34386SOL    HW1 8994   1.021   3.075   6.182 -0.9659 -1.3533  0.6016
34386SOL    HW2 8995   0.972   3.151   6.061 -0.6957  0.9931  1.9232
34387SOL     OW 8996   1.551   5.502   1.325 -0.2702 -0.0483  0.1650
34387SOL    HW1 8997   1.515   5.569   1.268 -0.8487  0.2569  0.8628
34387SOL    HW2 8998   1.518   5.419   1.290 -1.4708  0.2072  0.6287
34388SOL     OW 8999   2.063   5.316   8.282 -0.2738 -0.5729  0.0223
34388SOL    HW1 9000   2.014   5.397   8.298 -1.5147 -1.4624  0.8199
34388SOL    HW2 9001   2.108   5.299   8.365  0.7089 -0.2554 -0.4221
34389SOL     OW 9002   7.801   3.140   3.554 -0.2793 -0.0226  0.1568
34389SOL    HW1 9003   7.881   3.130   3.606 -0.0427 -0.0711 -0.2084
34389SOL    HW2 9004   7.743   3.193   3.609  0.3758  0.8411  0.0342
34390SOL     OW 9005   5.024   2.095   8.527  1.0742  0.0584  0.3071
34390SOL    HW1 9006   5.044   2.022   8.469  2.8505  0.8328 -0.1478
34390SOL    HW2 9007   5.010   2.055   8.612  3.4456 -0.7627  0.3842
34391SOL     OW 9008   9.817  10.528   9.660  0.0601 -0.5300 -0.9729
34391SOL    HW1 9009   9.750  10.597   9.655  0.6602  0.1378 -0.1026
34391SOL    HW2 9010   9.772  10.455   9.703 -0.2322 -0.2354 -0.7705
34392SOL     OW 9011   6.297   3.769   3.157 -0.3721  0.6774  0.3548
34392SOL    HW1 9012   6.348   3.837   3.113  3.9981 -2.6310 -0.3825
34392SOL    HW2 9013   6.327   3.772   3.248  0.2167 -0.4353  0.2163
34393SOL     OW 9014   9.484   5.098   2.522 -0.2968 -0.0326  0.0851
34393SOL    HW1 9015   9.547   5.058   2.582 -1.6939  0.4282  1.9453
34393SOL    HW2 9016   9.512   5.189   2.515  0.3054 -0.2614 -0.5993
34394SOL     OW 9017   1.885   1.020  10.298  0.1119  0.1904 -0.0905
34394SOL    HW1 9018   1.901   0.927  10.284  1.3306  0.1140  1.4786
34394SOL    HW2 9019   1.929   1.039  10.381 -0.6005  2.0432 -0.0940
34395SOL     OW 9020   4.019   7.906   8.828 -0.2024 -0.0023  0.5775
34395SOL    HW1 9021   4.036   7.816   8.855 -1.4417 -0.6625 -0.7571
34395SOL    HW2 9022   4.031   7.906   8.733  3.1460  2.0548  0.8174
34396SOL     OW 9023   6.358   4.273   0.611 -0.1113  0.5398 -0.0590
34396SOL    HW1 9024   6.360   4.293   0.517  0.8294  1.4319  0.1316
34396SOL    HW2 9025   6.450   4.273   0.637 -0.3408 -0.1028  0.7905
34397SOL     OW 9026   9.999   5.668   3.672 -0.4570 -1.0980  0.3571
34397SOL    HW1 9027  10.080   5.681   3.722  0.5310  1.0999 -1.6002
34397SOL    HW2 9028  10.024   5.611   3.600 -0.4650  0.0409 -0.5720
34398SOL     OW 9029   4.155   5.336   9.767 -0.2221  0.2509  0.2614
34398SOL    HW1 9030   4.229   5.303   9.715  1.6864  2.2875  1.5232
34398SOL    HW2 9031   4.151   5.277   9.842 -0.3140 -0.2601 -0.1402
34399SOL     OW 9032   3.048   7.933   9.742 -0.2260  0.7047 -0.3194
34399SOL    HW1 9033   2.982   7.882   9.695 -0.8366  0.1277  1.1196
34399SOL    HW2 9034   3.103   7.969   9.673 -0.5439 -0.8495 -1.4478
34400SOL     OW 9035   4.654   2.013   3.228  0.7559  0.0225 -0.0400
34400SOL    HW1 9036   4.727   2.035   3.170  1.7914 -1.2424  0.7166
34400SOL    HW2 9037   4.619   1.932   3.192  0.6462 -0.1374  0.4193
34401SOL     OW 9038   7.579   0.302   1.593  0.5871 -0.1842 -0.3090
34401SOL    HW1 9039   7.569   0.296   1.688 -0.1617  0.1848 -0.3546
34401SOL    HW2 9040   7.603   0.394   1.577 -2.0029  0.4982 -0.6647
34402SOL     OW 9041   8.377  10.309   9.531  0.0567 -0.0465 -0.4086
34402SOL    HW1 9042   8.335  10.241   9.479 -2.1947  0.7546  0.2561
34402SOL    HW2 9043   8.402  10.265   9.612  0.1712 -0.4664 -0.6710
34403SOL     OW 9044   1.538   9.190   6.044 -0.0341 -0.1308  0.4376
34403SOL    HW1 9045   1.471   9.251   6.012  0.9170  0.1179 -1.1942
34403SOL    HW2 9046   1.529   9.113   5.989  0.4203 -0.4606  0.8130
34404SOL     OW 9047   6.518   2.619   4.943  0.0730  0.8486 -0.6587
34404SOL    HW1 9048   6.485   2.647   4.857  0.2775  2.7441 -0.1527
34404SOL    HW2 9049   6.561   2.696   4.978  0.0739  0.0678  1.1324
34405SOL     OW 9050   7.915   6.001  10.789  0.0279  0.6929  0.2007
34405SOL    HW1 9051   7.839   5.989  10.846  0.3038 -1.2207  0.2207
34405SOL    HW2 9052   7.879   6.020  10.703 -0.6619 -2.7551 -0.4166
34406SOL     OW 9053   1.215  10.782  10.620  0.0684 -0.0911  0.0663
34406SOL    HW1 9054   1.134  10.733  10.634  0.0256  0.3713  1.6436
34406SOL    HW2 9055   1.270  10.723  10.568 -1.1261 -0.5597 -0.6976
34407SOL     OW 9056   3.549   7.023   4.767  0.3066  0.1152 -0.0299
34407SOL    HW1 9057   3.578   7.073   4.843 -0.0414 -2.2385  1.7750
34407SOL    HW2 9058   3.629   6.981   4.734  0.0336 -1.2240  0.9353
34408SOL     OW 9059  10.374   0.797   3.465 -0.4802  0.0480 -0.2154
34408SOL    HW1 9060  10.281   0.771   3.468 -0.4220 -0.1649 -0.2084
34408SOL    HW2 9061  10.373   0.890   3.486 -0.7537  0.1946 -0.8359
34409SOL     OW 9062   0.302   5.929   3.664  0.1114 -0.8120  0.0051
34409SOL    HW1 9063   0.243   5.877   3.718  1.5938 -0.9948  1.5703
34409SOL    HW2 9064   0.245   5.979   3.606 -1.5488 -1.1662  1.2471
34410SOL     OW 9065   0.720   1.504   6.713 -0.0064  0.3468  0.6062
34410SOL    HW1 9066   0.705   1.595   6.739 -0.7087  1.3378 -2.7019
34410SOL    HW2 9067   0.633   1.464   6.716 -0.2853  0.7662 -0.9802
34411SOL     OW 9068  10.773   7.641   2.789 -0.1645 -0.0650  0.2378
34411SOL    HW1 9069  10.757   7.691   2.710  0.5657  0.0685  0.1703
34411SOL    HW2 9070  10.821   7.564   2.759 -2.2711 -1.4334  0.1656
34412SOL     OW 9071   3.686   6.659   9.761  0.7447 -0.1147  0.2512
34412SOL    HW1 9072   3.676   6.751   9.740 -1.5508 -0.4091 -0.2114
34412SOL    HW2 9073   3.730   6.621   9.685 -0.8827  0.1457 -0.8780
34413SOL     OW 9074   4.368   5.879   7.499 -0.0810 -0.3089  0.2737
34413SOL    HW1 9075   4.417   5.840   7.427  0.9445  1.5014 -0.0650
34413SOL    HW2 9076   4.396   5.831   7.577  0.4314 -0.8657 -0.2502
34414SOL     OW 9077   6.008   2.388   6.471 -0.0292  0.5033  0.8057
34414SOL    HW1 9078   5.972   2.343   6.548  1.2200  1.4369  2.0005
34414SOL    HW2 9079   5.953   2.360   6.398 -0.2875 -1.6768  1.7613
34415SOL     OW 9080   6.453   1.938   2.667  0.2038  0.1163  0.2768
34415SOL    HW1 9081   6.443   1.963   2.759 -1.0168 -0.4985  0.3180
34415SOL    HW2 9082   6.412   2.010   2.618  0.5725  0.2892  0.2161
34416SOL     OW 9083   9.210   2.799   9.360  0.0511 -0.2187  0.4363
34416SOL    HW1 9084   9.246   2.888   9.352 -0.4891  0.2475  2.5066
34416SOL    HW2 9085   9.137   2.798   9.299 -1.6573  1.7630  2.2643
34417SOL     OW 9086   6.658   7.856   6.507  0.3856  0.3084  0.7037
34417SOL    HW1 9087   6.594   7.797   6.547 -1.7756  1.2875 -1.0903
34417SOL    HW2 9088   6.702   7.804   6.441 -0.0607  0.1506  0.5265
34418SOL     OW 9089   5.974   5.418   1.072  0.2868 -0.4828  0.5379
34418SOL    HW1 9090   5.917   5.462   1.135  0.5921  0.4375  0.1800
34418SOL    HW2 9091   6.061   5.455   1.087  0.4671 -0.6418 -0.0662
34419SOL     OW 9092  10.619   4.346   1.376  0.2622  0.2179  0.5336
34419SOL    HW1 9093  10.687   4.278   1.378  0.2501  0.1002 -1.1908
34419SOL    HW2 9094  10.546   4.308   1.425  0.5821 -0.6710  0.3470
34420SOL     OW 9095   8.204  10.020   5.110  0.1381  0.6106  0.1126
34420SOL    HW1 9096   8.183  10.068   5.190 -0.4519  3.6808 -1.7011
34420SOL    HW2 9097   8.118   9.995   5.075  0.2895  0.7117 -0.3363
34421SOL     OW 9098   7.183   6.786   8.074  0.1567  0.3541  0.1314
34421SOL    HW1 9099   7.275   6.767   8.053  0.0015  0.3203 -0.5366
34421SOL    HW2 9100   7.138   6.782   7.989 -0.9450 -2.2776  0.7541
34422SOL     OW 9101   4.060   3.628   6.334  0.2756 -0.3157  0.0943
34422SOL    HW1 9102   4.135   3.609   6.390  0.3988  0.2746  0.1408
34422SOL    HW2 9103   4.055   3.554   6.275 -0.5867 -1.5529  1.6391
34423SOL     OW 9104   9.146   2.238   9.757 -0.3392  0.0701 -0.2524
34423SOL    HW1 9105   9.177   2.326   9.740 -0.0509  0.0896  0.3562
34423SOL    HW2 9106   9.051   2.244   9.749 -0.3554  0.5375  0.2293
34424SOL     OW 9107   3.226   9.449   3.528  0.1920 -0.4081 -0.1840
34424SOL    HW1 9108   3.286   9.453   3.453 -1.1390  2.4988 -1.2211
34424SOL    HW2 9109   3.140   9.470   3.492 -0.4857  1.1850  2.1259
34425SOL     OW 9110   7.354   6.513   7.925  0.0995  0.3938  0.1019
34425SOL    HW1 9111   7.343   6.478   8.013  1.9677 -0.5038  0.0075
34425SOL    HW2 9112   7.440   6.483   7.896 -0.8718 -0.2573 -2.4660
34426SOL     OW 9113   4.241   9.601   9.009 -0.4765  0.0518  0.0655
34426SOL    HW1 9114   4.259   9.625   8.918  0.5784  0.3232  0.3366
34426SOL    HW2 9115   4.233   9.506   9.007 -1.4514  0.1317 -0.4693
34427SOL     OW 9116   7.622   4.904   2.406 -0.4340  0.6909  0.3037
34427SOL    HW1 9117   7.711   4.937   2.392 -0.8435  1.5868 -0.2790
34427SOL    HW2 9118   7.573   4.980   2.436 -0.9166  0.0978  1.0613
34428SOL     OW 9119   6.544   6.595   1.669 -0.1501  0.4415  0.2277
34428SOL    HW1 9120   6.588   6.510   1.666 -0.1620  0.4652 -0.9476
34428SOL    HW2 9121   6.473   6.583   1.732 -0.2921 -0.4974 -0.0938
34429SOL     OW 9122   4.590   2.012   1.953  0.5839 -0.1304  0.1745
34429SOL    HW1 9123   4.551   1.979   2.034  1.6519  0.8323  1.1129
34429SOL    HW2 9124   4.683   1.989   1.959  1.2576  2.3478  0.5812
34430SOL     OW 9125   7.950   8.230   5.763  0.2750 -0.2909 -0.3058
34430SOL    HW1 9126   8.015   8.300   5.758  2.1318 -1.6522  2.5736
34430SOL    HW2 9127   7.989   8.164   5.819 -3.7646 -0.9962  2.1048
34431SOL     OW 9128   9.398  10.087   9.681  0.4879 -0.5417 -0.7672
34431SOL    HW1 9129   9.344  10.082   9.603  0.6345 -0.7658 -0.8540
34431SOL    HW2 9130   9.390  10.178   9.710 -0.7546 -0.8195 -0.1887
34432SOL     OW 9131   3.445   3.961   3.181  0.2249 -0.1696 -0.1425
34432SOL    HW1 9132   3.372   3.906   3.210 -0.1132 -0.6611 -1.8238
34432SOL    HW2 9133   3.506   3.900   3.140  1.0613  0.3887  0.2597
34433SOL     OW 9134   0.003   2.969   8.030  0.2842 -0.1531 -0.0731
34433SOL    HW1 9135  -0.059   3.026   8.075  0.3046 -1.7261  2.0720
34433SOL    HW2 9136  -0.021   2.881   8.058  2.9596 -0.8700  0.1728
34434SOL     OW 9137   4.884   7.753   4.525  0.2234 -0.0130 -0.3290
34434SOL    HW1 9138   4.962   7.700   4.534 -0.7661 -1.8749 -2.0406
34434SOL    HW2 9139   4.828   7.728   4.599  1.9305  2.8805  2.2015
34435SOL     OW 9140   1.648   8.726   5.046 -0.7820 -0.2482 -0.4939
34435SOL    HW1 9141   1.634   8.724   4.951  1.2462 -0.4955 -0.8229
34435SOL    HW2 9142   1.719   8.789   5.058 -0.8917 -0.3561  0.8539
34436SOL     OW 9143   5.709   4.498   8.109 -0.3846 -0.0950 -0.1212
34436SOL    HW1 9144   5.708   4.522   8.202 -0.4878 -0.4025 -0.0409
34436SOL    HW2 9145   5.799   4.470   8.093 -0.1532  0.7471 -0.3215
34437SOL     OW 9146   2.218   2.801   4.318  0.2599  0.2696 -0.2263
34437SOL    HW1 9147   2.250   2.891   4.319  2.6786 -0.4843 -1.6982
34437SOL    HW2 9148   2.274   2.755   4.381 -1.0332 -0.2354  0.6089
34438SOL     OW 9149   1.679   6.774   9.131 -0.3491  0.0414 -0.3079
34438SOL    HW1 9150   1.640   6.859   9.113 -1.7878 -0.4985  0.1160
34438SOL    HW2 9151   1.673   6.764   9.226 -1.9345 -1.2927 -0.4966
34439SOL     OW 9152   4.253   9.253   2.585 -0.9912 -0.4553  0.7620
34439SOL    HW1 9153   4.219   9.220   2.668 -1.7602  0.1744  0.7099
34439SOL    HW2 9154   4.197   9.215   2.518 -1.7597  0.7377  0.6884
34440SOL     OW 9155   1.252   1.598   0.217  0.2494  0.3445 -0.1230
34440SOL    HW1 9156   1.315   1.531   0.241 -0.3713 -0.6208 -1.0861
34440SOL    HW2 9157   1.305   1.671   0.185  0.9484  0.5835  1.5404
34441SOL     OW 9158   0.574   7.902   5.880  0.1912 -0.1995 -0.1928
34441SOL    HW1 9159   0.504   7.960   5.850  0.5658 -0.0844 -0.8636
34441SOL    HW2 9160   0.534   7.848   5.948 -0.9624 -1.1662 -1.5933
34442SOL     OW 9161   4.127  10.219   6.514 -1.0317  0.3122  0.0219
34442SOL    HW1 9162   4.043  10.180   6.537 -1.5891  0.3252 -1.8325
34442SOL    HW2 9163   4.130  10.301   6.562 -2.4499  0.6828 -0.4784
34443SOL     OW 9164   8.438   2.835  10.304 -0.0222 -0.4337 -0.2917
34443SOL    HW1 9165   8.444   2.745  10.337  0.0389  0.4582  2.3380
34443SOL    HW2 9166   8.519   2.877  10.334 -0.2126  0.6010 -1.1747
34444SOL     OW 9167  10.651   0.270   1.288  0.0293  0.2349  0.1258
34444SOL    HW1 9168  10.725   0.246   1.343  0.1174 -0.3170 -0.2216
34444SOL    HW2 9169  10.684   0.262   1.199 -0.5005 -0.2165 -0.0374
34445SOL     OW 9170   4.105   7.623   1.733  0.2505 -0.5773 -0.6419
34445SOL    HW1 9171   4.067   7.660   1.813  1.6342 -1.6911  0.5883
34445SOL    HW2 9172   4.094   7.692   1.668 -0.3427  0.6295  0.6701
34446SOL     OW 9173   1.011  10.410   1.504 -0.1066  0.3842 -0.5592
34446SOL    HW1 9174   0.930  10.376   1.466 -0.9584  0.5600  1.0188
34446SOL    HW2 9175   1.042  10.340   1.561 -0.1757  1.0218  0.2815
34447SOL     OW 9176   1.279   6.763   5.144 -0.6906  0.3396 -0.5075
34447SOL    HW1 9177   1.239   6.773   5.231  0.8345  4.7747 -0.0818
34447SOL    HW2 9178   1.355   6.706   5.160 -0.8473  0.4760  0.8877
34448SOL     OW 9179   1.289   5.552   8.136 -0.2129  0.1952  0.4873
34448SOL    HW1 9180   1.300   5.488   8.206  0.4037  1.3563  1.4829
34448SOL    HW2 9181   1.194   5.557   8.122 -0.2512 -1.2731  0.0350
34449SOL     OW 9182   2.863   6.388   4.016  0.1260 -0.5244  0.3406
34449SOL    HW1 9183   2.827   6.421   4.098 -0.6444 -2.0132  0.6317
34449SOL    HW2 9184   2.938   6.445   3.998 -0.8984  1.0927  1.0049
34450SOL     OW 9185   5.185   0.986   4.053  0.1914 -0.4526 -0.9275
34450SOL    HW1 9186   5.147   1.075   4.056 -1.7055 -1.2198 -0.6277
34450SOL    HW2 9187   5.278   0.999   4.067 -0.4570  1.2170  3.0099
34451SOL     OW 9188  10.270   8.217   1.837  0.5705 -0.2546  0.6053
34451SOL    HW1 9189  10.299   8.148   1.897 -1.3190 -0.1930  1.6901
34451SOL    HW2 9190  10.177   8.198   1.822  0.5097  0.9268 -0.6669
34452SOL     OW 9191   3.883   4.814   3.296  0.9744  0.6247 -0.0695
34452SOL    HW1 9192   3.861   4.828   3.388  0.8081  1.1674 -0.1850
34452SOL    HW2 9193   3.801   4.786   3.256  1.3978 -1.1142  0.2357
34453SOL     OW 9194  10.214   1.093  10.207  0.0794 -0.4177  0.0042
34453SOL    HW1 9195  10.201   0.999  10.215 -2.5840 -0.0425  1.1419
34453SOL    HW2 9196  10.261   1.104  10.124  1.0325 -2.7382  0.1574
34454SOL     OW 9197   3.035   4.483   0.868 -0.9920  0.1666  0.8316
34454SOL    HW1 9198   2.966   4.443   0.815 -1.0460 -0.6744  1.5112
34454SOL    HW2 9199   3.097   4.412   0.885  0.7016  1.1993 -0.7815
34455SOL     OW 9200   6.876   2.242   6.618  0.6507 -0.4335  0.7236
34455SOL    HW1 9201   6.933   2.260   6.694  0.7910 -1.0255  0.7679
34455SOL    HW2 9202   6.913   2.295   6.548 -0.2103  1.0699  1.3675
34456SOL     OW 9203   9.258  10.182   8.731  0.3675 -0.2412  0.5131
34456SOL    HW1 9204   9.255  10.267   8.776  0.6450 -0.1979  0.4499
34456SOL    HW2 9205   9.350  10.171   8.707  0.7826 -1.5620  2.4666
34457SOL     OW 9206   7.570   9.427   2.833 -0.2213  0.3699  0.7223
34457SOL    HW1 9207   7.578   9.508   2.884  0.6889  0.1805  0.9012
34457SOL    HW2 9208   7.477   9.421   2.812  0.0043  2.8006 -1.5015
34458SOL     OW 9209   3.992   4.020   1.310 -0.1740 -0.0697  0.3505
34458SOL    HW1 9210   4.010   3.927   1.324  2.5425  0.2705 -0.2321
34458SOL    HW2 9211   3.968   4.026   1.217  2.7408  0.0707 -0.4971
34459SOL     OW 9212   9.348   9.198   9.576  0.0569  0.0673 -0.0762
34459SOL    HW1 9213   9.389   9.114   9.557  2.0927  0.9261  0.2386
34459SOL    HW2 9214   9.341   9.241   9.491 -2.2856 -0.9080 -0.4456
34460SOL     OW 9215   1.743   0.476   1.278 -0.3671 -0.2658  0.6093
34460SOL    HW1 9216   1.783   0.412   1.336 -1.0434 -2.3487 -1.0694
34460SOL    HW2 9217   1.795   0.556   1.289  0.3380 -0.9971  2.9834
34461SOL     OW 9218   3.509   9.293   4.732  0.3402 -0.0281  0.1850
34461SOL    HW1 9219   3.456   9.356   4.683  0.7872  0.5615  0.4439
34461SOL    HW2 9220   3.450   9.220   4.749  0.0271 -0.0080 -0.7723
34462SOL     OW 9221   6.924   4.386   0.415  0.8612  0.7618 -0.4530
34462SOL    HW1 9222   7.013   4.376   0.449  1.1481 -2.1632 -1.7114
34462SOL    HW2 9223   6.903   4.300   0.378 -2.8804  1.0071  0.6659
34463SOL     OW 9224   0.708   7.657   0.757  0.0299 -0.0736  0.1221
34463SOL    HW1 9225   0.706   7.563   0.740 -0.5338 -0.3184  1.4724
34463SOL    HW2 9226   0.655   7.694   0.687  1.8335 -0.5159 -1.6047
34464SOL     OW 9227   7.607   6.589  10.588 -0.3738  0.1793 -0.4891
34464SOL    HW1 9228   7.652   6.652  10.644 -1.3818  0.8373 -0.3896
34464SOL    HW2 9229   7.614   6.626  10.500 -0.2614  0.0090 -0.5530
34465SOL     OW 9230   1.358   9.437   3.977  0.6837  0.3135  0.2010
34465SOL    HW1 9231   1.454   9.441   3.975  0.6462  1.9353 -0.0636
34465SOL    HW2 9232   1.332   9.446   3.885  0.2705  0.8846  0.3666
34466SOL     OW 9233   1.007   2.637   8.673 -0.0505 -0.3699  0.3004
34466SOL    HW1 9234   1.060   2.625   8.594  1.3060  0.1936  1.0873
34466SOL    HW2 9235   1.001   2.731   8.685 -1.1306 -0.4235  0.3266
34467SOL     OW 9236   6.255   5.948  10.351 -0.0484 -0.0216 -0.1952
34467SOL    HW1 9237   6.278   5.866  10.394 -0.3493 -0.0986 -0.1806
34467SOL    HW2 9238   6.167   5.933  10.317 -0.0593  0.2567 -0.2876
34468SOL     OW 9239   8.405   4.624   8.422  0.3587  0.3664  0.4785
34468SOL    HW1 9240   8.413   4.629   8.518  0.6547  0.1881  0.4616
34468SOL    HW2 9241   8.433   4.536   8.400  3.6266  1.3996 -0.0994
34469SOL     OW 9242   5.271   9.197  10.611 -0.4888  0.3408  0.2531
34469SOL    HW1 9243   5.324   9.270  10.581  0.2336  0.2963  1.3747
34469SOL    HW2 9244   5.207   9.184  10.541  0.3154  1.0629 -0.6495
34470SOL     OW 9245   7.401   3.242  10.515 -0.6243  0.0157 -0.0524
34470SOL    HW1 9246   7.356   3.320  10.548 -0.2106 -0.3195  1.3846
34470SOL    HW2 9247   7.330   3.185  10.484 -0.9607  0.7506 -0.6779
34471SOL     OW 9248   3.249   8.558   7.619 -0.5195  0.2218 -0.4901
34471SOL    HW1 9249   3.250   8.560   7.523 -0.2785 -0.0188 -0.4957
34471SOL    HW2 9250   3.181   8.495   7.641 -0.1077 -0.2346 -0.5160
34472SOL     OW 9251   8.010   2.717  10.020 -0.1683 -0.0674  0.2420
34472SOL    HW1 9252   7.970   2.719  10.108 -1.0857  1.7325 -0.1718
34472SOL    HW2 9253   8.025   2.809   9.999 -1.0271 -0.3885 -1.9627
34473SOL     OW 9254   4.686   7.755   1.197 -0.1949 -0.0005  0.1458
34473SOL    HW1 9255   4.620   7.822   1.178 -0.7838 -0.3599  0.8296
34473SOL    HW2 9256   4.695   7.757   1.293  0.0082 -0.6801  0.1472
34474SOL     OW 9257   6.868   5.705   4.692  0.0084  0.1622 -0.2413
34474SOL    HW1 9258   6.954   5.746   4.695 -0.8876  2.1632  2.7168
34474SOL    HW2 9259   6.880   5.621   4.737  0.3193  0.7067  0.7123
34475SOL     OW 9260   0.165   6.922   8.355  0.0017 -0.2016  0.0374
34475SOL    HW1 9261   0.200   6.867   8.285  1.3948  1.2440 -0.4571
34475SOL    HW2 9262   0.227   6.994   8.362 -1.0286  0.5860  1.6138
34476SOL     OW 9263   0.020   9.745   1.069 -0.0869  0.2707 -0.2295
34476SOL    HW1 9264   0.011   9.739   1.164 -1.3545  1.1924 -0.2708
34476SOL    HW2 9265  -0.036   9.818   1.044  0.0529 -0.0988 -1.7180
34477SOL     OW 9266   0.135   1.142  10.026 -0.9509  0.4139 -0.4848
34477SOL    HW1 9267   0.050   1.125  10.068 -0.0611 -0.0112  1.2163
34477SOL    HW2 9268   0.182   1.198  10.088 -0.6821  2.3110 -2.2811
34478SOL     OW 9269   7.566   8.951   1.922  0.0299  0.1019  0.8853
34478SOL    HW1 9270   7.586   9.029   1.871  0.5618 -0.5292  0.0985
34478SOL    HW2 9271   7.520   8.984   2.000  0.4855  1.2101  0.7036
34479SOL     OW 9272   5.392   6.885   7.453 -0.4532 -0.2195  0.4209
34479SOL    HW1 9273   5.315   6.847   7.410  0.3829 -1.1926 -0.3003
34479SOL    HW2 9274   5.439   6.809   7.487 -1.1919  0.5255  3.3582
34480SOL     OW 9275   3.791   4.551   6.650  1.2332 -0.5081  0.1011
34480SOL    HW1 9276   3.827   4.503   6.724  1.1323  0.1147  0.5660
34480SOL    HW2 9277   3.768   4.637   6.687 -3.2169 -1.6641  0.5064
34481SOL     OW 9278   1.304   8.787   2.722 -0.2190  0.1379  0.1022
34481SOL    HW1 9279   1.395   8.759   2.725 -0.2019  0.0622 -0.7317
34481SOL    HW2 9280   1.270   8.771   2.810  1.4931  3.4858  1.5319
34482SOL     OW 9281   3.243   7.882   8.916  0.4694  0.2663 -0.3457
34482SOL    HW1 9282   3.226   7.968   8.878  0.5798 -0.0700 -1.1663
34482SOL    HW2 9283   3.310   7.844   8.859 -0.2537 -0.7370 -0.5428
34483SOL     OW 9284   2.580  10.700   0.556 -0.6230 -0.3362  0.1542
34483SOL    HW1 9285   2.598  10.609   0.580  1.8034  0.1024  0.2730
34483SOL    HW2 9286   2.659  10.747   0.583 -1.0015  1.4777 -1.7258
34484SOL     OW 9287  10.896   3.455   8.151  0.5715 -0.1960 -0.3109
34484SOL    HW1 9288  10.840   3.531   8.138  0.0361 -0.5833 -0.2948
34484SOL    HW2 9289  10.840   3.390   8.194  1.4263 -0.0685  1.0833
34485SOL     OW 9290   8.462   4.328   0.923  0.4192 -0.1755 -0.4041
34485SOL    HW1 9291   8.557   4.334   0.921  0.4424  0.1502  0.8840
34485SOL    HW2 9292   8.433   4.406   0.970 -0.5798  0.3486 -1.8069
34486SOL     OW 9293   3.777   3.491   7.712 -0.2556  0.1611  0.3857
34486SOL    HW1 9294   3.765   3.558   7.779  0.5735  2.5775 -1.7371
34486SOL    HW2 9295   3.699   3.498   7.657  0.6882  0.6919 -0.9107
34487SOL     OW 9296   2.059   9.859   0.024 -0.1720  0.3077  0.1962
34487SOL    HW1 9297   2.002   9.935   0.030 -1.2354 -0.4212 -0.4113
34487SOL    HW2 9298   2.086   9.842   0.114 -1.2815  0.3831  0.5504
34488SOL     OW 9299   2.292   3.456   6.654 -0.0481 -0.4727  0.1109
34488SOL    HW1 9300   2.341   3.458   6.736  0.0382  1.5944  0.0698
34488SOL    HW2 9301   2.205   3.488   6.678 -0.1563 -0.2869 -0.5067
34489SOL     OW 9302   3.426   6.347   5.748 -0.1378 -0.1203 -0.0566
34489SOL    HW1 9303   3.371   6.368   5.672 -0.7876 -0.1667  0.3962
34489SOL    HW2 9304   3.468   6.264   5.725 -0.5632 -0.2869 -0.2371
34490SOL     OW 9305  10.121   1.142   6.233  0.5810 -0.2011  0.0695
34490SOL    HW1 9306  10.042   1.196   6.228  0.9814  0.3225 -0.7858
34490SOL    HW2 9307  10.161   1.165   6.317  0.6064  0.6303 -0.1636
34491SOL     OW 9308   6.172   0.802   6.926  0.5066 -0.1913  0.1158
34491SOL    HW1 9309   6.103   0.868   6.942  0.1112 -0.2803 -1.1414
34491SOL    HW2 9310   6.130   0.737   6.871  1.5592 -0.3450 -0.5254
34492SOL     OW 9311   9.537   1.767   4.913  0.5293  0.4601  0.4708
34492SOL    HW1 9312   9.526   1.755   5.007 -2.2288 -0.4316  0.1203
34492SOL    HW2 9313   9.531   1.862   4.901 -1.1990  0.4552  1.0381
34493SOL     OW 9314   8.882  10.494   0.195 -0.0283 -0.0109  0.4510
34493SOL    HW1 9315   8.826  10.429   0.238  0.8360 -1.0693  0.0204
34493SOL    HW2 9316   8.844  10.578   0.220 -0.2978 -0.6187  2.2773
34494SOL     OW 9317   5.365   8.389   7.147  0.2983 -0.2507 -0.3180
34494SOL    HW1 9318   5.283   8.439   7.147  0.4164 -0.0558 -0.5760
34494SOL    HW2 9319   5.343   8.306   7.190 -0.1733 -0.4260 -0.8830
34495SOL     OW 9320   7.233   9.880   4.855 -0.1480 -0.7220  0.5267
34495SOL    HW1 9321   7.219   9.892   4.761  1.2209 -1.2100  0.2370
34495SOL    HW2 9322   7.263   9.790   4.863 -0.4512 -0.7472  1.4719
34496SOL     OW 9323   0.083   0.357  10.720 -0.3314 -0.0142  0.0670
34496SOL    HW1 9324   0.076   0.376  10.626 -0.2732 -0.1555  0.0346
34496SOL    HW2 9325   0.161   0.302  10.728 -1.6782 -2.0404 -0.1001
34497SOL     OW 9326   6.802   6.669  10.669 -0.3656  0.1065  0.3352
34497SOL    HW1 9327   6.877   6.713  10.630 -0.0819 -0.1474  0.5976
34497SOL    HW2 9328   6.749   6.641  10.594  0.4621 -0.8772  0.1020
34498SOL     OW 9329   2.594   7.909   6.912 -0.1192 -0.2169 -0.4908
34498SOL    HW1 9330   2.622   7.989   6.868  0.4054  0.5015  1.0740
34498SOL    HW2 9331   2.659   7.896   6.982 -0.1257 -2.0803 -0.7736
34499SOL     OW 9332   2.100   4.517   3.277 -0.1561 -0.0989  0.7445
34499SOL    HW1 9333   2.166   4.586   3.275 -0.1672 -0.0749  1.0545
34499SOL    HW2 9334   2.021   4.560   3.311 -0.8081  0.2557 -1.0977
34500SOL     OW 9335   2.678   0.283   4.377  1.0389  0.0476 -0.5666
34500SOL    HW1 9336   2.591   0.290   4.417  1.6407  1.9707  0.5895
34500SOL    HW2 9337   2.721   0.214   4.427  0.0393 -1.2658 -1.4764
34501SOL     OW 9338   7.794   2.772  10.193  0.2450  0.3568  0.6160
34501SOL    HW1 9339   7.700   2.783  10.210 -0.0935  2.5877 -1.9388
34501SOL    HW2 9340   7.834   2.849  10.234  0.7563  0.1725  0.4602
34502SOL     OW 9341   8.262   7.439   8.472 -0.2016 -0.0384  0.1381
34502SOL    HW1 9342   8.231   7.469   8.386 -0.8120 -0.9145  0.0285
34502SOL    HW2 9343   8.352   7.469   8.477 -0.1502  0.0116 -0.8360
34503SOL     OW 9344   8.247  10.071   8.005 -0.2042 -0.0531 -0.1199
34503SOL    HW1 9345   8.241  10.164   8.026  0.1157  0.1667 -0.9406
34503SOL    HW2 9346   8.304  10.034   8.072 -1.4041  0.0710  0.9995
34504SOL     OW 9347   3.835   1.948   5.026 -0.1770  0.5266 -0.1342
34504SOL    HW1 9348   3.779   1.877   5.058 -0.4612  0.7888 -0.0462
34504SOL    HW2 9349   3.788   1.982   4.950  0.2199  0.2741 -0.5029
34505SOL     OW 9350  10.499   9.536   6.187  0.1496  0.4321 -0.2533
34505SOL    HW1 9351  10.587   9.540   6.225 -0.2902 -0.7352  0.9783
34505SOL    HW2 9352  10.459   9.620   6.211  0.2862  0.1872  0.8806
34506SOL     OW 9353   0.745   1.708   3.141  0.2714 -0.1030  0.3080
34506SOL    HW1 9354   0.837   1.701   3.168  0.6568 -1.4983 -1.1936
34506SOL    HW2 9355   0.745   1.776   3.073  0.3551 -0.6014 -0.2052
34507SOL     OW 9356   8.775   9.471   8.167 -0.6936  0.1372 -0.6210
34507SOL    HW1 9357   8.703   9.409   8.173 -0.7035  0.0706 -1.3605
34507SOL    HW2 9358   8.777   9.497   8.075 -2.3466  3.2158  0.0966
34508SOL     OW 9359   4.414   3.773   3.811 -0.1760 -0.1341 -0.1089
34508SOL    HW1 9360   4.359   3.710   3.856 -1.2153  2.9115  3.3774
34508SOL    HW2 9361   4.483   3.795   3.873  0.2776  1.9577 -1.2288
34509SOL     OW 9362   9.699   7.097   7.406 -0.0973 -0.0900  0.0597
34509SOL    HW1 9363   9.739   7.024   7.359 -0.0511 -0.4622  0.6675
34509SOL    HW2 9364   9.728   7.085   7.496 -1.8566 -0.5645  0.5973
34510SOL     OW 9365   0.204   0.512   9.511 -0.1302  0.0186 -0.0264
34510SOL    HW1 9366   0.257   0.585   9.478 -1.2625  1.0136  0.2741
34510SOL    HW2 9367   0.133   0.504   9.448 -2.8821  2.5929  2.4275
34511SOL     OW 9368   2.352   6.240   2.767  0.5592  0.4514  0.1931
34511SOL    HW1 9369   2.442   6.273   2.762  1.1253 -0.5935  2.2168
34511SOL    HW2 9370   2.297   6.319   2.762  1.6923  1.3210  0.8615
34512SOL     OW 9371  10.564   6.572   3.721  0.1557 -0.0382  0.4817
34512SOL    HW1 9372  10.492   6.604   3.667  2.4782  0.1563 -2.8277
34512SOL    HW2 9373  10.614   6.651   3.743  0.6509 -0.4020  0.6786
34513SOL     OW 9374   1.795   5.321   6.079  0.1829  0.0369  0.9395
34513SOL    HW1 9375   1.837   5.235   6.075 -0.1995 -0.1042 -1.0126
34513SOL    HW2 9376   1.867   5.383   6.066  0.0848 -0.1388 -0.6470
34514SOL     OW 9377   2.605   2.580   8.083 -0.0416 -0.2207  0.6086
34514SOL    HW1 9378   2.589   2.556   8.174 -0.3187 -1.1597  0.3240
34514SOL    HW2 9379   2.664   2.513   8.050  0.0077  0.0769  0.0737
34515SOL     OW 9380   7.635   2.494   5.636  0.0890 -0.0510 -0.1451
34515SOL    HW1 9381   7.669   2.469   5.722  1.0100 -0.4520 -0.6068
34515SOL    HW2 9382   7.552   2.447   5.629  1.0180 -1.7508 -0.3339
34516SOL     OW 9383   5.567  10.343   6.053 -0.1154 -0.2131  0.3225
34516SOL    HW1 9384   5.520  10.301   6.125  0.3865  1.1035  1.4587
34516SOL    HW2 9385   5.650  10.295   6.049 -0.6366 -1.1041 -0.2363
34517SOL     OW 9386   8.377  10.871   7.333 -0.4361 -0.2108  0.1990
34517SOL    HW1 9387   8.443  10.809   7.364 -0.5487 -0.8649 -0.8233
34517SOL    HW2 9388   8.427  10.942   7.292 -0.3380 -0.2291  0.2896
34518SOL     OW 9389   0.718   5.972   0.110  0.1366 -0.3212 -0.0590
34518SOL    HW1 9390   0.730   5.892   0.059  0.6835  0.6412 -1.5074
34518SOL    HW2 9391   0.627   5.969   0.139  0.0126 -1.2241 -0.5012
34519SOL     OW 9392   4.587   0.360   8.112  0.6335 -0.5755 -0.2121
34519SOL    HW1 9393   4.561   0.385   8.201 -0.3856 -1.9301 -0.0994
34519SOL    HW2 9394   4.676   0.326   8.122  0.6864 -0.3303  0.2127
34520SOL     OW 9395   9.186   6.873   9.360  0.6274  0.1929 -0.9335
34520SOL    HW1 9396   9.263   6.817   9.373  1.7834  1.5987 -1.4787
34520SOL    HW2 9397   9.114   6.811   9.346  0.8934 -1.3126  2.9921
34521SOL     OW 9398   0.170   0.745   9.202  0.1726  0.3969 -0.2769
34521SOL    HW1 9399   0.114   0.737   9.279  0.3917  0.2883 -0.1269
34521SOL    HW2 9400   0.115   0.716   9.129  0.7285 -1.9924  0.1508
34522SOL     OW 9401   1.082   1.101   0.180 -0.1993 -0.4944  0.3183
34522SOL    HW1 9402   0.999   1.142   0.156 -0.5788  0.1315  2.5196
34522SOL    HW2 9403   1.057   1.022   0.228  0.3917  0.5371  2.4258
34523SOL     OW 9404   0.241   2.784   2.374 -0.1387 -0.5773 -0.0661
34523SOL    HW1 9405   0.173   2.837   2.332 -0.1188  0.6329  1.3327
34523SOL    HW2 9406   0.316   2.844   2.381  0.4267 -1.2969  0.1519
34524SOL     OW 9407   5.150   6.245   9.707  0.3440 -0.3462 -0.9701
34524SOL    HW1 9408   5.191   6.206   9.784  0.0537  1.0112 -0.1013
34524SOL    HW2 9409   5.211   6.225   9.635  0.2035 -2.3566 -0.5827
34525SOL     OW 9410   5.044   3.120   4.337 -0.0126 -0.2025 -0.4956
34525SOL    HW1 9411   5.129   3.098   4.376  0.0638 -2.2760 -1.7038
34525SOL    HW2 9412   4.979   3.089   4.399 -0.0699  3.5360  1.6305
34526SOL     OW 9413  10.028   2.366   5.616 -0.4203  0.4543 -0.0232
34526SOL    HW1 9414  10.116   2.368   5.654  0.7206  0.9506 -2.4867
34526SOL    HW2 9415  10.043   2.356   5.522 -3.0909 -2.1986 -0.3207
34527SOL     OW 9416   9.201   1.709  10.211 -0.1916  0.5087 -0.1524
34527SOL    HW1 9417   9.153   1.786  10.180  0.4728  0.4977 -1.2685
34527SOL    HW2 9418   9.291   1.726  10.184 -0.0778 -0.7576 -0.5964
34528SOL     OW 9419   1.117   2.914   4.502  0.0627 -0.0552 -0.2721
34528SOL    HW1 9420   1.030   2.929   4.466  0.1528  0.1509 -0.4006
34528SOL    HW2 9421   1.115   2.957   4.588 -0.5242 -1.4831  0.4876
34529SOL     OW 9422   9.569   5.491   6.301  0.6203 -0.5189  0.2022
34529SOL    HW1 9423   9.581   5.406   6.343  0.0148  0.0605  1.5906
34529SOL    HW2 9424   9.655   5.511   6.263  1.3145 -0.8836  1.5309
34530SOL     OW 9425   2.556   5.310   3.509 -0.0145  0.2406  0.2145
34530SOL    HW1 9426   2.550   5.406   3.507  1.0992  0.3263  0.1930
34530SOL    HW2 9427   2.560   5.288   3.602 -3.1581 -0.0441  0.3945
34531SOL     OW 9428  10.344   6.550   5.078 -0.8761  0.1144 -0.0927
34531SOL    HW1 9429  10.394   6.510   5.007 -0.1487  0.6160  0.1249
34531SOL    HW2 9430  10.253   6.542   5.050 -0.5355  1.9494 -1.9885
34532SOL     OW 9431   5.283   1.296   5.126 -0.0457  0.4511 -0.4144
34532SOL    HW1 9432   5.285   1.322   5.034  0.1018 -0.2569 -0.6199
34532SOL    HW2 9433   5.267   1.202   5.124  0.2872  0.3699  0.2728
34533SOL     OW 9434   6.791   5.674   9.631 -0.2444  0.7797  0.6424
34533SOL    HW1 9435   6.709   5.723   9.624 -2.7549 -3.1549 -1.4546
34533SOL    HW2 9436   6.837   5.693   9.550 -1.3849 -0.3933 -0.3370
34534SOL     OW 9437   2.071   4.560   5.113 -0.7743 -0.3380  0.3706
34534SOL    HW1 9438   2.049   4.638   5.062 -2.3664 -1.3714 -0.6017
34534SOL    HW2 9439   2.103   4.497   5.049  1.3343 -0.2521  1.2582
34535SOL     OW 9440   4.876  10.871   7.279 -0.1685 -0.0369  0.3520
34535SOL    HW1 9441   4.967  10.899   7.273  0.1290 -1.0774 -0.2373
34535SOL    HW2 9442   4.825  10.952   7.278  0.6886  0.4973 -0.6913
34536SOL     OW 9443   5.331   7.883   3.066 -0.4914 -0.4407 -0.0051
34536SOL    HW1 9444   5.319   7.828   3.143 -1.2759 -0.0664  0.1554
34536SOL    HW2 9445   5.271   7.956   3.080 -1.1552 -0.7166 -1.2977
34537SOL     OW 9446   1.904   6.165   1.217 -0.4102  0.1909  0.0119
34537SOL    HW1 9447   1.940   6.253   1.205  1.6836 -0.8682 -2.5189
34537SOL    HW2 9448   1.872   6.141   1.130 -1.6934 -1.2905  0.8470
34538SOL     OW 9449   9.285   6.513   9.263 -0.4571  0.1193 -0.0802
34538SOL    HW1 9450   9.208   6.472   9.303  0.3433 -0.0932  1.2966
34538SOL    HW2 9451   9.319   6.572   9.330 -0.5266  1.7152 -1.3816
34539SOL     OW 9452   1.144  10.398   2.972  0.2809 -0.4586  0.5108
34539SOL    HW1 9453   1.140  10.304   2.959  1.5894 -0.3970 -0.5829
34539SOL    HW2 9454   1.225  10.412   3.022 -0.0171  0.0752  0.8559
34540SOL     OW 9455   0.537   8.491   2.728  0.2167  0.0497 -0.7169
34540SOL    HW1 9456   0.525   8.426   2.660 -0.6358 -1.6886  0.9799
34540SOL    HW2 9457   0.512   8.446   2.809 -2.1912  2.9745  0.3753
34541SOL     OW 9458   2.616   1.302   3.875 -0.2252 -0.1993  0.2787
34541SOL    HW1 9459   2.649   1.383   3.913  1.0312 -0.3028 -0.5303
34541SOL    HW2 9460   2.616   1.318   3.780 -0.5206 -0.9379  0.1467
34542SOL     OW 9461   2.197   1.348   4.317 -0.3589 -0.0698 -0.0664
34542SOL    HW1 9462   2.152   1.397   4.386  0.9866  3.0480 -1.1947
34542SOL    HW2 9463   2.290   1.351   4.342 -0.0666 -0.6344 -1.0122
34543SOL     OW 9464   5.053  10.716   6.696  0.1108  0.0986  0.2571
34543SOL    HW1 9465   5.012  10.700   6.780 -0.9655  0.2122 -0.2371
34543SOL    HW2 9466   5.093  10.802   6.705 -1.7650  1.0441  0.0108
34544SOL     OW 9467   6.149   6.206   3.525  0.1152  0.0869 -0.4804
34544SOL    HW1 9468   6.220   6.179   3.585 -1.0558 -0.6784  0.6083
34544SOL    HW2 9469   6.142   6.300   3.538 -0.7395 -0.1748  1.3596
34545SOL     OW 9470   7.217   3.441  10.331  0.6135 -0.0647  0.3297
34545SOL    HW1 9471   7.300   3.450  10.284  0.2830 -1.2420 -0.5328
34545SOL    HW2 9472   7.199   3.347  10.331 -0.8327  0.1798  0.3020
34546SOL     OW 9473   7.059   7.236   6.393  0.5024  0.2709  0.4435
34546SOL    HW1 9474   7.122   7.177   6.351  0.1694 -0.4411  0.9083
34546SOL    HW2 9475   6.981   7.229   6.338 -0.6090 -2.1835  2.1682
34547SOL     OW 9476   1.315   4.847   4.458 -0.5312 -0.2928  0.5549
34547SOL    HW1 9477   1.373   4.840   4.533  0.0122  0.0231  0.1664
34547SOL    HW2 9478   1.227   4.840   4.496 -0.3866  2.0399  1.5237
34548SOL     OW 9479   7.418   5.548   0.705 -0.0226 -0.0429  0.4933
34548SOL    HW1 9480   7.489   5.493   0.740  0.6966  0.4222 -0.1889
34548SOL    HW2 9481   7.461   5.630   0.682 -0.5526 -0.1561 -0.9972
34549SOL     OW 9482   6.624   6.492   2.897 -0.3221 -0.5862  0.7621
34549SOL    HW1 9483   6.719   6.487   2.889 -0.0987  0.4103  2.3447
34549SOL    HW2 9484   6.593   6.511   2.808  0.7886 -2.5807 -0.1080
34550SOL     OW 9485   9.075   0.059   0.087 -0.5260 -0.2017 -0.1588
34550SOL    HW1 9486   9.007   0.065   0.154 -0.6366 -0.0511 -0.2832
34550SOL    HW2 9487   9.132   0.134   0.105 -0.2706 -0.4529  0.0799
34551SOL     OW 9488   4.474   6.174   8.622 -0.2378 -0.1511 -0.7424
34551SOL    HW1 9489   4.427   6.179   8.539  0.3828 -1.4374 -1.1928
34551SOL    HW2 9490   4.558   6.218   8.605 -0.2068 -0.2046 -0.7282
34552SOL     OW 9491   2.469   0.166   1.492 -0.1340 -0.3780  0.2683
34552SOL    HW1 9492   2.375   0.170   1.511 -0.0569  2.1582  0.4960
34552SOL    HW2 9493   2.473   0.162   1.396 -0.4783  0.0200  0.2336
34553SOL     OW 9494   5.180   3.808   6.048 -0.0966  0.6498  0.3283
34553SOL    HW1 9495   5.104   3.803   6.106 -2.1866  3.3572 -1.8530
34553SOL    HW2 9496   5.218   3.894   6.066 -1.9370  2.4618 -3.2676
34554SOL     OW 9497   2.166   9.691   2.987 -0.4008 -0.0019 -0.2255
34554SOL    HW1 9498   2.118   9.754   2.933 -2.2594 -0.5599  0.7082
34554SOL    HW2 9499   2.258   9.717   2.977 -1.0629  2.7258 -0.0431
34555SOL     OW 9500   9.368   5.470   3.737 -0.1860 -0.0820 -0.0185
34555SOL    HW1 9501   9.422   5.496   3.811  0.4955  0.1695 -0.5979
34555SOL    HW2 9502   9.374   5.543   3.676  0.5742 -0.9717 -1.0317
34556SOL     OW 9503   6.443   2.814   6.261 -0.1090  0.4777 -0.4820
34556SOL    HW1 9504   6.524   2.831   6.213  0.8680 -1.7744  0.2482
34556SOL    HW2 9505   6.462   2.841   6.351 -1.0343  2.1914 -0.7599
34557SOL     OW 9506   0.413   7.811   4.015 -0.0152 -0.0577  0.3042
34557SOL    HW1 9507   0.353   7.886   4.016 -0.3657 -0.3387  0.2327
34557SOL    HW2 9508   0.356   7.735   4.009  0.2312 -0.4340  2.1442
34558SOL     OW 9509   9.987  10.354   8.273  0.5526  0.1147  0.3274
34558SOL    HW1 9510  10.038  10.285   8.316 -0.0389 -0.0573  0.7752
34558SOL    HW2 9511   9.920  10.377   8.337  0.1614  0.4390 -0.1918
34559SOL     OW 9512   4.417   3.934   5.938  0.2970 -0.1719 -0.5297
34559SOL    HW1 9513   4.374   4.000   5.884  1.7082 -0.0409 -1.5488
34559SOL    HW2 9514   4.510   3.946   5.920  0.7570 -0.6479  1.3627
34560SOL     OW 9515   5.942   2.238   0.098  0.2266 -0.3574  0.2542
34560SOL    HW1 9516   5.944   2.155   0.050  0.9758 -0.9506  1.2740
34560SOL    HW2 9517   6.034   2.259   0.115  0.0215  0.4266  0.4334
34561SOL     OW 9518   5.561   5.913   5.421  0.1895  0.3629  0.1111
34561SOL    HW1 9519   5.611   5.981   5.376  0.3880 -1.0942 -2.0337
34561SOL    HW2 9520   5.623   5.841   5.433 -0.3708  0.0240  1.0933
34562SOL     OW 9521   5.032   1.543   5.608 -0.2931 -0.6048  0.6697
34562SOL    HW1 9522   5.109   1.601   5.613 -1.0495  0.4225  0.6449
34562SOL    HW2 9523   5.027   1.504   5.695  0.9167 -1.5709  0.3336
34563SOL     OW 9524   2.599   5.770   5.000  0.4015  0.3515 -0.2788
34563SOL    HW1 9525   2.674   5.790   5.056 -1.1252 -2.5418  3.1232
34563SOL    HW2 9526   2.632   5.705   4.938  0.9818  0.0283  0.3649
34564SOL     OW 9527   9.522   4.634   8.051 -0.0969  0.1171  0.7361
34564SOL    HW1 9528   9.587   4.564   8.058 -1.7416 -1.4265  1.3836
34564SOL    HW2 9529   9.458   4.600   7.988 -0.7730  1.1750  0.8324
34565SOL     OW 9530   4.046   8.000   3.492  0.0609 -0.0108  0.4556
34565SOL    HW1 9531   4.113   8.065   3.514 -0.7966  0.5757  1.3960
34565SOL    HW2 9532   4.092   7.937   3.437  0.9219  1.3660 -0.4612
34566SOL     OW 9533   6.160   0.658   5.085 -0.0421  0.1983  0.8691
34566SOL    HW1 9534   6.195   0.700   5.163  1.9221  1.5417 -0.6455
34566SOL    HW2 9535   6.111   0.727   5.039  2.2949  0.6981 -1.0854
34567SOL     OW 9536   0.222   9.960   3.378 -0.1915 -0.3175 -0.1177
34567SOL    HW1 9537   0.196   9.871   3.352  1.0621 -0.7500  0.0143
34567SOL    HW2 9538   0.257   9.998   3.297  0.1391 -0.2827  0.0412
34568SOL     OW 9539   6.629   3.913  10.748 -0.2909 -0.3023  0.0188
34568SOL    HW1 9540   6.618   4.000  10.787  1.5843 -0.3926  0.8567
34568SOL    HW2 9541   6.714   3.917  10.703  0.7802 -2.2031  1.6645
34569SOL     OW 9542   6.536   6.127   1.352 -0.2013 -0.2743  0.3927
34569SOL    HW1 9543   6.603   6.151   1.287  0.0627 -0.4877  0.5838
34569SOL    HW2 9544   6.467   6.192   1.340 -1.3529 -1.8113 -1.8728
34570SOL     OW 9545   0.640   7.009   2.152 -0.1314  0.3264 -0.0339
34570SOL    HW1 9546   0.692   6.981   2.077 -0.2060  1.2020 -0.4330
34570SOL    HW2 9547   0.688   6.976   2.229  1.5370  1.8440 -0.3384
34571SOL     OW 9548   5.284   3.804   3.684  0.0008  0.2048  0.2439
34571SOL    HW1 9549   5.263   3.724   3.732  0.9566  0.1257  0.5544
34571SOL    HW2 9550   5.229   3.871   3.725  0.5466  0.0686  1.2220
34572SOL     OW 9551   8.517   4.670   0.882 -0.4120 -0.2602 -0.0101
34572SOL    HW1 9552   8.606   4.635   0.894  0.5807  1.9216 -0.6706
34572SOL    HW2 9553   8.466   4.626   0.950  0.9884 -2.0788 -0.0457
34573SOL     OW 9554   5.404   8.662   4.743  0.3636 -0.9760 -0.7025
34573SOL    HW1 9555   5.396   8.709   4.825 -2.5725 -2.0491 -0.2534
34573SOL    HW2 9556   5.400   8.730   4.675  0.5921 -0.2503  0.0011
34574SOL     OW 9557   0.771   9.702   8.972 -0.2154  0.4273 -0.1632
34574SOL    HW1 9558   0.780   9.657   9.056  1.7564  2.7646  1.0139
34574SOL    HW2 9559   0.677   9.719   8.963 -0.6633 -1.4376  0.6474
34575SOL     OW 9560   6.501   1.071   1.311 -0.1815 -0.0692 -0.0633
34575SOL    HW1 9561   6.471   1.032   1.393  0.2275  2.5178  1.4360
34575SOL    HW2 9562   6.597   1.070   1.318 -0.0612 -1.4247 -1.3764
34576SOL     OW 9563   2.840   9.272   5.882 -0.1656  0.1789 -0.4720
34576SOL    HW1 9564   2.932   9.251   5.865  0.6258  1.2847  1.9732
34576SOL    HW2 9565   2.843   9.356   5.927 -2.4769  0.6677 -1.1268
34577SOL     OW 9566   5.506  10.280   2.518  0.2202 -0.2024  0.0448
34577SOL    HW1 9567   5.584  10.332   2.539 -0.0347  1.3798 -2.4830
34577SOL    HW2 9568   5.433  10.330   2.553  0.1444 -0.1243 -0.2213
34578SOL     OW 9569   5.897   4.780   5.795 -0.4091  0.2415  0.0830
34578SOL    HW1 9570   5.892   4.712   5.728 -1.5307  0.6446 -0.2620
34578SOL    HW2 9571   5.990   4.803   5.798  0.2561 -2.2300  1.1893
34579SOL     OW 9572   4.697   3.007   8.113 -0.2638 -0.2229 -0.1710
34579SOL    HW1 9573   4.711   2.946   8.185  2.0895 -0.4867 -0.7631
34579SOL    HW2 9574   4.660   3.085   8.154 -1.2839 -1.2428  0.9086
34580SOL     OW 9575  10.655   2.571   5.660  0.0417 -0.1535 -0.1188
34580SOL    HW1 9576  10.598   2.574   5.583  1.3323 -2.8147 -1.2884
34580SOL    HW2 9577  10.663   2.663   5.686 -1.8169  0.6738 -2.0858
34581SOL     OW 9578   3.583   4.033   1.635 -0.4596  0.0001  0.0113
34581SOL    HW1 9579   3.616   3.968   1.697 -1.8861  1.2135  2.1769
34581SOL    HW2 9580   3.661   4.078   1.603  0.2966 -0.3092  1.3484
34582SOL     OW 9581  10.787   3.350  10.287 -0.8603  0.8028  0.3567
34582SOL    HW1 9582  10.787   3.426  10.345 -1.8273  1.4200 -0.4200
34582SOL    HW2 9583  10.825   3.383  10.205  1.2312 -0.2509  0.8248
34583SOL     OW 9584   8.098  10.568   5.519  0.0586 -0.0485 -0.5263
34583SOL    HW1 9585   8.027  10.543   5.578 -0.5564  2.8418  0.1173
34583SOL    HW2 9586   8.055  10.582   5.435 -0.6699  3.3742  0.2356
34584SOL     OW 9587   9.288   9.760   8.387  0.6681 -0.4893 -0.3303
34584SOL    HW1 9588   9.233   9.828   8.426 -0.2968 -0.7398 -1.2311
34584SOL    HW2 9589   9.352   9.739   8.456 -0.3168 -0.1562  0.7156
34585SOL     OW 9590   3.814   0.862   4.453  0.6049 -0.2807  0.6089
34585SOL    HW1 9591   3.719   0.853   4.463  0.7949 -1.6790  1.4049
34585SOL    HW2 9592   3.824   0.925   4.381 -0.9702 -2.0082 -1.2879
34586SOL     OW 9593   0.665   7.260   1.385  0.5705  0.0113 -0.3948
34586SOL    HW1 9594   0.690   7.351   1.368 -0.8996  0.6139  0.5251
34586SOL    HW2 9595   0.725   7.208   1.331  1.9837  1.4824 -0.2942
34587SOL     OW 9596   2.191   9.973   0.564  0.3737 -0.8579 -0.3062
34587SOL    HW1 9597   2.216   9.985   0.656  0.9529 -0.7918 -0.4660
34587SOL    HW2 9598   2.117   9.913   0.567 -1.8215  1.7018  0.4305
34588SOL     OW 9599   8.231   5.799   9.804 -0.0794 -0.4597 -0.4123
34588SOL    HW1 9600   8.169   5.731   9.829 -0.5868  0.4649  0.9576
34588SOL    HW2 9601   8.317   5.758   9.812 -0.4489 -1.6504 -2.0063
34589SOL     OW 9602   7.488   1.303   0.630  0.0311 -0.3234 -0.2319
34589SOL    HW1 9603   7.463   1.235   0.568  0.5096 -0.1633 -0.5993
34589SOL    HW2 9604   7.563   1.347   0.590 -0.3115  0.4668 -0.0304
34590SOL     OW 9605   7.051   7.029   3.466 -0.1569  0.1103 -0.6550
34590SOL    HW1 9606   7.072   7.019   3.373  2.4346  0.2477 -0.1587
34590SOL    HW2 9607   7.108   6.967   3.511 -1.5209 -0.1290  0.8730
34591SOL     OW 9608   8.269   6.169   3.536  0.7177 -0.5743  0.2738
34591SOL    HW1 9609   8.242   6.084   3.572 -0.7862 -0.0776  0.3702
34591SOL    HW2 9610   8.276   6.226   3.612 -0.0318 -0.1653  0.0474
34592SOL     OW 9611   3.572   6.361   4.672  0.1456  1.0953 -0.1520
34592SOL    HW1 9612   3.596   6.440   4.623  2.8825 -0.0288 -0.8106
34592SOL    HW2 9613   3.512   6.314   4.614  2.2170  0.4766 -1.9087
34593SOL     OW 9614   3.631   1.546  10.212  0.4072  0.2371  0.4095
34593SOL    HW1 9615   3.645   1.451  10.212  1.8285  0.4203 -0.6184
34593SOL    HW2 9616   3.689   1.579  10.280  0.8028  0.4745 -0.0389
34594SOL     OW 9617   8.072   5.237   7.424  0.5076 -0.3464 -0.1419
34594SOL    HW1 9618   8.078   5.319   7.375  1.4258 -0.7140 -0.6737
34594SOL    HW2 9619   8.078   5.264   7.516 -2.1492  0.4327 -0.1310
34595SOL     OW 9620  10.601   2.405   0.351 -0.0143 -0.1510  0.2243
34595SOL    HW1 9621  10.693   2.383   0.363  0.7642  2.2504 -0.7133
34595SOL    HW2 9622  10.573   2.441   0.435 -0.1081 -0.8161  0.4864
34596SOL     OW 9623   7.883   9.491   6.031 -0.1941  0.6552  0.0387
34596SOL    HW1 9624   7.947   9.540   5.979  1.4860 -1.1334  0.3224
34596SOL    HW2 9625   7.853   9.553   6.097  1.2509  1.5440 -0.0972
34597SOL     OW 9626   7.026   8.852   4.815  0.2393  0.0548 -0.2034
34597SOL    HW1 9627   6.933   8.830   4.810  0.3143 -0.1151 -1.0328
34597SOL    HW2 9628   7.070   8.781   4.767  0.8720 -0.3103  0.8938
34598SOL     OW 9629   5.226   7.284   8.811 -0.2933 -0.3204  0.0479
34598SOL    HW1 9630   5.178   7.268   8.893 -0.9074  0.6493 -0.1059
34598SOL    HW2 9631   5.211   7.205   8.759 -2.1818  0.1403 -0.1928
34599SOL     OW 9632   8.045   3.463  10.845  0.0573 -0.0098 -0.2570
34599SOL    HW1 9633   8.131   3.436  10.877 -0.1570 -0.5359 -0.1145
34599SOL    HW2 9634   8.046   3.558  10.851 -0.4946 -0.0984  2.7250
34600SOL     OW 9635   0.791   0.817   0.574 -0.0279 -0.0889 -0.3694
34600SOL    HW1 9636   0.723   0.779   0.518  0.2488  0.0723 -0.8221
34600SOL    HW2 9637   0.871   0.771   0.548  0.0814 -0.1082 -0.0066
34601SOL     OW 9638   4.670   4.687   7.149 -0.5384  0.1936 -0.4773
34601SOL    HW1 9639   4.595   4.677   7.208 -0.4065  0.8570 -0.1931
34601SOL    HW2 9640   4.735   4.625   7.182 -0.6084  0.2929 -0.1508
34602SOL     OW 9641  10.354   4.308   8.470 -0.2249 -0.3303 -0.3855
34602SOL    HW1 9642  10.260   4.302   8.454 -0.0334 -2.2273 -0.9823
34602SOL    HW2 9643  10.376   4.399   8.449 -2.0373  0.3850  0.5615
34603SOL     OW 9644   0.957   1.148   3.351 -0.0993 -0.7304 -0.2199
34603SOL    HW1 9645   0.901   1.076   3.379  0.3132  0.0736  3.0848
34603SOL    HW2 9646   1.042   1.108   3.335  0.6745 -0.8992  3.5031
34604SOL     OW 9647   4.708   6.483   6.327  0.3581 -0.0279  0.0730
34604SOL    HW1 9648   4.656   6.418   6.279  2.3445 -2.6150  1.1407
34604SOL    HW2 9649   4.668   6.485   6.414  1.6552 -1.6522  0.7460
34605SOL     OW 9650   9.470   2.863   3.999 -0.2992 -0.3141 -0.0721
34605SOL    HW1 9651   9.532   2.791   4.004 -0.1021 -0.2058 -0.8622
34605SOL    HW2 9652   9.385   2.824   4.021 -0.4811 -1.1724 -2.1587
34606SOL     OW 9653   2.692   4.302   1.394  0.0566 -0.0815  0.7160
34606SOL    HW1 9654   2.713   4.316   1.301 -2.3949 -0.2693  0.0475
34606SOL    HW2 9655   2.744   4.367   1.441  1.5395 -0.1470 -0.7577
34607SOL     OW 9656   7.724   0.280  10.643  0.2009  0.9594 -0.7732
34607SOL    HW1 9657   7.732   0.346  10.712  0.2978  1.7385 -1.5157
34607SOL    HW2 9658   7.777   0.314  10.571  0.3459  0.0071 -1.1306
34608SOL     OW 9659   2.126   9.871   2.369  0.2120  0.5431  0.0324
34608SOL    HW1 9660   2.205   9.880   2.422  0.9444  1.9897 -1.2421
34608SOL    HW2 9661   2.123   9.951   2.316 -1.6735  0.1494 -0.5358
34609SOL     OW 9662   3.832   6.334  10.291 -0.2213  0.2094 -0.0630
34609SOL    HW1 9663   3.907   6.338  10.350 -0.1269  0.3979 -0.1921
34609SOL    HW2 9664   3.768   6.395  10.330  0.0612  0.7673 -0.4518
34610SOL     OW 9665   0.335   1.547   2.852  0.2146 -0.2563  0.1201
34610SOL    HW1 9666   0.375   1.530   2.767 -0.3400 -0.1682 -0.1649
34610SOL    HW2 9667   0.294   1.633   2.841  0.8123  0.1131  0.7291
34611SOL     OW 9668   8.395   6.847   3.606  0.0340 -0.0394 -0.7376
34611SOL    HW1 9669   8.364   6.770   3.654 -0.2129  1.5724  1.9253
34611SOL    HW2 9670   8.316   6.887   3.571 -0.1450  0.3092  0.0381
34612SOL     OW 9671  10.027   2.613   8.898  0.2227  0.4957  0.1280
34612SOL    HW1 9672  10.071   2.531   8.921  1.7089  1.0585 -0.5751
34612SOL    HW2 9673  10.087   2.681   8.928 -1.0326  1.3377  0.7772
34613SOL     OW 9674   8.306   5.593  10.079  0.6283 -0.4541 -0.0041
34613SOL    HW1 9675   8.325   5.533  10.150  1.2930  0.2898  0.4722
34613SOL    HW2 9676   8.355   5.558  10.004 -0.8476 -1.7749 -0.3848
34614SOL     OW 9677   4.740   3.376   2.361 -0.1318  0.1285 -0.5012
34614SOL    HW1 9678   4.667   3.372   2.300 -1.5811  1.6482  1.0276
34614SOL    HW2 9679   4.818   3.373   2.305 -1.3894  1.8283 -2.4747
34615SOL     OW 9680   3.168   9.355   2.552  0.1261 -0.1886  0.2906
34615SOL    HW1 9681   3.231   9.394   2.613  0.8551  0.8013 -1.0495
34615SOL    HW2 9682   3.083   9.390   2.580  0.5333  0.7777  0.3673
34616SOL     OW 9683   8.429   7.807   7.159 -0.4322  0.7803  0.8473
34616SOL    HW1 9684   8.409   7.742   7.227  0.0389 -0.0770  0.1964
34616SOL    HW2 9685   8.490   7.867   7.201  0.1619  0.0370  1.0850
34617SOL     OW 9686   2.498   7.056   1.505  0.4528 -0.5987 -0.1877
34617SOL    HW1 9687   2.408   7.087   1.501  0.6310  0.3095  1.5891
34617SOL    HW2 9688   2.536   7.080   1.421 -0.1384  1.8147  0.1593
34618SOL     OW 9689   7.559   2.041   2.270  0.0001 -0.8859  0.0303
34618SOL    HW1 9690   7.597   2.053   2.357  0.7164  0.4302 -0.4429
34618SOL    HW2 9691   7.631   2.005   2.218  0.9872  2.3808 -1.0851
34619SOL     OW 9692   9.596   2.822   3.119 -0.1972 -0.0842  0.0590
34619SOL    HW1 9693   9.518   2.872   3.095  0.3233  0.1783 -1.1791
34619SOL    HW2 9694   9.580   2.734   3.084  1.0674  0.6012 -2.5002
34620SOL     OW 9695  10.763   6.138   9.676  0.1752  0.0803 -0.0403
34620SOL    HW1 9696  10.825   6.197   9.632  1.2934 -1.5483 -0.7462
34620SOL    HW2 9697  10.677   6.172   9.653  0.7388  2.3779  0.9070
34621SOL     OW 9698   2.171   4.370   6.177  0.2486 -0.0074 -0.1517
34621SOL    HW1 9699   2.084   4.406   6.189  0.7427  1.7803 -1.3989
34621SOL    HW2 9700   2.230   4.446   6.185  1.8280 -1.3102  1.7197
34622SOL     OW 9701   8.948   2.626   6.291  0.5766 -0.1744 -0.9139
34622SOL    HW1 9702   9.040   2.624   6.262  0.8715 -1.1055  0.0298
34622SOL    HW2 9703   8.907   2.551   6.247  0.8424 -1.1318  0.4008
34623SOL     OW 9704   8.570   3.160   2.932  0.3445 -0.2092 -0.0081
34623SOL    HW1 9705   8.579   3.123   2.844  0.6904 -0.8650  0.2937
34623SOL    HW2 9706   8.632   3.234   2.934 -1.2895  1.2569 -1.0457
34624SOL     OW 9707   8.827   3.706   2.587 -0.5130  0.1144  0.0536
34624SOL    HW1 9708   8.876   3.690   2.506 -0.9090 -1.7312  0.1249
34624SOL    HW2 9709   8.894   3.712   2.655 -0.2984 -2.6600  0.1916
34625SOL     OW 9710   1.495   4.442   6.714 -0.2398 -0.5321 -0.3490
34625SOL    HW1 9711   1.505   4.504   6.787  1.3908 -1.0376 -0.1016
34625SOL    HW2 9712   1.575   4.390   6.716 -0.7072 -1.3510 -1.7799
34626SOL     OW 9713   7.105   0.521  10.492 -0.1746  0.1554  0.3240
34626SOL    HW1 9714   7.087   0.467  10.568  2.9464  0.6871  1.6003
34626SOL    HW2 9715   7.194   0.497  10.465 -0.5468  1.1747 -2.1403
34627SOL     OW 9716   9.308   4.452   5.612  0.2719  0.1514 -0.5677
34627SOL    HW1 9717   9.328   4.456   5.705  0.1474 -0.5798 -0.5050
34627SOL    HW2 9718   9.349   4.531   5.575  0.4064  0.3911  0.0832
34628SOL     OW 9719   7.461   7.180   0.719 -0.1170  0.3708 -0.4942
34628SOL    HW1 9720   7.538   7.131   0.747  0.8375  2.1705  0.2104
34628SOL    HW2 9721   7.427   7.132   0.644  0.7370 -1.3437  0.1751
34629SOL     OW 9722   6.986  10.909   3.385  0.6638  0.0184  0.0336
34629SOL    HW1 9723   7.042  10.833   3.398  0.9753 -0.2320 -2.2660
34629SOL    HW2 9724   7.039  10.983   3.412  0.6677 -0.4906  1.4894
34630SOL     OW 9725   6.038   6.300   9.354  0.0439 -0.0865  0.1295
34630SOL    HW1 9726   5.944   6.284   9.351  0.0497 -0.2171  0.5469
34630SOL    HW2 9727   6.046   6.395   9.341 -0.1705 -0.0224  0.4435
34631SOL     OW 9728   9.073   2.506   4.065 -0.2928 -0.2766  0.5847
34631SOL    HW1 9729   8.978   2.511   4.052 -0.0363 -0.4361 -1.9518
34631SOL    HW2 9730   9.108   2.493   3.977  1.9609 -2.3983  1.6727
34632SOL     OW 9731   9.559   3.570   0.254  0.3857  0.1633 -0.1080
34632SOL    HW1 9732   9.507   3.639   0.294 -0.6414 -1.1056  0.8570
34632SOL    HW2 9733   9.535   3.572   0.161 -1.7899 -0.6658  0.3770
34633SOL     OW 9734   3.884   8.285   1.561  0.9210 -0.4465 -0.0271
34633SOL    HW1 9735   3.869   8.322   1.648  0.3903 -2.1911  0.6799
34633SOL    HW2 9736   3.876   8.359   1.501 -0.8160  0.4514  1.2213
34634SOL     OW 9737   2.906   8.670   8.478 -0.2189  0.0199 -0.1061
34634SOL    HW1 9738   3.001   8.668   8.490 -0.2417 -1.3458  0.0640
34634SOL    HW2 9739   2.872   8.716   8.554  0.3067  0.5372 -0.1833
34635SOL     OW 9740   4.902   0.520   5.103 -0.2566 -0.6489  0.9025
34635SOL    HW1 9741   4.978   0.465   5.083  0.8369 -0.2758  3.6436
34635SOL    HW2 9742   4.898   0.582   5.029  2.4194 -0.3906  0.8519
34636SOL     OW 9743   2.088   5.341   4.556  0.0335  0.4064 -0.0241
34636SOL    HW1 9744   2.024   5.411   4.565  0.0568  0.3666  0.4612
34636SOL    HW2 9745   2.170   5.386   4.537  0.3404  0.6150  1.6614
34637SOL     OW 9746   4.851   4.761   9.727  0.3874 -0.7340  0.4230
34637SOL    HW1 9747   4.787   4.731   9.792 -0.4328  2.5988  1.3050
34637SOL    HW2 9748   4.936   4.753   9.771  0.0071 -0.1121  1.2969
34638SOL     OW 9749   2.095   7.101   6.177 -0.0843  0.3130 -0.2200
34638SOL    HW1 9750   2.183   7.066   6.194  0.1636  0.7278 -0.6201
34638SOL    HW2 9751   2.085   7.171   6.241 -0.3491 -0.1012  0.1959
34639SOL     OW 9752   1.178   6.541   4.554 -0.0957  0.1073  0.5867
34639SOL    HW1 9753   1.148   6.535   4.463  0.1785 -1.5609  0.5686
34639SOL    HW2 9754   1.108   6.499   4.605  1.1608 -1.9087  0.7651
34640SOL     OW 9755  10.637   0.216   5.871 -0.2508  0.6906 -0.2022
34640SOL    HW1 9756  10.636   0.136   5.924 -2.2971  2.1821  2.2318
34640SOL    HW2 9757  10.705   0.200   5.805  1.3027 -1.9643  1.8341
34641SOL     OW 9758   2.760   8.582   8.253  0.1940 -0.3314  0.5832
34641SOL    HW1 9759   2.692   8.528   8.294 -0.2929 -1.1874 -1.2491
34641SOL    HW2 9760   2.812   8.615   8.327 -0.8468 -1.4958  1.8931
34642SOL     OW 9761  10.890   2.074   9.493 -0.6065  0.3387 -0.2991
34642SOL    HW1 9762  10.860   1.985   9.475  2.1121 -1.5211  3.0614
34642SOL    HW2 9763  10.826   2.109   9.555  0.7938 -1.3633  2.2853
34643SOL     OW 9764   1.096   1.241   9.881  0.5031  0.3853 -0.2097
34643SOL    HW1 9765   1.053   1.229   9.966 -1.4539 -0.6983 -1.2632
34643SOL    HW2 9766   1.180   1.280   9.901  0.6739 -1.1040  2.3578
34644SOL     OW 9767   3.174   2.955   8.410 -0.3969  0.0509  0.2087
34644SOL    HW1 9768   3.171   2.880   8.469  0.3631  0.2902  0.5644
34644SOL    HW2 9769   3.258   2.945   8.364 -0.1608  0.8183  0.4590
34645SOL     OW 9770   7.191   9.428   6.412  0.1850 -0.0929  0.4672
34645SOL    HW1 9771   7.151   9.440   6.498  0.1304 -0.8206  0.5445
34645SOL    HW2 9772   7.120   9.445   6.349  0.4335  1.2873  0.5325
34646SOL     OW 9773   6.851   9.310   5.461 -0.3092 -0.2345 -0.4359
34646SOL    HW1 9774   6.902   9.354   5.393 -1.1887  1.0555 -0.3194
34646SOL    HW2 9775   6.771   9.282   5.416  0.1604 -1.5978 -0.4636
34647SOL     OW 9776   6.400   7.469   1.805  0.8819  0.1406  0.2443
34647SOL    HW1 9777   6.314   7.494   1.839  0.8495 -0.6898  0.8041
34647SOL    HW2 9778   6.388   7.378   1.776  1.8133 -0.3013  1.2050
34648SOL     OW 9779   0.564   7.369   7.991 -0.3328 -0.2079  0.1552
34648SOL    HW1 9780   0.644   7.390   7.942  0.2196 -1.0275  0.6950
34648SOL    HW2 9781   0.591   7.302   8.054 -1.2037  0.3055  1.0907
34649SOL     OW 9782   2.870   6.778   1.344 -0.5209  0.4815  0.0901
34649SOL    HW1 9783   2.846   6.686   1.333 -0.1235  0.4673 -0.6758
34649SOL    HW2 9784   2.876   6.813   1.255 -0.3837  1.1813  0.3627
34650SOL     OW 9785   8.502   2.831   0.037  0.3110 -0.2240 -0.5857
34650SOL    HW1 9786   8.529   2.921   0.055 -1.7027 -0.1133  2.6232
34650SOL    HW2 9787   8.449   2.837  -0.043  1.2026  1.2076 -1.1003
34651SOL     OW 9788   6.139   3.836   6.259  0.3022  0.5364  0.4463
34651SOL    HW1 9789   6.118   3.925   6.230  0.3711  0.2571 -0.4702
34651SOL    HW2 9790   6.194   3.800   6.190  0.7467 -0.0340  1.0771
34652SOL     OW 9791   6.317  10.101   6.301 -0.1015  0.2583 -0.6241
34652SOL    HW1 9792   6.266  10.079   6.223  2.1821  0.8703 -2.4105
34652SOL    HW2 9793   6.262  10.164   6.348 -2.7351 -2.1655 -0.1712
34653SOL     OW 9794   1.492   6.040   7.154  0.3912  0.7465 -0.7766
34653SOL    HW1 9795   1.564   5.977   7.147  0.6764  0.9037  0.4588
34653SOL    HW2 9796   1.413   5.986   7.145  0.6427  0.2571 -0.1476
34654SOL     OW 9797   7.343   7.900   5.415  0.1559 -0.2205 -0.3003
34654SOL    HW1 9798   7.295   7.821   5.390  1.1510 -1.0726  0.3904
34654SOL    HW2 9799   7.432   7.869   5.432  0.6722  1.1377 -0.4553
34655SOL     OW 9800   6.108   3.119   2.339 -0.3047  0.1952  0.2042
34655SOL    HW1 9801   6.190   3.168   2.330  0.4669 -1.2760 -1.3726
34655SOL    HW2 9802   6.126   3.054   2.406 -0.6576  0.7314  0.8325
34656SOL     OW 9803   2.627   1.830   7.766  0.0319 -0.0989  0.4821
34656SOL    HW1 9804   2.643   1.921   7.793  0.4666  0.1355 -0.5474
34656SOL    HW2 9805   2.642   1.779   7.846 -0.8854  0.7807  1.2578
34657SOL     OW 9806   4.240   3.227   8.529  0.7025  0.2933 -0.1287
34657SOL    HW1 9807   4.244   3.176   8.448  0.0069  0.1318 -0.0660
34657SOL    HW2 9808   4.148   3.225   8.554  0.5711  1.9486 -0.3617
34658SOL     OW 9809   7.275   7.875   0.214 -0.1202 -0.7825  0.2071
34658SOL    HW1 9810   7.182   7.888   0.195  0.1141  0.2580 -0.3279
34658SOL    HW2 9811   7.289   7.916   0.299 -0.1528 -0.9686  0.3031
34659SOL     OW 9812   8.673   2.100   3.179 -0.5135  0.6877 -0.0255
34659SOL    HW1 9813   8.762   2.075   3.154 -0.6187  1.2682 -1.0608
34659SOL    HW2 9814   8.683   2.145   3.262 -0.1639 -1.5055  1.2112
34660SOL     OW 9815   3.248   4.077   1.856  0.3205  0.9115 -1.0120
34660SOL    HW1 9816   3.309   4.143   1.822  0.1235  0.3029 -2.6357
34660SOL    HW2 9817   3.243   4.011   1.787 -1.4754  0.4790 -0.5165
34661SOL     OW 9818   4.794   1.377   0.465 -0.3397  0.2329 -0.0856
34661SOL    HW1 9819   4.760   1.300   0.509 -1.1317  1.2489  1.1430
34661SOL    HW2 9820   4.878   1.349   0.428 -1.2634 -1.5915 -0.9106
34662SOL     OW 9821   2.440   6.748   5.744 -0.6690  0.1338 -0.3869
34662SOL    HW1 9822   2.442   6.732   5.650 -1.5934  0.8606 -0.5453
34662SOL    HW2 9823   2.527   6.782   5.764 -0.6313  0.4686 -1.0796
34663SOL     OW 9824   4.595   6.402   0.276 -0.2372  0.0586 -0.0949
34663SOL    HW1 9825   4.621   6.329   0.333 -0.5110  0.5086  0.6225
34663SOL    HW2 9826   4.499   6.405   0.285 -0.0947  1.5852  1.2478
34664SOL     OW 9827  10.430   2.854  10.220  0.2995 -0.3346  0.6154
34664SOL    HW1 9828  10.446   2.798  10.144 -1.6090 -0.2945  0.1409
34664SOL    HW2 9829  10.501   2.919  10.216  1.4041 -1.5195  0.0632
34665SOL     OW 9830   7.167   4.119   5.550 -0.1914 -0.2065 -0.8135
34665SOL    HW1 9831   7.185   4.149   5.461  1.4993 -0.0833 -0.4648
34665SOL    HW2 9832   7.074   4.139   5.564 -0.7247 -1.0303 -2.8388
34666SOL     OW 9833   0.849   2.546   7.585 -0.7190 -0.3346 -0.5014
34666SOL    HW1 9834   0.768   2.562   7.538 -0.3966 -1.4328 -1.4966
34666SOL    HW2 9835   0.904   2.498   7.523  0.6551  0.2782  0.1772
34667SOL     OW 9836   7.817   4.170   7.632  0.5617  0.4806  0.1327
34667SOL    HW1 9837   7.768   4.161   7.550 -0.4015 -1.2489  0.8287
34667SOL    HW2 9838   7.757   4.218   7.690  0.1944 -0.4720  0.5678
34668SOL     OW 9839   1.026   4.281   5.549 -0.2023 -0.4720  0.2102
34668SOL    HW1 9840   0.951   4.240   5.507  0.3676 -0.1877 -1.1500
34668SOL    HW2 9841   1.014   4.375   5.535 -0.5284 -0.2854  1.6243
34669SOL     OW 9842   4.168   0.521   7.906 -0.3829 -0.1210 -0.1361
34669SOL    HW1 9843   4.230   0.490   7.973  0.4879 -1.2468 -1.4169
34669SOL    HW2 9844   4.109   0.579   7.954  1.7634  1.1901  1.1390
34670SOL     OW 9845   8.614   9.656   4.814 -0.8919 -0.0334 -0.2302
34670SOL    HW1 9846   8.686   9.661   4.878 -1.2586 -1.1874  0.2957
34670SOL    HW2 9847   8.538   9.690   4.861 -1.2590 -1.2860  0.1233
34671SOL     OW 9848   0.208   7.205   2.370  0.2115 -0.1945  0.1767
34671SOL    HW1 9849   0.151   7.191   2.295 -1.2687 -0.4756  1.3139
34671SOL    HW2 9850   0.257   7.285   2.348 -0.7597  0.1685 -0.7563
34672SOL     OW 9851   2.398   1.954   1.907  0.4022  0.3200  0.1616
34672SOL    HW1 9852   2.423   1.906   1.986  1.7987  0.4577 -0.1779
34672SOL    HW2 9853   2.430   2.043   1.922  0.7750  0.3236 -0.5924
34673SOL     OW 9854   9.222   7.522   6.691  0.2562  0.3111 -0.4448
34673SOL    HW1 9855   9.252   7.510   6.781 -1.1562 -1.8136 -0.1972
34673SOL    HW2 9856   9.147   7.581   6.698 -0.5052 -0.6778 -0.0691
34674SOL     OW 9857   6.604   0.790   9.223  0.2981 -0.1156 -0.0637
34674SOL    HW1 9858   6.618   0.764   9.314 -0.5171  0.1859  0.1560
34674SOL    HW2 9859   6.513   0.766   9.205  1.0495 -2.2033 -1.4914
34675SOL     OW 9860   2.104   2.573   8.949  0.5042  0.1537  0.4432
34675SOL    HW1 9861   2.053   2.529   8.881 -0.9065  1.5784  0.5140
34675SOL    HW2 9862   2.128   2.504   9.010  0.4582 -0.8944 -0.6845
34676SOL     OW 9863   5.677   3.751   7.573  0.5067 -0.3062  0.0054
34676SOL    HW1 9864   5.709   3.661   7.571 -0.8078 -0.7956 -0.6019
34676SOL    HW2 9865   5.627   3.756   7.655 -0.4324 -0.5173 -0.5446
34677SOL     OW 9866   8.743   6.475   9.118 -0.2751 -0.5451  0.2207
34677SOL    HW1 9867   8.710   6.525   9.193  0.7529 -1.2690  1.1938
34677SOL    HW2 9868   8.667   6.465   9.061 -0.3000  3.0918 -0.6173
34678SOL     OW 9869   9.688   5.758   1.110 -0.1893 -0.0206 -0.4162
34678SOL    HW1 9870   9.761   5.721   1.161 -0.9337 -0.8941  0.0381
34678SOL    HW2 9871   9.727   5.779   1.026  0.9144  0.8137  0.2695
34679SOL     OW 9872   2.053   0.205   5.683  0.1890  0.1332  0.2033
34679SOL    HW1 9873   2.101   0.144   5.739 -0.1169  0.8459  1.2645
34679SOL    HW2 9874   1.990   0.247   5.741 -2.1203 -1.1205 -1.2398
34680SOL     OW 9875   0.753   5.977   6.737 -0.3271 -0.6456 -0.1161
34680SOL    HW1 9876   0.835   5.997   6.782  0.6979 -0.5810 -1.9166
34680SOL    HW2 9877   0.685   6.018   6.791  0.7878 -0.8439  1.5010
34681SOL     OW 9878   7.944   6.090  10.183  0.0456 -0.3912  0.1387
34681SOL    HW1 9879   7.864   6.139  10.163  0.2212 -0.6958 -1.4643
34681SOL    HW2 9880   7.966   6.115  10.272 -0.8330  1.1121 -0.0328
34682SOL     OW 9881   4.189   9.304   0.908  0.0675 -0.7226 -0.3119
34682SOL    HW1 9882   4.214   9.395   0.892  0.1465 -0.4774  1.0539
34682SOL    HW2 9883   4.175   9.267   0.821 -2.2586  1.2122 -0.8633
34683SOL     OW 9884   4.550   5.067   3.727 -0.7426 -0.4578  0.5038
34683SOL    HW1 9885   4.524   5.077   3.635 -2.1162  0.0884  0.9288
34683SOL    HW2 9886   4.644   5.054   3.724 -0.5150  1.2068 -0.8762
34684SOL     OW 9887   0.345   0.014   9.911 -0.4668  0.9621 -0.3944
34684SOL    HW1 9888   0.310   0.102   9.902  0.7373  1.3361 -1.8035
34684SOL    HW2 9889   0.272  -0.043   9.889 -0.6478  1.6896 -1.7884
34685SOL     OW 9890   4.106   1.753   1.942 -0.5056  0.6963 -0.1382
34685SOL    HW1 9891   4.083   1.713   1.859  0.0870 -1.0512  0.4820
34685SOL    HW2 9892   4.146   1.837   1.919  1.2802 -0.5195 -1.7455
34686SOL     OW 9893   7.764   6.705   5.607 -0.1292  0.8105  0.3978
34686SOL    HW1 9894   7.740   6.613   5.600  2.6712  0.0338 -0.2394
34686SOL    HW2 9895   7.795   6.728   5.520 -0.8771  2.4251  0.5274
34687SOL     OW 9896   5.512   2.261  10.187  0.5244 -0.3640  0.0317
34687SOL    HW1 9897   5.527   2.288  10.096  0.5015 -0.3000  0.0471
34687SOL    HW2 9898   5.600   2.259  10.226  0.4546  0.4172  0.2361
34688SOL     OW 9899   7.383   4.689   2.331  0.4430 -0.0864 -0.2036
34688SOL    HW1 9900   7.380   4.750   2.405  0.9065  0.0702 -0.3082
34688SOL    HW2 9901   7.292   4.682   2.301  0.3073  0.1175  0.1637
34689SOL     OW 9902   5.916  10.439   1.179  0.1344 -0.2920 -0.1710
34689SOL    HW1 9903   5.984  10.506   1.189 -0.7411  0.7603 -0.9581
34689SOL    HW2 9904   5.925  10.384   1.256  3.0683 -1.3240 -1.1201
34690SOL     OW 9905  10.570   4.058   3.847 -0.3711 -0.0752  0.4697
34690SOL    HW1 9906  10.622   4.137   3.832 -0.5840 -0.2829 -1.6490
34690SOL    HW2 9907  10.586   4.036   3.939  2.0095  0.7729  0.3314
34691SOL     OW 9908   0.705   1.368   5.950  0.2283 -0.0207  0.2256
34691SOL    HW1 9909   0.631   1.373   5.889 -0.8503 -1.4111  1.3430
34691SOL    HW2 9910   0.705   1.453   5.994 -0.5472  0.0946  0.0185
34692SOL     OW 9911   0.896   5.381   6.365 -0.3947  0.7018  0.6597
34692SOL    HW1 9912   0.872   5.457   6.312  0.9243 -0.4884 -1.7883
34692SOL    HW2 9913   0.898   5.308   6.303  1.0222 -0.8213  2.3902
34693SOL     OW 9914   9.121   9.874   2.991 -0.0787  0.4258 -0.7089
34693SOL    HW1 9915   9.071   9.849   2.913  2.7306 -1.4554 -2.0907
34693SOL    HW2 9916   9.176   9.947   2.962  1.2782 -0.5487 -0.6796
34694SOL     OW 9917   8.797   3.312   3.874 -0.9410 -0.5753 -0.0330
34694SOL    HW1 9918   8.817   3.252   3.946  0.1783  0.9746  1.0366
34694SOL    HW2 9919   8.819   3.264   3.795 -1.0571 -1.9145  0.7229
34695SOL     OW 9920   8.047   9.655  10.100  0.2733  0.0265  0.0976
34695SOL    HW1 9921   8.040   9.733  10.046 -0.8231  0.0206  0.2146
34695SOL    HW2 9922   8.067   9.687  10.188  0.0411  0.1646  0.1007
34696SOL     OW 9923   3.732   7.470   2.220 -0.7138  0.1656 -0.7879
34696SOL    HW1 9924   3.827   7.465   2.212 -0.8534  0.0834 -2.8066
34696SOL    HW2 9925   3.702   7.380   2.209 -1.1164  0.4156 -1.8085
34697SOL     OW 9926   1.963   4.314   9.612  0.5562 -0.1613  0.2255
34697SOL    HW1 9927   1.956   4.409   9.604  0.4385 -0.2034 -0.2160
34697SOL    HW2 9928   2.039   4.300   9.669  1.4353  0.1824 -0.8144
34698SOL     OW 9929   5.700   5.784   4.747  0.1652 -0.0451  0.1705
34698SOL    HW1 9930   5.698   5.697   4.707 -2.8208 -0.0976  0.1972
34698SOL    HW2 9931   5.728   5.842   4.677  0.3007 -0.8071 -0.4147
34699SOL     OW 9932   7.490   4.243  10.603 -0.3386  0.0471  0.1430
34699SOL    HW1 9933   7.564   4.240  10.542 -0.4669  0.7129 -0.0562
34699SOL    HW2 9934   7.530   4.249  10.689 -0.1351  1.5914 -0.0266
34700SOL     OW 9935   1.056   9.976   0.954  0.3712 -0.4453 -0.0932
34700SOL    HW1 9936   0.972   9.978   1.002  0.8188  0.0467  0.6976
34700SOL    HW2 9937   1.068   9.885   0.930 -0.6138 -0.4537 -0.6094
34701SOL     OW 9938   6.827   3.058   6.259  0.1130 -0.6340  0.6367
34701SOL    HW1 9939   6.895   3.117   6.226 -0.6128 -0.7138 -1.0953
34701SOL    HW2 9940   6.762   3.116   6.297 -1.7330  0.0644 -3.0840
34702SOL     OW 9941   3.150   1.692   7.324  0.1578 -0.1260  0.3912
34702SOL    HW1 9942   3.094   1.672   7.249  0.2027 -2.0449  0.8068
34702SOL    HW2 9943   3.183   1.780   7.307 -0.6023 -0.1390 -1.3449
34703SOL     OW 9944   4.955   8.873   1.426 -0.4605 -0.0946 -0.2304
34703SOL    HW1 9945   4.916   8.797   1.467  0.9477 -0.4444  0.5205
34703SOL    HW2 9946   4.915   8.948   1.470 -0.7882 -0.4302  0.0414
34704SOL     OW 9947   0.116   7.576   0.404 -0.6182  0.4805  0.5934
34704SOL    HW1 9948   0.163   7.628   0.339 -3.8403  0.8886 -1.6577
34704SOL    HW2 9949   0.082   7.641   0.466 -0.4427  0.4917  0.6777
34705SOL     OW 9950   6.371   5.400   4.608  0.0108  0.2141 -0.0700
34705SOL    HW1 9951   6.309   5.375   4.539 -0.1222 -0.2263  0.2005
34705SOL    HW2 9952   6.339   5.353   4.685 -0.9349  2.1457  0.7685
34706SOL     OW 9953   0.883   1.123   0.444 -0.1813  0.3529 -0.0076
34706SOL    HW1 9954   0.866   1.214   0.424  0.7622  0.4011 -0.6607
34706SOL    HW2 9955   0.800   1.089   0.477 -1.5585  0.5439 -3.0293
34707SOL     OW 9956   1.264   9.533   4.206 -0.6027 -0.5081  0.1081
34707SOL    HW1 9957   1.311   9.479   4.142 -0.4269 -1.4820  1.0277
34707SOL    HW2 9958   1.180   9.552   4.164 -0.6713 -1.5096 -0.2380
34708SOL     OW 9959   6.156   8.677   7.352 -0.4172  0.3552 -0.3448
34708SOL    HW1 9960   6.135   8.664   7.259  0.6946  0.9634 -0.7010
34708SOL    HW2 9961   6.095   8.621   7.398 -0.7570 -0.2330 -1.4661
34709SOL     OW 9962  10.460   9.301   3.340 -0.4250 -0.8041  0.2704
34709SOL    HW1 9963  10.535   9.359   3.331 -0.3811 -1.0839 -1.7699
34709SOL    HW2 9964  10.488   9.234   3.403  0.6519 -0.3427  0.3035
34710SOL     OW 9965  10.024  10.398   4.970  0.3056  0.0687  0.2505
34710SOL    HW1 9966  10.026  10.303   4.969  1.3654  0.0730  0.5208
34710SOL    HW2 9967   9.996  10.423   4.882 -0.9892 -0.4873  0.4872
34711SOL     OW 9968   8.070   7.376   1.587 -0.2377  0.2411 -0.5217
34711SOL    HW1 9969   8.006   7.442   1.560  1.0042  1.5115 -0.4620
34711SOL    HW2 9970   8.017   7.306   1.625 -1.6026  1.1563 -0.6594
34712SOL     OW 9971   4.335   1.952   3.004 -0.0928  0.4139  0.0440
34712SOL    HW1 9972   4.295   1.868   3.027 -0.3366  0.3900 -0.4560
34712SOL    HW2 9973   4.266   2.017   3.022 -0.6037  0.3152 -1.4063
34713SOL     OW 9974   0.623   6.503   6.347  0.1208  0.1791  0.8885
34713SOL    HW1 9975   0.601   6.594   6.327  0.2938  0.2487  1.0158
34713SOL    HW2 9976   0.563   6.452   6.293  0.3114  0.3658  0.5004
34714SOL     OW 9977   2.668   0.521   2.141 -0.2022 -0.4301 -0.0260
34714SOL    HW1 9978   2.707   0.591   2.193 -0.9639  0.3259 -0.4383
34714SOL    HW2 9979   2.742   0.480   2.096  0.2887 -0.1103  0.4754
34715SOL     OW 9980   1.463   1.881   1.279  0.3474 -0.2265  0.0506
34715SOL    HW1 9981   1.421   1.840   1.203 -1.6315 -2.7234  2.2742
34715SOL    HW2 9982   1.520   1.949   1.242 -2.5162  0.5711 -3.4956
34716SOL     OW 9983   7.848   7.332   9.733 -0.1652  0.5832 -0.4710
34716SOL    HW1 9984   7.910   7.397   9.699  0.3209  0.3452 -0.0668
34716SOL    HW2 9985   7.773   7.383   9.764  0.0899  0.9288 -0.4187
34717SOL     OW 9986   2.004   9.700   2.198 -0.4378  0.1665 -0.2234
34717SOL    HW1 9987   2.023   9.763   2.268 -1.0371 -1.3354  1.3566
34717SOL    HW2 9988   2.026   9.747   2.117  0.4055  1.9178  0.9583
34718SOL     OW 9989   0.975   1.852   3.784  0.3292 -0.5652 -0.0659
34718SOL    HW1 9990   1.036   1.915   3.745  0.7084 -1.1918 -0.5176
34718SOL    HW2 9991   0.897   1.856   3.729 -0.7242  1.4128  1.4509
34719SOL     OW 9992   0.769   9.690  10.905 -0.6084 -0.5939  0.2666
34719SOL    HW1 9993   0.810   9.612  10.869  1.5516  0.7742 -0.4480
34719SOL    HW2 9994   0.841   9.742  10.939 -2.1165  0.4615  2.0591
34720SOL     OW 9995   2.320   9.698   7.315 -0.1300 -0.8410 -0.3615
34720SOL    HW1 9996   2.306   9.604   7.307  0.2880 -0.7493 -3.0118
34720SOL    HW2 9997   2.322   9.730   7.225 -0.6893  1.7945  0.4727
34721SOL     OW 9998  10.072   2.785  10.475 -0.4165 -0.2431 -0.5482
34721SOL    HW1 9999  10.072   2.746  10.562  1.9800 -0.9530 -0.7984
34721SOL    HW210000  10.040   2.874  10.489  1.1729  0.0990  1.3329
34722SOL     OW10001   7.257   1.049   6.584  0.0519 -0.0305 -0.1825
34722SOL    HW110002   7.248   0.954   6.589 -1.9124  0.1421  0.7196
34722SOL    HW210003   7.326   1.070   6.646 -1.5947 -0.6772  1.9924
34723SOL     OW10004   3.883   6.585   0.453 -0.0241 -0.2831 -0.1525
34723SOL    HW110005   3.817   6.574   0.521  0.0122 -1.0761 -0.2341
34723SOL    HW210006   3.872   6.675   0.423  0.0245  0.1010  0.9636
34724SOL     OW10007   5.589   4.356   0.317  0.2144 -0.1040  0.2571
34724SOL    HW110008   5.501   4.323   0.336  0.1598 -1.7466 -2.4145
34724SOL    HW210009   5.577   4.450   0.302 -0.7903 -0.0331  1.3867
34725SOL     OW10010   3.868   3.359  10.137 -0.9470 -0.1609  0.3378
34725SOL    HW110011   3.829   3.368  10.050 -0.7397 -2.1000  0.0121
34725SOL    HW210012   3.957   3.330  10.121 -0.1173  1.7394  1.1744
34726SOL     OW10013  10.195   6.240   0.134  0.0622 -0.3461  0.0387
34726SOL    HW110014  10.158   6.175   0.075 -1.1342  0.4126 -0.0817
34726SOL    HW210015  10.119   6.285   0.171  0.8478  0.7838  0.3352
34727SOL     OW10016   5.162   5.137   2.121  0.1050 -0.5478 -0.0120
34727SOL    HW110017   5.068   5.129   2.139  0.0683 -3.3759 -0.9179
34727SOL    HW210018   5.167   5.196   2.046 -0.9978 -0.7405 -0.2601
34728SOL     OW10019   0.414   8.620   9.750  0.4215 -0.0921 -0.0879
34728SOL    HW110020   0.422   8.682   9.678  0.7512 -0.5025 -0.4157
34728SOL    HW210021   0.504   8.591   9.766  0.2268 -0.7647 -0.1936
34729SOL     OW10022   5.854   6.292   0.805 -0.2788  1.0561 -0.3046
34729SOL    HW110023   5.895   6.365   0.851 -0.8747 -0.1016  2.2245
34729SOL    HW210024   5.842   6.225   0.872  0.5769 -1.5584 -2.5841
34730SOL     OW10025   5.991   3.134   8.135  0.1580 -0.0399 -0.4175
34730SOL    HW110026   6.017   3.197   8.067  0.9374  0.9290  0.7420
34730SOL    HW210027   6.044   3.158   8.211  1.3387 -2.7935 -0.2354
34731SOL     OW10028   3.966   0.168   4.452  0.0256  0.2860 -1.0030
34731SOL    HW110029   3.947   0.213   4.534 -0.3266 -1.6995  0.0669
34731SOL    HW210030   3.892   0.189   4.395 -1.0243 -0.3388  0.0978
34732SOL     OW10031  10.837   2.179   0.869  0.2786 -0.4653 -0.2106
34732SOL    HW110032  10.932   2.191   0.865  0.7832 -3.6104 -0.4676
34732SOL    HW210033  10.821   2.143   0.957 -1.2207  2.8714  1.0764
34733SOL     OW10034   8.323   0.373   4.454 -0.1508  0.4602  0.0372
34733SOL    HW110035   8.296   0.295   4.405 -1.9593  1.9759 -1.5597
34733SOL    HW210036   8.413   0.389   4.425 -0.0088 -0.6224 -0.1663
34734SOL     OW10037   4.868   1.268   6.834 -0.2293 -0.1824  0.0380
34734SOL    HW110038   4.946   1.257   6.888 -0.3208  2.3798  0.8385
34734SOL    HW210039   4.856   1.183   6.791  2.6866 -0.8238  0.2782
34735SOL     OW10040   6.519   3.480   2.921  0.5080 -0.1763 -0.6970
34735SOL    HW110041   6.474   3.415   2.974  0.1583 -0.2725 -1.1016
34735SOL    HW210042   6.555   3.542   2.984 -0.6893  0.2232 -0.3776
34736SOL     OW10043   6.059   5.370  10.289  0.2470  0.2296 -0.2895
34736SOL    HW110044   5.987   5.311  10.268 -0.0345 -0.7352  2.8719
34736SOL    HW210045   6.021   5.433  10.350  1.6282  0.8419 -0.0258
34737SOL     OW10046   6.985   5.911   8.304 -0.2432 -0.2102 -0.0876
34737SOL    HW110047   6.900   5.867   8.311 -0.0834 -0.2928  1.6196
34737SOL    HW210048   7.003   5.942   8.393  1.9699 -1.0279 -0.2049
34738SOL     OW10049   0.255   0.331   0.912  0.7298  0.0120 -0.8937
34738SOL    HW110050   0.273   0.261   0.850  0.9750  1.2455 -2.2711
34738SOL    HW210051   0.178   0.376   0.876 -1.3963 -1.3546  1.5837
34739SOL     OW10052   5.365  10.101   5.881 -0.3171 -0.0373 -0.0041
34739SOL    HW110053   5.389  10.018   5.921 -1.6403 -0.2907  0.3143
34739SOL    HW210054   5.448  10.140   5.856  0.2962 -1.8073 -0.8850
34740SOL     OW10055   9.087   0.569  10.264 -0.0431 -0.3486  0.1699
34740SOL    HW110056   9.084   0.632  10.336 -1.0425 -0.0792 -0.0950
34740SOL    HW210057   9.075   0.623  10.185 -0.4032 -0.8135 -0.0979
34741SOL     OW10058   0.354   9.627   1.011  0.1934 -0.1337 -0.1998
34741SOL    HW110059   0.415   9.577   0.956 -0.3300 -1.0062 -0.0028
34741SOL    HW210060   0.295   9.561   1.047 -1.3918  0.7661 -1.0326
34742SOL     OW10061   8.950  10.056   7.524 -0.1964  0.1728  0.1163
34742SOL    HW110062   8.958  10.115   7.449 -0.2464 -1.6433 -1.4008
34742SOL    HW210063   8.857  10.035   7.528  0.1884 -2.1148 -1.3179
34743SOL     OW10064   8.922   5.378  10.766  0.3286  0.5417  0.3341
34743SOL    HW110065   8.993   5.314  10.762  0.0019 -0.3087  4.1897
34743SOL    HW210066   8.964   5.461  10.744  1.5399 -0.4716 -1.4257
34744SOL     OW10067  10.092   6.040   0.348  0.4695 -0.0290 -0.2732
34744SOL    HW110068  10.094   6.047   0.253 -0.5574 -0.4314 -0.3350
34744SOL    HW210069  10.065   5.950   0.365  1.9835 -0.3779  0.4194
34745SOL     OW10070  10.020   0.733   6.835  0.2543  0.0781  0.2485
34745SOL    HW110071  10.059   0.714   6.920 -0.6381 -0.7268  0.5011
34745SOL    HW210072  10.094   0.752   6.778  0.8874  0.2726  1.1162
34746SOL     OW10073   2.704   5.421   7.917 -0.2762  0.4467  0.3474
34746SOL    HW110074   2.706   5.507   7.959  0.8185  0.3495  0.5276
34746SOL    HW210075   2.793   5.388   7.927 -0.6099 -0.5829  0.0092
34747SOL     OW10076   8.860   2.093   0.110  0.4829 -0.2135  0.0405
34747SOL    HW110077   8.846   2.181   0.147  3.2792  0.1875  0.3223
34747SOL    HW210078   8.787   2.042   0.143  0.2484  1.3500  2.1310
34748SOL     OW10079   6.895   6.816   7.910  0.3697  0.2972  0.0835
34748SOL    HW110080   6.888   6.910   7.925  1.2013  0.1070  1.9579
34748SOL    HW210081   6.856   6.776   7.987 -0.6641 -0.9366 -1.0268
34749SOL     OW10082   8.635   0.373   4.841 -0.2564 -0.5431  0.4359
34749SOL    HW110083   8.614   0.353   4.932  0.1695 -0.0962  0.6327
34749SOL    HW210084   8.641   0.468   4.837 -3.1615 -0.2832 -0.6923
34750SOL     OW10085   5.857   1.672   2.269 -0.1239  0.5338  0.4079
34750SOL    HW110086   5.837   1.601   2.329  0.0171 -0.3935 -0.5973
34750SOL    HW210087   5.792   1.663   2.199 -0.1129  1.4042  0.2774
34751SOL     OW10088  10.281   8.737   7.438 -0.5036  0.3462 -0.1476
34751SOL    HW110089  10.217   8.753   7.507 -0.3362  0.3678  0.0022
34751SOL    HW210090  10.336   8.666   7.471  0.0066  0.8161  0.0343
34752SOL     OW10091   3.130   0.741   1.628 -0.2049  0.4964  0.3757
34752SOL    HW110092   3.046   0.778   1.601  0.7368  0.7856 -2.4531
34752SOL    HW210093   3.195   0.797   1.586  1.3777 -0.9744  0.7804
34753SOL     OW10094   2.237   2.254   5.749  0.0152 -0.7954 -0.1453
34753SOL    HW110095   2.282   2.303   5.818  1.3944 -0.7025 -1.0808
34753SOL    HW210096   2.159   2.306   5.729 -0.4728 -0.8651  1.3728
34754SOL     OW10097   8.153   9.310   0.908 -0.3163  0.0772  0.1539
34754SOL    HW110098   8.066   9.272   0.894 -0.0123 -0.1586 -1.2530
34754SOL    HW210099   8.178   9.280   0.995 -1.8076  0.4890  0.7507
34755SOL     OW10100   0.102   5.915  10.859 -0.1625  0.5754 -0.1444
34755SOL    HW110101   0.042   5.921  10.784  0.7043 -0.5541 -0.9609
34755SOL    HW210102   0.175   5.972  10.837 -0.4223  1.1343  0.3849
34756SOL     OW10103   5.391   5.283   1.524 -0.0423  0.5190 -0.1070
34756SOL    HW110104   5.397   5.242   1.611  1.5160 -1.7196 -1.1646
34756SOL    HW210105   5.472   5.256   1.480 -1.1708  0.8724 -2.5596
34757SOL     OW10106   9.412   7.486   2.978 -0.4616  0.4757 -0.1349
34757SOL    HW110107   9.389   7.549   2.910 -0.5729  0.5735 -0.0092
34757SOL    HW210108   9.328   7.459   3.015 -0.3770  0.8451  0.3379
34758SOL     OW10109   5.776   1.293   6.894 -0.2215  0.0732 -0.1195
34758SOL    HW110110   5.801   1.363   6.954 -0.7145  0.3832 -0.2662
34758SOL    HW210111   5.843   1.226   6.905 -0.1778  0.2306  0.6020
34759SOL     OW10112   5.110   7.606   1.602  0.0966 -0.4682 -0.1612
34759SOL    HW110113   5.123   7.616   1.697 -0.5397 -0.1357 -0.1052
34759SOL    HW210114   5.136   7.691   1.566 -0.3989 -0.3373 -0.2085
34760SOL     OW10115   9.304   5.686   0.849 -0.1161 -0.1094 -0.1518
34760SOL    HW110116   9.357   5.675   0.770 -0.2250 -1.9342 -0.0257
34760SOL    HW210117   9.249   5.762   0.831  1.5448  0.9785 -0.8284
34761SOL     OW10118   4.100   6.946   7.552 -0.0408  0.0835  0.6640
34761SOL    HW110119   4.137   6.950   7.641  0.1849 -1.8878  0.7051
34761SOL    HW210120   4.005   6.948   7.566 -0.0476 -1.6781  1.1069
34762SOL     OW10121   1.701   8.064   3.291  0.4398  0.0606 -0.0686
34762SOL    HW110122   1.792   8.036   3.290  0.2339 -0.6800 -1.5746
34762SOL    HW210123   1.652   7.985   3.268 -0.5149  0.6507 -0.1092
34763SOL     OW10124  10.767   6.799   7.062 -0.0506 -1.1099 -0.1494
34763SOL    HW110125  10.674   6.794   7.039 -0.3945  0.7774  0.6459
34763SOL    HW210126  10.773   6.754   7.146 -0.0618 -2.0197 -0.6244
34764SOL     OW10127   6.689  10.301   4.403  0.2809 -0.0571 -0.1651
34764SOL    HW110128   6.600  10.309   4.438  1.0393 -0.1876  1.9562
34764SOL    HW210129   6.711  10.209   4.414 -0.1497 -0.5864 -3.0142
34765SOL     OW10130   8.804   4.234   7.838  0.1756  0.1413  0.1652
34765SOL    HW110131   8.726   4.261   7.789  0.6701 -0.7572 -1.1704
34765SOL    HW210132   8.784   4.145   7.867 -0.2765  0.8012  2.0210
34766SOL     OW10133   4.241   3.641   1.707  0.0393 -0.6891  0.3592
34766SOL    HW110134   4.147   3.659   1.718  0.0288 -2.2606  4.6717
34766SOL    HW210135   4.251   3.549   1.732  2.7247 -0.6693 -0.3581
34767SOL     OW10136   4.334   7.530   1.827 -0.4527 -0.3777  0.3853
34767SOL    HW110137   4.403   7.580   1.872 -0.2800  0.4479 -0.7598
34767SOL    HW210138   4.260   7.590   1.824 -2.0121 -1.9088  3.3638
34768SOL     OW10139   9.936   0.649   4.541  0.0268 -0.5234 -0.1736
34768SOL    HW110140   9.990   0.727   4.541  0.2787 -0.6134  2.2813
34768SOL    HW210141   9.985   0.586   4.488  1.3408  0.0580  0.2921
34769SOL     OW10142   7.743   3.465  10.138  0.1045 -0.0109  0.1053
34769SOL    HW110143   7.671   3.435  10.193 -0.3882 -1.4244 -1.2413
34769SOL    HW210144   7.718   3.554  10.112 -1.4782 -0.6825 -0.8042
34770SOL     OW10145   1.863   7.121   1.406 -0.4391 -0.2281  0.4405
34770SOL    HW110146   1.933   7.064   1.376  0.0009  1.1809 -1.4364
34770SOL    HW210147   1.907   7.194   1.448 -0.8507  0.0620  0.3770
34771SOL     OW10148   9.313   5.573   7.924 -0.6830  0.0413  0.0830
34771SOL    HW110149   9.331   5.521   7.846 -1.6581 -1.2781  0.7030
34771SOL    HW210150   9.384   5.552   7.985  0.5548  1.7181 -0.7078
34772SOL     OW10151   1.473   8.664   8.448  0.4255 -0.3303 -0.0053
34772SOL    HW110152   1.482   8.734   8.383 -0.4163  1.3652  1.6176
34772SOL    HW210153   1.562   8.648   8.478  0.7129 -0.4801 -0.9049
34773SOL     OW10154   5.753  10.666   7.774 -0.5022  0.9556 -0.4192
34773SOL    HW110155   5.706  10.597   7.729  0.1964  0.6489 -0.6966
34773SOL    HW210156   5.715  10.668   7.862 -0.1032 -0.2038 -0.2127
34774SOL     OW10157   7.412   3.669   7.956 -0.7101 -0.4675 -0.1188
34774SOL    HW110158   7.342   3.734   7.957 -1.0928 -0.7537 -2.7158
34774SOL    HW210159   7.454   3.679   8.041 -1.7697  2.0508  0.2027
34775SOL     OW10160  10.036   1.235   8.167 -0.1755  0.0934 -0.5062
34775SOL    HW110161  10.082   1.318   8.157 -0.1425  0.6016  2.9061
34775SOL    HW210162   9.956   1.257   8.213 -0.3314 -1.7337  0.1927
34776SOL     OW10163   4.181   6.376   8.533  0.0100  0.3494 -0.2422
34776SOL    HW110164   4.157   6.353   8.623 -0.8536  1.0834 -0.2716
34776SOL    HW210165   4.261   6.427   8.542  1.0994 -1.2982 -0.0655
34777SOL     OW10166   9.549   9.252  10.044  0.3697  0.5744 -0.0130
34777SOL    HW110167   9.494   9.261   9.966  2.5357 -0.9120 -1.8273
34777SOL    HW210168   9.632   9.294  10.020  0.9788  0.3545  1.6009
34778SOL     OW10169   0.796   3.391   1.257 -0.2003 -0.0924 -0.3272
34778SOL    HW110170   0.711   3.358   1.287  0.5595  0.4554  2.7738
34778SOL    HW210171   0.860   3.338   1.303  1.0632  2.3967  0.9846
34779SOL     OW10172   5.055   5.183   8.899 -0.2135 -0.5407  0.0850
34779SOL    HW110173   5.119   5.183   8.971 -1.8471  1.3181  1.6640
34779SOL    HW210174   5.078   5.261   8.848 -0.0337 -0.9713 -0.4947
34780SOL     OW10175   0.062   3.524   4.855 -0.3476  0.6899 -0.4502
34780SOL    HW110176   0.102   3.558   4.775 -0.2921 -0.8622 -1.1204
34780SOL    HW210177   0.127   3.542   4.923 -0.3677  1.9623 -0.7374
34781SOL     OW10178   9.354   2.843  10.552  0.0512  0.0575  0.3963
34781SOL    HW110179   9.428   2.802  10.596  2.0570  0.4957 -2.3622
34781SOL    HW210180   9.336   2.922  10.604  1.6070  0.0028  1.0556
34782SOL     OW10181   2.981   5.119   2.008 -0.5813  0.3806  0.1564
34782SOL    HW110182   3.061   5.168   2.023 -0.9237  0.8808  0.3468
34782SOL    HW210183   3.007   5.050   1.947  0.0845  0.2860  0.5358
34783SOL     OW10184   7.626   4.138   7.421  0.2276  0.5486 -0.5801
34783SOL    HW110185   7.639   4.111   7.331  1.5146  0.9929 -0.5496
34783SOL    HW210186   7.584   4.224   7.414 -1.1217 -0.0916 -0.7091
34784SOL     OW10187   3.942   0.927   7.659  0.1321 -0.2927  0.0451
34784SOL    HW110188   3.867   0.976   7.627 -0.4106 -0.4274  1.0446
34784SOL    HW210189   3.928   0.922   7.754  1.7890  0.3239  0.3577
34785SOL     OW10190   8.639   7.069   3.108 -0.5511 -0.3601 -0.4659
34785SOL    HW110191   8.605   7.076   3.019 -0.8767  1.8033 -0.2151
34785SOL    HW210192   8.561   7.059   3.163 -0.8219  3.0865 -0.0362
34786SOL     OW10193   9.058   8.720   9.211 -0.1968  0.1929 -0.0976
34786SOL    HW110194   9.124   8.680   9.154 -1.3044 -0.1820 -1.1711
34786SOL    HW210195   8.986   8.657   9.211 -1.0594  1.1534  0.0375
34787SOL     OW10196   2.770   2.683   9.876  0.1193  0.3895  0.1447
34787SOL    HW110197   2.694   2.653   9.826 -1.6293 -1.4650  3.5789
34787SOL    HW210198   2.738   2.757   9.927  0.7076 -0.1620  1.3439
34788SOL     OW10199   8.357   4.418   1.415 -0.1180  0.0461 -0.1634
34788SOL    HW110200   8.439   4.460   1.443 -0.8571  1.1449  0.4455
34788SOL    HW210201   8.295   4.490   1.407 -0.7400 -0.6233 -1.7697
34789SOL     OW10202   8.105   1.061   3.714 -0.1038  0.3811  0.0278
34789SOL    HW110203   8.182   1.015   3.746 -0.7619 -1.2238 -0.5610
34789SOL    HW210204   8.082   1.123   3.784  1.2721  0.3746  0.5062
34790SOL     OW10205   3.862   8.813   6.810  0.3345 -0.2259 -0.2536
34790SOL    HW110206   3.911   8.733   6.792 -0.8923 -1.0340 -0.0947
34790SOL    HW210207   3.923   8.884   6.788  2.4512 -1.1428  2.1549
34791SOL     OW10208   7.868  10.197   7.498  0.0901  0.3440 -0.2258
34791SOL    HW110209   7.869  10.102   7.511  0.7393 -0.0934 -2.9349
34791SOL    HW210210   7.799  10.228   7.556 -0.7781 -1.9025  0.0397
34792SOL     OW10211   5.462   3.444   4.583 -0.4853 -0.7387 -0.0306
34792SOL    HW110212   5.459   3.540   4.576 -2.0975 -0.8523 -1.5206
34792SOL    HW210213   5.538   3.418   4.531  0.0143 -0.2901  0.4534
34793SOL     OW10214   9.981   7.827   9.259  0.0455  0.0772 -0.4865
34793SOL    HW110215   9.905   7.882   9.279 -1.2747 -1.6660 -0.4481
34793SOL    HW210216  10.037   7.882   9.205 -1.4768  1.2782 -0.9171
34794SOL     OW10217  10.635   7.938   4.571 -0.0564 -0.2877 -0.4564
34794SOL    HW110218  10.726   7.941   4.601 -0.4301 -0.8574  0.8293
34794SOL    HW210219  10.592   8.011   4.617 -0.5269 -0.8376 -0.0091
34795SOL     OW10220   3.867   8.193   2.204  0.7503  0.0598 -0.1007
34795SOL    HW110221   3.805   8.122   2.184  2.4998 -1.7126  0.4054
34795SOL    HW210222   3.843   8.221   2.292 -2.0794  2.5595 -1.4834
34796SOL     OW10223  10.296   8.258   5.785  0.5825 -0.0338 -0.2186
34796SOL    HW110224  10.216   8.207   5.776  1.0321 -0.8447  0.3227
34796SOL    HW210225  10.270   8.337   5.832  0.3700 -0.9719  1.2895
34797SOL     OW10226   2.281   7.410   7.134 -0.1245 -0.8909 -0.0938
34797SOL    HW110227   2.309   7.482   7.078 -2.0920 -1.0675 -1.3910
34797SOL    HW210228   2.338   7.416   7.211 -0.0940  1.9031 -0.2374
34798SOL     OW10229   4.274   7.965   3.743  0.0767  0.1574 -0.0212
34798SOL    HW110230   4.243   7.876   3.759 -0.0846  0.4815  1.6670
34798SOL    HW210231   4.310   7.994   3.827  0.6055  1.5039 -0.6720
34799SOL     OW10232   3.134   3.498   5.420 -0.1696  0.0871  0.3821
34799SOL    HW110233   3.121   3.590   5.399  0.6379 -0.1055 -1.1203
34799SOL    HW210234   3.202   3.498   5.488 -0.2175  0.5980  0.4322
34800SOL     OW10235  10.733  10.919   6.747  0.8303 -0.3348  0.1627
34800SOL    HW110236  10.658  10.945   6.801  1.4197  0.4781  0.6053
34800SOL    HW210237  10.794  10.879   6.809  0.2223 -2.2681 -0.3972
34801SOL     OW10238  10.369   2.638   4.476  0.1661  0.2698 -0.3303
34801SOL    HW110239  10.412   2.553   4.472 -1.2320 -0.4412 -0.6713
34801SOL    HW210240  10.437   2.697   4.509  0.5019 -1.4284  2.3579
34802SOL     OW10241   3.037   6.476   1.582 -0.2918 -0.0780 -0.1749
34802SOL    HW110242   3.011   6.403   1.637  0.0792 -0.3412 -0.3454
34802SOL    HW210243   2.978   6.473   1.507 -1.3207  0.7527  0.5691
34803SOL     OW10244   4.979   2.374   0.795 -0.5484  0.1770 -0.0647
34803SOL    HW110245   5.001   2.281   0.794  0.6430  0.4038 -2.6346
34803SOL    HW210246   4.894   2.379   0.751 -0.7399  0.2765  0.3161
34804SOL     OW10247   6.377   2.287   4.231 -0.4181  0.1506  0.0810
34804SOL    HW110248   6.429   2.210   4.209 -1.1131 -0.0492 -0.9618
34804SOL    HW210249   6.324   2.260   4.306  0.0936 -0.0296  0.3871
34805SOL     OW10250   7.879   3.147   4.335 -0.0698 -0.3302 -0.5443
34805SOL    HW110251   7.933   3.175   4.261 -0.0625 -1.7931 -1.1347
34805SOL    HW210252   7.832   3.225   4.362  0.1767  0.3071 -1.8848
34806SOL     OW10253   1.184   7.534   6.590 -0.0600  0.6943 -0.5036
34806SOL    HW110254   1.238   7.534   6.669 -0.4487  1.3469 -0.2306
34806SOL    HW210255   1.203   7.617   6.548  1.4440 -0.3459 -2.0268
34807SOL     OW10256   6.813   9.601   3.981  0.4950 -0.0993 -0.0946
34807SOL    HW110257   6.819   9.596   4.076 -4.1754  0.3832  0.4159
34807SOL    HW210258   6.834   9.692   3.960 -0.0124  0.1901  0.6443
34808SOL     OW10259   4.657   4.767   9.267 -0.2067  0.6784 -0.0251
34808SOL    HW110260   4.647   4.859   9.290 -1.3631  0.4515  0.4762
34808SOL    HW210261   4.739   4.763   9.218 -0.0870  1.9521  0.0332
34809SOL     OW10262   5.742   8.930   6.320 -0.1470  0.1639 -0.3926
34809SOL    HW110263   5.765   9.022   6.335 -1.3983  0.2187  1.5507
34809SOL    HW210264   5.715   8.926   6.228  1.8668  1.2786 -1.0765
34810SOL     OW10265   2.742   4.202   7.065 -0.0414  0.2344  0.1963
34810SOL    HW110266   2.798   4.239   7.133  2.1462 -1.1012 -0.7616
34810SOL    HW210267   2.736   4.109   7.086 -1.1761  0.1867 -0.2547
34811SOL     OW10268   2.113   6.164   0.966  0.4877 -0.4455 -0.4175
34811SOL    HW110269   2.131   6.191   0.876  1.1830  0.6351  0.0273
34811SOL    HW210270   2.023   6.133   0.965  0.6157 -0.8297 -1.5644
34812SOL     OW10271   2.871   3.532   0.073 -0.0908  0.1451 -0.0189
34812SOL    HW110272   2.871   3.620   0.035 -1.1548  1.1597  2.1375
34812SOL    HW210273   2.962   3.516   0.096 -0.1357  1.5797  1.3662
34813SOL     OW10274   8.973   2.207   3.977 -0.0768  0.7623 -0.5707
34813SOL    HW110275   8.927   2.127   4.000  0.1012  0.3065 -1.7278
34813SOL    HW210276   9.033   2.222   4.050 -1.6116  1.0601  0.6944
34814SOL     OW10277   5.640   8.370   0.626 -0.3647  0.6189 -0.6051
34814SOL    HW110278   5.548   8.389   0.646 -0.4585  0.0227 -0.4518
34814SOL    HW210279   5.665   8.304   0.691 -0.2869 -0.3705 -1.6134
34815SOL     OW10280   1.835   0.386   6.986  0.2219 -0.4196 -0.5827
34815SOL    HW110281   1.789   0.363   7.067 -0.2059  0.3406 -0.6020
34815SOL    HW210282   1.909   0.325   6.983  0.2696 -0.4309  0.4035
34816SOL     OW10283   3.080   8.270   2.564  0.3502  0.1659 -0.1389
34816SOL    HW110284   3.002   8.216   2.552  0.5791 -0.2278  0.1130
34816SOL    HW210285   3.153   8.209   2.556  0.8301  0.9585 -3.3218
34817SOL     OW10286   4.577   7.708   6.984  0.0235  0.1931 -0.1432
34817SOL    HW110287   4.609   7.666   6.905 -0.3241 -0.6177  0.1299
34817SOL    HW210288   4.489   7.739   6.961 -0.5329 -1.0414  0.2347
34818SOL     OW10289   0.969  10.661  10.598 -0.2542  0.6409  0.5044
34818SOL    HW110290   0.946  10.743  10.641 -0.6184  1.0766 -0.5116
34818SOL    HW210291   0.914  10.657  10.520  2.5236  1.3768 -1.6699
34819SOL     OW10292   5.209   4.195  10.033  0.3830  0.3880 -0.0221
34819SOL    HW110293   5.287   4.180  10.085 -1.1654 -0.5491  2.1861
34819SOL    HW210294   5.173   4.277  10.066 -1.2158 -0.7706  1.2773
34820SOL     OW10295   7.314   6.580   8.406 -0.0769 -0.0170  0.0084
34820SOL    HW110296   7.366   6.507   8.374  0.4997  0.0366  0.8022
34820SOL    HW210297   7.291   6.556   8.496 -2.6409 -0.7027 -0.7414
34821SOL     OW10298   8.753   4.577  10.641  0.1473  0.1857  0.2413
34821SOL    HW110299   8.725   4.487  10.625 -0.2271  0.5430 -1.2895
34821SOL    HW210300   8.715   4.599  10.726 -0.1218 -0.9542  0.4316
34822SOL     OW10301   9.306   6.148   6.980  0.2791  0.0274 -0.2191
34822SOL    HW110302   9.236   6.094   6.946 -0.0241  0.1146  0.2530
34822SOL    HW210303   9.376   6.142   6.915  1.2794 -2.9730  0.9375
34823SOL     OW10304   6.281   3.552   6.166 -0.2617  0.1685 -0.2084
34823SOL    HW110305   6.206   3.566   6.224 -0.5720 -0.7534 -0.3809
34823SOL    HW210306   6.323   3.473   6.200 -0.0261  0.0296 -0.8175
34824SOL     OW10307   4.093   7.035   0.730  0.0765 -0.4458  0.3785
34824SOL    HW110308   4.165   7.063   0.673 -0.6326  0.8834  0.0951
34824SOL    HW210309   4.084   6.942   0.712  1.9735 -0.7404  0.7193
34825SOL     OW10310   8.194   3.594   0.631  0.4776  0.2175  0.2714
34825SOL    HW110311   8.280   3.634   0.615 -0.6469  2.5072 -0.4760
34825SOL    HW210312   8.215   3.507   0.663  3.0866  0.0384 -1.4966
34826SOL     OW10313   0.613  10.362   6.172 -0.1310  0.7776 -0.6944
34826SOL    HW110314   0.565  10.285   6.140  2.0645 -0.7861 -0.4271
34826SOL    HW210315   0.624  10.417   6.094  1.5453 -1.0246 -1.8230
34827SOL     OW10316   5.539   0.260   7.071  0.1619 -0.5929 -0.2346
34827SOL    HW110317   5.470   0.201   7.100  0.9714 -0.6496  1.7009
34827SOL    HW210318   5.524   0.341   7.120  0.8728 -0.2586 -0.5546
34828SOL     OW10319  10.041   4.008   5.840  0.2807  0.1549  0.2254
34828SOL    HW110320   9.948   4.030   5.851  0.4982  0.7941  0.8758
34828SOL    HW210321  10.062   3.955   5.917  0.5505  0.3661  0.3008
34829SOL     OW10322   9.134  10.498   1.210 -0.6644 -0.1146  0.5195
34829SOL    HW110323   9.196  10.545   1.155 -2.5888 -0.0596 -1.7785
34829SOL    HW210324   9.118  10.557   1.283  0.0645  0.9790 -0.1694
34830SOL     OW10325   3.365  10.457   6.174 -0.2374 -0.3901 -0.3384
34830SOL    HW110326   3.428  10.461   6.246  0.1089 -0.6176 -0.6258
34830SOL    HW210327   3.417  10.430   6.098 -0.4730  0.5238 -0.8308
34831SOL     OW10328   7.303   6.273   0.808  0.2128 -0.4543 -0.7753
34831SOL    HW110329   7.387   6.267   0.854 -0.9803 -1.2472  1.4814
34831SOL    HW210330   7.239   6.242   0.872 -2.0703  1.9226 -1.7016
34832SOL     OW10331   2.113   3.915   0.034 -0.3778  0.0007  0.6969
34832SOL    HW110332   2.143   3.963   0.111  1.2081  1.3424 -0.6997
34832SOL    HW210333   2.034   3.963   0.006 -3.0779 -2.4555  3.2937
34833SOL     OW10334  10.496   8.862   9.682 -0.4767  0.4209  0.4317
34833SOL    HW110335  10.550   8.917   9.625 -0.9431 -1.2579 -1.7688
34833SOL    HW210336  10.538   8.776   9.680 -2.1804 -0.4505  0.1288
34834SOL     OW10337  10.770  10.007   7.360 -0.0497  0.5247 -0.4689
34834SOL    HW110338  10.692  10.000   7.414  0.9332 -2.3559  0.7522
34834SOL    HW210339  10.817  10.083   7.394  0.5859 -1.2177  3.0035
34835SOL     OW10340   3.632   2.539   5.688  0.0318 -0.0039  0.1341
34835SOL    HW110341   3.599   2.462   5.642 -0.0852  0.2793 -0.2643
34835SOL    HW210342   3.719   2.514   5.718 -0.9039 -1.1297  2.0879
34836SOL     OW10343   4.482   1.074   8.312  0.3276  0.4931 -0.1220
34836SOL    HW110344   4.478   0.983   8.284  1.4884  0.2413  0.4729
34836SOL    HW210345   4.407   1.116   8.269 -0.3437 -0.7790 -0.2261
34837SOL     OW10346   5.839   1.544   4.548 -0.6130 -0.7520 -0.0113
34837SOL    HW110347   5.816   1.576   4.635 -0.8613  2.3539 -1.1177
34837SOL    HW210348   5.813   1.614   4.488  3.5057 -0.7932 -2.2168
34838SOL     OW10349   7.963   9.577  10.684  0.4732  0.0639  0.0182
34838SOL    HW110350   7.894   9.545  10.742 -0.3743 -1.3875 -1.7006
34838SOL    HW210351   8.014   9.499  10.661  1.6211  0.8310 -0.1392
34839SOL     OW10352   3.908   9.182  10.695  0.5270 -0.2728 -0.2059
34839SOL    HW110353   3.861   9.192  10.613  1.5270 -0.0079 -0.7628
34839SOL    HW210354   3.841   9.194  10.763 -0.0797  0.8127 -0.9664
34840SOL     OW10355   3.376   2.407   1.662  0.3065 -0.6092  0.0874
34840SOL    HW110356   3.464   2.372   1.676  0.0236 -1.4848 -0.2959
34840SOL    HW210357   3.391   2.492   1.620  1.0882  0.9197  3.1964
34841SOL     OW10358   5.462   8.770   8.824  0.4187  0.2941  0.4196
34841SOL    HW110359   5.401   8.840   8.799  0.7102  0.3949 -0.0242
34841SOL    HW210360   5.407   8.695   8.843  0.0768  0.7491  1.2505
34842SOL     OW10361   4.224   6.044   2.685 -0.0308  0.0450 -0.3952
34842SOL    HW110362   4.239   5.950   2.674  1.0989  0.4129 -2.7134
34842SOL    HW210363   4.193   6.074   2.599  0.5650  1.9362 -0.0144
34843SOL     OW10364   1.483   9.098   3.507  0.6936  0.4605 -0.4996
34843SOL    HW110365   1.520   9.015   3.480  1.4333  1.4206 -2.6907
34843SOL    HW210366   1.559   9.150   3.536  0.3651  0.7084 -0.0675
34844SOL     OW10367   6.281  10.843   4.810 -0.0436  0.0964 -0.0316
34844SOL    HW110368   6.311  10.925   4.772 -0.0597  1.0725  1.9447
34844SOL    HW210369   6.301  10.851   4.903  0.6940 -2.4777  0.1073
34845SOL     OW10370   1.017   4.282   8.053  0.3979 -0.2359 -0.1637
34845SOL    HW110371   0.923   4.281   8.033  0.7307  1.7082 -2.2729
34845SOL    HW210372   1.026   4.351   8.119  0.4101  0.0591 -0.4704
34846SOL     OW10373  10.724   9.416   2.900  0.0251  0.4403 -0.3353
34846SOL    HW110374  10.678   9.480   2.954  1.8958 -0.3672  2.4335
34846SOL    HW210375  10.807   9.458   2.878  0.5722 -0.3679  0.1140
34847SOL     OW10376   1.794   7.155   4.118  0.5023  0.3447 -0.2909
34847SOL    HW110377   1.768   7.144   4.026 -1.3338 -1.3657  0.3783
34847SOL    HW210378   1.716   7.134   4.168  1.2901  1.8583  1.6921
34848SOL     OW10379   9.981   3.363   6.631  0.1441  0.8460 -0.3659
34848SOL    HW110380   9.897   3.396   6.601 -0.1805  0.9407  0.5940
34848SOL    HW210381  10.045   3.402   6.572 -0.6472 -1.6238 -3.0964
34849SOL     OW10382  10.546   5.378   5.008  0.2515 -0.3160  0.1295
34849SOL    HW110383  10.599   5.406   4.933  1.0487 -0.9826  0.4273
34849SOL    HW210384  10.549   5.452   5.068  1.0679 -0.4420  0.2529
34850SOL     OW10385   9.322   3.109   4.770 -0.3982  0.2243 -0.1320
34850SOL    HW110386   9.357   3.074   4.852 -1.6274  0.7051  0.6131
34850SOL    HW210387   9.372   3.063   4.702 -0.1525 -1.0257  0.8546
34851SOL     OW10388   8.535   6.716   5.138  0.0529  0.1530  0.0214
34851SOL    HW110389   8.552   6.790   5.080  2.0611  0.3943  0.8144
34851SOL    HW210390   8.488   6.753   5.212 -0.5126  0.2693 -0.3847
34852SOL     OW10391   0.660   3.471   4.421 -0.0577  0.2332 -0.1627
34852SOL    HW110392   0.722   3.498   4.489 -0.5722 -0.5219  0.6322
34852SOL    HW210393   0.580   3.522   4.440 -0.4088 -0.4361  0.2006
34853SOL     OW10394   5.174   4.556   7.599  0.3809 -0.2982  0.0596
34853SOL    HW110395   5.236   4.525   7.665 -1.2057  0.1887  1.8702
34853SOL    HW210396   5.188   4.651   7.596  0.8042 -0.3790 -0.7119
34854SOL     OW10397   8.856  10.646   5.810 -0.4067 -0.1639 -0.5280
34854SOL    HW110398   8.918  10.658   5.738 -0.3135 -0.9993 -0.5972
34854SOL    HW210399   8.780  10.604   5.769 -1.0061  0.7894 -0.4292
34855SOL     OW10400   1.956   5.571   4.581  0.1785 -0.4589 -0.0730
34855SOL    HW110401   1.976   5.636   4.513 -1.2472  0.3942  0.2930
34855SOL    HW210402   1.937   5.623   4.659  2.9605 -1.4243  1.4139
34856SOL     OW10403   9.992   1.667   7.427  0.1577  0.0276 -0.0047
34856SOL    HW110404   9.985   1.763   7.423 -1.8198 -0.0645  0.2007
34856SOL    HW210405  10.010   1.641   7.336 -2.0207  0.4739 -0.6213
34857SOL     OW10406   0.358   8.466   0.241 -0.0924  0.0468  0.1660
34857SOL    HW110407   0.431   8.413   0.272 -1.7420 -1.8688  1.0561
34857SOL    HW210408   0.340   8.527   0.312 -0.5533 -0.7954  0.7885
34858SOL     OW10409   6.841  10.480  10.647  0.5427 -0.2702 -0.0729
34858SOL    HW110410   6.923  10.523  10.672  1.4142 -1.7159 -0.3270
34858SOL    HW210411   6.841  10.481  10.552  0.3067 -0.3467 -0.0743
34859SOL     OW10412   8.208   6.959   7.748  0.3133 -0.6609  0.7486
34859SOL    HW110413   8.270   7.029   7.768 -1.8227  1.2271  1.1841
34859SOL    HW210414   8.254   6.903   7.686  2.1199  1.1303  0.3742
34860SOL     OW10415   3.689   6.484   9.052  0.1987  0.2045  0.3163
34860SOL    HW110416   3.645   6.498   8.968 -0.4464 -0.9377  0.4498
34860SOL    HW210417   3.644   6.542   9.113  0.1505  0.4583  0.0436
34861SOL     OW10418   9.338   3.706   7.373 -0.0186 -0.1228 -0.2188
34861SOL    HW110419   9.406   3.769   7.349  1.4193 -1.4490  0.2439
34861SOL    HW210420   9.385   3.626   7.394 -1.6089 -0.6821  1.5288
34862SOL     OW10421   3.827   1.844   4.716  0.5872  0.8705  0.0428
34862SOL    HW110422   3.804   1.773   4.776  0.1084  1.5757  0.7128
34862SOL    HW210423   3.794   1.815   4.631  0.3031  0.3295  0.3310
34863SOL     OW10424   0.769   6.503   8.125 -0.5366 -0.0589 -0.0747
34863SOL    HW110425   0.771   6.426   8.181 -0.2208  0.7175  1.0095
34863SOL    HW210426   0.714   6.477   8.051  1.1467 -1.9883 -0.7465
34864SOL     OW10427   6.371   4.937   4.916  0.4594 -0.3299  0.5824
34864SOL    HW110428   6.276   4.936   4.923  0.4800 -1.5348  0.7983
34864SOL    HW210429   6.393   5.030   4.904 -0.8626 -0.2219 -1.4711
34865SOL     OW10430   2.686   0.114   7.609  0.1725  0.2328  0.7092
34865SOL    HW110431   2.695   0.106   7.514 -0.7315  1.1848  0.5300
34865SOL    HW210432   2.626   0.043   7.633 -0.1237  0.3976  0.4695
34866SOL     OW10433   6.071   7.796   9.881  0.6864  0.3130 -0.1993
34866SOL    HW110434   6.026   7.809   9.797 -1.0756  0.8678  0.7710
34866SOL    HW210435   6.068   7.882   9.923  3.0653  0.4731 -0.2155
34867SOL     OW10436   1.846   2.638   4.385  0.3581  0.6451 -0.0007
34867SOL    HW110437   1.844   2.635   4.289  4.0085  1.2152 -0.2612
34867SOL    HW210438   1.793   2.715   4.407 -1.6169 -0.2298 -1.3983
34868SOL     OW10439   5.307   4.971   6.819  0.2763 -0.2712 -0.5731
34868SOL    HW110440   5.264   5.056   6.808 -1.0100 -0.5854  1.5429
34868SOL    HW210441   5.390   4.991   6.863 -1.5782 -0.2649  3.2866
34869SOL     OW10442   5.273   1.628   4.873  0.0588 -0.1579 -0.2721
34869SOL    HW110443   5.226   1.671   4.945  1.6954  0.5171  0.4580
34869SOL    HW210444   5.228   1.545   4.860 -0.1254 -0.4136  1.7364
34870SOL     OW10445  10.788   3.853   8.793 -0.3948  0.0941 -0.5851
34870SOL    HW110446  10.821   3.839   8.882 -0.5836  0.1860 -0.5007
34870SOL    HW210447  10.827   3.781   8.742 -0.8204 -0.3541 -0.2886
34871SOL     OW10448   5.597   5.358   0.740 -0.2927  0.4522 -0.3364
34871SOL    HW110449   5.672   5.360   0.680  0.0904 -0.5027  0.0992
34871SOL    HW210450   5.521   5.362   0.682  0.0713 -0.6120 -0.9095
34872SOL     OW10451   6.385   2.755   9.191 -0.2447 -0.0723 -0.3169
34872SOL    HW110452   6.419   2.737   9.279  1.3329  1.3541 -0.5793
34872SOL    HW210453   6.318   2.822   9.204  0.1165  0.2720 -0.2063
34873SOL     OW10454   2.698   0.163   7.215 -0.0942 -0.3860 -0.7106
34873SOL    HW110455   2.754   0.148   7.139 -1.1571 -0.3945 -1.5243
34873SOL    HW210456   2.643   0.237   7.190  1.5599  1.6401  1.2483
34874SOL     OW10457   6.617   4.846   8.442  0.4861  0.3521  0.2542
34874SOL    HW110458   6.523   4.830   8.442  0.4577  0.5262  0.5521
34874SOL    HW210459   6.643   4.836   8.350  0.7767 -3.3116  0.5653
34875SOL     OW10460   2.978   0.758   1.310 -0.1095 -0.1276  0.1344
34875SOL    HW110461   2.900   0.814   1.309  0.5286  0.7937  0.3814
34875SOL    HW210462   3.051   0.819   1.298  0.5947 -0.9383  0.2264
34876SOL     OW10463   1.844   3.056   5.779 -0.2034 -0.5549  0.1961
34876SOL    HW110464   1.859   3.076   5.686  1.5309  2.3180  0.9730
34876SOL    HW210465   1.889   2.974   5.794 -0.3814 -0.9889 -1.4577
34877SOL     OW10466   4.645   6.243   3.696  0.2598 -0.2475 -0.2869
34877SOL    HW110467   4.678   6.155   3.711 -0.8503 -0.7593 -0.7118
34877SOL    HW210468   4.691   6.298   3.760  0.4059 -1.2540  0.4910
34878SOL     OW10469   5.832   2.407   0.583 -0.1299  0.4652  0.0311
34878SOL    HW110470   5.858   2.497   0.602 -0.8731  0.6340  0.2819
34878SOL    HW210471   5.764   2.387   0.648 -0.4739 -0.0280 -0.4719
34879SOL     OW10472   5.200   4.706   1.487 -0.5286 -0.2237 -0.1769
34879SOL    HW110473   5.190   4.613   1.468 -1.2473 -0.6405  1.9672
34879SOL    HW210474   5.116   4.744   1.462 -1.3497 -0.7130  1.6384
34880SOL     OW10475   0.833   8.269   6.949  0.1554 -0.1322 -0.4376
34880SOL    HW110476   0.835   8.267   6.854  0.1765  1.2774 -0.4780
34880SOL    HW210477   0.925   8.277   6.975  0.1438 -0.4459 -0.2854
34881SOL     OW10478   6.529  10.521   2.733  0.0090  0.0832  0.2164
34881SOL    HW110479   6.596  10.514   2.800  0.0489  0.0593  0.1735
34881SOL    HW210480   6.479  10.599   2.758 -0.6006 -0.4864  0.8457
34882SOL     OW10481   2.380   1.422   0.945  0.1760  0.3854 -0.1754
34882SOL    HW110482   2.311   1.422   0.879  1.4589 -0.4955 -1.5656
34882SOL    HW210483   2.402   1.329   0.956  1.5296  0.6920 -0.1900
34883SOL     OW10484   9.142   2.466   2.677 -0.0973  0.4344 -0.7219
34883SOL    HW110485   9.230   2.432   2.664  0.0734 -0.4340  2.0627
34883SOL    HW210486   9.144   2.554   2.638  2.2750  0.7896  0.0684
34884SOL     OW10487   5.639   5.582   0.061 -0.0899  0.2238 -0.4182
34884SOL    HW110488   5.615   5.617  -0.024 -0.8889  1.6737  0.3696
34884SOL    HW210489   5.567   5.608   0.119  0.0923 -1.3264  0.5629
34885SOL     OW10490   1.709   2.390   4.423 -0.2264  0.4771 -0.6312
34885SOL    HW110491   1.768   2.462   4.400 -0.6822  1.3454  0.7406
34885SOL    HW210492   1.622   2.421   4.399 -0.3539  0.0853 -0.6869
34886SOL     OW10493   4.805   7.249   8.608 -0.1675  0.1203  0.0391
34886SOL    HW110494   4.755   7.299   8.543 -0.2824 -0.3931 -0.2721
34886SOL    HW210495   4.857   7.315   8.655  0.9939  0.3594 -1.5149
34887SOL     OW10496   8.221   3.960   2.577 -0.3100 -0.0172 -0.3883
34887SOL    HW110497   8.213   3.931   2.668 -1.2223  1.2545 -0.0204
34887SOL    HW210498   8.306   4.003   2.574  0.1152 -0.8431 -0.3837
34888SOL     OW10499   5.775   9.286   0.087 -0.0765 -0.0613  0.0649
34888SOL    HW110500   5.741   9.253   0.004 -0.1147  2.5894 -1.0894
34888SOL    HW210501   5.870   9.294   0.072 -0.2080  1.4366 -0.1895
34889SOL     OW10502   4.378   5.252   4.482  0.0006  0.5672  0.3430
34889SOL    HW110503   4.367   5.264   4.576 -0.2676  0.9584  0.2667
34889SOL    HW210504   4.472   5.264   4.468 -0.1786  2.3461  0.3349
34890SOL     OW10505   3.995   9.840   8.082  0.6264 -0.1126 -0.5233
34890SOL    HW110506   4.025   9.852   7.992 -0.0081 -0.0053 -0.7289
34890SOL    HW210507   3.998   9.745   8.096 -0.7958 -0.2926 -1.2219
34891SOL     OW10508   2.819  10.850   4.159 -0.2910  0.2833  0.0095
34891SOL    HW110509   2.738  10.891   4.128  0.3046 -0.0774 -2.2622
34891SOL    HW210510   2.889  10.902   4.119  0.4913 -2.1593 -2.0887
34892SOL     OW10511   2.253   6.164   2.397 -0.4094  0.1197  0.1061
34892SOL    HW110512   2.206   6.247   2.391  0.9016  0.8708 -0.2278
34892SOL    HW210513   2.345   6.187   2.383  0.1115 -1.2521  0.9745
34893SOL     OW10514   0.801   8.784   4.671 -0.3715 -0.6393  0.1658
34893SOL    HW110515   0.756   8.860   4.634 -0.4604 -2.3900 -3.8413
34893SOL    HW210516   0.894   8.807   4.667 -0.4814  0.0933  1.2711
34894SOL     OW10517   8.211   2.752   0.372  0.3718 -0.4361  0.4077
34894SOL    HW110518   8.173   2.801   0.299  3.3181  0.0776 -0.9278
34894SOL    HW210519   8.225   2.818   0.440  0.2234 -0.3492  0.3551
34895SOL     OW10520   0.552   8.087   4.830 -0.0505  0.2999  0.0224
34895SOL    HW110521   0.585   8.161   4.779  1.5404  0.2920  0.9837
34895SOL    HW210522   0.587   8.100   4.918  1.2988 -2.1841 -0.0353
34896SOL     OW10523   6.878   3.778   1.342 -0.0329  0.2237 -0.4891
34896SOL    HW110524   6.900   3.870   1.333 -1.9048  0.9590  1.6603
34896SOL    HW210525   6.783   3.776   1.346 -0.2742 -2.1702 -3.3552
34897SOL     OW10526   5.796   5.272   5.420 -0.0508  0.3429 -0.3217
34897SOL    HW110527   5.750   5.351   5.448 -1.2579 -0.5472  0.3152
34897SOL    HW210528   5.732   5.202   5.431  1.6023 -1.0418  1.0505
34898SOL     OW10529   7.455   5.798  10.814 -0.3283  0.3373 -0.0132
34898SOL    HW110530   7.419   5.880  10.779 -0.4615 -0.1013 -0.9482
34898SOL    HW210531   7.529   5.778  10.757 -0.0350  0.0332  0.4738
34899SOL     OW10532   9.465   4.509   7.168 -0.0549 -0.0873  0.3187
34899SOL    HW110533   9.515   4.590   7.157 -1.4039  0.6417 -0.7700
34899SOL    HW210534   9.432   4.514   7.258 -0.0471  0.5239  0.2909
34900SOL     OW10535   9.881   9.625   7.674  0.0962 -0.2960 -0.5565
34900SOL    HW110536   9.801   9.678   7.667 -0.0032 -0.4991 -0.9861
34900SOL    HW210537   9.939   9.677   7.731 -0.0925  0.1549 -0.7670
34901SOL     OW10538   1.901   9.054   8.875 -0.3659 -0.3076 -0.3500
34901SOL    HW110539   1.821   9.008   8.849 -1.2368  1.2232 -0.4923
34901SOL    HW210540   1.889   9.073   8.967 -0.1101 -0.1647 -0.3459
34902SOL     OW10541   6.073   3.387   1.673  0.1029  0.1948  0.2186
34902SOL    HW110542   6.144   3.325   1.689  1.2018  1.5548  0.8818
34902SOL    HW210543   6.029   3.354   1.594  0.3302 -1.6560  0.8060
34903SOL     OW10544   3.839   9.643   1.415  0.2804 -0.7549 -0.1607
34903SOL    HW110545   3.787   9.688   1.482 -0.3137 -0.0471 -1.0664
34903SOL    HW210546   3.792   9.659   1.333  0.5458 -2.2787 -0.6546
34904SOL     OW10547   9.318   7.014   5.373 -0.5231  0.4549 -0.3072
34904SOL    HW110548   9.325   7.032   5.279  1.4896  0.9722 -0.1143
34904SOL    HW210549   9.270   6.931   5.379  2.6718 -1.7056 -2.0685
34905SOL     OW10550   3.003   4.055   6.935  0.2271  0.0736  0.2109
34905SOL    HW110551   2.919   4.094   6.958  0.1993 -1.0772  2.3094
34905SOL    HW210552   3.038   4.021   7.018  1.0283 -2.7904 -1.1462
34906SOL     OW10553   4.701   1.026   6.262 -0.0544 -0.6125  0.4962
34906SOL    HW110554   4.767   0.957   6.271 -0.3268 -1.1058 -1.0451
34906SOL    HW210555   4.751   1.106   6.249  0.2780 -1.0474 -1.0972
34907SOL     OW10556   9.571   4.871   6.304  0.4531 -0.0500  0.2214
34907SOL    HW110557   9.499   4.931   6.323  2.4946  1.4503  4.6391
34907SOL    HW210558   9.555   4.795   6.360  2.2856  0.4617  1.5525
34908SOL     OW10559   9.443   4.200   1.999  0.5195 -0.1318 -0.0717
34908SOL    HW110560   9.389   4.271   2.033 -2.0875 -0.0626 -3.6895
34908SOL    HW210561   9.521   4.243   1.964 -0.9404  1.0577 -2.0452
34909SOL     OW10562   2.588   3.837   8.573  0.0114 -0.2485  0.3152
34909SOL    HW110563   2.517   3.824   8.636  1.2654  0.9019  2.0601
34909SOL    HW210564   2.652   3.770   8.594  0.2071 -0.2050 -0.1160
34910SOL     OW10565   9.635   5.485  10.671 -0.5738  0.3941  0.0646
34910SOL    HW110566   9.651   5.499  10.578  1.0718 -0.2414  0.2172
34910SOL    HW210567   9.595   5.566  10.701  2.4501  2.2362 -0.4347
34911SOL     OW10568   5.260   9.669   7.214 -0.2882  0.3543  0.1072
34911SOL    HW110569   5.265   9.602   7.146  0.0932 -0.9904  1.4138
34911SOL    HW210570   5.233   9.748   7.168  0.7737 -0.3110 -1.7280
34912SOL     OW10571   2.163   2.206   1.310  0.6608 -0.7511 -0.9393
34912SOL    HW110572   2.181   2.283   1.256 -1.4632  0.9766  0.6635
34912SOL    HW210573   2.248   2.162   1.317  2.5548  2.7165 -0.0366
34913SOL     OW10574   4.215   7.331   7.037 -0.8381 -0.0007 -0.3825
34913SOL    HW110575   4.278   7.272   7.078 -1.1142  0.5759  0.9333
34913SOL    HW210576   4.258   7.362   6.958  0.4785  0.2894  0.4268
34914SOL     OW10577   8.721   9.503   5.385  0.3417  0.4176  0.0508
34914SOL    HW110578   8.775   9.503   5.463 -1.1776  0.5402  1.1459
34914SOL    HW210579   8.666   9.425   5.394  1.1474 -0.3924 -1.6375
34915SOL     OW10580   0.467  10.203   9.915  0.5589  0.5581 -0.1184
34915SOL    HW110581   0.414  10.263   9.862  0.7956  1.6880  0.8684
34915SOL    HW210582   0.488  10.253   9.994  0.3229 -1.0304  0.9955
34916SOL     OW10583   4.532   8.918   8.305  0.7747  0.1026 -0.3731
34916SOL    HW110584   4.609   8.974   8.295  1.1271 -0.0098  1.3540
34916SOL    HW210585   4.468   8.954   8.244  0.7433  2.8690  1.1193
34917SOL     OW10586   2.870   9.619   9.287  0.7180  0.0797 -0.3135
34917SOL    HW110587   2.871   9.675   9.210  0.0980 -1.2135 -1.2929
34917SOL    HW210588   2.921   9.668   9.352  0.5996  1.5431 -1.2655
34918SOL     OW10589   1.383   5.464   7.890 -0.1745  0.4627 -0.7619
34918SOL    HW110590   1.332   5.385   7.872  0.4308 -0.2325  0.4423
34918SOL    HW210591   1.350   5.496   7.974 -0.4713  1.5623 -1.2741
34919SOL     OW10592   5.962   4.857   2.824 -0.4433  0.4982  0.2134
34919SOL    HW110593   5.898   4.926   2.841 -2.5467 -1.3832  0.3695
34919SOL    HW210594   5.997   4.835   2.911 -0.2619  0.8975  0.2434
34920SOL     OW10595   4.480   9.147  10.230 -0.3181  0.0133 -0.1791
34920SOL    HW110596   4.557   9.091  10.226 -0.5405 -0.5541  2.0633
34920SOL    HW210597   4.409   9.091  10.198 -0.3689 -0.6861  1.1039
34921SOL     OW10598  10.572   7.964   1.736  0.0256 -0.0436  0.3022
34921SOL    HW110599  10.577   8.035   1.671  0.3421  0.8811  1.2996
34921SOL    HW210600  10.628   7.895   1.700  0.4789  0.5936 -0.2474
34922SOL     OW10601   9.534   6.763   5.481  0.3418 -0.1803  0.4895
34922SOL    HW110602   9.478   6.797   5.551  1.8172 -0.2184  1.7648
34922SOL    HW210603   9.512   6.670   5.475 -1.4136  0.2866 -0.7333
34923SOL     OW10604   9.089  10.266   9.271  0.3568  0.4971 -0.2527
34923SOL    HW110605   9.112  10.187   9.222  2.1128  0.8266  0.0065
34923SOL    HW210606   9.047  10.323   9.207 -0.8456 -0.5816 -0.4657
34924SOL     OW10607   3.024   1.543   3.360 -0.0465  0.6928 -0.3370
34924SOL    HW110608   3.043   1.608   3.292  0.6307 -1.1176 -1.9520
34924SOL    HW210609   2.936   1.512   3.339  0.5211 -0.5305 -0.9664
34925SOL     OW10610   1.287   7.489   3.444  0.3742 -0.0544 -0.1488
34925SOL    HW110611   1.347   7.414   3.450  1.4375  0.8143  0.2564
34925SOL    HW210612   1.248   7.481   3.356  1.5749 -0.2647 -0.6755
34926SOL     OW10613   2.060   1.756   3.356  0.7356  0.5337  0.2435
34926SOL    HW110614   1.995   1.736   3.423  0.4923  0.2550 -0.0705
34926SOL    HW210615   2.103   1.672   3.339 -0.7879  0.0498 -1.6117
34927SOL     OW10616   1.945   1.128   4.480  0.1297 -0.0054 -0.6338
34927SOL    HW110617   1.915   1.054   4.532 -0.0578  0.0119 -0.7160
34927SOL    HW210618   1.920   1.106   4.390 -1.5035  0.9429 -0.4454
34928SOL     OW10619   0.109   8.697   5.391 -0.1093  0.3659  0.4342
34928SOL    HW110620   0.098   8.626   5.454 -0.3440  1.4448  1.6569
34928SOL    HW210621   0.163   8.660   5.322 -1.5538 -1.4957  0.2079
34929SOL     OW10622   7.624   8.748   4.364  0.5728 -0.1998  0.0460
34929SOL    HW110623   7.625   8.679   4.298  1.2369 -1.3897  1.2581
34929SOL    HW210624   7.703   8.799   4.347  0.0695  0.3137 -0.8656
34930SOL     OW10625   5.905   9.441   3.518 -1.0380 -0.3150 -0.5665
34930SOL    HW110626   5.920   9.347   3.527 -0.8603 -0.2203  0.1566
34930SOL    HW210627   5.838   9.462   3.583  0.2575  0.3703  0.6256
34931SOL     OW10628  10.112   9.865   4.049 -0.4664  0.1996 -0.0143
34931SOL    HW110629  10.191   9.910   4.019 -1.0261  1.5760  0.5043
34931SOL    HW210630  10.091   9.907   4.133 -2.4927  0.8108 -0.7680
34932SOL     OW10631   4.866   7.895   6.842  0.7361  0.1187 -0.0689
34932SOL    HW110632   4.867   7.892   6.937  0.6939  0.6057 -0.0514
34932SOL    HW210633   4.939   7.838   6.816  0.9650  0.2563  0.2619
34933SOL     OW10634   1.363   8.477   3.656  0.1835  0.0356 -0.7354
34933SOL    HW110635   1.379   8.548   3.595 -0.2681  1.3162  0.5717
34933SOL    HW210636   1.270   8.455   3.644 -0.1228  0.8581  0.0441
34934SOL     OW10637   3.443   1.584   4.478  0.1099 -0.4504  0.2868
34934SOL    HW110638   3.376   1.607   4.543  1.4118  1.7479  0.9580
34934SOL    HW210639   3.409   1.615   4.395  0.5993  1.4266  0.7548
34935SOL     OW10640   1.807   3.900   2.711  0.0601  0.3323 -0.0176
34935SOL    HW110641   1.779   3.971   2.768 -0.7621  0.9079 -1.0875
34935SOL    HW210642   1.770   3.821   2.750 -0.1465  0.6625  0.4596
34936SOL     OW10643   6.527   3.184   2.163  0.1831 -0.3467  0.0367
34936SOL    HW110644   6.473   3.143   2.095 -0.5677  1.1071 -0.2867
34936SOL    HW210645   6.530   3.119   2.234  1.0857 -1.9546 -1.3913
34937SOL     OW10646   4.118   6.231   1.954  0.0784 -0.0247  0.0884
34937SOL    HW110647   4.055   6.292   1.994  0.8693  1.7943 -1.2568
34937SOL    HW210648   4.203   6.275   1.964  0.8593 -1.4489  0.0028
34938SOL     OW10649   3.778   8.307   6.394  0.0900 -0.2953  0.2365
34938SOL    HW110650   3.855   8.354   6.425  0.0693 -0.7927  1.0520
34938SOL    HW210651   3.773   8.229   6.448 -0.2132 -0.9565 -0.7142
34939SOL     OW10652   3.825   4.686   5.972  0.1204  0.5688 -0.6523
34939SOL    HW110653   3.815   4.697   5.877 -0.5569  1.6186 -0.4782
34939SOL    HW210654   3.738   4.657   6.002 -0.1549  1.7903 -0.1719
34940SOL     OW10655   4.942   1.076   8.469  0.0099 -0.0059  0.2643
34940SOL    HW110656   4.871   1.133   8.437 -0.8338  0.1853  2.3204
34940SOL    HW210657   4.921   0.990   8.435  0.6084  0.6049 -1.8333
34941SOL     OW10658   4.329   1.753   5.976 -0.1992  0.2797 -0.3559
34941SOL    HW110659   4.283   1.674   6.004  2.1419 -0.9605  0.2760
34941SOL    HW210660   4.319   1.814   6.049  0.5421 -0.5993  0.5056
34942SOL     OW10661   2.745   4.312  10.305  0.0446  0.1828  0.3620
34942SOL    HW110662   2.815   4.246  10.302 -1.6455 -1.6776 -0.4009
34942SOL    HW210663   2.786   4.392  10.270  1.9687 -0.6317  0.6458
34943SOL     OW10664   9.397   1.772  10.759  0.2185  0.6840  0.5603
34943SOL    HW110665   9.332   1.839  10.739  0.0612  0.3086 -0.2032
34943SOL    HW210666   9.369   1.735  10.843 -0.9954 -0.0095 -0.1355
34944SOL     OW10667   5.069   1.056   3.250  0.0906  0.2747 -0.4584
34944SOL    HW110668   5.071   1.102   3.167  0.4127  1.1528  0.0197
34944SOL    HW210669   4.992   1.091   3.295  0.2015  0.1770 -0.1879
34945SOL     OW10670   0.876  10.041   4.976 -0.0366  0.3101 -0.0576
34945SOL    HW110671   0.824   9.977   4.928  0.0773 -0.0374  0.2708
34945SOL    HW210672   0.959   9.996   4.995 -0.7765 -0.2872  2.1147
34946SOL     OW10673   4.432  10.130   8.700 -0.5670  0.2003 -0.0339
34946SOL    HW110674   4.416  10.070   8.772 -3.8300 -1.3530 -1.8351
34946SOL    HW210675   4.499  10.087   8.647 -1.7546 -1.1682 -0.4861
34947SOL     OW10676   7.392   3.682   1.831 -0.3239 -0.9413 -0.4965
34947SOL    HW110677   7.457   3.618   1.803  0.2909 -1.5533  1.9998
34947SOL    HW210678   7.427   3.718   1.913 -1.4614  1.3818 -0.9351
34948SOL     OW10679   5.516  10.748   9.914  0.4055  0.2786 -0.2680
34948SOL    HW110680   5.495  10.683   9.980  1.2882  1.2479  1.0032
34948SOL    HW210681   5.577  10.704   9.854 -0.7523 -0.7429 -0.7328
34949SOL     OW10682   1.939   4.124  10.284  0.0415  0.1281  0.4018
34949SOL    HW110683   1.900   4.197  10.333  0.0389  1.3295 -1.2941
34949SOL    HW210684   1.950   4.055  10.349 -0.2256  1.5289  2.0262
34950SOL     OW10685   7.057   3.998   2.934 -0.6941 -0.0870 -0.2376
34950SOL    HW110686   7.146   3.978   2.905 -1.1928 -2.6573 -0.2769
34950SOL    HW210687   7.067   4.035   3.021  0.4170 -1.7253  0.3882
34951SOL     OW10688   1.809   9.082   0.618  0.1146 -0.1183  0.2054
34951SOL    HW110689   1.900   9.111   0.624  1.2288 -3.2459  0.3513
34951SOL    HW210690   1.808   9.023   0.543 -1.8804  0.0907  0.0259
34952SOL     OW10691   6.621   1.632   6.281  0.6713 -0.1755  0.5142
34952SOL    HW110692   6.692   1.592   6.231  0.6744  1.4434 -0.8620
34952SOL    HW210693   6.661   1.652   6.366  1.5245 -0.3640  0.1737
34953SOL     OW10694   1.369   9.122   4.951 -0.3722 -0.5277  0.1216
34953SOL    HW110695   1.370   9.026   4.949  0.3383 -0.5161 -0.6477
34953SOL    HW210696   1.461   9.147   4.949 -0.5274  0.1756  0.9783
34954SOL     OW10697   0.549   6.776   8.285  0.7481 -0.2484 -0.0235
34954SOL    HW110698   0.596   6.736   8.212 -3.5263 -0.0762 -3.2566
34954SOL    HW210699   0.576   6.868   8.283  1.6358 -0.5040 -0.4632
34955SOL     OW10700   6.830   9.816   5.740 -0.1263  0.6605 -0.1216
34955SOL    HW110701   6.777   9.894   5.755 -0.3964  0.1406  1.9422
34955SOL    HW210702   6.776   9.744   5.772  0.3607 -0.3287 -1.4349
34956SOL     OW10703   2.315   7.168   7.667  0.2779  0.1194 -0.4532
34956SOL    HW110704   2.319   7.194   7.759  0.6972 -2.3292  0.2972
34956SOL    HW210705   2.228   7.132   7.656 -0.3576  1.8318 -1.5184
34957SOL     OW10706  10.005   5.888   4.989 -0.3267 -0.0612 -0.0273
34957SOL    HW110707   9.939   5.850   5.047  0.4231 -0.9649  0.2558
34957SOL    HW210708   9.973   5.977   4.972  0.6374  1.1580  3.7378
34958SOL     OW10709   2.422   8.385   9.989  0.1320  0.3519  0.2103
34958SOL    HW110710   2.358   8.397  10.059  0.0350  0.0739  0.1679
34958SOL    HW210711   2.382   8.428   9.913 -0.1450 -0.0865  0.1024
34959SOL     OW10712   4.234   7.288   0.459  0.2098  0.0703  0.1345
34959SOL    HW110713   4.314   7.265   0.506 -0.4492 -1.9250  0.3711
34959SOL    HW210714   4.233   7.384   0.458  2.6876  0.1567 -0.0487
34960SOL     OW10715   8.110   1.303   4.884  0.1781  0.5895 -0.0184
34960SOL    HW110716   8.189   1.323   4.935  0.2004 -0.7880  0.5293
34960SOL    HW210717   8.040   1.299   4.948  0.1959 -1.0989 -0.0405
34961SOL     OW10718   4.063   0.020   3.192 -0.3279 -0.0375  0.0008
34961SOL    HW110719   4.010  -0.040   3.246 -1.6338  0.2123 -0.9652
34961SOL    HW210720   4.000   0.062   3.134  0.7883  1.1600 -0.3863
34962SOL     OW10721   1.772   6.397   9.119 -0.4875  0.0630 -0.1748
34962SOL    HW110722   1.745   6.435   9.203 -1.4462  2.0618 -1.3178
34962SOL    HW210723   1.766   6.302   9.133  0.3176  0.2961  2.2812
34963SOL     OW10724   8.742   5.352   0.044 -0.3367 -0.4137  0.0073
34963SOL    HW110725   8.784   5.418   0.099 -0.2562  0.4440 -1.0544
34963SOL    HW210726   8.809   5.329  -0.020 -0.4882 -1.2675  0.1448
34964SOL     OW10727   5.716   5.960   4.544  1.0359  0.1403 -0.0954
34964SOL    HW110728   5.733   6.036   4.489 -0.7199 -0.8163 -2.1388
34964SOL    HW210729   5.627   5.972   4.575  0.8951 -0.8456 -0.0808
34965SOL     OW10730   8.959   6.155   0.034  0.1310 -0.0309 -0.0025
34965SOL    HW110731   8.885   6.211   0.009 -0.7693  0.1127  2.7056
34965SOL    HW210732   8.968   6.094  -0.039 -0.9247  1.5968 -1.6024
34966SOL     OW10733   3.753   8.460   9.134 -0.2380 -0.4247 -0.1163
34966SOL    HW110734   3.815   8.417   9.194 -0.7476  0.3642  1.0104
34966SOL    HW210735   3.672   8.465   9.184 -0.2291  1.7567 -0.2293
34967SOL     OW10736  10.890   5.106   4.967 -0.2840  0.4405 -0.1953
34967SOL    HW110737  10.932   5.190   4.987 -0.4158 -0.1019  2.7741
34967SOL    HW210738  10.840   5.123   4.888  0.7996  2.7577 -0.4719
34968SOL     OW10739   4.108   6.357   5.059 -0.3377 -0.3629  0.1150
34968SOL    HW110740   4.069   6.313   4.984 -2.0911  0.5472  0.4617
34968SOL    HW210741   4.039   6.359   5.125  0.1696  1.5676  0.6576
34969SOL     OW10742   0.288   5.728   2.848  0.0927  0.0909  0.1703
34969SOL    HW110743   0.289   5.819   2.877  0.3300  0.1898 -0.1302
34969SOL    HW210744   0.332   5.680   2.918 -0.0638  0.2036  0.3453
34970SOL     OW10745   0.284   3.856   3.641  0.0989 -0.5752 -0.5259
34970SOL    HW110746   0.336   3.846   3.720  0.1973 -1.8083 -0.7260
34970SOL    HW210747   0.326   3.927   3.593  2.6468 -2.5409 -1.4331
34971SOL     OW10748   0.345   6.029   6.140  0.0739 -0.1706 -0.1460
34971SOL    HW110749   0.394   6.014   6.221  0.9424 -3.1908 -1.1014
34971SOL    HW210750   0.254   6.041   6.169  0.1122 -2.6331  1.2768
34972SOL     OW10751   0.800   2.643   0.124  0.4534  0.3120  0.2767
34972SOL    HW110752   0.760   2.728   0.104 -0.4813 -0.4311 -1.1995
34972SOL    HW210753   0.729   2.592   0.163  0.1302 -0.7447 -1.5917
34973SOL     OW10754   6.380   9.712   0.265 -0.8047  0.7952 -0.0000
34973SOL    HW110755   6.367   9.769   0.341 -0.6253 -0.0477  0.6901
34973SOL    HW210756   6.293   9.677   0.247 -0.5241 -0.6080  1.1564
34974SOL     OW10757   9.271   4.426   6.623  0.1740 -0.2984 -0.0419
34974SOL    HW110758   9.295   4.377   6.545 -0.0609  1.2304 -1.1128
34974SOL    HW210759   9.268   4.517   6.594 -0.0196  0.2926  1.7305
34975SOL     OW10760   0.913   6.824   3.243  0.1733 -0.0215  0.4358
34975SOL    HW110761   0.884   6.914   3.255  1.1798  0.1693  1.5487
34975SOL    HW210762   0.858   6.791   3.172 -0.1175  1.4979 -0.0810
34976SOL     OW10763   0.906   0.778   3.634  0.5288 -0.1638 -0.9009
34976SOL    HW110764   0.911   0.715   3.706  1.2520  1.3510  0.4217
34976SOL    HW210765   0.992   0.773   3.592  0.5807 -0.0607 -0.8061
34977SOL     OW10766   5.374   2.773   4.870  0.6639 -0.1355  0.1530
34977SOL    HW110767   5.363   2.857   4.826 -2.0625 -0.5145 -0.0540
34977SOL    HW210768   5.345   2.708   4.806  0.1880 -1.0049  1.2214
34978SOL     OW10769   7.725   3.398   3.251 -1.4778 -0.2976  0.4440
34978SOL    HW110770   7.788   3.394   3.178  0.6504  0.5841  2.1235
34978SOL    HW210771   7.678   3.315   3.245  0.4953 -1.4458 -0.3844
34979SOL     OW10772   4.418   7.018   5.047  0.2519  0.4635  0.2526
34979SOL    HW110773   4.423   7.098   5.098 -2.0363  0.5870  0.3807
34979SOL    HW210774   4.325   7.009   5.025  0.2627 -2.6262  1.0250
34980SOL     OW10775   6.963   2.408  10.111  0.3208  0.4637  0.1223
34980SOL    HW110776   6.980   2.327  10.063 -1.4119 -0.2261  0.5924
34980SOL    HW210777   7.032   2.413  10.177  1.7110  0.5281 -1.2649
34981SOL     OW10778   1.088   3.892   1.073  0.1986 -0.2789 -0.3400
34981SOL    HW110779   1.025   3.822   1.091  2.1050 -1.7877  0.9669
34981SOL    HW210780   1.135   3.863   0.995  0.8579 -0.4095  0.0896
34982SOL     OW10781   8.786   4.350   9.659  0.1234  0.2794 -0.1979
34982SOL    HW110782   8.785   4.445   9.650  0.9082  0.1934 -1.5882
34982SOL    HW210783   8.879   4.328   9.669  0.1414 -0.4477 -1.6791
34983SOL     OW10784   9.319   7.901   3.728  0.0579  0.0927  0.0256
34983SOL    HW110785   9.225   7.898   3.711 -0.0398 -0.2040  0.5901
34983SOL    HW210786   9.346   7.989   3.700  0.1022 -0.6715 -2.5611
34984SOL     OW10787   0.729   3.162   6.561 -0.4439  0.5093 -1.2387
34984SOL    HW110788   0.750   3.094   6.497  0.1282  0.2885 -0.8267
34984SOL    HW210789   0.806   3.219   6.562 -0.0555 -0.0115 -0.0904
34985SOL     OW10790   3.939   5.123   2.700  0.3827  0.3041 -0.4654
34985SOL    HW110791   3.959   5.217   2.694  1.7191  0.1400  0.6536
34985SOL    HW210792   3.922   5.109   2.793  1.5028 -0.7816 -0.3985
34986SOL     OW10793   7.301   9.583   7.339  1.1108  0.2562 -0.2702
34986SOL    HW110794   7.274   9.493   7.355  0.5488  0.5299  0.3916
34986SOL    HW210795   7.300   9.592   7.244 -0.3105 -0.0161 -0.3066
34987SOL     OW10796   2.367   7.807   4.721  0.1433  0.3381 -0.0286
34987SOL    HW110797   2.320   7.889   4.738 -0.0105  0.4034 -0.7150
34987SOL    HW210798   2.332   7.745   4.785 -1.1505  0.2825 -0.7494
34988SOL     OW10799   7.830   6.706   7.764  0.3356  0.2220  0.6675
34988SOL    HW110800   7.864   6.725   7.851  0.3936  1.9876  0.2978
34988SOL    HW210801   7.810   6.792   7.726 -2.0055 -0.5971 -0.1491
34989SOL     OW10802   6.929  10.509   5.691 -0.4401 -0.1021 -0.0098
34989SOL    HW110803   6.982  10.487   5.614 -1.2868 -0.6703 -0.4428
34989SOL    HW210804   6.993  10.540   5.755  0.6151 -2.1405  0.0144
34990SOL     OW10805   6.411   1.001   5.007 -0.1961 -0.3964  0.3884
34990SOL    HW110806   6.469   0.982   4.933 -1.4113  0.4089 -0.8266
34990SOL    HW210807   6.335   0.945   4.993  0.0890 -1.1745  1.7683
34991SOL     OW10808   3.796   1.152   3.334 -0.2462 -0.5434 -0.6143
34991SOL    HW110809   3.861   1.208   3.291 -0.4498  0.9394  0.8734
34991SOL    HW210810   3.713   1.198   3.323 -0.3454 -0.2592  1.0384
34992SOL     OW10811   2.130   4.159   1.522 -0.3016  0.1538 -0.2600
34992SOL    HW110812   2.167   4.219   1.587 -1.1345  0.6050 -0.1877
34992SOL    HW210813   2.168   4.074   1.542  1.5813  0.8070 -0.8866
34993SOL     OW10814   9.195  10.736   0.039 -0.3235 -0.3729  0.1900
34993SOL    HW110815   9.152  10.820   0.053 -1.3142 -1.0246  1.2155
34993SOL    HW210816   9.227  10.711   0.126  0.2526 -0.9147 -0.1658
34994SOL     OW10817   7.301   4.108  10.353 -0.2624  0.0219 -0.1781
34994SOL    HW110818   7.359   4.059  10.412 -1.6490  0.2075  1.3804
34994SOL    HW210819   7.221   4.056  10.350 -1.3156  1.5404  0.5379
34995SOL     OW10820   3.937   2.689  10.738  0.1007  0.3810 -0.4814
34995SOL    HW110821   3.917   2.612  10.791  1.7067 -0.9896 -1.7877
34995SOL    HW210822   3.900   2.669  10.652  0.1669  1.2678 -0.7260
34996SOL     OW10823   0.478   5.990   2.298  0.1105  0.1857 -0.5247
34996SOL    HW110824   0.551   6.035   2.342  0.7671 -1.0171 -0.3413
34996SOL    HW210825   0.423   6.061   2.264  0.2223  1.1507  1.1841
34997SOL     OW10826   2.924   1.291   9.984 -0.5975  0.1450  0.7160
34997SOL    HW110827   2.878   1.212  10.013 -0.8858  0.5026  1.2466
34997SOL    HW210828   2.992   1.304  10.051 -0.3570  0.1795  0.4666
34998SOL     OW10829   2.983   9.606   8.183  0.1349  0.3599  0.2759
34998SOL    HW110830   2.912   9.571   8.130  0.3768  0.6722 -0.2659
34998SOL    HW210831   3.044   9.533   8.193  0.1860  0.3552 -0.0525
34999SOL     OW10832   7.902   5.059   7.029 -0.1857  0.2722  0.2752
34999SOL    HW110833   7.919   4.977   6.984 -0.8182 -0.0497  0.6086
34999SOL    HW210834   7.809   5.056   7.052  0.0081  0.6310  1.1766
35000SOL     OW10835   6.787   1.823   3.309  0.2292  0.3456  0.2862
35000SOL    HW110836   6.871   1.856   3.277  1.4268 -2.8623 -0.3190
35000SOL    HW210837   6.786   1.846   3.402  0.5602  2.6149 -0.2306
35001SOL     OW10838   7.157   0.845  10.771  0.4222 -0.1065  0.1978
35001SOL    HW110839   7.095   0.776  10.796 -0.0264  0.5039  0.7792
35001SOL    HW210840   7.242   0.810  10.797  0.3624 -1.0342 -0.7817
35002SOL     OW10841   9.505   1.328   1.813  0.2128 -0.4564 -0.4140
35002SOL    HW110842   9.561   1.252   1.799 -0.0121 -0.3654 -2.0365
35002SOL    HW210843   9.438   1.297   1.874 -0.5864 -1.9682 -1.9802
35003SOL     OW10844   7.075   9.659   9.831  0.2607  0.1857  0.1715
35003SOL    HW110845   7.141   9.634   9.896  1.8001  0.8544 -1.0638
35003SOL    HW210846   7.014   9.715   9.879  0.9213  0.0393  1.2188
35004SOL     OW10847   1.284   2.129  10.419 -1.0337 -0.3502  0.0046
35004SOL    HW110848   1.197   2.170  10.421 -0.6597  0.4668  0.9634
35004SOL    HW210849   1.311   2.128  10.511  0.5877  0.7950 -0.4115
35005SOL     OW10850   4.600   8.811   3.069 -0.0728 -0.6051 -0.5384
35005SOL    HW110851   4.667   8.863   3.023 -0.8757  2.1573  1.1839
35005SOL    HW210852   4.565   8.870   3.136 -3.1150 -2.4690 -0.2812
35006SOL     OW10853   1.553   0.196   3.636 -0.6002 -0.2804  0.0951
35006SOL    HW110854   1.526   0.283   3.606  1.4021 -0.3085 -2.0781
35006SOL    HW210855   1.635   0.212   3.684  0.5109 -1.0078 -1.4591
35007SOL     OW10856   7.084   5.310   8.662 -0.0770  0.1928 -0.0613
35007SOL    HW110857   7.159   5.294   8.605  1.3760  0.4294  1.7022
35007SOL    HW210858   7.109   5.270   8.746 -2.0906 -0.0417  0.4727
35008SOL     OW10859   3.991   4.088   2.956 -0.0527  0.0244  0.7641
35008SOL    HW110860   3.969   4.050   3.041 -0.6900  1.5525  1.3233
35008SOL    HW210861   4.030   4.173   2.977  1.2387 -0.2387 -0.4369
35009SOL     OW10862   1.128   4.141   8.680 -0.1070  0.1545  0.6634
35009SOL    HW110863   1.066   4.121   8.750 -0.9322  1.1190  0.2296
35009SOL    HW210864   1.183   4.211   8.715 -0.4270  0.5373  0.4105
35010SOL     OW10865   9.802   0.855   9.194  0.1833  0.3373 -0.2026
35010SOL    HW110866   9.743   0.781   9.176 -0.6876  1.0099 -0.1766
35010SOL    HW210867   9.794   0.869   9.288  1.0218 -0.0829 -0.0594
35011SOL     OW10868   3.439   7.615   8.551 -0.0394  0.1968  0.1790
35011SOL    HW110869   3.407   7.525   8.557 -1.7866  0.6091 -1.5722
35011SOL    HW210870   3.527   7.607   8.515 -0.3195 -0.8259 -0.3249
35012SOL     OW10871   9.514   0.075   6.330 -0.1567  0.0718 -0.4205
35012SOL    HW110872   9.441   0.128   6.297 -0.0953  0.0988 -0.5151
35012SOL    HW210873   9.484  -0.016   6.320  0.4685  0.0036 -2.0474
35013SOL     OW10874   8.647   0.609   6.669 -0.4566  0.1894  0.3001
35013SOL    HW110875   8.731   0.571   6.644 -0.5365  0.6341 -0.6826
35013SOL    HW210876   8.595   0.534   6.699  1.1455  0.1803  3.6331
35014SOL     OW10877   2.392   3.025   4.715 -0.0687  0.0637 -0.7098
35014SOL    HW110878   2.402   3.060   4.803  2.9638  0.0374 -0.9449
35014SOL    HW210879   2.390   3.103   4.658 -2.5486  0.1070 -0.6591
35015SOL     OW10880   9.786   3.717   8.083 -0.3284  0.2901  0.1055
35015SOL    HW110881   9.816   3.632   8.113  1.2739  0.9031  0.3662
35015SOL    HW210882   9.690   3.711   8.082 -0.2655 -1.1980  0.9864
35016SOL     OW10883   7.109   3.654   1.837  0.2851  0.0190  0.6320
35016SOL    HW110884   7.202   3.679   1.835  0.6738 -1.2172  1.7263
35016SOL    HW210885   7.097   3.600   1.759  0.2488  0.8683  0.0302
35017SOL     OW10886   2.095   8.958   3.126 -0.2650 -0.1350 -0.2169
35017SOL    HW110887   2.079   9.049   3.151 -1.4064 -0.6349  0.9594
35017SOL    HW210888   2.013   8.913   3.143  0.9408 -1.8759  1.4743
35018SOL     OW10889   4.824   9.108   1.574  1.0070  0.0199 -0.1152
35018SOL    HW110890   4.794   9.067   1.655  0.8067 -1.6996 -1.0288
35018SOL    HW210891   4.749   9.157   1.542  1.0233  0.5397  0.6057
35019SOL     OW10892   9.974   2.756   5.414  0.0137 -0.0844  0.1494
35019SOL    HW110893   9.973   2.809   5.494 -0.5857 -1.1623  0.8733
35019SOL    HW210894   9.909   2.797   5.356 -0.2477  0.1293  0.5940
35020SOL     OW10895   1.104   6.438   5.316  0.0413  0.1386 -0.2307
35020SOL    HW110896   1.135   6.388   5.240  0.7900  1.8882 -1.1304
35020SOL    HW210897   1.074   6.371   5.378  0.2878 -1.3809 -1.6751
35021SOL     OW10898   0.815   3.579   0.426  0.0062 -0.2307 -0.4971
35021SOL    HW110899   0.857   3.493   0.426  3.1819  1.1752 -1.1219
35021SOL    HW210900   0.823   3.609   0.517  2.2797  0.8189 -0.9882
35022SOL     OW10901   4.596   3.236   6.250  0.4384  0.0685 -0.4190
35022SOL    HW110902   4.621   3.156   6.206 -0.0252 -0.9484  1.0827
35022SOL    HW210903   4.602   3.216   6.343 -0.0420  1.6635 -0.0004
35023SOL     OW10904   9.314  10.358   9.113  0.1304  0.8870 -0.3114
35023SOL    HW110905   9.393  10.343   9.060 -0.5708  0.1509 -1.1818
35023SOL    HW210906   9.252  10.291   9.083 -0.6975  1.2052  0.6344
35024SOL     OW10907   9.822   0.919   7.803  0.0350 -0.4709  0.0282
35024SOL    HW110908   9.870   0.907   7.721 -1.8412  1.7542 -1.5339
35024SOL    HW210909   9.851   1.005   7.835 -0.6172 -0.4841  0.6786
35025SOL     OW10910   3.505   8.440   4.858  0.0147 -0.1006 -0.5009
35025SOL    HW110911   3.508   8.352   4.894 -0.8159 -0.5139 -1.3819
35025SOL    HW210912   3.542   8.496   4.927 -0.5850 -0.9765  0.5645
35026SOL     OW10913  10.456   5.122   1.302  0.1306 -0.2946 -0.0115
35026SOL    HW110914  10.524   5.080   1.354 -0.2515 -0.5289  0.3096
35026SOL    HW210915  10.498   5.141   1.218 -0.0569 -2.5742 -0.6931
35027SOL     OW10916   4.112   2.448   6.707  0.2049  0.3785  0.1237
35027SOL    HW110917   4.078   2.420   6.792  2.0752  3.0816  1.9246
35027SOL    HW210918   4.166   2.525   6.726  2.0818  0.1432 -3.3212
35028SOL     OW10919   0.111   3.917  10.720 -0.2007 -0.2765 -0.1290
35028SOL    HW110920   0.163   3.925  10.799  0.6469  0.2165 -0.7267
35028SOL    HW210921   0.152   3.846  10.671  1.2910  1.5399 -1.6150
35029SOL     OW10922   5.762   9.135   2.224 -0.1123  0.1181  0.2530
35029SOL    HW110923   5.835   9.112   2.166 -0.7970 -0.0459 -0.5493
35029SOL    HW210924   5.688   9.083   2.193 -0.5666  0.2235  1.1081
35030SOL     OW10925   5.560   7.132   4.560  0.2567 -0.5937  0.7520
35030SOL    HW110926   5.551   7.227   4.561 -0.6210 -0.4072 -3.5802
35030SOL    HW210927   5.476   7.099   4.592 -1.8315  0.4187 -2.9912
35031SOL     OW10928   3.977   1.653   2.800 -0.5052 -0.1944 -0.2117
35031SOL    HW110929   3.970   1.564   2.836  0.8086 -0.4673 -0.6012
35031SOL    HW210930   4.006   1.641   2.710  0.0666  0.6436 -0.1511
35032SOL     OW10931   6.673   6.624   7.279  0.4875 -0.4811 -0.1280
35032SOL    HW110932   6.681   6.535   7.247 -1.8562 -1.4075  1.5280
35032SOL    HW210933   6.648   6.614   7.371 -1.1498  1.8021 -0.2239
35033SOL     OW10934   1.770   0.659   9.971  0.3165 -0.3102  0.4042
35033SOL    HW110935   1.687   0.650  10.017  0.5578 -2.1337  0.5519
35033SOL    HW210936   1.830   0.693  10.038 -0.4992  2.0069  0.0294
35034SOL     OW10937   2.480   1.825   6.576  0.1521 -0.5012  0.1707
35034SOL    HW110938   2.467   1.911   6.615  0.7665 -1.2410  2.1176
35034SOL    HW210939   2.407   1.772   6.609 -0.7452 -0.5450 -1.7391
35035SOL     OW10940   3.812   2.720   3.781 -0.1598  0.5418 -0.5228
35035SOL    HW110941   3.834   2.640   3.829 -1.9800 -0.0516 -0.6038
35035SOL    HW210942   3.833   2.699   3.690 -1.0033 -0.0206 -0.6025
35036SOL     OW10943   7.898   0.427  10.506 -0.1145  0.4226  0.6978
35036SOL    HW110944   7.969   0.364  10.511  1.0900  1.7699  1.2644
35036SOL    HW210945   7.917   0.479  10.428 -1.7741 -0.6476 -0.4898
35037SOL     OW10946   1.023   3.516   9.406 -0.3557  0.0705 -0.3691
35037SOL    HW110947   0.985   3.428   9.414  0.6748 -0.4670 -1.2169
35037SOL    HW210948   1.017   3.552   9.495 -2.6422 -0.0513 -0.4181
35038SOL     OW10949   0.596   7.054   5.782 -0.2832 -0.0874  0.4402
35038SOL    HW110950   0.601   6.974   5.834 -0.0114 -1.7746 -2.0111
35038SOL    HW210951   0.573   7.122   5.845  0.5927 -1.8563  2.8259
35039SOL     OW10952   2.441   3.333   9.246  1.2007  0.2426  0.2875
35039SOL    HW110953   2.370   3.364   9.303  1.5324  4.2426 -1.1578
35039SOL    HW210954   2.397   3.292   9.172  0.7475 -3.9465  2.5879
35040SOL     OW10955   1.313   1.692   2.998 -0.1695 -0.3913 -0.3588
35040SOL    HW110956   1.238   1.732   2.954  0.0989 -0.7042 -1.1265
35040SOL    HW210957   1.318   1.736   3.082 -0.1727  0.8671 -0.9895
35041SOL     OW10958   7.508   8.356   5.963  0.5648  0.7114  0.2744
35041SOL    HW110959   7.451   8.294   6.008  1.6406 -0.4243  0.1411
35041SOL    HW210960   7.596   8.320   5.974  1.2032  2.1000 -0.0218
35042SOL     OW10961   0.382   4.079   8.308  0.1192  0.2029 -0.0166
35042SOL    HW110962   0.306   4.052   8.257 -0.6653  1.0185  0.6933
35042SOL    HW210963   0.442   4.117   8.243  0.0079 -0.6054 -0.6005
35043SOL     OW10964   4.427   0.843  10.918  1.2287  0.2839 -0.8107
35043SOL    HW110965   4.366   0.801  10.858  0.8780 -1.8038  0.8544
35043SOL    HW210966   4.513   0.810  10.891  0.9452 -1.7421  0.5480
35044SOL     OW10967   4.548   3.672   5.750  0.3301  0.5522  0.2185
35044SOL    HW110968   4.516   3.657   5.661 -0.2169  0.7852  0.3688
35044SOL    HW210969   4.579   3.763   5.750  0.1707  0.6090  0.3031
35045SOL     OW10970   2.006   9.940   6.081 -0.0345 -0.0976 -0.1532
35045SOL    HW110971   1.953  10.018   6.098  0.3480 -0.0511  0.8679
35045SOL    HW210972   2.063   9.965   6.009  1.3209  1.1890  1.2991
35046SOL     OW10973   7.190   0.190   9.161 -0.4211  0.1756 -1.3466
35046SOL    HW110974   7.187   0.110   9.109  0.8570 -1.0769  0.3783
35046SOL    HW210975   7.116   0.183   9.221  1.1175 -1.0372  0.5182
35047SOL     OW10976   4.233   9.701   6.048  0.1340  0.0900  0.0469
35047SOL    HW110977   4.206   9.629   6.105  0.3441  0.5965  0.7927
35047SOL    HW210978   4.172   9.696   5.974 -1.1070  0.3409  1.0190
35048SOL     OW10979   6.503   1.784   6.082  0.3510 -0.0439 -0.0112
35048SOL    HW110980   6.553   1.763   6.161 -0.2098  0.6797  0.5441
35048SOL    HW210981   6.424   1.827   6.114 -0.0488 -0.0572 -0.9498
35049SOL     OW10982   4.725   6.059   7.452 -0.0872  0.0808  0.3869
35049SOL    HW110983   4.733   5.964   7.447  0.0989  0.0447  1.2416
35049SOL    HW210984   4.653   6.080   7.391 -0.1649 -0.6065  0.2348
35050SOL     OW10985   6.139   0.177   4.420 -0.0456 -0.0451  0.4704
35050SOL    HW110986   6.191   0.185   4.499 -0.2178  2.6340  0.4324
35050SOL    HW210987   6.048   0.169   4.451  0.0628 -1.0799  0.5319
35051SOL     OW10988   9.135  10.515   5.240  0.0757 -0.6635 -0.1491
35051SOL    HW110989   9.087  10.520   5.157 -0.8794  0.6305  0.4654
35051SOL    HW210990   9.195  10.589   5.237 -1.0096  0.2794  0.9480
35052SOL     OW10991   8.241   2.743   7.575 -0.1802  0.4170 -0.7096
35052SOL    HW110992   8.153   2.770   7.550 -0.0585  2.1415  0.5283
35052SOL    HW210993   8.297   2.774   7.504 -0.5009 -0.2102 -1.2427
35053SOL     OW10994   7.394   1.059   8.888  0.1317  0.0211  0.1933
35053SOL    HW110995   7.328   1.093   8.950 -0.1882  1.2472 -0.7928
35053SOL    HW210996   7.448   1.135   8.867  0.9333 -0.6477 -0.1718
35054SOL     OW10997  10.210   3.543   8.399 -0.0237 -0.0168  0.2208
35054SOL    HW110998  10.174   3.631   8.400 -0.9733 -0.4020  1.2423
35054SOL    HW210999  10.244   3.530   8.487 -0.2961 -0.8335  0.2122
35055SOL     OW11000   1.551   8.312   0.364  0.3427  0.3460 -0.3842
35055SOL    HW111001   1.587   8.234   0.407  2.2847  1.4456  0.1066
35055SOL    HW211002   1.595   8.385   0.406 -1.3741  1.7337 -0.8983
35056SOL     OW11003  10.621   9.051   8.433  0.9756  0.6691  0.2745
35056SOL    HW111004  10.538   9.084   8.466 -1.8470 -1.1782 -4.0879
35056SOL    HW211005  10.627   8.962   8.467  0.6289  0.4737 -0.1637
35057SOL     OW11006   2.629   5.771   2.895  0.0463 -0.2299 -0.3152
35057SOL    HW111007   2.717   5.809   2.897 -0.7994  1.8710  0.2923
35057SOL    HW211008   2.582   5.821   2.828 -1.0221 -0.4322  0.2467
35058SOL     OW11009   6.509   7.243   9.229 -0.1570  0.3105  0.6490
35058SOL    HW111010   6.486   7.323   9.181  2.4081  0.7967  0.0934
35058SOL    HW211011   6.484   7.261   9.319  0.9585  2.0665  0.6640
35059SOL     OW11012   4.340  10.297   1.314 -0.3130 -0.4039  0.3549
35059SOL    HW111013   4.266  10.309   1.255  0.0257 -3.3628 -0.8131
35059SOL    HW211014   4.305  10.248   1.388  0.3150 -1.2713  0.0935
35060SOL     OW11015   4.300   2.262   0.765  0.0338 -0.2160 -0.3244
35060SOL    HW111016   4.223   2.222   0.725 -0.1709  0.8104 -1.0069
35060SOL    HW211017   4.374   2.230   0.713  0.0468 -0.9997  0.1705
35061SOL     OW11018   1.631   3.965   2.490 -0.2841  0.2507 -0.7747
35061SOL    HW111019   1.677   3.906   2.550  0.5353  1.5753 -0.0433
35061SOL    HW211020   1.593   4.032   2.547  0.3913  1.4640 -1.6934
35062SOL     OW11021   4.453   8.096  10.096  0.1281  0.1631 -0.4627
35062SOL    HW111022   4.485   8.007  10.113  0.2627  0.4840  1.1184
35062SOL    HW211023   4.415   8.124  10.179  0.6673  1.8274 -0.7397
35063SOL     OW11024   3.660   1.703   0.377  0.6372  0.6107  0.3318
35063SOL    HW111025   3.654   1.676   0.285  0.4507  1.4795  0.0807
35063SOL    HW211026   3.752   1.690   0.400  0.0380 -3.3296  1.2240
35064SOL     OW11027   8.705   3.435   2.901 -0.7262  0.2430  0.0962
35064SOL    HW111028   8.799   3.428   2.918 -0.5187  0.7422 -0.8052
35064SOL    HW211029   8.678   3.517   2.941 -1.0288 -0.4318  1.3500
35065SOL     OW11030   3.278   4.427   6.061 -0.4246 -0.3858 -0.2505
35065SOL    HW111031   3.240   4.476   6.133 -1.4774 -3.2724  1.3486
35065SOL    HW211032   3.370   4.454   6.059 -0.4502  0.0212  1.9899
35066SOL     OW11033   5.604   8.920   6.815 -0.2501  1.2835  0.1138
35066SOL    HW111034   5.554   8.873   6.881 -1.8528  0.3852 -1.6396
35066SOL    HW211035   5.671   8.967   6.864 -0.4482 -0.4986  2.2051
35067SOL     OW11036   7.572   5.338   4.768  0.8119 -0.4027  0.1484
35067SOL    HW111037   7.522   5.305   4.843 -0.9949 -0.7867 -1.1527
35067SOL    HW211038   7.604   5.423   4.797 -1.9860  0.6315  0.5859
35068SOL     OW11039  10.277   8.079   8.801 -0.1653 -0.1686 -0.2464
35068SOL    HW111040  10.186   8.104   8.784 -0.6080 -1.5860 -0.1353
35068SOL    HW211041  10.305   8.032   8.722 -0.1001 -1.1673  0.3415
35069SOL     OW11042   5.493   4.711   5.951 -0.1566  0.3994  0.1298
35069SOL    HW111043   5.461   4.756   5.873 -0.4241  2.3528  1.3053
35069SOL    HW211044   5.478   4.773   6.022  0.9731 -0.9368  1.5971
35070SOL     OW11045   3.383   9.982   9.233 -0.0043  0.4199 -0.2167
35070SOL    HW111046   3.440  10.057   9.250 -0.9299  1.0584  0.1535
35070SOL    HW211047   3.345  10.000   9.147 -0.8087  0.7581  0.2047
35071SOL     OW11048   4.968   5.136   0.145  0.0143  0.1540  0.2839
35071SOL    HW111049   4.883   5.110   0.112  1.2048  1.1173 -4.2847
35071SOL    HW211050   4.956   5.226   0.176 -0.7973 -0.0845  0.6751
35072SOL     OW11051   5.466   0.052   4.952  0.0568 -0.6688  0.4009
35072SOL    HW111052   5.533   0.019   4.892  0.0886 -1.3710  0.8041
35072SOL    HW211053   5.395   0.081   4.895  0.7884  0.3135 -0.0392
35073SOL     OW11054   6.532   1.462   8.532 -0.0132  0.2595  0.6998
35073SOL    HW111055   6.618   1.449   8.570  1.0679  1.3132 -1.2323
35073SOL    HW211056   6.512   1.379   8.488  0.6099  0.4169  0.0970
35074SOL     OW11057   0.023   8.670   5.904 -0.3980 -0.6159 -0.5046
35074SOL    HW111058  -0.016   8.621   5.832  0.3942 -0.4001 -1.1024
35074SOL    HW211059  -0.036   8.657   5.978 -0.1229 -2.6043 -0.5814
35075SOL     OW11060   7.941   0.111   8.501 -0.1817 -0.2663 -0.3968
35075SOL    HW111061   7.851   0.103   8.468 -0.7254 -2.0360  1.3041
35075SOL    HW211062   7.930   0.112   8.596  1.5271  1.2939 -0.1619
35076SOL     OW11063   7.652  10.286   6.841  0.6796 -0.4479 -0.3013
35076SOL    HW111064   7.616  10.300   6.928 -1.8818 -1.5740 -1.0748
35076SOL    HW211065   7.706  10.207   6.850  0.6943 -0.3720  0.3208
35077SOL     OW11066   6.835   6.199   9.348 -0.6155 -0.0305  0.2646
35077SOL    HW111067   6.784   6.137   9.296  0.8173 -0.3816 -0.7812
35077SOL    HW211068   6.918   6.207   9.301 -0.3237  1.7989  1.0200
35078SOL     OW11069   0.987   2.240   1.086  0.2003 -0.0257  0.0145
35078SOL    HW111070   0.926   2.238   1.159 -0.1730  1.1843 -0.2438
35078SOL    HW211071   1.024   2.329   1.087  0.1648  0.0351 -1.2603
35079SOL     OW11072   4.287   3.476   3.615 -0.8964  0.4464 -0.5023
35079SOL    HW111073   4.279   3.491   3.709 -0.6287 -0.9903 -0.2233
35079SOL    HW211074   4.330   3.555   3.582 -0.7606  0.8610  0.6141
35080SOL     OW11075  10.744  10.379   9.556  0.4477 -0.1480 -0.6894
35080SOL    HW111076  10.778  10.300   9.598 -1.0477  0.9073  2.8386
35080SOL    HW211077  10.819  10.418   9.512  1.5667 -2.6261 -1.1627
35081SOL     OW11078   8.109   9.759   7.276  0.2170 -0.3791 -0.0299
35081SOL    HW111079   8.035   9.820   7.279  0.6467  0.1402 -0.0388
35081SOL    HW211080   8.176   9.799   7.330  0.1668 -1.2973  0.7426
35082SOL     OW11081   9.229   9.192  10.560  0.3140  0.1753  1.0766
35082SOL    HW111082   9.317   9.157  10.566 -0.2569 -1.8610 -0.8512
35082SOL    HW211083   9.200   9.168  10.472 -2.5449 -0.2151  2.0175
35083SOL     OW11084   6.771   9.492   0.109 -0.0362  0.0086  0.0885
35083SOL    HW111085   6.680   9.473   0.132 -0.2459  2.4138  1.6828
35083SOL    HW211086   6.809   9.525   0.190  1.6333  1.1001 -1.0885
35084SOL     OW11087   3.716   4.153   5.471  0.0067 -0.3340  0.5433
35084SOL    HW111088   3.722   4.147   5.566  0.7236  1.6099  0.6518
35084SOL    HW211089   3.625   4.178   5.454  0.4046  1.4068  0.8701
35085SOL     OW11090   0.958   7.631   2.309  0.2070  0.1361 -0.4058
35085SOL    HW111091   0.973   7.619   2.402  0.9488 -0.0182 -0.5387
35085SOL    HW211092   0.934   7.724   2.300  0.0840  0.1377 -0.0623
35086SOL     OW11093   9.328   6.640   9.003  0.0546 -0.3960 -0.0498
35086SOL    HW111094   9.298   6.594   9.081  0.1084 -2.5883 -1.2266
35086SOL    HW211095   9.354   6.727   9.034 -1.0079 -0.7891  2.1385
35087SOL     OW11096   2.779   6.124  10.211  0.2189  0.3883  0.3913
35087SOL    HW111097   2.768   6.191  10.278  1.2559 -0.4497  1.4362
35087SOL    HW211098   2.840   6.061  10.249  1.2010  0.1077 -1.5120
35088SOL     OW11099   2.001   2.068   7.947 -0.4462 -0.0810  0.1085
35088SOL    HW111100   2.084   2.027   7.972 -0.4465  0.4326  0.9818
35088SOL    HW211101   2.006   2.077   7.852 -0.1300 -1.3990 -0.0156
35089SOL     OW11102   2.014   1.404   4.605 -0.1264 -0.1859  0.2631
35089SOL    HW111103   1.988   1.325   4.558 -2.4832  1.7765 -2.0145
35089SOL    HW211104   1.945   1.417   4.670 -1.1112  1.2359 -1.0108
35090SOL     OW11105   3.167   5.461   9.963  0.3935 -0.2960  0.0814
35090SOL    HW111106   3.240   5.515   9.994 -0.3273 -0.7106  2.7621
35090SOL    HW211107   3.100   5.523   9.938  0.6139  0.0888  0.4258
35091SOL     OW11108   9.120   1.563  10.681  0.2792 -0.0890  0.2325
35091SOL    HW111109   9.142   1.639  10.735 -0.2979  0.1161  0.1884
35091SOL    HW211110   9.127   1.595  10.590  0.9373 -0.3450  0.1908
35092SOL     OW11111   4.028   7.894   9.262 -0.1240 -0.2443 -0.0224
35092SOL    HW111112   4.062   7.807   9.283 -2.0313 -0.9713  0.2409
35092SOL    HW211113   4.106   7.949   9.257  1.0322 -1.6775  1.1563
35093SOL     OW11114   5.568   6.935   0.418  0.3608 -0.0622  0.0422
35093SOL    HW111115   5.635   7.000   0.441  0.2485 -0.6352  2.2176
35093SOL    HW211116   5.488   6.986   0.404  0.6368  0.3910  0.1194
35094SOL     OW11117   8.464   5.751   1.230 -0.3510 -0.6871  0.3877
35094SOL    HW111118   8.455   5.847   1.227  0.5640 -0.5753  0.9055
35094SOL    HW211119   8.506   5.734   1.315  3.8544 -1.1797 -1.5681
35095SOL     OW11120   4.724   9.905   5.318  0.2272 -0.0927 -0.0846
35095SOL    HW111121   4.742   9.979   5.376  1.1560 -0.7609  0.4900
35095SOL    HW211122   4.641   9.869   5.351 -0.0909  0.5109 -0.2002
35096SOL     OW11123   7.698   5.510   7.635 -0.3804 -0.4100  0.0307
35096SOL    HW111124   7.775   5.518   7.578 -0.4797  0.8625  0.0507
35096SOL    HW211125   7.725   5.552   7.717 -0.4562 -1.6593  0.7131
35097SOL     OW11126   3.759   7.179   7.861 -0.3539  0.2322  0.3538
35097SOL    HW111127   3.696   7.237   7.819 -0.5851  0.0759  0.4810
35097SOL    HW211128   3.836   7.183   7.805  0.1794  1.8104  1.1430
35098SOL     OW11129   1.874   2.180   3.478 -0.0190  0.5751 -0.1073
35098SOL    HW111130   1.800   2.120   3.465 -0.4401  0.3632  2.5694
35098SOL    HW211131   1.842   2.265   3.448 -1.4437  0.4970  1.0542
35099SOL     OW11132   6.127   9.875   9.009 -0.1135 -0.2800  0.8792
35099SOL    HW111133   6.088   9.960   8.989  1.9792  0.7500  0.7940
35099SOL    HW211134   6.091   9.815   8.944  0.7938  1.3072 -1.1853
35100SOL     OW11135   0.823   6.942   1.941  0.3343  0.5260 -0.2169
35100SOL    HW111136   0.815   6.870   1.879  0.4238 -0.3553  0.7711
35100SOL    HW211137   0.917   6.953   1.953  0.3105 -0.1082  0.6508
35101SOL     OW11138   1.884   2.435   1.270 -0.5493  0.0454 -0.2423
35101SOL    HW111139   1.874   2.342   1.292 -2.7517  0.0250 -1.0875
35101SOL    HW211140   1.943   2.436   1.195  0.6517 -0.5333  0.6743
35102SOL     OW11141   3.912   5.409   6.755 -0.2470 -0.3309  0.2123
35102SOL    HW111142   3.877   5.401   6.844  0.0088 -1.1723  0.2395
35102SOL    HW211143   3.861   5.348   6.703  0.7745 -1.1387  0.1380
35103SOL     OW11144   4.275   9.822   5.725 -0.2616 -0.4354  0.2317
35103SOL    HW111145   4.198   9.765   5.721 -0.3716 -0.2724  0.0014
35103SOL    HW211146   4.345   9.766   5.758 -0.5369 -0.5222  0.6745
35104SOL     OW11147   2.070   4.986   1.440  0.2719 -0.1443  0.8841
35104SOL    HW111148   2.110   5.023   1.518 -0.6840  2.0953  0.3832
35104SOL    HW211149   1.987   5.032   1.431  0.8347  0.5271 -2.0438
35105SOL     OW11150   7.252   2.711   8.667 -0.2630 -0.1279 -0.0359
35105SOL    HW111151   7.199   2.650   8.615 -0.3595  1.0045 -1.3332
35105SOL    HW211152   7.220   2.797   8.642  0.9591  0.5192  0.5448
35106SOL     OW11153   5.998   0.755   4.168 -0.5304 -0.4704  0.3504
35106SOL    HW111154   6.084   0.765   4.128 -1.1499 -1.0875 -1.1985
35106SOL    HW211155   6.013   0.774   4.261  1.2644 -0.5709  0.1231
35107SOL     OW11156   4.938   4.773   1.420 -0.7657  0.9270  0.1384
35107SOL    HW111157   4.879   4.844   1.446 -1.0731  0.2315  1.4626
35107SOL    HW211158   4.911   4.750   1.331  0.4632  3.5597 -0.9899
35108SOL     OW11159   5.518  10.824   8.414 -0.2461  0.4564  0.2050
35108SOL    HW111160   5.517  10.875   8.333 -0.1627 -0.2959 -0.2759
35108SOL    HW211161   5.588  10.760   8.402  2.0236  2.3414  2.1539
35109SOL     OW11162   1.235   4.683   5.183 -0.1738 -0.1440  0.0491
35109SOL    HW111163   1.141   4.699   5.192  0.1614  1.0679  2.3202
35109SOL    HW211164   1.271   4.708   5.268  2.3560  0.4432 -1.1050
35110SOL     OW11165   6.552   2.463   6.402 -0.5141 -0.0029  0.0262
35110SOL    HW111166   6.578   2.380   6.443  0.0818  0.2086  0.0815
35110SOL    HW211167   6.461   2.449   6.376 -0.0794 -1.1009 -1.0053
35111SOL     OW11168   9.697   0.510   4.421 -0.2505 -0.2060  0.1296
35111SOL    HW111169   9.760   0.574   4.454 -1.7508  0.4154  1.9296
35111SOL    HW211170   9.653   0.555   4.349 -0.1857  0.1943  0.3360
35112SOL     OW11171   0.303   4.003   2.585 -0.0948 -0.4110 -0.2212
35112SOL    HW111172   0.238   4.069   2.613  2.1220  0.9461  2.1345
35112SOL    HW211173   0.251   3.924   2.568 -2.3761  0.5737  1.6157
35113SOL     OW11174   3.491   5.757   1.452  0.0478  0.2383 -0.0639
35113SOL    HW111175   3.571   5.729   1.497 -0.0967 -0.5798 -0.3047
35113SOL    HW211176   3.501   5.725   1.363 -0.8228 -0.4434  0.0656
35114SOL     OW11177   2.082   7.919   4.256 -0.0283 -0.0522 -0.2385
35114SOL    HW111178   2.125   7.995   4.295 -1.4447  1.1975 -0.9901
35114SOL    HW211179   2.131   7.903   4.175 -1.7884  2.4256 -1.9754
35115SOL     OW11180   7.332   8.345   9.698  0.3974 -0.1733  0.5398
35115SOL    HW111181   7.317   8.330   9.605  0.2875 -0.4661  0.6021
35115SOL    HW211182   7.427   8.356   9.706  0.2930  1.1046  0.2221
35116SOL     OW11183   8.544   1.181   8.006 -0.9882  0.0000  0.5133
35116SOL    HW111184   8.477   1.123   8.041 -2.4500  0.2033 -1.7338
35116SOL    HW211185   8.501   1.266   7.997  0.1748  0.6490  0.8623
35117SOL     OW11186   1.211   5.513  10.653 -0.3777 -0.6617 -0.2755
35117SOL    HW111187   1.181   5.472  10.734  0.7637  0.2294  0.6256
35117SOL    HW211188   1.286   5.459  10.625  0.4506  0.1502  0.3323
35118SOL     OW11189   3.377   8.847   2.025 -0.0056 -0.1419  0.1458
35118SOL    HW111190   3.409   8.771   2.073 -1.3954  0.7581  2.7154
35118SOL    HW211191   3.284   8.854   2.048  0.0898  2.3595  0.1137
35119SOL     OW11192   8.496   1.942   7.088 -0.3521 -0.2225 -0.2347
35119SOL    HW111193   8.541   1.976   7.165  0.2094 -1.0095 -0.2059
35119SOL    HW211194   8.403   1.958   7.105 -0.1683  0.4426  0.1802
35120SOL     OW11195   3.691   2.362   5.901 -0.4392 -0.5406  0.2264
35120SOL    HW111196   3.616   2.416   5.876  1.0119  1.0837 -0.8650
35120SOL    HW211197   3.703   2.379   5.995 -1.3011 -0.6546  0.3603
35121SOL     OW11198   0.380   0.963   1.924 -0.4801 -0.9091  0.3016
35121SOL    HW111199   0.400   0.942   2.015 -2.2740 -0.1473  0.9256
35121SOL    HW211200   0.347   0.881   1.887  0.8195 -1.3714  0.1527
35122SOL     OW11201   4.417   2.668   1.732  0.1082  0.1125  0.2146
35122SOL    HW111202   4.334   2.664   1.781  1.4403 -0.9727  2.5233
35122SOL    HW211203   4.438   2.761   1.728 -0.5454  0.2954  0.8059
35123SOL     OW11204   0.603   0.349   2.423  0.8593  0.1278 -0.6101
35123SOL    HW111205   0.661   0.281   2.458 -0.4333 -0.8461 -0.2851
35123SOL    HW211206   0.659   0.426   2.414  2.0435 -0.5908  0.3129
35124SOL     OW11207   8.272   7.567   1.751  0.5671 -0.0335  0.3036
35124SOL    HW111208   8.198   7.615   1.714 -0.6065  1.8581  4.5435
35124SOL    HW211209   8.340   7.633   1.763  0.9840 -0.6092  1.2523
35125SOL     OW11210   3.742   1.973   0.943 -0.0551 -0.6644 -0.7118
35125SOL    HW111211   3.825   1.928   0.929  1.3741  1.6356 -0.0597
35125SOL    HW211212   3.704   1.928   1.019  0.0515 -2.3802 -1.6131
35126SOL     OW11213   0.723   8.988   5.704 -0.1247  0.5181  0.5867
35126SOL    HW111214   0.782   9.013   5.775  1.6634  0.0969 -0.6767
35126SOL    HW211215   0.752   8.900   5.680 -0.2812  0.8875 -1.0546
35127SOL     OW11216   1.489   5.744  10.680 -0.5977  0.3958  0.2104
35127SOL    HW111217   1.476   5.839  10.674 -0.5336  0.5886  2.3793
35127SOL    HW211218   1.426   5.716  10.746  0.9099 -0.7205  1.2337
35128SOL     OW11219   0.308   4.453   8.216 -0.2469  0.7438 -0.5062
35128SOL    HW111220   0.222   4.425   8.248  0.1613 -0.8039 -0.6657
35128SOL    HW211221   0.310   4.426   8.124  0.2652  1.1204 -0.6137
35129SOL     OW11222   4.181   8.104   5.511  0.0943  0.0218 -0.2112
35129SOL    HW111223   4.207   8.013   5.529  0.9149  0.2057 -0.4456
35129SOL    HW211224   4.162   8.141   5.597  0.2839 -0.2106 -0.0690
35130SOL     OW11225  10.229   6.047   5.227  0.9287  0.1761  0.0216
35130SOL    HW111226  10.212   6.124   5.173  1.1656  0.7389  0.7295
35130SOL    HW211227  10.276   5.987   5.169  0.2691  0.3347 -0.7008
35131SOL     OW11228   9.156   9.694   8.144  0.0247 -0.7814  0.4167
35131SOL    HW111229   9.208   9.702   8.225 -1.3117  0.0158  1.2297
35131SOL    HW211230   9.070   9.666   8.174 -0.9269  0.9247 -0.5577
35132SOL     OW11231   0.982   1.052   1.807  0.5109  0.1199  0.5895
35132SOL    HW111232   1.008   0.960   1.812 -3.3380 -1.0797  3.1075
35132SOL    HW211233   0.979   1.081   1.898 -0.4924  2.0470 -0.0072
35133SOL     OW11234   6.637   0.009   6.721 -0.2362  0.1129  0.3527
35133SOL    HW111235   6.594  -0.006   6.636 -0.0190  1.0417  0.0662
35133SOL    HW211236   6.648  -0.079   6.758  0.0294 -0.3488 -0.7620
35134SOL     OW11237  10.228   7.960   7.976 -0.1471 -0.8795 -0.0085
35134SOL    HW111238  10.267   8.035   8.021  1.6203 -0.8184 -1.5596
35134SOL    HW211239  10.165   7.925   8.039 -0.0998  1.1271  1.2397
35135SOL     OW11240   7.136  10.575  10.074 -0.4437 -0.5509 -0.5622
35135SOL    HW111241   7.134  10.668  10.049 -0.8638 -0.8177 -1.5876
35135SOL    HW211242   7.222  10.545  10.044  0.2453 -0.2013  0.9663
35136SOL     OW11243   5.034   7.024   6.297 -0.4939 -0.5270 -0.2379
35136SOL    HW111244   5.038   6.929   6.288 -0.7808 -0.8499  2.2985
35136SOL    HW211245   5.017   7.039   6.390 -1.2016  2.0057 -0.6917
35137SOL     OW11246   9.530   4.181   2.897  0.2001 -0.1160  0.2144
35137SOL    HW111247   9.472   4.108   2.918 -1.9670  1.3581 -0.3850
35137SOL    HW211248   9.551   4.169   2.804 -1.2382  0.6905 -0.2425
35138SOL     OW11249   4.704   2.509   3.150  0.4964  0.8102 -0.1527
35138SOL    HW111250   4.722   2.503   3.244  0.1319 -0.8555 -0.1529
35138SOL    HW211251   4.786   2.538   3.111  1.5178 -1.1189  0.4331
35139SOL     OW11252  10.522   4.591   9.943  0.1475 -0.2729  0.0953
35139SOL    HW111253  10.468   4.530   9.891  2.3649 -1.4690 -0.9419
35139SOL    HW211254  10.552   4.539  10.017  1.5006 -0.2691 -0.4309
35140SOL     OW11255   8.149   4.869   7.201 -0.0569  0.2395 -0.1779
35140SOL    HW111256   8.082   4.911   7.255 -0.4458 -0.6734  0.0559
35140SOL    HW211257   8.137   4.775   7.216  0.2196 -0.0044 -1.3846
35141SOL     OW11258   4.914   1.090   4.185 -0.3372 -0.2205 -0.1185
35141SOL    HW111259   4.944   1.004   4.216 -2.0286 -1.2605 -1.2146
35141SOL    HW211260   4.854   1.120   4.253 -0.9093 -0.6276 -0.4317
35142SOL     OW11261   8.966   6.390   2.041 -0.2129 -0.3367 -0.3339
35142SOL    HW111262   8.925   6.424   1.962 -0.4119 -0.1224 -0.1380
35142SOL    HW211263   9.060   6.396   2.023 -0.1550  2.0229  0.3777
35143SOL     OW11264   4.022   6.966   7.993 -0.3113  0.1673  0.3439
35143SOL    HW111265   4.005   6.872   8.000 -0.8763  0.3188  1.1367
35143SOL    HW211266   4.018   6.998   8.083  0.3918  0.8699  0.1428
35144SOL     OW11267   7.493   9.614   9.523 -0.0017 -0.4865  0.0975
35144SOL    HW111268   7.577   9.568   9.530  0.2391 -0.3419 -1.5744
35144SOL    HW211269   7.517   9.706   9.515 -0.2196 -0.5479 -1.6523
35145SOL     OW11270   6.843   0.351   3.680  0.2695 -0.4203 -0.2250
35145SOL    HW111271   6.862   0.257   3.685  0.3177 -0.4612 -1.0151
35145SOL    HW211272   6.889   0.380   3.601  0.9564  0.4478  0.4827
35146SOL     OW11273   7.112   7.631   8.365  0.6172  0.6981  0.1615
35146SOL    HW111274   7.164   7.554   8.345 -0.4871 -0.3987  1.3320
35146SOL    HW211275   7.174   7.692   8.405  0.9034 -0.9936  2.5547
35147SOL     OW11276   9.885   2.129   8.181 -0.8843  0.4272  0.0570
35147SOL    HW111277   9.972   2.118   8.218 -0.8661 -1.2064 -0.3977
35147SOL    HW211278   9.868   2.047   8.135 -2.1736  1.1826 -0.8883
35148SOL     OW11279  10.598   7.519   0.670 -0.1855  0.2132  0.3250
35148SOL    HW111280  10.611   7.461   0.745  0.3636 -0.1803 -0.0580
35148SOL    HW211281  10.637   7.602   0.696  2.3942 -0.6479 -0.4214
35149SOL     OW11282   9.930   0.187   7.787  0.0350 -0.1479 -0.3022
35149SOL    HW111283   9.925   0.244   7.864  0.8612 -1.6462  0.9302
35149SOL    HW211284   9.861   0.219   7.729  0.7104  2.3181  0.1358
35150SOL     OW11285   8.836   5.419   8.179  0.2596 -0.2610  0.3123
35150SOL    HW111286   8.861   5.383   8.263  1.4668  1.3269  0.6747
35150SOL    HW211287   8.886   5.500   8.171 -2.4988  1.5395 -0.3082
35151SOL     OW11288   8.998  10.213  10.424 -0.0392 -0.2650  0.2471
35151SOL    HW111289   8.930  10.230  10.358  0.1146 -0.7624 -0.0463
35151SOL    HW211290   8.960  10.144  10.479  0.1596 -0.4324  0.1759
35152SOL     OW11291   9.775   2.981   4.241  0.2354  0.4600 -0.8700
35152SOL    HW111292   9.860   2.953   4.275 -0.2510 -0.9323 -0.7112
35152SOL    HW211293   9.793   3.013   4.153  0.6423 -2.1738 -1.8391
35153SOL     OW11294   2.634   3.726   1.299  0.0862  0.7076  0.1921
35153SOL    HW111295   2.547   3.703   1.332 -0.7175  1.7286 -1.1141
35153SOL    HW211296   2.644   3.819   1.319  0.4015  0.8681 -0.6624
35154SOL     OW11297   3.467   8.429   5.322 -0.1032 -0.1386 -0.2278
35154SOL    HW111298   3.379   8.437   5.360  0.2040 -1.7461  0.9257
35154SOL    HW211299   3.497   8.519   5.311 -0.8422  0.4152  1.9066
35155SOL     OW11300   6.910   6.911   6.382  0.5359  0.5720 -0.2076
35155SOL    HW111301   6.870   6.836   6.427  0.4161  0.4267 -0.5481
35155SOL    HW211302   6.993   6.925   6.428  0.0464  0.9460  0.5733
35156SOL     OW11303   8.729   1.064   4.898  0.3318  0.5336  0.4899
35156SOL    HW111304   8.759   1.017   4.975  0.7631 -0.5809 -0.3196
35156SOL    HW211305   8.809   1.101   4.860  0.5883 -1.2996 -0.9270
35157SOL     OW11306   1.552   1.598   1.918  0.2381 -0.2500 -0.5201
35157SOL    HW111307   1.610   1.522   1.923  0.9842  0.3672  0.8202
35157SOL    HW211308   1.478   1.576   1.974  0.0396 -0.3306 -0.8141
35158SOL     OW11309   3.855   8.766   0.573  0.4316 -0.3265  0.1545
35158SOL    HW111310   3.873   8.818   0.495  1.7783 -1.3112 -0.2283
35158SOL    HW211311   3.863   8.828   0.645 -0.4557  0.5174 -0.4532
35159SOL     OW11312   5.174   9.612  10.584 -0.2496  0.3298  0.0423
35159SOL    HW111313   5.259   9.614  10.540 -0.4304 -1.8198 -0.5387
35159SOL    HW211314   5.115   9.656  10.522  0.1539  0.4419 -0.2706
35160SOL     OW11315   5.770   7.506   0.314 -0.1098  0.3696  0.7015
35160SOL    HW111316   5.823   7.511   0.235  1.7083 -2.7591  1.5561
35160SOL    HW211317   5.692   7.559   0.294  0.9752  0.9843 -2.5239
35161SOL     OW11318   0.014   8.858   3.404  0.4468 -0.5734 -0.3898
35161SOL    HW111319   0.094   8.806   3.408  0.6204 -0.3982 -1.3346
35161SOL    HW211320  -0.037   8.819   3.332  1.1733  1.3410 -2.0545
35162SOL     OW11321   9.591   1.486   7.735 -0.2552 -0.7364 -0.5308
35162SOL    HW111322   9.545   1.555   7.688  1.3794  1.2241  0.6092
35162SOL    HW211323   9.557   1.490   7.824  0.8885 -0.3604 -0.0860
35163SOL     OW11324   1.458   2.708   7.639 -0.0382 -0.1867  0.4916
35163SOL    HW111325   1.400   2.780   7.614  0.7680  0.7387  1.2007
35163SOL    HW211326   1.506   2.742   7.714 -0.6340 -1.9720  1.7453
35164SOL     OW11327   2.291   7.193   4.078  0.0365  0.1668  0.0673
35164SOL    HW111328   2.283   7.262   4.143  0.9127  1.4602 -1.1347
35164SOL    HW211329   2.351   7.130   4.118  1.7617  1.6720 -0.0236
35165SOL     OW11330   1.739   5.119   1.320  0.4777  0.4086  0.0900
35165SOL    HW111331   1.760   5.210   1.342 -2.0413  0.8075  1.1677
35165SOL    HW211332   1.809   5.092   1.260  2.1771  2.5065  0.9997
35166SOL     OW11333   6.507   2.312   3.854  0.1758 -0.3694  0.0619
35166SOL    HW111334   6.570   2.279   3.918  1.7787 -1.8861 -2.1506
35166SOL    HW211335   6.460   2.234   3.823 -1.3555  0.4732  0.1468
35167SOL     OW11336   0.017   6.417   7.058 -0.1576 -0.1651  0.0594
35167SOL    HW111337  -0.076   6.413   7.037  0.0773 -1.1267 -0.9136
35167SOL    HW211338   0.052   6.485   7.000  0.2574 -1.9170 -1.8318
35168SOL     OW11339   4.237   9.240   2.032  0.4272 -0.1344 -0.6912
35168SOL    HW111340   4.177   9.165   2.036  2.3067 -1.6713  1.1625
35168SOL    HW211341   4.243   9.261   1.939 -1.2770 -1.3437 -1.1268
35169SOL     OW11342   4.207   4.062   3.970 -0.1644  0.1641 -0.2471
35169SOL    HW111343   4.122   4.102   3.986  0.2977  0.8537  0.5687
35169SOL    HW211344   4.239   4.105   3.890 -0.5643 -0.0816 -0.5436
35170SOL     OW11345   3.793   2.988   8.969 -0.2900  0.3504  0.0390
35170SOL    HW111346   3.849   2.961   8.897  0.2572 -0.4267  0.7329
35170SOL    HW211347   3.851   2.990   9.045 -0.5896  2.2685  0.2889
35171SOL     OW11348   5.039   8.158   8.491  0.8136 -0.6467 -0.3043
35171SOL    HW111349   5.075   8.185   8.406 -0.6725 -1.5235 -1.2407
35171SOL    HW211350   4.988   8.080   8.473  0.9098 -1.1938  1.5181
35172SOL     OW11351   7.068   5.310   2.350 -0.3095  0.4610  0.5596
35172SOL    HW111352   6.998   5.373   2.367 -0.0361  0.1701  3.0833
35172SOL    HW211353   7.032   5.226   2.379  0.3183 -0.0785 -0.1962
35173SOL     OW11354   1.828   1.184   6.520  0.0584  0.5864  0.1689
35173SOL    HW111355   1.871   1.217   6.599 -0.9617 -1.0257  1.4796
35173SOL    HW211356   1.735   1.181   6.543 -0.5398  1.8930 -1.8046
35174SOL     OW11357   0.814   9.615   7.986  0.1714  0.4092 -0.6088
35174SOL    HW111358   0.908   9.606   7.966  0.6252  1.4267  0.8700
35174SOL    HW211359   0.800   9.561   8.063 -0.1615  1.2635 -0.0557
35175SOL     OW11360   3.480   4.381   2.113  0.0188  0.0759  0.4191
35175SOL    HW111361   3.561   4.425   2.138 -1.5571  2.5762  1.5728
35175SOL    HW211362   3.473   4.307   2.174  0.4462  1.0468  1.6962
35176SOL     OW11363   2.835   5.034   1.714 -0.1680 -0.3493  0.3266
35176SOL    HW111364   2.928   5.042   1.732  0.1944 -0.0756 -1.4913
35176SOL    HW211365   2.816   5.104   1.652 -1.4489 -0.8113  0.1623
35177SOL     OW11366   6.325   8.520  10.015  0.1739 -0.6112  0.3653
35177SOL    HW111367   6.386   8.583   9.977  0.2745 -0.8739  0.0861
35177SOL    HW211368   6.369   8.436  10.008 -0.1598 -0.7838  0.2930
35178SOL     OW11369   7.175   4.967   2.158 -0.5084 -0.6416 -0.1897
35178SOL    HW111370   7.114   5.006   2.096  0.2676  0.2535 -0.4244
35178SOL    HW211371   7.262   4.989   2.123 -0.0463  0.1996  1.3637
35179SOL     OW11372   9.763   4.770  10.482 -0.1019  0.1963  0.5677
35179SOL    HW111373   9.680   4.817  10.486  0.0003  0.5667 -1.0130
35179SOL    HW211374   9.818   4.813  10.547 -0.8155  0.6229  0.9067
35180SOL     OW11375   1.269   0.856   2.528  0.3070  0.0059  0.3682
35180SOL    HW111376   1.339   0.791   2.517 -0.6912 -1.0066 -0.2209
35180SOL    HW211377   1.256   0.893   2.441  0.6572  0.7969  0.6404
35181SOL     OW11378   8.789  10.036  10.604 -0.8064 -0.3416 -0.0095
35181SOL    HW111379   8.766   9.990  10.685 -2.1341 -1.1663 -0.8355
35181SOL    HW211380   8.802   9.967  10.539 -0.4166  0.3447 -0.6831
35182SOL     OW11381  10.064   1.538   3.175 -0.3545 -0.0881  0.1615
35182SOL    HW111382  10.107   1.485   3.108  0.8380  0.4464  0.4794
35182SOL    HW211383  10.136   1.578   3.223 -1.2249  0.9129  0.6573
35183SOL     OW11384   6.576   0.598   1.663  0.0974  0.0072 -0.0796
35183SOL    HW111385   6.659   0.643   1.652 -0.4943  1.4079  0.9496
35183SOL    HW211386   6.599   0.505   1.667  1.9162  0.4841  2.7775
35184SOL     OW11387   5.179   8.828   0.750  0.0233 -0.0003 -0.5505
35184SOL    HW111388   5.199   8.766   0.680  0.0593 -0.1421 -0.4143
35184SOL    HW211389   5.127   8.778   0.813  2.3403 -0.7031  0.9314
35185SOL     OW11390   4.092   6.679   7.043 -0.6404  0.3570 -0.1449
35185SOL    HW111391   4.072   6.756   7.097  2.5421  1.8028 -0.7807
35185SOL    HW211392   4.086   6.711   6.953  1.9139  0.3537 -0.4050
35186SOL     OW11393   9.183   1.988   9.841  0.3201 -0.0714 -0.4416
35186SOL    HW111394   9.180   2.083   9.830 -1.2270  0.1490  1.4216
35186SOL    HW211395   9.144   1.954   9.760  0.5452  0.8672 -0.9626
35187SOL     OW11396   3.752   1.670   5.424  0.0499  0.1714 -0.5115
35187SOL    HW111397   3.659   1.686   5.407 -0.4340  0.1347  1.7292
35187SOL    HW211398   3.794   1.755   5.415 -0.5308  0.5419  0.1654
35188SOL     OW11399   0.221   3.105   4.293  0.5229  0.1692  0.0184
35188SOL    HW111400   0.275   3.183   4.280  0.3580  0.3799  0.5757
35188SOL    HW211401   0.234   3.081   4.385 -0.1667  0.0956  0.1026
35189SOL     OW11402   2.918   2.441  10.697 -0.2194  0.3526 -0.3748
35189SOL    HW111403   2.946   2.404  10.613  0.3346  2.5360 -1.2001
35189SOL    HW211404   2.978   2.514  10.712 -0.6968  0.3767  1.6483
35190SOL     OW11405   2.820   8.695   2.667 -0.1427 -0.1488 -0.2731
35190SOL    HW111406   2.850   8.636   2.598  0.6479  1.1758 -1.1190
35190SOL    HW211407   2.856   8.781   2.643 -0.8916  0.6077  1.1269
35191SOL     OW11408   0.129   7.181   3.096 -0.7655  0.1717 -0.4785
35191SOL    HW111409   0.065   7.148   3.032  0.6619  0.9103 -2.3544
35191SOL    HW211410   0.154   7.267   3.063  0.8988  0.0743  0.4508
35192SOL     OW11411   2.939   5.090   4.606 -0.8808  0.2616 -0.1323
35192SOL    HW111412   2.987   5.159   4.651  0.3963  0.9582 -2.4345
35192SOL    HW211413   2.876   5.136   4.551 -0.0996 -0.3464 -1.6023
35193SOL     OW11414  10.107   5.651   5.559 -0.6852  0.0973  0.5664
35193SOL    HW111415  10.047   5.677   5.629 -0.0640  0.5080  0.9626
35193SOL    HW211416  10.056   5.659   5.478 -1.0631  0.7387  0.8669
35194SOL     OW11417   1.468   5.960   6.510 -0.1678 -0.6601  0.4863
35194SOL    HW111418   1.548   5.979   6.559 -0.4019 -2.6518  1.7636
35194SOL    HW211419   1.401   5.947   6.577 -0.7103 -2.6060 -0.3540
35195SOL     OW11420   5.033   0.840   9.087  0.0353  0.4259  0.1866
35195SOL    HW111421   5.057   0.816   9.176  0.5271  0.4644  0.0715
35195SOL    HW211422   4.955   0.894   9.096 -1.4374 -1.6346  0.4173
35196SOL     OW11423   4.170   7.057   9.460  0.2211 -1.2868  0.7126
35196SOL    HW111424   4.211   7.032   9.378  1.2314 -0.7096  1.0171
35196SOL    HW211425   4.233   7.117   9.501 -1.4321  0.5612  0.6766
35197SOL     OW11426   1.478   4.371   1.328  0.2212  0.1064 -0.0705
35197SOL    HW111427   1.508   4.461   1.340  0.0343  0.0815  0.6091
35197SOL    HW211428   1.465   4.337   1.417  2.4848 -1.3329 -0.2147
35198SOL     OW11429   2.572   0.327   8.153  0.5672 -0.4537 -0.2991
35198SOL    HW111430   2.602   0.237   8.167  2.9016  0.3549  0.3503
35198SOL    HW211431   2.626   0.360   8.081 -0.2080  0.4760 -0.4815
35199SOL     OW11432   6.570   7.154   1.574 -0.1715  0.0392  0.0016
35199SOL    HW111433   6.657   7.172   1.540 -0.2056 -0.4802 -0.3841
35199SOL    HW211434   6.575   7.065   1.609 -1.2390 -1.1374 -2.5741
35200SOL     OW11435   6.627   3.122   8.981 -0.5297  0.3308 -0.2919
35200SOL    HW111436   6.631   3.058   9.052 -1.7790 -1.4151 -1.7169
35200SOL    HW211437   6.585   3.198   9.020 -0.6715 -0.3679  0.9788
35201SOL     OW11438   7.173   7.109   5.501  0.2906 -0.4076 -0.3598
35201SOL    HW111439   7.118   7.042   5.462  0.2385 -0.2294 -0.5942
35201SOL    HW211440   7.260   7.093   5.465  0.1631 -0.0003 -0.8634
35202SOL     OW11441   4.815   0.668   9.377 -0.0682  0.2099 -0.8364
35202SOL    HW111442   4.804   0.613   9.455  1.7176  1.1741  0.1712
35202SOL    HW211443   4.883   0.625   9.327 -1.0189 -0.2554 -1.7571
35203SOL     OW11444   9.066   2.857   0.314 -0.1826  0.1670  0.1388
35203SOL    HW111445   8.973   2.864   0.338 -0.7157 -1.4879 -1.2625
35203SOL    HW211446   9.096   2.778   0.359  0.6232  0.7653  0.6886
35204SOL     OW11447   5.640   2.427   4.587  0.1088  0.1205 -0.7567
35204SOL    HW111448   5.590   2.443   4.507 -1.2200 -0.6601 -0.1080
35204SOL    HW211449   5.640   2.512   4.632 -2.0085 -0.2195 -0.0333
35205SOL     OW11450   0.190   4.638   5.063  0.4122  0.2387  0.2192
35205SOL    HW111451   0.119   4.700   5.080  1.8176  2.0549 -0.2417
35205SOL    HW211452   0.262   4.667   5.119  1.4734 -0.3104 -0.8127
35206SOL     OW11453   7.823   3.883   0.871  0.2688 -0.1053 -0.3585
35206SOL    HW111454   7.909   3.868   0.833  1.0623  1.5029  0.6968
35206SOL    HW211455   7.762   3.857   0.802  1.6098  1.7351 -2.3853
35207SOL     OW11456   1.858   9.412   3.507  0.4534 -0.4238 -0.0859
35207SOL    HW111457   1.829   9.459   3.429  0.4031  2.8213  1.7126
35207SOL    HW211458   1.951   9.396   3.491  0.9454  2.0017 -0.1108
35208SOL     OW11459  10.642   7.175   2.751 -0.0884  0.2214  0.0316
35208SOL    HW111460  10.573   7.138   2.696  0.2476 -0.6068  0.1533
35208SOL    HW211461  10.690   7.234   2.692 -1.0545  1.0285  0.0183
35209SOL     OW11462   1.645   3.417  10.107  0.2444 -0.2159 -0.2159
35209SOL    HW111463   1.649   3.428  10.202  0.3165  0.0341 -0.2489
35209SOL    HW211464   1.627   3.504  10.074 -1.4671 -0.5636 -0.3225
35210SOL     OW11465   0.164   5.849   3.349 -0.0559  0.0879  0.2438
35210SOL    HW111466   0.172   5.940   3.378  0.8181  0.1969 -0.2999
35210SOL    HW211467   0.251   5.827   3.315 -0.8677 -0.1885 -1.8096
35211SOL     OW11468   1.233  10.053   5.308  0.3688 -0.1582  0.3627
35211SOL    HW111469   1.155  10.066   5.362  0.1453  1.2013 -0.2380
35211SOL    HW211470   1.290  10.126   5.332  0.9564 -0.4713 -0.0662
35212SOL     OW11471   6.107   6.286   4.609 -0.1549 -0.0999  0.0998
35212SOL    HW111472   6.116   6.254   4.519  1.1016  0.4126  0.0227
35212SOL    HW211473   6.137   6.213   4.663 -1.1882 -0.5157  0.1338
35213SOL     OW11474   7.334   1.310   3.625 -0.5965 -0.0762  0.1306
35213SOL    HW111475   7.385   1.347   3.553 -0.4111 -0.0771  0.2626
35213SOL    HW211476   7.375   1.227   3.645 -0.7666 -0.1669  0.1091
35214SOL     OW11477   4.784   4.214   6.970  0.0261 -0.2080  0.0896
35214SOL    HW111478   4.832   4.195   6.889  1.7755  0.4610  0.9225
35214SOL    HW211479   4.798   4.137   7.025 -0.8971 -0.5266 -0.1054
35215SOL     OW11480   9.174   4.884   4.275 -0.0845 -0.0782 -0.5977
35215SOL    HW111481   9.140   4.794   4.277  0.8563 -0.4556 -0.9598
35215SOL    HW211482   9.109   4.933   4.225  0.1713 -0.9180 -1.8210
35216SOL     OW11483  10.843   1.110   8.062  0.0058 -0.1220  0.5896
35216SOL    HW111484  10.930   1.129   8.097  0.0374  0.8122  0.0424
35216SOL    HW211485  10.860   1.060   7.982  0.1018  0.9557 -0.0828
35217SOL     OW11486   9.371   6.362   0.947 -0.9914 -0.9848 -0.0917
35217SOL    HW111487   9.380   6.455   0.969  0.0674 -1.5475  2.1787
35217SOL    HW211488   9.458   6.326   0.961 -1.3307 -2.3184 -1.1710
35218SOL     OW11489   9.269   1.608   3.519  0.1978  0.5896 -0.3546
35218SOL    HW111490   9.249   1.681   3.577 -1.3405  0.8668 -1.1890
35218SOL    HW211491   9.362   1.591   3.534 -0.0213  0.9734  1.7842
35219SOL     OW11492  10.291   0.709   5.782 -0.0455  0.0109  0.2001
35219SOL    HW111493  10.207   0.720   5.736 -0.1795  0.0260  0.4444
35219SOL    HW211494  10.266   0.675   5.868  0.2051 -0.0287  0.2563
35220SOL     OW11495   7.514   5.941   8.792  0.2579 -0.3147 -0.1952
35220SOL    HW111496   7.510   5.845   8.800  0.0444 -0.2557  0.4810
35220SOL    HW211497   7.445   5.973   8.849  0.0384  0.2375 -0.7645
35221SOL     OW11498   6.305   4.405  10.273  0.0253 -0.1072  0.0332
35221SOL    HW111499   6.398   4.384  10.278  0.3607  0.9696 -1.0877
35221SOL    HW211500   6.264   4.324  10.243  0.7175 -0.3570 -0.2688
35222SOL     OW11501   5.873   2.409   6.118 -0.4668 -0.5668  0.1907
35222SOL    HW111502   5.826   2.486   6.151 -1.9385 -2.0324  1.7166
35222SOL    HW211503   5.847   2.338   6.177 -0.2768 -2.5470 -1.9619
35223SOL     OW11504   5.750   4.129   9.567  0.0510 -0.3322  0.2086
35223SOL    HW111505   5.823   4.092   9.517  0.7783  1.8451 -0.4622
35223SOL    HW211506   5.774   4.221   9.579 -1.7550  0.0082  1.5747
35224SOL     OW11507   6.533   9.367   7.818 -0.1788  0.4920  0.6061
35224SOL    HW111508   6.602   9.346   7.880  0.4043 -0.3002 -0.2795
35224SOL    HW211509   6.580   9.384   7.736 -0.9238  1.5170  0.3684
35225SOL     OW11510   1.875   5.738   4.796 -0.1779 -0.6400  0.8460
35225SOL    HW111511   1.904   5.673   4.860  2.8334 -1.3252 -1.0047
35225SOL    HW211512   1.937   5.810   4.806 -0.4358 -0.2116 -0.4423
35226SOL     OW11513   8.839   5.728   5.884 -0.4130  0.1225 -0.6758
35226SOL    HW111514   8.771   5.744   5.950 -0.1960 -0.5323 -0.2778
35226SOL    HW211515   8.872   5.640   5.906  0.0828  0.1547 -1.2868
35227SOL     OW11516   4.736  10.279   8.818 -0.0129 -0.5129 -0.0949
35227SOL    HW111517   4.750  10.212   8.885 -1.1217 -1.0225 -0.3434
35227SOL    HW211518   4.688  10.234   8.749 -0.1259  0.3590 -0.5999
35228SOL     OW11519  10.024   7.837   8.486 -0.1309  0.3748  0.2350
35228SOL    HW111520  10.078   7.906   8.447 -0.3839  0.5597  0.2126
35228SOL    HW211521   9.954   7.884   8.531 -0.5239  0.1198 -0.1013
35229SOL     OW11522   4.236  10.510   6.338  0.6518  0.4258  0.0137
35229SOL    HW111523   4.220  10.473   6.252 -0.2510  1.2725 -0.1874
35229SOL    HW211524   4.303  10.577   6.324  1.0344  0.0734  0.1054
35230SOL     OW11525   6.872   2.716   7.532  0.0017 -0.1846  0.0034
35230SOL    HW111526   6.956   2.716   7.486 -0.1176 -1.3469 -0.2406
35230SOL    HW211527   6.881   2.649   7.599 -0.8968 -0.6795 -0.3526
35231SOL     OW11528   4.723   3.529   6.619  0.1648 -0.3468  0.4478
35231SOL    HW111529   4.758   3.445   6.648  2.3044 -0.3399 -1.8324
35231SOL    HW211530   4.705   3.517   6.526 -0.0658  1.5578  0.2044
35232SOL     OW11531   6.914   7.464  10.404  0.6645 -0.1828  0.0653
35232SOL    HW111532   6.880   7.431  10.486 -0.7269  1.0179  0.0079
35232SOL    HW211533   6.882   7.402  10.338 -2.8787  1.6763 -0.1860
35233SOL     OW11534   1.495   4.759   2.355 -0.3600  0.3828  0.4671
35233SOL    HW111535   1.445   4.791   2.281  1.1441  0.3971 -0.6006
35233SOL    HW211536   1.519   4.669   2.331 -0.0320  0.3097  1.0326
35234SOL     OW11537   6.973   4.080   5.264 -0.5017  0.2401 -0.0543
35234SOL    HW111538   6.898   4.070   5.204 -0.1344  0.1720 -0.5072
35234SOL    HW211539   6.989   4.174   5.268  0.2096  0.1727 -0.9918
35235SOL     OW11540   2.102   8.417  10.761 -0.0064  0.0781  0.5746
35235SOL    HW111541   2.092   8.502  10.718 -1.2341 -0.6409 -0.6299
35235SOL    HW211542   2.191   8.419  10.797  0.0869  1.7559  0.3457
35236SOL     OW11543   0.812   5.757   6.571  0.6068  0.0464 -0.3147
35236SOL    HW111544   0.752   5.817   6.616 -0.2834  0.1507 -1.5841
35236SOL    HW211545   0.852   5.706   6.641 -1.6243 -0.6373  0.5495
35237SOL     OW11546   3.851   8.875   9.863  0.5979  0.2531  0.0210
35237SOL    HW111547   3.760   8.904   9.873  0.2785  0.5778 -2.9699
35237SOL    HW211548   3.867   8.819   9.940 -2.9130 -1.7328 -0.4862
35238SOL     OW11549  10.667   5.421  10.785  0.6472  0.3724  0.1984
35238SOL    HW111550  10.596   5.461  10.835  0.6871  2.4990 -1.3015
35238SOL    HW211551  10.738   5.486  10.788  1.3505 -0.3141 -0.9744
35239SOL     OW11552   6.095  10.386   4.343 -0.6809  0.8993 -0.1356
35239SOL    HW111553   6.116  10.468   4.298 -0.3656  0.3480 -1.0324
35239SOL    HW211554   6.131  10.397   4.431  0.0212  1.4343 -0.4762
35240SOL     OW11555   6.850   1.878  10.356 -0.2657  0.1074 -0.4214
35240SOL    HW111556   6.873   1.791  10.390 -1.8559  0.7486  2.6576
35240SOL    HW211557   6.907   1.938  10.403  0.1104  0.8573 -1.7781
35241SOL     OW11558   9.264   4.054   3.452  0.1271  0.2593 -0.5776
35241SOL    HW111559   9.211   4.029   3.377 -0.0618 -0.5687 -0.1754
35241SOL    HW211560   9.353   4.059   3.419  0.8129 -4.4121 -0.0238
35242SOL     OW11561   1.374   6.969   2.632 -0.2944  0.4991  0.2494
35242SOL    HW111562   1.279   6.959   2.632 -0.3382  0.2601 -2.4596
35242SOL    HW211563   1.404   6.918   2.557  1.7766  2.0934 -0.1056
35243SOL     OW11564   9.998   3.433   6.108 -0.3179 -0.7797  0.0261
35243SOL    HW111565  10.004   3.528   6.118 -0.2923 -0.6727 -0.9251
35243SOL    HW211566   9.994   3.419   6.013 -1.2887 -1.6716  0.1860
35244SOL     OW11567   5.445   8.566   3.325 -0.3470 -0.2099  0.3284
35244SOL    HW111568   5.398   8.485   3.345 -1.1014  0.4128  1.1888
35244SOL    HW211569   5.376   8.632   3.317  0.3637  0.8720  2.3708
35245SOL     OW11570   3.044  10.467   0.768 -0.0089 -0.3844  0.1708
35245SOL    HW111571   2.966  10.523   0.770 -0.2191 -0.6685  0.0046
35245SOL    HW211572   3.018  10.392   0.714  0.0896 -0.9036  0.8375
35246SOL     OW11573   9.645   2.630   2.086 -0.2198 -0.4000 -0.0860
35246SOL    HW111574   9.696   2.574   2.027 -0.2073 -0.5912  0.1070
35246SOL    HW211575   9.587   2.570   2.132  0.2969 -0.3457  0.6515
35247SOL     OW11576   1.324   3.705  10.891 -0.1857 -0.1136 -0.8979
35247SOL    HW111577   1.287   3.748  10.968 -0.5918  1.0016 -1.6925
35247SOL    HW211578   1.249   3.687  10.835  0.3316  1.4723 -2.1854
35248SOL     OW11579   1.896   7.185   4.573 -0.3708  0.4562 -0.0299
35248SOL    HW111580   1.948   7.266   4.577 -2.6596  1.9663  0.6471
35248SOL    HW211581   1.824   7.206   4.515 -0.9608 -1.1572  0.0850
35249SOL     OW11582   2.396   6.366  10.446  0.5388  0.0162  0.1114
35249SOL    HW111583   2.308   6.334  10.463  0.0115  0.5356 -1.4262
35249SOL    HW211584   2.425   6.314  10.370  0.8387  1.0627 -0.5101
35250SOL     OW11585   2.330  10.899   1.737  0.0530 -0.3029 -0.0065
35250SOL    HW111586   2.358  10.815   1.774  0.5452  0.0552  0.4537
35250SOL    HW211587   2.237  10.888   1.721  0.4644 -1.6929 -1.9785
35251SOL     OW11588   0.379   2.289   3.202 -0.2165  0.2270  0.1467
35251SOL    HW111589   0.352   2.292   3.110 -0.8546  1.8055  0.3477
35251SOL    HW211590   0.458   2.342   3.206  0.3030 -0.5452  0.3818
35252SOL     OW11591   9.865   2.571   5.641  0.2922 -0.2768  0.1360
35252SOL    HW111592   9.936   2.517   5.608  0.2839  0.1315 -0.5895
35252SOL    HW211593   9.812   2.590   5.563 -1.4421 -1.7747  0.8756
35253SOL     OW11594   0.816  10.012  10.742  0.5426 -0.3134 -0.3306
35253SOL    HW111595   0.891  10.069  10.723 -0.1459  0.4823 -0.7139
35253SOL    HW211596   0.777   9.995  10.657 -0.7487  0.7407  0.0180
35254SOL     OW11597   1.223   6.129   4.852  0.5625 -0.4868  0.1560
35254SOL    HW111598   1.176   6.116   4.935  0.7604 -0.0835  0.3329
35254SOL    HW211599   1.164   6.095   4.785 -1.2490  2.5662  0.0630
35255SOL     OW11600   0.319   1.929   0.966 -0.4834 -0.5167  0.1357
35255SOL    HW111601   0.272   1.944   0.884 -0.6947 -0.0147  0.3465
35255SOL    HW211602   0.267   1.974   1.032 -0.1128 -0.6052  0.4917
35256SOL     OW11603   7.993   1.234   8.695  0.0443 -0.4790  0.3918
35256SOL    HW111604   7.989   1.330   8.704  0.4528 -0.3131 -1.0020
35256SOL    HW211605   8.086   1.213   8.706  0.2721 -0.4701 -1.2591
35257SOL     OW11606   6.551   1.538   6.674 -0.1288  0.4491 -0.2748
35257SOL    HW111607   6.572   1.445   6.671 -0.7001  0.3280 -0.9382
35257SOL    HW211608   6.455   1.541   6.671 -0.0854  1.1007 -2.6534
35258SOL     OW11609   7.655   1.206   7.580 -0.8002 -0.0189 -0.6072
35258SOL    HW111610   7.687   1.270   7.516  2.2114 -0.1929  0.5236
35258SOL    HW211611   7.640   1.257   7.659  0.7868 -0.4763  0.0468
35259SOL     OW11612   4.449   3.697   7.881 -0.2255  0.3791 -0.1940
35259SOL    HW111613   4.483   3.657   7.801  0.1284 -0.7658  0.4957
35259SOL    HW211614   4.513   3.672   7.949 -1.9459 -1.1226  0.9731
35260SOL     OW11615   2.687   7.490   1.447  0.6042  0.5672  0.6476
35260SOL    HW111616   2.714   7.534   1.366 -0.5174 -0.9260 -0.6049
35260SOL    HW211617   2.611   7.540   1.476  1.6699  1.7913  1.4581
35261SOL     OW11618   7.267   4.266   2.182 -0.1421 -0.3103 -0.5138
35261SOL    HW111619   7.319   4.186   2.181 -0.3495 -0.4530 -1.8372
35261SOL    HW211620   7.331   4.336   2.196  0.2733 -0.5642 -1.1319
35262SOL     OW11621   9.934   2.351   0.972  0.0218 -0.0946  0.1064
35262SOL    HW111622   9.862   2.400   0.931  1.1663  0.8891 -0.8489
35262SOL    HW211623   9.971   2.412   1.036 -1.4367 -1.4508  2.3340
35263SOL     OW11624   3.660   7.223   0.288  0.2984  0.0931 -0.4441
35263SOL    HW111625   3.721   7.170   0.339 -1.4854 -2.0915 -0.4355
35263SOL    HW211626   3.586   7.238   0.347 -0.0205  1.0594 -1.0607
35264SOL     OW11627   1.721   5.535   5.852  0.5478 -0.1746 -0.0713
35264SOL    HW111628   1.784   5.497   5.914 -0.7834  0.5962  1.8382
35264SOL    HW211629   1.754   5.624   5.836  0.4301 -0.0762  0.2271
35265SOL     OW11630   9.315   7.156   3.147  0.4256 -0.1938  0.5040
35265SOL    HW111631   9.351   7.128   3.064  0.3118 -0.7953  0.6550
35265SOL    HW211632   9.391   7.168   3.204  0.3965 -1.9316  0.9706
35266SOL     OW11633  10.266   3.748   6.652  0.0757  0.3237 -0.0708
35266SOL    HW111634  10.252   3.755   6.747 -1.0381 -2.2024  0.0327
35266SOL    HW211635  10.360   3.732   6.643  0.1835  0.5294  0.5889
35267SOL     OW11636   9.665   7.558   8.305 -0.1405  0.0491  0.1943
35267SOL    HW111637   9.611   7.625   8.263  1.6212  1.0410 -0.5843
35267SOL    HW211638   9.753   7.595   8.305  0.7265 -1.9079  0.5645
35268SOL     OW11639  10.062   8.146   6.429  0.1307 -0.7175  0.1952
35268SOL    HW111640   9.992   8.176   6.487 -1.9097 -0.5112 -2.2247
35268SOL    HW211641  10.039   8.055   6.410 -0.5923 -0.1164 -2.0653
35269SOL     OW11642   3.841   7.190   4.638  0.0847 -0.4232  0.0623
35269SOL    HW111643   3.831   7.098   4.664  0.1287 -0.0802  1.3397
35269SOL    HW211644   3.752   7.217   4.614  0.0257 -0.7206 -0.0703
35270SOL     OW11645   0.947   4.673   8.528 -0.6859 -0.1914  0.6347
35270SOL    HW111646   0.953   4.734   8.455 -1.0465 -0.8426  0.0503
35270SOL    HW211647   1.011   4.705   8.592  0.6310 -0.4062 -0.5454
35271SOL     OW11648   8.174   8.239   4.943 -0.5691 -0.0257 -0.0556
35271SOL    HW111649   8.108   8.289   4.990  0.9743  0.5319  1.5981
35271SOL    HW211650   8.134   8.223   4.857 -1.3434  3.6101 -0.5484
35272SOL     OW11651   5.564   2.182   2.640 -0.0409 -0.8389 -0.5945
35272SOL    HW111652   5.548   2.272   2.610 -0.6559 -1.0975 -1.0350
35272SOL    HW211653   5.650   2.187   2.683 -1.4604  0.6915  2.3401
35273SOL     OW11654   4.928   8.389   4.804  0.1418  0.0953  0.4708
35273SOL    HW111655   4.959   8.478   4.822 -1.7663  0.6408  1.3879
35273SOL    HW211656   4.979   8.360   4.728 -0.4550  2.6890 -1.0511
35274SOL     OW11657   3.425   3.492   2.185  0.6400  0.1029  0.0066
35274SOL    HW111658   3.367   3.520   2.255  0.7334 -2.1081  1.0554
35274SOL    HW211659   3.513   3.517   2.214  0.5446  0.4254  0.0174
35275SOL     OW11660   4.193   0.768   4.132  0.5681  0.2149  0.4069
35275SOL    HW111661   4.149   0.691   4.168  0.3580 -0.4765 -1.2320
35275SOL    HW211662   4.194   0.831   4.204  1.2182 -1.4878  1.9675
35276SOL     OW11663   1.615   5.328   0.503  0.3264 -0.6683  0.4280
35276SOL    HW111664   1.584   5.376   0.426 -0.1298 -0.4913  0.7193
35276SOL    HW211665   1.535   5.299   0.547  0.5805 -1.8979  0.1320
35277SOL     OW11666  10.129   4.694   4.606  0.0785 -0.3017  0.3594
35277SOL    HW111667  10.070   4.721   4.535  2.3078  1.3121 -1.0377
35277SOL    HW211668  10.217   4.701   4.567  1.2208 -2.8561  2.2243
35278SOL     OW11669   4.963   7.600  10.878  0.3257  0.4878 -0.3053
35278SOL    HW111670   5.057   7.588  10.866  0.2389  0.3864 -0.9349
35278SOL    HW211671   4.926   7.585  10.791 -0.5142 -1.9045  0.3729
35279SOL     OW11672   3.895   9.105   9.567 -0.9329  0.1363 -0.1406
35279SOL    HW111673   3.981   9.064   9.577 -2.2998 -2.8235  0.3035
35279SOL    HW211674   3.881   9.152   9.650 -0.4268 -0.7179  0.4403
35280SOL     OW11675   9.896   1.617   3.405 -0.1545 -0.0008 -0.2796
35280SOL    HW111676   9.987   1.599   3.379 -0.0637  1.0502 -0.7713
35280SOL    HW211677   9.843   1.562   3.348  0.1656 -0.5049 -0.0973
35281SOL     OW11678   5.260   4.458   8.790 -0.3364 -0.3180  0.2823
35281SOL    HW111679   5.225   4.525   8.849  1.7831 -0.2536  1.5708
35281SOL    HW211680   5.352   4.450   8.816  0.3514 -1.2042 -2.2093
35282SOL     OW11681  10.515   9.905   5.768  0.3880 -0.1832 -0.1102
35282SOL    HW111682  10.497   9.821   5.725  1.1640  0.0228 -0.8623
35282SOL    HW211683  10.598   9.891   5.812 -0.2786 -0.3090  1.1380
35283SOL     OW11684   7.695   8.524   8.191 -0.0739 -0.6688 -0.3405
35283SOL    HW111685   7.627   8.559   8.249 -0.3937 -0.1992 -0.9795
35283SOL    HW211686   7.687   8.429   8.198 -1.0905 -0.6250 -0.7248
35284SOL     OW11687   1.589   3.399   2.188 -0.5728  0.3000 -0.8734
35284SOL    HW111688   1.647   3.383   2.113  4.1068  1.0348  2.1561
35284SOL    HW211689   1.618   3.484   2.223 -3.2855  0.5092  1.1840
35285SOL     OW11690  10.183   4.699   5.082 -0.3069 -0.1582 -0.0614
35285SOL    HW111691  10.107   4.758   5.088 -1.7458 -1.8447 -0.8699
35285SOL    HW211692  10.190   4.661   5.169 -0.9692 -0.6632 -0.2219
35286SOL     OW11693   7.290   3.093   3.419 -0.0222  0.5112 -0.0275
35286SOL    HW111694   7.223   3.055   3.474 -0.8961  1.4614 -0.3975
35286SOL    HW211695   7.368   3.097   3.475 -0.5537  0.3410  0.7396
35287SOL     OW11696   3.163   2.000   4.266 -0.2675 -0.3224 -0.0677
35287SOL    HW111697   3.084   2.011   4.320 -1.4953 -0.7773 -1.6981
35287SOL    HW211698   3.232   1.980   4.329 -1.3726  0.3760  1.4475
35288SOL     OW11699   9.765  10.092   6.500 -0.3149 -0.3544  0.0879
35288SOL    HW111700   9.789  10.175   6.460 -0.8897 -0.5350 -0.6743
35288SOL    HW211701   9.670  10.089   6.493 -0.3474 -0.8009  0.6691
35289SOL     OW11702   5.099   2.832   1.462 -1.1030 -0.2661  0.0981
35289SOL    HW111703   5.069   2.742   1.465 -1.7404 -0.0536  0.1420
35289SOL    HW211704   5.145   2.840   1.378 -0.8198 -0.6945  0.2099
35290SOL     OW11705   9.555   9.143   7.985 -0.6244 -0.4224  0.2085
35290SOL    HW111706   9.516   9.056   7.992  0.4345 -0.7753  2.6884
35290SOL    HW211707   9.514   9.193   8.055 -0.2699  0.7254 -0.3722
35291SOL     OW11708  10.351   7.201   6.138  0.7942  0.2672 -0.4482
35291SOL    HW111709  10.391   7.141   6.075  0.3445 -1.1456  0.5459
35291SOL    HW211710  10.423   7.256   6.168  1.0478  0.8625 -2.0290
35292SOL     OW11711   2.651   4.946   2.126 -0.0232 -0.3963  0.3786
35292SOL    HW111712   2.703   4.953   2.206  0.0881  0.7539  0.2276
35292SOL    HW211713   2.714   4.922   2.058  1.4459  5.1925 -0.7441
35293SOL     OW11714   7.139   8.476   1.727 -0.2101 -0.2514  0.0692
35293SOL    HW111715   7.045   8.463   1.742 -0.2533  0.1293  0.1516
35293SOL    HW211716   7.181   8.436   1.803 -0.1994 -1.9873 -0.8137
35294SOL     OW11717   4.602   9.422   1.989 -0.1967  0.7862  0.3050
35294SOL    HW111718   4.620   9.349   1.930 -0.1513  0.8675  0.2175
35294SOL    HW211719   4.684   9.472   1.989  0.7888 -0.6564  2.5086
35295SOL     OW11720   1.862   5.269  10.662  0.2179 -0.3063  0.0637
35295SOL    HW111721   1.937   5.214  10.636  1.2237  1.0234  0.0617
35295SOL    HW211722   1.857   5.260  10.757 -1.3201 -2.4662 -0.1409
35296SOL     OW11723   3.924  10.509   6.791 -0.0638  0.1052  0.5365
35296SOL    HW111724   3.875  10.446   6.844 -0.7308  0.0353 -0.1418
35296SOL    HW211725   3.922  10.590   6.843  0.1429 -0.2173  1.0609
35297SOL     OW11726   3.188   9.847   5.810 -0.0909  0.4118 -0.6354
35297SOL    HW111727   3.108   9.868   5.761 -0.5071  0.8211  0.1953
35297SOL    HW211728   3.157   9.821   5.897  0.6626  0.1669 -0.4291
35298SOL     OW11729   2.411   8.072   8.556  0.1136 -0.2910  0.1580
35298SOL    HW111730   2.431   8.093   8.464  2.4233  0.2742  0.7328
35298SOL    HW211731   2.493   8.037   8.591 -0.8356 -0.8568  1.9310
35299SOL     OW11732   8.577   7.577   6.549 -0.3113  0.2421 -0.3061
35299SOL    HW111733   8.619   7.507   6.498  0.0113 -1.0562  1.6616
35299SOL    HW211734   8.650   7.628   6.584 -0.4186 -0.4263  0.9382
35300SOL     OW11735   7.149   3.494   0.135 -0.1668  0.2728 -0.3790
35300SOL    HW111736   7.105   3.479   0.052  0.4628  0.4719 -0.7542
35300SOL    HW211737   7.137   3.412   0.183 -1.5537  0.5622 -0.1739
35301SOL     OW11738   1.542   8.888   9.523  0.3816  0.8619  0.0630
35301SOL    HW111739   1.550   8.839   9.605  0.5841  0.1660 -0.3603
35301SOL    HW211740   1.554   8.822   9.455  0.0405  1.4039 -0.5305
35302SOL     OW11741   4.137   3.293   6.494 -0.0080  0.0439 -0.5124
35302SOL    HW111742   4.195   3.354   6.449 -0.4033 -0.3432 -1.5602
35302SOL    HW211743   4.127   3.331   6.582  1.4223  0.3698 -0.4603
35303SOL     OW11744   1.990   1.867   1.964  0.2327  0.1896 -1.1831
35303SOL    HW111745   1.965   1.775   1.957 -1.7056  0.5755 -0.1323
35303SOL    HW211746   1.947   1.909   1.890 -2.3359  0.8263  0.5268
35304SOL     OW11747   7.865   5.874   4.228 -0.0709 -0.3052 -0.2461
35304SOL    HW111748   7.892   5.935   4.159  0.3208 -1.7979 -1.4685
35304SOL    HW211749   7.947   5.850   4.272 -0.2962  0.4810  0.6242
35305SOL     OW11750   4.216   8.009   7.164 -0.3711  0.0353  0.1796
35305SOL    HW111751   4.239   8.009   7.071  1.7610 -1.0294  0.6589
35305SOL    HW211752   4.187   7.919   7.181 -3.0390  0.7934  0.0908
35306SOL     OW11753   9.270   1.028  10.536  0.2943 -0.3441  0.7360
35306SOL    HW111754   9.242   0.952  10.485 -0.6077 -0.8172  1.8728
35306SOL    HW211755   9.360   1.044  10.508  0.5349 -1.8992  0.5204
35307SOL     OW11756   5.375   3.811   0.872  0.4185  0.8917  0.0040
35307SOL    HW111757   5.379   3.901   0.842  2.6467  0.2371 -2.0411
35307SOL    HW211758   5.440   3.805   0.942  1.3495  0.5891 -0.8657
35308SOL     OW11759   5.825   1.077   0.019  0.5790  0.1962  0.2082
35308SOL    HW111760   5.908   1.105  -0.020  0.8989  0.5063  1.0980
35308SOL    HW211761   5.783   1.158   0.048  0.2539 -0.0115  0.3265
35309SOL     OW11762   2.015  10.612   5.195 -0.0804  0.1311 -0.0815
35309SOL    HW111763   2.046  10.700   5.173 -1.6000  0.8420  0.4789
35309SOL    HW211764   2.033  10.560   5.116  0.6167  0.9846 -0.5099
35310SOL     OW11765   9.183   3.331   1.590  0.3105 -0.1548  0.5293
35310SOL    HW111766   9.231   3.280   1.524  0.8833  0.6489  0.3135
35310SOL    HW211767   9.221   3.419   1.584 -0.1255  0.0996  1.4449
35311SOL     OW11768   7.163   3.741   4.785  0.5527  0.4582 -0.2971
35311SOL    HW111769   7.231   3.789   4.833  1.6163 -1.3683  0.1236
35311SOL    HW211770   7.208   3.705   4.709  0.7847 -2.8311  1.2451
35312SOL     OW11771   8.306  10.262  10.862  0.2598 -0.4622 -0.7919
35312SOL    HW111772   8.339  10.218  10.940 -0.3362 -0.7806 -0.7159
35312SOL    HW211773   8.237  10.320  10.894 -0.4970 -1.1417 -1.1680
35313SOL     OW11774   1.260   3.794   1.745  0.2885 -0.5932 -0.6339
35313SOL    HW111775   1.288   3.831   1.828 -0.8397  0.9935 -0.9177
35313SOL    HW211776   1.305   3.846   1.678  0.8583 -1.5767 -1.0435
35314SOL     OW11777   3.586   4.633   1.446  0.4454  0.0628  0.2973
35314SOL    HW111778   3.672   4.645   1.487  0.6679  0.2319 -0.2116
35314SOL    HW211779   3.524   4.671   1.508  0.7024 -0.3681  0.8258
35315SOL     OW11780   9.210   0.899   5.568 -0.1217 -0.2839 -0.3528
35315SOL    HW111781   9.230   0.815   5.525 -0.2075 -0.8162  0.6287
35315SOL    HW211782   9.171   0.874   5.652  0.9110  0.7272  0.4533
35316SOL     OW11783   1.599   3.599   4.245  0.1057 -0.2200  0.4336
35316SOL    HW111784   1.522   3.610   4.302 -0.1992  0.2094 -0.0551
35316SOL    HW211785   1.626   3.508   4.259  0.0869 -0.0959  1.3266
35317SOL     OW11786   7.796   2.005   5.127 -0.3046  0.1608 -0.5123
35317SOL    HW111787   7.811   2.082   5.071  2.9462  0.6587  0.8093
35317SOL    HW211788   7.821   1.931   5.072 -0.7266  0.2853 -0.8838
35318SOL     OW11789   3.685   6.360   9.932  0.1776  0.1553  0.1365
35318SOL    HW111790   3.749   6.330   9.867  0.2460 -2.7313  1.3588
35318SOL    HW211791   3.604   6.371   9.882  0.5722 -0.5994 -0.7083
35319SOL     OW11792  10.072   2.747   7.214  0.3272 -1.1263 -0.1946
35319SOL    HW111793  10.157   2.787   7.194  0.0975 -0.7554 -0.4544
35319SOL    HW211794  10.051   2.695   7.136 -0.6885  0.5243 -1.0933
35320SOL     OW11795   4.782   5.541   7.313  0.3046  0.4614  0.1902
35320SOL    HW111796   4.870   5.542   7.352  0.3070 -2.2324  0.4347
35320SOL    HW211797   4.766   5.449   7.292 -1.3728  1.2449 -2.4208
35321SOL     OW11798   5.485   1.712   8.929  0.1493  0.1822 -0.3909
35321SOL    HW111799   5.498   1.731   9.022  0.4124 -1.2698 -0.1131
35321SOL    HW211800   5.401   1.667   8.925  1.1517 -1.7974 -0.5255
35322SOL     OW11801   6.524   0.920   2.814 -0.1628  0.5154 -0.4227
35322SOL    HW111802   6.496   0.989   2.754  0.4065  0.2816 -0.9711
35322SOL    HW211803   6.494   0.949   2.900 -0.1473  1.3272 -0.6827
35323SOL     OW11804  10.125   7.858   8.957  0.1314 -0.0086  0.2807
35323SOL    HW111805  10.181   7.907   8.896  0.4072 -1.5538 -0.7497
35323SOL    HW211806  10.052   7.829   8.903 -0.8211  0.5411  1.2404
35324SOL     OW11807   2.390   4.478   9.275 -0.6084  0.1837 -0.2095
35324SOL    HW111808   2.384   4.394   9.320 -1.9583  0.8564  0.9731
35324SOL    HW211809   2.413   4.540   9.343  1.1225  0.7043 -1.2109
35325SOL     OW11810   6.193   7.683   0.278 -0.3225 -0.1075 -0.2252
35325SOL    HW111811   6.246   7.692   0.357 -0.2046  0.0530 -0.3201
35325SOL    HW211812   6.221   7.600   0.240  0.4564  0.3617 -0.7054
35326SOL     OW11813   5.279   0.650  10.594 -0.0365 -0.0323 -0.0939
35326SOL    HW111814   5.322   0.706  10.529  0.7581 -0.0035  0.4343
35326SOL    HW211815   5.341   0.578  10.608 -0.6343 -0.5445 -0.0827
35327SOL     OW11816   3.829   7.214  10.248 -1.0038 -0.2162 -0.4869
35327SOL    HW111817   3.752   7.258  10.284 -0.0296  0.4242  0.9226
35327SOL    HW211818   3.818   7.122  10.272 -1.4370 -0.1708 -0.5075
35328SOL     OW11819   7.227   0.432   1.502 -0.3294  0.6065  0.1137
35328SOL    HW111820   7.253   0.471   1.419 -2.0414 -0.8442 -1.1795
35328SOL    HW211821   7.160   0.491   1.537  1.1872  1.8272  1.1039
35329SOL     OW11822   5.115   0.567   6.557 -0.2705 -0.3176  0.3685
35329SOL    HW111823   5.205   0.598   6.568 -0.8370  1.4703  0.2817
35329SOL    HW211824   5.077   0.625   6.491 -1.1838 -1.7356 -0.4045
35330SOL     OW11825   0.382   5.740   8.426  0.3072  0.0088 -0.3745
35330SOL    HW111826   0.337   5.781   8.500  1.1578 -0.6784  0.5391
35330SOL    HW211827   0.318   5.678   8.391  1.4220 -3.1796  2.7778
35331SOL     OW11828   6.507   0.728   6.029 -0.5728 -0.3944 -0.5401
35331SOL    HW111829   6.583   0.745   5.974 -0.8874 -1.2190 -1.2594
35331SOL    HW211830   6.542   0.715   6.117  0.0506 -0.1551 -0.7522
35332SOL     OW11831   3.784   7.731   0.368  0.7588 -0.6925  0.2407
35332SOL    HW111832   3.831   7.795   0.315 -2.5616  0.4063 -1.6272
35332SOL    HW211833   3.749   7.782   0.441 -0.9593 -0.5269 -0.6535
35333SOL     OW11834   2.684   8.546   9.839 -0.1201 -0.0803 -0.5362
35333SOL    HW111835   2.635   8.623   9.868 -0.2799 -0.6949  0.9213
35333SOL    HW211836   2.672   8.544   9.744 -1.4434  0.7821 -0.4090
35334SOL     OW11837   2.810   9.620  10.899 -0.1572  0.3260 -0.0332
35334SOL    HW111838   2.796   9.715  10.899 -1.4957  0.1540  0.7452
35334SOL    HW211839   2.733   9.585  10.944  0.8342 -1.0651  0.6271
35335SOL     OW11840   6.986   5.479   3.311  0.4844  0.1926  0.0352
35335SOL    HW111841   6.982   5.383   3.310 -3.0427  0.2126  0.4108
35335SOL    HW211842   6.972   5.504   3.220  0.8302  0.3723  0.0295
35336SOL     OW11843   7.856   5.591   6.626 -0.2733 -0.3967  0.2566
35336SOL    HW111844   7.798   5.612   6.553  1.6558  4.1107 -0.3605
35336SOL    HW211845   7.803   5.609   6.704 -1.6407 -3.0707  0.0672
35337SOL     OW11846  10.070   3.969   7.164 -0.8323  0.4723 -0.1321
35337SOL    HW111847  10.043   4.007   7.247  0.8060  0.3861  0.4790
35337SOL    HW211848  10.063   4.041   7.101 -1.1736  0.7960  0.2686
35338SOL     OW11849   2.946   0.427   3.077  0.3786 -0.1852  0.5052
35338SOL    HW111850   2.879   0.492   3.053  0.2529 -0.1756  0.8861
35338SOL    HW211851   2.902   0.343   3.066 -0.0222 -0.1532  1.7261
35339SOL     OW11852   5.089   7.471   9.858 -0.4809 -0.4592  0.1058
35339SOL    HW111853   5.140   7.519   9.922 -1.6287  0.1366  0.6046
35339SOL    HW211854   5.021   7.532   9.830 -1.3183 -1.4263 -0.0559
35340SOL     OW11855   0.698   7.912   6.123  0.3610  0.4855  0.0220
35340SOL    HW111856   0.707   8.002   6.153 -1.2517  0.0963  1.9180
35340SOL    HW211857   0.711   7.916   6.028  2.6620  2.3024  0.3205
35341SOL     OW11858  10.706   6.740   8.870  0.0097  0.1540  0.0830
35341SOL    HW111859  10.657   6.788   8.803 -0.2211  1.8094  1.3535
35341SOL    HW211860  10.796   6.740   8.838 -0.2098  0.3131 -0.5512
35342SOL     OW11861   1.655  10.676   2.409 -0.2742 -0.1212 -0.0837
35342SOL    HW111862   1.737  10.717   2.380  0.3703 -2.7619 -2.5290
35342SOL    HW211863   1.624  10.731   2.481  1.6764  3.1284 -1.5017
35343SOL     OW11864   6.794   3.916   1.096 -0.4919 -0.2609  0.0854
35343SOL    HW111865   6.807   3.964   1.178  0.4729 -0.1965 -0.0852
35343SOL    HW211866   6.753   3.834   1.122  0.5648 -0.5980  0.7490
35344SOL     OW11867   5.037   8.088   2.327  0.1194 -0.5734  0.6605
35344SOL    HW111868   5.122   8.124   2.303 -0.6351  0.2303 -0.9409
35344SOL    HW211869   4.995   8.157   2.379 -0.8761  0.5354 -1.4641
35345SOL     OW11870   6.539   0.595   7.512 -0.1570  0.1778 -0.4225
35345SOL    HW111871   6.458   0.587   7.460 -0.5735  0.6017  0.1516
35345SOL    HW211872   6.566   0.686   7.500 -0.1179  0.2087 -0.0909
35346SOL     OW11873   2.049   3.646   2.990  0.0811 -0.2812  0.2292
35346SOL    HW111874   2.101   3.584   2.939 -1.1461  0.5687 -2.2518
35346SOL    HW211875   1.972   3.597   3.018  0.0646 -0.4013 -0.0231
35347SOL     OW11876   4.757   1.680   5.756  0.1655 -0.0254 -0.7133
35347SOL    HW111877   4.682   1.654   5.810  0.4091 -1.4643 -1.0202
35347SOL    HW211878   4.826   1.700   5.820 -0.4225  1.1784 -0.4345
35348SOL     OW11879   7.436   0.740   8.227 -0.1168  0.0796  0.4672
35348SOL    HW111880   7.384   0.815   8.255  0.0804 -0.1203  1.4013
35348SOL    HW211881   7.457   0.758   8.135  0.4746  1.4694  0.8517
35349SOL     OW11882   6.235   9.327  10.773  0.3451 -0.2559  0.2687
35349SOL    HW111883   6.237   9.366  10.686  0.5661 -0.0774  0.3540
35349SOL    HW211884   6.260   9.398  10.832  2.6154 -0.9754  0.2617
35350SOL     OW11885   4.291   1.253   9.251 -0.3111  0.5606 -0.2431
35350SOL    HW111886   4.312   1.231   9.342  0.3410  2.4328  0.1158
35350SOL    HW211887   4.376   1.259   9.207 -0.6539 -1.0101 -1.1864
35351SOL     OW11888   2.595   2.956   9.197 -0.2218  0.0664 -0.9908
35351SOL    HW111889   2.609   2.971   9.103  1.7482  0.1836 -0.7119
35351SOL    HW211890   2.618   2.864   9.210  0.5751  0.3327 -0.4532
35352SOL     OW11891   1.829   1.514   8.768 -0.1087 -0.2258  0.2666
35352SOL    HW111892   1.802   1.423   8.780  0.5139 -0.5878 -0.9206
35352SOL    HW211893   1.793   1.560   8.844 -1.0377 -1.3227  0.5171
35353SOL     OW11894   5.679   9.269   4.118 -0.3707 -0.0487 -0.0376
35353SOL    HW111895   5.687   9.364   4.120 -1.6379  0.1523 -1.9866
35353SOL    HW211896   5.765   9.238   4.091  0.5540  0.3727  2.2105
35354SOL     OW11897   6.563  10.104  10.430 -0.3977 -0.3054  0.0416
35354SOL    HW111898   6.602  10.160  10.497  1.0436  0.5204 -1.4175
35354SOL    HW211899   6.601  10.017  10.445  0.3699  0.0095 -0.0363
35355SOL     OW11900   6.696  10.562   4.354 -0.5760  0.4071  0.0060
35355SOL    HW111901   6.710  10.468   4.356  1.7253  0.6132 -2.3033
35355SOL    HW211902   6.602  10.572   4.337 -0.7958 -1.4588 -0.0094
35356SOL     OW11903   6.653   0.337   1.695 -0.1079 -0.3201  0.0165
35356SOL    HW111904   6.616   0.311   1.779 -2.5406  0.4542 -0.7345
35356SOL    HW211905   6.641   0.261   1.639  0.1520 -0.3163 -0.0471
35357SOL     OW11906  10.458  10.699   8.604 -0.4345  0.0198 -0.1590
35357SOL    HW111907  10.513  10.622   8.594 -0.1990  0.2173 -0.4077
35357SOL    HW211908  10.392  10.673   8.668 -1.1336 -0.8164 -1.1844
35358SOL     OW11909  10.751   1.376   8.187  0.6640  0.2774 -0.2520
35358SOL    HW111910  10.781   1.298   8.142 -0.8852  0.7700 -2.2916
35358SOL    HW211911  10.655   1.368   8.190  0.5870  1.2558  1.1194
35359SOL     OW11912   4.157   9.610   0.725  0.3595 -0.1242 -0.3986
35359SOL    HW111913   4.247   9.618   0.758  0.1220 -1.7303  0.7370
35359SOL    HW211914   4.121   9.698   0.734  1.8898  0.6324 -1.1711
35360SOL     OW11915   8.192   3.794   7.412  0.0113  0.2139  0.0077
35360SOL    HW111916   8.140   3.828   7.486  0.8732 -0.2412  0.8489
35360SOL    HW211917   8.183   3.699   7.419 -2.1363  0.1678 -2.1487
35361SOL     OW11918  10.892   3.005   4.246  0.3337 -0.1192  0.5051
35361SOL    HW111919  10.865   3.081   4.298 -0.2158  1.3751 -1.7813
35361SOL    HW211920  10.987   3.015   4.238  0.4680 -0.5662  1.5066
35362SOL     OW11921  10.544   4.052  10.039  0.2596  0.1642  0.4790
35362SOL    HW111922  10.603   3.990   9.996 -1.9415 -3.1772  1.8855
35362SOL    HW211923  10.594   4.085  10.113  0.7956 -1.8392  1.0760
35363SOL     OW11924   3.707   7.821   6.794  0.3057  0.1336 -0.0935
35363SOL    HW111925   3.769   7.884   6.833  0.2430  0.1803 -0.0699
35363SOL    HW211926   3.738   7.736   6.824  1.5616 -0.0271 -1.6963
35364SOL     OW11927   3.567  10.388   2.423  0.4553 -0.1806  0.2537
35364SOL    HW111928   3.514  10.423   2.352 -1.1029 -2.0244  0.4284
35364SOL    HW211929   3.598  10.466   2.471 -0.8163  0.9920 -0.7652
35365SOL     OW11930   3.658   5.051   4.903 -0.0665  0.6543  0.0783
35365SOL    HW111931   3.569   5.073   4.874  0.1669  0.4927 -0.8086
35365SOL    HW211932   3.659   5.071   4.996 -0.7818  1.4655 -0.0788
35366SOL     OW11933   8.769   9.498   6.962 -0.0852 -0.0278 -0.3309
35366SOL    HW111934   8.831   9.445   6.913  0.0147  0.6063 -0.9071
35366SOL    HW211935   8.749   9.572   6.904  0.3966  0.9923  0.7577
35367SOL     OW11936   7.981   1.094   5.281  0.6405  0.1741 -0.2446
35367SOL    HW111937   8.014   1.030   5.344  0.8619 -0.3143 -0.8413
35367SOL    HW211938   8.052   1.158   5.272  0.8026 -0.0217 -0.3627
35368SOL     OW11939   3.013  10.137   7.234  0.3665 -0.0656  0.5244
35368SOL    HW111940   2.934  10.096   7.199  1.0404  0.4349 -1.7633
35368SOL    HW211941   2.992  10.231   7.234  1.3481  0.2010 -1.3655
35369SOL     OW11942  10.581   3.420   9.888  0.2032  0.0203 -0.3057
35369SOL    HW111943  10.502   3.416   9.833 -0.2357  1.1249  0.2088
35369SOL    HW211944  10.561   3.364   9.962  0.0336  0.0119 -0.3555
35370SOL     OW11945   4.168   6.721   4.316  0.4034  0.1298 -0.1123
35370SOL    HW111946   4.146   6.768   4.396 -0.3762 -0.2111 -0.1162
35370SOL    HW211947   4.203   6.788   4.258 -0.3193  0.6346  0.0227
35371SOL     OW11948   5.493   1.263   4.243 -0.4078  0.0311  0.4063
35371SOL    HW111949   5.530   1.305   4.321 -1.2019 -0.4608  1.0675
35371SOL    HW211950   5.542   1.300   4.170  0.1181  0.7628  1.1143
35372SOL     OW11951   6.780   1.782   1.968  0.5575 -0.0252 -0.1159
35372SOL    HW111952   6.748   1.691   1.970  0.1452  0.1343  1.4220
35372SOL    HW211953   6.843   1.787   2.040  0.3861  0.9881 -0.0293
35373SOL     OW11954   9.348   4.814   0.189 -0.1841 -0.0706  0.2961
35373SOL    HW111955   9.303   4.760   0.254 -0.5080 -0.2821 -0.0977
35373SOL    HW211956   9.441   4.798   0.205 -0.1737  1.4587  2.0505
35374SOL     OW11957   8.897   4.834   1.736  0.1189 -0.1110  0.0117
35374SOL    HW111958   8.938   4.767   1.791 -1.5092 -1.2953 -0.1403
35374SOL    HW211959   8.918   4.808   1.646 -1.4911 -1.1727 -0.1077
35375SOL     OW11960   9.278   8.140   4.552  0.2217 -0.9474 -0.5156
35375SOL    HW111961   9.207   8.079   4.534  0.0999 -0.4556 -1.8425
35375SOL    HW211962   9.352   8.108   4.500  0.4851 -0.5791 -0.3761
35376SOL     OW11963   9.250   2.955   8.864  0.1399  0.4494  0.5737
35376SOL    HW111964   9.158   2.959   8.889  0.4573  0.7482  1.7424
35376SOL    HW211965   9.290   3.030   8.909  1.1352 -0.2328  0.8441
35377SOL     OW11966   9.466   7.198   0.310 -0.6198 -0.4762  0.1600
35377SOL    HW111967   9.553   7.223   0.278 -1.0682  2.4224  0.9520
35377SOL    HW211968   9.468   7.216   0.404 -1.7677 -1.4102  0.3882
35378SOL     OW11969   9.176   8.607   7.567  0.1762  0.5527  0.7952
35378SOL    HW111970   9.235   8.556   7.512  0.7385  0.9224  1.0563
35378SOL    HW211971   9.214   8.603   7.654 -0.2652  0.6743  0.9980
35379SOL     OW11972   5.194   6.141   8.988  0.2314  0.2415  0.2378
35379SOL    HW111973   5.111   6.122   8.945 -0.7960 -2.7204  3.0354
35379SOL    HW211974   5.174   6.212   9.050  0.5935  1.4850 -1.0262
35380SOL     OW11975   0.140   6.462   1.068 -0.0297  0.7611 -0.3045
35380SOL    HW111976   0.064   6.505   1.107 -0.3993 -0.9187  0.9374
35380SOL    HW211977   0.215   6.504   1.109 -0.3869  0.0876  1.0914
35381SOL     OW11978   0.074   5.537   1.405  0.9900  0.3310  0.9186
35381SOL    HW111979   0.152   5.584   1.375 -0.5312  1.1559 -2.1545
35381SOL    HW211980   0.058   5.471   1.337  0.1777 -1.3029  2.5881
35382SOL     OW11981   7.847   7.716   1.226  0.2456 -0.4414 -0.6650
35382SOL    HW111982   7.846   7.638   1.170 -0.0207  0.1132 -1.4486
35382SOL    HW211983   7.851   7.790   1.164  0.9643  0.1590  0.0705
35383SOL     OW11984   3.828   7.234   9.968  0.0172  0.1379  0.4489
35383SOL    HW111985   3.746   7.247   9.921  0.7152  0.3749 -0.7581
35383SOL    HW211986   3.805   7.244  10.060 -1.4415 -0.5552  0.1885
35384SOL     OW11987   4.092   3.224   1.320 -0.5539  0.5929 -0.3442
35384SOL    HW111988   4.065   3.169   1.247 -1.2799 -0.0470  0.3885
35384SOL    HW211989   4.173   3.183   1.352 -2.0883 -1.3017  1.4256
35385SOL     OW11990   2.791   8.727   6.788  0.3497 -0.1503  0.2227
35385SOL    HW111991   2.710   8.754   6.832  0.0844 -2.0797  1.0427
35385SOL    HW211992   2.857   8.725   6.857  0.8072  0.2328 -0.1975
35386SOL     OW11993   9.394   1.651   7.626 -0.2023 -0.4321  0.2708
35386SOL    HW111994   9.378   1.580   7.564  0.3345 -1.9559  1.8001
35386SOL    HW211995   9.308   1.671   7.662 -0.1536 -1.3862  0.9414
35387SOL     OW11996   6.204   0.468   4.671 -0.2015 -0.2866 -0.2703
35387SOL    HW111997   6.108   0.469   4.666 -0.2491  0.9748  0.4721
35387SOL    HW211998   6.233   0.499   4.585 -0.5513  2.0784  0.4006
35388SOL     OW11999   5.715   7.350   6.806  0.2352  0.1330 -0.2376
35388SOL    HW112000   5.776   7.351   6.881  0.8736 -0.2645 -0.7393
35388SOL    HW212001   5.728   7.435   6.765  0.4413  0.0610 -0.3268
35389SOL     OW12002  10.534   6.072   4.039  0.5028 -0.1386 -0.1204
35389SOL    HW112003  10.497   5.993   3.998  0.3333  0.7577 -1.7664
35389SOL    HW212004  10.463   6.136   4.035  1.0397  0.4694  0.1203
35390SOL     OW12005   6.084   0.156   5.602  0.1100 -0.2631  0.0326
35390SOL    HW112006   6.170   0.113   5.602  1.0323  1.5150 -0.1783
35390SOL    HW212007   6.102   0.247   5.624 -1.6122  0.3650 -0.9257
35391SOL     OW12008   1.303   7.992   3.106 -0.3591 -0.6756 -0.0359
35391SOL    HW112009   1.332   7.949   3.026 -0.2540  0.0864 -0.4160
35391SOL    HW212010   1.295   8.085   3.082  0.3758 -0.3196  1.0177
35392SOL     OW12011  10.421   6.959   3.484  0.0932 -0.1302 -0.6605
35392SOL    HW112012  10.516   6.972   3.481  0.1387 -0.6486 -1.9311
35392SOL    HW212013  10.391   6.976   3.395 -0.7368 -1.8522 -0.7646
35393SOL     OW12014   8.451   7.654   2.072  0.3293  0.0323  0.1622
35393SOL    HW112015   8.443   7.565   2.037 -0.1940  0.4282 -0.7657
35393SOL    HW212016   8.432   7.710   1.997 -0.0822  0.9221  0.9247
35394SOL     OW12017   5.164   5.685   9.022  0.8789 -0.9070 -0.2197
35394SOL    HW112018   5.133   5.757   8.967  0.7491 -0.6747  0.1616
35394SOL    HW212019   5.102   5.614   9.007  1.1075 -1.0076 -0.7338
35395SOL     OW12020   2.842   6.007   0.700  0.4059  0.1625 -0.2245
35395SOL    HW112021   2.819   6.097   0.676 -2.1251 -0.8165 -1.7611
35395SOL    HW212022   2.868   5.966   0.618  0.1611 -0.8932  0.2058
35396SOL     OW12023   6.884  10.675   7.565  0.6253  0.2928  0.6099
35396SOL    HW112024   6.857  10.767   7.571  0.2591  0.2024  0.4077
35396SOL    HW212025   6.806  10.626   7.591  0.4528  0.0174 -0.3686
35397SOL     OW12026   9.984   4.373   0.836  0.0991 -0.7796 -0.7826
35397SOL    HW112027  10.040   4.439   0.797 -1.6505  2.3921  1.5926
35397SOL    HW212028  10.045   4.305   0.866  2.6063  1.7559  0.3549
35398SOL     OW12029   4.153   0.328   1.824  0.0461  0.2048 -0.4240
35398SOL    HW112030   4.120   0.262   1.763 -1.0091 -0.1224  0.4563
35398SOL    HW212031   4.077   0.383   1.842  0.1964 -0.0001  0.9395
35399SOL     OW12032   9.190   7.657   7.014 -0.1843  0.0294 -0.1939
35399SOL    HW112033   9.278   7.623   7.025 -0.5836 -0.6398  1.1836
35399SOL    HW212034   9.134   7.580   7.019 -0.9415  0.6035  0.4842
35400SOL     OW12035   7.931   0.193  10.206 -0.0569  0.1075  0.5139
35400SOL    HW112036   7.918   0.213  10.114  0.4812 -0.8140  0.2236
35400SOL    HW212037   7.966   0.274  10.243  1.0570  0.0643 -0.3897
35401SOL     OW12038   9.001   9.226   7.612  0.0209  0.2960  0.2934
35401SOL    HW112039   9.000   9.321   7.626 -1.4573  0.1314  1.5272
35401SOL    HW212040   9.015   9.189   7.699 -1.9042 -0.6332  0.2680
35402SOL     OW12041   3.104   1.617   5.466 -0.0550 -0.0997 -0.5659
35402SOL    HW112042   3.032   1.560   5.493  0.3760  0.2310  1.4839
35402SOL    HW212043   3.062   1.688   5.418 -1.2028  0.4227  1.1318
35403SOL     OW12044   2.093   8.387   3.357 -0.4401 -0.0558  0.2760
35403SOL    HW112045   2.150   8.406   3.432 -1.0252  1.7251  0.3096
35403SOL    HW212046   2.019   8.339   3.395  1.1885 -2.8723  0.1523
35404SOL     OW12047   3.501  10.907   7.287  0.6651 -0.6220 -0.0476
35404SOL    HW112048   3.529  10.934   7.200 -0.9083 -1.1774 -0.7544
35404SOL    HW212049   3.556  10.958   7.347  0.0742  1.6361 -1.3314
35405SOL     OW12050   7.086   7.523   9.078  0.9049  0.3631 -0.4822
35405SOL    HW112051   7.175   7.546   9.050  0.8089  1.0318 -0.2690
35405SOL    HW212052   7.094   7.436   9.116  1.8169  1.0870  1.1092
35406SOL     OW12053   2.251   9.750   3.482  0.2935 -0.2052 -0.1297
35406SOL    HW112054   2.166   9.752   3.526  0.5112 -0.6658  0.3262
35406SOL    HW212055   2.230   9.723   3.392  0.1342 -2.3827  0.4921
35407SOL     OW12056   9.016   7.035   9.720  0.3159 -0.7058 -0.4264
35407SOL    HW112057   8.963   6.955   9.715  0.0096 -0.5306 -0.0627
35407SOL    HW212058   8.969   7.090   9.782 -0.5237  0.5639 -2.1239
35408SOL     OW12059   5.527   9.968   3.636 -0.2059  0.1960  0.3400
35408SOL    HW112060   5.525   9.946   3.729 -0.4835  0.8666  0.4958
35408SOL    HW212061   5.594   9.909   3.599 -0.0887 -0.0667  0.9610
35409SOL     OW12062   5.052  10.733   8.643  0.2911 -0.0445  0.5802
35409SOL    HW112063   4.978  10.695   8.595 -0.4172  0.4185  1.2650
35409SOL    HW212064   5.021  10.821   8.668  1.1247  0.2009  0.7652
35410SOL     OW12065   5.119   1.295   8.527  0.0145  0.3874 -0.2066
35410SOL    HW112066   5.198   1.291   8.474 -0.0726  0.4802 -0.3457
35410SOL    HW212067   5.076   1.211   8.513  0.3429  0.1353  0.2729
35411SOL     OW12068   7.891   0.999   5.940 -0.3338 -0.0926 -0.1003
35411SOL    HW112069   7.803   1.012   5.975  0.7118  2.5537  1.8525
35411SOL    HW212070   7.898   1.062   5.869  0.0314 -0.2868 -0.2389
35412SOL     OW12071   8.727   0.156   3.782 -0.5157  0.1263  0.4480
35412SOL    HW112072   8.640   0.195   3.773 -0.6040 -0.0607  0.5046
35412SOL    HW212073   8.718   0.090   3.851 -0.9076 -1.5571 -1.1476
35413SOL     OW12074   9.871  10.400   9.068  0.2020 -0.0512  0.2240
35413SOL    HW112075   9.802  10.342   9.098  0.1540  0.6296  1.5061
35413SOL    HW212076   9.845  10.487   9.099  0.7822  0.4874 -0.7568
35414SOL     OW12077   7.500   6.224   2.584 -0.8019  0.2074 -0.4181
35414SOL    HW112078   7.417   6.176   2.583 -0.6852  0.0041 -1.4089
35414SOL    HW212079   7.564   6.159   2.612 -0.9863  0.4216  0.5739
35415SOL     OW12080  10.530  10.015   4.303  0.1167 -0.1608 -0.2283
35415SOL    HW112081  10.621   9.987   4.298  0.1808 -0.3497  1.3391
35415SOL    HW212082  10.483   9.937   4.332 -0.0307  0.7014  2.0749
35416SOL     OW12083   1.284   2.284   0.116  0.1419  0.7623 -0.0255
35416SOL    HW112084   1.197   2.295   0.079 -0.2516  0.8212  0.8872
35416SOL    HW212085   1.317   2.373   0.128  0.4152  0.7381 -0.5414
35417SOL     OW12086   9.034   3.717   6.651  0.0095  0.5859 -0.3374
35417SOL    HW112087   9.045   3.799   6.602  0.4878  0.0298 -1.1807
35417SOL    HW212088   8.986   3.743   6.730 -1.3761  1.3923 -1.3974
35418SOL     OW12089   9.490  10.513   1.150  0.4314  0.0999 -0.1885
35418SOL    HW112090   9.560  10.529   1.213 -1.1984  1.8731  1.3032
35418SOL    HW212091   9.434  10.447   1.191  0.4850 -0.3026 -0.7475
35419SOL     OW12092   3.100   5.820   2.597 -0.3739 -0.1837 -0.2071
35419SOL    HW112093   3.182   5.843   2.552 -0.3277 -0.1554 -0.1096
35419SOL    HW212094   3.110   5.728   2.618 -0.9754 -0.5548 -1.4802
35420SOL     OW12095   0.474   8.283   7.870  0.3352  0.6398 -0.0877
35420SOL    HW112096   0.500   8.293   7.962 -0.0126  0.6239  0.0154
35420SOL    HW212097   0.547   8.236   7.830 -0.6191 -1.7768  0.7910
35421SOL     OW12098   2.385   3.842   7.839 -0.3807  0.0898  0.2860
35421SOL    HW112099   2.334   3.848   7.759  0.3148  1.7363 -0.0689
35421SOL    HW212100   2.470   3.879   7.817 -0.6397  1.9879  2.1353
35422SOL     OW12101   9.429   0.983   4.454  0.8517 -0.0897  0.5259
35422SOL    HW112102   9.448   0.977   4.360 -0.1886 -0.0977  0.3065
35422SOL    HW212103   9.445   0.894   4.487 -1.0498 -0.7175 -0.1052
35423SOL     OW12104   5.116   0.804   3.140  0.0326  0.0482  0.0448
35423SOL    HW112105   5.186   0.834   3.081  0.2042  1.2825  0.8453
35423SOL    HW212106   5.110   0.872   3.207  0.2740 -1.6063  1.8375
35424SOL     OW12107   4.629   3.707   3.446  0.4035 -0.0541 -0.4540
35424SOL    HW112108   4.688   3.674   3.513  1.1857 -0.8178 -1.4942
35424SOL    HW212109   4.677   3.696   3.364 -0.3038  1.3789 -1.0982
35425SOL     OW12110   4.440   9.458   6.677 -0.8029 -0.4650  0.3974
35425SOL    HW112111   4.495   9.484   6.750  0.8436 -0.3279 -0.8344
35425SOL    HW212112   4.458   9.365   6.665  1.6112  0.1850 -1.9064
35426SOL     OW12113   8.849   1.416   2.114 -0.3343 -0.2551 -0.0130
35426SOL    HW112114   8.877   1.339   2.065  2.5551 -0.3394  1.5585
35426SOL    HW212115   8.754   1.420   2.100 -0.1039 -1.9697 -3.0476
35427SOL     OW12116   8.859   9.239   3.875  0.1210 -0.0295  0.3009
35427SOL    HW112117   8.885   9.259   3.965 -1.4576  0.3113  0.7111
35427SOL    HW212118   8.775   9.194   3.885 -1.6282  2.6686 -1.0886
35428SOL     OW12119   3.649   8.293   0.136  0.1676 -0.6115 -0.1040
35428SOL    HW112120   3.575   8.304   0.077 -0.3651  0.6644  0.7731
35428SOL    HW212121   3.612   8.301   0.224  1.5732  1.9395  0.3507
35429SOL     OW12122   6.500   3.101   5.324 -0.0296 -0.0257  0.4219
35429SOL    HW112123   6.461   3.167   5.381  1.6941  0.4707  1.0805
35429SOL    HW212124   6.461   3.018   5.352 -0.4676  0.4274  1.1667
35430SOL     OW12125   2.209   3.821   9.074  0.3395  0.9485 -0.3491
35430SOL    HW112126   2.173   3.891   9.019 -1.4542 -0.2496 -0.7882
35430SOL    HW212127   2.267   3.772   9.015 -1.3990 -0.1920 -1.1798
35431SOL     OW12128   9.112   0.937   6.502 -0.1024  1.1871 -0.8593
35431SOL    HW112129   9.150   0.985   6.575 -0.4456 -0.4534  0.4572
35431SOL    HW212130   9.019   0.928   6.525  0.1214 -0.8636 -0.5944
35432SOL     OW12131   6.045   9.261   8.874  0.1673 -0.2041 -0.0574
35432SOL    HW112132   6.117   9.324   8.874 -0.7293  0.8559  0.0234
35432SOL    HW212133   6.060   9.207   8.951  1.7396 -1.0546 -0.9192
35433SOL     OW12134   4.934   1.728  10.657  0.2323  0.1655 -0.2240
35433SOL    HW112135   4.980   1.644  10.650 -1.0065 -0.5425 -0.1716
35433SOL    HW212136   4.907   1.733  10.749 -0.0253  0.4431 -0.3140
35434SOL     OW12137   4.622   4.161   8.795 -0.3640  0.4476  0.1577
35434SOL    HW112138   4.540   4.122   8.765 -0.0140  0.9886 -1.6434
35434SOL    HW212139   4.657   4.099   8.859 -1.3498 -0.6107 -0.2997
35435SOL     OW12140   5.406   1.416   0.327 -0.2862  0.1525 -0.1164
35435SOL    HW112141   5.426   1.323   0.335 -0.0845  0.1290 -0.8088
35435SOL    HW212142   5.376   1.426   0.236 -0.2179  0.7772 -0.0747
35436SOL     OW12143   7.501   9.205   3.339 -0.6071  0.1914  0.2019
35436SOL    HW112144   7.524   9.139   3.405  0.0274 -0.3833 -0.5731
35436SOL    HW212145   7.581   9.216   3.288 -1.1168  0.5633 -0.5296
35437SOL     OW12146  10.353   0.491   7.742  0.1768  0.2727  0.3785
35437SOL    HW112147  10.330   0.409   7.698 -0.7215  1.6989 -2.0073
35437SOL    HW212148  10.447   0.483   7.760  0.6221 -0.4307 -1.8858
35438SOL     OW12149   4.752   7.639   3.088  0.1924 -0.1910 -0.1484
35438SOL    HW112150   4.699   7.717   3.073 -0.7211 -1.0354 -1.6293
35438SOL    HW212151   4.842   7.669   3.074 -0.2267  0.3761 -1.9883
35439SOL     OW12152   9.907   1.949   9.365 -0.0293  0.0232  0.0820
35439SOL    HW112153   9.867   2.027   9.327  0.8089  1.1862  1.4923
35439SOL    HW212154   9.879   1.950   9.457 -0.4420 -1.6572  0.0040
35440SOL     OW12155   1.698   3.799   4.449 -0.0632 -0.1656  0.9687
35440SOL    HW112156   1.639   3.783   4.375  1.2345 -0.1928 -0.1130
35440SOL    HW212157   1.753   3.720   4.453  1.0907  0.6017  0.7520
35441SOL     OW12158   7.357   0.761   4.627 -0.7830  0.4487  0.0315
35441SOL    HW112159   7.276   0.789   4.669 -2.8559 -1.9560 -2.0438
35441SOL    HW212160   7.331   0.733   4.540  2.3284 -0.3496 -0.7773
35442SOL     OW12161   5.123   6.943   8.050 -0.4624  0.6182 -0.5672
35442SOL    HW112162   5.155   7.004   7.984 -1.5143  1.3238 -0.4392
35442SOL    HW212163   5.146   6.856   8.015 -0.0493  1.0273 -1.3326
35443SOL     OW12164   6.526   1.057   5.288 -0.3492  0.2150  0.3604
35443SOL    HW112165   6.489   1.003   5.218  0.3905 -2.8575  2.1538
35443SOL    HW212166   6.453   1.073   5.348 -0.1219 -0.6910  0.8966
35444SOL     OW12167  10.228   5.959   9.678 -0.0588  0.3939 -0.2521
35444SOL    HW112168  10.233   5.960   9.582 -0.9123  0.3726 -0.3029
35444SOL    HW212169  10.180   5.879   9.698 -0.0035  0.4707  0.1899
35445SOL     OW12170   4.687   5.722   8.642  0.4538  0.8457 -0.2816
35445SOL    HW112171   4.652   5.641   8.606 -1.2375  1.1873  0.4731
35445SOL    HW212172   4.766   5.697   8.689  0.6263 -0.1545 -1.0839
35446SOL     OW12173   0.253   9.150   8.306  0.3217  0.4243  0.2704
35446SOL    HW112174   0.305   9.230   8.305  1.2841 -0.1855  0.0110
35446SOL    HW212175   0.276   9.108   8.390  0.1127  0.2379  0.2346
35447SOL     OW12176   8.421   1.763   5.985  0.1664  0.0686 -0.1423
35447SOL    HW112177   8.444   1.813   5.907  1.3452 -1.1602 -0.6219
35447SOL    HW212178   8.374   1.825   6.041  2.1758  1.9238 -0.3921
35448SOL     OW12179   1.863   4.934   6.750 -0.3261 -0.3811  0.1446
35448SOL    HW112180   1.887   4.902   6.663 -0.5012 -1.2476  0.4050
35448SOL    HW212181   1.946   4.962   6.789 -0.1198 -0.8195  0.0232
35449SOL     OW12182   7.250   1.346   7.728  0.3487  0.1348 -0.0888
35449SOL    HW112183   7.240   1.290   7.651  2.6186  0.4599 -0.7129
35449SOL    HW212184   7.286   1.287   7.795 -0.6157  0.0897  0.4000
35450SOL     OW12185   7.885   6.773   8.041 -0.0712 -0.4205 -0.7284
35450SOL    HW112186   7.875   6.683   8.073  1.7858 -1.5509 -2.9717
35450SOL    HW212187   7.949   6.813   8.099 -2.5612  0.3353  1.6951
35451SOL     OW12188   8.829   1.695   5.759  0.1689 -0.0456  0.1195
35451SOL    HW112189   8.834   1.693   5.664 -0.3962 -1.6634  0.0926
35451SOL    HW212190   8.751   1.748   5.778 -0.3460 -0.6271 -0.3560
35452SOL     OW12191   8.030   3.159   9.703  0.6214  0.0626 -0.1213
35452SOL    HW112192   7.948   3.196   9.737  0.8678 -0.2241  0.8049
35452SOL    HW212193   8.016   3.153   9.609  0.5710  2.5235 -0.3345
35453SOL     OW12194   9.212   5.869   1.644  1.0922  0.3633  0.3409
35453SOL    HW112195   9.262   5.793   1.674  0.8719 -0.5857 -1.5146
35453SOL    HW212196   9.275   5.940   1.641  1.7104 -0.1743  0.4900
35454SOL     OW12197   2.729   0.541   7.640  0.4584 -0.2662  0.1568
35454SOL    HW112198   2.709   0.469   7.581 -1.5459  0.4081 -0.0524
35454SOL    HW212199   2.765   0.609   7.583  1.5635 -0.7671  0.2321
35455SOL     OW12200   5.419   4.135   5.145  0.4679  0.0942 -0.2447
35455SOL    HW112201   5.493   4.127   5.205  0.9038 -1.2265 -0.9214
35455SOL    HW212202   5.439   4.212   5.092  0.6450  0.5815  0.5132
35456SOL     OW12203   4.475   2.333   7.328  0.5261  0.4745  0.1080
35456SOL    HW112204   4.416   2.277   7.377  1.4211  0.4650  1.2154
35456SOL    HW212205   4.536   2.273   7.285  1.7101  0.5470  1.5844
35457SOL     OW12206   4.248   0.372   0.374  0.3441 -0.7882 -0.1159
35457SOL    HW112207   4.169   0.371   0.320 -1.1227 -1.1462  1.9318
35457SOL    HW212208   4.277   0.463   0.370 -1.7818  0.0358  1.2111
35458SOL     OW12209   7.694   6.138   6.464 -0.2674 -0.2580 -0.1580
35458SOL    HW112210   7.737   6.184   6.536 -0.2144 -1.9138  0.9274
35458SOL    HW212211   7.604   6.169   6.466 -0.5150 -1.0081  1.2843
35459SOL     OW12212   4.468   6.944   2.703 -0.1467  0.1890 -0.1053
35459SOL    HW112213   4.505   6.977   2.620  2.2560 -2.8639 -0.4417
35459SOL    HW212214   4.542   6.948   2.764 -1.5582  1.2150  1.6135
35460SOL     OW12215   1.568   3.634   1.895 -0.5810 -0.9677 -0.7998
35460SOL    HW112216   1.643   3.589   1.856  2.7634  1.0263  2.5825
35460SOL    HW212217   1.569   3.721   1.855  0.5626 -0.1431  0.8978
35461SOL     OW12218   1.912   7.205   7.110  0.1675 -0.1127  0.0180
35461SOL    HW112219   1.844   7.170   7.167  0.1244  1.6745  1.1178
35461SOL    HW212220   1.914   7.144   7.035 -1.7163 -0.9153  0.5651
35462SOL     OW12221   5.103   6.281   3.820 -0.0424  0.0272  0.4026
35462SOL    HW112222   5.049   6.359   3.812 -0.5089 -0.2574  0.6861
35462SOL    HW212223   5.193   6.312   3.813 -0.1407  0.8311  2.2782
35463SOL     OW12224   5.585   8.123   7.258 -0.0462 -0.1124 -0.6958
35463SOL    HW112225   5.494   8.143   7.236 -1.1265  0.6576  3.6108
35463SOL    HW212226   5.586   8.029   7.271 -1.0132  0.1451  1.7387
35464SOL     OW12227   7.961   5.798   6.257 -0.0176  0.1595  0.4362
35464SOL    HW112228   7.951   5.702   6.259 -0.7175  0.1249 -1.8042
35464SOL    HW212229   7.965   5.823   6.349 -2.9300 -1.7451  1.2421
35465SOL     OW12230   0.023  10.223   7.381 -0.2814 -0.1612  0.7009
35465SOL    HW112231   0.090  10.289   7.395 -0.7989  0.1394  1.8975
35465SOL    HW212232  -0.041  10.265   7.323  0.6023 -0.4945 -0.5436
35466SOL     OW12233   3.528   4.912   1.837  0.4934  0.0376  0.1424
35466SOL    HW112234   3.535   4.981   1.902 -1.2763 -0.7379  1.2220
35466SOL    HW212235   3.540   4.831   1.886  2.2175 -0.4709 -1.0456
35467SOL     OW12236   4.873   6.347   4.610 -0.8963  0.1644  0.0771
35467SOL    HW112237   4.965   6.358   4.588 -0.6592  0.1717  1.0222
35467SOL    HW212238   4.828   6.339   4.525 -0.1568  1.1518 -0.4254
35468SOL     OW12239   3.387   5.232   6.097  1.0362 -0.3178  0.8622
35468SOL    HW112240   3.468   5.182   6.111  1.2019  0.0604  1.2680
35468SOL    HW212241   3.399   5.312   6.149  0.8780  0.2659  0.0215
35469SOL     OW12242   3.248   2.635   7.809 -0.0403 -0.2031  0.8652
35469SOL    HW112243   3.200   2.590   7.739 -0.3202  1.7378 -0.2439
35469SOL    HW212244   3.320   2.576   7.829  1.6807  0.2764 -3.0087
35470SOL     OW12245   4.293   8.320   7.628 -0.2781  0.2180 -0.0523
35470SOL    HW112246   4.289   8.309   7.533  2.2549  0.0241 -0.2157
35470SOL    HW212247   4.211   8.364   7.651 -1.5427 -0.9373 -2.1183
35471SOL     OW12248   1.160   6.974   8.506  0.5678  0.0611 -0.4694
35471SOL    HW112249   1.249   6.991   8.478  0.2987 -0.1579 -1.4760
35471SOL    HW212250   1.168   6.898   8.564  0.9970 -0.1196 -0.7617
35472SOL     OW12251   4.948   4.727   5.624 -0.1837 -0.1329 -0.1134
35472SOL    HW112252   5.031   4.682   5.642  0.9685  1.2033 -1.7301
35472SOL    HW212253   4.973   4.801   5.569 -2.3110  1.1028  0.4903
35473SOL     OW12254   8.588   8.294   5.099 -0.5286 -0.0084 -0.2061
35473SOL    HW112255   8.622   8.249   5.177  2.3093 -1.3287 -2.0259
35473SOL    HW212256   8.592   8.387   5.122 -2.7784 -0.3845  2.2526
35474SOL     OW12257   7.969   2.443   1.197 -0.1742 -0.1161 -0.2107
35474SOL    HW112258   8.053   2.479   1.224 -0.7058  0.2946  0.9946
35474SOL    HW212259   7.985   2.348   1.191  0.2198 -0.1209  0.6757
35475SOL     OW12260  10.305   1.716   9.223  0.3942  0.4753 -0.1970
35475SOL    HW112261  10.344   1.683   9.304 -0.3336  0.5464  0.1983
35475SOL    HW212262  10.258   1.795   9.250 -0.0419  0.3737 -0.6463
35476SOL     OW12263  10.018   3.511   9.701  0.3070  0.0793  0.1208
35476SOL    HW112264  10.088   3.564   9.663  0.3711 -0.8986 -1.1997
35476SOL    HW212265  10.031   3.519   9.796  0.8610  1.6482 -0.0561
35477SOL     OW12266   2.849   2.492   5.053  0.1573  0.3508  0.2574
35477SOL    HW112267   2.827   2.585   5.053 -1.3926  0.0111 -0.9466
35477SOL    HW212268   2.900   2.480   5.134  0.5744  2.2603  0.3300
35478SOL     OW12269   4.031   5.625   1.664 -0.1879  0.3888 -0.3547
35478SOL    HW112270   4.081   5.566   1.609 -0.3240 -0.0212 -0.0456
35478SOL    HW212271   4.079   5.708   1.662  1.1364 -0.2970  0.8354
35479SOL     OW12272   8.753  10.825   2.921  0.1789 -0.3717  0.2567
35479SOL    HW112273   8.674  10.812   2.975 -0.5659 -0.1073 -0.7473
35479SOL    HW212274   8.742  10.764   2.848  0.7509 -0.1012 -0.0609
35480SOL     OW12275   0.627  10.454   2.208 -0.3407 -0.1103 -1.0873
35480SOL    HW112276   0.590  10.423   2.290  0.6269 -1.7989 -1.2437
35480SOL    HW212277   0.716  10.480   2.230 -0.8243  1.7713 -1.1594
35481SOL     OW12278   2.757   0.905   1.266  0.0150 -0.0691  0.2211
35481SOL    HW112279   2.750   1.000   1.254 -0.9660 -0.2807 -1.1766
35481SOL    HW212280   2.676   0.881   1.311  1.0410 -0.0513  2.1558
35482SOL     OW12281   2.540   6.748   6.465  0.4826  0.5673 -0.0292
35482SOL    HW112282   2.556   6.654   6.472  0.0740  0.5622  1.0792
35482SOL    HW212283   2.462   6.764   6.519  1.0599  1.6631  0.5330
35483SOL     OW12284   0.287   8.335   6.387 -0.1790 -0.1717 -0.4744
35483SOL    HW112285   0.349   8.333   6.314 -0.9615  0.2417 -1.1761
35483SOL    HW212286   0.229   8.408   6.366 -0.5871 -0.2302  0.4294
35484SOL     OW12287   7.819  10.807   6.580 -0.5726 -0.0177 -0.3844
35484SOL    HW112288   7.822  10.898   6.610 -1.0831  0.3153 -1.2948
35484SOL    HW212289   7.899  10.796   6.530 -1.0138  0.2736 -1.1756
35485SOL     OW12290   0.928   6.810   5.786  0.0238  0.0047 -0.2805
35485SOL    HW112291   0.843   6.810   5.830  0.0005  0.7224 -0.3145
35485SOL    HW212292   0.909   6.779   5.697 -0.0422 -0.7545 -0.0121
35486SOL     OW12293   8.750   3.601   7.768 -0.4206 -0.0405  0.2492
35486SOL    HW112294   8.706   3.642   7.694  0.8319 -0.3616 -0.7317
35486SOL    HW212295   8.835   3.644   7.772  0.4729 -1.6635 -0.0700
35487SOL     OW12296   8.873   3.838   1.988 -0.6125 -0.6937  0.3226
35487SOL    HW112297   8.794   3.799   1.951 -1.5786 -0.2106  1.7591
35487SOL    HW212298   8.841   3.891   2.061  0.8312  1.3034 -0.4131
35488SOL     OW12299   0.397  10.039   3.588 -0.0618 -0.2502 -0.0405
35488SOL    HW112300   0.330  10.054   3.521  1.3951  0.0749 -1.4792
35488SOL    HW212301   0.391   9.946   3.607 -2.3044  0.1001  1.4481
35489SOL     OW12302   2.329   2.147  10.473 -0.1911 -0.2666 -1.0326
35489SOL    HW112303   2.404   2.095  10.444 -0.7121 -0.5496 -1.9192
35489SOL    HW212304   2.319   2.214  10.406  0.3339  0.8645 -0.0160
35490SOL     OW12305   4.192   7.892   0.346 -0.1055  0.1014  0.0234
35490SOL    HW112306   4.147   7.832   0.286  0.3681 -0.6222  0.3728
35490SOL    HW212307   4.142   7.974   0.341  0.8515  0.6058 -2.5552
35491SOL     OW12308   3.343  10.129   5.231  0.1851 -0.1347  0.0284
35491SOL    HW112309   3.416  10.173   5.275  0.5137 -0.3799 -0.2576
35491SOL    HW212310   3.382  10.096   5.149 -0.2330 -0.3203 -0.0969
35492SOL     OW12311   1.387   1.812   2.511 -0.5201 -0.4508  0.1903
35492SOL    HW112312   1.393   1.724   2.549 -1.6123 -1.5595 -1.9891
35492SOL    HW212313   1.333   1.862   2.572 -1.4419 -1.8632  0.5721
35493SOL     OW12314   8.920  10.707  10.618 -0.1706 -0.3140  0.4498
35493SOL    HW112315   8.828  10.715  10.645 -0.2916  1.4281 -0.3477
35493SOL    HW212316   8.925  10.621  10.575 -1.1931 -0.8310  1.3282
35494SOL     OW12317   0.951  10.558   7.184  0.3125 -0.8626 -0.1836
35494SOL    HW112318   0.937  10.530   7.093  0.8781 -0.9136 -0.2590
35494SOL    HW212319   0.882  10.514   7.233 -0.4581 -0.2493 -0.6891
35495SOL     OW12320   6.662   8.842   9.093 -0.4811 -0.0419  0.2388
35495SOL    HW112321   6.594   8.782   9.124 -0.9725 -0.7445 -1.9916
35495SOL    HW212322   6.670   8.908   9.162 -2.0964 -0.9761  1.3848
35496SOL     OW12323   9.700   8.403   9.201  0.4776  0.2865  0.0849
35496SOL    HW112324   9.794   8.392   9.216  0.8338 -0.0722 -2.1147
35496SOL    HW212325   9.688   8.496   9.184  0.3981  0.3567  0.5100
35497SOL     OW12326   2.706   8.242   6.982 -0.3415 -0.2448 -0.0596
35497SOL    HW112327   2.739   8.207   7.065 -0.9079  0.5393  0.5165
35497SOL    HW212328   2.737   8.181   6.915 -0.0392 -0.9910  0.7527
35498SOL     OW12329   8.589   7.019   5.409 -0.0767 -0.0217 -0.0936
35498SOL    HW112330   8.513   6.964   5.388  0.7227 -1.5477  0.8334
35498SOL    HW212331   8.649   6.960   5.455  1.8212  1.0553 -1.0864
35499SOL     OW12332   5.013   2.989   2.927  0.1064 -0.2626  0.0242
35499SOL    HW112333   4.961   2.968   3.005  0.8658 -0.6389  0.4413
35499SOL    HW212334   4.962   2.953   2.854 -0.3295 -0.4184  0.3976
35500SOL     OW12335   3.031   5.439   1.789  0.3003  0.6720 -0.1823
35500SOL    HW112336   2.936   5.442   1.799  0.2909 -0.0410  0.0434
35500SOL    HW212337   3.049   5.349   1.760  0.9557  0.6095  0.3825
35501SOL     OW12338   4.330   3.456   3.212  0.4013  0.0466 -0.0971
35501SOL    HW112339   4.397   3.521   3.194  0.8871 -0.9660 -2.3357
35501SOL    HW212340   4.249   3.495   3.179  0.8404 -0.7344 -2.2756
35502SOL     OW12341   2.921   9.890   7.574 -0.6005  0.5409 -0.7073
35502SOL    HW112342   2.841   9.838   7.586 -0.4311  0.7646  2.0431
35502SOL    HW212343   2.890   9.974   7.542 -1.4108  0.3961 -0.3380
35503SOL     OW12344   4.716   0.237   3.084 -0.0334  0.2935  0.0445
35503SOL    HW112345   4.728   0.152   3.125 -0.7096 -0.2226 -0.8070
35503SOL    HW212346   4.790   0.244   3.023  0.7571  0.8970  1.0367
35504SOL     OW12347   5.109   0.007   0.142  0.1479 -0.3219  0.8896
35504SOL    HW112348   5.140   0.035   0.056 -1.9068 -0.9218 -0.1111
35504SOL    HW212349   5.172  -0.059   0.171  1.6435  0.8937  0.5316
35505SOL     OW12350   1.429   6.111   5.552 -0.0383  0.3397  0.0401
35505SOL    HW112351   1.341   6.147   5.557  0.0201  0.4922  0.0010
35505SOL    HW212352   1.478   6.176   5.502 -0.3527 -0.6521 -1.5969
35506SOL     OW12353   1.781   7.288   6.149 -0.1097  0.1598  0.0995
35506SOL    HW112354   1.712   7.355   6.153  0.0785  0.5964 -2.3997
35506SOL    HW212355   1.742   7.211   6.192 -0.6750  1.5273  2.1974
35507SOL     OW12356   8.728   4.646   9.920 -0.6294  0.1062  0.3258
35507SOL    HW112357   8.805   4.593   9.941 -0.1312  0.0128 -1.5992
35507SOL    HW212358   8.756   4.701   9.847 -2.2224  0.4814 -0.0370
35508SOL     OW12359   6.014  10.291   5.032  0.0824  0.0866 -0.0187
35508SOL    HW112360   6.023  10.386   5.039 -1.6205  0.3009 -0.2544
35508SOL    HW212361   5.992  10.276   4.940 -0.5235 -0.4511  0.2111
35509SOL     OW12362   4.026  10.745   1.002  0.0088  0.0633 -0.3038
35509SOL    HW112363   4.031  10.673   0.940  0.2879 -0.7344  0.6181
35509SOL    HW212364   4.027  10.703   1.088  0.6707  1.1962  0.2669
35510SOL     OW12365   1.058   1.180   2.778  0.0389  0.1349  0.4594
35510SOL    HW112366   1.041   1.251   2.716 -4.5122 -0.2197  0.9457
35510SOL    HW212367   1.118   1.122   2.731  0.6474  2.2711 -1.5985
35511SOL     OW12368   4.582   9.207   5.172 -0.2799  0.4716 -0.5560
35511SOL    HW112369   4.663   9.257   5.161 -0.4491  0.6007 -1.2883
35511SOL    HW212370   4.571   9.160   5.089 -0.1530 -0.7556  0.0896
35512SOL     OW12371   7.134   8.158   7.525 -0.5524  0.0963  0.0048
35512SOL    HW112372   7.082   8.219   7.577 -0.1472  1.7032 -1.3953
35512SOL    HW212373   7.085   8.148   7.443 -1.5577 -2.9624  0.8327
35513SOL     OW12374   3.486   4.826   2.300 -0.4207  0.3705 -0.1558
35513SOL    HW112375   3.467   4.901   2.358 -0.1720  0.2977  0.0224
35513SOL    HW212376   3.513   4.756   2.360  0.1315  0.3875 -0.3821
35514SOL     OW12377   3.062   7.943   4.722 -0.1845 -0.1442  0.1813
35514SOL    HW112378   3.050   7.869   4.781 -2.4456 -0.3149 -0.3993
35514SOL    HW212379   3.136   7.919   4.667 -1.3017 -2.3107 -0.4622
35515SOL     OW12380   7.087   4.591   0.878  0.0049 -0.4149  0.0482
35515SOL    HW112381   7.134   4.645   0.814  0.8393  0.8141  1.6227
35515SOL    HW212382   7.004   4.570   0.836  0.4432  0.5386 -1.3458
35516SOL     OW12383   7.837   5.963   8.536 -0.3182 -0.3659 -0.7228
35516SOL    HW112384   7.745   5.987   8.528 -0.6451 -0.8590  1.1680
35516SOL    HW212385   7.836   5.870   8.559  0.5870 -0.0793  0.5527
35517SOL     OW12386  10.544   0.897   4.344  0.1114  0.0237  0.3943
35517SOL    HW112387  10.569   0.882   4.435 -2.1281 -2.9639  0.6787
35517SOL    HW212388  10.451   0.919   4.348  0.1169  0.4461 -1.1527
35518SOL     OW12389   2.377   9.412   2.599  0.0410 -0.1894 -0.4201
35518SOL    HW112390   2.309   9.361   2.555 -0.4638  0.1031  0.0061
35518SOL    HW212391   2.400   9.480   2.535 -2.0257  1.3880  0.4192
35519SOL     OW12392   8.108   5.265  10.081 -0.0867 -0.4725  0.3422
35519SOL    HW112393   8.030   5.314  10.108  0.6753  0.3980  1.0284
35519SOL    HW212394   8.132   5.213  10.158 -2.1571 -3.7451 -1.0267
35520SOL     OW12395   2.614  10.467   8.897  0.7170 -0.0506  0.1591
35520SOL    HW112396   2.662  10.434   8.973  0.9363 -0.6243 -0.2255
35520SOL    HW212397   2.627  10.562   8.901 -0.6641  0.1386  1.7778
35521SOL     OW12398   9.559   2.466   4.227  0.8780 -0.1855 -0.2139
35521SOL    HW112399   9.478   2.418   4.244 -0.7696  2.5404  0.2180
35521SOL    HW212400   9.576   2.515   4.307  0.7973  2.1638 -1.5359
35522SOL     OW12401   1.848   9.315   7.197 -0.7433  0.4389 -0.8741
35522SOL    HW112402   1.862   9.228   7.234  0.3958  1.1230  0.4057
35522SOL    HW212403   1.794   9.360   7.262 -3.4390 -0.0188 -2.6578
35523SOL     OW12404   5.626   1.896   3.482  0.0017 -0.0749 -0.5091
35523SOL    HW112405   5.710   1.931   3.452  0.3533 -0.7360 -0.3226
35523SOL    HW212406   5.601   1.833   3.414 -0.1639 -0.1459 -0.3822
35524SOL     OW12407   6.234   1.583   9.742 -0.0258 -0.0659 -0.2180
35524SOL    HW112408   6.185   1.661   9.768 -0.5318 -0.8036  1.1358
35524SOL    HW212409   6.319   1.617   9.713 -0.0439  0.9611  0.8537
35525SOL     OW12410   9.354   0.782   9.763 -0.1068 -0.9418 -1.2309
35525SOL    HW112411   9.343   0.849   9.695  1.7872  0.1523 -0.5161
35525SOL    HW212412   9.430   0.731   9.734  0.7209 -0.4616  0.0499
35526SOL     OW12413   8.747   4.562   0.949  0.0343  0.1009 -0.2152
35526SOL    HW112414   8.801   4.502   0.898  1.6480  0.6321  0.7950
35526SOL    HW212415   8.808   4.605   1.009 -1.2991  1.7215  0.0668
35527SOL     OW12416   9.900   9.034   4.764 -1.2188 -0.4258  0.4255
35527SOL    HW112417   9.921   9.107   4.706  0.8404 -0.7789  0.6267
35527SOL    HW212418   9.821   8.995   4.727 -1.0923  0.5613 -0.9714
35528SOL     OW12419   7.018   5.929   5.105  0.4261 -0.2315  0.4538
35528SOL    HW112420   7.089   5.867   5.087  0.8741  0.5754 -0.6928
35528SOL    HW212421   6.940   5.887   5.068  0.6433 -0.2997  0.0690
35529SOL     OW12422   0.162   5.733   7.439 -0.0413 -0.4218 -0.0825
35529SOL    HW112423   0.229   5.707   7.377  0.6616  0.4931  0.2679
35529SOL    HW212424   0.159   5.829   7.433  0.7728 -0.2127  2.0035
35530SOL     OW12425   9.222   1.771   1.295  0.1591  0.5229  0.5119
35530SOL    HW112426   9.275   1.815   1.230  1.1914 -1.0797  0.2038
35530SOL    HW212427   9.132   1.801   1.279  0.5486  0.9213 -0.9785
35531SOL     OW12428   8.302   1.234   6.678 -0.3671  0.7002 -0.0948
35531SOL    HW112429   8.352   1.197   6.605 -2.0606 -0.2658 -0.8383
35531SOL    HW212430   8.214   1.247   6.642 -0.7032  2.2530  1.1789
35532SOL     OW12431   3.710   3.018   0.570 -0.1049  0.0122  1.0708
35532SOL    HW112432   3.757   2.939   0.543  0.6244  0.2988  1.4960
35532SOL    HW212433   3.693   3.006   0.663  0.1361  0.4234  1.1700
35533SOL     OW12434   9.320  10.224   1.866 -0.6801 -0.0585 -0.1287
35533SOL    HW112435   9.269  10.299   1.835 -0.5310  0.4609  0.8269
35533SOL    HW212436   9.386  10.210   1.798  0.8667  2.2735  0.7364
35534SOL     OW12437   0.729   1.300   3.177  0.0246 -0.6284 -0.1627
35534SOL    HW112438   0.771   1.225   3.135  1.2344 -0.2597  0.3292
35534SOL    HW212439   0.670   1.335   3.111 -1.5777 -2.7788  0.0366
35535SOL     OW12440   8.872   0.938   6.654 -0.1906 -0.1204 -0.3115
35535SOL    HW112441   8.800   0.902   6.603 -0.1496 -2.6904  1.3064
35535SOL    HW212442   8.842   0.933   6.745  0.3388  2.9201  0.1371
35536SOL     OW12443   2.673   2.508   5.401 -0.0565  0.0277  0.3392
35536SOL    HW112444   2.732   2.448   5.355  1.1911  1.1922  0.3610
35536SOL    HW212445   2.621   2.451   5.457  1.9470 -0.9648  1.3148
35537SOL     OW12446   3.950   1.099   7.237  0.0700  0.5643  0.5675
35537SOL    HW112447   3.937   1.010   7.268  0.6613 -0.2942 -1.4210
35537SOL    HW212448   3.862   1.137   7.232 -0.8797 -1.6412 -3.1357
35538SOL     OW12449   9.643   0.636   9.163 -0.0438  0.0754  0.0452
35538SOL    HW112450   9.696   0.564   9.128 -1.5002 -1.0281  0.0367
35538SOL    HW212451   9.611   0.603   9.247 -0.1665  0.9950  0.3683
35539SOL     OW12452   4.080   8.819   4.790  0.2450  0.1363  0.1588
35539SOL    HW112453   3.987   8.840   4.800  0.3424 -0.1036  1.6761
35539SOL    HW212454   4.112   8.808   4.879  1.6604 -0.1250 -0.3662
35540SOL     OW12455   4.562   6.692   0.426  0.2133 -0.3767 -0.0595
35540SOL    HW112456   4.605   6.607   0.428  1.2296  0.1029  1.9837
35540SOL    HW212457   4.517   6.698   0.510 -0.7348  0.6650 -0.6164
35541SOL     OW12458   1.530   9.403   7.229 -0.2022 -0.4483  0.0466
35541SOL    HW112459   1.612   9.446   7.253 -1.1415  1.2543  0.3366
35541SOL    HW212460   1.522   9.417   7.135 -0.2767 -0.4206  0.0571
35542SOL     OW12461   3.534   0.647   6.586  0.8093  0.6647 -0.1612
35542SOL    HW112462   3.549   0.629   6.493  0.5124  1.4307 -0.3601
35542SOL    HW212463   3.567   0.736   6.599  0.5395  0.6850  0.3943
35543SOL     OW12464   3.305   0.026   7.479 -0.1286  0.3117  0.0178
35543SOL    HW112465   3.377   0.074   7.520 -0.0806 -0.2843  0.6437
35543SOL    HW212466   3.336   0.010   7.389  0.9074 -0.7165  0.5319
35544SOL     OW12467   7.291   9.516   2.749 -0.0829  0.5241 -0.2177
35544SOL    HW112468   7.275   9.497   2.841 -2.9202 -0.3835 -0.8127
35544SOL    HW212469   7.243   9.597   2.732  0.7519  0.9110 -0.8309
35545SOL     OW12470   7.140   5.215   6.734 -0.1849  0.0105 -0.1651
35545SOL    HW112471   7.184   5.254   6.659  1.7082  1.8824  1.7540
35545SOL    HW212472   7.207   5.160   6.775 -0.6119  0.3578  1.0571
35546SOL     OW12473  10.229   3.317   7.917  0.2112 -0.2894  0.1845
35546SOL    HW112474  10.166   3.350   7.854 -0.8808 -0.2144  1.2872
35546SOL    HW212475  10.312   3.358   7.892 -0.5179  0.9643 -0.2491
35547SOL     OW12476  10.188   1.431   2.654  0.0834  0.7870 -0.0741
35547SOL    HW112477  10.183   1.518   2.615  0.2954 -0.3481 -2.8590
35547SOL    HW212478  10.128   1.378   2.603  0.9807 -1.0237  0.6472
35548SOL     OW12479  10.671   6.822   7.602 -0.3376  0.1976  0.8493
35548SOL    HW112480  10.759   6.805   7.636  0.3267  2.6686  0.5581
35548SOL    HW212481  10.684   6.886   7.532 -2.0560 -1.9243 -1.6321
35549SOL     OW12482   5.366   1.772   5.156 -0.1199 -0.2043 -0.1019
35549SOL    HW112483   5.432   1.727   5.103 -0.4182 -1.0250  0.2046
35549SOL    HW212484   5.413   1.799   5.235 -0.1214 -0.6937  0.0687
35550SOL     OW12485   4.417   9.853   0.185  0.5864  0.3417 -0.1408
35550SOL    HW112486   4.473   9.777   0.168  0.7792  0.0797  1.5203
35550SOL    HW212487   4.414   9.860   0.280 -0.0383  1.9793 -0.2441
35551SOL     OW12488  10.879   4.796   9.763  0.0400 -0.1602  0.2044
35551SOL    HW112489  10.929   4.790   9.681 -0.4457  2.2095 -0.3450
35551SOL    HW212490  10.943   4.776   9.831  0.5444 -1.8209 -0.6959
35552SOL     OW12491   9.834   6.269   4.205  0.0149 -0.0327  0.2848
35552SOL    HW112492   9.739   6.283   4.210 -0.0677 -0.0945 -0.7823
35552SOL    HW212493   9.867   6.348   4.162  0.0087 -1.3687 -2.3770
35553SOL     OW12494   1.014   5.154   3.649  0.4758  0.1899  0.0467
35553SOL    HW112495   1.038   5.208   3.574 -1.5861  0.0138 -0.8242
35553SOL    HW212496   1.063   5.073   3.638  0.9068  0.5298 -0.5785
35554SOL     OW12497   8.442   8.146   1.280  0.5178 -0.6501 -0.5743
35554SOL    HW112498   8.347   8.159   1.282  0.7418  2.0268 -2.3136
35554SOL    HW212499   8.473   8.182   1.363 -0.0059 -2.3615  0.4081
35555SOL     OW12500   6.603   8.746   6.121 -0.0203  0.1799  0.2273
35555SOL    HW112501   6.565   8.748   6.033 -2.0247 -1.3852  0.9787
35555SOL    HW212502   6.670   8.677   6.117 -1.4073 -1.2258  0.3522
35556SOL     OW12503   8.406   4.926   9.074  0.0036  0.3713 -0.2100
35556SOL    HW112504   8.455   4.997   9.032  0.4059 -0.1807 -0.6887
35556SOL    HW212505   8.321   4.964   9.092 -0.6984  0.2631 -2.8000
35557SOL     OW12506   4.876   2.233   8.279 -0.1532  0.0602  0.2798
35557SOL    HW112507   4.966   2.222   8.249  0.3159  0.1413  1.5860
35557SOL    HW212508   4.883   2.293   8.353 -1.3222  0.2718  0.2313
35558SOL     OW12509  10.923   1.972   2.416 -0.5607  0.4313  0.1107
35558SOL    HW112510  10.915   2.043   2.352 -0.0802 -0.0357 -0.4857
35558SOL    HW212511  11.007   1.987   2.458 -0.0065 -0.2992 -0.6876
35559SOL     OW12512   9.608   0.857   5.215 -0.0475 -0.1068  0.2337
35559SOL    HW112513   9.672   0.845   5.145 -0.1546  1.7521 -0.2275
35559SOL    HW212514   9.659   0.886   5.290  0.1633 -2.7545  1.2257
35560SOL     OW12515   2.813   9.825   0.552  0.3600  0.0214 -0.1494
35560SOL    HW112516   2.773   9.738   0.542 -1.7441  0.9080  0.1234
35560SOL    HW212517   2.817   9.860   0.463 -1.1656  0.6116 -0.0144
35561SOL     OW12518   7.888   4.735   1.776 -0.0403  0.2689  0.0552
35561SOL    HW112519   7.945   4.810   1.763 -0.5136  0.6822  0.3061
35561SOL    HW212520   7.805   4.760   1.736  0.2883 -0.7876 -1.3488
35562SOL     OW12521   0.174   6.212   2.345  0.2858  0.4813  0.1315
35562SOL    HW112522   0.140   6.296   2.377  1.1986  2.0190 -2.6444
35562SOL    HW212523   0.260   6.233   2.308  0.7973 -1.8097 -0.1189
35563SOL     OW12524   6.145   1.369   2.829  0.1741 -0.2559  0.3831
35563SOL    HW112525   6.174   1.433   2.894 -0.7701 -0.3673  0.9245
35563SOL    HW212526   6.052   1.356   2.847  0.4067 -2.0137  0.4671
35564SOL     OW12527   3.572   8.961   0.427  0.4403 -0.3845 -0.2329
35564SOL    HW112528   3.597   9.052   0.443  0.9233 -0.5370 -0.1028
35564SOL    HW212529   3.573   8.921   0.514 -2.0315  0.0159  0.0705
35565SOL     OW12530   1.046   8.454   6.988  0.1161 -0.2018  0.0807
35565SOL    HW112531   1.026   8.452   6.894  2.1451  1.6771 -0.4529
35565SOL    HW212532   1.009   8.536   7.019  1.5304  0.3315  0.3942
35566SOL     OW12533   0.865   1.963   5.870 -0.1653  0.8592  0.3159
35566SOL    HW112534   0.877   2.035   5.808 -0.6916 -0.2440 -1.1493
35566SOL    HW212535   0.867   1.884   5.815 -2.5882 -0.0617  1.4057
35567SOL     OW12536   4.236   8.240   0.645 -0.1778  0.2243 -0.2326
35567SOL    HW112537   4.165   8.178   0.629 -0.7150  1.3526 -2.7579
35567SOL    HW212538   4.195   8.310   0.696 -1.1178  1.1266 -2.1236
35568SOL     OW12539   2.599   4.106   4.664 -0.1074  0.8159  0.1138
35568SOL    HW112540   2.578   4.104   4.757 -0.6892  0.9820 -0.0101
35568SOL    HW212541   2.634   4.019   4.645 -2.7812 -0.3175 -0.1436
35569SOL     OW12542   2.240   6.713   7.472 -0.0828  0.3493  0.2001
35569SOL    HW112543   2.161   6.766   7.482 -1.0540 -0.4369 -2.5268
35569SOL    HW212544   2.281   6.745   7.392  0.9381 -0.9900  0.1495
35570SOL     OW12545   1.264   7.116   2.890  0.3181  0.4204  0.5123
35570SOL    HW112546   1.305   7.044   2.842 -1.1500  0.1945 -0.4949
35570SOL    HW212547   1.317   7.126   2.969  1.7674 -0.3864 -0.3192
35571SOL     OW12548   5.621   6.165   9.748 -0.1970  0.4551 -0.5893
35571SOL    HW112549   5.668   6.134   9.826 -1.1487 -1.0201 -0.5529
35571SOL    HW212550   5.665   6.121   9.675  0.0752  1.0794 -0.8128
35572SOL     OW12551   6.455   8.574   2.691 -0.0308  0.1530 -0.3715
35572SOL    HW112552   6.407   8.503   2.650 -0.5813 -0.3326  1.0357
35572SOL    HW212553   6.464   8.640   2.623 -0.5063 -0.7855 -1.3762
35573SOL     OW12554   3.101   0.606   0.304  0.1092 -0.7309  0.5615
35573SOL    HW112555   3.104   0.609   0.208 -0.1355 -0.1450  0.5656
35573SOL    HW212556   3.177   0.554   0.329  0.8498  0.1042  0.0924
35574SOL     OW12557   8.557  10.639   7.039  0.0915  0.8791  0.1942
35574SOL    HW112558   8.635  10.584   7.034  0.5384  1.4096  1.0121
35574SOL    HW212559   8.523  10.624   7.127 -0.3082  1.2109  0.1019
35575SOL     OW12560   0.978   7.157   7.218 -0.0316 -0.2849  1.0269
35575SOL    HW112561   1.043   7.190   7.156 -1.1013 -2.4637 -1.4460
35575SOL    HW212562   1.029   7.118   7.289  1.2560  1.2951  1.0058
35576SOL     OW12563   8.503   7.057   2.874  0.2938  0.9457  0.4636
35576SOL    HW112564   8.499   7.047   2.779  0.8932  1.9601  0.3152
35576SOL    HW212565   8.411   7.061   2.902  0.1174  0.5632 -0.0600
35577SOL     OW12566   8.050   4.190   2.446  0.0500  0.4728 -0.1173
35577SOL    HW112567   8.104   4.116   2.475 -0.0671  0.5387  0.2708
35577SOL    HW212568   7.980   4.149   2.396  1.0058  0.4523 -1.4956
35578SOL     OW12569   7.116   2.779   7.381  0.4351  0.6077 -0.1833
35578SOL    HW112570   7.088   2.812   7.296  1.2751  1.1077 -0.2798
35578SOL    HW212571   7.180   2.711   7.361 -0.8099 -0.6754  0.0302
35579SOL     OW12572   9.202   8.867   6.894 -0.0455 -0.2053 -0.4503
35579SOL    HW112573   9.129   8.926   6.875  0.3585  0.7802  0.8919
35579SOL    HW212574   9.267   8.923   6.936  1.1938 -1.2150 -0.9841
35580SOL     OW12575   9.015   0.518   3.382 -0.0336 -0.1406  0.4076
35580SOL    HW112576   9.059   0.513   3.467 -0.0969  0.7512  0.4992
35580SOL    HW212577   9.059   0.589   3.336 -0.3085 -0.3128 -0.1326
35581SOL     OW12578   8.776   3.629   1.436 -0.3915 -0.6896  0.3892
35581SOL    HW112579   8.705   3.639   1.500  0.0633  0.9833  0.6856
35581SOL    HW212580   8.732   3.597   1.356 -1.4514  0.1176  0.6262
35582SOL     OW12581   8.097   2.710   2.437 -0.3496 -0.3513  0.1835
35582SOL    HW112582   8.135   2.751   2.515  1.3393 -0.3318 -0.6018
35582SOL    HW212583   8.167   2.713   2.371 -1.7250 -0.3466 -1.3578
35583SOL     OW12584   0.901   1.115   8.486  0.7594  0.6965 -0.6679
35583SOL    HW112585   0.984   1.124   8.534  0.8893 -1.5037 -0.3793
35583SOL    HW212586   0.927   1.115   8.394  1.3342 -1.5280 -0.5609
35584SOL     OW12587   1.977   7.925   2.462  0.1867 -0.3577  0.3316
35584SOL    HW112588   1.922   8.003   2.460  0.6346  0.0106  1.5373
35584SOL    HW212589   2.065   7.957   2.442  0.6130 -0.2990  2.1442
35585SOL     OW12590   5.051  10.389   1.126  0.3140 -0.0384  0.2169
35585SOL    HW112591   5.016  10.307   1.091  0.5501  0.2268 -0.6511
35585SOL    HW212592   5.038  10.453   1.056  2.0408  0.1839  0.0530
35586SOL     OW12593  10.216   1.309   4.413  0.3960 -0.6223  0.1674
35586SOL    HW112594  10.235   1.374   4.481  0.3916 -0.9135  0.4486
35586SOL    HW212595  10.168   1.358   4.346  1.4510 -0.0464 -0.1943
35587SOL     OW12596   3.200   8.870   4.866 -0.0918  0.0591 -0.7155
35587SOL    HW112597   3.236   8.798   4.813 -0.7801 -0.2140 -0.8196
35587SOL    HW212598   3.150   8.826   4.934 -1.9889  0.4507 -1.8042
35588SOL     OW12599  10.178   1.406   9.002  0.2058 -0.7750 -0.3450
35588SOL    HW112600  10.218   1.336   8.950  1.4621 -0.5894  0.3426
35588SOL    HW212601  10.251   1.459   9.031 -0.4764 -0.7682  1.4738
35589SOL     OW12602   3.629   2.303   6.568  0.0688  0.3557 -0.4165
35589SOL    HW112603   3.646   2.350   6.649  1.7309  0.2833 -0.6839
35589SOL    HW212604   3.604   2.372   6.505  0.2655  0.5975 -0.2312
35590SOL     OW12605   4.790   1.870  10.251 -0.6560 -0.2407 -0.2239
35590SOL    HW112606   4.744   1.792  10.282  0.8214 -0.9811  0.1656
35590SOL    HW212607   4.862   1.836  10.197 -0.1093  0.8584 -0.2143
35591SOL     OW12608   9.745   9.703   0.108 -0.1141 -0.1180 -0.5000
35591SOL    HW112609   9.828   9.677   0.069 -0.5321  0.7421 -2.0524
35591SOL    HW212610   9.723   9.632   0.168  1.3618 -0.7101 -0.6238
35592SOL     OW12611   9.915   5.454   7.676 -0.5387  0.1729 -0.4038
35592SOL    HW112612   9.942   5.365   7.697 -2.3526 -0.2934  0.1717
35592SOL    HW212613   9.984   5.488   7.619  1.4367 -0.7235  1.3117
35593SOL     OW12614   7.910   5.554   7.501  0.0297  0.0772 -0.0407
35593SOL    HW112615   7.969   5.551   7.426  0.4957 -0.7497  0.3401
35593SOL    HW212616   7.947   5.622   7.557 -1.3117  1.9601 -1.3228
35594SOL     OW12617  10.843   1.658   2.940  0.0945  0.3288 -0.6654
35594SOL    HW112618  10.877   1.576   2.974  0.7802  1.2182  0.9179
35594SOL    HW212619  10.749   1.641   2.927  0.5598 -1.2680 -2.3079
35595SOL     OW12620   0.711   6.417   6.587 -0.6798  0.6030 -0.2201
35595SOL    HW112621   0.675   6.424   6.499 -0.8444  2.1033 -0.0514
35595SOL    HW212622   0.715   6.507   6.619  1.3882  0.3043  0.5144
35596SOL     OW12623   3.089   2.403   3.658  0.2783 -0.1415  0.0666
35596SOL    HW112624   3.105   2.309   3.661  1.4513  0.0406 -0.1376
35596SOL    HW212625   3.002   2.411   3.619  0.9495 -1.0765 -1.7577
35597SOL     OW12626   2.363   1.315   4.615  0.1833 -0.7834 -0.4555
35597SOL    HW112627   2.287   1.285   4.665  0.7542 -0.4182  0.6661
35597SOL    HW212628   2.360   1.410   4.620  0.5142 -0.7557 -0.7129
35598SOL     OW12629   1.770   1.416   1.879  1.0347 -0.4817 -0.1594
35598SOL    HW112630   1.719   1.335   1.874 -0.3355  0.4095 -1.1800
35598SOL    HW212631   1.844   1.401   1.819  1.6536 -1.5276  0.8226
35599SOL     OW12632   9.704   5.240   6.758  0.2222 -0.0656  0.1275
35599SOL    HW112633   9.782   5.232   6.703  0.0342  0.5795 -0.2437
35599SOL    HW212634   9.732   5.210   6.845  1.4824  2.1252  0.5445
35600SOL     OW12635  10.597   6.820   1.661 -0.7438 -0.1078 -0.0994
35600SOL    HW112636  10.646   6.738   1.657 -1.1145 -0.3604  0.3701
35600SOL    HW212637  10.527   6.803   1.725 -0.2315  0.8954  0.7636
35601SOL     OW12638   7.775   3.866   7.294  0.1043  0.1325 -0.4110
35601SOL    HW112639   7.815   3.891   7.377 -0.4609  0.4103 -0.2149
35601SOL    HW212640   7.842   3.816   7.249  0.8739  1.0787 -0.3427
35602SOL     OW12641   4.875   6.554   7.472  0.9264 -0.0474  0.2319
35602SOL    HW112642   4.783   6.535   7.457  0.5169  0.4344  1.8534
35602SOL    HW212643   4.899   6.617   7.404  0.3749 -1.0078 -0.8680
35603SOL     OW12644   5.275   5.145   9.718 -0.2392  0.0484 -0.0335
35603SOL    HW112645   5.272   5.204   9.642 -1.7472 -0.7171 -0.6111
35603SOL    HW212646   5.258   5.058   9.682 -0.7087 -0.3700  1.1549
35604SOL     OW12647   5.304   9.918   3.850  0.2727 -0.3796 -0.0664
35604SOL    HW112648   5.338   9.932   3.938 -1.0593  0.3249  0.3699
35604SOL    HW212649   5.246   9.993   3.834  1.0082 -0.1348 -1.8141
35605SOL     OW12650   8.128   2.370   8.239  0.1240  0.0005 -0.0418
35605SOL    HW112651   8.122   2.308   8.313  2.5084 -0.2520  0.0068
35605SOL    HW212652   8.107   2.317   8.162 -0.8353 -0.1159  0.2869
35606SOL     OW12653   4.349   5.847   8.903 -0.4105 -0.0498 -0.6328
35606SOL    HW112654   4.404   5.776   8.936  4.8292  2.3011 -3.1689
35606SOL    HW212655   4.336   5.826   8.810 -0.1063  1.4934 -1.0493
35607SOL     OW12656   3.955   7.814   2.239  0.0033  0.2110  0.1948
35607SOL    HW112657   3.978   7.840   2.150  0.6180 -0.6943  0.0745
35607SOL    HW212658   4.011   7.738   2.257 -0.4424  0.1018  1.1817
35608SOL     OW12659   9.536   4.909  10.593  0.1210 -0.0086 -0.9320
35608SOL    HW112660   9.508   4.848  10.661 -0.4192  1.0385 -0.1915
35608SOL    HW212661   9.455   4.953  10.565  0.8297  3.0671  1.2467
35609SOL     OW12662   2.850   4.188   0.945 -0.2338  0.0940 -0.5019
35609SOL    HW112663   2.945   4.199   0.946 -0.1011 -0.9430  0.0413
35609SOL    HW212664   2.833   4.137   0.865  0.0585 -2.4744  0.9548
35610SOL     OW12665   2.349   7.510   2.080  0.1689 -0.1919  0.4793
35610SOL    HW112666   2.296   7.589   2.074  1.1467  0.4280 -0.2592
35610SOL    HW212667   2.430   7.531   2.033  0.2231 -1.8261 -0.2328
35611SOL     OW12668   5.540   6.569   6.282  0.0285  0.3792 -0.2942
35611SOL    HW112669   5.625   6.600   6.314  0.6317 -0.8629 -0.6457
35611SOL    HW212670   5.534   6.605   6.193  1.0072 -0.9601 -0.9327
35612SOL     OW12671   2.064   1.123   3.285 -0.1755  0.5733  0.0779
35612SOL    HW112672   2.126   1.175   3.234  0.0856 -1.0189 -1.3173
35612SOL    HW212673   2.119   1.059   3.331 -0.5185  1.2573  1.4748
35613SOL     OW12674   5.885  10.257   4.241 -0.1967 -0.0008 -0.4130
35613SOL    HW112675   5.841  10.341   4.228  1.5982  1.0716  0.0506
35613SOL    HW212676   5.975  10.281   4.266  0.1239 -2.0618  0.5971
35614SOL     OW12677   8.089   7.509   8.677 -0.2885  0.0284  0.0536
35614SOL    HW112678   8.168   7.504   8.623 -1.5258  0.4194 -1.8979
35614SOL    HW212679   8.020   7.472   8.622 -1.6879  0.6829  1.2949
35615SOL     OW12680   9.014   9.024   6.790 -0.3991  0.0380 -0.3104
35615SOL    HW112681   9.080   9.059   6.731 -0.4831 -2.3500 -1.9731
35615SOL    HW212682   8.943   8.996   6.733 -1.4183 -0.4640  1.1355
35616SOL     OW12683   9.004   1.088   7.389 -0.5522 -0.0479 -0.0210
35616SOL    HW112684   9.021   1.045   7.306 -0.3128 -0.3677  0.1935
35616SOL    HW212685   9.090   1.104   7.427 -0.6337  0.6671 -0.1174
35617SOL     OW12686   8.257   5.890   5.324  0.5054 -0.2247 -0.1254
35617SOL    HW112687   8.283   5.799   5.335  2.7094  0.1886 -1.3565
35617SOL    HW212688   8.227   5.895   5.233 -1.4614 -0.0854  0.4836
35618SOL     OW12689  10.713   0.695   5.175  0.4825  0.2409 -0.6651
35618SOL    HW112690  10.713   0.776   5.124  0.7038 -0.3425 -1.6135
35618SOL    HW212691  10.802   0.661   5.166  1.0066  0.9108  1.4280
35619SOL     OW12692   0.178   5.370  10.813  0.1593  0.0997 -0.0273
35619SOL    HW112693   0.173   5.412  10.900 -0.3466 -1.6546  0.8413
35619SOL    HW212694   0.091   5.386  10.775 -0.1095 -0.3101  0.3920
35620SOL     OW12695   5.010   7.073   4.853  0.3383  0.0792  0.2955
35620SOL    HW112696   4.973   6.991   4.885 -0.2619  0.0752 -0.3705
35620SOL    HW212697   4.950   7.141   4.884 -0.7379  0.0002 -1.4764
35621SOL     OW12698   6.520   6.074   4.179 -0.8278 -0.4024 -0.3824
35621SOL    HW112699   6.535   6.110   4.092  1.9041 -0.2275  0.0690
35621SOL    HW212700   6.431   6.039   4.176 -2.2368  2.9536 -1.9948
35622SOL     OW12701   4.722   8.263   6.165 -0.4672  0.0460 -0.2374
35622SOL    HW112702   4.737   8.286   6.073 -1.9001 -1.4165 -0.8759
35622SOL    HW212703   4.805   8.227   6.195  0.0882  0.7608 -0.8657
35623SOL     OW12704   0.365   8.144   2.682 -0.2505  0.0719  0.0172
35623SOL    HW112705   0.408   8.213   2.632 -1.4162  1.0070  0.2658
35623SOL    HW212706   0.292   8.116   2.627 -1.7464  1.3323  1.2506
35624SOL     OW12707   2.840   5.061   8.071 -0.2007 -0.8215  0.4489
35624SOL    HW112708   2.852   5.070   8.166 -0.2174  1.2797  0.2837
35624SOL    HW212709   2.745   5.064   8.059 -0.3549 -3.1188  0.4748
35625SOL     OW12710   7.093   5.872   3.720  0.1126  0.3551 -0.0746
35625SOL    HW112711   7.187   5.890   3.724  0.3647 -0.4037 -1.5954
35625SOL    HW212712   7.077   5.810   3.791  0.3161  2.1027  1.5631
35626SOL     OW12713   9.625   3.202   7.321 -0.2439  0.4739 -0.3087
35626SOL    HW112714   9.624   3.230   7.412  2.0465 -0.1930 -0.0108
35626SOL    HW212715   9.677   3.269   7.276  0.0090 -0.0462 -0.8028
35627SOL     OW12716   9.017   6.445   0.391  0.2007 -0.4291 -0.0030
35627SOL    HW112717   8.966   6.522   0.417 -0.7329 -0.9187 -0.3415
35627SOL    HW212718   9.079   6.477   0.326  2.1774  0.7111  2.2941
35628SOL     OW12719   8.568   7.831   0.829  0.3008  0.0073  0.5809
35628SOL    HW112720   8.555   7.758   0.768 -1.4365  0.6641  0.1166
35628SOL    HW212721   8.537   7.798   0.913 -0.4087  0.1557  0.3873
35629SOL     OW12722   7.810   7.933   5.884  0.1668  0.7247 -0.1334
35629SOL    HW112723   7.857   7.856   5.915 -0.7659 -0.7302 -2.1558
35629SOL    HW212724   7.860   7.963   5.808 -1.8405 -0.6590 -2.1166
35630SOL     OW12725   5.688   5.249   5.900  0.3297  0.4249  0.3706
35630SOL    HW112726   5.710   5.156   5.902  0.0014  0.3593  1.0857
35630SOL    HW212727   5.773   5.293   5.895  0.4591  0.0766 -0.6641
35631SOL     OW12728   0.462   0.652   0.528  0.1447 -0.2209  0.3023
35631SOL    HW112729   0.417   0.731   0.558  0.9885  0.1553  0.6180
35631SOL    HW212730   0.524   0.684   0.463  0.4756 -0.6258  0.4177
35632SOL     OW12731   2.539   9.341   6.706  0.7783  0.1125 -0.1701
35632SOL    HW112732   2.453   9.323   6.744  0.4414  2.2594  0.1634
35632SOL    HW212733   2.596   9.356   6.782  1.0165  0.4964 -0.4229
35633SOL     OW12734   6.530   6.701   8.168  0.1336 -0.0931  0.4228
35633SOL    HW112735   6.495   6.727   8.083  0.3265 -0.9576  0.0680
35633SOL    HW212736   6.499   6.768   8.229 -1.7383 -0.5567  0.0510
35634SOL     OW12737   9.942   2.299   5.071 -0.0047 -0.0948  0.0351
35634SOL    HW112738  10.022   2.276   5.119  0.3700 -0.9228 -0.9502
35634SOL    HW212739   9.963   2.380   5.025 -0.2198  0.4645  0.9078
35635SOL     OW12740   8.305   9.030   9.188 -0.1346  0.0127 -0.1036
35635SOL    HW112741   8.241   9.093   9.153 -0.1150  1.1266  1.7234
35635SOL    HW212742   8.269   8.945   9.166 -1.1017  0.6423 -1.0806
35636SOL     OW12743   5.968   2.212   8.313 -0.0520  0.1958 -0.6952
35636SOL    HW112744   6.019   2.201   8.394 -1.7799 -1.4953  0.2422
35636SOL    HW212745   5.902   2.278   8.335 -0.7451 -0.5220 -0.5979
35637SOL     OW12746   0.627  10.862   6.552  0.2044  0.3139  0.1000
35637SOL    HW112747   0.643  10.768   6.538 -0.1358  0.4313 -1.1470
35637SOL    HW212748   0.699  10.890   6.608  2.0278 -0.0825 -1.9087
35638SOL     OW12749   2.571   9.790   6.116  0.1193 -0.2546 -0.3156
35638SOL    HW112750   2.611   9.869   6.153 -3.3094  1.0327  1.0153
35638SOL    HW212751   2.553   9.735   6.192  2.2055 -2.3474 -1.2022
35639SOL     OW12752   5.275   1.940   7.715  0.2548 -0.4782 -0.4371
35639SOL    HW112753   5.354   1.886   7.718  0.9546  0.5332 -0.3637
35639SOL    HW212754   5.215   1.890   7.659 -0.3612 -2.9041  2.1689
35640SOL     OW12755   9.554   2.545   3.349 -0.0908  0.3355  0.5368
35640SOL    HW112756   9.605   2.487   3.406  2.0024  1.8028  0.2561
35640SOL    HW212757   9.539   2.492   3.270  0.0742 -0.4729  1.0291
35641SOL     OW12758   8.243   3.684  10.111  0.1815  0.3273 -0.0282
35641SOL    HW112759   8.248   3.648  10.022  1.0439 -0.0478  0.1662
35641SOL    HW212760   8.334   3.692  10.139 -0.0186  2.0186  0.2112
35642SOL     OW12761   2.470   3.915   2.250  0.0930 -0.1368 -0.0667
35642SOL    HW112762   2.416   3.936   2.327 -0.7777 -1.2523 -0.3433
35642SOL    HW212763   2.538   3.982   2.249 -0.4403  0.4482  1.1387
35643SOL     OW12764   6.383  10.605   7.641 -0.1051 -0.5874 -0.4435
35643SOL    HW112765   6.313  10.597   7.706 -1.4006  0.8968 -1.5942
35643SOL    HW212766   6.383  10.521   7.595 -0.3170 -1.0247  0.3281
35644SOL     OW12767   0.547   9.273  10.074  0.4719 -0.0807 -0.0230
35644SOL    HW112768   0.461   9.273  10.115 -0.4862 -1.8643 -1.8915
35644SOL    HW212769   0.605   9.236  10.140 -0.2047  0.8320  1.1287
35645SOL     OW12770   5.334   6.506   5.590  0.2600 -0.1281  0.0359
35645SOL    HW112771   5.253   6.519   5.641 -0.1715 -1.0841 -0.3738
35645SOL    HW212772   5.403   6.541   5.646 -0.4164  0.5124  0.4910
35646SOL     OW12773   8.117   5.660   9.453  0.2093  0.0572  0.5142
35646SOL    HW112774   8.122   5.578   9.404 -0.2629  1.0124 -1.2241
35646SOL    HW212775   8.050   5.645   9.520  0.6572 -1.1968  0.6968
35647SOL     OW12776   9.150   1.658   4.519  0.1807  0.0384  0.3076
35647SOL    HW112777   9.086   1.727   4.533  0.5583  0.5082 -0.2051
35647SOL    HW212778   9.170   1.663   4.425  0.7224 -0.3044  0.3997
35648SOL     OW12779   2.452   1.720   7.115 -0.3186  0.1993  0.0936
35648SOL    HW112780   2.452   1.816   7.113  0.4153  0.1952 -1.1749
35648SOL    HW212781   2.382   1.698   7.177  0.7358  1.5454  1.8559
35649SOL     OW12782   1.470   8.304   8.417  0.0686 -0.1113 -0.0207
35649SOL    HW112783   1.550   8.353   8.398 -0.2089  0.6469  0.6918
35649SOL    HW212784   1.478   8.281   8.510 -0.1195 -0.8454 -0.1767
35650SOL     OW12785   0.739   9.708   2.826  0.1068  0.1912 -0.0224
35650SOL    HW112786   0.764   9.631   2.877  2.2883  0.8036 -0.0342
35650SOL    HW212787   0.644   9.708   2.826  0.0016 -0.4446  3.1512
35651SOL     OW12788   2.248   4.798   3.979 -0.4274  0.3598  0.7594
35651SOL    HW112789   2.206   4.811   3.894 -0.6505  0.9520  0.9539
35651SOL    HW212790   2.188   4.741   4.026  0.2412 -0.9107  0.1307
35652SOL     OW12791   7.590   6.777   1.483  0.1935 -0.1909  0.3276
35652SOL    HW112792   7.669   6.760   1.431  1.4905  2.3667  1.2919
35652SOL    HW212793   7.533   6.824   1.423 -0.1985 -1.1239 -0.0541
35653SOL     OW12794   3.263   9.508   6.252  0.2774 -0.1982  0.2172
35653SOL    HW112795   3.292   9.431   6.203  1.3101  0.7254 -0.6694
35653SOL    HW212796   3.229   9.567   6.186  0.1856  0.4124  0.8007
35654SOL     OW12797   8.157   2.395  10.697 -0.4212  0.2059 -0.4000
35654SOL    HW112798   8.195   2.326  10.753  0.3255  0.4215 -0.6236
35654SOL    HW212799   8.063   2.383  10.705 -0.3090 -0.4872  0.0142
35655SOL     OW12800   5.187   6.380   4.597  0.9548 -0.1985 -0.1224
35655SOL    HW112801   5.169   6.448   4.533 -1.3591 -0.9015 -0.3022
35655SOL    HW212802   5.170   6.421   4.682  1.4082 -0.0330 -0.1087
35656SOL     OW12803  10.152   2.236   2.735 -0.2721  0.3795 -0.3154
35656SOL    HW112804  10.061   2.218   2.759 -0.3484 -1.3195 -1.7111
35656SOL    HW212805  10.146   2.270   2.645  0.4360  0.6599 -0.2564
35657SOL     OW12806   1.909   0.222   3.126  0.1842 -0.1657  0.0191
35657SOL    HW112807   1.898   0.269   3.044  0.8644 -1.4561 -0.8430
35657SOL    HW212808   1.987   0.260   3.165 -1.0823  1.6291  0.9472
35658SOL     OW12809   9.879   3.126   8.000  0.0353  0.5918 -0.5365
35658SOL    HW112810   9.967   3.088   7.999  0.1803  0.9277 -0.6920
35658SOL    HW212811   9.822   3.058   7.963 -0.0844 -0.3898  1.3165
35659SOL     OW12812   1.969   8.559   1.845  0.0038  0.2033 -0.8261
35659SOL    HW112813   1.886   8.553   1.798 -1.3494  2.5279  1.0490
35659SOL    HW212814   1.957   8.503   1.922 -0.3985  1.5259  0.1153
35660SOL     OW12815   4.574   3.901   5.296 -0.1639 -0.2959 -0.2607
35660SOL    HW112816   4.580   3.863   5.208 -0.6354 -0.7299 -0.1091
35660SOL    HW212817   4.603   3.992   5.285 -0.1421 -0.3720 -0.8481
35661SOL     OW12818   4.468   5.341   3.368  0.6806  0.2255  0.1876
35661SOL    HW112819   4.521   5.417   3.390 -0.5918  0.8283  1.3502
35661SOL    HW212820   4.379   5.376   3.361  0.2006 -1.0101 -0.1176
35662SOL     OW12821   2.045   0.453   7.209 -0.2489  0.1425  0.1563
35662SOL    HW112822   2.031   0.379   7.149  1.1494  0.3038 -0.4037
35662SOL    HW212823   1.997   0.428   7.289  0.1309 -1.3348 -0.0446
35663SOL     OW12824   4.937   6.823   2.896 -0.0245  0.5257  0.1642
35663SOL    HW112825   5.031   6.836   2.907  0.0711  0.7909 -0.9035
35663SOL    HW212826   4.899   6.856   2.978  0.7650  0.9418  0.3728
35664SOL     OW12827   9.260   9.486   4.734  0.0660  0.1594 -0.2478
35664SOL    HW112828   9.293   9.571   4.763 -2.6888  1.1851  0.1817
35664SOL    HW212829   9.235   9.500   4.642 -2.2552  0.4954  0.3751
35665SOL     OW12830   8.266   6.153   2.221  0.6079  0.3060 -0.0798
35665SOL    HW112831   8.183   6.173   2.266 -0.7206 -1.9723 -1.3413
35665SOL    HW212832   8.304   6.083   2.272  0.2357 -0.7044 -1.1465
35666SOL     OW12833   0.605   1.746   6.545 -0.1116  0.3836  0.0342
35666SOL    HW112834   0.615   1.837   6.571 -0.5918  0.1845  0.9361
35666SOL    HW212835   0.510   1.734   6.534 -0.0052  0.1587 -0.6991
35667SOL     OW12836   6.146   2.882   8.477  0.6918  0.1964 -0.2360
35667SOL    HW112837   6.222   2.934   8.504  0.7738  0.5069 -1.0497
35667SOL    HW212838   6.081   2.946   8.448  0.0175 -0.0544  0.6721
35668SOL     OW12839   0.947   9.764   1.533 -0.0208 -0.2707  0.3832
35668SOL    HW112840   0.853   9.770   1.550  0.0025  1.0399  0.1929
35668SOL    HW212841   0.973   9.854   1.514  1.2407 -0.6471  0.2457
35669SOL     OW12842   4.778   0.480   4.366 -0.5865  0.0518  0.7048
35669SOL    HW112843   4.839   0.421   4.321 -0.8185 -0.9363  1.6412
35669SOL    HW212844   4.696   0.470   4.319 -0.3096  0.5968  0.0853
35670SOL     OW12845   2.953   0.901   5.918 -0.3161 -0.1421  0.5737
35670SOL    HW112846   2.903   0.918   5.838 -0.8330  0.6181  1.0494
35670SOL    HW212847   3.001   0.820   5.899  0.8570  0.9038 -1.1056
35671SOL     OW12848   0.416   7.063   6.921  0.9695 -0.0578  0.3066
35671SOL    HW112849   0.397   7.007   6.846  0.0328 -0.8849  1.1546
35671SOL    HW212850   0.503   7.099   6.901 -0.0731  1.3638 -2.1432
35672SOL     OW12851   9.836   3.655   5.929 -0.8093  0.2177  0.5605
35672SOL    HW112852   9.867   3.628   5.842 -0.9990  0.1752  0.5066
35672SOL    HW212853   9.916   3.663   5.981 -0.7551 -0.5772  0.6138
35673SOL     OW12854   2.339   4.840   2.724 -0.0517 -0.1761 -0.0998
35673SOL    HW112855   2.353   4.807   2.813  1.9431 -0.3669 -0.4173
35673SOL    HW212856   2.321   4.762   2.672 -2.4551  0.0581  0.2916
35674SOL     OW12857   5.180   6.422   1.343  0.2654 -0.6722  0.1829
35674SOL    HW112858   5.084   6.430   1.347  0.3652  0.1100  1.7360
35674SOL    HW212859   5.211   6.513   1.342  0.9711 -0.8897 -2.3434
35675SOL     OW12860   4.246   8.185   0.324  0.0117  0.0009  0.2310
35675SOL    HW112861   4.296   8.139   0.392 -1.4364 -1.6550  0.2503
35675SOL    HW212862   4.162   8.205   0.366  0.5542  2.6710  0.1813
35676SOL     OW12863   8.086   3.069   2.560  0.3314 -0.2387  0.1079
35676SOL    HW112864   8.069   2.995   2.618  1.3460 -0.8416 -0.3400
35676SOL    HW212865   8.014   3.130   2.577 -1.8859 -2.3440 -1.2610
35677SOL     OW12866   6.302   6.487   8.561 -0.5906  0.0474  0.6870
35677SOL    HW112867   6.352   6.466   8.482 -1.8174 -2.1687  0.4339
35677SOL    HW212868   6.216   6.512   8.529  0.5588  5.7187  0.9711
35678SOL     OW12869   2.578   7.451   7.983  0.3226 -0.4201  1.0049
35678SOL    HW112870   2.563   7.469   7.890 -3.9175 -2.3124  1.1113
35678SOL    HW212871   2.628   7.526   8.014 -1.9575  2.5880 -1.9068
35679SOL     OW12872   5.148  10.571   0.162  0.0764  0.7013  0.3215
35679SOL    HW112873   5.188  10.521   0.091  0.2065  0.9469  0.2203
35679SOL    HW212874   5.219  10.626   0.195  0.4432 -0.5042  1.6610
35680SOL     OW12875   8.843   7.469   2.295  0.5550 -0.1867  0.6284
35680SOL    HW112876   8.846   7.373   2.293 -1.0018 -0.2484  0.6860
35680SOL    HW212877   8.820   7.494   2.205  0.8284  0.1328  0.6461
35681SOL     OW12878   2.854   1.519   7.544 -0.1930  0.4579 -0.3308
35681SOL    HW112879   2.793   1.586   7.513 -0.1548 -0.8724 -3.8269
35681SOL    HW212880   2.801   1.439   7.548  0.3740  0.1259  1.0573
35682SOL     OW12881   1.055   9.828  10.456  0.4537  0.1671 -0.5831
35682SOL    HW112882   1.043   9.791  10.543  0.4124  2.6085  0.5455
35682SOL    HW212883   1.015   9.765  10.397  0.8288 -1.7527  1.1137
35683SOL     OW12884   6.048   8.781   4.890  0.4480 -0.0981 -0.6711
35683SOL    HW112885   6.034   8.709   4.951  0.3032  0.6830  0.2436
35683SOL    HW212886   6.001   8.755   4.811  0.8815 -1.2519 -0.5587
35684SOL     OW12887   8.865   2.302   4.510  0.0805  0.0548 -0.5535
35684SOL    HW112888   8.837   2.392   4.529  1.1533  0.1405  0.8335
35684SOL    HW212889   8.785   2.250   4.516 -0.5002  0.8618 -1.0707
35685SOL     OW12890   4.878   4.652   3.884  0.3197  0.5093  0.3328
35685SOL    HW112891   4.974   4.651   3.887  0.3221 -0.4467 -0.0787
35685SOL    HW212892   4.851   4.568   3.921 -0.2848 -0.3166 -1.8157
35686SOL     OW12893   5.670   0.321   6.803 -0.0325 -0.4874 -0.2325
35686SOL    HW112894   5.661   0.279   6.888 -1.1417  1.1637  0.5310
35686SOL    HW212895   5.639   0.256   6.740  1.1942 -1.8762  0.5476
35687SOL     OW12896   5.941   4.231   8.217 -0.3847 -0.0321 -0.1356
35687SOL    HW112897   6.032   4.200   8.223  0.4809  1.6640 -2.7336
35687SOL    HW212898   5.949   4.326   8.219 -1.8449  0.2050 -2.5971
35688SOL     OW12899   6.046   4.145   5.023  0.4173 -0.0818 -0.3058
35688SOL    HW112900   6.001   4.069   4.986  0.0559  0.9987 -2.2209
35688SOL    HW212901   6.080   4.192   4.947 -0.5070  2.3551  0.6785
35689SOL     OW12902   9.073   3.627   3.615 -0.0401  0.7304  0.3054
35689SOL    HW112903   9.127   3.706   3.617  1.7288 -0.3706 -0.9316
35689SOL    HW212904   9.069   3.598   3.706  3.2257 -0.2038  0.2923
35690SOL     OW12905   9.300   2.412   0.561 -0.8907 -0.5626 -0.4489
35690SOL    HW112906   9.288   2.393   0.654  1.8693 -0.7192 -0.0538
35690SOL    HW212907   9.301   2.326   0.519 -0.7065 -0.5831 -0.4046
35691SOL     OW12908  10.821   6.547   0.652 -0.4790  0.2118 -0.1770
35691SOL    HW112909  10.872   6.568   0.731  0.1093  1.2328 -0.8094
35691SOL    HW212910  10.888   6.527   0.586 -0.9618 -0.3785 -0.4961
35692SOL     OW12911   2.677   9.493   4.465 -0.1758  0.2390 -0.6895
35692SOL    HW112912   2.739   9.565   4.465 -1.1161  1.1037  0.2273
35692SOL    HW212913   2.721   9.423   4.512 -0.3196  1.2996  1.1489
35693SOL     OW12914   5.769   0.787   2.752 -0.2078  0.1538  0.2678
35693SOL    HW112915   5.743   0.728   2.681  0.2418 -0.7401  0.8333
35693SOL    HW212916   5.854   0.753   2.782 -0.2251  0.7325  1.0007
35694SOL     OW12917  10.073   9.583   8.755 -0.1709 -0.2459  0.3676
35694SOL    HW112918  10.006   9.555   8.818 -0.3655 -1.3899 -0.3135
35694SOL    HW212919  10.088   9.505   8.701  1.2255  0.2002  0.0790
35695SOL     OW12920   1.007   7.016   1.253  0.2125 -0.4988 -0.1479
35695SOL    HW112921   0.962   7.088   1.207  1.6166 -0.3522 -1.3473
35695SOL    HW212922   0.936   6.956   1.277 -1.1202  1.5516  1.5140
35696SOL     OW12923   4.788   4.332   2.483 -0.3680  0.0207 -0.6099
35696SOL    HW112924   4.712   4.342   2.426 -0.8027 -0.5064 -0.1379
35696SOL    HW212925   4.786   4.240   2.509 -0.5126  0.3791  0.7043
35697SOL     OW12926  10.800   1.126   5.449 -0.6239  0.1716  0.5497
35697SOL    HW112927  10.732   1.174   5.496 -0.0252 -0.1116  1.7653
35697SOL    HW212928  10.839   1.190   5.390 -0.1424  1.1042  1.8172
35698SOL     OW12929   5.435   5.519   4.250  0.3213  0.7826 -0.1767
35698SOL    HW112930   5.467   5.481   4.168 -1.6231  0.4555 -0.8484
35698SOL    HW212931   5.434   5.446   4.312 -0.8028  0.3384 -0.6844
35699SOL     OW12932   1.429   6.418   5.773  0.5434 -0.2254 -0.0904
35699SOL    HW112933   1.520   6.407   5.745 -0.2405  1.5421 -3.9387
35699SOL    HW212934   1.426   6.503   5.815  0.6853 -0.3795  0.2356
35700SOL     OW12935   7.478   8.836   8.621 -0.1356 -0.0879  0.0873
35700SOL    HW112936   7.529   8.784   8.683 -0.5163 -0.1062  0.3881
35700SOL    HW212937   7.544   8.881   8.567  0.1948 -0.5042  0.1391
35701SOL     OW12938   9.168   2.599   6.631 -0.0775  0.1466  0.6578
35701SOL    HW112939   9.211   2.539   6.570 -0.4108 -0.1907  0.7529
35701SOL    HW212940   9.111   2.653   6.577 -0.1006  0.0897  0.6261
35702SOL     OW12941   8.476   3.613   4.684  0.3480  0.0628 -0.3975
35702SOL    HW112942   8.550   3.572   4.640 -0.6056 -0.5400 -1.4675
35702SOL    HW212943   8.452   3.687   4.628  0.2878  0.4263  0.0908
35703SOL     OW12944   8.452   4.079   7.841  0.1148  0.1008 -0.1030
35703SOL    HW112945   8.390   4.142   7.878  1.8189  1.6225  0.2748
35703SOL    HW212946   8.457   4.010   7.907 -1.7652 -0.4819 -0.5141
35704SOL     OW12947   3.756   8.056   2.620 -0.0688 -0.5205  0.0538
35704SOL    HW112948   3.689   8.074   2.554  1.4561 -0.8909 -1.6708
35704SOL    HW212949   3.733   7.969   2.654 -0.3051 -0.7740 -0.7288
35705SOL     OW12950   5.484   4.192   8.483 -0.0775  0.9218 -0.0896
35705SOL    HW112951   5.457   4.156   8.568  0.8955 -1.0957 -0.5736
35705SOL    HW212952   5.480   4.287   8.495 -1.3983  0.7038  1.7309
35706SOL     OW12953   0.786   1.928  10.909 -0.4192  0.1709 -0.2211
35706SOL    HW112954   0.782   2.015  10.868  0.7070  0.3179 -0.0589
35706SOL    HW212955   0.864   1.932  10.965 -0.7922 -0.6988  0.3764
35707SOL     OW12956   3.620   4.303   9.434 -0.3030 -0.8081 -0.1550
35707SOL    HW112957   3.554   4.352   9.384  0.3568 -1.6704 -1.9713
35707SOL    HW212958   3.699   4.357   9.428  0.3128 -1.8206 -1.8095
35708SOL     OW12959   0.572  10.345   9.209 -0.6022 -0.2813  0.0338
35708SOL    HW112960   0.664  10.322   9.196 -0.0770  1.2730  0.7830
35708SOL    HW212961   0.528  10.315   9.129  0.3939 -1.7308 -0.0211
35709SOL     OW12962   1.203   3.379   6.459  0.2214  0.1157  0.4881
35709SOL    HW112963   1.190   3.373   6.364  2.7105  3.2040 -0.2522
35709SOL    HW212964   1.223   3.290   6.487 -0.2730 -0.8330 -1.9470
35710SOL     OW12965   2.529   8.363   9.316  0.0526  0.2063 -0.1112
35710SOL    HW112966   2.535   8.388   9.224  2.8875  0.5125  0.0791
35710SOL    HW212967   2.611   8.317   9.334 -0.4619  0.0870  2.2448
35711SOL     OW12968   1.387   3.933  10.045  0.8886  0.1505  0.1217
35711SOL    HW112969   1.349   3.986   9.975  0.2795  1.0845  1.1315
35711SOL    HW212970   1.433   3.996  10.100  0.6117 -0.4389  1.0400
35712SOL     OW12971   2.162   8.106   7.545 -0.2378 -0.2705 -0.6194
35712SOL    HW112972   2.176   8.198   7.522  1.1255 -0.4122 -0.4047
35712SOL    HW212973   2.104   8.073   7.477 -2.3167  1.2037  0.2941
35713SOL     OW12974   7.683   5.254   9.604  0.1737 -0.2076  0.3454
35713SOL    HW112975   7.671   5.214   9.517  0.1193  1.2506 -0.3543
35713SOL    HW212976   7.596   5.253   9.643 -0.3042  1.2214 -0.5951
35714SOL     OW12977  10.807   7.084   8.239  0.2728 -0.2370  0.0846
35714SOL    HW112978  10.852   7.000   8.247 -0.5077 -0.5540  1.6910
35714SOL    HW212979  10.728   7.074   8.293 -0.6697  0.9931 -0.9845
35715SOL     OW12980  10.428   1.288   2.765 -0.1885 -0.2302  0.0811
35715SOL    HW112981  10.470   1.223   2.709  1.4253  1.0646 -0.2926
35715SOL    HW212982  10.352   1.317   2.715  1.4725  1.2502 -1.7619
35716SOL     OW12983   4.324   5.913   1.294  0.3536  0.0266 -0.5088
35716SOL    HW112984   4.406   5.872   1.268  0.1995 -1.3617  1.0552
35716SOL    HW212985   4.268   5.841   1.321 -1.5230  0.9199 -1.7638
35717SOL     OW12986   0.675   8.281   6.452  0.2987 -0.5350  0.6365
35717SOL    HW112987   0.650   8.264   6.543 -0.6811  0.4189  0.5619
35717SOL    HW212988   0.703   8.372   6.452  1.9472 -1.0183  0.3059
35718SOL     OW12989   4.181   7.305   8.533 -0.3676 -0.5658 -0.0862
35718SOL    HW112990   4.236   7.295   8.456 -1.9777 -0.0381 -1.3543
35718SOL    HW212991   4.095   7.271   8.507 -0.8472 -0.8074  1.6317
35719SOL     OW12992   6.687   8.427  10.297 -0.1184  0.1057 -0.2457
35719SOL    HW112993   6.680   8.352  10.357 -2.2513 -0.2430 -0.8430
35719SOL    HW212994   6.781   8.439  10.285  0.3029 -1.9252  0.5396
35720SOL     OW12995   4.428   3.520   0.672  0.4110 -0.4018 -0.2519
35720SOL    HW112996   4.427   3.605   0.628  2.3409 -0.3975 -0.3541
35720SOL    HW212997   4.341   3.513   0.712  0.0874  1.4474 -0.5431
35721SOL     OW12998   9.900   3.235  10.382  0.1757  0.0451 -0.5618
35721SOL    HW112999   9.806   3.225  10.398  0.2625  0.5161  0.2957
35721SOL    HW213000   9.941   3.169  10.437  0.3914  0.4602 -0.2201
35722SOL     OW13001   7.636   9.582  10.378 -0.0657 -0.3592 -0.1074
35722SOL    HW113002   7.558   9.586  10.433  0.1548  1.1557  0.1642
35722SOL    HW213003   7.606   9.607  10.291 -0.0012 -0.3668 -0.1316
35723SOL     OW13004   6.516   6.354   3.828 -0.0811  0.3366 -0.2058
35723SOL    HW113005   6.522   6.258   3.822  1.8712  0.4040 -0.1095
35723SOL    HW213006   6.526   6.373   3.921  0.2093  0.6548 -0.2993
35724SOL     OW13007   8.784   6.807   3.252 -0.0551  0.2495  0.4231
35724SOL    HW113008   8.691   6.821   3.273 -0.0506 -0.9411  1.3455
35724SOL    HW213009   8.831   6.848   3.325 -0.0067 -2.6602  2.2075
35725SOL     OW13010   4.602   9.737   7.130  0.5602  0.4963 -0.3666
35725SOL    HW113011   4.646   9.792   7.194  1.5736 -1.2187  0.5089
35725SOL    HW213012   4.570   9.662   7.180 -1.0421  0.4046 -1.4467
35726SOL     OW13013   0.417   1.072   0.863  0.3334  0.0929 -0.6694
35726SOL    HW113014   0.510   1.083   0.882  0.7987 -0.6516 -2.2852
35726SOL    HW213015   0.389   1.158   0.831  0.2873  0.5010  0.4400
35727SOL     OW13016   5.927   4.053   0.791 -0.6074  0.2848  0.1219
35727SOL    HW113017   5.856   4.082   0.734  1.1552  0.7870 -1.9659
35727SOL    HW213018   5.997   4.117   0.776  1.3133 -1.7547 -0.1561
35728SOL     OW13019   9.386   8.129   6.955 -0.6141  0.3983 -0.0874
35728SOL    HW113020   9.310   8.128   6.897  0.6759  2.3514 -1.9978
35728SOL    HW213021   9.417   8.220   6.952  1.3635 -0.1611  1.1707
35729SOL     OW13022   6.131   9.960   5.676  0.1456 -0.0385 -0.2838
35729SOL    HW113023   6.120  10.047   5.713 -0.5854  0.4093 -1.5286
35729SOL    HW213024   6.097   9.901   5.743  1.8144  0.5112  1.1153
35730SOL     OW13025  10.281   3.404   2.582  0.1316  0.1410  0.1347
35730SOL    HW113026  10.345   3.340   2.553  0.0139  0.0014  0.1826
35730SOL    HW213027  10.228   3.358   2.648 -1.8773 -0.7032 -1.9307
35731SOL     OW13028   1.395   5.633   1.141 -0.2016 -0.6110  0.6955
35731SOL    HW113029   1.390   5.729   1.143  0.0129 -0.5922  3.0734
35731SOL    HW213030   1.306   5.604   1.163 -0.6898 -1.0331 -1.6161
35732SOL     OW13031   1.704   2.176   3.199  0.4546 -0.2465  0.0243
35732SOL    HW113032   1.671   2.249   3.252 -2.6905  0.5881 -2.7584
35732SOL    HW213033   1.636   2.109   3.206  0.8997 -0.8827 -1.4120
35733SOL     OW13034   6.442   6.438  10.859 -0.0679 -0.2195 -0.3660
35733SOL    HW113035   6.520   6.402  10.817  0.7032  1.4568 -0.4227
35733SOL    HW213036   6.407   6.500  10.795 -1.0934 -0.4707 -0.0697
35734SOL     OW13037   4.283   1.569   2.657 -0.2792 -0.6122  0.0022
35734SOL    HW113038   4.223   1.495   2.662  0.2729 -1.0193  0.9212
35734SOL    HW213039   4.310   1.585   2.748  1.1819 -0.6063 -0.3970
35735SOL     OW13040  10.025   1.507   8.503 -0.2549 -0.6478 -0.0875
35735SOL    HW113041   9.999   1.431   8.554  1.7948 -1.1447  0.2997
35735SOL    HW213042  10.120   1.500   8.496 -0.0546  1.6848 -0.3684
35736SOL     OW13043   8.287   2.616  10.598 -0.7519 -0.2112 -0.3765
35736SOL    HW113044   8.373   2.577  10.612 -0.6777  0.1239  0.1375
35736SOL    HW213045   8.225   2.548  10.625 -0.6758 -0.7091 -1.4000
35737SOL     OW13046   0.536   0.663   7.134  0.2743 -0.1825  0.3013
35737SOL    HW113047   0.538   0.660   7.038 -1.0269 -1.1250  0.2850
35737SOL    HW213048   0.586   0.587   7.162 -1.6586 -1.5053  0.3094
35738SOL     OW13049   3.678   2.850   9.510 -0.0902 -0.6258  0.5717
35738SOL    HW113050   3.651   2.837   9.419  0.0080 -0.3097  0.4950
35738SOL    HW213051   3.691   2.762   9.544 -0.9025 -0.7760  0.5191
35739SOL     OW13052   5.466   2.830   5.388 -0.3784  0.0165 -0.0720
35739SOL    HW113053   5.479   2.883   5.467 -0.2492  0.1108 -0.1547
35739SOL    HW213054   5.418   2.888   5.329 -0.2429  0.0406 -0.1604
35740SOL     OW13055   3.747   1.104   8.114 -0.2134 -0.0351 -0.2060
35740SOL    HW113056   3.656   1.113   8.083  0.4191  2.3586 -1.7061
35740SOL    HW213057   3.751   1.163   8.189 -0.1371 -0.9228  0.4905
35741SOL     OW13058   7.208   7.136   5.881 -0.1067  0.2862 -0.2468
35741SOL    HW113059   7.132   7.135   5.822  1.0593  0.9938 -1.8353
35741SOL    HW213060   7.283   7.127   5.822  1.0286 -1.4129  1.3576
35742SOL     OW13061   8.445   9.564   5.120 -0.4759 -0.6447  0.0835
35742SOL    HW113062   8.352   9.569   5.098 -0.2214  1.1756 -0.8177
35742SOL    HW213063   8.452   9.608   5.205 -0.5360 -1.4973  0.5350
35743SOL     OW13064   5.405   9.127   4.431 -0.3576  0.1668 -0.1028
35743SOL    HW113065   5.494   9.162   4.422  0.5559 -1.4068  1.9061
35743SOL    HW213066   5.354   9.176   4.367  1.2446  3.4946  0.9079
35744SOL     OW13067   8.494   4.057   2.565 -0.2395  0.3293 -0.1731
35744SOL    HW113068   8.512   4.148   2.592  0.5524  0.1250  0.0379
35744SOL    HW213069   8.577   4.012   2.581 -1.1100 -0.8112  1.3392
35745SOL     OW13070   2.330   9.069   1.093  0.1452 -0.2085  0.1653
35745SOL    HW113071   2.244   9.095   1.059  1.1466  1.8459 -0.9929
35745SOL    HW213072   2.336   9.112   1.178  0.2681  0.2207 -0.0541
35746SOL     OW13073   5.781  10.899   8.630  0.2301 -0.3758 -0.0439
35746SOL    HW113074   5.818  10.814   8.603 -0.2758 -0.9733  1.0925
35746SOL    HW213075   5.766  10.945   8.547  1.0075 -1.1815 -0.6595
35747SOL     OW13076   1.313   5.942   4.343  0.1437 -0.2035 -0.4502
35747SOL    HW113077   1.292   5.850   4.359  0.2320 -0.3219 -1.0004
35747SOL    HW213078   1.249   5.971   4.278 -2.4016  1.2154  2.4287
35748SOL     OW13079   7.256   4.471   4.499 -0.4358 -0.3589  0.4094
35748SOL    HW113080   7.221   4.395   4.544 -0.0688 -0.2034  0.9685
35748SOL    HW213081   7.332   4.497   4.551 -0.2621  0.0889 -0.0536
35749SOL     OW13082   1.348  10.640  10.454 -0.0041  0.4112 -0.4980
35749SOL    HW113083   1.407  10.573  10.486  1.6893  1.6460 -0.8896
35749SOL    HW213084   1.339  10.622  10.361  0.6045  0.8176 -0.6412
35750SOL     OW13085   6.286   0.394   6.169 -0.4056 -0.2365 -0.3148
35750SOL    HW113086   6.313   0.439   6.249 -0.2928 -0.2760 -0.3294
35750SOL    HW213087   6.327   0.444   6.098  0.5085 -0.9004 -0.2848
35751SOL     OW13088   6.762   1.326   3.218  0.1239  0.4390 -0.1840
35751SOL    HW113089   6.803   1.240   3.209 -2.1344 -0.5595 -1.9148
35751SOL    HW213090   6.679   1.308   3.262 -0.6043  1.6450 -1.0220
35752SOL     OW13091   9.937  10.743  10.012 -0.1465  0.1423 -0.1372
35752SOL    HW113092   9.937  10.788  10.096 -0.7877  0.9255 -0.5508
35752SOL    HW213093   9.845  10.723   9.995  0.1072 -1.2457 -0.0132
35753SOL     OW13094   3.007   7.259  10.512 -0.1173  0.0672  0.3518
35753SOL    HW113095   3.022   7.165  10.502 -1.8573 -0.3332  1.2376
35753SOL    HW213096   2.923   7.266  10.556 -0.2077  2.0657 -0.0355
35754SOL     OW13097   4.436   2.838   5.205  0.1218  0.0091 -0.1189
35754SOL    HW113098   4.408   2.882   5.125  0.1840 -0.0276 -0.1608
35754SOL    HW213099   4.530   2.855   5.211  0.2265 -0.4569 -0.3527
35755SOL     OW13100   5.476   5.827   6.277  0.0412 -0.0511  0.0210
35755SOL    HW113101   5.451   5.744   6.236  0.3068 -0.1878  0.1301
35755SOL    HW213102   5.500   5.803   6.367  1.4204 -0.0774 -0.3215
35756SOL     OW13103   5.745   5.046   2.814  0.0026 -0.1494  0.5327
35756SOL    HW113104   5.687   5.052   2.889  0.5355  0.0105  0.9391
35756SOL    HW213105   5.697   5.088   2.742  0.2943  1.5073  1.2758
35757SOL     OW13106   2.014   5.396   5.904  0.0431 -0.3511 -0.4282
35757SOL    HW113107   2.074   5.399   5.830 -1.7043  0.8857 -1.8966
35757SOL    HW213108   1.974   5.310   5.899  0.5822 -0.6085 -0.3581
35758SOL     OW13109   1.211   0.965   1.933  0.7455 -0.0051 -0.5896
35758SOL    HW113110   1.269   0.963   2.009  0.6520 -0.6067 -0.5300
35758SOL    HW213111   1.217   1.055   1.901  3.1812 -0.4821 -1.6987
35759SOL     OW13112   1.009   0.326   3.780  0.3308 -0.2548 -0.1823
35759SOL    HW113113   1.064   0.254   3.811  0.4197 -0.5823 -1.0771
35759SOL    HW213114   0.962   0.289   3.705  0.2196  0.5618 -0.5145
35760SOL     OW13115   1.915  10.128   7.367 -1.0126 -0.3983  0.3320
35760SOL    HW113116   2.003  10.140   7.402 -1.2960  1.8485  0.4114
35760SOL    HW213117   1.929  10.090   7.280  0.0127 -0.2608  0.4281
35761SOL     OW13118   0.674   1.111   0.923  0.8357  0.3526  0.2059
35761SOL    HW113119   0.706   1.199   0.944  2.4630 -0.1442 -0.0254
35761SOL    HW213120   0.686   1.061   1.004  0.8025  0.1111  0.0620
35762SOL     OW13121   2.392   7.615   0.748 -0.7418 -0.0446 -0.3050
35762SOL    HW113122   2.467   7.575   0.705  0.3713  0.6327  0.9267
35762SOL    HW213123   2.428   7.690   0.794 -2.3462  0.8520 -0.4312
35763SOL     OW13124   7.944   5.329   3.555  0.1433  0.2353  0.3075
35763SOL    HW113125   7.890   5.252   3.541 -1.1639  0.8965  1.3842
35763SOL    HW213126   8.033   5.300   3.539 -0.3488 -1.4239  0.4201
35764SOL     OW13127   8.528  10.168  10.134  0.0983 -0.4731 -0.2472
35764SOL    HW113128   8.443  10.211  10.128  0.6811  0.6267 -0.8381
35764SOL    HW213129   8.559  10.161  10.044  0.5550 -1.0259 -0.0568
35765SOL     OW13130   2.214  10.242   0.042 -0.2228 -0.2610  0.2403
35765SOL    HW113131   2.195  10.335   0.029  0.8216  0.0402  0.7433
35765SOL    HW213132   2.136  10.207   0.084 -0.8367  0.2651 -0.4170
35766SOL     OW13133   4.807   0.668   0.343  0.4022  0.3223 -0.4828
35766SOL    HW113134   4.882   0.629   0.298  0.0722 -0.4640 -0.3513
35766SOL    HW213135   4.739   0.674   0.276  0.5396  0.9527 -0.5782
35767SOL     OW13136   9.830   5.832  10.917  0.3601  0.1587 -0.0621
35767SOL    HW113137   9.762   5.896  10.894 -1.5785 -1.6565  0.3539
35767SOL    HW213138   9.868   5.866  10.998 -1.5915  0.1797  0.9236
35768SOL     OW13139   1.674   6.168   6.883 -0.2251  0.1799  0.3079
35768SOL    HW113140   1.579   6.171   6.897 -0.2341 -1.6020  0.9126
35768SOL    HW213141   1.710   6.146   6.969  0.6919  0.3069 -0.0337
35769SOL     OW13142   9.588   6.814   8.844  0.1566  0.0414  0.1974
35769SOL    HW113143   9.507   6.813   8.793 -0.8042 -0.8640  1.6624
35769SOL    HW213144   9.595   6.903   8.877 -1.1639 -0.2828  1.4234
35770SOL     OW13145   3.257   4.033   2.559  0.0085 -0.8308 -0.1646
35770SOL    HW113146   3.178   4.074   2.523  0.8104  0.2652 -0.7336
35770SOL    HW213147   3.291   4.096   2.622 -0.4107 -1.9833  1.2940
35771SOL     OW13148   6.052   7.552   1.584 -0.5500 -0.2130 -0.1299
35771SOL    HW113149   6.019   7.616   1.647  0.3113 -1.7217  1.9560
35771SOL    HW213150   6.139   7.586   1.560 -1.5728  1.3054 -2.0229
35772SOL     OW13151   2.089   6.026   8.413 -0.1186  0.2143 -0.1135
35772SOL    HW113152   2.034   6.091   8.457 -0.8049  0.0678 -0.7374
35772SOL    HW213153   2.179   6.057   8.429 -0.3067 -0.0711  1.7345
35773SOL     OW13154   0.505   3.539   0.325  0.4499 -0.2083 -0.0114
35773SOL    HW113155   0.577   3.485   0.295  0.5525  1.1641 -2.4281
35773SOL    HW213156   0.535   3.629   0.313 -0.8834  0.4003  0.9257
35774SOL     OW13157   0.693   0.845   2.689 -0.1715  0.1388  0.2347
35774SOL    HW113158   0.679   0.932   2.653 -0.0467  0.1299  0.1658
35774SOL    HW213159   0.693   0.858   2.784 -3.4341 -0.2331  0.3962
35775SOL     OW13160   1.617   2.717   0.418 -0.2242 -0.2847 -0.4935
35775SOL    HW113161   1.672   2.686   0.347 -1.6359 -1.6858 -1.0470
35775SOL    HW213162   1.607   2.641   0.475 -1.0763  0.1114 -0.0977
35776SOL     OW13163  10.813   7.870   7.331  0.7072  0.0621  0.4580
35776SOL    HW113164  10.786   7.858   7.422  0.2950  2.2101  0.6729
35776SOL    HW213165  10.731   7.867   7.282  0.9108 -0.8848  0.1510
35777SOL     OW13166   4.676   7.422   3.905 -0.3448 -0.2092  0.5263
35777SOL    HW113167   4.599   7.376   3.870  0.1051 -0.9315  0.4611
35777SOL    HW213168   4.720   7.458   3.828 -0.1405 -0.5550  0.4805
35778SOL     OW13169   6.818  10.179   6.764  0.0719 -0.3979  0.7421
35778SOL    HW113170   6.785  10.228   6.690  0.7310 -1.3341 -0.2057
35778SOL    HW213171   6.907  10.212   6.777 -0.0584 -0.2025  1.1467
35779SOL     OW13172   2.332   0.090   6.167 -0.2840 -0.4132 -0.1875
35779SOL    HW113173   2.400   0.036   6.126  0.7598  1.1279 -0.5740
35779SOL    HW213174   2.250   0.059   6.127  0.3183 -1.3974 -0.7088
35780SOL     OW13175   3.071   5.176   9.013 -0.3160  0.2747 -0.3445
35780SOL    HW113176   3.009   5.103   9.004 -0.0550  0.1034 -0.7969
35780SOL    HW213177   3.046   5.219   9.095  1.3870 -2.1129  1.6107
35781SOL     OW13178   4.406   4.706   7.573 -0.5480 -0.2292  0.4410
35781SOL    HW113179   4.341   4.680   7.639  0.5654 -0.2108  1.5767
35781SOL    HW213180   4.490   4.692   7.616  0.1792  1.3045 -0.4039
35782SOL     OW13181   6.906   3.158   9.811  0.1953 -0.3579 -0.2685
35782SOL    HW113182   6.868   3.245   9.798  0.5731 -0.3039 -1.1107
35782SOL    HW213183   6.870   3.128   9.894  0.6564  0.9093  0.4143
35783SOL     OW13184   1.111   7.547   6.201  0.8078 -0.6338  0.0807
35783SOL    HW113185   1.089   7.602   6.126  0.4059  0.8182  1.2154
35783SOL    HW213186   1.188   7.588   6.239 -1.2459  1.0953  2.7434
35784SOL     OW13187   8.896   4.402   3.960 -0.4264  0.1096 -0.4015
35784SOL    HW113188   8.965   4.378   3.898  1.3527  1.2866  1.0161
35784SOL    HW213189   8.911   4.495   3.978 -0.0220 -0.4491  2.7239
35785SOL     OW13190   6.635   5.137   4.799  0.1346  0.5438 -0.0513
35785SOL    HW113191   6.560   5.170   4.850  1.0533  0.8194  1.1830
35785SOL    HW213192   6.679   5.076   4.858  1.9753  1.8509  0.0080
35786SOL     OW13193   3.394   8.855   2.399 -0.4713 -0.0604 -0.7622
35786SOL    HW113194   3.461   8.871   2.465 -2.9698  1.1989  1.6728
35786SOL    HW213195   3.393   8.936   2.347 -1.7888  1.0472  0.8877
35787SOL     OW13196   5.722   5.600   8.472  0.2631  1.2223  0.6279
35787SOL    HW113197   5.631   5.572   8.461  0.4283  1.1794 -0.8639
35787SOL    HW213198   5.719   5.668   8.538 -0.7002  0.4714  1.3872
35788SOL     OW13199   5.119   0.978   2.666 -0.1171  0.4172 -0.4279
35788SOL    HW113200   5.063   0.923   2.721 -0.7471  1.2699 -0.1941
35788SOL    HW213201   5.137   0.925   2.589 -2.1686  0.4978 -1.0321
35789SOL     OW13202   0.551   6.350  10.377  0.4884 -0.2001  0.3913
35789SOL    HW113203   0.472   6.375  10.329  0.4824 -0.4496  0.2657
35789SOL    HW213204   0.558   6.255  10.362  1.0107 -0.1185  0.0957
35790SOL     OW13205   8.826   7.450   1.047  0.9210 -0.9796 -0.2002
35790SOL    HW113206   8.780   7.370   1.072  0.4647 -0.4055  0.8506
35790SOL    HW213207   8.855   7.489   1.130  0.4714  0.3307 -0.6253
35791SOL     OW13208   8.757   2.228   1.136  0.0290  0.2807  0.1123
35791SOL    HW113209   8.760   2.176   1.216 -0.0616  1.2001  0.7253
35791SOL    HW213210   8.665   2.254   1.127  0.0699  0.3284 -0.2011
35792SOL     OW13211   6.919   4.384   9.322 -0.3528 -0.6397 -0.1370
35792SOL    HW113212   6.881   4.296   9.316  0.6437 -1.1564  0.7128
35792SOL    HW213213   6.880   4.421   9.401 -0.6735 -0.3570 -0.4236
35793SOL     OW13214   2.777   5.714   5.964 -0.0207 -0.7237  0.1725
35793SOL    HW113215   2.826   5.633   5.976 -0.0712 -0.9975 -1.3495
35793SOL    HW213216   2.794   5.740   5.874  2.0272  2.3196  1.2765
35794SOL     OW13217   4.429   9.923  10.521 -0.2852  0.0318  0.0194
35794SOL    HW113218   4.434   9.977  10.600 -1.6492  1.2371 -0.6752
35794SOL    HW213219   4.417   9.834  10.554 -1.6035  0.6057  1.1880
35795SOL     OW13220   2.629   3.749   3.516  0.7514 -0.0178  0.1228
35795SOL    HW113221   2.568   3.786   3.452  2.4006 -1.1096 -2.2059
35795SOL    HW213222   2.691   3.820   3.533  2.4948 -0.7762 -2.4852
35796SOL     OW13223   4.009   6.693   8.099 -0.2268 -0.4391  0.3772
35796SOL    HW113224   4.055   6.642   8.032 -3.6727 -0.4895 -2.1900
35796SOL    HW213225   3.966   6.628   8.154  0.4161 -0.3288  1.0373
35797SOL     OW13226   5.974   0.788   5.463 -0.4538 -0.2353  0.1710
35797SOL    HW113227   6.049   0.779   5.405 -0.3685 -2.0545  0.5044
35797SOL    HW213228   5.906   0.732   5.425 -0.2973 -1.7275  1.9099
35798SOL     OW13229   6.942   6.232   0.628 -0.0251 -0.0801  0.1417
35798SOL    HW113230   6.873   6.234   0.563 -0.2910 -0.9702  0.3862
35798SOL    HW213231   6.901   6.194   0.706  1.0755 -1.9221 -0.1299
35799SOL     OW13232   8.212   4.526   1.771 -0.2705 -0.4368  0.4845
35799SOL    HW113233   8.201   4.578   1.850 -1.4978 -2.4325  1.7276
35799SOL    HW213234   8.208   4.589   1.699 -0.3659  1.2930  1.9465
35800SOL     OW13235   0.377   9.825   9.475  0.2637  0.2472 -0.7041
35800SOL    HW113236   0.335   9.778   9.547  3.2260 -0.8438  0.4951
35800SOL    HW213237   0.338   9.789   9.396  0.6870 -2.5646  0.2525
35801SOL     OW13238   6.281   9.275   9.743 -0.2034 -0.2443  0.2360
35801SOL    HW113239   6.354   9.237   9.791  0.8425  0.9264 -0.3637
35801SOL    HW213240   6.284   9.232   9.657 -1.0613 -1.1436  0.6298
35802SOL     OW13241   4.243   2.841   0.330  0.2823 -0.2150  0.1221
35802SOL    HW113242   4.323   2.808   0.289  0.6760 -0.1879  0.8423
35802SOL    HW213243   4.268   2.926   0.365 -0.0115 -0.2846  0.5054
35803SOL     OW13244  10.545   6.684   4.697 -0.7573 -0.3917  0.2389
35803SOL    HW113245  10.478   6.685   4.629  0.8758 -0.0104 -1.4372
35803SOL    HW213246  10.530   6.765   4.746 -3.2075 -1.6230  1.7121
35804SOL     OW13247   0.292   0.835   0.824  0.0330 -0.0184  0.0250
35804SOL    HW113248   0.320   0.766   0.883  1.2552 -0.8648 -1.4734
35804SOL    HW213249   0.355   0.906   0.838  1.0657 -0.6807 -1.0499
35805SOL     OW13250   4.764   3.209  10.471  0.1544  0.0550 -0.4398
35805SOL    HW113251   4.679   3.174  10.445 -0.0072  0.5863 -0.6622
35805SOL    HW213252   4.743   3.282  10.530  0.3896  1.0318 -1.5141
35806SOL     OW13253   4.078   6.607   2.100 -0.5448 -0.2082 -0.0439
35806SOL    HW113254   4.092   6.553   2.178 -1.1249 -1.0004 -0.4689
35806SOL    HW213255   3.995   6.575   2.064  0.5417 -1.0632 -1.9281
35807SOL     OW13256   6.753   0.538   9.397 -0.4214  0.3513  0.6392
35807SOL    HW113257   6.714   0.561   9.482  1.3585  0.8092  1.3797
35807SOL    HW213258   6.790   0.621   9.365 -1.8413  0.4041 -1.0711
35808SOL     OW13259   8.326   8.313   8.637  0.1906  0.5180  0.2434
35808SOL    HW113260   8.399   8.356   8.593  0.1212  2.0840  1.5485
35808SOL    HW213261   8.249   8.363   8.610 -0.2066 -0.2063  0.0263
35809SOL     OW13262   9.009   9.803   4.885 -0.5116  0.0360 -0.3940
35809SOL    HW113263   8.948   9.872   4.857 -0.9144 -0.7677 -1.5701
35809SOL    HW213264   9.061   9.844   4.954 -0.7229  1.5314 -1.0826
35810SOL     OW13265   2.853   7.077   6.298 -0.4944  0.3042 -0.0776
35810SOL    HW113266   2.917   7.145   6.320  0.6937 -0.1462 -1.8556
35810SOL    HW213267   2.824   7.043   6.382 -0.7115  2.5999  0.8651
35811SOL     OW13268   2.384   6.530   1.428 -0.3987 -0.2634 -0.2693
35811SOL    HW113269   2.366   6.443   1.464 -0.1945 -0.3018 -0.2587
35811SOL    HW213270   2.405   6.583   1.505  0.7124 -0.5107 -0.3849
35812SOL     OW13271   2.006   4.381  10.618 -0.2973 -0.2678 -0.2844
35812SOL    HW113272   2.045   4.347  10.699  0.6086  1.0999 -0.1006
35812SOL    HW213273   1.951   4.454  10.647 -0.9750 -0.5708 -0.7903
35813SOL     OW13274   1.338   5.677   0.575 -0.7890 -0.5632  0.0641
35813SOL    HW113275   1.327   5.582   0.584  0.5336 -0.8923 -1.3398
35813SOL    HW213276   1.249   5.712   0.583 -1.5367 -2.0857 -0.9632
35814SOL     OW13277   4.485   9.256   3.090  1.1431 -0.8116  0.1918
35814SOL    HW113278   4.502   9.199   3.015 -0.5148 -0.8083 -0.2177
35814SOL    HW213279   4.390   9.257   3.100  1.2143  0.5864  1.2075
35815SOL     OW13280   9.991   5.782   4.023  0.2539 -0.0001 -0.1387
35815SOL    HW113281   9.951   5.720   3.962  0.5013 -1.7091  1.3666
35815SOL    HW213282  10.082   5.786   3.996 -0.1595  1.3303 -1.4935
35816SOL     OW13283   7.830  10.021   0.116 -0.1082  0.3081  0.1259
35816SOL    HW113284   7.900  10.036   0.052 -1.0254  2.7251 -0.4273
35816SOL    HW213285   7.808   9.928   0.105  3.1641 -0.6497  0.5861
35817SOL     OW13286   5.820   2.677   7.672 -0.2891 -0.0885  0.3502
35817SOL    HW113287   5.903   2.674   7.719 -0.9594 -0.1170  1.5790
35817SOL    HW213288   5.803   2.771   7.661 -0.8541 -0.0364  1.5315
35818SOL     OW13289  10.609   2.419   8.485 -0.2729  0.4559  0.0156
35818SOL    HW113290  10.513   2.419   8.486 -0.2770  1.2405  1.2254
35818SOL    HW213291  10.632   2.464   8.404 -0.9366  0.8562  0.0421
35819SOL     OW13292   7.973   4.325   3.063 -0.1393 -0.0824 -0.3505
35819SOL    HW113293   8.021   4.243   3.068 -1.0828 -0.5605  1.7689
35819SOL    HW213294   8.040   4.391   3.042  0.7558 -1.2470 -1.2578
35820SOL     OW13295   5.876  10.781   4.529 -0.0253 -0.3556  0.0459
35820SOL    HW113296   5.842  10.865   4.499 -0.4618 -0.5418  0.0092
35820SOL    HW213297   5.845  10.773   4.619 -0.0877 -0.5356  0.0080
35821SOL     OW13298   3.140   4.343   3.504 -0.2732 -0.6052  0.0851
35821SOL    HW113299   3.138   4.438   3.494  1.0008 -0.7184 -1.6258
35821SOL    HW213300   3.048   4.316   3.497 -0.6777  0.5036  0.8736
35822SOL     OW13301   9.600   6.157   6.554  0.4607  0.5039 -0.1549
35822SOL    HW113302   9.557   6.228   6.505  1.4047  1.0708 -0.1894
35822SOL    HW213303   9.689   6.156   6.520  0.8890  0.3202  0.9529
35823SOL     OW13304   2.638   5.694   7.231  0.5265 -0.5968  0.2548
35823SOL    HW113305   2.721   5.741   7.223 -0.0546  0.1802 -1.6323
35823SOL    HW213306   2.571   5.762   7.228 -0.2199 -1.1271  2.6954
35824SOL     OW13307   0.994   9.814   2.877  0.0470  0.4954  0.4117
35824SOL    HW113308   0.970   9.887   2.820 -0.7057 -0.0538  0.0058
35824SOL    HW213309   0.918   9.757   2.876  0.9683 -0.7592 -0.0015
35825SOL     OW13310   9.305   6.983   0.229 -0.3460 -1.2637 -0.9001
35825SOL    HW113311   9.315   6.995   0.134 -1.3049  3.0062 -0.6762
35825SOL    HW213312   9.373   7.039   0.266 -1.5645 -0.8933  0.8736
35826SOL     OW13313  10.383   3.027  10.597 -0.2281  0.0253 -0.2701
35826SOL    HW113314  10.441   3.102  10.602  1.8500 -1.4619 -0.8252
35826SOL    HW213315  10.334   3.040  10.516  0.9701  0.2205 -0.9842
35827SOL     OW13316   7.293   1.106   7.868 -0.1594  0.0510  0.5997
35827SOL    HW113317   7.319   1.015   7.879  1.6547  0.4099 -0.3368
35827SOL    HW213318   7.204   1.102   7.833  0.2597 -1.3764 -0.3571
35828SOL     OW13319   7.188  10.680   8.267  0.1325 -0.1522 -0.0220
35828SOL    HW113320   7.128  10.619   8.309 -0.7035  0.8082  0.1944
35828SOL    HW213321   7.231  10.726   8.339 -0.2951  0.5295 -0.1980
35829SOL     OW13322   9.767   1.332   2.823 -0.3898 -0.1760  0.7764
35829SOL    HW113323   9.810   1.247   2.825  0.4623  0.0646 -2.1617
35829SOL    HW213324   9.811   1.383   2.891  0.6309 -1.3983  1.0689
35830SOL     OW13325   2.814   9.607   2.460  0.2859  0.1476  0.7281
35830SOL    HW113326   2.773   9.547   2.397  0.1632  0.8923  0.0746
35830SOL    HW213327   2.859   9.550   2.522  1.3610 -0.5985 -0.6734
35831SOL     OW13328   7.151   3.675   2.935 -0.1311  0.0890  0.5170
35831SOL    HW113329   7.058   3.662   2.949 -0.2636  0.6876  0.2182
35831SOL    HW213330   7.191   3.657   3.020 -0.5226 -0.0953  0.6646
35832SOL     OW13331   5.039  10.861   3.067  0.1614  0.2122  0.0176
35832SOL    HW113332   5.094  10.808   3.124 -0.4577 -0.9768 -0.4678
35832SOL    HW213333   4.987  10.915   3.127 -1.1327 -1.6614  0.6895
35833SOL     OW13334   2.790   1.961   1.149  0.2435  0.1343 -0.2497
35833SOL    HW113335   2.773   1.915   1.231 -0.1569 -0.1224 -0.4753
35833SOL    HW213336   2.758   2.050   1.164 -0.8197 -0.1916 -0.4792
35834SOL     OW13337   2.486   0.747   9.900  0.0862 -0.1116  0.2935
35834SOL    HW113338   2.481   0.696   9.981  0.1160 -1.9406 -0.7881
35834SOL    HW213339   2.400   0.735   9.860 -0.0409  1.0535  0.2082
35835SOL     OW13340   8.451   6.461   3.259 -0.3646 -0.3316 -0.1868
35835SOL    HW113341   8.415   6.375   3.282 -0.2362 -0.2883  0.1823
35835SOL    HW213342   8.472   6.454   3.166  0.9661 -1.1774  0.1530
35836SOL     OW13343   2.148   5.621   3.791  0.0076  0.2575  0.2330
35836SOL    HW113344   2.057   5.625   3.760 -0.0568 -0.2413  0.3460
35836SOL    HW213345   2.143   5.570   3.872  0.6514 -1.6817 -0.8614
35837SOL     OW13346  10.290   6.605   6.825  0.7354  0.0706  1.3329
35837SOL    HW113347  10.216   6.559   6.863  1.1990 -2.3372 -0.4735
35837SOL    HW213348  10.362   6.589   6.886  0.1637  1.2263  2.3617
35838SOL     OW13349   8.222   2.741   7.009 -0.2575  0.1403 -0.1938
35838SOL    HW113350   8.160   2.669   6.996  0.9681 -0.8983 -0.4642
35838SOL    HW213351   8.294   2.702   7.058 -0.1853  1.5431  0.8790
35839SOL     OW13352  10.880   6.053   4.598 -0.4074  0.8925 -0.8230
35839SOL    HW113353  10.860   5.965   4.567 -0.8719  1.1699 -1.3385
35839SOL    HW213354  10.845   6.056   4.687 -0.2591  0.5116 -0.7517
35840SOL     OW13355   0.876   7.734   1.366 -0.5459  0.0732  0.0520
35840SOL    HW113356   0.941   7.767   1.303 -0.1010 -0.8309  0.0212
35840SOL    HW213357   0.867   7.641   1.344 -2.3499  0.3186 -0.3685
35841SOL     OW13358   0.831   8.517   6.323  0.4542 -0.0346 -0.4459
35841SOL    HW113359   0.762   8.579   6.349 -0.3742 -1.1758  0.1388
35841SOL    HW213360   0.813   8.499   6.231 -1.7517 -2.3616  0.3101
35842SOL     OW13361  10.913   3.417   5.353 -0.0051 -0.5525  0.4066
35842SOL    HW113362  10.825   3.389   5.377 -0.1220 -0.4929  0.0552
35842SOL    HW213363  10.951   3.450   5.434 -0.6306  0.2599  0.3829
35843SOL     OW13364  10.540   5.600   9.227  0.4771  0.5788  0.3799
35843SOL    HW113365  10.482   5.665   9.186 -0.1311 -0.8556 -1.1637
35843SOL    HW213366  10.529   5.615   9.321 -2.3340  0.4973  0.1694
35844SOL     OW13367   2.050   3.883   9.454 -0.1985  0.2503 -0.1882
35844SOL    HW113368   2.065   3.792   9.429  0.6795 -0.3524  2.2015
35844SOL    HW213369   1.957   3.897   9.441 -0.7258 -1.6430  1.1827
35845SOL     OW13370   3.322   0.271   0.769  0.8101 -0.2253  0.0872
35845SOL    HW113371   3.268   0.233   0.700  1.0008  0.0323 -0.2022
35845SOL    HW213372   3.261   0.324   0.821  0.2913 -1.8102  1.1837
35846SOL     OW13373   5.957   2.425   5.712  0.0185 -1.0006  0.2949
35846SOL    HW113374   5.946   2.422   5.617 -0.2590  0.3058  0.2598
35846SOL    HW213375   6.044   2.389   5.728  1.1772  1.1640 -0.7204
35847SOL     OW13376   2.474   1.614   4.442  0.2335  0.4092 -0.1927
35847SOL    HW113377   2.496   1.705   4.424 -1.4113  0.4879 -2.1472
35847SOL    HW213378   2.383   1.615   4.470  0.7514 -0.4974  1.7479
35848SOL     OW13379   6.288   8.343   8.341  0.6612 -0.8959  0.0748
35848SOL    HW113380   6.302   8.419   8.398 -0.9129 -1.0136  0.6940
35848SOL    HW213381   6.375   8.308   8.325  1.2108 -0.6614  2.1866
35849SOL     OW13382   1.719   6.703   0.396  0.1398  0.2634 -0.4378
35849SOL    HW113383   1.648   6.758   0.363  0.5636  0.3082 -1.3294
35849SOL    HW213384   1.687   6.667   0.478 -0.6562  0.7963 -0.5101
35850SOL     OW13385  10.648   1.649   1.449 -0.2469  0.4353 -0.0755
35850SOL    HW113386  10.687   1.677   1.366  1.7487  0.8709  0.9267
35850SOL    HW213387  10.629   1.556   1.436  3.9869 -0.7082  0.1763
35851SOL     OW13388   7.873   2.822   1.759 -0.3795  0.1665  0.0106
35851SOL    HW113389   7.912   2.735   1.755  0.3349  0.4978 -0.3791
35851SOL    HW213390   7.948   2.882   1.754 -1.0095  0.8539 -2.4900
35852SOL     OW13391   6.826   9.553   6.933  0.5667  0.0674 -0.5174
35852SOL    HW113392   6.816   9.591   7.020 -2.0440 -1.5600 -0.0026
35852SOL    HW213393   6.770   9.605   6.877  1.0068  0.1342 -0.8986
35853SOL     OW13394   9.610   0.494   6.533 -0.7984  0.2632 -0.2930
35853SOL    HW113395   9.684   0.518   6.589 -1.8681  1.1340  0.8105
35853SOL    HW213396   9.649   0.447   6.460  0.9674  1.6218 -0.2824
35854SOL     OW13397   4.702   3.926   5.835  0.1900  0.2373  0.7295
35854SOL    HW113398   4.794   3.936   5.861  0.5401  1.5214 -0.8522
35854SOL    HW213399   4.703   3.934   5.740 -1.5652  0.1753  0.6743
35855SOL     OW13400   5.351   4.522   6.866 -0.2362 -0.5265 -0.3079
35855SOL    HW113401   5.295   4.565   6.801 -1.5849 -1.1201  0.4160
35855SOL    HW213402   5.343   4.429   6.847  1.0434 -0.6028 -0.5820
35856SOL     OW13403   4.326   9.273   0.220 -0.1474  0.2087  0.1466
35856SOL    HW113404   4.326   9.229   0.135 -1.6232 -0.7191  0.5992
35856SOL    HW213405   4.321   9.202   0.284 -1.8983  0.9880  0.9165
35857SOL     OW13406   3.585   4.143   1.960 -0.2053 -0.0338 -0.7179
35857SOL    HW113407   3.677   4.157   1.980  0.1112  0.7373 -2.6031
35857SOL    HW213408   3.549   4.231   1.948 -0.7921 -0.3819 -1.6269
35858SOL     OW13409   8.136   0.015   5.167  0.0999  0.3077  0.1916
35858SOL    HW113410   8.154  -0.075   5.194  0.6568  0.3361 -0.0515
35858SOL    HW213411   8.063   0.043   5.221 -0.4938 -0.5029 -0.1740
35859SOL     OW13412   4.324  10.640   6.711  0.3888 -0.4205  0.1738
35859SOL    HW113413   4.361  10.699   6.776  1.5151 -0.3293 -0.5282
35859SOL    HW213414   4.385  10.643   6.637 -1.0952 -0.1358 -1.1146
35860SOL     OW13415  10.211  10.679   8.785 -0.0846  0.2723  0.3641
35860SOL    HW113416  10.236  10.652   8.873 -1.8306 -2.4371  0.1464
35860SOL    HW213417  10.156  10.608   8.753 -1.3171  2.1799 -2.1069
35861SOL     OW13418   3.524   8.334   8.408  0.1369  0.1881  0.3262
35861SOL    HW113419   3.491   8.336   8.498  0.0828  0.6020  0.2993
35861SOL    HW213420   3.599   8.275   8.411 -0.4631 -0.5796  0.4341
35862SOL     OW13421   8.189  10.551  10.036 -0.3557 -0.0521  0.3239
35862SOL    HW113422   8.094  10.552  10.034 -0.3488  0.8623  0.2424
35862SOL    HW213423   8.215  10.643  10.039  0.5456 -0.2598 -0.4387
35863SOL     OW13424   9.327   7.718   1.934  0.4925 -0.4098  0.3510
35863SOL    HW113425   9.329   7.626   1.958  1.6900 -0.4161  0.3184
35863SOL    HW213426   9.326   7.719   1.838 -0.7583 -0.3792  0.3528
35864SOL     OW13427   1.929   5.666   3.627  0.1455  0.3727  0.6100
35864SOL    HW113428   1.901   5.582   3.591 -0.3138  0.3995  0.8948
35864SOL    HW213429   1.976   5.709   3.555  0.9496 -0.3967  0.6660
35865SOL     OW13430   2.507   6.468   5.894 -0.3070  0.0594  0.5237
35865SOL    HW113431   2.524   6.556   5.860  0.5988 -0.0278  0.7267
35865SOL    HW213432   2.442   6.482   5.963 -0.7208  0.4723  0.0627
35866SOL     OW13433   6.273   7.738   9.594  0.3775 -0.1231 -0.1560
35866SOL    HW113434   6.274   7.655   9.547  1.0562 -0.1561 -0.0855
35866SOL    HW213435   6.181   7.766   9.589  0.6452  0.5589 -2.6964
35867SOL     OW13436   1.603   5.027   6.815  0.4573 -0.4299 -0.0063
35867SOL    HW113437   1.696   5.007   6.806  0.7070  0.3673  0.6640
35867SOL    HW213438   1.560   4.971   6.751  1.4929 -0.0127 -1.0970
35868SOL     OW13439   7.016   4.900   7.422 -0.2571 -0.0272  0.0191
35868SOL    HW113440   7.057   4.964   7.479 -0.4210  0.5097 -0.4626
35868SOL    HW213441   6.934   4.878   7.467  0.4757 -1.0189  0.9247
35869SOL     OW13442   6.399   1.872   9.471  0.0413  0.3065 -0.1956
35869SOL    HW113443   6.450   1.825   9.537  0.0198  1.0323  0.3402
35869SOL    HW213444   6.311   1.834   9.479  0.5709 -1.3314 -1.4922
35870SOL     OW13445   9.808   0.879   5.050  0.1610 -0.1425  0.1226
35870SOL    HW113446   9.876   0.816   5.074  0.6902  0.3308 -0.1097
35870SOL    HW213447   9.839   0.963   5.085 -0.0437  0.1689 -0.4273
35871SOL     OW13448   4.709   0.565   9.952  0.6753 -0.4615 -0.2781
35871SOL    HW113449   4.732   0.544   9.861 -1.9281  2.5755 -1.8188
35871SOL    HW213450   4.632   0.510   9.970  0.8499 -0.6511 -0.1100
35872SOL     OW13451   4.093   5.263   4.634  0.1903 -0.1837  0.4892
35872SOL    HW113452   4.142   5.286   4.713 -0.5012 -0.8068  1.1155
35872SOL    HW213453   4.116   5.172   4.616 -1.6417 -0.9149  1.5343
35873SOL     OW13454   6.039   0.123   9.253  0.0534 -0.9169 -0.3914
35873SOL    HW113455   6.002   0.036   9.264  0.2380 -0.9840 -0.2937
35873SOL    HW213456   6.022   0.167   9.336  0.5183 -1.0722 -0.2107
35874SOL     OW13457   1.736   0.690   0.707 -0.3158 -0.4776 -0.0984
35874SOL    HW113458   1.752   0.756   0.639 -1.6276 -1.3643 -1.3379
35874SOL    HW213459   1.823   0.659   0.732  0.1922 -0.6285 -1.9054
35875SOL     OW13460   6.766   7.545   9.616 -1.1861  0.2821  0.6897
35875SOL    HW113461   6.744   7.469   9.669 -0.1386  0.2395  1.0767
35875SOL    HW213462   6.861   7.543   9.609 -1.2270  0.8999 -0.2829
35876SOL     OW13463   0.909   8.891   9.136 -0.1339 -0.2696 -0.3756
35876SOL    HW113464   0.911   8.809   9.086  1.1733 -0.5867  0.1658
35876SOL    HW213465   0.971   8.877   9.208 -1.2864  0.5019  0.8286
35877SOL     OW13466   6.195  10.310   6.015 -0.6954  0.7269  0.1661
35877SOL    HW113467   6.233  10.222   6.008 -0.8528  0.7657 -1.5037
35877SOL    HW213468   6.137  10.318   5.939 -1.2330  2.0275  0.6723
35878SOL     OW13469   5.571   9.273   3.411 -0.0918  0.0552 -0.4552
35878SOL    HW113470   5.512   9.229   3.350 -0.0524  0.8882 -1.1205
35878SOL    HW213471   5.538   9.250   3.497 -0.7265 -0.3793 -0.8053
35879SOL     OW13472  10.009   3.254   3.493  0.0528 -0.0395  0.4269
35879SOL    HW113473  10.012   3.254   3.397  0.4127 -0.6388  0.4286
35879SOL    HW213474  10.029   3.163   3.517  0.4895  0.2237  1.0790
35880SOL     OW13475  10.645   6.189   1.581 -0.6248 -0.4379  0.0120
35880SOL    HW113476  10.725   6.138   1.568 -0.2696 -0.1111  0.8393
35880SOL    HW213477  10.659   6.235   1.664 -0.6467  1.5812 -1.0555
35881SOL     OW13478   1.836   3.941   8.412  0.1652  0.3694 -0.6479
35881SOL    HW113479   1.753   3.929   8.366 -0.4817  0.4274  0.4701
35881SOL    HW213480   1.814   3.935   8.505  1.5604 -0.5587 -0.3379
35882SOL     OW13481   4.056  10.864   4.241  0.5288 -0.3387  0.1103
35882SOL    HW113482   4.018  10.779   4.262 -0.1224 -0.5274 -1.6438
35882SOL    HW213483   4.027  10.922   4.312 -2.1502 -0.7440 -0.5378
35883SOL     OW13484   8.325   8.663   9.236  0.2559 -0.5602 -0.0343
35883SOL    HW113485   8.402   8.606   9.244  1.0423  0.1966 -1.6925
35883SOL    HW213486   8.339   8.731   9.302  0.9386 -0.5210 -0.2044
35884SOL     OW13487   7.652   3.251   8.348  0.0777 -0.0202  0.8590
35884SOL    HW113488   7.655   3.178   8.286  1.0597 -0.1232  1.0014
35884SOL    HW213489   7.571   3.297   8.328 -0.1185 -0.6448  0.1803
35885SOL     OW13490   5.613   3.988   2.149 -0.5234  1.0582  0.0395
35885SOL    HW113491   5.696   3.991   2.197 -1.0943  3.9900  1.0610
35885SOL    HW213492   5.631   4.037   2.069 -0.6248 -0.5108 -0.9722
35886SOL     OW13493   0.843   8.683   0.346 -0.0993  0.5654  0.2224
35886SOL    HW113494   0.882   8.671   0.432  0.8107 -0.3939 -0.3043
35886SOL    HW213495   0.890   8.759   0.310 -0.1888  0.7069  0.3992
35887SOL     OW13496   4.631   7.218   3.059 -0.1005 -0.5438  0.0038
35887SOL    HW113497   4.719   7.247   3.085  1.1734 -0.6261 -3.6083
35887SOL    HW213498   4.646   7.134   3.015 -2.0098 -0.6008 -0.6150
35888SOL     OW13499   2.198   8.290   8.463  0.1403 -0.2685  0.4394
35888SOL    HW113500   2.248   8.226   8.513 -0.6141 -1.0399  0.2386
35888SOL    HW213501   2.129   8.238   8.420 -0.1609  0.5992 -0.1551
35889SOL     OW13502   7.230   7.360   7.499 -0.1776 -0.7565 -0.2389
35889SOL    HW113503   7.227   7.334   7.407 -1.4663 -1.3032 -0.0617
35889SOL    HW213504   7.229   7.277   7.548 -0.3979 -0.4496  0.2873
35890SOL     OW13505   1.797   6.535   0.090  0.3548 -0.2425 -0.2988
35890SOL    HW113506   1.790   6.624   0.057  3.2883 -0.4450 -1.7696
35890SOL    HW213507   1.717   6.491   0.059 -0.8545  1.6571 -0.0359
35891SOL     OW13508   7.036  10.500   7.401  0.0229  0.5338 -0.3388
35891SOL    HW113509   7.065  10.449   7.476 -1.6206  0.8151  0.5284
35891SOL    HW213510   7.036  10.591   7.432  0.2297  0.7571 -0.9784
35892SOL     OW13511   8.044   8.487   9.350 -0.1592  0.4251 -0.6600
35892SOL    HW113512   8.109   8.532   9.405 -1.9457  0.6045  1.4531
35892SOL    HW213513   8.058   8.394   9.367 -0.8463  0.4869  0.3435
35893SOL     OW13514   0.524   1.489   3.045  0.8500 -0.2535 -0.3951
35893SOL    HW113515   0.446   1.510   2.994  0.4217 -0.7716  0.0235
35893SOL    HW213516   0.503   1.521   3.134  1.5504  0.5702 -0.5088
35894SOL     OW13517   1.164   3.690   1.299  0.4114  0.5424  0.1601
35894SOL    HW113518   1.227   3.619   1.306  0.3312  0.1690 -2.0887
35894SOL    HW213519   1.211   3.760   1.253  0.1355  1.4969  1.2984
35895SOL     OW13520   7.894   0.262   4.715 -0.3963 -0.2785 -0.0528
35895SOL    HW113521   7.855   0.231   4.796 -2.0826 -1.9195 -1.4126
35895SOL    HW213522   7.895   0.357   4.723  0.2106 -0.4289  2.1756
35896SOL     OW13523   0.062   6.319   9.569  0.1334 -0.1568  0.0338
35896SOL    HW113524   0.044   6.280   9.483 -1.0080 -0.5632  0.4514
35896SOL    HW213525   0.158   6.321   9.574  0.2425 -2.4780 -0.2067
35897SOL     OW13526  10.533   2.650   7.778  0.0579 -0.6246 -0.3732
35897SOL    HW113527  10.615   2.616   7.814 -0.3064 -2.8312 -1.4345
35897SOL    HW213528  10.506   2.584   7.714 -1.4750  1.0714 -1.5841
35898SOL     OW13529   0.277   9.984   7.149  0.4108 -0.4472  0.3224
35898SOL    HW113530   0.182   9.992   7.137  0.1793  0.6245  2.3646
35898SOL    HW213531   0.314  10.061   7.107  0.0627  0.6956  2.0135
35899SOL     OW13532   6.945   5.048   5.961 -0.3094 -0.8098 -0.2289
35899SOL    HW113533   6.986   5.115   5.907 -1.2081  0.3914  0.5420
35899SOL    HW213534   6.986   4.966   5.932  1.1568  0.1026 -0.8467
35900SOL     OW13535  10.580   8.050   0.614  0.3140  0.2581 -0.5418
35900SOL    HW113536  10.492   8.063   0.650  0.5322  2.6110 -0.7300
35900SOL    HW213537  10.637   8.049   0.690  0.2845  0.1102 -0.5194
35901SOL     OW13538   3.577   7.267   5.823  0.3682 -0.4043 -0.0516
35901SOL    HW113539   3.487   7.284   5.795  0.6196  0.0285 -0.6240
35901SOL    HW213540   3.569   7.242   5.915 -0.0877  2.9869  0.9779
35902SOL     OW13541   4.020   5.050   6.836 -0.2066  0.4958  0.6157
35902SOL    HW113542   4.075   5.099   6.775  0.0654 -1.7031 -1.0643
35902SOL    HW213543   4.074   5.039   6.914  0.9218  0.2425 -0.1775
35903SOL     OW13544   6.102   6.980   7.183  0.2477 -0.4526 -0.0447
35903SOL    HW113545   6.102   7.075   7.200 -3.3136 -0.3846  0.3390
35903SOL    HW213546   6.103   6.973   7.087 -0.7849  0.0646 -0.1081
35904SOL     OW13547   2.424   1.569  10.554 -0.0538  0.1587  0.3156
35904SOL    HW113548   2.476   1.495  10.523 -0.1775  0.0798  0.3011
35904SOL    HW213549   2.461   1.589  10.640 -0.9026 -0.7734  0.9105
35905SOL     OW13550   2.347   0.056   9.157 -0.2389  0.1802 -0.6121
35905SOL    HW113551   2.268   0.091   9.199 -0.3244 -0.3504 -0.3105
35905SOL    HW213552   2.417   0.071   9.221 -0.1551  0.3759 -0.7505
35906SOL     OW13553   5.746   7.763   6.936 -0.5247 -0.0357 -0.2819
35906SOL    HW113554   5.768   7.763   7.030  0.6968  0.7805 -0.5284
35906SOL    HW213555   5.816   7.712   6.896  1.5455  3.2194 -1.1871
35907SOL     OW13556   4.802   2.131   4.054  0.1056  0.6410 -0.9411
35907SOL    HW113557   4.845   2.213   4.029  2.1744 -0.2860 -0.7059
35907SOL    HW213558   4.831   2.068   3.988 -1.4891  0.0937 -1.1497
35908SOL     OW13559   7.473   8.665   4.586 -0.3728 -0.5862 -0.6479
35908SOL    HW113560   7.516   8.692   4.505  0.2286 -1.1702 -0.5387
35908SOL    HW213561   7.435   8.745   4.621  2.2109  0.3946  0.1864
35909SOL     OW13562   0.772   2.427   4.580 -0.2845 -0.2607  0.1738
35909SOL    HW113563   0.700   2.372   4.549  0.2730 -1.5873  1.1314
35909SOL    HW213564   0.848   2.397   4.530  0.0342 -0.4087  0.7356
35910SOL     OW13565  10.521   4.013   2.384  0.0974 -0.0173  0.4617
35910SOL    HW113566  10.594   4.005   2.322 -1.5530  0.6194 -1.6970
35910SOL    HW213567  10.512   3.926   2.423  1.2913 -0.3913 -0.0562
35911SOL     OW13568  10.772  10.051  10.549  0.0402 -0.3699 -0.3578
35911SOL    HW113569  10.853  10.069  10.500  1.0408 -1.9967  0.6076
35911SOL    HW213570  10.802  10.010  10.630 -1.5206  2.1896  1.7134
35912SOL     OW13571   5.704  10.734   3.920  0.2756  0.7860 -0.0301
35912SOL    HW113572   5.788  10.690   3.908 -0.1127  0.4641 -1.9767
35912SOL    HW213573   5.716  10.820   3.878 -1.0747 -0.2379 -2.7510
35913SOL     OW13574   0.728   2.715   1.302  0.1096  0.1726 -0.2138
35913SOL    HW113575   0.710   2.698   1.394 -1.6021  0.6332 -0.4318
35913SOL    HW213576   0.748   2.808   1.298  0.3715  0.1146 -0.2899
35914SOL     OW13577   6.011   1.749  10.056  0.2317 -0.8605  0.7166
35914SOL    HW113578   5.935   1.779  10.106 -0.6120  0.3944 -1.1697
35914SOL    HW213579   5.986   1.662  10.024 -0.7039 -0.2334 -0.3474
35915SOL     OW13580   9.411   8.210   8.353  0.7200 -0.3614  0.0955
35915SOL    HW113581   9.370   8.296   8.354  0.0161 -0.6822  0.9092
35915SOL    HW213582   9.454   8.204   8.268 -1.2348 -0.1348 -0.9523
35916SOL     OW13583   6.863   4.562   4.475  0.1234  0.0172 -0.1638
35916SOL    HW113584   6.797   4.568   4.406 -0.3740 -1.5922  0.1195
35916SOL    HW213585   6.879   4.468   4.485  2.1277  0.3509  0.1134
35917SOL     OW13586   5.763   2.891   7.893 -0.2671  0.4818 -0.0862
35917SOL    HW113587   5.832   2.956   7.879  0.6882 -0.3771  0.4330
35917SOL    HW213588   5.789   2.847   7.974 -1.1879 -0.1728 -0.1368
35918SOL     OW13589   5.225   5.518  10.375  0.7303 -0.1007 -0.6268
35918SOL    HW113590   5.313   5.484  10.391  1.2872  1.2048 -0.8319
35918SOL    HW213591   5.195   5.548  10.461  0.8257  0.2272 -0.7067
35919SOL     OW13592   5.475   5.084   6.534 -0.5763  0.0287  0.6212
35919SOL    HW113593   5.414   5.135   6.587  0.2094  1.4451  0.2363
35919SOL    HW213594   5.549   5.143   6.520  0.7050 -1.4848  0.7273
35920SOL     OW13595   8.825   6.135   1.408 -1.0985 -0.2222  0.0720
35920SOL    HW113596   8.747   6.140   1.352 -1.3899 -0.2544  0.4696
35920SOL    HW213597   8.798   6.081   1.482 -0.6751 -0.2869  0.1800
35921SOL     OW13598   7.269   5.627   0.024  0.4579 -0.3740 -0.6338
35921SOL    HW113599   7.287   5.689  -0.047  0.6782  0.9170  0.5106
35921SOL    HW213600   7.354   5.613   0.065  0.2454 -0.7385 -0.3124
35922SOL     OW13601   8.629   9.397   5.717 -0.1690  0.4568 -0.1547
35922SOL    HW113602   8.555   9.437   5.671  1.2696  3.3267 -0.2309
35922SOL    HW213603   8.608   9.410   5.810 -0.5757 -0.3923 -0.1221
35923SOL     OW13604   2.708   6.385  10.324  0.0249 -0.5164 -0.1324
35923SOL    HW113605   2.657   6.387  10.243 -0.4731 -1.9566  0.1076
35923SOL    HW213606   2.643   6.389  10.394  0.4184  0.2074  0.2009
35924SOL     OW13607   7.040   0.595  10.875 -0.6297 -0.4872 -0.1264
35924SOL    HW113608   7.119   0.553  10.908 -0.0788  0.2539 -0.4595
35924SOL    HW213609   6.999   0.530  10.819  0.4062 -0.4606 -0.9321
35925SOL     OW13610   3.552   5.749   3.208 -0.2323 -0.2734  0.0168
35925SOL    HW113611   3.542   5.842   3.190 -0.1229  0.1689  2.0115
35925SOL    HW213612   3.514   5.706   3.132 -0.7156  1.3890 -0.7332
35926SOL     OW13613   9.929   3.077   5.847  0.1481  0.0682  0.5089
35926SOL    HW113614   9.943   3.020   5.923  1.1270 -2.3190 -1.3494
35926SOL    HW213615  10.009   3.129   5.841  1.8786 -2.5755 -1.0898
35927SOL     OW13616   7.134   2.772   0.372 -0.1937 -0.0466  0.0279
35927SOL    HW113617   7.084   2.779   0.453 -0.7509 -1.5013 -0.1572
35927SOL    HW213618   7.226   2.772   0.400 -0.3804 -0.4809  0.6614
35928SOL     OW13619   0.333   6.980   2.499 -0.0562 -0.3864  0.7109
35928SOL    HW113620   0.313   7.055   2.441 -0.0355 -0.0965  1.0753
35928SOL    HW213621   0.325   6.904   2.442 -0.4880 -0.1395  0.4293
35929SOL     OW13622   4.962   6.454   3.352  0.1110  0.1191 -0.0748
35929SOL    HW113623   5.055   6.444   3.331 -0.0348  0.2467 -0.8193
35929SOL    HW213624   4.960   6.521   3.420  0.5772  0.0187  0.0410
35930SOL     OW13625   6.216   2.223   5.536 -0.3048 -0.7914 -0.3922
35930SOL    HW113626   6.277   2.156   5.569  2.4303  1.9659  0.7027
35930SOL    HW213627   6.132   2.200   5.574  0.6082 -3.2902  0.3280
35931SOL     OW13628   0.411   5.586   3.035 -0.0633 -0.8508  0.0681
35931SOL    HW113629   0.409   5.491   3.023  1.8438 -0.7803 -1.2303
35931SOL    HW213630   0.499   5.612   3.007 -0.1963  1.1900  1.3437
35932SOL     OW13631   8.311   9.446   5.903 -0.2141 -0.1225  0.4066
35932SOL    HW113632   8.376   9.448   5.973 -0.3652  0.2582  0.5386
35932SOL    HW213633   8.269   9.360   5.912 -1.4402  0.5969  1.9066
35933SOL     OW13634   6.441   5.287   4.934  0.2806 -0.8639 -0.2232
35933SOL    HW113635   6.516   5.346   4.944  0.3803 -0.4851 -2.6524
35933SOL    HW213636   6.365   5.343   4.952  0.4901 -0.6791  0.1027
35934SOL     OW13637   1.041   6.074   6.281  0.8705 -0.2288 -0.3652
35934SOL    HW113638   1.084   6.135   6.341  0.6654 -1.8003  1.4766
35934SOL    HW213639   0.959   6.118   6.257 -0.1953 -0.4503  2.4337
35935SOL     OW13640   9.513   5.815   3.042 -0.0287  0.1843  0.1864
35935SOL    HW113641   9.464   5.739   3.074  0.5746 -0.6127 -0.7035
35935SOL    HW213642   9.566   5.843   3.116  0.6153 -1.0139  0.2212
35936SOL     OW13643   3.672   8.494   6.182  0.0017  0.2803  0.1758
35936SOL    HW113644   3.692   8.468   6.272 -0.3358  0.0111  0.1771
35936SOL    HW213645   3.721   8.575   6.169 -0.4484  0.6649  0.8119
35937SOL     OW13646   0.584   3.232   2.801 -0.3017 -0.1762  0.0182
35937SOL    HW113647   0.660   3.257   2.854 -0.4735 -0.4557  0.4067
35937SOL    HW213648   0.560   3.144   2.833  0.2432 -0.8114 -1.2586
35938SOL     OW13649   5.166   5.785   5.544  0.3829 -0.0366  0.1879
35938SOL    HW113650   5.160   5.837   5.464 -2.5428  1.1493  1.0271
35938SOL    HW213651   5.239   5.823   5.592  0.0535  1.4887 -0.4527
35939SOL     OW13652   6.346   5.125   5.600  0.0328 -0.9519 -0.1607
35939SOL    HW113653   6.372   5.095   5.512  0.3842  0.1761 -0.4526
35939SOL    HW213654   6.282   5.193   5.584  0.7188 -0.1523  0.4220
35940SOL     OW13655   1.637   7.170   3.878  0.2225 -0.2802  0.3273
35940SOL    HW113656   1.662   7.256   3.843 -0.8006  0.5647  1.5788
35940SOL    HW213657   1.556   7.148   3.832  0.7594 -0.8250 -0.3649
35941SOL     OW13658   0.611   9.970   3.364  0.1554  0.4490  0.5181
35941SOL    HW113659   0.633  10.028   3.437  0.1879  0.2778  0.6432
35941SOL    HW213660   0.614   9.882   3.401  1.7614  0.2291 -0.0692
35942SOL     OW13661   4.430   2.703   6.169 -0.5291 -0.3795  0.0908
35942SOL    HW113662   4.363   2.663   6.226 -2.3990  0.9456 -1.0633
35942SOL    HW213663   4.446   2.637   6.102  0.8708 -1.5093  1.4595
35943SOL     OW13664   3.276   0.617   4.287 -0.5689 -0.0841  0.0250
35943SOL    HW113665   3.258   0.570   4.369  1.0806  0.2446  0.6274
35943SOL    HW213666   3.308   0.550   4.227 -0.5719 -0.1264  0.0705
35944SOL     OW13667   3.345   3.825   4.227  0.2306 -0.0262 -0.0195
35944SOL    HW113668   3.390   3.878   4.161  0.0454 -1.0922 -1.0379
35944SOL    HW213669   3.411   3.760   4.254 -0.0111 -0.2236  0.0990
35945SOL     OW13670   4.446   9.584   2.632  0.8862 -0.0855  0.4795
35945SOL    HW113671   4.473   9.494   2.650 -0.9599 -0.5683  1.1515
35945SOL    HW213672   4.387   9.606   2.705 -0.4190  0.8654 -0.8002
35946SOL     OW13673   1.574   7.164   2.680  0.2208  0.2130 -0.9135
35946SOL    HW113674   1.499   7.109   2.657 -1.3162  1.8985 -0.1513
35946SOL    HW213675   1.631   7.161   2.603 -1.1486 -0.2676 -1.9281
35947SOL     OW13676   6.124   4.051   4.661  0.8910  0.0809  0.0628
35947SOL    HW113677   6.098   4.055   4.569 -2.1355 -2.4086  0.6419
35947SOL    HW213678   6.216   4.023   4.659  0.0675 -3.0920 -2.3229
35948SOL     OW13679   7.232   6.795   4.795  0.0351  0.1747  0.5495
35948SOL    HW113680   7.158   6.845   4.830 -0.4436  2.2261 -2.8960
35948SOL    HW213681   7.307   6.854   4.805  0.4621 -0.3951  0.7242
35949SOL     OW13682   5.464   1.645   5.818 -0.5298 -0.3933  0.0131
35949SOL    HW113683   5.417   1.727   5.805 -2.0621 -1.1326  0.6624
35949SOL    HW213684   5.546   1.656   5.769 -2.6045 -0.1495 -3.7914
35950SOL     OW13685   2.998   0.964   0.084  0.5278  0.2386  0.1225
35950SOL    HW113686   3.043   1.010   0.014  0.3476 -1.1835 -0.9719
35950SOL    HW213687   2.977   0.879   0.047 -0.3664 -0.2293  1.6217
35951SOL     OW13688   9.985  10.841   5.527 -0.4725  0.0866 -0.1071
35951SOL    HW113689  10.069  10.795   5.526  0.0811  0.9442  1.5842
35951SOL    HW213690   9.928  10.788   5.583 -0.1156  0.9150  1.0991
35952SOL     OW13691  10.453   1.123   2.546 -0.4037 -0.1194  0.2004
35952SOL    HW113692  10.528   1.080   2.586 -0.9486 -0.2130  1.1611
35952SOL    HW213693  10.430   1.068   2.471  0.3103 -0.2298  0.0602
35953SOL     OW13694   7.194   5.098   9.114  0.3107 -0.5304  0.5955
35953SOL    HW113695   7.279   5.055   9.117  0.7749  0.3565  0.4141
35953SOL    HW213696   7.131   5.026   9.107  1.1601 -1.1330 -1.7019
35954SOL     OW13697   1.111   0.762   3.435  0.3707  0.1866  0.1334
35954SOL    HW113698   1.143   0.822   3.367  2.2097 -1.5567 -0.6583
35954SOL    HW213699   1.044   0.710   3.392 -0.2805  0.7557  0.4358
35955SOL     OW13700   4.555   0.487   8.376 -0.2850 -0.1940  0.7469
35955SOL    HW113701   4.539   0.500   8.469 -1.7783 -1.4115  0.7053
35955SOL    HW213702   4.642   0.448   8.371  0.4476  1.2888  1.4887
35956SOL     OW13703   9.808   3.492   5.700  0.0853 -0.6317 -0.0157
35956SOL    HW113704   9.861   3.468   5.624 -0.3449  0.7719 -0.7830
35956SOL    HW213705   9.762   3.411   5.723  0.4969 -1.1674 -1.0106
35957SOL     OW13706   6.116   1.661   3.527 -0.7340 -0.3979 -0.2525
35957SOL    HW113707   6.073   1.745   3.542 -3.0192 -1.5233 -0.0394
35957SOL    HW213708   6.044   1.598   3.525  0.9545 -2.4266  0.1058
35958SOL     OW13709   6.640   9.635   8.468 -0.1858 -0.2389  0.3714
35958SOL    HW113710   6.675   9.571   8.405 -1.3128 -1.4326  0.9121
35958SOL    HW213711   6.616   9.582   8.544  1.2972  1.1876  1.9084
35959SOL     OW13712   5.767   1.170   5.066  0.2863 -0.1787 -0.0343
35959SOL    HW113713   5.739   1.079   5.055 -0.1235  0.0096 -0.6119
35959SOL    HW213714   5.807   1.173   5.152 -1.2243 -0.5341  0.7220
35960SOL     OW13715  10.392   1.079   7.080  0.0510  0.1940  0.7260
35960SOL    HW113716  10.431   1.090   7.166  1.7343  0.2953 -0.0188
35960SOL    HW213717  10.415   0.990   7.054 -0.9264 -0.0320  0.6041
35961SOL     OW13718   0.945   9.300   7.092 -0.1283  0.1051 -0.0540
35961SOL    HW113719   0.851   9.296   7.074 -0.0739  0.5609 -0.4879
35961SOL    HW213720   0.985   9.253   7.018 -0.1004 -1.8770  1.1666
35962SOL     OW13721   6.179   6.645   2.189  0.6358 -0.5116 -0.0202
35962SOL    HW113722   6.187   6.654   2.094  0.0554 -0.6822 -0.0873
35962SOL    HW213723   6.132   6.724   2.217 -1.6283 -1.7100 -0.2203
35963SOL     OW13724   3.987   4.773   9.112 -0.1489 -0.3503 -0.0850
35963SOL    HW113725   3.972   4.718   9.035  1.2234 -0.5573 -0.2393
35963SOL    HW213726   3.931   4.735   9.179 -0.7016 -0.7189 -0.7422
35964SOL     OW13727   0.661   9.551   7.436 -0.1821 -0.2021  0.5383
35964SOL    HW113728   0.638   9.575   7.526 -1.6239  0.1586  0.1006
35964SOL    HW213729   0.637   9.458   7.429 -2.4083  0.3615 -0.1437
35965SOL     OW13730   6.739   1.917   8.717 -0.1254  0.3828  0.2685
35965SOL    HW113731   6.811   1.902   8.779  0.5076  0.2048 -0.4840
35965SOL    HW213732   6.741   2.011   8.700 -0.5451  0.4918  0.7986
35966SOL     OW13733  10.452   3.957   8.097  0.1138 -0.0552  0.1044
35966SOL    HW113734  10.450   3.872   8.053  1.1220 -0.9107  1.6208
35966SOL    HW213735  10.545   3.977   8.108 -0.1060  0.6531  0.8422
35967SOL     OW13736   8.009   7.987   7.659 -0.6652  0.0914  0.3495
35967SOL    HW113737   8.069   7.912   7.658 -0.5094  0.2148  0.3671
35967SOL    HW213738   8.020   8.026   7.572 -0.5128  0.2784  0.4535
35968SOL     OW13739   2.967   1.800   8.764  0.3139  0.2170  0.4057
35968SOL    HW113740   2.889   1.854   8.757  0.6921  0.7423  0.2288
35968SOL    HW213741   2.933   1.710   8.772 -0.2931  0.3354 -0.6289
35969SOL     OW13742   0.844   5.738   1.275 -0.3692  0.0205 -0.2793
35969SOL    HW113743   0.809   5.682   1.344 -1.1272  0.5175 -0.2462
35969SOL    HW213744   0.917   5.784   1.316 -2.0489  1.8349  0.8599
35970SOL     OW13745   3.919   5.749   7.068 -0.3777  0.0270 -0.4579
35970SOL    HW113746   3.973   5.823   7.099 -0.9100  0.1392  0.2400
35970SOL    HW213747   3.981   5.677   7.059 -0.0445  0.2445  0.0018
35971SOL     OW13748   9.237   7.172   8.334 -0.3377 -0.0642 -0.1216
35971SOL    HW113749   9.311   7.226   8.306  1.0828 -2.9528 -2.6588
35971SOL    HW213750   9.186   7.158   8.254 -2.1322 -0.3033  1.0222
35972SOL     OW13751   9.435   1.631   9.565 -0.2035  0.1297  0.0295
35972SOL    HW113752   9.527   1.648   9.584  0.0298 -1.4966  0.4396
35972SOL    HW213753   9.391   1.638   9.649 -0.5081  1.1032 -0.1970
35973SOL     OW13754   1.377  10.328   3.947 -0.4737 -0.2523  0.5035
35973SOL    HW113755   1.435  10.363   4.015  0.4353 -2.1955  0.7871
35973SOL    HW213756   1.417  10.355   3.864 -0.7410  0.7917  0.6911
35974SOL     OW13757   4.058   1.012   6.027  0.4661  0.2191  0.4110
35974SOL    HW113758   4.142   1.057   6.031  0.8291 -0.4713  0.8175
35974SOL    HW213759   4.042   0.998   5.934  1.6080 -1.0875  0.3786
35975SOL     OW13760   1.655   8.057   6.350 -0.1639 -0.4185  0.2525
35975SOL    HW113761   1.615   8.023   6.431 -1.0005  0.7078  0.3350
35975SOL    HW213762   1.747   8.074   6.374 -0.0858 -1.2798  0.5945
35976SOL     OW13763   7.798  10.359   5.469 -0.4989 -0.8267  0.3105
35976SOL    HW113764   7.802  10.429   5.535 -1.4944 -1.1608  0.7467
35976SOL    HW213765   7.739  10.294   5.507 -1.1516 -0.9977 -0.9445
35977SOL     OW13766   6.587   8.090   7.764  0.0831  0.6108 -0.1137
35977SOL    HW113767   6.497   8.116   7.782  0.3517  1.5239 -0.0278
35977SOL    HW213768   6.579   8.014   7.706 -0.7388  0.4079  0.2590
35978SOL     OW13769   6.480  10.443   4.766  0.2556  0.2204  0.3396
35978SOL    HW113770   6.560  10.396   4.746  0.0440  0.0674 -0.1887
35978SOL    HW213771   6.430  10.384   4.822  0.0057 -0.1765 -0.2923
35979SOL     OW13772   9.606   8.125   3.453 -0.2317  0.1481 -0.0438
35979SOL    HW113773   9.630   8.059   3.518 -1.4388  1.9476  2.3995
35979SOL    HW213774   9.680   8.127   3.392  1.2448 -1.2482  1.5988
35980SOL     OW13775   7.196   9.524   7.012 -0.1574  0.3022 -0.5379
35980SOL    HW113776   7.156   9.452   6.963  0.0493 -0.8070  0.8220
35980SOL    HW213777   7.147   9.602   6.987 -1.4092 -0.5822 -0.9053
35981SOL     OW13778   4.628   8.662   6.011  0.4939  0.2625  0.2567
35981SOL    HW113779   4.617   8.677   6.105  1.0290 -1.7425  0.6691
35981SOL    HW213780   4.723   8.666   5.997  0.6594 -2.0617  0.3363
35982SOL     OW13781   0.756   1.871   3.605 -0.2821 -0.0462  0.8975
35982SOL    HW113782   0.710   1.884   3.522  0.5222  1.8506  0.7121
35982SOL    HW213783   0.721   1.938   3.663  1.3999  0.7229  1.0862
35983SOL     OW13784   3.625   3.214   4.945 -0.8338 -0.2689  0.2082
35983SOL    HW113785   3.711   3.194   4.910 -0.0539  1.7122  0.8632
35983SOL    HW213786   3.577   3.131   4.941  0.9191 -1.2812 -0.6404
35984SOL     OW13787   7.572   0.376   8.363 -0.1153 -0.6730  0.1834
35984SOL    HW113788   7.622   0.457   8.378 -0.9624 -0.2149  0.5830
35984SOL    HW213789   7.503   0.378   8.429  0.1305 -1.9675  0.5151
35985SOL     OW13790   0.751   0.272   7.679  0.3057  0.2623  0.0948
35985SOL    HW113791   0.736   0.250   7.588 -1.1483  1.9340 -0.1144
35985SOL    HW213792   0.770   0.366   7.678 -2.0983  0.8399  1.7036
35986SOL     OW13793   4.155   6.056   7.460  0.4495 -0.4693  0.4081
35986SOL    HW113794   4.173   6.099   7.376 -0.7121 -1.3188 -0.3037
35986SOL    HW213795   4.228   5.997   7.473  0.7749 -0.1292  0.1436
35987SOL     OW13796   6.517   1.219   0.741 -0.6784 -0.1852  0.1458
35987SOL    HW113797   6.439   1.192   0.790 -0.5171  0.3674  0.7169
35987SOL    HW213798   6.543   1.302   0.780  0.5882 -0.6804  0.3942
35988SOL     OW13799   4.418   1.071   7.602  0.0899 -0.1612 -0.0817
35988SOL    HW113800   4.330   1.103   7.622 -0.0980  0.3188 -1.5080
35988SOL    HW213801   4.416   0.978   7.624 -0.3155  0.1474  1.2447
35989SOL     OW13802   3.922   9.334   0.407  0.1809 -0.2020 -0.8511
35989SOL    HW113803   3.958   9.246   0.421  1.2223  0.5459  1.6062
35989SOL    HW213804   3.987   9.378   0.353  1.5864  0.1965  1.0780
35990SOL     OW13805   1.501  10.041   1.954 -0.1365 -0.7104  0.0136
35990SOL    HW113806   1.575  10.086   1.914  0.1595 -1.8850 -0.8376
35990SOL    HW213807   1.440  10.111   1.977 -0.0871  0.1054 -2.0500
35991SOL     OW13808   4.076   3.427   6.719  0.5213  0.0487  0.0746
35991SOL    HW113809   4.011   3.387   6.777  1.8762 -0.8521  1.0326
35991SOL    HW213810   4.049   3.518   6.712  1.3435  0.7321  3.7734
35992SOL     OW13811   0.869   7.776   7.958 -0.1203 -0.0168  0.0785
35992SOL    HW113812   0.820   7.855   7.983 -0.0473 -0.2496  0.9699
35992SOL    HW213813   0.958   7.807   7.942  0.7676 -0.3489  3.6249
35993SOL     OW13814   7.654   1.059   0.041 -0.0739 -0.6405 -0.2502
35993SOL    HW113815   7.565   1.052   0.075  0.3378  0.4477  1.1416
35993SOL    HW213816   7.648   1.124  -0.029 -0.6243 -1.6990 -1.2298
35994SOL     OW13817   9.577   4.295   9.017 -0.2337 -0.0996 -0.1989
35994SOL    HW113818   9.594   4.351   8.942  0.4370  0.0516  0.0590
35994SOL    HW213819   9.635   4.220   9.005 -0.6448 -0.4219 -0.1997
35995SOL     OW13820   0.841   2.030   2.457  0.5098  0.5239 -0.0430
35995SOL    HW113821   0.809   2.053   2.544 -1.0835  0.6517 -0.6211
35995SOL    HW213822   0.850   2.114   2.412  1.0353  0.4392 -0.0980
35996SOL     OW13823   5.185  10.854  10.313 -0.5187  0.0212 -0.3530
35996SOL    HW113824   5.153  10.879  10.226 -2.4750 -0.3299  0.2207
35996SOL    HW213825   5.128  10.782  10.339  0.4502 -0.2935  0.9753
35997SOL     OW13826   2.304   6.691   8.112  0.3874  0.8668 -0.1617
35997SOL    HW113827   2.252   6.625   8.067 -0.6048  0.7687  1.0894
35997SOL    HW213828   2.373   6.714   8.049  1.6510 -2.3795 -0.1640
35998SOL     OW13829   5.006   6.760   6.285 -0.5929  0.2754 -0.3247
35998SOL    HW113830   5.095   6.730   6.305 -0.6679  0.8027  0.9111
35998SOL    HW213831   4.950   6.705   6.339 -1.0759 -0.4819 -1.5802
35999SOL     OW13832   3.206   9.893  10.796 -0.3479  0.4371 -0.3310
35999SOL    HW113833   3.138   9.826  10.806 -1.1448  1.1456 -0.8460
35999SOL    HW213834   3.208   9.911  10.702  0.4036  0.5844 -0.2897
36000SOL     OW13835   6.646   6.238   8.347 -0.5195 -0.7899  0.0462
36000SOL    HW113836   6.584   6.189   8.292 -0.1104 -0.6712 -0.5217
36000SOL    HW213837   6.593   6.310   8.382 -2.0820 -3.3544  3.5628
36001SOL     OW13838   1.379   9.174   2.284  0.1096 -0.1337  0.1754
36001SOL    HW113839   1.466   9.134   2.286 -0.0771 -0.5577  0.0199
36001SOL    HW213840   1.389   9.256   2.333  0.2978 -0.7756  1.2571
36002SOL     OW13841   5.091   1.266   9.781 -0.1334 -0.1731  0.6015
36002SOL    HW113842   5.000   1.291   9.798  0.2797  1.1613  0.9948
36002SOL    HW213843   5.135   1.277   9.865  0.1180 -2.2185  0.7739
36003SOL     OW13844   7.761   8.082   9.655 -0.5472 -0.6165 -0.4079
36003SOL    HW113845   7.729   8.024   9.586 -0.7197  0.4877 -1.2843
36003SOL    HW213846   7.856   8.080   9.646 -0.4434 -2.0470  0.6625
36004SOL     OW13847   0.152   4.840   2.878  0.2771 -0.7026  0.5216
36004SOL    HW113848   0.213   4.797   2.818  0.3074  0.3381 -0.2196
36004SOL    HW213849   0.209   4.888   2.938  0.2153  0.3310 -0.2172
36005SOL     OW13850   4.840   4.143   3.584 -0.1961  0.1932 -0.1917
36005SOL    HW113851   4.798   4.099   3.510  0.1129 -0.3639 -0.0436
36005SOL    HW213852   4.778   4.134   3.656 -0.7641  1.2606 -0.5248
36006SOL     OW13853   7.320   4.969   8.786  0.0956 -0.1059 -0.6063
36006SOL    HW113854   7.325   4.974   8.690 -1.0555  0.1854 -0.6554
36006SOL    HW213855   7.411   4.979   8.815  0.4332 -0.0299 -1.6572
36007SOL     OW13856   1.705   1.614  10.816  0.3344  0.4010  0.1139
36007SOL    HW113857   1.652   1.628  10.737  0.1209 -1.6922 -0.1613
36007SOL    HW213858   1.789   1.584  10.784 -0.5945 -3.1592  0.6189
36008SOL     OW13859   5.858   8.457   0.247 -0.6696 -0.2949  0.5412
36008SOL    HW113860   5.833   8.544   0.279 -0.2695 -0.0159  0.1263
36008SOL    HW213861   5.943   8.440   0.287 -0.3231 -0.0891 -0.0935
36009SOL     OW13862   5.544   1.033   9.681 -0.4507 -0.0575  0.1567
36009SOL    HW113863   5.628   1.078   9.691 -0.1442  0.2939 -2.8290
36009SOL    HW213864   5.565   0.940   9.694  1.4832 -0.5123 -4.2670
36010SOL     OW13865   2.430   9.445   4.385  0.3708 -0.1758 -0.6447
36010SOL    HW113866   2.412   9.365   4.434 -0.2353 -0.6575 -1.6232
36010SOL    HW213867   2.519   9.469   4.410  0.5059 -1.0672 -0.2338
36011SOL     OW13868   9.982   1.704   3.780  0.6820  0.1794 -0.4698
36011SOL    HW113869   9.957   1.615   3.803  0.6242 -0.3024 -2.2660
36011SOL    HW213870   9.988   1.750   3.864  1.0187 -1.5781  0.5095
36012SOL     OW13871   3.686   4.825   5.301  0.0076  0.5283  0.0581
36012SOL    HW113872   3.667   4.733   5.281 -1.2967  1.0166 -1.0494
36012SOL    HW213873   3.781   4.831   5.294 -0.0475 -0.2642 -2.0050
36013SOL     OW13874  10.043   3.630   2.975 -0.1550  0.3578  0.0075
36013SOL    HW113875  10.102   3.557   2.995 -0.1714  0.1335 -0.7312
36013SOL    HW213876  10.096   3.708   2.985  1.1384  0.0617 -3.3636
36014SOL     OW13877   9.799   9.339   9.934 -0.2204  0.0152 -0.0674
36014SOL    HW113878   9.861   9.410   9.949 -1.8244  1.4642  0.0930
36014SOL    HW213879   9.754   9.363   9.853 -1.0920 -0.5911  0.2249
36015SOL     OW13880   3.695   4.287   3.501 -0.2771  0.0516 -0.0888
36015SOL    HW113881   3.714   4.362   3.445  0.0482 -1.0610 -1.5259
36015SOL    HW213882   3.651   4.325   3.577 -0.9136  1.6000 -1.1739
36016SOL     OW13883   0.267  10.747   2.203  0.6173 -0.9203 -0.3898
36016SOL    HW113884   0.187  10.697   2.186  0.0427  0.3920 -1.8425
36016SOL    HW213885   0.268  10.758   2.298 -1.2976 -0.4436 -0.3683
36017SOL     OW13886   1.825   7.389   8.707 -0.0423 -0.4101 -0.9803
36017SOL    HW113887   1.804   7.482   8.698  0.6295 -0.0535  0.7485
36017SOL    HW213888   1.882   7.370   8.633  1.0004  0.9446 -0.5687
36018SOL     OW13889  10.308   7.693   7.341 -0.2498 -0.1817 -0.3776
36018SOL    HW113890  10.368   7.620   7.354 -0.1549 -0.0502 -0.0618
36018SOL    HW213891  10.283   7.688   7.249  0.8438  0.2169 -0.7079
36019SOL     OW13892   7.808   5.589   1.700  0.2274  0.1747  0.5771
36019SOL    HW113893   7.804   5.676   1.659 -3.5239  0.2506  0.7121
36019SOL    HW213894   7.761   5.532   1.640  2.3912 -1.7870  0.6308
36020SOL     OW13895   2.353   5.793   3.733  0.4098 -0.3021  0.1223
36020SOL    HW113896   2.337   5.884   3.758 -1.1316 -0.3460 -0.6274
36020SOL    HW213897   2.274   5.746   3.758  1.1437 -1.4448  0.4060
36021SOL     OW13898   4.937   5.540   3.607 -0.0065  0.6259 -0.0841
36021SOL    HW113899   4.994   5.609   3.572  0.2323  0.8717  0.7684
36021SOL    HW213900   4.961   5.534   3.700  0.7551 -1.3678 -0.3674
36022SOL     OW13901   6.160   5.673   6.796  0.3224 -0.5413  0.0710
36022SOL    HW113902   6.075   5.653   6.758  0.0767 -2.4660  1.4637
36022SOL    HW213903   6.176   5.765   6.774 -2.4744  0.1252  0.4471
36023SOL     OW13904   4.594   3.552   5.070  0.5081  0.2712  0.4102
36023SOL    HW113905   4.557   3.611   5.004 -1.0258 -1.8923 -0.7960
36023SOL    HW213906   4.675   3.595   5.098  0.8839  1.6329 -2.3873
36024SOL     OW13907   4.977  10.859   9.304 -0.3297  0.9562  0.4686
36024SOL    HW113908   4.885  10.878   9.285 -0.0567  1.5384 -0.3474
36024SOL    HW213909   4.974  10.791   9.371 -1.3647  0.0028 -0.4941
36025SOL     OW13910   0.547   9.452   3.870  0.0998  0.5535  0.0188
36025SOL    HW113911   0.460   9.485   3.889  0.9173  2.7652  0.1789
36025SOL    HW213912   0.558   9.377   3.928 -0.7052  1.8863  2.0024
36026SOL     OW13913   1.194   2.994   5.430  0.1270  0.8738 -0.0212
36026SOL    HW113914   1.209   3.005   5.336  2.0764  1.9393  0.3789
36026SOL    HW213915   1.199   2.899   5.443 -0.3366  0.6960 -0.9887
36027SOL     OW13916   4.598   5.968   8.757 -0.4864  0.6473  0.3455
36027SOL    HW113917   4.629   5.899   8.698 -2.4382 -1.0698  1.2137
36027SOL    HW213918   4.553   6.030   8.699 -1.4711 -0.4709 -0.1253
36028SOL     OW13919  10.601   7.333   0.876 -0.3387 -0.7375 -0.3066
36028SOL    HW113920  10.528   7.271   0.872 -0.0212 -1.1905  0.6430
36028SOL    HW213921  10.617   7.345   0.970  0.7408 -0.5587 -0.5059
36029SOL     OW13922   0.134   7.424   5.371  0.0401  0.1251  0.2921
36029SOL    HW113923   0.063   7.401   5.431 -0.1461 -0.5721 -0.1946
36029SOL    HW213924   0.170   7.340   5.343 -0.5224  0.4077 -1.3695
36030SOL     OW13925   5.412   8.856   4.213 -0.4118 -0.1474 -0.3615
36030SOL    HW113926   5.466   8.814   4.280 -1.3944 -6.0939 -2.6899
36030SOL    HW213927   5.475   8.883   4.146  0.1211  0.1576  0.2421
36031SOL     OW13928   7.786   5.934   9.772  0.1828 -0.0262 -0.4059
36031SOL    HW113929   7.743   5.990   9.836  1.7465  0.5869  0.1520
36031SOL    HW213930   7.727   5.859   9.762  0.0626 -0.3272  2.0420
36032SOL     OW13931   6.930   2.231  10.788  0.2224  0.0179 -0.0544
36032SOL    HW113932   6.852   2.272  10.752 -0.3594 -1.5332 -0.6414
36032SOL    HW213933   6.897   2.173  10.857  0.8463 -0.6202 -0.2776
36033SOL     OW13934   8.836   8.090   4.769  0.3063  0.3962  0.6077
36033SOL    HW113935   8.868   8.016   4.820 -1.5058 -2.3667 -1.8904
36033SOL    HW213936   8.741   8.078   4.768  0.1103  1.6816 -1.3831
36034SOL     OW13937   8.690   3.876   1.327 -0.1394 -0.5432 -0.1855
36034SOL    HW113938   8.690   3.851   1.420 -0.4626  0.6593  0.1595
36034SOL    HW213939   8.660   3.967   1.327 -1.5515 -0.9726 -1.5972
36035SOL     OW13940   1.978   1.263   0.776  0.2144  0.4054 -0.2420
36035SOL    HW113941   2.058   1.236   0.730  0.8296  2.8034 -0.7297
36035SOL    HW213942   1.908   1.252   0.712  0.4244 -0.0507 -0.3956
36036SOL     OW13943   1.795   1.733   4.906  0.2395 -0.3458 -0.0742
36036SOL    HW113944   1.867   1.789   4.937 -0.0204 -0.2215  0.3209
36036SOL    HW213945   1.835   1.647   4.895  1.2325  0.3806 -3.0140
36037SOL     OW13946   5.175  10.067   7.848  0.0080  0.2048  0.4054
36037SOL    HW113947   5.203  10.013   7.922  1.1688  0.6052  0.2797
36037SOL    HW213948   5.156  10.004   7.779 -0.4799 -0.1379  0.8437
36038SOL     OW13949   0.910   1.381   8.472 -0.3418  0.3725 -0.2189
36038SOL    HW113950   0.998   1.371   8.435  0.0644  0.9069  0.5601
36038SOL    HW213951   0.889   1.294   8.506 -0.2975  0.1332 -0.7937
36039SOL     OW13952   4.330   1.248   0.816  0.2000 -0.0456 -0.1398
36039SOL    HW113953   4.286   1.324   0.778  1.7333  0.8569 -0.2014
36039SOL    HW213954   4.273   1.174   0.796 -1.4220  1.1030  0.0807
36040SOL     OW13955   7.813   3.941   9.070 -0.1483 -0.0284  0.8976
36040SOL    HW113956   7.807   3.897   9.155 -1.9278 -0.8455  0.3844
36040SOL    HW213957   7.809   3.871   9.006  1.7116  0.5306  0.0838
36041SOL     OW13958   5.642   0.528   4.397  0.5955  0.2705 -0.1850
36041SOL    HW113959   5.641   0.442   4.354 -1.2365 -0.5594  1.3651
36041SOL    HW213960   5.681   0.587   4.332 -0.5905 -1.1860 -2.3526
36042SOL     OW13961   5.492   7.665   8.738 -0.6287 -0.3477  0.6927
36042SOL    HW113962   5.495   7.591   8.677 -1.0003  1.2139 -1.2995
36042SOL    HW213963   5.413   7.649   8.790 -0.2749 -1.7328  0.8483
36043SOL     OW13964   1.224   9.538   2.889  0.4718  0.0083 -0.7969
36043SOL    HW113965   1.157   9.566   2.827  0.0516 -1.6240 -1.1299
36043SOL    HW213966   1.307   9.549   2.842  0.1702 -1.0037 -1.6111
36044SOL     OW13967   3.323   0.985   3.517 -0.0091 -0.5708  0.6267
36044SOL    HW113968   3.310   1.075   3.547 -0.9210 -0.7539  0.8121
36044SOL    HW213969   3.242   0.940   3.540 -0.0502 -1.1454 -0.5417
36045SOL     OW13970   8.375   4.466   9.670 -0.5039 -0.0671 -0.3618
36045SOL    HW113971   8.422   4.528   9.725 -0.5527  0.4146 -0.8539
36045SOL    HW213972   8.393   4.495   9.581 -1.4688 -0.0630 -0.5648
36046SOL     OW13973   8.618   7.720   5.049 -0.5555  0.4637 -0.1889
36046SOL    HW113974   8.642   7.672   5.128 -0.9642  1.7498  0.7403
36046SOL    HW213975   8.597   7.808   5.079 -0.4230  1.0710 -1.7758
36047SOL     OW13976   7.612   0.524   9.274 -0.3989  0.5021 -0.6818
36047SOL    HW113977   7.592   0.604   9.322 -2.0279 -1.3456  2.0694
36047SOL    HW213978   7.571   0.535   9.189 -4.0642  1.1890  0.9813
36048SOL     OW13979   5.104   4.993   3.262  0.4787  0.1498  0.6216
36048SOL    HW113980   5.057   4.932   3.205  1.9318 -0.1622 -0.2959
36048SOL    HW213981   5.178   4.943   3.296  0.8966  0.9911  0.9850
36049SOL     OW13982   7.325   6.127   2.104 -0.0259 -0.2655  0.0761
36049SOL    HW113983   7.336   6.117   2.010 -1.3049 -1.1232  0.0020
36049SOL    HW213984   7.371   6.052   2.142 -1.0712 -0.9541  0.0226
36050SOL     OW13985   2.030   7.275   7.850 -0.4933  0.4113  0.2648
36050SOL    HW113986   2.055   7.228   7.930  0.6781 -0.5069 -0.5968
36050SOL    HW213987   2.066   7.362   7.862  0.9068 -0.1273  0.1778
36051SOL     OW13988   6.652   1.829   6.803 -0.0250 -0.0247  0.3440
36051SOL    HW113989   6.636   1.778   6.883  0.1875 -1.0310 -0.2284
36051SOL    HW213990   6.589   1.794   6.740  0.2291  0.3226 -0.1054
36052SOL     OW13991   1.504   9.624   0.059 -0.1650  0.1906  0.1202
36052SOL    HW113992   1.459   9.541   0.047 -0.1001 -0.1434  1.8896
36052SOL    HW213993   1.440   9.691   0.035 -0.3738 -0.3427 -0.8554
36053SOL     OW13994   5.361  10.691   8.209 -0.3912 -0.0809  0.1396
36053SOL    HW113995   5.403  10.697   8.295  0.1083 -0.8340 -0.0393
36053SOL    HW213996   5.434  10.677   8.148 -0.9076 -2.1022 -0.0971
36054SOL     OW13997  10.743   6.953   6.466  0.2890  0.3926  0.1905
36054SOL    HW113998  10.690   6.934   6.389  0.3716  0.0662  0.2140
36054SOL    HW213999  10.789   7.034   6.444 -0.7033  1.0351  0.4167
36055SOL     OW14000   5.504   1.948   4.302  0.4693  0.0456 -0.4090
36055SOL    HW114001   5.513   2.035   4.263  1.2056 -0.0032 -0.3771
36055SOL    HW214002   5.541   1.957   4.390  0.8964 -0.3833 -0.5391
36056SOL     OW14003   6.449   3.152   1.535 -0.2773  0.3930  0.0785
36056SOL    HW114004   6.482   3.187   1.452  0.5233 -1.5897 -0.4972
36056SOL    HW214005   6.401   3.073   1.510  0.7445 -0.7466  1.5755
36057SOL     OW14006   6.268   2.816   7.334 -0.0624  0.8472  0.2000
36057SOL    HW114007   6.306   2.731   7.311 -0.2174  0.8280  0.0232
36057SOL    HW214008   6.309   2.837   7.418 -1.6871 -0.4593  1.3876
36058SOL     OW14009   4.358   0.588   4.005 -0.1650 -0.2651 -0.4184
36058SOL    HW114010   4.330   0.659   4.062  1.9557  1.5488 -1.4829
36058SOL    HW214011   4.277   0.543   3.982 -1.4471  1.0566  1.2451
36059SOL     OW14012   4.065   5.680   5.115 -0.3621  0.4079 -0.0583
36059SOL    HW114013   4.034   5.592   5.093 -1.0936  0.4645  0.7071
36059SOL    HW214014   4.093   5.673   5.206 -1.0647  1.1283  0.2229
36060SOL     OW14015   3.089   0.333   6.160 -0.5553 -0.1542  0.0368
36060SOL    HW114016   3.144   0.274   6.212 -1.3407 -1.2758 -0.3694
36060SOL    HW214017   3.069   0.406   6.218  0.1663 -0.4390  0.6571
36061SOL     OW14018   7.239   8.704   1.974  0.0735 -0.6265 -0.7201
36061SOL    HW114019   7.259   8.772   1.909  1.5095 -0.4150 -0.0854
36061SOL    HW214020   7.219   8.753   2.054  1.5135 -0.9418 -0.1514
36062SOL     OW14021   6.922   4.775   8.457  0.2670  0.0209  0.4500
36062SOL    HW114022   6.832   4.758   8.483  0.0190  1.2495  0.4608
36062SOL    HW214023   6.956   4.690   8.428 -1.1004 -0.3320 -0.1802
36063SOL     OW14024   3.004   7.099   0.903 -0.2358 -0.1957  0.3828
36063SOL    HW114025   3.053   7.059   0.830 -1.7844 -0.7570 -0.4054
36063SOL    HW214026   3.039   7.187   0.910 -0.2788 -0.0056 -1.3063
36064SOL     OW14027   7.482   2.824   0.203  0.5017  0.3553  0.7601
36064SOL    HW114028   7.406   2.880   0.219  0.4417  0.8894 -1.1240
36064SOL    HW214029   7.489   2.819   0.108  0.5151 -2.8916  0.8070
36065SOL     OW14030   3.128   7.439  10.362 -0.2112  0.1399 -0.7233
36065SOL    HW114031   3.089   7.375  10.422 -0.7403 -1.9395 -3.1343
36065SOL    HW214032   3.080   7.520  10.379 -0.2803 -0.3286  1.6645
36066SOL     OW14033   8.244   4.643   9.394  0.7377 -0.4919 -0.0254
36066SOL    HW114034   8.165   4.671   9.439  0.9142  0.8882 -0.5120
36066SOL    HW214035   8.258   4.553   9.423 -0.3028 -0.3368  1.0363
36067SOL     OW14036   3.301   5.530   5.441  0.9224 -0.1082 -0.7606
36067SOL    HW114037   3.226   5.471   5.443  2.0705 -1.7401  3.4037
36067SOL    HW214038   3.263   5.617   5.426 -2.0053 -0.7345  2.0438
36068SOL     OW14039   9.509   5.497   1.152  0.5302  0.0264  0.5830
36068SOL    HW114040   9.571   5.481   1.223  1.3985 -0.2324 -0.2152
36068SOL    HW214041   9.526   5.586   1.124  0.5305 -0.0395  0.3707
36069SOL     OW14042   7.696  10.000   6.869  0.0663  0.1831 -0.3927
36069SOL    HW114043   7.663   9.926   6.919  0.5332  1.3384  1.7644
36069SOL    HW214044   7.666   9.984   6.779 -2.3326 -1.1518  0.5431
36070SOL     OW14045   8.208   9.359   7.541  0.0026  0.4168  0.0841
36070SOL    HW114046   8.169   9.408   7.614  0.7145  1.3029 -0.1155
36070SOL    HW214047   8.134   9.339   7.484 -0.9238 -2.0016  1.9537
36071SOL     OW14048   6.654   5.402   3.513 -0.1548  0.1145 -0.2736
36071SOL    HW114049   6.732   5.347   3.503 -0.5451 -0.5877  0.3696
36071SOL    HW214050   6.683   5.476   3.565  0.1907  0.1021 -0.4469
36072SOL     OW14051   2.731   1.211   7.810  0.4017 -0.0088 -0.3274
36072SOL    HW114052   2.715   1.263   7.730  2.9904  0.6362 -0.5157
36072SOL    HW214053   2.754   1.124   7.777  2.2848  0.4742 -0.3968
36073SOL     OW14054   2.446   3.830  10.326 -0.2359  0.0520  0.0294
36073SOL    HW114055   2.498   3.828  10.246  0.0613  1.4791  0.1467
36073SOL    HW214056   2.387   3.905  10.314  0.9064  1.3039  1.7737
36074SOL     OW14057   1.862   3.273   7.930 -0.5718  0.9269  0.3642
36074SOL    HW114058   1.889   3.353   7.974 -0.3646  1.3629 -0.5400
36074SOL    HW214059   1.877   3.289   7.837 -0.3381 -0.2324  0.1785
36075SOL     OW14060   2.684   8.504   0.435  0.2218 -0.1187 -0.2032
36075SOL    HW114061   2.747   8.492   0.364  0.8446  2.5960 -0.2144
36075SOL    HW214062   2.618   8.563   0.399 -0.7315 -0.5439  0.7745
36076SOL     OW14063   6.411   9.905   9.817  0.2306  0.2235 -0.1355
36076SOL    HW114064   6.502   9.932   9.821  0.6961 -1.1763 -0.6059
36076SOL    HW214065   6.386   9.888   9.907  0.6066  0.0633 -0.0630
36077SOL     OW14066   9.624   8.949   0.760  0.0758  0.1464  0.8626
36077SOL    HW114067   9.566   8.903   0.820 -1.2151  0.0787 -0.3891
36077SOL    HW214068   9.691   8.885   0.738 -2.0026 -1.4574 -1.2954
36078SOL     OW14069   0.396   0.210   4.232  0.5422 -0.8892 -0.4677
36078SOL    HW114070   0.389   0.192   4.325  1.7966  3.5102  0.6782
36078SOL    HW214071   0.307   0.233   4.205  0.5786  0.2464  0.3123
36079SOL     OW14072   3.779   3.244  10.903 -0.4781 -0.0008  0.4062
36079SOL    HW114073   3.758   3.293  10.983  0.3137 -0.5659  0.9605
36079SOL    HW214074   3.874   3.247  10.897 -0.5508  0.5769 -0.8741
36080SOL     OW14075   5.101   1.159   6.994  0.6302 -0.1824 -0.3578
36080SOL    HW114076   5.069   1.083   7.041  1.0931 -1.0555 -1.3944
36080SOL    HW214077   5.156   1.122   6.924 -1.6561  0.8560 -2.9065
36081SOL     OW14078   6.660  10.620   6.125  0.0851 -0.8185  0.2732
36081SOL    HW114079   6.596  10.691   6.134  1.1064 -0.0047  1.5671
36081SOL    HW214080   6.683  10.620   6.032  0.2902  0.7815  0.2905
36082SOL     OW14081   1.138   4.776   8.762  0.1497 -0.3229  0.0466
36082SOL    HW114082   1.152   4.758   8.855  1.5452  1.1730  0.1634
36082SOL    HW214083   1.095   4.862   8.760 -0.7595 -0.7655 -0.6895
36083SOL     OW14084   8.957  10.085   7.046  0.3960  0.0289 -0.0906
36083SOL    HW114085   8.999  10.072   6.961 -1.5950 -0.0989 -1.1191
36083SOL    HW214086   8.863  10.090   7.026 -0.1079  0.3187  2.0705
36084SOL     OW14087   9.709   7.617   1.241  0.3680  0.2128 -0.0910
36084SOL    HW114088   9.698   7.680   1.312 -0.8621 -1.8023  1.6427
36084SOL    HW214089   9.754   7.543   1.282  1.1783 -0.3344 -1.8876
36085SOL     OW14090   4.322   8.929  10.805 -0.0339 -0.4738 -0.7795
36085SOL    HW114091   4.296   8.838  10.811 -1.3819 -0.0318  0.7869
36085SOL    HW214092   4.298   8.956  10.716 -1.1089 -1.2164 -0.7245
36086SOL     OW14093   0.231   3.336   4.037  0.2368  0.2648  0.0859
36086SOL    HW114094   0.179   3.261   4.066  1.6133 -0.9925 -0.5431
36086SOL    HW214095   0.180   3.374   3.966 -0.6769  0.2149  0.6825
36087SOL     OW14096   4.741   3.402   5.351  0.0198 -0.1949 -0.1079
36087SOL    HW114097   4.774   3.369   5.267 -1.9233 -0.5114 -0.7980
36087SOL    HW214098   4.805   3.469   5.377  1.5966 -1.3071 -0.9391
36088SOL     OW14099   6.609   5.706   9.335  0.4666  0.0918 -0.4211
36088SOL    HW114100   6.593   5.697   9.241 -1.6634 -2.2279  0.0553
36088SOL    HW214101   6.622   5.616   9.365  2.4546  0.8812  1.3617
36089SOL     OW14102   7.375   3.864   4.886 -0.2886 -0.0496 -0.6435
36089SOL    HW114103   7.442   3.798   4.905 -0.7830  0.3490  3.4872
36089SOL    HW214104   7.423   3.938   4.850  1.2538 -0.4950  0.3874
36090SOL     OW14105   2.257   2.473   5.900 -0.0860 -0.0201  0.0917
36090SOL    HW114106   2.323   2.472   5.970 -0.9237 -1.5372  0.9048
36090SOL    HW214107   2.252   2.565   5.873  1.4448  0.3161  0.8829
36091SOL     OW14108   7.950   0.237   9.942 -0.3993 -0.3672  0.1581
36091SOL    HW114109   8.038   0.217   9.908 -0.4179 -1.6535  0.8159
36091SOL    HW214110   7.894   0.236   9.864  0.1875  0.7203 -0.3062
36092SOL     OW14111   6.684   7.348   6.556 -0.6957 -0.0548 -0.6526
36092SOL    HW114112   6.690   7.399   6.475  0.7609 -0.3781 -0.7845
36092SOL    HW214113   6.761   7.291   6.554 -0.7307 -0.1984  0.8744
36093SOL     OW14114  10.384   8.046   0.881 -0.4530  0.2544  0.0410
36093SOL    HW114115  10.299   8.086   0.900 -0.5831  0.0904 -0.1840
36093SOL    HW214116  10.429   8.045   0.965 -1.6009 -1.8526  0.7313
36094SOL     OW14117  10.689   3.156   9.487 -0.1357 -0.3174  0.5577
36094SOL    HW114118  10.594   3.150   9.475 -0.1202  0.7491 -0.1949
36094SOL    HW214119  10.700   3.169   9.581 -0.8377  1.1125  0.4682
36095SOL     OW14120   7.936   3.326   0.724  0.1323  0.3681  0.2056
36095SOL    HW114121   7.916   3.383   0.650  1.2985 -0.2454 -0.6122
36095SOL    HW214122   7.873   3.352   0.792 -0.4074  1.5118 -0.6961
36096SOL     OW14123   4.455   5.480   9.724  0.2628  0.1587  0.1899
36096SOL    HW114124   4.447   5.385   9.730 -2.4253  0.1601 -1.5848
36096SOL    HW214125   4.540   5.495   9.683  1.8894 -1.2509  2.7560
36097SOL     OW14126   3.666   7.933   7.590  0.4576  0.0438 -0.4995
36097SOL    HW114127   3.603   7.896   7.527 -2.2621  0.3294  1.8639
36097SOL    HW214128   3.634   8.021   7.607  0.3220 -0.4347  2.1554
36098SOL     OW14129   8.352   4.701   5.815 -0.1907 -0.6780  0.3563
36098SOL    HW114130   8.282   4.719   5.878 -0.7982 -1.7600  0.0133
36098SOL    HW214131   8.353   4.606   5.806  1.0530 -0.6570  0.0306
36099SOL     OW14132  10.351   5.895   7.474 -1.1438 -1.0156  0.4136
36099SOL    HW114133  10.304   5.977   7.487  0.0119 -0.6379  2.6579
36099SOL    HW214134  10.406   5.911   7.397  0.1727  0.8798  1.6811
36100SOL     OW14135   0.810   6.671   0.430 -0.0186  0.2056 -0.0285
36100SOL    HW114136   0.859   6.637   0.355 -1.9698 -2.6760 -0.1218
36100SOL    HW214137   0.857   6.639   0.507 -0.6313 -0.8689 -0.0945
36101SOL     OW14138  10.638   6.230   8.395  0.0995 -0.4465  0.4044
36101SOL    HW114139  10.630   6.152   8.341  0.1198 -0.5118  0.4949
36101SOL    HW214140  10.572   6.219   8.463 -0.2916 -0.1077  0.0807
36102SOL     OW14141   4.100   4.759   3.665  0.2437  0.7470  0.4792
36102SOL    HW114142   4.098   4.756   3.570 -1.4376 -2.1780  0.4926
36102SOL    HW214143   4.192   4.750   3.688  0.5370  0.1821 -0.8718
36103SOL     OW14144   4.443   8.877   2.727  0.4205 -0.2782 -0.3032
36103SOL    HW114145   4.360   8.877   2.678  1.0296  2.0293 -1.5241
36103SOL    HW214146   4.421   8.839   2.812 -1.4016 -1.6180 -1.3042
36104SOL     OW14147   8.128   2.058   5.484 -0.4160 -0.1298 -0.8568
36104SOL    HW114148   8.202   2.119   5.487 -0.3962 -0.0755 -1.9360
36104SOL    HW214149   8.051   2.114   5.478 -0.4408 -0.1955 -1.1878
36105SOL     OW14150   7.503   5.212   4.529 -0.3461  0.2313 -0.0313
36105SOL    HW114151   7.451   5.141   4.568  0.6701 -0.8200 -0.5501
36105SOL    HW214152   7.503   5.280   4.596 -0.4671 -0.6684  0.9121
36106SOL     OW14153   6.372   6.466   3.412 -0.4252 -0.1107 -0.1167
36106SOL    HW114154   6.299   6.504   3.460 -0.1084  1.2106 -0.6315
36106SOL    HW214155   6.364   6.502   3.324  1.0293  0.3280 -0.0890
36107SOL     OW14156   9.612   0.418   5.744 -0.1056  0.1599  0.0618
36107SOL    HW114157   9.684   0.384   5.690 -0.5509 -1.7118  0.5950
36107SOL    HW214158   9.604   0.510   5.717  2.4482  0.4303 -0.0466
36108SOL     OW14159   3.908   9.458   9.981  0.0193  0.3214  0.2788
36108SOL    HW114160   3.985   9.401   9.984 -0.4364 -0.4212 -1.0544
36108SOL    HW214161   3.904   9.486   9.889  0.6296  3.1211  0.9978
36109SOL     OW14162   6.066   4.396  10.446  0.0030  0.2435  0.1626
36109SOL    HW114163   6.154   4.415  10.417 -0.1672  0.7993 -0.0067
36109SOL    HW214164   6.024   4.482  10.454 -1.3128 -0.1027 -2.2071
36110SOL     OW14165   0.448   6.206   9.259  0.2554  0.6695 -0.2001
36110SOL    HW114166   0.475   6.126   9.305 -1.9686 -0.6965 -1.0589
36110SOL    HW214167   0.381   6.245   9.315 -0.0393  0.8576 -0.6718
36111SOL     OW14168   9.107   1.595   9.737 -0.4796 -0.3983  0.4540
36111SOL    HW114169   9.044   1.666   9.746 -0.7921 -0.5648 -0.2728
36111SOL    HW214170   9.094   1.563   9.647 -0.6561 -1.6620  0.9072
36112SOL     OW14171   6.933   2.804   5.538 -0.0382 -0.0711 -0.0241
36112SOL    HW114172   6.958   2.805   5.446 -1.1844 -1.7889 -0.4036
36112SOL    HW214173   7.016   2.809   5.586  0.5337  1.3891 -1.1187
36113SOL     OW14174   3.412   8.069   6.045  0.8944  0.2114  0.5224
36113SOL    HW114175   3.389   8.070   6.138  1.3074 -2.1013  0.7117
36113SOL    HW214176   3.488   8.012   6.040  0.2451 -0.5559 -1.3654
36114SOL     OW14177   8.650   1.286   3.051  0.0261 -0.0814  0.2975
36114SOL    HW114178   8.734   1.249   3.078  1.0766  1.6217 -0.4799
36114SOL    HW214179   8.615   1.326   3.130  1.3352  1.6768  0.0298
36115SOL     OW14180   2.848   2.798   7.152  0.0322  0.2810 -0.6013
36115SOL    HW114181   2.787   2.815   7.080 -0.3443  0.4230 -0.2551
36115SOL    HW214182   2.883   2.711   7.135 -0.7442 -0.0632 -0.4686
36116SOL     OW14183   0.244   2.372   9.043  0.0812 -0.5595  0.1768
36116SOL    HW114184   0.259   2.278   9.051 -3.2196 -1.0469  2.9689
36116SOL    HW214185   0.294   2.411   9.115 -1.3649 -0.6603  1.2689
36117SOL     OW14186  10.155  10.560   1.253 -0.2049 -0.1278 -0.1712
36117SOL    HW114187  10.109  10.594   1.329  0.0577  1.2125 -0.5796
36117SOL    HW214188  10.242  10.537   1.285 -0.0142  0.6670 -0.1075
36118SOL     OW14189   4.006   6.131   9.003 -0.1105  0.0430 -0.4898
36118SOL    HW114190   4.034   6.170   8.920 -0.2864 -0.4860 -0.8009
36118SOL    HW214191   3.941   6.192   9.037  0.7978  0.8575 -0.1662
36119SOL     OW14192   2.515   7.900   0.303  0.1396 -0.0884  0.0136
36119SOL    HW114193   2.445   7.854   0.257  0.8017 -0.3343 -0.7616
36119SOL    HW214194   2.518   7.986   0.261 -0.8835  0.5905  1.2490
36120SOL     OW14195   9.146   8.027   7.820 -0.1275  0.1869  0.0357
36120SOL    HW114196   9.099   8.110   7.831 -1.3947 -0.4782 -0.2345
36120SOL    HW214197   9.170   8.025   7.727  0.9487  0.7665  0.2764
36121SOL     OW14198   4.732   3.479   9.622  0.2034 -0.1292 -0.3905
36121SOL    HW114199   4.709   3.499   9.712  1.3218  0.2666 -0.1867
36121SOL    HW214200   4.735   3.565   9.578 -0.2690 -0.3123 -0.7957
36122SOL     OW14201   8.982   3.449   5.798 -0.3832  0.2859  0.5185
36122SOL    HW114202   9.071   3.466   5.766 -0.4230 -1.8861 -0.9681
36122SOL    HW214203   8.929   3.448   5.718 -1.3819 -0.4119  1.1778
36123SOL     OW14204   6.167   5.637   4.003 -0.3092 -0.0225 -0.4353
36123SOL    HW114205   6.134   5.727   4.007 -0.7780 -0.1616 -0.9598
36123SOL    HW214206   6.190   5.616   4.093  1.1590  1.1184 -0.5054
36124SOL     OW14207   4.154   2.821   9.416  0.0248 -0.1867 -0.7553
36124SOL    HW114208   4.144   2.861   9.502  1.3578  1.0594 -1.1640
36124SOL    HW214209   4.076   2.765   9.408  0.4829 -1.3453  1.7640
36125SOL     OW14210   2.436   2.634   5.210  0.1009  0.1581  0.2225
36125SOL    HW114211   2.474   2.675   5.287  1.1155  0.4179 -0.3983
36125SOL    HW214212   2.442   2.701   5.141  1.1231 -0.7620 -0.6189
36126SOL     OW14213   7.592   1.568   5.038  0.0698  0.4103  0.3091
36126SOL    HW114214   7.675   1.566   4.991  0.1573 -0.1468  0.4813
36126SOL    HW214215   7.615   1.595   5.127  0.0700  0.2273  0.3645
36127SOL     OW14216   2.467   4.153   7.227  0.4255 -0.1628  0.3074
36127SOL    HW114217   2.391   4.118   7.273  0.2274  0.3930  0.4208
36127SOL    HW214218   2.447   4.141   7.134  0.4183 -0.4662  0.3499
36128SOL     OW14219   2.204   5.140   5.572  0.0137  0.1999 -0.2129
36128SOL    HW114220   2.196   5.212   5.634 -0.5172 -1.0295  1.1981
36128SOL    HW214221   2.135   5.157   5.507  0.5682  1.4927 -0.5042
36129SOL     OW14222   1.285   9.264   2.921  0.1316  0.0329  0.0234
36129SOL    HW114223   1.273   9.358   2.936  1.9799  0.1069  1.5592
36129SOL    HW214224   1.358   9.259   2.858 -0.3382 -0.3771 -0.4949
36130SOL     OW14225   4.365   4.017   0.872 -0.1526  0.0744  0.5086
36130SOL    HW114226   4.417   4.012   0.952  0.4307  0.2773  0.1498
36130SOL    HW214227   4.377   4.107   0.841 -1.7418  0.5108  1.0862
36131SOL     OW14228   7.703   7.051   0.793  0.2380  0.2887  0.2062
36131SOL    HW114229   7.787   7.093   0.775  0.2832  0.1786  0.1565
36131SOL    HW214230   7.727   6.969   0.837  0.2038 -0.2028 -0.6643
36132SOL     OW14231   9.010  10.446   8.318 -0.0259  0.0094  0.1773
36132SOL    HW114232   8.934  10.391   8.296  1.0145 -2.0911  1.5633
36132SOL    HW214233   9.068  10.389   8.368  1.4384  2.2275  1.1682
36133SOL     OW14234   6.270   4.835   5.302 -0.1498 -0.2180 -0.1671
36133SOL    HW114235   6.354   4.793   5.315 -1.4728 -2.2630  2.8942
36133SOL    HW214236   6.240   4.804   5.216  2.1171  0.6024 -1.3353
36134SOL     OW14237   0.765   7.683   4.962 -0.0512  0.2029 -0.0514
36134SOL    HW114238   0.766   7.773   4.930 -0.7353  0.1820 -0.1493
36134SOL    HW214239   0.758   7.691   5.057  2.4796  0.2740  0.2067
36135SOL     OW14240   3.227   9.806   1.235  0.5518  0.0791  0.1493
36135SOL    HW114241   3.142   9.804   1.279  1.0599 -1.1973  1.1176
36135SOL    HW214242   3.227   9.889   1.187 -1.7660 -0.4741 -0.9528
36136SOL     OW14243   3.815   9.220   1.322 -0.1716  0.4317 -0.0320
36136SOL    HW114244   3.813   9.289   1.255  2.7131 -1.3745 -2.2055
36136SOL    HW214245   3.732   9.175   1.312 -0.4454  1.1743 -1.3378
36137SOL     OW14246   6.622   4.357   7.136 -0.0726 -0.6724  0.6006
36137SOL    HW114247   6.582   4.349   7.223  1.1265 -1.0207  1.1402
36137SOL    HW214248   6.637   4.267   7.109 -1.0573 -0.5898 -0.2915
36138SOL     OW14249  10.314   3.526   8.660 -0.0177 -0.0535  0.5003
36138SOL    HW114250  10.385   3.580   8.696 -0.5183  0.0165  1.4114
36138SOL    HW214251  10.291   3.467   8.731  0.6412 -1.6366 -0.5344
36139SOL     OW14252   1.013   8.559   3.332 -0.0184 -0.0187  0.1473
36139SOL    HW114253   0.985   8.474   3.298 -0.3755  0.1371  0.0445
36139SOL    HW214254   1.000   8.553   3.426  0.5853 -0.3095  0.2156
36140SOL     OW14255   8.332   1.384   0.610 -0.0405  0.0049  0.6216
36140SOL    HW114256   8.306   1.411   0.523  1.0752 -4.4634 -1.4047
36140SOL    HW214257   8.262   1.326   0.640  1.9535 -2.9121  0.1008
36141SOL     OW14258   0.106   1.786   7.187 -0.3719 -0.1149 -0.4627
36141SOL    HW114259   0.068   1.846   7.124  0.2594 -1.4593 -2.2085
36141SOL    HW214260   0.031   1.743   7.228 -0.9536  2.9380  2.1422
36142SOL     OW14261   5.774   4.765  10.034 -1.0736  0.2921 -0.0636
36142SOL    HW114262   5.848   4.705  10.039 -0.1395  1.4644  1.1952
36142SOL    HW214263   5.724   4.747  10.114  0.0298  2.0941  1.1288
36143SOL     OW14264   1.878   0.902   4.632  0.6965 -0.1863 -0.5432
36143SOL    HW114265   1.806   0.964   4.649  2.1141  1.4234 -0.1710
36143SOL    HW214266   1.837   0.831   4.582 -1.1397  0.6964 -0.3768
36144SOL     OW14267   9.067   1.482   5.664  0.6227  0.0928  0.1378
36144SOL    HW114268   9.101   1.539   5.734 -0.1117  1.0027 -0.2345
36144SOL    HW214269   9.035   1.542   5.597 -1.6781 -0.6905  0.4318
36145SOL     OW14270   0.152   6.119   6.526 -0.4096 -0.3442  0.7228
36145SOL    HW114271   0.238   6.161   6.525 -1.8185  2.9239  2.1480
36145SOL    HW214272   0.163   6.043   6.584  1.6073 -0.3341  0.4281
36146SOL     OW14273   8.831   9.127   7.152 -0.1917  0.2195  0.2621
36146SOL    HW114274   8.737   9.131   7.169 -0.1155 -0.6137  0.9264
36146SOL    HW214275   8.871   9.121   7.239  0.5580  1.7810  0.0627
36147SOL     OW14276   7.334   4.579   0.490 -0.4551 -0.3108  0.2827
36147SOL    HW114277   7.372   4.515   0.430  0.6012  0.2482  0.3183
36147SOL    HW214278   7.277   4.633   0.435 -0.6454 -0.7215  0.0760
36148SOL     OW14279   8.621   3.521   0.485 -0.0611 -0.4965  0.2623
36148SOL    HW114280   8.709   3.485   0.484 -0.0937 -0.5726 -0.5201
36148SOL    HW214281   8.567   3.453   0.527  0.5000  0.2109  2.2570
36149SOL     OW14282   9.163   3.126   4.407  0.2309 -0.0977 -0.6902
36149SOL    HW114283   9.192   3.036   4.426 -1.4547 -0.5461 -0.0827
36149SOL    HW214284   9.239   3.167   4.367  0.5282 -2.2998 -2.5794
36150SOL     OW14285   9.800   9.343   5.146 -0.3611 -0.3828  0.6170
36150SOL    HW114286   9.827   9.260   5.106 -1.7758 -2.2677  3.2662
36150SOL    HW214287   9.726   9.372   5.092 -0.2312 -1.1724 -0.0075
36151SOL     OW14288   1.377   0.126   0.878  0.3762 -0.5480  0.5133
36151SOL    HW114289   1.297   0.150   0.832  0.0232 -0.3518  1.2147
36151SOL    HW214290   1.356   0.043   0.921  0.5425 -0.4889  0.7124
36152SOL     OW14291   0.212   4.450  10.606  0.2471 -0.4272  0.4749
36152SOL    HW114292   0.228   4.522  10.667  0.0254  0.7355 -0.7898
36152SOL    HW214293   0.146   4.483  10.545 -0.9985 -2.2485  0.7435
36153SOL     OW14294   7.774   6.013   3.501  0.2845 -0.7487 -0.3742
36153SOL    HW114295   7.752   5.937   3.448  0.2078 -1.0792  0.1268
36153SOL    HW214296   7.690   6.044   3.534  0.4571 -1.4933  0.8349
36154SOL     OW14297   8.573   0.234   4.622 -0.5308  0.2751 -0.2628
36154SOL    HW114298   8.595   0.285   4.700 -1.0127  1.5116 -0.9079
36154SOL    HW214299   8.489   0.193   4.643 -1.2754  1.5909 -0.5455
36155SOL     OW14300  10.166   9.598   8.009  0.1970  0.3290 -0.4818
36155SOL    HW114301  10.167   9.628   7.918 -0.8882 -1.1316 -1.0070
36155SOL    HW214302  10.117   9.516   8.007  1.2513 -0.3923  1.2292
36156SOL     OW14303  10.231   1.245   3.934  0.3913  0.5490  0.0877
36156SOL    HW114304  10.277   1.209   4.010  0.7426 -0.3130 -0.5147
36156SOL    HW214305  10.234   1.339   3.947 -1.2462  0.3915  2.1207
36157SOL     OW14306   8.297   5.279   9.190  0.4635  0.0777 -0.5499
36157SOL    HW114307   8.345   5.196   9.184 -1.1450 -0.9243  0.0303
36157SOL    HW214308   8.287   5.308   9.099  1.2231 -0.2305 -0.7426
36158SOL     OW14309   7.590   3.086   4.112  0.0742 -0.3399 -0.3319
36158SOL    HW114310   7.624   3.175   4.123 -0.7031 -0.2460  1.6228
36158SOL    HW214311   7.649   3.032   4.164 -1.6146 -0.4109  1.6369
36159SOL     OW14312   4.411   9.614   2.052 -0.1276 -0.9761 -0.5380
36159SOL    HW114313   4.476   9.553   2.017  0.0115 -1.6955  0.9212
36159SOL    HW214314   4.417   9.604   2.147 -1.2034  0.1788 -0.3239
36160SOL     OW14315   9.051   9.290  10.742  0.4903  0.1524  0.5435
36160SOL    HW114316   9.102   9.244  10.675  0.4670  0.3122  0.4136
36160SOL    HW214317   8.975   9.324  10.694  0.7642  0.7579  0.5301
36161SOL     OW14318   6.500   3.567   0.441  0.4773  0.3503 -0.3596
36161SOL    HW114319   6.449   3.486   0.442  0.2972  0.4703  0.4726
36161SOL    HW214320   6.580   3.544   0.393 -0.0249 -0.0327 -1.0381
36162SOL     OW14321   8.206  10.355   4.307 -0.1781  0.3716 -0.0677
36162SOL    HW114322   8.259  10.275   4.305  1.3997  1.3164  1.0770
36162SOL    HW214323   8.134  10.335   4.367  0.4662 -0.0481  0.5770
36163SOL     OW14324   0.839   9.223   4.699  0.3785  0.5542  0.0962
36163SOL    HW114325   0.783   9.166   4.647 -1.7811  1.6168  1.1263
36163SOL    HW214326   0.851   9.175   4.782 -0.1572  0.8895  0.3767
36164SOL     OW14327   9.992  10.842   2.845 -0.0653  0.4243 -0.8015
36164SOL    HW114328   9.967  10.862   2.755  1.3732  0.4146 -1.2398
36164SOL    HW214329  10.041  10.760   2.839 -1.4355 -0.5081  0.2551
36165SOL     OW14330   7.901   9.186  10.459 -0.2443  0.5650  0.0872
36165SOL    HW114331   7.880   9.102  10.418  2.1282 -0.9682  1.8166
36165SOL    HW214332   7.963   9.228  10.399  1.8792 -0.9062  1.1390
36166SOL     OW14333   6.493  10.814   7.790 -0.0365  0.3156  0.1521
36166SOL    HW114334   6.419  10.840   7.845 -0.9614 -0.7246 -0.5495
36166SOL    HW214335   6.458  10.743   7.736  1.6573 -0.6160  0.2216
36167SOL     OW14336  10.666   2.760   6.621 -0.2330 -0.5379  0.1696
36167SOL    HW114337  10.575   2.781   6.643 -0.1841  1.6257 -1.4309
36167SOL    HW214338  10.697   2.835   6.571  2.7735 -0.7650  1.4622
36168SOL     OW14339   6.452   3.750  10.174  0.1905 -0.4744  0.2776
36168SOL    HW114340   6.459   3.719  10.264 -1.2514 -0.4441  0.4292
36168SOL    HW214341   6.447   3.845  10.181 -1.5147 -0.5361  0.3271
36169SOL     OW14342   4.685   5.468   9.074 -0.5849 -0.2185  0.6218
36169SOL    HW114343   4.717   5.379   9.055 -2.6114 -0.7503 -0.6385
36169SOL    HW214344   4.681   5.510   8.989 -2.0088  0.2175  0.8804
36170SOL     OW14345   4.057   0.756   5.375  0.5364 -0.5764 -0.2300
36170SOL    HW114346   3.996   0.785   5.307 -0.9418  1.7153  1.9029
36170SOL    HW214347   4.111   0.690   5.332  0.6482  1.6973 -4.0735
36171SOL     OW14348   7.611   9.877   7.985 -0.5246 -0.6299  0.0455
36171SOL    HW114349   7.518   9.894   7.969 -1.1301 -2.5147  1.3404
36171SOL    HW214350   7.631   9.799   7.933  0.4351 -0.0799 -0.4432
36172SOL     OW14351   5.805   7.424   7.087 -0.1861  0.2811 -0.1694
36172SOL    HW114352   5.814   7.450   7.179 -0.9244 -2.7488  0.8763
36172SOL    HW214353   5.882   7.369   7.070 -1.2946 -1.2278 -0.5270
36173SOL     OW14354   3.132   5.165   4.071 -0.1449 -0.0439  0.1685
36173SOL    HW114355   3.050   5.214   4.072 -0.5859 -0.7148 -0.8784
36173SOL    HW214356   3.105   5.073   4.080  0.3770 -0.3730 -1.3135
36174SOL     OW14357   2.142   0.378   1.933 -0.4240 -0.0362 -0.1359
36174SOL    HW114358   2.138   0.340   1.845  1.7552 -1.1660  0.1872
36174SOL    HW214359   2.221   0.431   1.934 -0.0789 -0.5214  1.3099
36175SOL     OW14360   2.777   5.162  10.406  0.3225 -0.0458  0.3303
36175SOL    HW114361   2.835   5.154  10.330  3.0419 -1.8880  2.4153
36175SOL    HW214362   2.698   5.115  10.381  0.9606 -0.2097 -1.5229
36176SOL     OW14363   2.027   2.786   0.584 -0.1394 -0.0466  0.6305
36176SOL    HW114364   2.006   2.853   0.649 -1.8338  0.4190 -0.3315
36176SOL    HW214365   1.968   2.805   0.511  1.6490 -0.5691 -1.0398
36177SOL     OW14366   2.156  10.654   2.844 -0.1883 -0.1780 -0.2667
36177SOL    HW114367   2.107  10.723   2.799 -1.3096 -0.4452  0.5062
36177SOL    HW214368   2.191  10.696   2.922 -1.4571 -0.6293  0.5665
36178SOL     OW14369   5.755   4.717   9.556 -0.0787  0.3612  0.3835
36178SOL    HW114370   5.704   4.671   9.622 -0.2281 -0.8286 -0.5283
36178SOL    HW214371   5.729   4.677   9.473  1.8512  0.1465 -0.1821
36179SOL     OW14372   5.750   0.271   7.584 -0.1304 -0.5453  0.4471
36179SOL    HW114373   5.724   0.179   7.578  1.0828 -0.9632  1.0449
36179SOL    HW214374   5.756   0.288   7.679 -1.1643  0.4036  0.3570
36180SOL     OW14375   5.035   9.267   6.283 -0.0528 -0.2412 -0.3067
36180SOL    HW114376   4.999   9.257   6.195 -0.6554 -0.1616 -0.0703
36180SOL    HW214377   4.986   9.204   6.336  0.4197 -0.4045 -0.0558
36181SOL     OW14378   2.324   1.837   5.918  0.0956  0.3105 -0.2124
36181SOL    HW114379   2.308   1.760   5.864  1.0736 -0.7797  0.9502
36181SOL    HW214380   2.326   1.803   6.008 -1.3158  2.0163  0.5254
36182SOL     OW14381   1.238   6.692   6.122 -0.2472 -0.2307 -0.2498
36182SOL    HW114382   1.225   6.600   6.146 -1.0230 -0.6554 -2.1353
36182SOL    HW214383   1.309   6.722   6.179 -0.0133 -1.9708  0.4396
36183SOL     OW14384  10.649   4.327   7.884  0.1304 -0.3915  0.4384
36183SOL    HW114385  10.701   4.308   7.806 -0.3232 -2.0825  0.4971
36183SOL    HW214386  10.576   4.379   7.853  1.0190  0.6749  0.0907
36184SOL     OW14387   1.073   3.657   4.788 -0.4860  0.6435 -0.0745
36184SOL    HW114388   1.023   3.718   4.841 -1.0858  1.2497 -1.2948
36184SOL    HW214389   1.164   3.668   4.816 -0.6268  1.8792 -0.0750
36185SOL     OW14390   7.117   5.178   5.788 -0.1965 -0.2626  0.1846
36185SOL    HW114391   7.122   5.157   5.695 -1.4439 -1.4169  0.3367
36185SOL    HW214392   7.177   5.250   5.800 -0.7352  0.5626 -1.7036
36186SOL     OW14393   8.883   2.523   2.393  0.1766  0.0203 -0.2373
36186SOL    HW114394   8.826   2.513   2.317 -0.5588  1.7431  0.0338
36186SOL    HW214395   8.860   2.609   2.429  0.9914 -0.4448  1.5266
36187SOL     OW14396   6.798   8.204   7.153  0.1069  0.4300  0.1544
36187SOL    HW114397   6.770   8.215   7.062  1.7123 -0.7009 -0.5130
36187SOL    HW214398   6.717   8.182   7.199 -0.8981  1.8896 -0.7947
36188SOL     OW14399  10.551   1.802   9.789  0.0741  0.4342 -0.1835
36188SOL    HW114400  10.515   1.713   9.800 -0.3305  0.6364  0.1642
36188SOL    HW214401  10.477   1.860   9.807  0.3766  0.8472 -0.2607
36189SOL     OW14402   2.370   3.511   6.061 -0.5739  0.6576  0.6653
36189SOL    HW114403   2.395   3.540   5.973 -0.1927  0.9788  0.8757
36189SOL    HW214404   2.316   3.582   6.096 -2.5481 -0.3909 -0.1011
36190SOL     OW14405   7.855   9.304   4.605  0.8278  0.0315  0.3899
36190SOL    HW114406   7.774   9.285   4.653  1.1501 -2.4392  0.0662
36190SOL    HW214407   7.900   9.220   4.600  2.8887  1.1305 -0.4497
36191SOL     OW14408   8.776  10.130   1.170 -0.3488 -0.2210  0.0236
36191SOL    HW114409   8.709  10.064   1.149 -1.3436  1.0325 -0.8947
36191SOL    HW214410   8.726  10.208   1.193  0.8195  0.2881  0.9091
36192SOL     OW14411   5.933   0.589  10.702  0.0761 -0.1052 -0.2251
36192SOL    HW114412   5.968   0.561  10.787 -0.1463  0.6352  0.1146
36192SOL    HW214413   5.979   0.670  10.682 -0.6299  0.2835 -0.3078
36193SOL     OW14414   2.365   3.672   4.248  0.0759 -0.0491 -0.1897
36193SOL    HW114415   2.324   3.731   4.184 -0.5648  0.7291  0.9141
36193SOL    HW214416   2.360   3.719   4.331  1.5930 -0.7072  0.3185
36194SOL     OW14417   6.940   4.596   2.384  0.7013  0.3452 -0.6933
36194SOL    HW114418   7.019   4.622   2.337  1.1514 -2.4059 -1.5880
36194SOL    HW214419   6.969   4.584   2.475  0.6441  1.9918 -0.4198
36195SOL     OW14420   4.748   3.147   9.063 -0.1165 -0.3488  0.4731
36195SOL    HW114421   4.669   3.094   9.052  0.2238 -0.4486 -2.0869
36195SOL    HW214422   4.720   3.236   9.041  0.4599 -0.4164 -0.6405
36196SOL     OW14423   9.024   8.992   4.756 -0.2293 -0.0452 -0.0937
36196SOL    HW114424   9.119   8.984   4.751 -0.2694 -0.3466 -0.4782
36196SOL    HW214425   9.003   8.975   4.848 -0.0690 -1.9691 -0.3683
36197SOL     OW14426   8.911   1.910   1.153 -0.2405 -0.1626  0.1297
36197SOL    HW114427   8.873   1.940   1.236 -2.0527  0.0634 -0.7184
36197SOL    HW214428   8.937   1.990   1.108  0.3710 -0.2603  0.3021
36198SOL     OW14429   7.653   0.866   6.534 -0.3816 -0.0003  0.8580
36198SOL    HW114430   7.674   0.951   6.573  1.4563  0.8927 -1.7436
36198SOL    HW214431   7.564   0.876   6.502 -0.7299  0.3901  1.9091
36199SOL     OW14432   6.318   3.257   0.878  0.3839 -0.1721 -0.8166
36199SOL    HW114433   6.406   3.224   0.897 -0.2716 -1.3126  0.3986
36199SOL    HW214434   6.271   3.182   0.840  0.0012  0.5030 -1.7157
36200SOL     OW14435   9.619   1.213   1.440 -0.3491 -0.9074 -0.3161
36200SOL    HW114436   9.638   1.171   1.524 -0.0448 -2.4168 -1.1065
36200SOL    HW214437   9.700   1.201   1.389 -0.1546  0.9172 -0.4821
36201SOL     OW14438   1.253   0.063  10.049  0.3040  0.5416 -0.7402
36201SOL    HW114439   1.213   0.055  10.135  1.3899  0.0918 -0.2515
36201SOL    HW214440   1.311   0.139  10.056 -1.1157  1.7621 -1.7219
36202SOL     OW14441   7.283   9.983   3.935 -0.5133 -0.0057  0.2269
36202SOL    HW114442   7.359   9.934   3.965 -0.8350 -0.4871  0.2787
36202SOL    HW214443   7.256   9.939   3.854  1.4035  2.3375 -1.8495
36203SOL     OW14444   0.629   4.390   7.555  0.4239 -0.2797 -0.3803
36203SOL    HW114445   0.544   4.415   7.520  0.7404  0.5591 -0.5629
36203SOL    HW214446   0.646   4.303   7.519 -1.3098 -1.4056  1.3340
36204SOL     OW14447   3.878  10.674   2.959  0.1690 -0.1314 -0.2008
36204SOL    HW114448   3.908  10.592   2.998 -1.0147  0.1968  1.5121
36204SOL    HW214449   3.818  10.711   3.024  1.3589  2.5569 -0.5056
36205SOL     OW14450   9.906   6.668   3.210 -0.3386  0.4556 -0.0614
36205SOL    HW114451   9.854   6.662   3.130 -2.0350 -0.1229  1.0430
36205SOL    HW214452   9.908   6.761   3.230 -0.3201  0.5525 -0.4945
36206SOL     OW14453   1.672   8.898   8.840 -0.2106  0.4724 -0.7998
36206SOL    HW114454   1.649   8.943   8.921 -1.0536 -0.4845 -0.4788
36206SOL    HW214455   1.627   8.946   8.771 -1.8995 -0.3960 -0.3598
36207SOL     OW14456   2.610   1.593   7.974  0.7731 -0.4051 -0.5214
36207SOL    HW114457   2.571   1.548   7.899 -0.5468 -0.2219  0.0182
36207SOL    HW214458   2.677   1.533   8.007  0.7342 -0.8740 -1.2910
36208SOL     OW14459   6.450   3.083   5.831 -0.0496  0.2810 -0.4677
36208SOL    HW114460   6.499   3.127   5.761  1.3921  0.8206  0.8472
36208SOL    HW214461   6.515   3.030   5.877 -1.3251 -1.5237 -0.6210
36209SOL     OW14462   0.180   9.771   4.125 -0.7570 -0.0144 -0.1829
36209SOL    HW114463   0.113   9.735   4.183  0.5564  0.3617  1.6743
36209SOL    HW214464   0.246   9.702   4.118 -0.5091  0.2499 -0.5294
36210SOL     OW14465   3.103   9.010   0.887 -0.0300  0.1447 -0.2336
36210SOL    HW114466   3.043   8.941   0.916 -0.5297  1.9323  3.5206
36210SOL    HW214467   3.179   8.963   0.854 -0.5665 -2.2576  1.6615
36211SOL     OW14468   3.965   0.348   0.851  0.1948  0.2333 -0.6791
36211SOL    HW114469   4.047   0.373   0.809  0.7152  0.7059  0.5953
36211SOL    HW214470   3.953   0.256   0.826  1.8974 -0.3026  0.3464
36212SOL     OW14471   2.720   3.849   4.639 -0.9877  0.3790  0.7171
36212SOL    HW114472   2.670   3.776   4.676  0.2084 -0.6230  0.4541
36212SOL    HW214473   2.718   3.833   4.544  0.2532  0.0241  0.7423
36213SOL     OW14474   3.289   2.962   5.240  0.0704 -0.4945 -0.2272
36213SOL    HW114475   3.236   3.030   5.282 -0.6699 -1.9843  1.4089
36213SOL    HW214476   3.240   2.938   5.161 -1.2288 -1.1322  0.7288
36214SOL     OW14477   3.935   1.724   3.455  0.1813  0.4675 -0.1123
36214SOL    HW114478   3.862   1.664   3.441  1.1698 -1.2510  1.4726
36214SOL    HW214479   3.990   1.713   3.378 -0.4045  0.4741 -0.5322
36215SOL     OW14480   3.170   9.877   9.327  0.3600  0.4244  0.6713
36215SOL    HW114481   3.258   9.899   9.299 -0.3175  2.5085  0.0143
36215SOL    HW214482   3.163   9.782   9.313  1.8397  0.5262 -1.1251
36216SOL     OW14483   8.911   3.036   3.855 -0.4117 -0.1350 -0.1590
36216SOL    HW114484   8.918   2.968   3.788 -0.1385  0.2436 -0.5221
36216SOL    HW214485   8.849   3.001   3.919 -0.9049 -0.3799 -0.7583
36217SOL     OW14486   9.220   0.345   3.598  0.6256  0.1463  0.0585
36217SOL    HW114487   9.190   0.310   3.682 -0.6148  1.1693  0.0743
36217SOL    HW214488   9.259   0.270   3.553 -3.0434 -1.6802 -0.4365
36218SOL     OW14489   1.753   4.340   0.411  0.2599 -0.3612  0.1658
36218SOL    HW114490   1.781   4.330   0.502 -1.5842  2.2853  1.1131
36218SOL    HW214491   1.830   4.376   0.367  0.8965 -0.8550  0.8355
36219SOL     OW14492   6.322   8.554   5.531 -0.1234  0.7668 -0.2812
36219SOL    HW114493   6.408   8.584   5.501  0.4814 -0.4936  0.0911
36219SOL    HW214494   6.324   8.566   5.626 -0.7737  1.6892 -0.3683
36220SOL     OW14495   2.962   3.620   6.848 -0.1110  0.2710 -0.1442
36220SOL    HW114496   2.904   3.686   6.810 -1.4593 -1.1115 -0.6288
36220SOL    HW214497   3.001   3.576   6.772 -0.4045 -0.4559  0.1094
36221SOL     OW14498   0.896  10.339   2.054 -0.4428  0.0562 -0.1853
36221SOL    HW114499   0.879  10.406   1.987  1.1568  0.2149 -0.4569
36221SOL    HW214500   0.860  10.259   2.017 -2.4163  0.7256  0.1516
36222SOL     OW14501   6.264   3.058   2.609 -0.0395 -0.2751 -0.2157
36222SOL    HW114502   6.225   2.972   2.589  2.8910 -1.5548 -0.9218
36222SOL    HW214503   6.343   3.037   2.659 -0.1589  2.1753  1.1314
36223SOL     OW14504   8.252   5.828   4.650 -0.4878  0.4353 -0.0422
36223SOL    HW114505   8.187   5.773   4.606 -0.2870  1.4446 -1.6916
36223SOL    HW214506   8.235   5.916   4.617  0.7872  0.9507  0.6080
36224SOL     OW14507   5.958   3.022   7.241 -0.1374 -0.1363  0.2429
36224SOL    HW114508   5.868   3.038   7.268 -0.3337 -1.9435  0.8186
36224SOL    HW214509   5.956   2.935   7.202  1.0377  0.5284 -1.4100
36225SOL     OW14510   9.192   2.536   1.009 -0.3921 -0.3484  0.2582
36225SOL    HW114511   9.153   2.498   1.087 -0.3102 -0.4517  0.2485
36225SOL    HW214512   9.173   2.630   1.016 -2.0504 -0.6022 -0.5598
36226SOL     OW14513   8.439   2.245   9.599  0.3679 -0.1431 -0.2875
36226SOL    HW114514   8.522   2.205   9.624  0.9914  1.0350 -0.3832
36226SOL    HW214515   8.401   2.275   9.682 -0.1052 -0.9258 -0.2140
36227SOL     OW14516  10.178   6.445   3.336  0.2169 -0.1559 -0.3782
36227SOL    HW114517  10.219   6.360   3.348 -0.2267 -0.4748 -1.0697
36227SOL    HW214518  10.089   6.425   3.309  0.5352  0.5085 -2.0281
36228SOL     OW14519   1.148   1.590   5.553  0.0236 -0.0808  0.4472
36228SOL    HW114520   1.143   1.495   5.541 -0.0432 -0.3085  2.0566
36228SOL    HW214521   1.154   1.625   5.464 -0.5816 -1.5472 -0.2108
36229SOL     OW14522   3.431   2.896   7.549 -0.2714 -0.1116 -0.1539
36229SOL    HW114523   3.363   2.939   7.496  1.0324  1.6600 -0.5034
36229SOL    HW214524   3.414   2.925   7.638 -0.1856  0.0616 -0.1925
36230SOL     OW14525   8.579   2.735   5.002  0.0730 -0.5452 -0.5745
36230SOL    HW114526   8.607   2.786   5.079  0.2508  0.2845 -1.1797
36230SOL    HW214527   8.631   2.655   5.007  1.1313  0.1269 -0.6070
36231SOL     OW14528   6.719   7.035   6.640  0.3017  0.1016 -0.1656
36231SOL    HW114529   6.661   7.022   6.565  0.3999 -1.0461 -0.0544
36231SOL    HW214530   6.684   6.979   6.708  1.6084 -0.7311 -0.1407
36232SOL     OW14531   2.892   4.793   2.778 -0.4781 -0.3809  0.0318
36232SOL    HW114532   2.871   4.828   2.865  1.0003  2.5119 -0.6350
36232SOL    HW214533   2.809   4.794   2.731 -0.7376  1.3338  0.4374
36233SOL     OW14534   6.918   7.331   4.432  0.0907  0.0020  0.1533
36233SOL    HW114535   6.860   7.307   4.360  0.6173  0.5257 -0.4561
36233SOL    HW214536   6.896   7.269   4.502  0.5726 -1.4635 -0.9357
36234SOL     OW14537   0.967   8.290  10.391  0.7536 -0.5551  0.4001
36234SOL    HW114538   0.989   8.197  10.403 -0.0119 -1.1242 -1.9817
36234SOL    HW214539   0.879   8.298  10.427  1.2268 -0.4870  1.5632
36235SOL     OW14540   4.508   0.076   9.333  0.1558  0.6710  0.3835
36235SOL    HW114541   4.553   0.154   9.299  0.1323  0.6505  0.3043
36235SOL    HW214542   4.515   0.084   9.428  0.5291  0.5482  0.3674
36236SOL     OW14543   3.321   8.856   0.813 -0.3674 -0.3443  0.5793
36236SOL    HW114544   3.378   8.781   0.794  0.6345  0.7921 -1.0888
36236SOL    HW214545   3.349   8.885   0.900 -0.0337 -1.2522  0.7852
36237SOL     OW14546   4.233   1.565   9.358 -0.6436  0.0406  0.2658
36237SOL    HW114547   4.300   1.553   9.424 -0.4738 -0.8344 -0.0649
36237SOL    HW214548   4.262   1.513   9.283 -1.1796  0.4650 -0.2510
36238SOL     OW14549   3.762   0.071   3.828  0.0647 -0.8130  0.1580
36238SOL    HW114550   3.768   0.162   3.856 -0.3202 -0.6202 -0.3537
36238SOL    HW214551   3.816   0.022   3.890  1.3590 -0.0640 -0.3434
36239SOL     OW14552   4.649   9.161   2.130 -0.0108  0.3704  0.4008
36239SOL    HW114553   4.699   9.101   2.185 -0.5122 -0.8853 -0.4801
36239SOL    HW214554   4.715   9.206   2.077  0.3606  0.5976  1.0429
36240SOL     OW14555   4.186   5.733   5.349  0.3491 -0.8435  0.0014
36240SOL    HW114556   4.229   5.672   5.409 -0.5960 -1.7345 -0.2196
36240SOL    HW214557   4.256   5.762   5.290  0.4417 -3.3176 -1.2296
36241SOL     OW14558   8.949   2.793   4.544 -0.7812  0.0172 -0.1115
36241SOL    HW114559   8.913   2.711   4.577  0.1074  0.3497  1.8576
36241SOL    HW214560   8.901   2.861   4.591  1.0180  0.4989  1.1452
36242SOL     OW14561   2.260   2.789   4.636  0.5896  0.2503 -0.6677
36242SOL    HW114562   2.295   2.869   4.674 -0.2876  0.2818  0.1226
36242SOL    HW214563   2.178   2.816   4.594  0.8055 -0.0537 -1.3008
36243SOL     OW14564   8.548   8.791   9.467  0.2723  0.4606  0.0170
36243SOL    HW114565   8.620   8.736   9.498  0.1510 -0.4293 -1.2255
36243SOL    HW214566   8.583   8.834   9.389 -0.1827  0.9113  0.0546
36244SOL     OW14567  10.036   7.555   1.021  0.4293  0.1131  0.2522
36244SOL    HW114568  10.026   7.640   0.978  2.4329  0.2327 -0.0691
36244SOL    HW214569   9.946   7.527   1.039 -0.3319  1.6434 -0.8850
36245SOL     OW14570   1.115   3.455   9.082 -0.1907 -0.1704 -0.0883
36245SOL    HW114571   1.069   3.509   9.147 -1.0664 -1.2612  0.2188
36245SOL    HW214572   1.056   3.381   9.066  0.6322 -0.6267 -1.1052
36246SOL     OW14573   5.695  10.491   2.968 -0.4622  0.5907  0.4188
36246SOL    HW114574   5.750  10.550   3.020 -0.8868  1.5143 -0.1666
36246SOL    HW214575   5.606  10.524   2.980 -0.6662  0.2757 -0.1903
36247SOL     OW14576   4.850   9.273   5.448 -0.4799  0.3501  0.2490
36247SOL    HW114577   4.822   9.330   5.520 -1.0481  1.0452 -0.5069
36247SOL    HW214578   4.821   9.185   5.475  3.0703 -0.2416  2.8873
36248SOL     OW14579   7.604   6.374   5.045 -0.2668 -0.1808  0.3894
36248SOL    HW114580   7.566   6.412   4.967  0.1564 -0.1444  0.1947
36248SOL    HW214581   7.632   6.286   5.017  0.0906 -0.0829  0.4361
36249SOL     OW14582  10.330   8.681   5.146 -0.1300  0.2759 -0.1508
36249SOL    HW114583  10.422   8.708   5.153  0.2197 -0.8639 -0.1538
36249SOL    HW214584  10.316   8.623   5.221 -0.5918 -0.2654 -0.6459
36250SOL     OW14585   8.061   7.456   5.581 -0.2475 -0.3437  0.1946
36250SOL    HW114586   7.966   7.466   5.580 -0.1489  0.6479 -1.2997
36250SOL    HW214587   8.090   7.488   5.496  1.6319  1.4966  1.4166
36251SOL     OW14588   5.748   7.076   5.362 -0.2741  0.3967 -0.3130
36251SOL    HW114589   5.725   7.167   5.380  0.6979  0.6276 -0.1834
36251SOL    HW214590   5.681   7.047   5.300 -0.2985  1.3605 -0.7682
36252SOL     OW14591   4.451   8.398   3.573  0.8731  0.4127 -0.3769
36252SOL    HW114592   4.457   8.451   3.494  2.0029 -0.1699 -0.6898
36252SOL    HW214593   4.524   8.337   3.568  0.3098 -0.3784  0.5744
36253SOL     OW14594   0.993   6.396  10.563  0.2551  0.4119 -0.6305
36253SOL    HW114595   1.032   6.475  10.524 -4.3688  3.1952 -0.3115
36253SOL    HW214596   0.901   6.398  10.535 -1.2793 -2.2125  3.3532
36254SOL     OW14597  10.640   2.012   8.932  0.2717 -0.5010 -0.2720
36254SOL    HW114598  10.732   2.033   8.915  0.0662 -0.3818 -1.3313
36254SOL    HW214599  10.638   1.917   8.934  0.3948 -0.5066 -0.3770
36255SOL     OW14600   0.723   0.956   2.105 -0.0464  0.2791  0.3426
36255SOL    HW114601   0.790   0.898   2.141  1.2191  1.2752 -0.3333
36255SOL    HW214602   0.677   0.990   2.181 -1.9010 -2.7426  0.7453
36256SOL     OW14603  10.629   0.133   7.622  0.7757 -0.1544 -0.3429
36256SOL    HW114604  10.668   0.129   7.535  0.6036 -1.0330 -0.3861
36256SOL    HW214605  10.541   0.097   7.611  0.3494  0.7602 -0.0183
36257SOL     OW14606   6.740   3.361   2.666  0.7995 -0.8376  0.3358
36257SOL    HW114607   6.671   3.418   2.632 -0.1459 -1.5590  1.0047
36257SOL    HW214608   6.801   3.421   2.710 -0.6099 -0.3874  1.7753
36258SOL     OW14609   7.383   7.045   0.020 -0.3904 -0.0900 -0.3960
36258SOL    HW114610   7.429   7.064   0.102 -1.3233 -2.8286  0.8638
36258SOL    HW214611   7.349   7.129  -0.008 -0.3123  0.8996  2.2058
36259SOL     OW14612   0.529   1.644   1.048 -0.1963  0.3789  0.3086
36259SOL    HW114613   0.580   1.713   1.006 -1.5164  0.7640 -0.7451
36259SOL    HW214614   0.594   1.586   1.086  1.0653  0.5737 -1.4170
36260SOL     OW14615   0.542   2.910   1.773  0.3744 -0.2291  0.7188
36260SOL    HW114616   0.460   2.945   1.740  0.2817  0.2867  1.4670
36260SOL    HW214617   0.516   2.846   1.840  0.4987 -2.6154 -1.3400
36261SOL     OW14618   7.379   4.554   3.386  0.3103  0.4103  0.1652
36261SOL    HW114619   7.442   4.482   3.383 -2.4361 -2.2411 -2.1089
36261SOL    HW214620   7.387   4.597   3.301 -0.8168  0.0513 -0.1508
36262SOL     OW14621   1.300   7.454  10.749  0.2013 -0.5499 -0.0153
36262SOL    HW114622   1.391   7.432  10.766 -0.4490 -2.4130  1.3983
36262SOL    HW214623   1.301   7.547  10.724  2.3223 -0.1575  1.3132
36263SOL     OW14624   7.377   2.429   7.449  0.3051  0.2211  0.6375
36263SOL    HW114625   7.338   2.495   7.392 -0.1546 -1.7754 -1.4983
36263SOL    HW214626   7.302   2.376   7.479  0.8581 -0.5689  0.6485
36264SOL     OW14627   6.315   5.526   9.070 -0.2154 -0.6735  0.1234
36264SOL    HW114628   6.378   5.465   9.109  0.0751 -0.1182  0.5422
36264SOL    HW214629   6.360   5.610   9.071 -1.8917  0.3363  2.9925
36265SOL     OW14630   9.877   4.523   6.939  0.0231  0.0757 -0.1750
36265SOL    HW114631   9.913   4.610   6.956  0.0371  0.0219  0.0729
36265SOL    HW214632   9.791   4.541   6.901  0.2454  0.2018 -0.6237
36266SOL     OW14633   9.242   5.360   6.772 -0.1695  0.3634  0.2391
36266SOL    HW114634   9.220   5.373   6.864 -0.8949 -3.1016  0.7063
36266SOL    HW214635   9.335   5.381   6.766  0.0007  0.2203  1.8782
36267SOL     OW14636   4.616   5.998   3.195 -0.2217  0.1840 -0.3142
36267SOL    HW114637   4.546   6.000   3.260  0.2790 -0.4621  0.2614
36267SOL    HW214638   4.634   6.090   3.177 -0.1980  0.3874  0.6669
36268SOL     OW14639   2.641   8.834   7.816  0.3452  0.2594 -0.4785
36268SOL    HW114640   2.680   8.886   7.887 -0.3394  0.8050 -0.4861
36268SOL    HW214641   2.701   8.760   7.805  0.4195  0.1028  0.7433
36269SOL     OW14642   2.535   5.897   4.416  0.0090  0.6262 -0.2802
36269SOL    HW114643   2.568   5.977   4.374 -1.5458  0.9969 -0.8716
36269SOL    HW214644   2.444   5.891   4.387  0.6212 -2.4736 -1.9427
36270SOL     OW14645  10.278  10.134   4.605  0.4369 -0.3395 -0.2691
36270SOL    HW114646  10.237  10.061   4.558  2.2581 -0.4698 -1.8085
36270SOL    HW214647  10.298  10.098   4.691 -2.7077 -0.1985  0.6296
36271SOL     OW14648   1.151   9.140  10.235 -0.0894 -0.1472  0.0813
36271SOL    HW114649   1.074   9.154  10.289 -1.8278 -4.0768 -1.0348
36271SOL    HW214650   1.210   9.088  10.290  0.3635  0.0908 -0.1686
36272SOL     OW14651   2.374   4.158   2.778 -0.7647  0.2992 -0.5563
36272SOL    HW114652   2.337   4.138   2.864  3.3869  1.3359  1.7368
36272SOL    HW214653   2.390   4.253   2.780  1.2001  0.0391 -1.6395
36273SOL     OW14654   0.393   3.551   3.710  0.2323 -0.1372 -0.8828
36273SOL    HW114655   0.342   3.599   3.774  0.7711  1.6092 -1.7113
36273SOL    HW214656   0.331   3.531   3.640 -0.1022 -1.1204 -0.3339
36274SOL     OW14657   3.970   4.129   2.400 -0.4174  0.3086 -0.2822
36274SOL    HW114658   4.045   4.102   2.453  0.0826  1.5344 -0.3250
36274SOL    HW214659   3.894   4.105   2.452  0.0482  0.6708  0.5921
36275SOL     OW14660   9.020   1.807   0.092  0.1819 -0.3709 -0.2203
36275SOL    HW114661   9.084   1.760   0.146 -0.7386 -1.0243  0.3307
36275SOL    HW214662   8.983   1.873   0.152  0.1438 -0.1747 -0.4598
36276SOL     OW14663  10.775   8.155   4.916 -0.6947 -0.4569  0.5752
36276SOL    HW114664  10.732   8.112   4.989 -0.8819 -0.8422  0.2445
36276SOL    HW214665  10.845   8.095   4.891  0.0228  0.1515  1.0901
36277SOL     OW14666   9.746   1.032   7.146  0.1425  0.2838 -0.1678
36277SOL    HW114667   9.779   1.086   7.218 -1.3827  0.6045  0.3351
36277SOL    HW214668   9.748   1.090   7.070 -0.6495  0.7802  0.1803
36278SOL     OW14669  10.724   0.574   6.579  0.1150  0.1742 -0.0120
36278SOL    HW114670  10.701   0.626   6.502 -2.6585  1.9194  1.7930
36278SOL    HW214671  10.819   0.582   6.586  0.0680  3.0228 -1.2144
36279SOL     OW14672  10.023   4.922   4.006  0.4233 -0.4776 -0.0762
36279SOL    HW114673  10.000   4.849   4.062 -0.6028  0.6459  1.0305
36279SOL    HW214674   9.951   4.927   3.942  0.3738 -0.3086 -0.0090
36280SOL     OW14675  10.044   6.259   1.434 -0.5529  0.2239  0.0780
36280SOL    HW114676  10.089   6.184   1.473  0.3369  0.9302  0.4656
36280SOL    HW214677   9.989   6.222   1.366 -1.9245 -1.0397  1.7789
36281SOL     OW14678   6.486   5.973   7.313 -0.1092 -0.3639 -0.2268
36281SOL    HW114679   6.455   5.905   7.253 -1.6566 -0.2159  0.3525
36281SOL    HW214680   6.410   6.029   7.326  0.5548  0.2966  0.9183
36282SOL     OW14681   7.627   5.736   8.504  0.2206  0.0790 -0.0415
36282SOL    HW114682   7.575   5.790   8.445 -0.7309 -0.9510 -0.1914
36282SOL    HW214683   7.705   5.713   8.453  0.2891  0.7182 -0.2235
36283SOL     OW14684   2.389   8.847   0.946 -0.1072  0.3331  0.3613
36283SOL    HW114685   2.367   8.756   0.963 -1.9008  0.4609 -0.9903
36283SOL    HW214686   2.366   8.893   1.027 -2.3971  0.0261 -0.0322
36284SOL     OW14687   7.533   6.286   9.088 -0.6233 -0.1399 -0.2925
36284SOL    HW114688   7.564   6.209   9.137  0.8935 -0.4347 -1.6418
36284SOL    HW214689   7.438   6.275   9.085 -0.6247 -0.8848  1.2680
36285SOL     OW14690   4.288   4.841   4.834 -0.2537 -0.3178  0.1106
36285SOL    HW114691   4.280   4.859   4.740  2.4963 -0.7090 -0.2816
36285SOL    HW214692   4.247   4.917   4.876 -0.3203  0.5392 -1.4148
36286SOL     OW14693   8.256   5.743   5.048 -0.4713 -0.4223 -0.2581
36286SOL    HW114694   8.351   5.733   5.045 -0.4281 -0.0479 -0.1419
36286SOL    HW214695   8.241   5.837   5.038 -0.7397 -0.2222  1.6378
36287SOL     OW14696   0.973   5.114   2.246  0.1334 -0.1101 -0.1359
36287SOL    HW114697   1.066   5.097   2.258 -0.0360 -0.9001  0.0965
36287SOL    HW214698   0.947   5.163   2.324  0.6290  1.2899 -0.8205
36288SOL     OW14699   8.060   5.176   8.782 -0.1630  0.3556 -0.2691
36288SOL    HW114700   7.980   5.229   8.792 -1.3197 -1.5742  1.6446
36288SOL    HW214701   8.124   5.218   8.839 -1.3945 -0.7696  2.0695
36289SOL     OW14702  10.770   3.898   0.448  0.3957  0.3303 -0.2343
36289SOL    HW114703  10.703   3.962   0.423 -1.1955 -0.4290  1.7678
36289SOL    HW214704  10.830   3.947   0.504  0.6350  0.6649 -0.7839
36290SOL     OW14705   6.987   0.023   9.736 -1.0909 -0.1711 -0.1395
36290SOL    HW114706   6.924   0.089   9.765 -0.2428 -0.0263  1.5297
36290SOL    HW214707   7.032  -0.003   9.817  0.4384 -0.8224 -1.1672
36291SOL     OW14708   3.487   3.924   4.002  0.1280  0.0259 -0.5125
36291SOL    HW114709   3.475   3.860   3.932  4.6676 -0.4802 -1.1873
36291SOL    HW214710   3.460   4.007   3.963 -2.4313 -0.9019 -0.8841
36292SOL     OW14711   6.812   3.135   2.524 -0.5250 -0.1639 -0.8425
36292SOL    HW114712   6.825   3.061   2.584  0.3017  0.1926 -0.5673
36292SOL    HW214713   6.774   3.204   2.578  1.2981  0.5666 -0.4011
36293SOL     OW14714   2.654   9.074   4.514 -0.2743 -0.9411  0.2144
36293SOL    HW114715   2.686   9.088   4.425  0.2785  0.1395  0.5722
36293SOL    HW214716   2.706   9.001   4.547  1.0528  0.0637  0.3919
36294SOL     OW14717   3.982   5.433   8.026  0.4276  0.4760 -0.0657
36294SOL    HW114718   4.061   5.476   8.060  0.0553 -0.4660  2.1962
36294SOL    HW214719   4.005   5.340   8.024 -0.5451  0.2119  0.4358
36295SOL     OW14720   4.746   9.007  10.237  0.4461 -0.1412 -0.6608
36295SOL    HW114721   4.780   9.096  10.225 -3.7371  1.6442 -0.9012
36295SOL    HW214722   4.731   9.000  10.332 -0.0404 -0.2116 -0.7396
36296SOL     OW14723   4.802  10.302   0.385 -0.5334  0.4009 -0.1080
36296SOL    HW114724   4.715  10.327   0.415 -1.2165  1.4148 -2.6158
36296SOL    HW214725   4.788  10.264   0.298  1.3584 -1.3415  0.2697
36297SOL     OW14726   9.617   9.659   7.983 -0.3193 -0.3169  0.3702
36297SOL    HW114727   9.558   9.626   7.915 -1.4550  1.1715  0.5918
36297SOL    HW214728   9.560   9.710   8.042  1.2945  1.8802  0.1269
36298SOL     OW14729   4.455   8.061   0.459  0.5278 -0.5207 -0.1426
36298SOL    HW114730   4.535   8.092   0.500  0.8002 -1.4099  0.0052
36298SOL    HW214731   4.457   7.966   0.469 -0.2297 -0.6101 -0.7033
36299SOL     OW14732   0.376   5.095   6.683  0.5236 -0.1572 -0.0413
36299SOL    HW114733   0.314   5.027   6.656  0.0466  0.1506  0.2459
36299SOL    HW214734   0.462   5.062   6.656  0.3808 -1.1747  0.6800
36300SOL     OW14735   4.728   1.842   6.817  0.6232 -0.4913 -0.2249
36300SOL    HW114736   4.650   1.881   6.854 -0.4880  0.1728 -3.0007
36300SOL    HW214737   4.778   1.811   6.892 -2.0017 -0.4076  1.6726
36301SOL     OW14738   9.770   8.165   5.323 -0.5025  0.1371  0.4685
36301SOL    HW114739   9.772   8.082   5.371  1.7834  1.6289  3.2740
36301SOL    HW214740   9.686   8.205   5.346  0.4887  0.7609  3.3704
36302SOL     OW14741   3.086   3.766   4.141  0.0153 -0.4481  0.3181
36302SOL    HW114742   3.086   3.671   4.125  1.7101 -0.1948 -1.5324
36302SOL    HW214743   3.171   3.784   4.181 -0.3036  0.3040  0.6751
36303SOL     OW14744   1.834   0.535   9.739  0.1576  0.2414  1.0777
36303SOL    HW114745   1.768   0.561   9.675  0.0039  0.0304  1.1505
36303SOL    HW214746   1.801   0.568   9.822 -1.2195 -2.1537  1.5828
36304SOL     OW14747   1.943  10.473   2.864 -0.2917 -0.4004  0.2554
36304SOL    HW114748   2.023  10.525   2.870 -0.3075 -0.5053  1.5333
36304SOL    HW214749   1.953  10.422   2.783  1.7000 -1.6483  1.2235
36305SOL     OW14750  10.621   2.029   3.029 -0.2047 -0.2207 -0.3035
36305SOL    HW114751  10.556   1.962   3.049  0.1919 -1.0679 -1.6750
36305SOL    HW214752  10.700   2.001   3.075 -0.2433 -0.2953 -0.2828
36306SOL     OW14753  10.438   8.252   9.942  0.2467  0.3284  0.1675
36306SOL    HW114754  10.439   8.302  10.023  0.5498 -0.3298  0.5805
36306SOL    HW214755  10.418   8.163   9.969  2.3592 -0.3345 -0.2054
36307SOL     OW14756   7.352   0.095   7.129  0.4082 -0.0179  0.5370
36307SOL    HW114757   7.373   0.085   7.036 -0.0814 -0.7513  0.4911
36307SOL    HW214758   7.437   0.113   7.171  0.9792 -1.7270  0.2072
36308SOL     OW14759   4.485   7.126   9.791 -0.6643 -0.2169  0.6452
36308SOL    HW114760   4.474   7.034   9.816  1.2527 -0.5001  0.5875
36308SOL    HW214761   4.547   7.161   9.855 -0.3958  0.6827 -0.0916
36309SOL     OW14762   3.820   4.854   1.226  0.1278  0.7096  0.0820
36309SOL    HW114763   3.888   4.823   1.286 -0.7326  0.2369  0.8408
36309SOL    HW214764   3.809   4.783   1.164  1.5227  1.4851 -1.1139
36310SOL     OW14765   3.136   3.720  10.855  0.0211 -0.1428  0.0792
36310SOL    HW114766   3.068   3.710  10.789 -1.5636 -1.0575  1.7588
36310SOL    HW214767   3.214   3.680  10.817 -0.2513  1.1420 -1.9845
36311SOL     OW14768  10.785   1.228   0.532 -0.3829  0.0674 -0.0512
36311SOL    HW114769  10.760   1.264   0.446  1.7434 -3.2344 -2.3008
36311SOL    HW214770  10.716   1.164   0.551  0.8001 -1.5836 -1.0681
36312SOL     OW14771   9.882   2.933   3.102  0.0570 -0.0532 -0.5214
36312SOL    HW114772   9.789   2.942   3.122  0.3600  1.8274  0.3121
36312SOL    HW214773   9.899   2.839   3.108 -1.7246 -0.4096 -0.4674
36313SOL     OW14774  10.204   6.955   1.005  0.1638  0.2581  0.5665
36313SOL    HW114775  10.203   6.925   0.915 -1.5233  0.9916  0.2999
36313SOL    HW214776  10.112   6.957   1.031  0.6557 -0.8313  2.6272
36314SOL     OW14777   8.510   6.303   4.622 -0.3811 -0.5208 -0.2106
36314SOL    HW114778   8.547   6.300   4.711 -1.9570  0.8629  0.5420
36314SOL    HW214779   8.502   6.396   4.602 -1.5279 -0.8032 -1.1709
36315SOL     OW14780   8.596   5.032   7.895 -0.2409  0.1496 -0.2974
36315SOL    HW114781   8.648   5.103   7.858  2.2796 -0.9742  0.8502
36315SOL    HW214782   8.649   4.953   7.881 -1.8024 -1.1245  0.6231
36316SOL     OW14783  10.875   4.734   5.939 -1.0732 -0.2228  0.0799
36316SOL    HW114784  10.814   4.662   5.956  1.9233 -2.4202  2.9980
36316SOL    HW214785  10.892   4.772   6.025  2.3447 -0.4880 -0.3141
36317SOL     OW14786  10.086   2.974   3.808  0.6479 -0.0559 -0.1363
36317SOL    HW114787  10.089   3.010   3.720 -1.1068  1.3718  0.3306
36317SOL    HW214788  10.037   2.893   3.800  1.1180 -0.3002 -0.5720
36318SOL     OW14789   5.248   3.728   2.066 -0.1480 -1.3211  0.1225
36318SOL    HW114790   5.297   3.763   1.991 -0.8693 -0.9326 -0.1808
36318SOL    HW214791   5.283   3.775   2.141  0.3041 -1.4216 -0.0233
36319SOL     OW14792  10.795   7.037  10.425 -0.0624 -1.0311  0.5768
36319SOL    HW114793  10.817   7.081  10.343 -0.2571 -0.9890  0.5468
36319SOL    HW214794  10.726   7.091  10.463  1.4240  0.1439  1.7845
36320SOL     OW14795  10.344   4.979   8.018  0.5494 -0.3231  0.4005
36320SOL    HW114796  10.376   4.890   8.031 -0.1299 -0.7676 -0.8225
36320SOL    HW214797  10.310   5.005   8.103 -0.4074 -1.7176  0.4827
36321SOL     OW14798   3.017   4.775   9.456 -0.5086 -0.6343  0.8920
36321SOL    HW114799   2.937   4.754   9.503 -2.3781 -0.4478 -1.9546
36321SOL    HW214800   2.989   4.832   9.384  2.4801  1.0295  0.8563
36322SOL     OW14801   2.738   9.049   8.009  0.1186  0.4907 -0.1902
36322SOL    HW114802   2.753   8.983   8.077  1.1462  1.8016  0.9172
36322SOL    HW214803   2.684   9.115   8.052  0.4797  1.1664 -0.7625
36323SOL     OW14804   0.117   0.935   9.865  0.1217  0.2036  0.0681
36323SOL    HW114805   0.192   0.912   9.809 -2.0547  0.5252 -3.2409
36323SOL    HW214806   0.145   1.015   9.911  2.3112 -0.5417  0.1631
36324SOL     OW14807   6.020   9.107   2.755 -0.2525  0.1219 -0.0181
36324SOL    HW114808   5.990   9.187   2.712 -1.3937 -0.4351 -0.3109
36324SOL    HW214809   6.063   9.057   2.685 -0.4185  0.0445 -0.0641
36325SOL     OW14810   9.884   9.406   2.325  0.2826  0.0308  0.6351
36325SOL    HW114811   9.885   9.367   2.412  0.3548  0.8474  1.0051
36325SOL    HW214812   9.837   9.488   2.336 -0.4367 -0.2476 -0.2680
36326SOL     OW14813  10.485   7.530   7.208 -0.0059  0.1122 -0.7687
36326SOL    HW114814  10.553   7.481   7.253  0.1499 -0.0898 -1.2251
36326SOL    HW214815  10.419   7.465   7.183 -0.0763  0.2163 -0.8608
36327SOL     OW14816   2.820   3.641   5.957 -0.1785 -0.0279 -0.5125
36327SOL    HW114817   2.765   3.617   6.031 -2.5494 -0.2740 -2.2224
36327SOL    HW214818   2.771   3.613   5.880  2.8720 -1.2366 -2.2039
36328SOL     OW14819   4.945   0.199   7.770 -0.2403  0.0382  0.1381
36328SOL    HW114820   5.027   0.208   7.722 -0.9390  2.8706 -0.7496
36328SOL    HW214821   4.903   0.121   7.732  1.3505 -0.5830 -0.4169
36329SOL     OW14822   9.025   0.690   8.089 -0.3866 -0.0458  0.0101
36329SOL    HW114823   9.007   0.624   8.023 -0.9170 -0.0008  0.1082
36329SOL    HW214824   8.947   0.745   8.091 -0.6035 -0.3566  1.0425
36330SOL     OW14825   5.754   8.630   4.811  0.0206 -0.0369  0.1774
36330SOL    HW114826   5.735   8.688   4.884 -0.8434 -0.3006  0.1796
36330SOL    HW214827   5.782   8.689   4.740 -1.5296  0.4918 -0.0494
36331SOL     OW14828   0.147  10.345   6.033 -0.1149 -0.3354  0.2066
36331SOL    HW114829   0.100  10.316   5.955 -0.2238  1.6906 -0.5404
36331SOL    HW214830   0.105  10.298   6.105 -1.9151 -0.1707 -0.6628
36332SOL     OW14831   4.633   0.395   0.202 -0.0093 -0.4116 -0.2896
36332SOL    HW114832   4.613   0.399   0.295  0.4778  1.1015 -0.2157
36332SOL    HW214833   4.698   0.325   0.194  1.7050  0.9725  0.8845
36333SOL     OW14834   9.059   3.187   7.874  0.2233 -0.0725  0.1296
36333SOL    HW114835   9.060   3.261   7.813  0.0955 -0.0361  0.1708
36333SOL    HW214836   9.043   3.228   7.959 -0.1124 -0.1739  0.1164
36334SOL     OW14837   3.537   2.991   9.704 -0.3710 -0.3065 -0.3711
36334SOL    HW114838   3.489   2.910   9.686 -2.6886  1.3227 -2.0442
36334SOL    HW214839   3.614   2.986   9.648  0.8689 -2.3455  1.3393
36335SOL     OW14840   2.950   3.100  10.798 -0.5443 -0.4515 -0.5075
36335SOL    HW114841   2.958   3.129  10.889 -0.9915 -0.5974 -0.4180
36335SOL    HW214842   2.890   3.025  10.803 -1.5849  0.3149 -1.0773
36336SOL     OW14843   2.799  10.205   4.563  0.2127  0.1732 -0.6615
36336SOL    HW114844   2.742  10.243   4.497 -1.5695 -0.6414  0.3352
36336SOL    HW214845   2.770  10.244   4.645 -0.0090 -1.4319  0.0600
36337SOL     OW14846   2.663   2.960   4.666 -0.0163  0.5973 -0.4924
36337SOL    HW114847   2.570   2.942   4.681  0.1657  0.1113  0.0717
36337SOL    HW214848   2.670   3.055   4.675 -0.4584  0.6373 -0.5304
36338SOL     OW14849   6.158   4.415   9.012 -0.2008  0.3087 -0.0195
36338SOL    HW114850   6.162   4.355   8.938 -2.2472  0.4531 -0.3297
36338SOL    HW214851   6.235   4.471   9.002  0.6620 -0.9876 -0.8517
36339SOL     OW14852   3.090   4.775   5.386 -0.5693  0.1543  0.4914
36339SOL    HW114853   3.110   4.688   5.421  0.9536  0.3421  0.1361
36339SOL    HW214854   3.080   4.760   5.292  0.3154  0.4509  0.3438
36340SOL     OW14855   2.808   9.992   9.565  0.0127 -0.5363 -0.6968
36340SOL    HW114856   2.797  10.082   9.536 -1.6781 -0.8181 -1.0422
36340SOL    HW214857   2.783   9.939   9.490 -4.2104 -1.2705  0.9601
36341SOL     OW14858   7.099   6.912   7.647 -0.2937 -0.1478  0.6647
36341SOL    HW114859   7.129   6.834   7.692  0.4477 -1.9462 -2.6198
36341SOL    HW214860   7.009   6.893   7.621 -0.0566  0.0010 -0.3016
36342SOL     OW14861   7.437   1.767   9.870 -0.6812 -0.6051  0.3121
36342SOL    HW114862   7.511   1.828   9.868 -1.4414  0.3687  0.8526
36342SOL    HW214863   7.469   1.688   9.826  0.0761  0.4774 -1.1621
36343SOL     OW14864   4.538   2.935  10.528 -0.5395 -0.2686  0.2110
36343SOL    HW114865   4.457   2.943  10.478 -0.9350  2.4499  1.1230
36343SOL    HW214866   4.525   2.858  10.583 -2.4254 -0.0216  0.1754
36344SOL     OW14867   1.931   2.590   3.247 -0.6146  0.0281  1.1137
36344SOL    HW114868   1.978   2.645   3.309 -0.0012 -1.8500  2.3639
36344SOL    HW214869   1.847   2.573   3.289  0.1545 -2.0144  1.9313
36345SOL     OW14870   2.121   0.388   4.273  0.2843 -0.4782  0.6605
36345SOL    HW114871   2.105   0.334   4.351 -0.5744 -1.1536  0.0433
36345SOL    HW214872   2.042   0.442   4.266  0.3945 -0.3645  0.3115
36346SOL     OW14873   2.750   0.297   4.123  0.1110 -0.4087 -0.3189
36346SOL    HW114874   2.812   0.369   4.113 -0.0570 -0.0458  1.0600
36346SOL    HW214875   2.739   0.287   4.218 -2.3501 -0.0943 -0.5090
36347SOL     OW14876   2.244   8.571   4.124  0.0373 -0.0711  0.1688
36347SOL    HW114877   2.334   8.591   4.149 -0.2747  0.7691  0.6461
36347SOL    HW214878   2.205   8.533   4.203  0.6088 -2.6576 -0.7058
36348SOL     OW14879   3.002  10.824   2.140  0.3691  0.3200  0.3133
36348SOL    HW114880   3.007  10.795   2.231  2.0570 -0.2166  0.0837
36348SOL    HW214881   3.059  10.901   2.136 -1.3112  1.6329  0.1252
36349SOL     OW14882   8.045   4.945   2.902  0.3322 -0.0526 -0.9937
36349SOL    HW114883   8.078   4.999   2.974 -1.3898  0.8676 -0.8515
36349SOL    HW214884   8.123   4.923   2.851  1.7100 -1.2878  1.4751
36350SOL     OW14885   1.361   4.992   1.557 -0.4468 -0.0793 -0.4318
36350SOL    HW114886   1.410   4.921   1.515 -2.2968 -2.0167  0.4846
36350SOL    HW214887   1.398   4.997   1.646 -0.9687 -0.6320 -0.1718
36351SOL     OW14888   0.048   7.769   6.150 -0.2669  0.0586  0.4845
36351SOL    HW114889   0.101   7.714   6.208  1.8760  0.5237 -0.9456
36351SOL    HW214890   0.044   7.854   6.194 -1.5423 -0.5041  1.5288
36352SOL     OW14891   2.112   6.939   1.019  0.5928  0.5695 -0.0981
36352SOL    HW114892   2.094   6.999   0.946  0.3831  1.2873  0.5256
36352SOL    HW214893   2.135   6.997   1.092  0.6879 -0.1327  0.4419
36353SOL     OW14894   8.084   6.280   1.973  0.7371  0.8148 -0.2531
36353SOL    HW114895   8.061   6.234   1.892  0.9901  0.9618 -0.4104
36353SOL    HW214896   8.029   6.358   1.972  0.2761  0.4955  0.0350
36354SOL     OW14897   2.270   5.707   9.195  0.7204 -0.0735  0.3752
36354SOL    HW114898   2.296   5.624   9.155  0.2563  0.2539 -0.6359
36354SOL    HW214899   2.205   5.682   9.262  1.4440 -0.6169  0.8922
36355SOL     OW14900   2.611   0.122   0.602  0.3006 -0.3629 -0.3614
36355SOL    HW114901   2.664   0.182   0.655 -0.6165 -0.5981  0.8815
36355SOL    HW214902   2.655   0.037   0.611  1.8381  0.1398 -2.4643
36356SOL     OW14903   8.628   3.071  10.373  0.3443 -0.4018 -0.0838
36356SOL    HW114904   8.655   3.076  10.281  0.4932  0.5994  0.0034
36356SOL    HW214905   8.587   3.155  10.391 -0.2597 -0.8307  0.5968
36357SOL     OW14906   2.190  10.659   1.614  0.2609 -0.1259  0.0181
36357SOL    HW114907   2.251  10.593   1.649  2.0578  0.8456 -1.1436
36357SOL    HW214908   2.237  10.699   1.541 -1.6805  0.9017 -0.7393
36358SOL     OW14909   6.638   7.540   8.202 -0.0060  0.6259  0.8813
36358SOL    HW114910   6.696   7.544   8.278  0.3870 -0.3848  0.6592
36358SOL    HW214911   6.551   7.556   8.238  0.1351 -0.1449  1.6117
36359SOL     OW14912   6.833  10.518   4.841 -0.7267  0.4372 -0.9451
36359SOL    HW114913   6.767  10.558   4.898  0.9513 -0.5758  1.8851
36359SOL    HW214914   6.801  10.429   4.825  1.1936 -1.2405  3.1385
36360SOL     OW14915   9.818   6.718   0.477  0.0916  0.1926  0.0221
36360SOL    HW114916   9.825   6.703   0.383  0.5531 -0.4400  0.1497
36360SOL    HW214917   9.809   6.630   0.514  0.7940  0.3737  0.6389
36361SOL     OW14918   2.901   8.785   5.582 -0.4942  0.2099  0.0328
36361SOL    HW114919   2.836   8.855   5.574 -0.7719 -0.1056 -0.5201
36361SOL    HW214920   2.906   8.767   5.676 -2.2649 -0.7440 -0.0209
36362SOL     OW14921   3.603   3.172   4.090 -0.1177 -0.1235 -0.0098
36362SOL    HW114922   3.687   3.126   4.094 -0.2519 -0.3150  0.9099
36362SOL    HW214923   3.573   3.176   4.181 -0.3516  1.3520 -0.1176
36363SOL     OW14924   1.449   0.876   3.946 -0.1071 -0.9555  0.0822
36363SOL    HW114925   1.490   0.797   3.979 -0.2274 -1.6770 -1.4215
36363SOL    HW214926   1.454   0.868   3.851  1.2347  1.5448 -0.1476
36364SOL     OW14927   6.951   6.569   6.860  0.3084  0.4368  0.7447
36364SOL    HW114928   6.905   6.607   6.935 -2.8122 -0.8470 -0.3659
36364SOL    HW214929   6.963   6.477   6.884 -0.6889  0.0204 -0.2451
36365SOL     OW14930   0.308   6.849   4.910 -0.2784 -0.5818 -0.1194
36365SOL    HW114931   0.378   6.879   4.852 -0.4261 -0.4287 -0.2188
36365SOL    HW214932   0.232   6.899   4.884 -0.1512  0.1053  0.7601
36366SOL     OW14933   4.775  10.874   2.124 -0.6051  0.2568  0.3884
36366SOL    HW114934   4.772  10.841   2.213 -0.6997 -0.6202  0.0656
36366SOL    HW214935   4.857  10.839   2.088 -1.4441 -0.9287 -0.4409
36367SOL     OW14936   1.892   9.028   5.818  0.3087 -0.0697  0.3378
36367SOL    HW114937   1.920   9.119   5.807  0.5137 -0.2202 -0.4716
36367SOL    HW214938   1.974   8.980   5.829  0.1724 -0.0964  1.3359
36368SOL     OW14939   4.554   8.688   6.867 -0.1402 -0.5436 -0.3769
36368SOL    HW114940   4.598   8.629   6.928 -0.5609 -0.4589  0.0165
36368SOL    HW214941   4.621   8.750   6.841  0.0586 -0.6126 -0.0347
36369SOL     OW14942   3.462   4.362   0.364 -0.4760 -0.3809 -0.0339
36369SOL    HW114943   3.501   4.426   0.422 -1.5317 -0.3426  0.6608
36369SOL    HW214944   3.509   4.372   0.281  1.0870 -0.4812  0.8064
36370SOL     OW14945   9.961   4.023   2.609  0.2895  0.0480  0.1263
36370SOL    HW114946   9.889   4.066   2.563 -0.0683 -1.7530 -1.0966
36370SOL    HW214947   9.935   4.023   2.701 -0.4065  1.0247 -0.0635
36371SOL     OW14948   8.190   3.840   2.321 -0.3745 -0.1902 -0.8988
36371SOL    HW114949   8.245   3.916   2.300 -1.2368  0.4895 -0.7415
36371SOL    HW214950   8.153   3.860   2.407 -0.1420 -1.0668 -0.5899
36372SOL     OW14951   5.323   7.346   3.870 -0.8773 -0.1820  0.0648
36372SOL    HW114952   5.376   7.267   3.863 -0.5137 -0.0210  0.8743
36372SOL    HW214953   5.285   7.342   3.957 -0.7808  0.5744  0.1550
36373SOL     OW14954   8.616   1.833   6.393  0.1802 -0.2631 -0.6400
36373SOL    HW114955   8.674   1.880   6.333  0.4818  1.5535  0.9868
36373SOL    HW214956   8.528   1.854   6.363  0.3018  1.6448  0.2185
36374SOL     OW14957   0.244   2.322   0.230 -0.3473 -0.0514  0.2964
36374SOL    HW114958   0.169   2.368   0.269 -0.0166  0.2179  0.6177
36374SOL    HW214959   0.208   2.280   0.152 -0.7321  0.4641  0.1907
36375SOL     OW14960   3.018   0.955  10.318 -0.0329  0.0369 -0.1182
36375SOL    HW114961   2.934   0.934  10.277 -1.1830  0.2444  1.9669
36375SOL    HW214962   3.012   1.048  10.338 -0.8697 -0.6132  3.2043
36376SOL     OW14963   8.798   3.454   8.575  0.3759  0.0350  0.7227
36376SOL    HW114964   8.820   3.362   8.560  0.6890  0.3266 -0.8564
36376SOL    HW214965   8.868   3.502   8.531 -0.9062  1.0016 -0.3312
36377SOL     OW14966   5.768   0.286   5.444  0.1449  0.4512  0.3982
36377SOL    HW114967   5.724   0.335   5.374  0.9181  1.0738  0.3321
36377SOL    HW214968   5.847   0.251   5.402 -0.9796 -1.9242  0.1097
36378SOL     OW14969   6.202   4.047   1.329  0.0966 -0.4071 -0.4351
36378SOL    HW114970   6.232   4.041   1.238  0.0389  0.4739 -0.5212
36378SOL    HW214971   6.195   4.141   1.346 -2.0574 -0.5488 -0.2341
36379SOL     OW14972  10.145   4.581   3.485  0.1745  0.3142 -0.4554
36379SOL    HW114973  10.126   4.661   3.533 -1.4138  0.1104 -0.6950
36379SOL    HW214974  10.211   4.607   3.421  0.6434  1.1162  0.3302
36380SOL     OW14975   4.299   6.504   6.280  0.4430  0.8814 -0.1996
36380SOL    HW114976   4.257   6.579   6.323 -0.6108 -0.4883  1.3116
36380SOL    HW214977   4.226   6.452   6.247  1.0391 -0.2946  0.2551
36381SOL     OW14978   9.387   2.989   4.539  0.8973 -0.0578  0.2655
36381SOL    HW114979   9.395   2.894   4.531  0.7734  0.0723 -1.7314
36381SOL    HW214980   9.420   3.024   4.457  0.6185  1.6284  0.8200
36382SOL     OW14981   0.172   7.078   7.617  0.1637  0.8867 -0.2386
36382SOL    HW114982   0.133   7.160   7.587  0.3562  2.1587  2.6063
36382SOL    HW214983   0.223   7.103   7.694  2.8124 -1.4536 -1.0382
36383SOL     OW14984   0.403   5.266   7.621 -0.3285 -0.4630  0.4425
36383SOL    HW114985   0.452   5.201   7.670  0.1933  0.1814  0.7808
36383SOL    HW214986   0.357   5.215   7.554 -0.2641 -1.2267  0.9645
36384SOL     OW14987   2.994   4.290   5.252  0.0071  0.7452  0.2024
36384SOL    HW114988   2.910   4.245   5.248  0.0340  0.6923  0.2418
36384SOL    HW214989   3.059   4.222   5.239  0.0979  0.5822  1.4168
36385SOL     OW14990   0.462   6.783   3.370 -0.5341 -0.1373 -0.4365
36385SOL    HW114991   0.367   6.787   3.363 -0.7900 -2.0035  1.0085
36385SOL    HW214992   0.486   6.704   3.320  0.4781  1.2050 -2.1726
36386SOL     OW14993  10.453  10.168   9.950  0.3737 -0.6619  0.2921
36386SOL    HW114994  10.403  10.094   9.914  0.6531 -1.8067  2.1529
36386SOL    HW214995  10.479  10.219   9.873 -1.9112 -1.1346 -0.8767
36387SOL     OW14996   8.002   6.665   6.482 -0.4389  0.4686 -0.1921
36387SOL    HW114997   8.016   6.740   6.424 -0.7642  0.7648  0.1085
36387SOL    HW214998   7.916   6.680   6.522 -0.6141 -0.1818 -0.3020
36388SOL     OW14999   9.289  10.003   7.175  0.3069 -0.4459  0.3384
36388SOL    HW115000   9.351  10.074   7.157  0.4957 -1.0120 -1.5084
36388SOL    HW215001   9.344   9.931   7.206  0.7074 -1.0821 -1.6825
36389SOL     OW15002   0.500   4.448   5.107  0.6983  0.0872  0.1754
36389SOL    HW115003   0.532   4.357   5.104  1.2485  0.2951 -1.7331
36389SOL    HW215004   0.538   4.489   5.029 -1.1606  1.4221 -0.0883
36390SOL     OW15005   9.494   2.482   2.928  0.7807  0.4961 -0.1441
36390SOL    HW115006   9.429   2.501   2.996  0.3744 -0.3156 -0.3018
36390SOL    HW215007   9.442   2.469   2.848  1.1321 -0.2903 -0.2460
36391SOL     OW15008   8.665   6.096   6.272 -0.2063 -0.6583 -0.4651
36391SOL    HW115009   8.703   6.011   6.295  1.3099 -0.6947 -2.7173
36391SOL    HW215010   8.596   6.074   6.209 -0.2653 -0.2629 -0.5348
36392SOL     OW15011   1.044  10.906   1.515  0.2989  0.3602  0.0537
36392SOL    HW115012   1.112  10.964   1.548 -0.6558  0.7661  1.3820
36392SOL    HW215013   0.974  10.965   1.485  0.6294 -0.0373 -1.6083
36393SOL     OW15014   8.942   9.626   8.317 -0.0822  0.1374  0.2207
36393SOL    HW115015   8.886   9.560   8.277  1.5482 -0.8009 -0.6363
36393SOL    HW215016   8.898   9.709   8.301 -2.0094 -0.6904  1.0085
36394SOL     OW15017   1.549   4.590   4.127  0.2894 -0.1563 -0.1862
36394SOL    HW115018   1.553   4.511   4.181  0.1167  0.4765  0.7784
36394SOL    HW215019   1.581   4.660   4.184 -0.3476  0.6100 -0.7375
36395SOL     OW15020   0.704   6.160   6.491  0.4565 -0.3239  0.1145
36395SOL    HW115021   0.726   6.236   6.545  1.4275 -0.4626 -0.0761
36395SOL    HW215022   0.730   6.085   6.544  1.4272 -0.4610 -0.5355
36396SOL     OW15023   2.280   9.437   7.245  0.2867 -0.3827 -0.3193
36396SOL    HW115024   2.291   9.368   7.310  0.7234 -0.7876 -0.8123
36396SOL    HW215025   2.204   9.410   7.193 -0.7064  0.4657  0.6653
36397SOL     OW15026   1.840   8.509  10.812  0.1615 -1.0017 -0.7616
36397SOL    HW115027   1.862   8.601  10.802  1.8046 -1.2261  0.3726
36397SOL    HW215028   1.911   8.461  10.769 -0.3857 -1.7469 -0.8724
36398SOL     OW15029   9.738   3.675  10.371  0.1438  0.4158  0.4778
36398SOL    HW115030   9.660   3.636  10.333  0.5117  0.5141 -0.4180
36398SOL    HW215031   9.811   3.637  10.321  0.6559  0.4483  1.1822
36399SOL     OW15032   8.436   2.879   3.430  0.3611  0.1981 -0.1505
36399SOL    HW115033   8.468   2.792   3.453 -2.7438 -0.6077  1.7258
36399SOL    HW215034   8.479   2.938   3.492  0.8060 -0.3150  0.0340
36400SOL     OW15035   6.600   2.604   3.426 -0.2859  0.1262 -0.7406
36400SOL    HW115036   6.598   2.543   3.499 -0.5700 -0.0993 -0.9348
36400SOL    HW215037   6.686   2.646   3.432 -0.3126  0.1178 -0.2743
36401SOL     OW15038   5.271   6.868   3.185  0.1290  0.3879  0.1259
36401SOL    HW115039   5.190   6.917   3.176 -1.5755 -2.5534 -2.7853
36401SOL    HW215040   5.332   6.910   3.124  0.1910  1.4306  0.8826
36402SOL     OW15041   2.085  10.356   6.352  0.1900  0.8515 -0.3246
36402SOL    HW115042   2.095  10.270   6.394 -0.0265  0.6901 -0.5923
36402SOL    HW215043   2.097  10.338   6.258 -0.3503  1.0258 -0.4315
36403SOL     OW15044   5.071   7.230   1.241  0.5062  0.3768 -0.5900
36403SOL    HW115045   5.150   7.281   1.221  0.2415  1.1390  0.2414
36403SOL    HW215046   5.103   7.141   1.256  0.7459 -0.2780 -4.1588
36404SOL     OW15047   7.870   0.364   4.037  0.0221  0.3015  0.7556
36404SOL    HW115048   7.900   0.389   3.950  0.1905  1.7040  1.1876
36404SOL    HW215049   7.792   0.311   4.021 -0.6964  1.5825 -0.2464
36405SOL     OW15050   7.303   3.982   2.818  0.6074 -0.2569  0.0783
36405SOL    HW115051   7.333   4.071   2.798 -0.9955 -0.0850 -1.7888
36405SOL    HW215052   7.291   3.941   2.732 -4.0097 -0.4153  0.5595
36406SOL     OW15053   6.799   4.741   9.659 -0.0026 -0.2521  0.1182
36406SOL    HW115054   6.831   4.735   9.749  0.6287 -1.2293 -0.1450
36406SOL    HW215055   6.810   4.833   9.635 -1.0183  0.2077  1.3187
36407SOL     OW15056   4.725   0.205   4.321 -0.0061  0.1534  0.0128
36407SOL    HW115057   4.740   0.174   4.232  2.6161 -0.6283  0.6153
36407SOL    HW215058   4.631   0.197   4.335 -0.3127 -0.8233 -2.2799
36408SOL     OW15059   1.318   6.092   2.826 -0.6642  0.4502  0.2351
36408SOL    HW115060   1.297   6.027   2.893  2.7524 -1.1892 -0.1024
36408SOL    HW215061   1.268   6.170   2.853 -2.6569 -1.3826  2.2722
36409SOL     OW15062   2.612  10.446   0.641 -0.1356  0.2247 -0.0958
36409SOL    HW115063   2.540  10.405   0.689  0.5693 -0.8829  0.0619
36409SOL    HW215064   2.616  10.398   0.558  1.1565 -0.5725  0.3800
36410SOL     OW15065   5.789   9.367  10.092 -0.5185 -0.1052  0.2888
36410SOL    HW115066   5.725   9.353  10.023  1.4735 -0.9388 -1.5227
36410SOL    HW215067   5.817   9.458  10.083 -0.7408 -0.0190  0.4563
36411SOL     OW15068   7.369   2.589   5.443 -0.4318  0.4575  0.0433
36411SOL    HW115069   7.384   2.683   5.446  3.0803  0.0082  2.0400
36411SOL    HW215070   7.351   2.564   5.533  0.7642 -0.9936 -0.0753
36412SOL     OW15071   3.973   2.716   9.154  0.2930  0.3421  0.0273
36412SOL    HW115072   4.046   2.669   9.114 -0.1309  0.6838 -1.2079
36412SOL    HW215073   3.986   2.807   9.128 -0.9062  0.3088 -0.7828
36413SOL     OW15074   0.077   0.312   1.514 -0.4354 -0.2600 -0.3166
36413SOL    HW115075   0.166   0.304   1.547  0.0650  0.7188 -1.3538
36413SOL    HW215076   0.021   0.287   1.588  0.6721 -0.0504  0.6174
36414SOL     OW15077   6.836   4.806   4.754  0.4973 -0.5688  0.1147
36414SOL    HW115078   6.742   4.795   4.744  0.3374  0.5588  0.1951
36414SOL    HW215079   6.846   4.853   4.837  0.7703  3.2854 -1.8762
36415SOL     OW15080  10.231   1.621   3.422  0.2574 -0.0334 -0.1660
36415SOL    HW115081  10.267   1.532   3.417 -0.3804 -0.3200  0.2046
36415SOL    HW215082  10.259   1.654   3.507  0.6826  0.2054 -0.3986
36416SOL     OW15083   4.423   5.469   7.182 -0.1456 -0.7014  0.2752
36416SOL    HW115084   4.387   5.407   7.120  0.4275 -1.2826  0.5097
36416SOL    HW215085   4.456   5.415   7.254  1.0140 -0.1938  0.1492
36417SOL     OW15086   9.796   8.474   7.841  0.0709 -0.5378 -0.1475
36417SOL    HW115087   9.828   8.464   7.751  1.4319  1.8186 -0.0148
36417SOL    HW215088   9.868   8.443   7.896 -0.5253 -1.4097  0.1696
36418SOL     OW15089   8.198   3.671   1.247 -0.0246 -0.3499  0.1997
36418SOL    HW115090   8.242   3.619   1.314  1.3519 -0.7495 -0.9828
36418SOL    HW215091   8.247   3.753   1.244 -0.4208 -0.1131  0.0401
36419SOL     OW15092   2.075   5.590   8.963 -0.5630  0.4014 -0.4206
36419SOL    HW115093   2.022   5.553   9.034 -1.1564  0.7045 -0.6982
36419SOL    HW215094   2.070   5.685   8.977 -0.1844  0.4395 -0.5219
36420SOL     OW15095   1.358   3.233   2.212  0.4872 -0.0490  0.6816
36420SOL    HW115096   1.328   3.228   2.121  0.8317  0.3682  0.5413
36420SOL    HW215097   1.430   3.296   2.210  0.2828  0.2129  1.3066
36421SOL     OW15098   5.936  10.900   1.417  0.2881 -0.2749  0.2137
36421SOL    HW115099   6.011  10.959   1.410 -0.5078  0.5889 -2.5502
36421SOL    HW215100   5.963  10.821   1.369 -0.5176  0.0516 -0.8189
36422SOL     OW15101   9.490   1.056   8.931 -0.5212  0.0626  0.5776
36422SOL    HW115102   9.513   1.057   8.838 -0.3810 -0.4238  0.6093
36422SOL    HW215103   9.496   0.965   8.957 -2.0266 -0.0337  0.7001
36423SOL     OW15104   3.631   1.365   1.757  0.0138  0.0126 -0.0142
36423SOL    HW115105   3.711   1.312   1.763  0.1941  0.3309  0.4371
36423SOL    HW215106   3.564   1.304   1.724  0.7454  0.0760 -1.7278
36424SOL     OW15107   7.107   5.251   9.356 -0.1205  0.2072 -0.0961
36424SOL    HW115108   7.184   5.304   9.375  0.4868 -0.9633  0.7592
36424SOL    HW215109   7.134   5.195   9.283 -0.6397  0.7745 -0.7417
36425SOL     OW15110   3.409   0.925   7.534  0.3849 -0.4825  0.1171
36425SOL    HW115111   3.392   0.947   7.442  1.4221  1.2173  0.2960
36425SOL    HW215112   3.386   1.004   7.582  0.6788 -1.0595  1.2403
36426SOL     OW15113   9.082   6.925   5.720 -0.1905 -0.1192  0.0267
36426SOL    HW115114   9.031   7.001   5.691 -1.4164 -0.3367  1.4767
36426SOL    HW215115   9.036   6.850   5.681  0.7889 -0.1750 -1.0783
36427SOL     OW15116   5.777   5.899   3.105 -0.3326  0.1484  0.6247
36427SOL    HW115117   5.833   5.822   3.106 -0.7126 -0.1306  0.5263
36427SOL    HW215118   5.689   5.866   3.124 -0.7858  0.3284 -0.9846
36428SOL     OW15119   8.978   2.096   7.594 -0.4945  0.5450 -0.1137
36428SOL    HW115120   8.930   2.179   7.590  0.8037  1.5573  2.8591
36428SOL    HW215121   8.911   2.030   7.612 -1.1134  1.5686  1.4879
36429SOL     OW15122   7.005   5.488   4.124 -0.5363 -0.0348  0.4839
36429SOL    HW115123   7.020   5.399   4.156 -0.0773  0.4737  1.7238
36429SOL    HW215124   7.071   5.500   4.056 -1.9110 -1.3400 -1.1656
36430SOL     OW15125   4.279   0.265   5.282 -0.1530  0.2799  0.1999
36430SOL    HW115126   4.231   0.183   5.276  0.1511  0.1576 -0.6143
36430SOL    HW215127   4.358   0.252   5.230  1.0952  0.2710  1.9919
36431SOL     OW15128   1.580   3.199   5.453 -0.8571 -0.0890 -0.2682
36431SOL    HW115129   1.662   3.220   5.409 -0.9908 -1.8201 -1.4684
36431SOL    HW215130   1.515   3.195   5.383 -2.0308  1.3886  0.6836
36432SOL     OW15131   4.241   8.139   9.891  0.4757  0.2281 -0.5999
36432SOL    HW115132   4.179   8.153   9.963 -1.4469  0.5905 -2.2528
36432SOL    HW215133   4.321   8.183   9.920  0.4770 -1.3609  2.1701
36433SOL     OW15134   3.585   8.496   6.707 -0.0784  0.0315 -0.3281
36433SOL    HW115135   3.531   8.438   6.653 -2.0459 -0.1661  1.6928
36433SOL    HW215136   3.522   8.549   6.755  1.5879  0.7699  1.1482
36434SOL     OW15137   1.517  10.540   3.745 -0.1526  0.2729 -0.8372
36434SOL    HW115138   1.460  10.590   3.687 -2.8220 -1.6611 -0.0676
36434SOL    HW215139   1.511  10.585   3.829  0.3968  0.7227 -1.0356
36435SOL     OW15140   0.846  10.811  10.393  0.1785  0.3719 -0.0217
36435SOL    HW115141   0.774  10.858  10.435  0.3251  1.4764 -0.9329
36435SOL    HW215142   0.810  10.784  10.308  0.6051  0.2774 -0.1762
36436SOL     OW15143   8.562   6.309   3.690  0.3378  0.5270  0.6376
36436SOL    HW115144   8.610   6.264   3.621  0.5749 -0.6061  1.4957
36436SOL    HW215145   8.626   6.324   3.759 -0.3299 -0.3077  1.4776
36437SOL     OW15146   5.841   7.273   3.013 -0.1981  0.6599  0.2205
36437SOL    HW115147   5.774   7.241   2.952 -0.1982  0.6057  0.2490
36437SOL    HW215148   5.854   7.200   3.074  2.3238 -0.6812 -1.7450
36438SOL     OW15149   1.457   0.558   6.409 -0.2288 -0.1932  0.0726
36438SOL    HW115150   1.387   0.564   6.344 -0.4322  0.1680  0.3270
36438SOL    HW215151   1.487   0.648   6.421 -0.7870 -0.1350  1.1357
36439SOL     OW15152   9.530   1.036   3.959 -0.7271 -0.1665 -0.3317
36439SOL    HW115153   9.574   1.117   3.933 -0.9012  0.0186 -0.0446
36439SOL    HW215154   9.555   0.973   3.891  0.4192 -0.2130  0.1101
36440SOL     OW15155   6.728   4.444  10.390 -0.3800  0.0715 -0.1952
36440SOL    HW115156   6.808   4.486  10.424  0.9530 -0.4022 -2.5301
36440SOL    HW215157   6.673   4.517  10.362 -0.5649  0.3870  0.9252
36441SOL     OW15158   5.673   7.392   3.784 -0.1821 -0.2295  0.3475
36441SOL    HW115159   5.599   7.331   3.781  0.9198 -1.5870  0.0320
36441SOL    HW215160   5.745   7.345   3.744  1.0528  0.8317  1.2342
36442SOL     OW15161   9.487   5.617   3.500  0.3263 -0.6391 -0.0965
36442SOL    HW115162   9.543   5.670   3.442  0.0317 -0.9456 -0.6726
36442SOL    HW215163   9.535   5.536   3.512  1.4034  0.2120  1.8594
36443SOL     OW15164   1.884   7.919   1.812 -0.0103  0.2071 -0.2881
36443SOL    HW115165   1.854   7.859   1.880 -2.4017  0.4014 -1.1046
36443SOL    HW215166   1.900   7.863   1.736 -0.7759  0.4081 -0.6022
36444SOL     OW15167   9.445  10.816   6.786 -0.3028 -0.0259 -0.2701
36444SOL    HW115168   9.518  10.854   6.738  0.0312 -0.8740 -0.4519
36444SOL    HW215169   9.414  10.744   6.732 -0.7255 -0.2124  0.2024
36445SOL     OW15170   1.508   9.912   4.291 -0.4673  0.3349  0.3475
36445SOL    HW115171   1.521   9.823   4.256  1.3864  0.8327 -0.3702
36445SOL    HW215172   1.417   9.913   4.321 -0.2714 -2.1277  1.3230
36446SOL     OW15173   6.962   1.245   4.827  0.3652 -0.0837  0.0964
36446SOL    HW115174   6.876   1.285   4.833 -0.4679 -1.3847 -2.0611
36446SOL    HW215175   7.024   1.317   4.841 -1.0460  1.0765  0.5744
36447SOL     OW15176   2.683   5.995  10.808  0.0146  0.1942 -0.3904
36447SOL    HW115177   2.634   6.043  10.875  0.8831  2.2637 -1.1434
36447SOL    HW215178   2.773   6.027  10.817  0.8004 -1.8574 -0.5021
36448SOL     OW15179   8.403   9.567   4.505 -0.5973 -0.1937 -0.1785
36448SOL    HW115180   8.331   9.506   4.487  0.6437 -2.8634  2.8467
36448SOL    HW215181   8.360   9.649   4.528 -2.3879 -0.0909 -3.3422
36449SOL     OW15182   0.347   0.621   9.913  0.7671 -0.1107  0.0779
36449SOL    HW115183   0.337   0.531   9.943  1.2934  0.3870  1.8380
36449SOL    HW215184   0.267   0.639   9.863 -0.3626 -0.8691  1.5482
36450SOL     OW15185   9.224   2.307   1.339 -0.1367  0.0181  0.1462
36450SOL    HW115186   9.166   2.376   1.307  0.6834  1.1081  0.9716
36450SOL    HW215187   9.183   2.276   1.420  0.1814  0.4384  0.4649
36451SOL     OW15188   4.061   8.399   1.865 -0.7217  0.1235  0.0632
36451SOL    HW115189   4.085   8.389   1.957  1.0468 -2.4700 -0.5666
36451SOL    HW215190   3.994   8.333   1.851 -0.5921  0.1335 -0.6237
36452SOL     OW15191   4.198   2.885   7.321  0.5704 -0.1401 -0.5223
36452SOL    HW115192   4.110   2.906   7.288 -0.7655 -0.5180  2.4578
36452SOL    HW215193   4.251   2.962   7.300 -0.1901 -0.2119 -3.0623
36453SOL     OW15194   2.188   7.434   0.752 -0.0439  0.4028 -0.4185
36453SOL    HW115195   2.224   7.361   0.802 -1.6255 -0.0086  0.1890
36453SOL    HW215196   2.257   7.500   0.751  0.1083  0.3590  2.1639
36454SOL     OW15197   2.261   2.414  10.676 -0.4733  0.3418  0.3098
36454SOL    HW115198   2.281   2.347  10.742  0.2709  0.7043  0.4709
36454SOL    HW215199   2.346   2.437  10.639 -0.8630  0.2665 -0.6740
36455SOL     OW15200   5.049   6.101   8.533 -0.0991 -0.6454  0.0922
36455SOL    HW115201   5.046   6.127   8.625  0.9659  2.0594 -0.5358
36455SOL    HW215202   5.128   6.048   8.525  1.8320  1.9987  0.2134
36456SOL     OW15203   4.141   3.396   5.478  0.4844  0.0931  0.4189
36456SOL    HW115204   4.158   3.463   5.412  0.7286 -0.2541  0.1275
36456SOL    HW215205   4.061   3.354   5.449 -0.6749  1.4143  1.5403
36457SOL     OW15206   3.074   9.337   5.313 -0.1969 -0.1654  0.1448
36457SOL    HW115207   3.072   9.429   5.339  0.9528  0.2604 -1.1114
36457SOL    HW215208   3.021   9.334   5.233 -0.9850 -0.7819  0.6865
36458SOL     OW15209   9.665   6.457   5.066  0.1734 -0.0159 -0.0953
36458SOL    HW115210   9.604   6.528   5.085 -0.1975 -0.5338  0.7265
36458SOL    HW215211   9.648   6.435   4.974  0.2812  0.9358 -0.3530
36459SOL     OW15212  10.065   3.868   4.171  0.0758  0.5111 -0.1328
36459SOL    HW115213  10.132   3.922   4.213 -0.4432  1.0273  0.0522
36459SOL    HW215214  10.098   3.779   4.176  1.4296  0.9097 -1.3545
36460SOL     OW15215   6.916   9.498   9.700 -0.6087 -0.1015 -0.1913
36460SOL    HW115216   6.918   9.412   9.741  1.0122 -0.8630 -1.7247
36460SOL    HW215217   6.986   9.547   9.742 -0.3321 -0.1640 -0.5723
36461SOL     OW15218   7.909   8.703   6.759  0.1961 -0.9413 -0.0998
36461SOL    HW115219   7.867   8.637   6.814 -1.2759  0.3971  0.4518
36461SOL    HW215220   7.872   8.786   6.789 -0.4540 -0.1052 -2.9156
36462SOL     OW15221   2.449  10.230   2.201 -0.3020  0.2921  0.2592
36462SOL    HW115222   2.395  10.215   2.278 -1.7394  0.6745 -0.6273
36462SOL    HW215223   2.442  10.324   2.185 -0.5043  0.1291 -0.6608
36463SOL     OW15224   7.290   7.877   7.094  0.0583  0.4765 -0.3939
36463SOL    HW115225   7.351   7.848   7.162 -0.5285  0.7945  0.2768
36463SOL    HW215226   7.343   7.932   7.036  0.6709 -0.1729 -0.4650
36464SOL     OW15227   0.272   2.547   2.250 -0.2893  0.3388 -0.0802
36464SOL    HW115228   0.268   2.642   2.249 -0.9598  0.3145 -1.4531
36464SOL    HW215229   0.361   2.527   2.279  0.0263  1.3917 -0.3024
36465SOL     OW15230   2.594   7.152   1.975  0.2464 -0.0636  0.0968
36465SOL    HW115231   2.510   7.175   2.015 -0.5826 -1.8672 -0.5237
36465SOL    HW215232   2.656   7.151   2.048 -0.5920 -0.2589  0.8167
36466SOL     OW15233   4.390   1.633   8.491 -0.3103  0.2514 -0.2997
36466SOL    HW115234   4.305   1.628   8.447  0.0208  1.6647 -1.1443
36466SOL    HW215235   4.373   1.682   8.571 -1.1001 -3.0784  1.7753
36467SOL     OW15236   1.358  10.880   7.827 -0.2004 -0.2653  0.1266
36467SOL    HW115237   1.424  10.923   7.882 -1.7579  1.3334  0.8320
36467SOL    HW215238   1.331  10.947   7.764  0.1379 -1.4705 -1.3835
36468SOL     OW15239   4.877   7.320   0.458  0.1727  0.1169  0.2130
36468SOL    HW115240   4.801   7.344   0.405 -0.2688  1.7030  1.5019
36468SOL    HW215241   4.868   7.225   0.470 -0.8584  0.0682 -0.7853
36469SOL     OW15242   0.436   2.606   3.214  0.4846 -0.3102  0.3244
36469SOL    HW115243   0.350   2.582   3.181  0.8416 -0.0091 -0.8758
36469SOL    HW215244   0.423   2.692   3.255  0.6050  0.8637 -1.8980
36470SOL     OW15245   4.239   3.856   4.902  0.4662  0.5722 -0.9934
36470SOL    HW115246   4.252   3.930   4.962 -1.7356  0.0688  0.2000
36470SOL    HW215247   4.225   3.896   4.817 -1.8034  1.6524 -0.1761
36471SOL     OW15248   4.460   6.150   2.378 -0.4381 -0.1068 -0.0830
36471SOL    HW115249   4.415   6.073   2.343 -0.6460 -0.2381  0.4657
36471SOL    HW215250   4.514   6.115   2.449 -0.7060  0.2839  0.3161
36472SOL     OW15251   0.361   0.947   4.635  0.6320  0.2087  0.1305
36472SOL    HW115252   0.312   0.998   4.700 -1.7204 -1.7623  0.0621
36472SOL    HW215253   0.399   1.012   4.577 -0.9385  1.9211  0.9202
36473SOL     OW15254   0.863   0.756   0.831 -0.1525 -0.2853  0.7684
36473SOL    HW115255   0.841   0.780   0.741 -0.4139  0.1976  0.9560
36473SOL    HW215256   0.958   0.765   0.836 -0.1981  0.2484  0.6986
36474SOL     OW15257   5.670   6.179   6.417  0.1243  0.6245  0.5011
36474SOL    HW115258   5.720   6.097   6.424 -0.7397  0.1149  0.8094
36474SOL    HW215259   5.693   6.213   6.330 -0.1892 -0.4058 -0.0061
36475SOL     OW15260   5.659   8.370   0.903  0.0043  0.6156 -0.1561
36475SOL    HW115261   5.613   8.450   0.926  0.5623  1.0704 -0.5902
36475SOL    HW215262   5.746   8.399   0.875 -0.3092  0.0146 -1.8709
36476SOL     OW15263   8.633  10.275  10.664  0.6881 -1.0245  0.5374
36476SOL    HW115264   8.711  10.315  10.702  1.5133 -1.2534 -0.8472
36476SOL    HW215265   8.662  10.190  10.633  0.1049 -0.7926 -0.7259
36477SOL     OW15266   3.993   8.249   3.183  0.1557 -0.4904  0.6113
36477SOL    HW115267   3.950   8.222   3.264 -1.6276 -1.0113 -0.4328
36477SOL    HW215268   3.972   8.179   3.121 -3.0397  2.1976 -1.6970
36478SOL     OW15269   1.084  10.452   9.466  0.1703  0.1642 -0.0561
36478SOL    HW115270   1.018  10.478   9.402  0.1601 -1.9725 -0.9780
36478SOL    HW215271   1.145  10.526   9.468 -1.5079  1.6176 -0.1392
36479SOL     OW15272   1.955   7.249   2.659 -0.4880 -0.4836 -0.4922
36479SOL    HW115273   2.041   7.268   2.696 -0.9877 -0.2721  0.6094
36479SOL    HW215274   1.964   7.266   2.565  0.3236  0.7746 -0.1992
36480SOL     OW15275   5.495   7.984   5.029 -0.8738  0.4935 -0.1625
36480SOL    HW115276   5.410   7.940   5.043  0.1014 -1.1506  0.9430
36480SOL    HW215277   5.557   7.933   5.081  0.8303  1.6166 -1.0103
36481SOL     OW15278   5.772   2.261   8.781 -0.8501 -0.8143 -0.0362
36481SOL    HW115279   5.689   2.298   8.750 -0.1024  0.5817 -0.4804
36481SOL    HW215280   5.826   2.256   8.702 -0.0019 -0.2464  0.4999
36482SOL     OW15281   2.870   4.148  10.524  0.7315 -0.0044 -0.0279
36482SOL    HW115282   2.792   4.199  10.547  0.7416  0.7929 -1.6746
36482SOL    HW215283   2.848   4.059  10.552  0.1230  0.5856  1.5311
36483SOL     OW15284   0.570   6.091   6.890  0.5159 -0.1907 -0.0855
36483SOL    HW115285   0.495   6.147   6.866 -0.4316 -0.8269  1.2765
36483SOL    HW215286   0.628   6.149   6.940  0.8419  0.2451 -0.9461
36484SOL     OW15287   1.298   6.418  10.410  0.1279  0.0047  0.5758
36484SOL    HW115288   1.383   6.436  10.370 -0.6272 -0.5129 -1.3600
36484SOL    HW215289   1.261   6.504  10.429  1.0548  0.2330  1.4176
36485SOL     OW15290   8.445   8.518   5.196 -0.1609 -0.5948 -0.0947
36485SOL    HW115291   8.369   8.551   5.244  1.7097  1.3920  1.7037
36485SOL    HW215292   8.472   8.591   5.140  1.1357 -0.7866  0.2379
36486SOL     OW15293   6.331   1.347   9.907  0.2213  0.4015 -0.2911
36486SOL    HW115294   6.384   1.375   9.981 -0.1585  0.9788 -0.2347
36486SOL    HW215295   6.308   1.428   9.861 -0.3957  0.1415 -0.4559
36487SOL     OW15296   1.126   8.969   5.934  0.1681 -0.2340 -0.3637
36487SOL    HW115297   1.063   9.017   5.881 -0.7050 -0.0841  0.7860
36487SOL    HW215298   1.156   9.032   5.999 -0.0425 -0.8748  0.3667
36488SOL     OW15299   8.466   3.859   7.389 -0.1049  0.2498  0.0243
36488SOL    HW115300   8.376   3.831   7.379  0.2412 -1.3998  1.1025
36488SOL    HW215301   8.473   3.885   7.481  0.0252  2.4021 -0.5353
36489SOL     OW15302  10.879   0.675   8.392 -0.3040 -0.0400 -0.1716
36489SOL    HW115303  10.790   0.696   8.363 -0.9558 -1.6879  0.5350
36489SOL    HW215304  10.868   0.631   8.476  1.0172 -2.0209 -0.9626
36490SOL     OW15305   6.317   1.880   7.849 -0.2191 -0.7316 -0.1297
36490SOL    HW115306   6.232   1.838   7.856 -0.1587 -0.9366 -0.6247
36490SOL    HW215307   6.336   1.882   7.755 -0.4231  0.8023 -0.1703
36491SOL     OW15308   2.192   4.690   2.009 -0.4287 -0.2888  0.0999
36491SOL    HW115309   2.216   4.598   2.003 -0.6155 -0.2734 -1.3811
36491SOL    HW215310   2.252   4.734   1.949 -0.5987  0.4944  0.4921
36492SOL     OW15311   3.755   3.494   2.555  0.3830 -0.1942 -0.6543
36492SOL    HW115312   3.732   3.587   2.548  1.3766  0.0077 -1.4582
36492SOL    HW215313   3.741   3.473   2.647  1.5267  1.1538 -0.1318
36493SOL     OW15314   8.326   1.898   0.127  0.2226  0.0053  0.6051
36493SOL    HW115315   8.236   1.928   0.120  0.0092 -0.8635 -1.2483
36493SOL    HW215316   8.322   1.820   0.182 -0.2530 -0.3312  0.0985
36494SOL     OW15317   1.622   9.066   6.721 -0.9338  0.4864 -0.1781
36494SOL    HW115318   1.552   9.128   6.740 -0.9055  0.1273  1.1440
36494SOL    HW215319   1.601   9.033   6.633 -2.0922  0.8262 -0.0471
36495SOL     OW15320   3.648  10.178   5.744 -0.5791  0.0352  0.1502
36495SOL    HW115321   3.724  10.167   5.686 -1.2980  0.6075 -0.9334
36495SOL    HW215322   3.610  10.090   5.750  0.4572 -0.3764  1.1532
36496SOL     OW15323   0.360   8.153   7.562 -0.2928  0.3948  0.0951
36496SOL    HW115324   0.296   8.198   7.617  0.9210  0.6169  1.3710
36496SOL    HW215325   0.365   8.206   7.483 -0.1508  1.5473  0.8583
36497SOL     OW15326   9.011   1.536   9.163 -0.2863 -0.2024 -0.4565
36497SOL    HW115327   8.968   1.487   9.093  1.4013 -1.5084 -0.6388
36497SOL    HW215328   9.097   1.557   9.128  0.2419 -0.0641  0.8836
36498SOL     OW15329   9.840   4.285   5.474  0.3518 -0.2810 -0.5091
36498SOL    HW115330   9.784   4.362   5.484 -0.0175 -0.6752  0.6792
36498SOL    HW215331   9.903   4.309   5.406  0.5535  1.2488  0.1839
36499SOL     OW15332   0.153   7.877   7.514  0.0406 -0.0721 -0.2495
36499SOL    HW115333   0.203   7.862   7.594 -0.9432  2.3841  0.9253
36499SOL    HW215334   0.134   7.971   7.514 -3.7365 -0.6672 -1.0760
36500SOL     OW15335   6.410   2.424   0.151  0.1494 -0.1495  0.3901
36500SOL    HW115336   6.422   2.519   0.155 -1.9240  0.1256  1.2018
36500SOL    HW215337   6.480   2.394   0.092  1.5816  1.7051  1.0263
36501SOL     OW15338   9.861   1.884   4.891 -0.3461 -0.6528  0.3023
36501SOL    HW115339   9.841   1.790   4.892 -0.0784 -0.7134  0.0071
36501SOL    HW215340   9.825   1.915   4.809  1.2946 -0.8881 -0.5578
36502SOL     OW15341   4.629   0.760   2.075 -0.3827  0.1158  0.0147
36502SOL    HW115342   4.674   0.839   2.046  0.9502 -0.5597  0.1431
36502SOL    HW215343   4.582   0.729   1.997 -0.3403  0.6468 -0.2269
36503SOL     OW15344   9.721   3.035   1.458 -0.0725 -0.0726  0.1490
36503SOL    HW115345   9.678   3.119   1.473 -0.8032 -0.2298 -0.9126
36503SOL    HW215346   9.649   2.974   1.441  0.5298 -0.5234 -0.8808
36504SOL     OW15347   8.039   8.190   7.856 -0.2600 -0.0299  0.3139
36504SOL    HW115348   8.121   8.213   7.899  0.1561 -1.9735  0.6635
36504SOL    HW215349   8.065   8.159   7.769 -0.7239  0.2555  0.0681
36505SOL     OW15350   7.911   7.901  10.008 -0.0032  0.3051  0.0552
36505SOL    HW115351   7.912   7.968  10.076  0.1244  1.2009 -0.8189
36505SOL    HW215352   7.982   7.841  10.033  0.6361  1.1190  0.2282
36506SOL     OW15353  10.512   4.267   2.411  0.2636 -0.7354  0.0086
36506SOL    HW115354  10.498   4.172   2.411 -0.7723 -0.6133 -1.6180
36506SOL    HW215355  10.555   4.284   2.494  0.4815 -2.6348  0.3395
36507SOL     OW15356   3.236   5.972   7.226 -0.1818  0.1408 -0.0680
36507SOL    HW115357   3.161   5.951   7.282  0.2476  0.6164  0.7013
36507SOL    HW215358   3.198   5.992   7.141 -0.8675 -0.3335  0.1181
36508SOL     OW15359   5.870   0.888   6.066  0.6117  0.2963 -0.0052
36508SOL    HW115360   5.929   0.870   5.993 -0.7608  0.2761 -1.1689
36508SOL    HW215361   5.851   0.982   6.059  0.7040  0.3558  0.5156
36509SOL     OW15362   9.664   7.471   6.827  0.3393  0.3301 -0.2603
36509SOL    HW115363   9.689   7.389   6.784  0.1950 -0.4761  1.1320
36509SOL    HW215364   9.739   7.495   6.880  0.2559  0.9359 -0.4063
36510SOL     OW15365  10.137   7.251   5.156 -0.1269 -0.1863 -0.0916
36510SOL    HW115366  10.143   7.340   5.123 -0.3658 -1.1454 -2.9521
36510SOL    HW215367  10.062   7.213   5.112  1.7098 -2.6836 -1.3559
36511SOL     OW15368   2.353   3.799   4.523  0.5359 -0.2486  0.1844
36511SOL    HW115369   2.345   3.884   4.566 -2.0475  0.4589 -1.4974
36511SOL    HW215370   2.326   3.735   4.589 -0.2295  0.5118  0.6248
36512SOL     OW15371   8.620   2.965  10.643 -0.0912 -0.2984  0.3028
36512SOL    HW115372   8.531   2.931  10.653 -1.4303  2.4266 -1.2207
36512SOL    HW215373   8.620   3.007  10.557  2.2792  0.8158  0.7746
36513SOL     OW15374   8.422   0.739   5.418 -0.0053  0.1865 -0.0783
36513SOL    HW115375   8.364   0.811   5.442  0.0636  1.2710 -2.8474
36513SOL    HW215376   8.374   0.689   5.352  1.2035 -0.4007 -0.5480
36514SOL     OW15377   7.101   3.045   3.633  0.1882 -0.6482  0.3341
36514SOL    HW115378   7.170   3.013   3.691  0.4224 -0.5154  0.1314
36514SOL    HW215379   7.024   3.055   3.690  1.0293  1.7531  1.1691
36515SOL     OW15380   4.283   6.252   9.679 -0.2571 -0.5243  0.2027
36515SOL    HW115381   4.217   6.186   9.701  2.7277 -3.9598 -0.2628
36515SOL    HW215382   4.275   6.264   9.584 -0.1855 -0.9532  0.1434
36516SOL     OW15383   2.507   7.441   7.365  0.8162  0.0963  0.4315
36516SOL    HW115384   2.515   7.526   7.407 -1.4539  1.2567 -1.2883
36516SOL    HW215385   2.547   7.452   7.279 -0.8765 -0.0286 -0.4175
36517SOL     OW15386  10.569   1.039   9.302  0.6544  0.6446  0.7346
36517SOL    HW115387  10.548   1.103   9.234 -1.8839 -0.8270 -0.0110
36517SOL    HW215388  10.547   1.082   9.384 -1.6856  0.6081  0.2023
36518SOL     OW15389   2.989   1.858   4.623 -0.1125  0.1527  0.0337
36518SOL    HW115390   2.957   1.919   4.557  1.2447  0.3902 -0.4281
36518SOL    HW215391   3.051   1.908   4.675  0.5424 -0.6441  0.0460
36519SOL     OW15392   0.001   0.356   6.786  0.1410 -0.5806 -0.7236
36519SOL    HW115393   0.040   0.404   6.713  0.0152  0.9497  0.1814
36519SOL    HW215394   0.013   0.413   6.862  0.7255 -2.3470  0.5755
36520SOL     OW15395   3.628   6.497   4.354 -0.1943 -0.4225 -0.2416
36520SOL    HW115396   3.571   6.427   4.323  0.7684 -1.7589  0.8940
36520SOL    HW215397   3.622   6.565   4.287 -0.9893 -1.6771 -1.4788
36521SOL     OW15398   6.143  10.721   4.452 -0.1844 -0.1100  0.1891
36521SOL    HW115399   6.133  10.682   4.365  1.6515  1.8049 -0.9828
36521SOL    HW215400   6.059  10.763   4.469 -0.3642  0.0421 -0.9792
36522SOL     OW15401   0.148   2.908   8.295 -0.0973  0.3069 -0.0114
36522SOL    HW115402   0.174   2.939   8.381  0.0379 -0.9800  0.4403
36522SOL    HW215403   0.180   2.975   8.234  0.6041  0.7893  0.8660
36523SOL     OW15404   7.869   3.156   1.654  0.2877  0.0921  0.2491
36523SOL    HW115405   7.887   3.245   1.685  2.6350  0.2520 -1.3299
36523SOL    HW215406   7.952   3.110   1.667 -0.2678 -1.2738 -0.9148
36524SOL     OW15407   4.774   7.333   1.034 -0.7768  0.1341  0.1037
36524SOL    HW115408   4.830   7.261   1.064  0.4691  0.9959 -0.0983
36524SOL    HW215409   4.764   7.318   0.940  0.9225  1.1406 -0.2755
36525SOL     OW15410   3.053   0.128   5.546 -0.3943  0.2437 -0.1598
36525SOL    HW115411   3.108   0.175   5.608 -2.1235  0.1483  1.5584
36525SOL    HW215412   3.086   0.038   5.548  1.0580  0.7250 -1.2225
36526SOL     OW15413   4.558   3.793   0.588 -0.4623 -0.1334 -0.4430
36526SOL    HW115414   4.543   3.873   0.537  1.4785  1.0131  0.6177
36526SOL    HW215415   4.560   3.824   0.679  0.3758 -1.3706 -0.0174
36527SOL     OW15416  10.850   0.147   9.035 -0.4419  0.2464  0.0520
36527SOL    HW115417  10.889   0.060   9.033 -2.6014 -0.7875 -1.8593
36527SOL    HW215418  10.823   0.160   9.126 -0.5153 -1.2630  0.2566
36528SOL     OW15419   7.492   1.444   7.003 -0.4848 -0.5939  0.5760
36528SOL    HW115420   7.534   1.358   6.998 -1.9938 -1.3525  0.4981
36528SOL    HW215421   7.552   1.502   6.957  0.3862 -1.6663  0.3056
36529SOL     OW15422   2.053   0.664   1.832 -0.3553  0.4427 -0.3631
36529SOL    HW115423   2.059   0.578   1.874  0.5812 -1.3168 -3.7558
36529SOL    HW215424   1.978   0.658   1.774  0.2723  1.5670 -1.3377
36530SOL     OW15425   5.188   3.461   2.125 -0.0682 -0.4248  0.1488
36530SOL    HW115426   5.258   3.422   2.071  0.7953 -1.2780  1.8178
36530SOL    HW215427   5.185   3.553   2.096 -0.1067 -0.9881 -1.7971
36531SOL     OW15428   0.501   3.846   0.228 -0.8806  0.0255  0.5314
36531SOL    HW115429   0.476   3.904   0.157 -0.0256  0.9628  0.9727
36531SOL    HW215430   0.454   3.878   0.304  0.9610  1.3129  1.1858
36532SOL     OW15431   2.926   1.084   2.415  0.4791  0.5664 -0.1374
36532SOL    HW115432   2.964   1.005   2.454  1.3920  0.8668 -0.3870
36532SOL    HW215433   2.948   1.078   2.322  0.4816  1.0646 -0.1708
36533SOL     OW15434   4.622   5.401   8.293  0.2736 -0.5651 -0.1650
36533SOL    HW115435   4.712   5.412   8.263  0.0363 -1.2464 -1.1733
36533SOL    HW215436   4.572   5.464   8.241  0.1794 -0.0815  0.4988
36534SOL     OW15437   0.941   0.752   1.433 -0.0009 -0.3152  0.2911
36534SOL    HW115438   0.892   0.791   1.506 -0.3407 -1.1469  0.5311
36534SOL    HW215439   0.886   0.678   1.406  0.2548 -0.1678 -0.6414
36535SOL     OW15440   5.878   4.609   2.575 -0.6104 -0.6069  0.8328
36535SOL    HW115441   5.939   4.601   2.501 -0.8207 -0.4423  0.6405
36535SOL    HW215442   5.794   4.582   2.539 -0.7797 -0.2019  0.9236
36536SOL     OW15443  10.053   1.978   6.322 -0.0946 -0.1847  0.4120
36536SOL    HW115444  10.028   1.892   6.288 -0.4707  0.7965 -1.9847
36536SOL    HW215445  10.146   1.969   6.345 -0.2837 -1.3745  0.7624
36537SOL     OW15446   4.367   9.285   9.182 -0.6664  0.1661 -0.1306
36537SOL    HW115447   4.433   9.253   9.243  0.4423  3.2689  0.5245
36537SOL    HW215448   4.407   9.275   9.096 -0.1436  0.2217  0.1023
36538SOL     OW15449   8.479   2.669   8.381  0.5039 -0.7468 -0.3767
36538SOL    HW115450   8.458   2.654   8.473  0.0845 -0.2993 -0.3937
36538SOL    HW215451   8.574   2.675   8.378  0.5427 -1.1093 -0.0288
36539SOL     OW15452   5.556   8.411   5.709  0.3407 -0.2015 -0.6112
36539SOL    HW115453   5.504   8.491   5.714 -0.7924 -0.8407 -1.5148
36539SOL    HW215454   5.635   8.437   5.661 -0.0400  0.3636 -0.9476
36540SOL     OW15455   3.858   2.217   8.788  0.0010 -0.3497 -0.3663
36540SOL    HW115456   3.767   2.247   8.797 -0.1422 -0.8527 -0.0810
36540SOL    HW215457   3.881   2.237   8.698 -0.0812  0.6403 -0.1788
36541SOL     OW15458   0.459   0.724   8.933  0.0487 -0.5730 -0.7019
36541SOL    HW115459   0.394   0.794   8.925 -0.9243 -1.4134 -0.3729
36541SOL    HW215460   0.456   0.678   8.850  0.1127 -0.7132 -0.6269
36542SOL     OW15461   6.719   3.219   4.835  0.0186 -0.5640 -0.1164
36542SOL    HW115462   6.737   3.135   4.794 -0.0233  0.2906 -2.0214
36542SOL    HW215463   6.652   3.200   4.901 -0.2648 -1.9619 -0.7634
36543SOL     OW15464  10.226   0.844   6.716 -0.3254  0.3750  0.1337
36543SOL    HW115465  10.291   0.914   6.723  0.5148 -0.4574  0.9044
36543SOL    HW215466  10.273   0.772   6.674 -1.6703  0.8298 -2.3486
36544SOL     OW15467   5.015   4.405   7.008 -0.1544  0.0349 -0.4161
36544SOL    HW115468   4.989   4.479   6.952 -1.1986  0.1213  0.1668
36544SOL    HW215469   4.933   4.362   7.031  0.2339  0.0907  1.1863
36545SOL     OW15470   9.317   5.346   0.399  0.0175 -0.2544  0.0728
36545SOL    HW115471   9.261   5.318   0.472 -1.6886 -0.5500 -1.2728
36545SOL    HW215472   9.282   5.299   0.324  0.6288  1.3365 -1.2499
36546SOL     OW15473   2.411   1.142  10.578  0.3400  0.0710 -0.4905
36546SOL    HW115474   2.409   1.048  10.560 -1.1175  0.2721 -1.5940
36546SOL    HW215475   2.320   1.165  10.598  0.6378  1.2816 -0.4443
36547SOL     OW15476   0.695   1.822   1.473 -0.1456  0.0662  0.1618
36547SOL    HW115477   0.682   1.773   1.554  0.6491 -0.5835 -0.0803
36547SOL    HW215478   0.617   1.804   1.421  0.2210 -1.1217  0.0020
36548SOL     OW15479   1.690   8.196   4.770 -0.3488  0.3044  0.4883
36548SOL    HW115480   1.707   8.102   4.776  1.3681  0.5344 -0.0684
36548SOL    HW215481   1.654   8.220   4.855 -1.8568 -1.0267  0.2669
36549SOL     OW15482   5.591   2.606   3.638  0.2381  0.9215  0.1073
36549SOL    HW115483   5.662   2.606   3.703  1.3673  3.3078 -1.0056
36549SOL    HW215484   5.569   2.698   3.627 -2.0761  0.3383 -0.6752
36550SOL     OW15485   8.253  10.529   7.816 -0.2402 -0.1688 -0.2451
36550SOL    HW115486   8.204  10.527   7.734 -0.0099 -0.7589 -0.3742
36550SOL    HW215487   8.316  10.601   7.805 -1.0526  0.5835 -0.0839
36551SOL     OW15488  10.461   7.992   5.009 -0.3601  0.1795  0.4756
36551SOL    HW115489  10.412   7.955   5.083 -1.8531  3.5013  1.3458
36551SOL    HW215490  10.412   8.071   4.985  0.7636 -0.0684 -3.3318
36552SOL     OW15491   1.880   9.795   5.127  0.4877  0.3326 -0.2649
36552SOL    HW115492   1.805   9.753   5.083  2.1925 -0.4040 -2.7164
36552SOL    HW215493   1.907   9.732   5.193 -0.4358  0.1558 -0.0415
36553SOL     OW15494   2.826   5.477   9.261  0.3944 -0.0406  0.1582
36553SOL    HW115495   2.777   5.424   9.323 -1.1993  1.5189  0.3282
36553SOL    HW215496   2.844   5.418   9.188 -1.6522 -0.7545  0.1567
36554SOL     OW15497   3.518   9.579   4.585  0.2887 -0.1103 -0.3328
36554SOL    HW115498   3.543   9.588   4.677 -0.0736 -1.0210 -0.1355
36554SOL    HW215499   3.438   9.631   4.578 -0.8258 -1.6510  0.3803
36555SOL     OW15500   3.299   8.967   9.027 -0.1840  0.5112 -0.6923
36555SOL    HW115501   3.285   8.879   8.990 -1.0198 -0.2333  1.2848
36555SOL    HW215502   3.229   9.020   8.988 -1.1815 -0.3073 -0.0781
36556SOL     OW15503   5.919   7.467   5.534 -0.3156 -0.8455  0.4269
36556SOL    HW115504   5.950   7.548   5.494  3.3097 -1.7994  0.9568
36556SOL    HW215505   5.880   7.495   5.617 -2.3226  0.5617 -0.8817
36557SOL     OW15506   7.373   1.414   5.102 -0.4919  0.0444 -0.0401
36557SOL    HW115507   7.408   1.503   5.105 -0.4259  0.0018  2.5284
36557SOL    HW215508   7.448   1.360   5.075  0.4782  0.3846  1.8284
36558SOL     OW15509   9.864   3.579   0.973 -0.2882 -0.1210  0.1641
36558SOL    HW115510   9.893   3.492   1.001 -0.7189 -0.5052 -0.5394
36558SOL    HW215511   9.771   3.567   0.954 -0.5268  0.6797  0.7734
36559SOL     OW15512  10.268   0.475   4.868  0.0740  0.2873  0.6249
36559SOL    HW115513  10.310   0.509   4.947  0.5592  1.6085 -0.1800
36559SOL    HW215514  10.331   0.489   4.798 -0.8731  0.3713 -0.2426
36560SOL     OW15515   9.374   0.956   6.384  0.5930 -0.1492  0.1919
36560SOL    HW115516   9.301   0.969   6.445  1.2504  1.8647  0.6231
36560SOL    HW215517   9.341   0.893   6.320 -1.9164  1.4598 -0.2211
36561SOL     OW15518   2.604   4.443   5.406  0.0384  0.3961  0.2094
36561SOL    HW115519   2.690   4.473   5.436  0.7809 -0.5816 -0.8691
36561SOL    HW215520   2.551   4.443   5.485  0.9863  1.1158  0.8869
36562SOL     OW15521   4.893  10.875   0.970 -0.5452  0.9162 -0.0558
36562SOL    HW115522   4.867  10.967   0.971 -2.4692  0.4428  2.1697
36562SOL    HW215523   4.927  10.858   1.058  1.8425 -0.0368 -1.0672
36563SOL     OW15524   9.325   4.235   0.062  0.5598 -0.2176  0.1198
36563SOL    HW115525   9.243   4.227   0.111  1.2074  0.8564  1.4289
36563SOL    HW215526   9.308   4.305  -0.002 -0.0770 -1.1943 -0.8322
36564SOL     OW15527   6.196   8.612   6.839  0.3312 -0.2881 -0.4894
36564SOL    HW115528   6.153   8.696   6.853 -0.3225 -0.4742 -1.2996
36564SOL    HW215529   6.289   8.630   6.852  0.1047  0.3342  0.3132
36565SOL     OW15530   8.536  10.494  10.921 -0.0354 -0.0725  0.1492
36565SOL    HW115531   8.504  10.414  10.879 -1.0720 -0.9775  2.4808
36565SOL    HW215532   8.609  10.466  10.975 -1.2457  0.2306  2.0441
36566SOL     OW15533  10.411   2.495   1.853 -0.6332 -0.1798  0.2840
36566SOL    HW115534  10.474   2.425   1.869  0.0181  0.1247 -0.8506
36566SOL    HW215535  10.362   2.466   1.776 -1.0074  0.1818  0.3830
36567SOL     OW15536   7.337   3.222   7.049  0.1500 -0.1014  0.1775
36567SOL    HW115537   7.345   3.216   7.144 -0.2313  0.4232  0.2506
36567SOL    HW215538   7.426   3.215   7.017  0.1799 -1.4535  0.4949
36568SOL     OW15539   1.734   4.016   7.212 -0.1459 -0.5949 -0.3907
36568SOL    HW115540   1.661   3.961   7.237  0.5252 -1.8372 -1.0860
36568SOL    HW215541   1.710   4.051   7.126 -0.4967  0.0897 -0.0248
36569SOL     OW15542   5.267   4.480   3.880 -0.2011  0.4605 -0.1047
36569SOL    HW115543   5.343   4.503   3.933  0.7534 -1.4177 -0.5668
36569SOL    HW215544   5.304   4.461   3.793 -1.2580  0.0047 -0.4678
36570SOL     OW15545   5.078   7.674   4.808 -0.3958  0.0384  0.1531
36570SOL    HW115546   5.081   7.585   4.843 -0.2221  0.2043  0.5574
36570SOL    HW215547   4.997   7.711   4.842  0.1828  0.4837  1.0734
36571SOL     OW15548   2.038   2.905   5.295  0.4002 -0.2137 -0.1006
36571SOL    HW115549   2.035   2.849   5.373 -0.7554  0.8861  0.6904
36571SOL    HW215550   1.958   2.883   5.247 -1.2471  2.1972  1.3324
36572SOL     OW15551   3.973   3.998   2.661  0.4161  0.2423  0.3329
36572SOL    HW115552   3.976   3.908   2.693  2.1568 -0.1394 -0.7383
36572SOL    HW215553   3.953   4.051   2.738  0.5720 -0.9566  1.2268
36573SOL     OW15554   3.140  10.116   1.721 -0.0893  0.5276 -0.3213
36573SOL    HW115555   3.085  10.038   1.731 -1.2549  1.0715 -2.1412
36573SOL    HW215556   3.192  10.118   1.802  0.4670 -2.4825 -0.4679
36574SOL     OW15557   1.743   3.422   4.421 -0.2224  0.0233  0.1016
36574SOL    HW115558   1.715   3.331   4.418 -1.7828  0.4984 -0.7902
36574SOL    HW215559   1.805   3.431   4.349 -1.5930  0.1114 -1.1120
36575SOL     OW15560   0.633   6.629   8.536 -0.1255 -0.2991  0.4429
36575SOL    HW115561   0.690   6.704   8.520 -0.2686 -0.4087 -0.6789
36575SOL    HW215562   0.572   6.629   8.462  0.1624 -1.7836  0.1691
36576SOL     OW15563   2.086   0.712   2.553  0.0418  0.4901  0.2013
36576SOL    HW115564   2.074   0.769   2.629 -0.6334  1.3457 -0.5250
36576SOL    HW215565   2.169   0.739   2.515  0.7564 -0.4435  1.0294
36577SOL     OW15566   6.294   3.015   5.087  0.2511  0.5027  0.1825
36577SOL    HW115567   6.230   3.054   5.028 -0.0217  0.2538  0.3097
36577SOL    HW215568   6.241   2.971   5.154  0.5599  0.7886  0.6129
36578SOL     OW15569   5.276   9.378   2.632  0.9015 -0.4534  0.3491
36578SOL    HW115570   5.329   9.454   2.656  1.2257 -0.7260  0.5065
36578SOL    HW215571   5.317   9.345   2.552 -0.7716  1.0389 -1.1894
36579SOL     OW15572   3.786  10.685   2.324 -0.6877  0.0631 -0.0963
36579SOL    HW115573   3.721  10.755   2.318 -2.4564 -1.4124  0.7382
36579SOL    HW215574   3.818  10.690   2.414  1.3012  1.5064 -0.8131
36580SOL     OW15575   1.218   6.730   1.675  0.1889  0.0015  0.0103
36580SOL    HW115576   1.287   6.776   1.627 -0.2513 -0.2018 -0.8256
36580SOL    HW215577   1.254   6.719   1.763  0.1876  2.2449  0.3477
36581SOL     OW15578   0.128  10.623   7.407 -0.5408  0.0996 -0.3608
36581SOL    HW115579   0.069  10.548   7.402  0.3871 -0.7552  0.9316
36581SOL    HW215580   0.117  10.668   7.323 -0.3474 -2.0630 -1.6265
36582SOL     OW15581   6.663   0.825   3.709 -0.3290 -0.2297 -0.7133
36582SOL    HW115582   6.679   0.821   3.615 -0.7797 -0.2716 -0.7872
36582SOL    HW215583   6.751   0.825   3.748 -0.1502 -0.7108 -1.1110
36583SOL     OW15584   6.031   5.156   5.778 -0.2958 -0.2068  0.0686
36583SOL    HW115585   5.980   5.168   5.859  0.8349 -0.9699  0.9293
36583SOL    HW215586   5.977   5.097   5.725 -0.5223 -0.6513  0.7724
36584SOL     OW15587   6.907   4.524   7.310 -0.0686  0.5758  0.2095
36584SOL    HW115588   6.849   4.582   7.262 -0.0808  1.2001  0.9482
36584SOL    HW215589   6.991   4.571   7.315  0.5154 -0.3157 -0.8477
36585SOL     OW15590   3.283   7.923   1.901  0.1249 -0.1196  0.3584
36585SOL    HW115591   3.355   7.863   1.919 -0.0320 -0.7832 -1.1516
36585SOL    HW215592   3.259   7.907   1.810 -1.4252  0.6429  0.5915
36586SOL     OW15593   6.522   5.430   1.428  0.3808 -0.2390  0.0437
36586SOL    HW115594   6.509   5.374   1.504 -1.7451 -0.0937 -0.1420
36586SOL    HW215595   6.500   5.374   1.353 -0.1638  0.3509 -0.2524
36587SOL     OW15596   1.637   3.546   8.396 -0.4916  0.1101  0.0042
36587SOL    HW115597   1.545   3.524   8.407 -0.4774  0.5420  1.1281
36587SOL    HW215598   1.667   3.571   8.483  1.2270 -1.9938  0.0992
36588SOL     OW15599   6.694   3.163   7.773 -0.1548  0.1541 -0.2809
36588SOL    HW115600   6.684   3.238   7.832 -0.9514 -0.4552  0.3712
36588SOL    HW215601   6.637   3.184   7.699  0.0022  0.4090 -0.3345
36589SOL     OW15602   8.975   4.455   0.305 -0.3221 -0.2084 -0.1451
36589SOL    HW115603   8.896   4.469   0.253  0.4183  2.6270 -0.7024
36589SOL    HW215604   8.984   4.535   0.357  1.9979 -0.5806  0.1439
36590SOL     OW15605   2.894   1.161   6.003  0.3088  0.6294 -0.0920
36590SOL    HW115606   2.884   1.074   5.962  1.3479  0.3855  0.1460
36590SOL    HW215607   2.985   1.164   6.030 -0.3559  0.7229  2.3707
36591SOL     OW15608   6.487   1.008   3.080 -0.0238 -0.3651  0.0891
36591SOL    HW115609   6.410   1.065   3.072  1.0601  1.1752  0.3598
36591SOL    HW215610   6.463   0.946   3.149 -1.2310 -0.2516 -0.2013
36592SOL     OW15611   1.284   4.580   6.504  0.5021 -0.2011 -0.5244
36592SOL    HW115612   1.336   4.658   6.522  0.4341 -0.4389  0.7884
36592SOL    HW215613   1.337   4.508   6.539  0.7514 -0.8005 -2.0812
36593SOL     OW15614  10.570   2.055   3.939  0.2635  0.8846  0.9008
36593SOL    HW115615  10.528   2.133   3.904 -0.2379 -0.1796 -0.9917
36593SOL    HW215616  10.664   2.069   3.922  0.0047  0.1605 -1.5750
36594SOL     OW15617  10.811   9.449   1.745  0.1393 -0.3569  0.9466
36594SOL    HW115618  10.749   9.490   1.805  1.9081 -1.0482  3.3929
36594SOL    HW215619  10.799   9.355   1.757 -0.3246 -0.5709 -0.8052
36595SOL     OW15620   2.016   5.360   1.812  0.4485 -0.0023 -0.4669
36595SOL    HW115621   1.996   5.270   1.788  1.7679  0.1558 -2.3173
36595SOL    HW215622   1.974   5.413   1.744 -1.5659  0.9289  1.3867
36596SOL     OW15623   6.767   9.319   4.553  0.0076 -0.5247 -0.4635
36596SOL    HW115624   6.752   9.382   4.623 -0.4819 -1.1006 -0.0336
36596SOL    HW215625   6.791   9.238   4.598  2.2161 -0.2634 -1.0626
36597SOL     OW15626   4.308   5.464   2.075  0.6037 -0.0242  0.9493
36597SOL    HW115627   4.318   5.539   2.018  0.8077 -0.2437  0.6963
36597SOL    HW215628   4.397   5.431   2.089  0.3893 -1.2510 -0.3430
36598SOL     OW15629   3.275   3.583   8.256  0.2437  0.1974  0.0711
36598SOL    HW115630   3.192   3.629   8.256  0.2442  0.1993 -0.1694
36598SOL    HW215631   3.339   3.648   8.226  0.5643  0.6030  1.5318
36599SOL     OW15632   3.582   7.992  10.003  0.3689 -0.3903  0.0208
36599SOL    HW115633   3.504   7.996   9.948  0.8232  0.1295 -0.6093
36599SOL    HW215634   3.579   8.073  10.055  0.4654 -0.3868  0.0221
36600SOL     OW15635   5.319   3.343   1.474  0.0403  0.0625  0.1286
36600SOL    HW115636   5.343   3.252   1.492  0.3504  0.0009 -0.5513
36600SOL    HW215637   5.233   3.338   1.432  0.5579 -0.0279 -0.9810
36601SOL     OW15638   9.509   1.099   7.735  0.4459 -0.8681  0.2364
36601SOL    HW115639   9.463   1.180   7.713 -0.3650 -1.0644  1.1607
36601SOL    HW215640   9.582   1.127   7.790  0.8126 -0.6662 -0.3420
36602SOL     OW15641   0.460   7.616   1.061  0.0836 -0.5264 -0.0433
36602SOL    HW115642   0.449   7.689   1.123 -1.6710 -0.9053  0.1421
36602SOL    HW215643   0.512   7.551   1.109 -0.2168 -0.3064  0.5910
36603SOL     OW15644   3.781   8.825   4.807  0.6161 -0.4204 -0.0024
36603SOL    HW115645   3.790   8.920   4.816  0.7807 -0.4706  0.3695
36603SOL    HW215646   3.713   8.802   4.871 -1.0673 -0.2608 -1.6257
36604SOL     OW15647   4.206   6.226   2.464 -0.7680 -0.0377  0.1667
36604SOL    HW115648   4.275   6.183   2.413 -0.5106 -0.3266  0.7367
36604SOL    HW215649   4.253   6.285   2.522 -1.0696  0.4165 -0.0522
36605SOL     OW15650   1.405   1.875   0.175  0.0454 -0.2130 -0.1576
36605SOL    HW115651   1.386   1.936   0.246  0.8428  0.7785 -0.7522
36605SOL    HW215652   1.403   1.930   0.096  1.4751 -0.7985 -0.6356
36606SOL     OW15653   5.397   9.619   6.520 -0.6802 -0.1707 -0.0847
36606SOL    HW115654   5.329   9.552   6.518 -0.5893 -0.2715  0.1938
36606SOL    HW215655   5.388   9.660   6.606  0.1112 -0.7036  0.2593
36607SOL     OW15656   0.625   8.694   7.358 -0.0698 -0.2051 -0.2047
36607SOL    HW115657   0.645   8.757   7.427  0.2633 -0.6774  0.1374
36607SOL    HW215658   0.633   8.744   7.276  1.2548 -0.0654 -0.0066
36608SOL     OW15659   5.224   9.772   3.626  0.1624  0.1355  0.1202
36608SOL    HW115660   5.310   9.732   3.634 -0.7424 -1.5968  2.1991
36608SOL    HW215661   5.225   9.844   3.689  0.3933  0.7659 -0.5878
36609SOL     OW15662   7.541   8.019   8.339  0.1775 -0.3140 -0.0435
36609SOL    HW115663   7.567   7.939   8.293 -0.1993 -1.3726  1.5217
36609SOL    HW215664   7.446   8.023   8.329 -0.0149 -1.0075  1.2906
36610SOL     OW15665   4.372   4.772   8.024 -0.2644 -0.1540 -0.4507
36610SOL    HW115666   4.308   4.828   7.979  0.5629  0.1722 -1.2534
36610SOL    HW215667   4.411   4.829   8.091  0.2003  0.0895 -0.9179
36611SOL     OW15668  10.261   3.941   9.214  0.0649  0.5713 -0.0198
36611SOL    HW115669  10.293   3.998   9.284  0.2255  0.4249  0.0255
36611SOL    HW215670  10.190   3.991   9.173  0.6167  1.0850 -0.3820
36612SOL     OW15671   2.916   8.664   1.580 -0.3776  0.2026  0.0212
36612SOL    HW115672   3.011   8.653   1.585 -0.4684 -0.8501 -0.3004
36612SOL    HW215673   2.890   8.692   1.668  0.2378  0.6178  0.0757
36613SOL     OW15674   7.875   6.307   8.431  0.1375 -0.0361 -0.0031
36613SOL    HW115675   7.810   6.301   8.501 -0.4374  0.1923 -0.5057
36613SOL    HW215676   7.959   6.297   8.475 -0.2776 -1.7917  0.5001
36614SOL     OW15677   3.340   7.086   1.718 -0.0596 -0.4345  0.0791
36614SOL    HW115678   3.424   7.118   1.685  0.1315  0.9137  1.7249
36614SOL    HW215679   3.284   7.164   1.718 -1.2338 -1.2495 -0.6856
36615SOL     OW15680   5.575   0.444   8.465  0.3688  0.5592  0.0836
36615SOL    HW115681   5.626   0.363   8.469  1.4242  1.1443 -0.9153
36615SOL    HW215682   5.585   0.473   8.374 -0.4249  1.5387  0.3012
36616SOL     OW15683   7.519   5.041   0.015 -0.2334  0.3546 -0.4705
36616SOL    HW115684   7.511   4.991  -0.066 -2.2348 -0.3772  0.1036
36616SOL    HW215685   7.614   5.049   0.029  0.1705 -1.8142 -1.4942
36617SOL     OW15686   4.881   6.760   3.890  0.3167 -0.2310  0.2541
36617SOL    HW115687   4.895   6.828   3.824  0.2094  0.6739  1.1480
36617SOL    HW215688   4.962   6.710   3.891  0.3151 -0.2597 -0.5670
36618SOL     OW15689   5.032   2.376   9.299  0.1861 -0.5100  0.1964
36618SOL    HW115690   5.121   2.404   9.274 -0.5789  2.9103  0.8137
36618SOL    HW215691   5.035   2.373   9.395 -0.2375 -0.8554  0.1964
36619SOL     OW15692   6.108   4.265   1.608  0.1382  0.1191 -0.2903
36619SOL    HW115693   6.168   4.191   1.609  0.4777  0.3095 -2.2299
36619SOL    HW215694   6.112   4.298   1.518 -0.2847  2.2614  0.4049
36620SOL     OW15695   5.158   2.729   4.711  0.8689 -0.4061  0.5361
36620SOL    HW115696   5.201   2.766   4.634  1.9993 -3.1059 -0.2290
36620SOL    HW215697   5.119   2.805   4.756  1.8724  1.4709 -1.6030
36621SOL     OW15698  10.755   9.722   9.020 -0.3608 -0.3693  0.0798
36621SOL    HW115699  10.678   9.715   8.963 -1.9461 -1.2441  2.1721
36621SOL    HW215700  10.829   9.729   8.960 -1.9172 -1.2115 -2.0712
36622SOL     OW15701   2.391   8.687   9.868  0.1036  0.0882  0.0222
36622SOL    HW115702   2.330   8.761   9.859  0.5713  0.6546  1.2859
36622SOL    HW215703   2.352   8.617   9.815 -1.3511  0.6243  0.3426
36623SOL     OW15704   0.523   4.116   8.819  0.0011  0.1821  0.4367
36623SOL    HW115705   0.526   4.072   8.734 -0.0165 -0.4250  0.7475
36623SOL    HW215706   0.585   4.189   8.810 -1.2033  1.1198 -0.6310
36624SOL     OW15707   4.184   0.232   7.861 -0.2377  0.0030  0.0010
36624SOL    HW115708   4.171   0.235   7.766  1.7150  0.3136 -0.2992
36624SOL    HW215709   4.187   0.324   7.888  1.1996 -0.0118  0.0077
36625SOL     OW15710   3.695   0.461  10.265  0.0330 -0.3305  0.0075
36625SOL    HW115711   3.621   0.510  10.302 -0.3218  0.2458 -1.3973
36625SOL    HW215712   3.716   0.507  10.184  1.6824 -0.7404  0.1686
36626SOL     OW15713   5.228   8.299   3.937  0.1161 -0.0768 -0.0393
36626SOL    HW115714   5.150   8.292   3.882  0.1906 -1.5324  0.0097
36626SOL    HW215715   5.195   8.331   4.021 -0.4558 -0.7336 -0.0002
36627SOL     OW15716   1.595   1.264   3.273  0.3134  0.2392 -0.3981
36627SOL    HW115717   1.627   1.290   3.187  1.5150 -0.1296 -0.0844
36627SOL    HW215718   1.614   1.170   3.278 -0.5564  0.0670 -0.0676
36628SOL     OW15719   3.545   0.342   2.404  0.8571 -0.6704 -0.3022
36628SOL    HW115720   3.486   0.379   2.470  0.9455 -0.0117 -0.5813
36628SOL    HW215721   3.616   0.303   2.454  1.7318  1.1656  0.0023
36629SOL     OW15722   0.852   3.775   3.795 -0.0502  0.1900  0.1711
36629SOL    HW115723   0.869   3.857   3.840  0.0012  0.2655  0.0134
36629SOL    HW215724   0.757   3.775   3.781  0.1882  1.2066 -1.7097
36630SOL     OW15725   9.780   4.466   9.237 -0.8881 -0.2220  0.3144
36630SOL    HW115726   9.818   4.409   9.304 -0.6223  1.6838  1.8664
36630SOL    HW215727   9.809   4.428   9.154  0.3716 -1.5820  1.3196
36631SOL     OW15728   4.345   6.010   6.239 -0.9181 -0.1297  0.0490
36631SOL    HW115729   4.400   6.062   6.298  0.0016 -0.8778 -0.1151
36631SOL    HW215730   4.339   5.925   6.281 -0.4418 -0.6037 -0.8065
36632SOL     OW15731   8.764   1.886   5.248 -0.2628 -0.4712  0.6676
36632SOL    HW115732   8.725   1.874   5.162  0.7871 -2.0738  0.3740
36632SOL    HW215733   8.799   1.800   5.271 -0.7274 -0.1356  2.8150
36633SOL     OW15734   8.230   1.419   6.981  0.0628  0.0293  0.0346
36633SOL    HW115735   8.165   1.440   6.914  0.1538 -1.9604 -0.7587
36633SOL    HW215736   8.299   1.373   6.933  1.4504  0.9574  1.0791
36634SOL     OW15737   4.524   4.389   2.040 -0.4810  0.6610 -0.1381
36634SOL    HW115738   4.594   4.439   1.999  1.1192 -0.1109  1.5368
36634SOL    HW215739   4.528   4.302   2.000 -1.2299  0.9189 -0.8117
36635SOL     OW15740   2.022   7.708   2.996  0.0760  0.6778 -0.8974
36635SOL    HW115741   2.028   7.631   2.939 -2.3142  0.0844 -0.4754
36635SOL    HW215742   2.104   7.754   2.983  0.7347 -0.8787 -2.7409
36636SOL     OW15743   0.396   7.709   3.403  0.1527  0.4669  0.6134
36636SOL    HW115744   0.490   7.702   3.388 -0.1882 -0.8961 -1.3005
36636SOL    HW215745   0.365   7.771   3.337 -0.4553 -0.1428  0.3133
36637SOL     OW15746   5.532   1.292   6.108  0.0136  0.0696  0.2748
36637SOL    HW115747   5.534   1.197   6.099  1.1545  0.1557 -0.6013
36637SOL    HW215748   5.561   1.325   6.023  0.5372  1.1757  0.8575
36638SOL     OW15749   6.772   2.613   5.249 -0.0399  0.3182  0.2968
36638SOL    HW115750   6.723   2.548   5.199 -1.0699  0.4199  1.1535
36638SOL    HW215751   6.832   2.562   5.303  1.2699  0.2114 -1.1630
36639SOL     OW15752   4.647   3.635   8.337 -0.4669  0.0518  0.0005
36639SOL    HW115753   4.658   3.651   8.243 -1.5972 -1.4029 -0.4132
36639SOL    HW215754   4.634   3.722   8.375 -0.6880  0.5992 -1.2882
36640SOL     OW15755   6.165   1.719   1.745 -0.0300 -0.1851 -0.2442
36640SOL    HW115756   6.214   1.747   1.822  2.0315  0.8055 -1.8095
36640SOL    HW215757   6.195   1.630   1.729  0.1488 -0.1052 -0.3561
36641SOL     OW15758   0.718   4.366   2.014  0.3411 -0.2672  0.1875
36641SOL    HW115759   0.764   4.282   2.010 -1.5783 -1.3403 -0.9110
36641SOL    HW215760   0.728   4.394   2.105  0.9418 -1.7306  0.6066
36642SOL     OW15761   1.270   0.661   5.469  0.3523  0.2470  0.3177
36642SOL    HW115762   1.234   0.597   5.407 -0.4329 -0.3084  1.3169
36642SOL    HW215763   1.195   0.711   5.499  0.4828 -0.4006  1.8412
36643SOL     OW15764  10.348   2.269   0.281  0.3733 -0.4742  0.1361
36643SOL    HW115765  10.419   2.299   0.339 -0.3507  1.3810  0.1362
36643SOL    HW215766  10.355   2.325   0.204  0.3870 -1.9146 -0.9497
36644SOL     OW15767   5.747   8.663   6.116 -0.3886  0.1273 -0.3100
36644SOL    HW115768   5.682   8.708   6.062  0.8960  1.4124 -0.8524
36644SOL    HW215769   5.831   8.682   6.074  0.3463 -1.6060  0.2924
36645SOL     OW15770   9.942   4.767   5.340  0.1665  0.3861 -0.7584
36645SOL    HW115771   9.952   4.819   5.261 -0.9515  2.0129  0.1210
36645SOL    HW215772  10.005   4.695   5.330  0.2269  0.6950 -2.9764
36646SOL     OW15773   7.664   7.562   7.315  0.1747  0.7090 -0.3008
36646SOL    HW115774   7.727   7.493   7.296 -0.0032  0.6259 -0.6011
36646SOL    HW215775   7.615   7.530   7.390  2.4934  2.0887  1.9498
36647SOL     OW15776   1.267   7.667   8.694  0.5429  0.0177  0.2796
36647SOL    HW115777   1.330   7.708   8.753  0.1133 -0.7816  1.3300
36647SOL    HW215778   1.320   7.632   8.623  1.0204  1.4146 -0.0732
36648SOL     OW15779  10.747   4.051   3.583 -0.0604 -0.5689 -0.2446
36648SOL    HW115780  10.832   4.033   3.544 -1.1623 -1.7468 -2.2594
36648SOL    HW215781  10.719   4.133   3.542 -0.9727 -1.5128 -1.5796
36649SOL     OW15782   6.528   9.259  10.383  0.1048 -0.0201 -0.0970
36649SOL    HW115783   6.593   9.209  10.334  0.6326  0.1937  0.3811
36649SOL    HW215784   6.548   9.241  10.475 -0.9236 -0.4747  0.0540
36650SOL     OW15785   4.379   6.631   1.269 -0.7903 -0.0768 -0.2686
36650SOL    HW115786   4.315   6.600   1.333  0.0825 -0.9121  0.2250
36650SOL    HW215787   4.340   6.612   1.184 -1.5315  0.1286  0.0231
36651SOL     OW15788   0.060   5.044   5.348 -0.3479  0.0385  0.0482
36651SOL    HW115789  -0.036   5.052   5.342 -0.5439 -1.0642  1.2237
36651SOL    HW215790   0.074   4.962   5.395  1.1481  0.7505  0.9257
36652SOL     OW15791   5.752   2.692  10.840  0.0799  0.1526 -0.1495
36652SOL    HW115792   5.830   2.669  10.790  0.0412  0.5673 -0.4079
36652SOL    HW215793   5.682   2.694  10.775 -0.2370 -0.6821  0.1615
36653SOL     OW15794   1.285   4.002   3.348  0.6415  0.3442  0.1706
36653SOL    HW115795   1.356   3.967   3.295 -1.3819 -0.9404 -1.8858
36653SOL    HW215796   1.301   3.969   3.436  1.6205 -1.4272 -0.6369
36654SOL     OW15797   3.310  10.798   2.981 -0.8102  0.8024 -0.0326
36654SOL    HW115798   3.280  10.817   2.892  2.1089  2.9299 -0.7003
36654SOL    HW215799   3.322  10.883   3.021  0.9998 -0.0043  1.2746
36655SOL     OW15800   2.994   2.918   3.769 -0.2233 -0.1324 -0.4909
36655SOL    HW115801   2.931   2.927   3.840 -0.5248 -1.2464 -0.5991
36655SOL    HW215802   2.993   3.003   3.725 -3.3354 -0.7798 -1.8779
36656SOL     OW15803   2.168   1.157   4.705 -0.4315 -0.3958 -0.4554
36656SOL    HW115804   2.125   1.121   4.783  0.3394 -2.2109 -0.8234
36656SOL    HW215805   2.099   1.159   4.638 -1.8453  3.6445  0.8293
36657SOL     OW15806   3.317   3.822   3.783  0.0343 -0.4212  0.2461
36657SOL    HW115807   3.265   3.742   3.774 -2.2180  0.9215  0.4673
36657SOL    HW215808   3.339   3.847   3.693 -1.2911 -0.0886 -0.0188
36658SOL     OW15809   1.064   5.013   5.968 -0.5279 -0.1660 -0.1725
36658SOL    HW115810   1.065   4.935   5.913 -1.3234  0.4013 -1.0129
36658SOL    HW215811   1.110   5.079   5.916  0.0576 -0.0330  0.4949
36659SOL     OW15812   8.206   1.278   7.205  0.1919  0.8481 -0.7516
36659SOL    HW115813   8.209   1.338   7.130  2.3675  1.4280 -0.2710
36659SOL    HW215814   8.207   1.335   7.281  0.9594  0.2329 -0.2910
36660SOL     OW15815   3.776   5.388   4.089  0.1823  0.1791 -0.1987
36660SOL    HW115816   3.699   5.424   4.044  0.1461 -0.4327 -0.6402
36660SOL    HW215817   3.850   5.432   4.047  0.1502 -0.4138 -0.8940
36661SOL     OW15818   3.487  10.090   8.537  0.0675  0.0633  0.1922
36661SOL    HW115819   3.498  10.050   8.451 -1.2129 -2.1414  0.9578
36661SOL    HW215820   3.407  10.142   8.529  0.7379  1.0461 -0.3098
36662SOL     OW15821   6.067   3.416   6.333  0.2262  0.4865 -0.0810
36662SOL    HW115822   6.120   3.384   6.407  0.0868  0.4372 -0.0024
36662SOL    HW215823   6.020   3.492   6.368  0.2244  0.5142 -0.1438
36663SOL     OW15824   6.076   0.374   8.349  0.4456 -0.0561 -0.2969
36663SOL    HW115825   6.019   0.427   8.405  0.4659 -1.8192  1.5036
36663SOL    HW215826   6.129   0.324   8.410  0.6306 -1.9348 -1.9028
36664SOL     OW15827   9.585   9.108   4.956  0.7884 -0.4200 -0.1715
36664SOL    HW115828   9.583   9.144   4.867 -0.7882 -2.0178 -0.8466
36664SOL    HW215829   9.565   9.183   5.012  3.4189  0.9846 -0.9667
36665SOL     OW15830   3.545   6.889   9.240  0.0659 -0.6847 -0.1663
36665SOL    HW115831   3.512   6.804   9.270 -1.3907  0.1167  0.6145
36665SOL    HW215832   3.470   6.931   9.199  0.9772 -0.0730 -1.2665
36666SOL     OW15833   2.538  10.450   7.777  0.0108  0.0468 -0.1870
36666SOL    HW115834   2.455  10.496   7.764  0.0604 -0.4199 -2.4773
36666SOL    HW215835   2.565  10.475   7.866 -3.0579 -0.5902  1.0718
36667SOL     OW15836   2.513   3.203   8.127  0.2804 -0.3963  0.1296
36667SOL    HW115837   2.470   3.136   8.181 -0.2995  0.7334  1.1122
36667SOL    HW215838   2.527   3.277   8.186  1.8383 -0.0025 -0.6774
36668SOL     OW15839   9.372   7.866   7.838  0.4192  0.0167 -0.3888
36668SOL    HW115840   9.285   7.907   7.829 -0.5749 -1.6480  0.9823
36668SOL    HW215841   9.380   7.849   7.932  2.2288  0.0686 -0.5076
36669SOL     OW15842   5.457   1.705   6.499 -0.4300  0.4481  0.2052
36669SOL    HW115843   5.496   1.619   6.513 -0.8621  0.0301 -0.9777
36669SOL    HW215844   5.518   1.749   6.439  0.1587  1.2569  1.3668
36670SOL     OW15845   1.829   6.408   2.806  0.7061 -0.2946  0.0967
36670SOL    HW115846   1.756   6.387   2.747  1.4797 -1.1947 -0.5667
36670SOL    HW215847   1.787   6.450   2.881 -0.4260 -0.1869 -0.5674
36671SOL     OW15848   9.544  10.694  10.462 -0.1390  0.5673  0.0439
36671SOL    HW115849   9.472  10.672  10.522  3.0540 -1.6650  3.5139
36671SOL    HW215850   9.605  10.746  10.516  1.8005  0.6422 -2.0659
36672SOL     OW15851   7.008   7.135   6.109  0.0061 -0.4046 -0.8927
36672SOL    HW115852   6.997   7.077   6.184  0.7081  0.2974 -0.2210
36672SOL    HW215853   7.084   7.099   6.063 -0.9293 -1.3301 -1.7673
36673SOL     OW15854   0.608   7.974   3.414 -0.6117 -0.3665 -0.2920
36673SOL    HW115855   0.648   7.980   3.501 -2.2534 -1.6014  0.5981
36673SOL    HW215856   0.614   7.882   3.391  1.7843  0.2203 -2.5569
36674SOL     OW15857   4.817   4.816   6.730  0.4167  0.4891  0.0064
36674SOL    HW115858   4.837   4.908   6.746  0.9034  0.4520 -0.3431
36674SOL    HW215859   4.796   4.812   6.637 -0.8933  0.4551  0.2810
36675SOL     OW15860   7.835   7.287   5.720  0.0037  0.5506 -0.3735
36675SOL    HW115861   7.802   7.373   5.692  0.0592  0.4414 -0.7895
36675SOL    HW215862   7.868   7.248   5.639 -1.4990 -0.5278 -0.4947
36676SOL     OW15863   7.180   8.159   7.868 -0.4124 -0.0054 -0.3073
36676SOL    HW115864   7.143   8.214   7.799 -0.8038 -1.3373 -1.1973
36676SOL    HW215865   7.133   8.076   7.861  1.0919 -0.9358  0.0817
36677SOL     OW15866   9.630   6.461  10.737 -0.1705  0.2937  0.1360
36677SOL    HW115867   9.603   6.507  10.657  1.3768  0.5050 -0.3014
36677SOL    HW215868   9.558   6.401  10.755 -1.9984  2.4142  0.3873
36678SOL     OW15869   2.756   9.142   9.172 -0.0593 -0.1993 -0.5985
36678SOL    HW115870   2.767   9.188   9.088 -1.6667 -0.6118 -1.0741
36678SOL    HW215871   2.817   9.069   9.167  0.4179  0.2147 -1.0756
36679SOL     OW15872   7.534   5.478   5.395  0.4578  0.1406  0.0372
36679SOL    HW115873   7.522   5.518   5.309  0.5673 -0.7624 -0.4073
36679SOL    HW215874   7.590   5.540   5.442  0.2548  0.7270 -0.4770
36680SOL     OW15875  10.739   2.574   7.496  0.2915  0.1580  0.0679
36680SOL    HW115876  10.819   2.539   7.534  0.2536 -0.3326 -0.2909
36680SOL    HW215877  10.751   2.668   7.496  0.8794  0.0845 -0.0032
36681SOL     OW15878   4.816   2.477   0.613  0.0305 -0.1257 -0.1165
36681SOL    HW115879   4.726   2.507   0.598  0.3671  0.1485 -1.7889
36681SOL    HW215880   4.871   2.541   0.567  1.3235  1.2821  3.1240
36682SOL     OW15881   7.957   7.848   0.438  0.5258  0.0776  0.2543
36682SOL    HW115882   7.974   7.895   0.357  1.2304  0.9424  0.8916
36682SOL    HW215883   7.889   7.784   0.415  1.3884 -0.3437 -1.2423
36683SOL     OW15884   4.207   8.528  10.689 -0.2458  0.3039  0.6925
36683SOL    HW115885   4.212   8.439  10.654  0.5000  1.0436 -1.2438
36683SOL    HW215886   4.194   8.517  10.783  1.4275 -1.8749  0.7417
36684SOL     OW15887   8.254   4.873   2.759  0.5392  0.5402 -0.4699
36684SOL    HW115888   8.274   4.892   2.668  0.8988 -0.4028 -0.5979
36684SOL    HW215889   8.313   4.801   2.782  1.0750  1.3349  0.7623
36685SOL     OW15890   4.257   2.374   9.190 -0.0658 -0.0439  0.3814
36685SOL    HW115891   4.251   2.439   9.120 -1.0382  0.8519  1.2414
36685SOL    HW215892   4.179   2.320   9.179 -0.6541  0.6033  1.2163
36686SOL     OW15893   3.158   7.743   4.897 -0.6420 -0.4367 -0.2265
36686SOL    HW115894   3.225   7.709   4.837  1.2361  1.9430  0.3728
36686SOL    HW215895   3.134   7.668   4.952  0.8621 -1.5678 -1.0490
36687SOL     OW15896   1.314   7.724   1.103 -0.5445  0.1487  0.0568
36687SOL    HW115897   1.376   7.760   1.167 -0.2099 -0.3628  0.0234
36687SOL    HW215898   1.326   7.779   1.026 -0.5716  0.4356  0.2538
36688SOL     OW15899   9.419   5.645   4.628 -0.4600 -0.1145  0.3322
36688SOL    HW115900   9.354   5.640   4.699 -2.3146 -2.8900 -1.3336
36688SOL    HW215901   9.371   5.684   4.555  0.0233 -1.2211 -0.6110
36689SOL     OW15902   2.004   0.161   6.241  0.8187 -0.3876  0.6753
36689SOL    HW115903   1.983   0.102   6.313  2.2622 -1.1352  0.5239
36689SOL    HW215904   2.048   0.106   6.177 -1.1249  0.0870 -1.1783
36690SOL     OW15905   3.135   9.075   6.694  0.2443 -0.4695 -0.6324
36690SOL    HW115906   3.126   9.105   6.604  0.1434  1.3941 -0.0405
36690SOL    HW215907   3.181   8.991   6.687  1.3994  0.2485 -2.3239
36691SOL     OW15908   1.980   4.483   0.295 -0.9141  0.0980 -0.4995
36691SOL    HW115909   1.953   4.546   0.229 -2.9478 -1.1705 -0.9401
36691SOL    HW215910   2.062   4.446   0.261 -0.8224  0.9661 -1.2573
36692SOL     OW15911   2.997   9.782  10.555 -0.3071 -0.3793 -0.2098
36692SOL    HW115912   3.064   9.794  10.488 -0.5751 -0.5777 -0.5183
36692SOL    HW215913   3.033   9.715  10.614  0.3296  0.4658  0.3861
36693SOL     OW15914   0.879  10.541   1.869 -0.1580 -0.0838 -0.1036
36693SOL    HW115915   0.802  10.571   1.821  0.4934  1.8698 -0.0007
36693SOL    HW215916   0.936  10.503   1.803 -0.4755  0.0181 -0.4374
36694SOL     OW15917   3.740   3.197   6.104  0.6122  0.2404 -0.0176
36694SOL    HW115918   3.812   3.166   6.158 -0.4460  0.7662  1.7971
36694SOL    HW215919   3.676   3.125   6.106  0.3414  0.4749 -0.1101
36695SOL     OW15920   2.274   4.888  10.792 -0.1158 -0.0395  0.5227
36695SOL    HW115921   2.320   4.970  10.808  0.4434 -0.4086  0.8598
36695SOL    HW215922   2.189   4.899  10.834  0.7466 -0.4049  2.5007
36696SOL     OW15923   7.906   1.439   3.332 -0.3379 -0.2056  0.2167
36696SOL    HW115924   7.845   1.426   3.405 -0.4709 -0.1833  0.1105
36696SOL    HW215925   7.990   1.407   3.365 -0.4926 -0.5959  0.2292
36697SOL     OW15926   2.142   2.927   6.968 -0.0071  0.6960 -0.2014
36697SOL    HW115927   2.182   2.916   7.054 -0.3435  0.2049 -0.0981
36697SOL    HW215928   2.081   2.853   6.960  1.2898 -0.2926 -1.5898
36698SOL     OW15929   6.009   2.726   2.239  0.0859 -0.1705  0.0154
36698SOL    HW115930   5.973   2.815   2.239 -1.0479 -0.6128  0.5917
36698SOL    HW215931   6.000   2.696   2.148  0.4688  0.2955 -0.1788
36699SOL     OW15932   8.931   3.437   7.354 -0.6778 -0.0019 -0.0295
36699SOL    HW115933   8.915   3.406   7.443 -0.2384  1.9188  0.7451
36699SOL    HW215934   9.024   3.419   7.338 -0.5231  0.5317  0.2642
36700SOL     OW15935   4.731   4.595   8.658  0.0670 -0.1494 -0.6091
36700SOL    HW115936   4.804   4.653   8.635  0.6911 -1.2730 -1.5568
36700SOL    HW215937   4.768   4.534   8.722 -0.2050 -0.3595 -0.6479
36701SOL     OW15938   7.974   5.914   2.858  0.0038 -0.5562  0.1779
36701SOL    HW115939   7.977   5.967   2.779  1.2752  0.2946  0.7525
36701SOL    HW215940   7.904   5.952   2.910 -0.6757 -0.9674 -0.4145
36702SOL     OW15941   1.547   0.559   2.115  0.0204  0.2344 -0.0143
36702SOL    HW115942   1.525   0.471   2.084 -2.7366  0.6857  0.3709
36702SOL    HW215943   1.533   0.615   2.038  1.8404  0.3917 -0.2794
36703SOL     OW15944   1.449   5.062  10.674  0.1251  0.3638  0.0311
36703SOL    HW115945   1.421   4.971  10.682  0.8905  0.2105  1.4220
36703SOL    HW215946   1.531   5.058  10.625 -0.5798  0.4740 -1.1864
36704SOL     OW15947   8.606   8.489  10.124 -0.0717 -0.1289 -0.0309
36704SOL    HW115948   8.696   8.488  10.156  0.5710  0.6963 -1.6651
36704SOL    HW215949   8.610   8.443  10.040 -0.6944  1.7355 -1.1544
36705SOL     OW15950   7.459   2.827   9.169 -0.3204 -0.0422  1.0655
36705SOL    HW115951   7.513   2.755   9.137  0.2333  0.9717 -0.4374
36705SOL    HW215952   7.391   2.837   9.102 -0.1223  1.0866  1.0112
36706SOL     OW15953  10.274   1.536   7.850  0.0673 -0.1328  0.1959
36706SOL    HW115954  10.253   1.587   7.771  0.1110 -0.7341 -0.2141
36706SOL    HW215955  10.218   1.459   7.844  2.0913 -1.6356 -0.7809
36707SOL     OW15956   6.436   0.042   8.541 -0.0802  0.4910  0.2162
36707SOL    HW115957   6.521  -0.000   8.555  1.0722  1.8304 -2.0699
36707SOL    HW215958   6.398   0.050   8.629  1.7464 -0.9509  1.2015
36708SOL     OW15959   4.544   3.110   0.167 -0.2844 -0.3656  0.1122
36708SOL    HW115960   4.586   3.026   0.153  2.3980  1.0197 -0.8708
36708SOL    HW215961   4.478   3.116   0.098  0.2150 -1.2491 -0.4543
36709SOL     OW15962   1.449   5.783   8.137  0.5107 -0.3882  0.0666
36709SOL    HW115963   1.392   5.707   8.146 -1.4432  0.7850 -1.5290
36709SOL    HW215964   1.393   5.852   8.102  2.6955  1.1539 -0.6724
36710SOL     OW15965   0.727   4.420   0.870 -0.0763 -0.2416 -0.5161
36710SOL    HW115966   0.809   4.371   0.859  0.0004 -0.7297  1.7110
36710SOL    HW215967   0.746   4.507   0.835  1.5974 -0.1655  0.4803
36711SOL     OW15968   4.257   4.482   6.012 -0.3625  0.0417  0.5993
36711SOL    HW115969   4.163   4.476   5.993 -0.4575 -1.0033  1.3610
36711SOL    HW215970   4.271   4.421   6.084  1.0698 -0.4648 -0.0832
36712SOL     OW15971   4.923   6.629  10.119  0.3448  0.1182  0.6651
36712SOL    HW115972   4.970   6.580  10.187  0.2998 -1.1225 -0.1549
36712SOL    HW215973   4.938   6.578  10.039 -2.3106 -0.2833  0.3421
36713SOL     OW15974   9.034   1.735   6.185  0.3044  0.0969 -0.1288
36713SOL    HW115975   8.971   1.775   6.245  0.6084 -0.3496  0.5063
36713SOL    HW215976   9.036   1.643   6.211 -0.5609 -0.4042 -1.7207
36714SOL     OW15977   3.083   9.651   0.305 -0.6761 -0.1121  0.3039
36714SOL    HW115978   3.177   9.634   0.309 -0.6252  0.0347 -0.1845
36714SOL    HW215979   3.042   9.568   0.329 -0.4257 -0.0945  0.8093
36715SOL     OW15980  10.025   9.059   7.052  0.5877  0.3520 -0.0414
36715SOL    HW115981  10.007   9.123   7.121  0.0953  0.4002 -0.2187
36715SOL    HW215982  10.087   8.998   7.093  1.0266  0.9130  0.1379
36716SOL     OW15983   5.467   1.730   1.183  0.2952 -0.2088  0.3184
36716SOL    HW115984   5.430   1.814   1.158 -0.2693 -0.5377  0.0174
36716SOL    HW215985   5.415   1.665   1.135  1.5243 -0.6711 -0.4535
36717SOL     OW15986   0.210   0.069   2.596 -0.6208  0.1819 -0.1180
36717SOL    HW115987   0.193  -0.025   2.604 -1.3572  0.0364 -2.6216
36717SOL    HW215988   0.298   0.081   2.631 -0.3626 -1.4934 -0.1222
36718SOL     OW15989   3.087   0.188   6.541 -0.0363 -0.2785 -0.2271
36718SOL    HW115990   3.008   0.211   6.493 -0.1661  0.2299  0.2196
36718SOL    HW215991   3.086   0.244   6.618 -0.3610 -1.8185  0.9225
36719SOL     OW15992   1.990   6.535   1.798 -0.3950 -0.7194 -0.1498
36719SOL    HW115993   1.938   6.581   1.863 -1.8427 -2.5315  0.0610
36719SOL    HW215994   2.040   6.471   1.848  3.3933  1.9287 -0.1398
36720SOL     OW15995   0.843   3.014   9.750  0.0488 -1.0933 -0.1586
36720SOL    HW115996   0.786   2.937   9.747 -0.7392 -0.4966 -0.8604
36720SOL    HW215997   0.910   2.996   9.683  0.2896 -1.4841  0.1829
36721SOL     OW15998   6.356   2.605   7.152  0.3366  0.3433  0.1158
36721SOL    HW115999   6.317   2.521   7.131 -1.2173  1.2115 -0.6646
36721SOL    HW216000   6.399   2.633   7.070 -0.8016  1.1434 -0.2356
36722SOL     OW16001   0.493   6.675   4.029 -0.2385  0.5904 -0.3537
36722SOL    HW116002   0.554   6.663   4.102  0.6423  1.0322 -1.0030
36722SOL    HW216003   0.436   6.598   4.033  1.0213 -0.3702 -0.3497
36723SOL     OW16004   3.396   5.310   3.507 -0.3869  0.2096  0.1570
36723SOL    HW116005   3.337   5.320   3.431 -2.3597  0.5639  1.6430
36723SOL    HW216006   3.337   5.309   3.582  1.5025 -0.2803  1.6983
36724SOL     OW16007   2.944   0.128   0.672 -0.0359  0.0943 -0.1043
36724SOL    HW116008   2.980   0.164   0.591  1.0717 -0.8471 -0.0551
36724SOL    HW216009   3.020   0.094   0.719 -0.5796  1.1176  1.6087
36725SOL     OW16010   2.768   4.546   7.094  0.2498 -0.2067  0.1159
36725SOL    HW116011   2.850   4.496   7.096  0.7635  0.6039 -0.3092
36725SOL    HW216012   2.707   4.492   7.143  1.0423 -0.8232  0.4585
36726SOL     OW16013   0.779   3.206  10.842  0.0615 -0.3917 -0.1776
36726SOL    HW116014   0.741   3.121  10.819  0.7221 -0.6471 -0.3622
36726SOL    HW216015   0.715   3.270  10.811 -0.8920 -0.8314  0.8216
36727SOL     OW16016   5.387   0.174   5.557  0.3357  0.5063 -0.8441
36727SOL    HW116017   5.431   0.217   5.484  2.7348  0.4982  0.5107
36727SOL    HW216018   5.429   0.089   5.565 -0.0281  0.4107  0.4046
36728SOL     OW16019   2.592   1.068  10.812 -0.5235 -0.0734 -1.1818
36728SOL    HW116020   2.556   0.989  10.853  0.1441  0.6811  0.9958
36728SOL    HW216021   2.515   1.119  10.787 -1.0516  0.3136  0.9938
36729SOL     OW16022   7.951   5.409   4.734  0.1723 -0.2556  0.0297
36729SOL    HW116023   7.878   5.393   4.674 -0.4848 -3.2612  1.4045
36729SOL    HW216024   7.909   5.433   4.817  0.8700  0.2735  0.2389
36730SOL     OW16025   4.929   2.166   6.084  0.4094  0.0673 -0.2926
36730SOL    HW116026   4.965   2.163   5.995 -1.7247  2.5541 -1.3887
36730SOL    HW216027   4.835   2.148   6.072  0.2322 -0.4491  1.5978
36731SOL     OW16028  10.705   1.960   5.276  0.1306  0.7141  0.1487
36731SOL    HW116029  10.707   1.955   5.180  0.8228  0.3133  0.1727
36731SOL    HW216030  10.613   1.970   5.298 -0.5446 -2.7557 -0.4255
36732SOL     OW16031   6.946   0.724   3.256 -0.9421 -0.6632 -0.2730
36732SOL    HW116032   6.869   0.709   3.201 -0.9840  0.3875 -0.5221
36732SOL    HW216033   7.013   0.668   3.217 -0.7554  0.5878 -1.9039
36733SOL     OW16034   9.846   3.243   1.311  0.2632  0.1596  0.0342
36733SOL    HW116035   9.919   3.189   1.339 -0.8617 -0.5003  1.8695
36733SOL    HW216036   9.817   3.288   1.391 -0.4352  1.5231 -0.9401
36734SOL     OW16037   0.661  10.046  10.199  0.2257  0.5009  0.2490
36734SOL    HW116038   0.612  10.128  10.209 -1.2261 -0.3511  0.3858
36734SOL    HW216039   0.597   9.984  10.164  2.0213  0.1848 -2.8511
36735SOL     OW16040   3.817   6.266   9.725  0.6472  0.0883  0.1192
36735SOL    HW116041   3.856   6.179   9.722 -0.7108 -0.6358  1.7941
36735SOL    HW216042   3.755   6.267   9.652 -1.6509 -1.6170  1.8874
36736SOL     OW16043   2.638   6.664   9.973 -0.1827  0.1028  0.3664
36736SOL    HW116044   2.621   6.583  10.022 -1.7091 -1.0334 -1.8371
36736SOL    HW216045   2.552   6.705   9.964  0.2778  0.9637 -0.2416
36737SOL     OW16046   0.574   6.953  10.851  0.2226 -0.3290  0.2279
36737SOL    HW116047   0.526   7.022  10.804  1.2582  0.4977  0.3557
36737SOL    HW216048   0.663   6.958  10.816  0.3703 -1.4676  0.4054
36738SOL     OW16049  10.008   7.121   0.852  0.4676 -0.2721 -0.4845
36738SOL    HW116050   9.945   7.060   0.813  0.3567  0.5157 -1.5882
36738SOL    HW216051   9.970   7.143   0.937 -0.8336  0.2858 -1.1806
36739SOL     OW16052  10.680  10.842   7.278  0.0986 -0.5555 -0.2020
36739SOL    HW116053  10.608  10.856   7.216 -0.0263 -0.1266  0.0310
36739SOL    HW216054  10.654  10.765   7.328 -2.0704  1.6943  2.4343
36740SOL     OW16055   1.512  10.728   2.039 -0.0477  0.2028 -0.1644
36740SOL    HW116056   1.518  10.822   2.022  1.0103 -0.0959 -1.6789
36740SOL    HW216057   1.594  10.692   2.003 -0.6336 -1.3483 -0.0259
36741SOL     OW16058   6.671   0.367  10.024 -0.2476  0.2179 -0.2490
36741SOL    HW116059   6.729   0.337  10.094 -1.0490 -1.4568 -0.2423
36741SOL    HW216060   6.711   0.448   9.992  0.8054  0.3577  1.2992
36742SOL     OW16061   9.638   6.799   9.252 -0.7187  0.1005  0.1123
36742SOL    HW116062   9.685   6.754   9.322  3.2019  1.9435 -1.0915
36742SOL    HW216063   9.630   6.889   9.283 -1.7500  0.2777 -0.6092
36743SOL     OW16064   4.790   9.773   0.359 -0.1967 -0.1104 -0.2607
36743SOL    HW116065   4.753   9.856   0.389  0.4853  0.6482 -1.4215
36743SOL    HW216066   4.873   9.765   0.407  1.3325  1.5421 -2.4115
36744SOL     OW16067   8.281   2.827   2.682  0.1679 -0.4120 -0.0449
36744SOL    HW116068   8.261   2.919   2.662  0.7710 -0.6496 -1.9304
36744SOL    HW216069   8.329   2.831   2.765 -1.2818  0.7964  0.7837
36745SOL     OW16070   9.191   5.391   9.377  0.4056  0.1773  0.0781
36745SOL    HW116071   9.169   5.340   9.455  0.5524 -0.0709 -0.0404
36745SOL    HW216072   9.286   5.403   9.382  0.4122  0.1824 -0.0488
36746SOL     OW16073   5.014   4.625   6.356  0.1497 -0.1763 -0.2791
36746SOL    HW116074   4.940   4.662   6.309  0.4088 -0.0665 -0.6043
36746SOL    HW216075   5.053   4.699   6.402 -1.3022 -0.6096  1.7799
36747SOL     OW16076   0.188   9.963  10.820  0.1003 -0.0922  0.2994
36747SOL    HW116077   0.177   9.922  10.734  0.1170 -1.2544  0.8305
36747SOL    HW216078   0.124   9.918  10.876  0.9226 -0.2050  1.1710
36748SOL     OW16079   3.094   3.329   2.480  0.2795 -0.2881  0.1553
36748SOL    HW116080   3.176   3.376   2.498  1.2081 -1.6009 -0.4252
36748SOL    HW216081   3.096   3.255   2.541 -0.0581 -0.8046 -0.4592
36749SOL     OW16082   1.349   7.109   6.029 -0.2152 -0.3119 -0.2381
36749SOL    HW116083   1.314   7.031   6.072  1.2587 -0.7759  0.2101
36749SOL    HW216084   1.317   7.104   5.939 -0.3174 -1.3379 -0.1592
36750SOL     OW16085   1.341   2.289   9.066  0.0945 -0.2998  0.1773
36750SOL    HW116086   1.391   2.290   9.147 -0.0533 -2.4309  0.3541
36750SOL    HW216087   1.291   2.207   9.070  1.3051 -1.3314 -2.7607
36751SOL     OW16088   0.161   8.306   9.120  0.0828 -0.7475 -0.0204
36751SOL    HW116089   0.154   8.334   9.029  1.5059  1.9246  0.5979
36751SOL    HW216090   0.233   8.242   9.119  1.2512  0.5336 -0.5537
36752SOL     OW16091   1.595   8.428   7.048  0.0058 -0.4521  0.4221
36752SOL    HW116092   1.505   8.407   7.024  0.6281 -0.6064 -1.9787
36752SOL    HW216093   1.601   8.405   7.141 -2.1426 -1.3351  0.3962
36753SOL     OW16094   1.000   9.299   8.112  0.8420  0.8312 -0.3009
36753SOL    HW116095   1.075   9.298   8.172  1.0892  0.9981 -0.6007
36753SOL    HW216096   0.967   9.209   8.114  0.9523  0.7966 -0.0396
36754SOL     OW16097   2.274   5.438   8.134 -0.4445  0.1980 -0.0951
36754SOL    HW116098   2.284   5.443   8.039  0.3241  1.0205  0.0200
36754SOL    HW216099   2.183   5.411   8.147 -0.5440  0.0405 -1.0626
36755SOL     OW16100   7.688   2.609   1.600  0.4285 -0.4779 -0.0347
36755SOL    HW116101   7.638   2.528   1.611  0.9627 -0.7116  0.8280
36755SOL    HW216102   7.766   2.597   1.655  0.6469  0.5162 -0.0981
36756SOL     OW16103   6.435   4.975   9.409 -0.1112 -0.7379  0.5697
36756SOL    HW116104   6.434   5.017   9.323 -0.5180  0.3478  1.0848
36756SOL    HW216105   6.385   4.894   9.396  1.7174 -1.7370 -0.7320
36757SOL     OW16106   4.911  10.514   1.582 -0.3660 -0.1396 -0.0827
36757SOL    HW116107   4.836  10.559   1.545 -0.0768  0.7944  0.4313
36757SOL    HW216108   4.975  10.583   1.599 -0.2368 -0.6027  1.5216
36758SOL     OW16109   3.346   0.112   6.662 -0.5969 -0.6232 -0.1074
36758SOL    HW116110   3.254   0.136   6.648 -0.1253  2.1460  0.8556
36758SOL    HW216111   3.349   0.082   6.753 -0.5857 -0.9566 -0.2180
36759SOL     OW16112   6.685   5.276   7.196 -0.0586  0.7588  0.2055
36759SOL    HW116113   6.634   5.196   7.185 -0.3031  0.8669  0.5539
36759SOL    HW216114   6.635   5.328   7.258 -0.2584  1.4839 -0.5434
36760SOL     OW16115   3.246  10.441   9.920 -0.2142 -0.1321  0.3427
36760SOL    HW116116   3.304  10.507   9.882 -0.3076 -0.3906 -0.2649
36760SOL    HW216117   3.304  10.370   9.946 -0.0449  0.4352  1.5580
36761SOL     OW16118   9.471   3.175   7.822  0.4504  0.3193  0.0350
36761SOL    HW116119   9.408   3.104   7.810  0.3975  0.1630  1.1321
36761SOL    HW216120   9.510   3.159   7.909  1.2847  0.9677 -0.1991
36762SOL     OW16121   9.886   4.241   8.202 -0.0571 -0.0724  0.2693
36762SOL    HW116122   9.973   4.271   8.177 -0.6421  1.0036 -0.5550
36762SOL    HW216123   9.877   4.156   8.161  0.1425  0.3656 -0.6963
36763SOL     OW16124   8.020   0.062   0.590  0.3989 -0.6136  0.2529
36763SOL    HW116125   8.115   0.052   0.591  0.7444  1.5544  3.7946
36763SOL    HW216126   8.006   0.156   0.597 -1.8875 -1.0321  3.2026
36764SOL     OW16127  10.310   0.776   7.776  0.0654 -0.2111 -0.2861
36764SOL    HW116128  10.352   0.692   7.754 -0.5973 -0.4869 -0.5013
36764SOL    HW216129  10.354   0.840   7.719  0.6840 -0.3768 -0.0104
36765SOL     OW16130   0.835   9.332  10.264 -0.4426  0.0973  0.2194
36765SOL    HW116131   0.775   9.335  10.338 -1.2460 -1.4122 -0.3338
36765SOL    HW216132   0.825   9.244  10.228  1.3566  0.1461 -0.5151
36766SOL     OW16133   0.437   5.707   4.636  0.1422  0.0422  0.1231
36766SOL    HW116134   0.482   5.712   4.720 -0.3294 -1.6930  0.5194
36766SOL    HW216135   0.378   5.782   4.636  0.6438  0.4489  1.0337
36767SOL     OW16136   7.152   1.461   4.832 -0.4860 -0.0641  0.0796
36767SOL    HW116137   7.076   1.517   4.826 -0.4579 -0.1262 -0.8814
36767SOL    HW216138   7.197   1.490   4.912 -0.9844  0.6134  0.1160
36768SOL     OW16139  10.048   0.224   6.670 -0.4013  0.4083  0.4120
36768SOL    HW116140  10.105   0.301   6.675  0.1066 -0.0006  1.0520
36768SOL    HW216141   9.960   0.258   6.682 -0.1946  0.9053  0.5359
36769SOL     OW16142   4.378  10.556   0.539 -0.5319 -0.0370  0.9515
36769SOL    HW116143   4.440  10.607   0.591 -1.5385  0.1650  1.9718
36769SOL    HW216144   4.305  10.616   0.522  0.0930  0.1690 -1.3884
36770SOL     OW16145   3.092   1.471   1.438  0.1278 -0.0600  0.8935
36770SOL    HW116146   3.111   1.550   1.388  0.6543 -1.6262 -1.5403
36770SOL    HW216147   3.061   1.503   1.523  1.9975  2.7089  0.6623
36771SOL     OW16148   8.196   5.760   8.544 -0.0087 -0.4712 -0.0513
36771SOL    HW116149   8.184   5.852   8.518  0.5998  0.4736  2.6181
36771SOL    HW216150   8.260   5.725   8.483  2.1818  1.8816  0.7264
36772SOL     OW16151   9.052   1.497   6.330  0.1419 -0.1213  0.6000
36772SOL    HW116152   9.139   1.479   6.364  0.0726 -2.4301 -0.3176
36772SOL    HW216153   9.015   1.411   6.311 -1.9219  0.8571 -0.0790
36773SOL     OW16154   3.067  10.495   1.509  0.5513  0.1214  0.0240
36773SOL    HW116155   2.981  10.526   1.537  0.0133 -2.4637  1.6304
36773SOL    HW216156   3.063  10.495   1.414 -0.8686  0.9495  0.0501
36774SOL     OW16157   7.588   5.551   9.991  0.2538  0.2482 -0.3702
36774SOL    HW116158   7.513   5.493  10.006  0.2559  0.2919 -0.1839
36774SOL    HW216159   7.593   5.604  10.071 -0.6166  1.4952 -1.1080
36775SOL     OW16160   2.757   6.558   1.839 -0.2454 -0.1538  0.1576
36775SOL    HW116161   2.832   6.609   1.809 -0.4522  1.5967  2.3441
36775SOL    HW216162   2.795   6.486   1.890 -0.0334 -0.1835 -0.0404
36776SOL     OW16163   0.131   7.186  10.708 -0.0074 -0.2685 -0.3493
36776SOL    HW116164   0.094   7.150  10.788 -1.2247 -0.0864 -0.7997
36776SOL    HW216165   0.097   7.130  10.638 -1.1091  1.0985 -0.9637
36777SOL     OW16166   3.330   9.600   5.742  0.0494 -0.3470  0.3428
36777SOL    HW116167   3.415   9.634   5.768  0.1696 -0.1527 -0.3032
36777SOL    HW216168   3.268   9.668   5.767 -0.0656 -0.9741  1.8850
36778SOL     OW16169   8.665   5.837  10.020 -0.4525  0.6063 -0.4228
36778SOL    HW116170   8.643   5.876   9.935 -2.3743 -1.0515 -0.7659
36778SOL    HW216171   8.675   5.744  10.002 -1.5730  0.1163  1.2418
36779SOL     OW16172   9.792   0.974   8.514 -0.3543 -0.8914  0.2686
36779SOL    HW116173   9.738   1.040   8.558 -0.1234 -0.2828 -0.3590
36779SOL    HW216174   9.881   1.010   8.517 -0.2294 -1.1732 -0.0819
36780SOL     OW16175   6.363   3.059   9.089 -0.1707 -0.0850 -0.3139
36780SOL    HW116176   6.389   3.035   9.000 -0.5342  0.8001 -0.6676
36780SOL    HW216177   6.381   3.152   9.094 -3.1040  0.5650 -0.5275
36781SOL     OW16178   1.844   2.177   5.864 -0.4036  0.0965 -0.1435
36781SOL    HW116179   1.751   2.158   5.874 -0.1618 -0.6226  0.8292
36781SOL    HW216180   1.863   2.154   5.773 -0.9865 -0.5864 -0.0997
36782SOL     OW16181   4.148   8.866   0.940 -0.7681  0.7212 -0.4322
36782SOL    HW116182   4.164   8.910   1.023 -0.8693  1.1987 -0.6666
36782SOL    HW216183   4.227   8.880   0.889  1.0082 -2.8263  0.9465
36783SOL     OW16184  10.058   5.366   7.031 -0.4815  1.1515  0.0425
36783SOL    HW116185  10.022   5.343   7.117 -2.0393 -0.8846 -1.0568
36783SOL    HW216186  10.039   5.459   7.021 -2.6283  0.8538  0.8725
36784SOL     OW16187   7.910   4.453   4.947 -0.0931  0.4961 -0.0844
36784SOL    HW116188   7.913   4.439   4.853  0.1473  0.3161 -0.0527
36784SOL    HW216189   7.887   4.368   4.984  0.9724  0.2651  0.0841
36785SOL     OW16190   5.392   4.802   5.694  0.2810 -0.9408  0.1165
36785SOL    HW116191   5.420   4.801   5.602 -1.0664 -2.4355 -0.3174
36785SOL    HW216192   5.393   4.895   5.718  2.6059 -0.6605 -0.7432
36786SOL     OW16193   6.650   4.445   0.274 -0.3448 -0.4119  0.2683
36786SOL    HW116194   6.630   4.351   0.277  1.5397 -0.8527  0.6931
36786SOL    HW216195   6.676   4.461   0.183 -2.0444  0.0583 -0.1711
36787SOL     OW16196   1.491   2.556   9.592 -0.0114 -0.3701 -0.4915
36787SOL    HW116197   1.517   2.594   9.675  1.9414 -0.7918 -0.8616
36787SOL    HW216198   1.569   2.563   9.537 -0.7053 -1.6893 -1.7075
36788SOL     OW16199   7.739   7.505  10.178  0.0482 -0.2004  0.6424
36788SOL    HW116200   7.764   7.413  10.184  1.0758  0.0204 -0.0233
36788SOL    HW216201   7.811   7.552  10.220  0.5860  0.4183 -0.8850
36789SOL     OW16202   4.745   2.152   9.390 -0.0462 -0.4878 -0.2954
36789SOL    HW116203   4.727   2.217   9.457  0.5201 -0.2954 -0.3297
36789SOL    HW216204   4.690   2.077   9.414  0.6381 -0.6710  0.7553
36790SOL     OW16205   5.478   8.050   7.964 -0.0511  0.0788  0.0898
36790SOL    HW116206   5.410   8.089   7.910  0.7930  0.3329 -0.8338
36790SOL    HW216207   5.431   7.999   8.030 -1.1398  1.2003  0.2173
36791SOL     OW16208   1.476   1.125   6.325 -0.3248 -0.3786 -0.0040
36791SOL    HW116209   1.386   1.103   6.349 -0.2351 -0.1538  0.5383
36791SOL    HW216210   1.470   1.211   6.285 -0.3627 -0.4058 -0.0576
36792SOL     OW16211   4.558  10.378   0.810 -0.1195  0.1381  0.7799
36792SOL    HW116212   4.650  10.377   0.784 -1.2464 -0.0282 -4.2736
36792SOL    HW216213   4.543  10.468   0.841  1.2916  0.9027 -0.5960
36793SOL     OW16214   5.382   2.137   9.689 -0.1400 -0.1265 -0.8919
36793SOL    HW116215   5.316   2.149   9.620 -0.4145  2.4021 -0.2708
36793SOL    HW216216   5.463   2.119   9.642 -0.9531 -1.9935 -1.7065
36794SOL     OW16217  10.128  10.114   6.661 -0.7615  0.3049  0.0444
36794SOL    HW116218  10.076  10.101   6.582 -1.0487  0.8121  0.1459
36794SOL    HW216219  10.172  10.030   6.675 -0.8064  0.1720 -0.5813
36795SOL     OW16220   2.734   5.688   8.019 -0.1262  0.7680 -0.2232
36795SOL    HW116221   2.784   5.753   7.971 -1.7093  1.4671 -1.0186
36795SOL    HW216222   2.648   5.728   8.031  0.2641  0.8651  3.6673
36796SOL     OW16223   8.561   2.489   9.178  0.4123 -0.2023  0.1083
36796SOL    HW116224   8.611   2.529   9.106  1.8913 -0.9521  0.6738
36796SOL    HW216225   8.521   2.564   9.223 -1.1033  0.2397 -1.8460
36797SOL     OW16226  10.863   6.470   1.466  0.4010  0.1895  0.5410
36797SOL    HW116227  10.854   6.387   1.421  2.0651  0.7322 -0.8695
36797SOL    HW216228  10.936   6.514   1.423 -0.1671  2.2202  1.5101
36798SOL     OW16229   7.953   4.384   3.758  0.5821 -0.3641 -0.3216
36798SOL    HW116230   7.918   4.400   3.671 -2.3426  1.2247  0.9912
36798SOL    HW216231   7.891   4.323   3.798  2.2959 -1.6948  0.4426
36799SOL     OW16232   9.537   4.381   8.385 -0.5737  0.7912  0.4656
36799SOL    HW116233   9.550   4.312   8.320 -0.5362 -0.4648  1.7533
36799SOL    HW216234   9.449   4.414   8.368 -0.4799  0.6422 -0.3517
36800SOL     OW16235  10.865   9.452   6.536  0.2784  0.1626  0.1749
36800SOL    HW116236  10.875   9.357   6.536 -1.2674 -0.0884  2.4805
36800SOL    HW216237  10.915   9.481   6.611  2.1789  1.4480 -1.4915
36801SOL     OW16238   6.981   3.943   2.393 -0.0595 -0.2120 -0.5321
36801SOL    HW116239   6.898   3.913   2.357  0.0256  0.2621 -1.1279
36801SOL    HW216240   6.972   4.037   2.401 -0.2077 -0.3339  1.0463
36802SOL     OW16241   9.923   3.900   9.680  0.4607 -0.5059 -0.2808
36802SOL    HW116242   9.898   3.854   9.600  0.1093 -1.5615  0.4081
36802SOL    HW216243  10.017   3.882   9.689  0.4181 -0.7303 -0.2565
36803SOL     OW16244  10.763   2.911   7.471 -0.6683 -0.9328 -0.5472
36803SOL    HW116245  10.794   2.914   7.562 -1.1728 -3.2803 -0.2186
36803SOL    HW216246  10.835   2.947   7.419 -0.2530  0.1709  0.7387
36804SOL     OW16247  10.777   4.211   2.783 -0.6333 -0.3385 -0.0111
36804SOL    HW116248  10.759   4.297   2.744  0.8119  0.0291  0.0469
36804SOL    HW216249  10.715   4.152   2.740 -1.2652  0.6276 -0.4805
36805SOL     OW16250   9.687   1.831   6.249  0.4320 -0.1120 -0.2566
36805SOL    HW116251   9.740   1.889   6.193  0.4791  1.2213  1.0913
36805SOL    HW216252   9.745   1.811   6.323  0.6433 -2.4625 -0.9766
36806SOL     OW16253   2.609   3.109   7.347  1.2564 -0.2957  0.2513
36806SOL    HW116254   2.555   3.177   7.387  0.4406  0.2651 -1.7157
36806SOL    HW216255   2.692   3.153   7.327  0.5093  0.3480 -1.5918
36807SOL     OW16256   5.272   8.674  10.335 -0.0218  0.2757 -0.2418
36807SOL    HW116257   5.279   8.769  10.339 -0.0797  0.2567  0.3942
36807SOL    HW216258   5.202   8.658  10.272 -2.5859  0.7762  2.2419
36808SOL     OW16259   4.497   3.298  10.049 -0.3102  0.2612  0.2206
36808SOL    HW116260   4.581   3.301  10.003 -0.2487  1.1732  0.3797
36808SOL    HW216261   4.464   3.387  10.045 -1.1491 -0.0312  0.4028
36809SOL     OW16262   6.936  10.314   4.191  0.0975 -0.3775  0.1119
36809SOL    HW116263   6.996  10.365   4.245  0.0179 -0.8628  0.6776
36809SOL    HW216264   6.986  10.235   4.168 -0.3689 -0.8731  0.7432
36810SOL     OW16265   9.912   3.470   7.598  0.0996  0.4122  0.3788
36810SOL    HW116266   9.923   3.499   7.689 -0.0823  0.6066  0.3408
36810SOL    HW216267   9.875   3.547   7.553  1.3019  0.7223 -0.1230
36811SOL     OW16268   1.739   7.276   6.870  0.3351  0.1934 -0.0099
36811SOL    HW116269   1.725   7.324   6.952  1.5014  1.2329 -0.3831
36811SOL    HW216270   1.707   7.188   6.887  1.1756  0.2047  1.7864
36812SOL     OW16271   0.908   7.468   1.362  0.2520  0.2394  0.1540
36812SOL    HW116272   0.939   7.409   1.430  0.6587 -0.5270 -0.6638
36812SOL    HW216273   0.984   7.481   1.305 -0.5283 -0.5454 -1.1058
36813SOL     OW16274   2.543   6.148   7.513  0.0113  0.2785 -0.5541
36813SOL    HW116275   2.515   6.228   7.469 -0.4369 -0.1676 -1.1093
36813SOL    HW216276   2.630   6.130   7.478  0.4183  0.9229  0.1288
36814SOL     OW16277   9.781   6.423   7.268 -0.7164 -0.8947  0.3117
36814SOL    HW116278   9.798   6.348   7.211  0.2780 -1.7066  1.6334
36814SOL    HW216279   9.783   6.387   7.357  0.4666  0.8027  1.0228
36815SOL     OW16280   7.129   3.046   3.004 -0.1973 -0.1709  0.3033
36815SOL    HW116281   7.090   3.007   2.926  0.6817 -0.6911  0.1050
36815SOL    HW216282   7.221   3.062   2.980  0.8126 -2.7456  2.0040
36816SOL     OW16283   2.244   7.704   5.937 -0.4643 -0.7295 -0.0264
36816SOL    HW116284   2.164   7.652   5.934 -0.4312 -1.0455  2.1852
36816SOL    HW216285   2.311   7.648   5.897 -0.7688 -1.7594  0.8394
36817SOL     OW16286   5.437   4.588   3.010  0.6246  0.0799  0.0172
36817SOL    HW116287   5.497   4.519   3.040 -2.5826 -2.2809  1.5959
36817SOL    HW216288   5.435   4.577   2.915  2.1008 -0.2473 -0.0090
36818SOL     OW16289   8.282  10.326   0.660  0.6293 -0.3260 -0.6124
36818SOL    HW116290   8.315  10.239   0.680  1.8228  0.0461 -0.8527
36818SOL    HW216291   8.341  10.385   0.707 -0.7559  0.3314  0.3472
36819SOL     OW16292   5.031   8.059   9.224 -0.3242 -0.4342 -0.2232
36819SOL    HW116293   4.962   7.997   9.245  0.6708 -2.0624 -1.4951
36819SOL    HW216294   5.108   8.027   9.272  0.0519  0.1455 -0.4234
36820SOL     OW16295   1.159   8.865   0.027 -0.2417  0.0021 -0.7735
36820SOL    HW116296   1.109   8.908  -0.043  0.0808  0.8399 -0.5052
36820SOL    HW216297   1.205   8.794  -0.016  0.7329  1.1168 -1.6186
36821SOL     OW16298   0.950   6.318   0.406 -0.1276  0.1012  0.4334
36821SOL    HW116299   0.902   6.265   0.343  0.9080 -2.2247  1.5029
36821SOL    HW216300   1.012   6.368   0.352 -0.0102 -1.0078 -0.4878
36822SOL     OW16301   9.778   1.419   5.887  0.8172 -0.0043 -0.0217
36822SOL    HW116302   9.822   1.399   5.805 -0.1792 -0.7114 -0.3978
36822SOL    HW216303   9.792   1.342   5.942  0.8614  0.1690  0.2165
36823SOL     OW16304   6.933   2.498   4.867  0.4209 -0.3851  0.1492
36823SOL    HW116305   6.989   2.568   4.901 -1.6629  0.8617  1.1841
36823SOL    HW216306   6.947   2.425   4.927 -2.8223  1.6118  3.7932
36824SOL     OW16307   3.023   9.237   6.167  0.0099  0.2473 -0.3889
36824SOL    HW116308   2.961   9.291   6.216 -2.3476  0.5807 -3.4073
36824SOL    HW216309   3.081   9.300   6.123  0.9727  0.0256  0.5272
36825SOL     OW16310   7.463   1.527   9.714  0.1875 -0.5156 -0.0851
36825SOL    HW116311   7.420   1.449   9.750 -0.3419 -1.3144 -2.2373
36825SOL    HW216312   7.456   1.515   9.619  1.9969  1.1344 -0.4764
36826SOL     OW16313   2.519   6.705   4.500 -0.1966  0.5207 -0.1651
36826SOL    HW116314   2.465   6.758   4.441 -0.0679 -1.2572 -2.0256
36826SOL    HW216315   2.467   6.626   4.515  1.4958 -0.9337 -1.4531
36827SOL     OW16316   3.022   9.423  10.875 -0.0114  0.1225  0.1462
36827SOL    HW116317   2.952   9.485  10.895 -1.8856 -1.3688 -1.4437
36827SOL    HW216318   3.019   9.360  10.947  0.5102  0.6907  0.6792
36828SOL     OW16319   2.712   4.028   8.725  0.4649  0.0463 -0.5543
36828SOL    HW116320   2.645   4.038   8.792 -1.5064 -0.2886 -2.3583
36828SOL    HW216321   2.688   3.948   8.678  2.5729 -0.4932 -0.8444
36829SOL     OW16322   4.355   5.341   2.346  0.0419 -0.0846  0.7322
36829SOL    HW116323   4.281   5.312   2.292 -0.1670  0.0689  0.9299
36829SOL    HW216324   4.419   5.271   2.338 -0.6357 -0.8290  1.5584
36830SOL     OW16325   9.585   6.803   0.194  0.8494 -0.5867  0.3695
36830SOL    HW116326   9.672   6.768   0.217  0.6253 -0.4966  1.3885
36830SOL    HW216327   9.545   6.824   0.278 -1.0251 -2.6813  0.0829
36831SOL     OW16328   2.266   0.881   3.263  0.3299 -0.1712 -0.0170
36831SOL    HW116329   2.238   0.800   3.304 -1.8555  0.5467  0.0236
36831SOL    HW216330   2.190   0.910   3.212  1.5898  1.0508 -1.3046
36832SOL     OW16331   7.896   8.177   6.677  0.7729 -0.1024  0.2199
36832SOL    HW116332   7.987   8.173   6.707  0.1657  3.6861  3.3681
36832SOL    HW216333   7.901   8.214   6.589  2.3096  1.6141  0.9698
36833SOL     OW16334  10.138   1.549  10.844 -0.2617  0.4642  0.3794
36833SOL    HW116335  10.182   1.464  10.845  1.9528  1.5188  0.4822
36833SOL    HW216336  10.090   1.552  10.927 -0.7286 -0.8350  0.1773
36834SOL     OW16337   9.108   7.053   4.092  0.5930 -0.0119  0.5594
36834SOL    HW116338   9.053   7.033   4.168 -1.8987  1.9780 -0.5998
36834SOL    HW216339   9.077   6.993   4.024 -0.8001  1.6276 -0.3230
36835SOL     OW16340   4.112   6.194   2.880 -0.1688  0.0517  0.5931
36835SOL    HW116341   4.152   6.143   2.809  0.0908  1.5981 -0.4269
36835SOL    HW216342   4.164   6.173   2.957 -0.5816 -1.8284  0.4088
36836SOL     OW16343   1.025   0.393   4.293 -0.5549  0.4892 -0.5451
36836SOL    HW116344   1.040   0.454   4.220 -2.2860 -0.0819 -1.4428
36836SOL    HW216345   0.973   0.444   4.356 -1.1116  0.2868 -0.8271
36837SOL     OW16346   9.977   0.455   7.111  0.2693 -0.2521 -0.0449
36837SOL    HW116347  10.002   0.429   7.022  0.6421 -0.6485  0.1681
36837SOL    HW216348  10.050   0.510   7.140  0.7873 -1.1915  0.4844
36838SOL     OW16349   1.157   9.329   8.639  0.1812 -0.2118 -0.1235
36838SOL    HW116350   1.103   9.255   8.616 -0.2109  0.1602 -0.4086
36838SOL    HW216351   1.168   9.379   8.558 -1.1586  1.0642  0.4360
36839SOL     OW16352   4.307   2.613   2.071  0.3335 -0.0213 -0.2025
36839SOL    HW116353   4.397   2.646   2.069  0.5566 -0.6115 -0.0048
36839SOL    HW216354   4.312   2.526   2.032 -0.2363  0.1245 -0.6246
36840SOL     OW16355   8.242   4.780   1.923  0.0315 -0.2837  0.1467
36840SOL    HW116356   8.154   4.785   1.886  0.3037 -1.9844 -0.8247
36840SOL    HW216357   8.279   4.867   1.910 -1.9390  0.8863  1.8140
36841SOL     OW16358   4.952   3.424  10.902  0.1446 -0.1908  0.2931
36841SOL    HW116359   4.921   3.472  10.978 -1.3023 -1.0059  0.2488
36841SOL    HW216360   4.917   3.336  10.912  1.8763 -0.9837 -0.1543
36842SOL     OW16361   6.817   7.467   5.323  1.1636  0.2698  0.0880
36842SOL    HW116362   6.876   7.449   5.396  0.8088  1.5629  0.7188
36842SOL    HW216363   6.870   7.515   5.260  1.1130  0.3347  0.0948
36843SOL     OW16364   8.172   2.386   3.690 -0.3710  0.5210  0.7232
36843SOL    HW116365   8.077   2.399   3.699 -0.4526 -1.0230  2.8404
36843SOL    HW216366   8.189   2.304   3.736  2.0508  0.9160  0.6387
36844SOL     OW16367   9.868   4.133   9.364  0.6774 -0.0977  0.3655
36844SOL    HW116368   9.887   4.201   9.429  2.8425 -0.8300  0.5879
36844SOL    HW216369   9.772   4.131   9.358  0.5001  1.5372  1.8498
36845SOL     OW16370   4.458   4.346   5.012 -0.1447 -0.3369 -0.4071
36845SOL    HW116371   4.443   4.281   4.944 -1.1515  1.2367 -1.7495
36845SOL    HW216372   4.505   4.417   4.968 -1.5575  1.0808  0.2891
36846SOL     OW16373   2.689   1.275   6.142  0.4898 -0.7875  0.1092
36846SOL    HW116374   2.763   1.232   6.100 -0.8316 -0.1521 -3.2099
36846SOL    HW216375   2.615   1.216   6.125 -0.2662 -0.0461  0.7544
36847SOL     OW16376   4.510   5.774   6.449 -0.3205  0.3411  0.4185
36847SOL    HW116377   4.430   5.723   6.437  0.8913 -1.7434  0.6547
36847SOL    HW216378   4.512   5.793   6.543  0.1441 -0.9022  0.6871
36848SOL     OW16379   2.499   6.979   4.973  0.4181 -0.1089  0.5347
36848SOL    HW116380   2.587   7.005   4.947  0.4221  0.3695  1.0287
36848SOL    HW216381   2.492   7.004   5.065 -0.9408  1.7544 -0.0223
36849SOL     OW16382   7.256   5.562   5.494 -0.1048  0.6892  0.2902
36849SOL    HW116383   7.197   5.601   5.429  1.1625  1.9889 -0.1348
36849SOL    HW216384   7.343   5.573   5.456  0.4181 -1.5069  0.7332
36850SOL     OW16385   4.634   2.599   9.944  0.9833  0.0184  0.2030
36850SOL    HW116386   4.644   2.508   9.971 -0.2521 -0.0201  0.5947
36850SOL    HW216387   4.714   2.642   9.975  2.9020 -1.4132 -2.3375
36851SOL     OW16388  10.196   7.226   8.653  0.3218 -0.0753  0.3808
36851SOL    HW116389  10.166   7.211   8.564  2.4470 -2.1769 -0.0666
36851SOL    HW216390  10.123   7.195   8.708 -0.0461 -1.0666 -0.6332
36852SOL     OW16391   6.280   2.739   2.314  0.1246  0.1970 -0.0545
36852SOL    HW116392   6.259   2.781   2.397  1.4422  0.7135  0.0422
36852SOL    HW216393   6.195   2.710   2.279 -1.0745  3.8193 -0.6110
36853SOL     OW16394   9.652   5.342   7.677  0.7589 -0.3383 -0.2059
36853SOL    HW116395   9.658   5.246   7.674  1.8672 -0.2681 -1.8870
36853SOL    HW216396   9.741   5.370   7.699  0.0395  0.3081  2.1189
36854SOL     OW16397   0.518   8.708   1.932 -0.4907  0.6313  0.2023
36854SOL    HW116398   0.544   8.793   1.894 -3.0306  1.9434  1.2031
36854SOL    HW216399   0.548   8.712   2.023  1.0577 -0.3994 -0.2177
36855SOL     OW16400   5.321   7.225   0.721  0.2668 -0.1367 -0.4744
36855SOL    HW116401   5.294   7.268   0.639  0.5388  0.8364 -0.0627
36855SOL    HW216402   5.279   7.139   0.717 -2.0067  0.8954 -0.3760
36856SOL     OW16403   7.599   8.226   2.108 -0.6107  0.7528  1.0390
36856SOL    HW116404   7.629   8.273   2.030  0.3949  1.6002  1.9080
36856SOL    HW216405   7.550   8.151   2.073 -1.2772  1.8004 -0.3857
36857SOL     OW16406   2.316   0.160   3.799 -0.2015 -0.0103  0.5811
36857SOL    HW116407   2.278   0.185   3.715 -0.3659  0.4516  0.7888
36857SOL    HW216408   2.381   0.228   3.818  2.0982 -1.7027 -0.6309
36858SOL     OW16409   9.749   5.434   9.374  0.1803  0.0681 -0.3505
36858SOL    HW116410   9.773   5.464   9.461 -0.9407  0.7774 -0.2690
36858SOL    HW216411   9.761   5.339   9.378 -0.3071  0.0389  0.7174
36859SOL     OW16412   7.781   3.656   5.254  0.5398  0.3650 -0.0867
36859SOL    HW116413   7.793   3.720   5.183 -0.8416  1.8685  0.9643
36859SOL    HW216414   7.698   3.680   5.294  1.0432 -0.7485  1.7514
36860SOL     OW16415   9.466   8.043   4.413 -0.3107 -0.3061 -0.0455
36860SOL    HW116416   9.474   7.993   4.332  2.2805 -0.1087  0.0137
36860SOL    HW216417   9.540   8.104   4.411 -0.4380  0.0056  2.2511
36861SOL     OW16418  10.522   6.878   0.658 -0.1275  0.1816 -0.1242
36861SOL    HW116419  10.560   6.962   0.633  2.5170 -0.5865  0.9871
36861SOL    HW216420  10.558   6.816   0.595  2.1569 -0.8610  2.0355
36862SOL     OW16421   8.020   5.039   4.148  0.0050 -0.1040  0.0006
36862SOL    HW116422   7.988   5.011   4.234 -1.0016 -3.7949 -1.3849
36862SOL    HW216423   8.114   5.052   4.160  0.1630 -2.1104  1.3766
36863SOL     OW16424   5.037   3.625   4.811 -0.0940 -0.0296 -0.2298
36863SOL    HW116425   4.974   3.554   4.818  1.8352 -1.7057  1.2193
36863SOL    HW216426   5.122   3.584   4.825  0.9978  2.7641  2.6350
36864SOL     OW16427   4.142   6.957   5.068  0.2608 -0.5376  0.8855
36864SOL    HW116428   4.111   6.892   5.004  1.2814  0.1083 -0.2957
36864SOL    HW216429   4.112   6.923   5.153 -1.0909 -1.4358  0.0892
36865SOL     OW16430   7.461   4.036   9.051  0.3961 -0.0390 -0.4877
36865SOL    HW116431   7.468   4.008   8.960 -1.1327 -1.2012 -0.2914
36865SOL    HW216432   7.441   3.956   9.100  0.2958  0.7004  0.7402
36866SOL     OW16433   0.853   8.342   0.469  0.1779  0.4228  0.4950
36866SOL    HW116434   0.860   8.316   0.561 -0.8487 -0.9433  0.2213
36866SOL    HW216435   0.933   8.309   0.429 -0.6452 -1.6025  0.3650
36867SOL     OW16436   3.567   1.343   5.867 -0.0347 -0.6041  0.5188
36867SOL    HW116437   3.516   1.421   5.843  0.5029 -0.5087 -0.3645
36867SOL    HW216438   3.504   1.271   5.865 -0.3813 -0.3059  0.6182
36868SOL     OW16439   7.827   0.864   4.180  0.0800  0.0351  0.5823
36868SOL    HW116440   7.823   0.866   4.276  1.8704  0.6878  0.6825
36868SOL    HW216441   7.861   0.777   4.159 -3.5319 -1.4437  0.3014
36869SOL     OW16442   4.972  10.192   5.970  0.3962  0.0504 -0.8048
36869SOL    HW116443   5.053  10.237   5.994  0.3322 -0.5153  0.5648
36869SOL    HW216444   4.978  10.107   6.015 -1.1370  0.1569 -0.3587
36870SOL     OW16445   3.484   6.427  10.578  0.6995 -0.0613  0.3194
36870SOL    HW116446   3.432   6.456  10.653  1.7911 -0.3471  1.2068
36870SOL    HW216447   3.514   6.340  10.602  2.4742  0.5135  0.3026
36871SOL     OW16448  10.399   9.479   7.112 -0.2418  0.3065 -0.3844
36871SOL    HW116449  10.396   9.510   7.022 -0.0143  0.5901 -0.2972
36871SOL    HW216450  10.478   9.519   7.149  0.3126 -0.7354 -0.3950
36872SOL     OW16451   1.282   2.387   7.342  1.0674 -0.3970  0.2929
36872SOL    HW116452   1.251   2.453   7.279  1.0850 -0.8887 -0.2370
36872SOL    HW216453   1.355   2.429   7.387  0.3650  0.3619  0.7541
36873SOL     OW16454   4.686   7.134   2.275  0.4431 -0.1364 -0.3900
36873SOL    HW116455   4.654   7.154   2.188  0.0695 -2.9498 -0.9962
36873SOL    HW216456   4.734   7.212   2.302  0.5486  0.8237 -3.0938
36874SOL     OW16457   1.147   6.604   8.352  0.7919  0.4325 -0.0632
36874SOL    HW116458   1.159   6.571   8.263  0.1583 -0.6716  0.2533
36874SOL    HW216459   1.053   6.600   8.367  0.9220  0.3189  0.7682
36875SOL     OW16460   2.837   0.642   6.479  0.2887  0.3176 -0.3238
36875SOL    HW116461   2.807   0.565   6.527  0.8096  0.7745  0.7828
36875SOL    HW216462   2.914   0.612   6.431  0.6577  0.1975  0.3279
36876SOL     OW16463   2.493   4.686   5.590 -0.1686 -0.3898 -0.0765
36876SOL    HW116464   2.410   4.728   5.614  0.0614  0.7451 -1.1099
36876SOL    HW216465   2.498   4.608   5.644 -1.2710  0.2401  0.9788
36877SOL     OW16466   3.905   6.512  10.816 -0.0615  1.0665  0.3775
36877SOL    HW116467   3.872   6.423  10.804  1.1433  0.8641 -1.9623
36877SOL    HW216468   3.972   6.504  10.884  0.4291  0.0595 -0.2031
36878SOL     OW16469   4.046   7.297   8.237 -0.1964  0.0863 -0.6370
36878SOL    HW116470   4.032   7.345   8.156  1.2243 -0.6214 -1.3416
36878SOL    HW216471   4.131   7.254   8.225 -0.0613 -0.2175  1.1336
36879SOL     OW16472  10.188   7.596   8.504 -0.4249 -0.4284  0.0004
36879SOL    HW116473  10.173   7.561   8.591  2.0870 -0.1269  0.6375
36879SOL    HW216474  10.160   7.688   8.510  1.8036  0.2310  1.2347
36880SOL     OW16475   8.767   5.404   2.290  0.0666 -0.3709 -0.1764
36880SOL    HW116476   8.812   5.470   2.343  0.0897 -0.0371 -0.6031
36880SOL    HW216477   8.833   5.337   2.274  0.1305 -0.3536  0.0130
36881SOL     OW16478   7.646   8.569   6.746  0.0221  0.0585 -0.8380
36881SOL    HW116479   7.702   8.528   6.812  0.6995  1.4022 -0.5481
36881SOL    HW216480   7.569   8.511   6.741 -1.5125  1.3462  3.2978
36882SOL     OW16481   0.252   1.639   1.070 -0.4469  0.0348  0.3951
36882SOL    HW116482   0.347   1.634   1.069 -0.5227 -3.2910  0.4584
36882SOL    HW216483   0.230   1.677   0.984  0.8705  2.8304  1.1684
36883SOL     OW16484   1.012  10.130   5.417 -0.5797  0.5158 -0.2152
36883SOL    HW116485   0.979  10.125   5.327 -1.6881  0.4149  0.1793
36883SOL    HW216486   0.995  10.220   5.444  1.7626  1.2263 -0.8041
36884SOL     OW16487  10.587   5.561   7.658  0.2795 -0.4006 -0.0360
36884SOL    HW116488  10.501   5.594   7.629  0.1621 -2.4718 -2.4017
36884SOL    HW216489  10.648   5.595   7.593  0.4842 -2.7314 -1.1520
36885SOL     OW16490   5.636   0.680   7.417 -0.4444 -0.4130  0.0722
36885SOL    HW116491   5.632   0.745   7.487 -0.1597 -0.1633 -0.1435
36885SOL    HW216492   5.727   0.681   7.388 -0.1611 -1.7049  0.8203
36886SOL     OW16493   0.282  10.290   8.388 -0.7173  0.0864  0.0758
36886SOL    HW116494   0.246  10.361   8.440 -1.6696  0.6146 -1.2484
36886SOL    HW216495   0.333  10.238   8.450 -1.3536  0.9928  1.3965
36887SOL     OW16496   5.497   7.678   6.495  0.3880 -0.4832 -0.1358
36887SOL    HW116497   5.433   7.614   6.528  2.0749 -1.2099  1.9691
36887SOL    HW216498   5.449   7.760   6.491 -1.6141 -1.6419 -2.0909
36888SOL     OW16499   5.928   2.429   5.443  0.1569 -0.2856 -0.6636
36888SOL    HW116500   5.844   2.423   5.397  1.0427 -1.6417 -2.2426
36888SOL    HW216501   5.989   2.462   5.377  0.9796  0.1996  0.3131
36889SOL     OW16502   8.553   6.451   6.213 -0.1842 -0.4754  0.5414
36889SOL    HW116503   8.470   6.411   6.236  0.7761 -2.3419  0.9962
36889SOL    HW216504   8.607   6.440   6.292  0.7839 -0.1780 -0.0608
36890SOL     OW16505   1.620   7.515   6.181  0.4998  0.7466 -0.4226
36890SOL    HW116506   1.571   7.491   6.260  1.2333  2.8075  0.7347
36890SOL    HW216507   1.684   7.579   6.211  1.3697  0.9645 -2.5723
36891SOL     OW16508   1.112   7.282   8.589 -0.1888 -0.7037 -0.8899
36891SOL    HW116509   1.164   7.208   8.620 -0.1403 -0.3816 -0.1607
36891SOL    HW216510   1.024   7.266   8.624 -0.0351 -0.1255 -0.1971
36892SOL     OW16511   6.470  10.688   9.020  0.0527 -0.0773  0.3171
36892SOL    HW116512   6.555  10.727   9.039  0.0416  0.1916 -0.1684
36892SOL    HW216513   6.407  10.756   9.045  0.0733  0.8387 -1.8727
36893SOL     OW16514  10.578   6.447  10.452 -0.0701 -0.2669  0.2908
36893SOL    HW116515  10.638   6.459  10.378 -0.6857 -1.2777 -0.4106
36893SOL    HW216516  10.549   6.535  10.474  0.0886  0.0530 -0.7110
36894SOL     OW16517   1.391   2.073  10.903 -0.3644  0.2824  0.7451
36894SOL    HW116518   1.402   2.160  10.941  1.3594  0.2927  0.2962
36894SOL    HW216519   1.357   2.089  10.815 -0.0267  0.5108  0.6555
36895SOL     OW16520   6.551   6.022   0.930  0.4865 -0.3284  0.1142
36895SOL    HW116521   6.496   5.991   1.002  1.5343 -0.8755  0.6931
36895SOL    HW216522   6.540   6.117   0.932 -1.5440 -0.4904 -0.7075
36896SOL     OW16523   8.313   7.751   8.576  0.7838 -0.5065 -0.5070
36896SOL    HW116524   8.325   7.723   8.667 -1.7047 -2.0918 -0.5801
36896SOL    HW216525   8.323   7.846   8.579 -0.2614 -0.4046  1.6442
36897SOL     OW16526   1.540   6.702   7.124  0.2793 -0.2951  0.1023
36897SOL    HW116527   1.466   6.761   7.114  0.3161 -0.4027 -0.8357
36897SOL    HW216528   1.543   6.652   7.043  1.3613 -0.3139  0.1361
36898SOL     OW16529  10.645   0.929   5.564  0.0594  0.1847  0.6466
36898SOL    HW116530  10.551   0.943   5.551  0.0023 -0.0490  0.8159
36898SOL    HW216531  10.687   0.989   5.501 -0.1922 -3.5622 -3.5413
36899SOL     OW16532   0.036   6.254   4.864  0.3491  0.2929  0.0991
36899SOL    HW116533  -0.055   6.282   4.852  0.6893  1.4776  0.1646
36899SOL    HW216534   0.071   6.246   4.775  0.5817  1.2669  0.0874
36900SOL     OW16535   3.603   0.279   6.537  0.7599 -0.2313  0.7788
36900SOL    HW116536   3.565   0.260   6.451 -0.2806 -1.1252  1.4095
36900SOL    HW216537   3.696   0.258   6.526  0.6813 -0.1430 -0.1826
36901SOL     OW16538   9.631   3.805   0.777 -0.1816  0.0498  0.6226
36901SOL    HW116539   9.694   3.757   0.724 -1.2794 -2.3506  1.3344
36901SOL    HW216540   9.683   3.843   0.848  1.1782  2.6815 -1.6117
36902SOL     OW16541   9.550   1.906   8.609  0.2834  0.1859  0.0290
36902SOL    HW116542   9.504   1.944   8.534  0.1606  1.9521  0.9308
36902SOL    HW216543   9.636   1.946   8.607  1.0703 -1.4496 -0.3948
36903SOL     OW16544   9.770   3.372   8.644  0.1608  0.0449  0.1042
36903SOL    HW116545   9.845   3.330   8.685 -0.6812 -0.3096  1.3299
36903SOL    HW216546   9.707   3.385   8.715 -0.2873  1.8441 -0.5707
36904SOL     OW16547   6.041   5.329   5.535  0.3048 -0.3212 -0.3678
36904SOL    HW116548   5.955   5.350   5.499 -0.0358  0.1164  0.6662
36904SOL    HW216549   6.023   5.284   5.617  1.0616 -0.5788 -0.3352
36905SOL     OW16550   8.192   3.640   3.003 -0.8447 -0.1406 -0.1603
36905SOL    HW116551   8.146   3.583   2.942 -0.2902 -0.9230  0.1442
36905SOL    HW216552   8.263   3.587   3.038  0.5352  1.1545 -0.8910
36906SOL     OW16553   4.157   7.358   9.255 -0.1060 -0.4497 -0.0139
36906SOL    HW116554   4.071   7.333   9.290 -0.8446 -1.0516 -2.0926
36906SOL    HW216555   4.206   7.276   9.251 -1.0368 -0.9956 -2.8615
36907SOL     OW16556  10.686   8.060   6.553 -0.2690  0.2281  0.1537
36907SOL    HW116557  10.676   8.121   6.626 -0.4837 -1.2733  1.4386
36907SOL    HW216558  10.744   7.992   6.586 -2.5082 -1.9493 -0.0288
36908SOL     OW16559   1.774   1.693   2.256  0.5488  0.0395  0.4459
36908SOL    HW116560   1.854   1.744   2.253  0.1951  0.5809  0.0121
36908SOL    HW216561   1.792   1.623   2.319  0.9137  0.8952  1.3071
36909SOL     OW16562   3.225   4.430   0.537  0.4392 -0.1860 -0.0976
36909SOL    HW116563   3.310   4.426   0.492 -0.3630 -2.2121 -1.5714
36909SOL    HW216564   3.186   4.511   0.506  1.5279  0.4247  0.0566
36910SOL     OW16565   2.518   7.708   9.431 -0.0006  0.4661 -0.5506
36910SOL    HW116566   2.492   7.667   9.513  1.1217 -0.8030 -0.8041
36910SOL    HW216567   2.524   7.801   9.452  0.6550  0.1192  0.9182
36911SOL     OW16568   1.907  10.701   0.635  0.1325 -0.1666 -0.2206
36911SOL    HW116569   1.888  10.748   0.716  0.6058  0.0554 -0.2387
36911SOL    HW216570   1.829  10.717   0.581  0.3869  0.8287 -0.3284
36912SOL     OW16571  10.752   2.007   4.550  0.5375 -0.0377 -0.1383
36912SOL    HW116572  10.795   1.922   4.544 -1.6281 -1.1168 -1.4777
36912SOL    HW216573  10.724   2.014   4.642  1.3566 -0.4325  0.1465
36913SOL     OW16574   0.236   6.898   0.855 -0.0273 -0.2707  0.1116
36913SOL    HW116575   0.161   6.924   0.908 -0.4305 -1.5411  0.1959
36913SOL    HW216576   0.231   6.954   0.778  0.2390  1.2116  1.1140
36914SOL     OW16577   7.395   3.067   7.545 -0.9056 -0.6441 -0.7815
36914SOL    HW116578   7.353   3.092   7.463 -1.9579  0.4378  0.0383
36914SOL    HW216579   7.328   3.018   7.592 -0.9806  0.3476  0.1886
36915SOL     OW16580   1.923   0.067   7.118 -0.4746 -0.1167 -0.1133
36915SOL    HW116581   1.850   0.114   7.158 -0.1714 -1.4116  2.1344
36915SOL    HW216582   1.888  -0.020   7.101  0.4344 -0.6506  0.6927
36916SOL     OW16583   9.943   9.675   4.076  0.6006  0.0876 -0.0348
36916SOL    HW116584   9.956   9.652   4.168 -0.4197  0.7646  0.2942
36916SOL    HW216585  10.005   9.745   4.060 -0.1676  0.9174  0.5411
36917SOL     OW16586   0.410   9.540   2.319  0.4744 -0.2122  0.0198
36917SOL    HW116587   0.366   9.462   2.287  1.6616 -1.2545  0.8366
36917SOL    HW216588   0.502   9.516   2.324  0.6585  0.6581  1.8672
36918SOL     OW16589   3.414   7.511   2.519 -0.0538 -0.2332 -0.0050
36918SOL    HW116590   3.319   7.505   2.509 -0.1033  0.5131 -0.0254
36918SOL    HW216591   3.431   7.474   2.606 -0.5122  0.8243  0.5559
36919SOL     OW16592   4.744   2.255   9.881 -0.0643  0.1516 -0.4333
36919SOL    HW116593   4.698   2.280   9.961  0.4699 -0.1843 -0.0188
36919SOL    HW216594   4.768   2.163   9.895  1.0533  0.4221 -0.4917
36920SOL     OW16595   7.656   2.670   4.447  0.0245 -0.7455 -0.0159
36920SOL    HW116596   7.585   2.731   4.428 -0.7887 -1.7030 -0.1253
36920SOL    HW216597   7.697   2.653   4.362  1.4627  1.0395  0.2476
36921SOL     OW16598   9.622   5.322  10.876 -0.1706  0.4690  0.4468
36921SOL    HW116599   9.624   5.368  10.791 -0.3260  0.9503  0.6967
36921SOL    HW216600   9.630   5.392  10.941  0.6601  0.0413  0.8229
36922SOL     OW16601   5.699   2.201   3.078  0.1936  1.0368  0.5963
36922SOL    HW116602   5.763   2.239   3.138 -0.6741  0.8703  1.6607
36922SOL    HW216603   5.615   2.211   3.123 -0.1403 -1.8835  0.8275
36923SOL     OW16604  10.874   7.255   7.593 -0.5760  0.3273  0.2894
36923SOL    HW116605  10.823   7.330   7.562 -0.3755  0.1420 -0.4959
36923SOL    HW216606  10.819   7.179   7.574 -0.9217  0.2879  1.3799
36924SOL     OW16607   2.594   2.707   9.312  0.0862  0.0927  0.1491
36924SOL    HW116608   2.573   2.732   9.402  0.1309  0.7322 -0.0123
36924SOL    HW216609   2.510   2.687   9.272  0.0567 -0.0994  0.3088
36925SOL     OW16610   1.490   8.031   5.721  0.0512  0.5378  0.2545
36925SOL    HW116611   1.418   7.980   5.684  1.1884 -0.6926 -0.3331
36925SOL    HW216612   1.453   8.118   5.734 -1.6482 -0.1508  0.3242
36926SOL     OW16613   2.734   4.479  10.831  0.6656 -0.1390  0.5298
36926SOL    HW116614   2.648   4.479  10.873 -0.2201 -1.0787 -1.1669
36926SOL    HW216615   2.764   4.569  10.838 -0.7555  0.3548  0.5685
36927SOL     OW16616   2.886   9.531   8.627 -0.5747  0.2597 -0.7259
36927SOL    HW116617   2.813   9.564   8.680 -1.1201  0.2316 -1.4326
36927SOL    HW216618   2.906   9.603   8.566  0.2268  0.3988 -0.3111
36928SOL     OW16619   0.122   2.718   7.729 -0.1386 -0.1958 -0.2127
36928SOL    HW116620   0.173   2.788   7.689  0.3238 -0.4602 -0.0850
36928SOL    HW216621   0.117   2.741   7.822  1.0384 -0.9401  0.0554
36929SOL     OW16622   0.054   6.648   6.881 -0.1101 -0.2038  0.2084
36929SOL    HW116623   0.057   6.677   6.790  0.4463 -0.0192  0.2791
36929SOL    HW216624  -0.029   6.682   6.915 -0.0000  0.3091 -0.0366
36930SOL     OW16625   0.354   6.736   8.954 -0.3177  0.3157 -0.4105
36930SOL    HW116626   0.317   6.792   9.022 -0.2962  0.6916 -0.7102
36930SOL    HW216627   0.287   6.732   8.886 -1.0585 -1.4350  0.3617
36931SOL     OW16628   8.626   0.732   7.219 -0.0611 -0.2090  0.0237
36931SOL    HW116629   8.616   0.825   7.239  0.2345 -0.4842  1.6566
36931SOL    HW216630   8.629   0.727   7.124 -2.1311  1.2330 -0.1878
36932SOL     OW16631   5.129   5.838   3.048 -0.2391  0.1131  0.2470
36932SOL    HW116632   5.052   5.808   2.999 -0.2353  0.1670  0.2088
36932SOL    HW216633   5.137   5.774   3.119 -1.5036  1.2026  1.4422
36933SOL     OW16634   7.323   0.991   8.317  0.3827  0.9363  0.2878
36933SOL    HW116635   7.322   1.042   8.398  0.5878  0.3159  0.6864
36933SOL    HW216636   7.233   0.997   8.284  0.3087  1.2311  0.5359
36934SOL     OW16637   4.712  10.140   6.069 -0.1855 -0.1446 -0.3224
36934SOL    HW116638   4.806  10.147   6.051 -0.5698 -1.0813 -3.2413
36934SOL    HW216639   4.688  10.226   6.103  1.5709  0.3393 -0.1675
36935SOL     OW16640   9.462   2.962   1.097  0.2169 -0.9638  0.2263
36935SOL    HW116641   9.543   3.005   1.125  0.9064 -2.6237  0.8811
36935SOL    HW216642   9.483   2.869   1.096 -1.2742 -1.3294 -1.0345
36936SOL     OW16643   2.410   7.004   6.808 -0.2331 -0.1501  0.7064
36936SOL    HW116644   2.478   6.948   6.847  0.2329 -0.6363 -0.7240
36936SOL    HW216645   2.368   7.046   6.883  1.8679  0.4416  1.6502
36937SOL     OW16646   9.315   6.275   7.426 -0.2910 -0.2756 -0.5045
36937SOL    HW116647   9.226   6.277   7.392 -0.6036  1.8946  0.2591
36937SOL    HW216648   9.359   6.349   7.384  0.4016  0.1864  0.9378
36938SOL     OW16649   4.522   0.269   5.100 -0.0277 -0.3685 -0.4750
36938SOL    HW116650   4.563   0.265   5.014 -0.0729  0.3358 -0.5390
36938SOL    HW216651   4.586   0.313   5.156  0.0975 -1.0322 -0.0859
36939SOL     OW16652   3.330  10.778   6.847 -0.1077 -0.2912  0.6041
36939SOL    HW116653   3.354  10.858   6.894 -1.0324  1.1879 -1.3173
36939SOL    HW216654   3.389  10.775   6.772 -1.2534 -0.3973 -0.3259
36940SOL     OW16655   2.952   3.702   5.582  0.4800  0.4225 -0.3103
36940SOL    HW116656   2.993   3.779   5.621  1.4438  0.3939 -1.2153
36940SOL    HW216657   2.898   3.737   5.511 -0.8657  0.4340  0.6902
36941SOL     OW16658   7.552   7.680   5.578 -0.2325  0.3503  0.7101
36941SOL    HW116659   7.532   7.702   5.668 -1.8109  0.1214  0.4481
36941SOL    HW216660   7.583   7.762   5.539  0.2615  0.4953  1.3891
36942SOL     OW16661   8.312  10.393   0.367 -0.5847  0.1281 -0.3631
36942SOL    HW116662   8.277  10.358   0.450 -0.5179 -0.2209 -0.4783
36942SOL    HW216663   8.342  10.481   0.389 -0.6483  0.0716 -0.0347
36943SOL     OW16664   9.724   3.777   8.653  0.4283  0.1648 -0.2231
36943SOL    HW116665   9.786   3.739   8.591  2.4948  0.6209  1.4411
36943SOL    HW216666   9.777   3.832   8.710 -1.5635  0.7674  1.1802
36944SOL     OW16667  10.124   9.248   9.860 -0.2904  0.2828  0.6153
36944SOL    HW116668  10.113   9.324   9.803 -0.5902  0.4154  0.8448
36944SOL    HW216669  10.055   9.258   9.927 -0.7823 -0.5466  0.2531
36945SOL     OW16670  10.152   0.472   8.602  0.2397  0.4863  0.3775
36945SOL    HW116671  10.155   0.414   8.526 -1.2753  2.0299 -0.9527
36945SOL    HW216672  10.243   0.478   8.632  0.4532 -2.5986  0.6923
36946SOL     OW16673   2.062   0.362   3.359 -0.4196  0.0070 -0.1867
36946SOL    HW116674   2.027   0.284   3.401 -1.0145  0.4169  0.0825
36946SOL    HW216675   1.990   0.425   3.359  0.2830  0.8493  0.3388
36947SOL     OW16676   6.397   6.900   1.800  0.0190 -0.0299  0.2650
36947SOL    HW116677   6.352   6.971   1.755 -1.1934 -0.6936  0.4086
36947SOL    HW216678   6.471   6.879   1.743 -1.9477 -1.4482 -1.9236
36948SOL     OW16679  10.373   2.693  10.436 -0.2134 -0.0423  0.0142
36948SOL    HW116680  10.317   2.740  10.497 -2.8906  0.5681 -2.6770
36948SOL    HW216681  10.407   2.761  10.378  0.5746 -0.8326 -0.4751
36949SOL     OW16682   3.025   1.100   4.239 -0.0204  0.3589  0.5373
36949SOL    HW116683   2.952   1.081   4.180  0.5458  0.4839 -0.2058
36949SOL    HW216684   3.067   1.016   4.254  0.1220  0.4037  0.3864
36950SOL     OW16685   2.299   0.985   2.640  0.5308 -0.3472  0.1994
36950SOL    HW116686   2.263   0.942   2.717  0.2426 -1.5127 -0.5524
36950SOL    HW216687   2.226   0.989   2.578  1.0021 -0.3217 -0.3665
36951SOL     OW16688   8.049   5.408   7.759 -0.2901  0.1990 -0.1147
36951SOL    HW116689   8.120   5.451   7.711  0.1535 -1.7162 -1.2672
36951SOL    HW216690   8.018   5.475   7.820  1.5151  1.5705 -0.5986
36952SOL     OW16691   9.424   4.702   5.582 -0.0809  0.3261  0.1557
36952SOL    HW116692   9.460   4.721   5.496 -0.0920 -0.7150 -0.0965
36952SOL    HW216693   9.352   4.765   5.593  1.0424  1.6418  0.1752
36953SOL     OW16694   2.442   3.347   4.862  0.2604  0.2570  0.7124
36953SOL    HW116695   2.443   3.433   4.904  0.0173  0.4313  0.3624
36953SOL    HW216696   2.393   3.291   4.923 -1.4358  0.8745 -0.0337
36954SOL     OW16697   9.557   5.189   1.723  0.4156 -0.1159  0.2615
36954SOL    HW116698   9.511   5.262   1.766  2.0945 -0.4450  2.8126
36954SOL    HW216699   9.612   5.152   1.791  3.0941 -0.9097 -2.1577
36955SOL     OW16700   7.046   8.194   5.981 -0.0907 -0.1017  0.3680
36955SOL    HW116701   7.031   8.101   5.961 -1.2068 -0.1954  1.5116
36955SOL    HW216702   7.126   8.216   5.934 -0.1041 -1.4970 -0.3699
36956SOL     OW16703   8.026   2.552   4.380  0.2572  0.0827 -0.0471
36956SOL    HW116704   8.010   2.519   4.292  1.0094  1.9409 -0.9262
36956SOL    HW216705   8.113   2.521   4.402  0.3537  0.2018 -0.2580
36957SOL     OW16706   0.706   7.121   7.148 -0.3025  0.2999 -0.2516
36957SOL    HW116707   0.798   7.132   7.122 -0.9149  2.3315 -1.7465
36957SOL    HW216708   0.710   7.059   7.221  2.1576 -0.3885 -0.8621
36958SOL     OW16709   1.334   7.653   6.341  0.2834  0.0161  0.0217
36958SOL    HW116710   1.401   7.594   6.377  1.5643  0.0924 -2.0181
36958SOL    HW216711   1.334   7.729   6.399  3.7273  1.0649 -1.0893
36959SOL     OW16712   6.973   1.438   9.020  0.5073  0.0306  1.0880
36959SOL    HW116713   6.992   1.478   9.105  0.1187  0.0331  1.1765
36959SOL    HW216714   7.048   1.381   9.003  0.6612  0.1486  1.3609
36960SOL     OW16715   8.411   9.724  10.719 -0.7878  0.1669  0.3601
36960SOL    HW116716   8.327   9.749  10.757 -0.9984 -0.1412  0.1079
36960SOL    HW216717   8.420   9.632  10.743 -1.0207 -0.0884 -0.4998
36961SOL     OW16718   1.295   0.484   3.870  1.0259 -0.1738  0.4008
36961SOL    HW116719   1.261   0.466   3.783  0.1184 -0.8122  0.8699
36961SOL    HW216720   1.249   0.562   3.899 -0.6338 -1.4256  1.3083
36962SOL     OW16721   5.157   8.486   3.472  0.0093 -0.2959  0.3578
36962SOL    HW116722   5.226   8.426   3.444  0.1219  0.3713 -0.8745
36962SOL    HW216723   5.204   8.567   3.495 -0.3911  0.5904 -1.6783
36963SOL     OW16724   1.121   0.085   3.831  0.2063 -0.3471 -0.2804
36963SOL    HW116725   1.033   0.061   3.802  0.1133  0.4150 -0.6502
36963SOL    HW216726   1.149   0.011   3.886 -0.7623 -0.4802  0.0603
36964SOL     OW16727   5.752   3.883   0.518  0.3375 -0.3458 -0.6283
36964SOL    HW116728   5.820   3.828   0.479  2.0081  0.7709  0.5916
36964SOL    HW216729   5.798   3.963   0.544 -0.6879 -0.8316  3.2438
36965SOL     OW16730   9.631   0.980   1.605 -0.6259  0.0030  0.1010
36965SOL    HW116731   9.664   0.896   1.574 -0.8315 -0.2173  0.4720
36965SOL    HW216732   9.563   0.957   1.668  0.8753  0.4105  1.9607
36966SOL     OW16733   7.325   2.459   9.470 -0.0720 -0.6496  1.5396
36966SOL    HW116734   7.410   2.497   9.491  0.6376 -0.7857 -0.7976
36966SOL    HW216735   7.338   2.364   9.479 -0.6976 -0.5884  3.4741
36967SOL     OW16736   7.470   4.000   8.800  0.0857 -0.0895  0.5665
36967SOL    HW116737   7.390   4.020   8.752  0.7865  1.0575 -0.1853
36967SOL    HW216738   7.540   4.039   8.747  1.0001  0.2027  1.9311
36968SOL     OW16739   3.495   9.009   6.437 -0.6182  0.2404  0.3540
36968SOL    HW116740   3.522   8.933   6.489  0.8656 -0.1280 -0.9058
36968SOL    HW216741   3.434   8.974   6.373  0.2921  0.0249 -0.4177
36969SOL     OW16742   2.530   1.550  10.143 -0.0380  0.1479  0.0973
36969SOL    HW116743   2.582   1.615  10.096 -3.7468  1.6309 -2.3880
36969SOL    HW216744   2.468   1.602  10.195 -1.9172 -1.3602 -0.5328
36970SOL     OW16745   3.347   1.553   9.873 -0.0499  0.4674 -0.4639
36970SOL    HW116746   3.340   1.458   9.858  0.0036 -0.0853  2.4711
36970SOL    HW216747   3.438   1.566   9.900  0.1318  1.5060 -1.5227
36971SOL     OW16748  10.839   6.797   4.124  0.2667  0.3386  0.4006
36971SOL    HW116749  10.906   6.837   4.068  1.2881 -1.6923  0.1005
36971SOL    HW216750  10.874   6.712   4.148 -1.8229 -0.4230  1.0242
36972SOL     OW16751  10.552   7.464   3.753 -0.7844  0.0113  0.5464
36972SOL    HW116752  10.530   7.542   3.805  0.4269 -0.4882  1.8600
36972SOL    HW216753  10.646   7.451   3.768 -0.7985 -1.2308 -0.3111
36973SOL     OW16754   0.550   4.701   4.890  0.2631 -0.8329  0.6624
36973SOL    HW116755   0.543   4.700   4.795  1.3782  0.4885  0.5408
36973SOL    HW216756   0.482   4.763   4.918  1.7716  0.9592  0.4960
36974SOL     OW16757  10.377   9.375   7.705 -0.0330  0.3137  0.2935
36974SOL    HW116758  10.441   9.356   7.773 -0.2342 -1.4906  0.0165
36974SOL    HW216759  10.427   9.421   7.637  1.3201 -2.1480 -0.4873
36975SOL     OW16760   9.876   5.635   1.293  0.5046  0.4783 -0.2554
36975SOL    HW116761   9.955   5.598   1.254  0.2239 -0.0284 -0.3574
36975SOL    HW216762   9.907   5.707   1.347  1.1310 -0.2302  0.3528
36976SOL     OW16763   2.252   7.966   4.961  0.1106 -0.0518 -0.0571
36976SOL    HW116764   2.230   7.950   5.053 -2.8483 -0.3049 -0.7357
36976SOL    HW216765   2.185   8.027   4.930  0.7914 -0.2938 -2.1808
36977SOL     OW16766   8.801   8.176   3.026  0.1364 -0.4257 -0.4110
36977SOL    HW116767   8.811   8.191   3.120  2.0295 -0.3280 -0.5885
36977SOL    HW216768   8.755   8.253   2.994  1.0265  0.3760  0.1844
36978SOL     OW16769  10.725   3.752   1.315  0.1590  0.9975  0.4201
36978SOL    HW116770  10.808   3.790   1.287  0.8606  1.2055  2.5714
36978SOL    HW216771  10.741   3.658   1.318 -0.0774  0.9304 -0.3396
36979SOL     OW16772   5.069   3.334   7.966 -0.5275 -0.2384  0.6084
36979SOL    HW116773   5.053   3.293   8.051 -0.5065  2.0138  1.7793
36979SOL    HW216774   5.138   3.399   7.983 -1.3011  1.0441 -0.8786
36980SOL     OW16775   8.085  10.767   0.391 -0.3034 -0.6806  0.4483
36980SOL    HW116776   8.055  10.704   0.325 -0.8329  0.9326 -0.9180
36980SOL    HW216777   8.020  10.761   0.461 -1.1880 -0.6043 -0.3413
36981SOL     OW16778   6.543   0.229   3.293 -0.0930 -0.6126  0.8883
36981SOL    HW116779   6.521   0.319   3.313  1.8909 -0.0133  0.6321
36981SOL    HW216780   6.622   0.211   3.343  0.6129 -1.5758 -0.4766
36982SOL     OW16781   8.315   8.790   1.906  0.1916 -0.3773  0.1723
36982SOL    HW116782   8.372   8.777   1.831  0.0698  1.0969 -0.2048
36982SOL    HW216783   8.250   8.854   1.876 -0.5544 -0.6473  1.1657
36983SOL     OW16784   4.306   6.504   7.739 -0.2707  0.3169  0.4837
36983SOL    HW116785   4.384   6.555   7.719 -1.2343  2.1897  1.2659
36983SOL    HW216786   4.276   6.472   7.654  2.6341 -2.6440  0.3274
36984SOL     OW16787   4.417   7.859   0.822  0.1239 -0.4480  0.4306
36984SOL    HW116788   4.415   7.789   0.887 -1.2720 -0.9735 -0.1392
36984SOL    HW216789   4.377   7.820   0.744  2.0156  0.0732 -0.8611
36985SOL     OW16790  10.088   3.972   2.123 -0.2380  0.2735  0.0052
36985SOL    HW116791  10.145   3.901   2.152  0.1237  0.2578 -0.7246
36985SOL    HW216792  10.005   3.930   2.100 -0.8653  0.3989  1.8859
36986SOL     OW16793  10.315   4.442   9.849 -0.8010 -0.1706  0.1743
36986SOL    HW116794  10.371   4.398   9.784  0.0135  0.8402  0.1736
36986SOL    HW216795  10.296   4.373   9.914 -0.4208 -0.7999 -0.3679
36987SOL     OW16796   5.309   4.669   5.367 -0.1886 -0.0809 -0.0826
36987SOL    HW116797   5.362   4.613   5.425 -0.7685 -0.3278  0.2130
36987SOL    HW216798   5.373   4.725   5.323  0.4418 -1.2761 -0.7216
36988SOL     OW16799   5.950   4.011   1.498 -0.7919  0.4671 -0.0639
36988SOL    HW116800   6.033   3.986   1.457 -0.4832  1.8430 -0.3548
36988SOL    HW216801   5.883   3.973   1.441 -0.3580  0.5545 -0.6488
36989SOL     OW16802   8.204   3.418   6.348  0.0584  0.1833  0.0902
36989SOL    HW116803   8.294   3.414   6.315  0.2446  1.9688  0.3088
36989SOL    HW216804   8.195   3.338   6.400  0.4227 -1.6690 -2.4833
36990SOL     OW16805  10.634   8.407   1.114 -0.2887  0.0136  0.0239
36990SOL    HW116806  10.633   8.501   1.095  1.2253 -0.2007 -1.3187
36990SOL    HW216807  10.670   8.401   1.203 -0.6313  0.6933  0.2188
36991SOL     OW16808   6.216   2.873  10.074 -0.1725 -0.0811  0.0763
36991SOL    HW116809   6.169   2.861   9.991  0.6429 -1.2529 -0.2474
36991SOL    HW216810   6.152   2.915  10.131 -1.6149 -1.5033 -0.3772
36992SOL     OW16811   5.227   8.805   5.474  0.2170  0.0760  1.2297
36992SOL    HW116812   5.294   8.873   5.467 -0.4169  0.5625 -0.6159
36992SOL    HW216813   5.263   8.729   5.429 -0.3505  0.2501  0.4677
36993SOL     OW16814   4.145   7.012   5.640  0.4313  0.3262  0.1224
36993SOL    HW116815   4.119   7.101   5.663  0.5647  0.3086  0.3497
36993SOL    HW216816   4.083   6.985   5.573  0.2785  0.5250  0.1833
36994SOL     OW16817   0.937   9.896   9.878 -0.4917  0.2829  0.0023
36994SOL    HW116818   0.893   9.825   9.925  2.2448 -1.6762 -0.1800
36994SOL    HW216819   0.943   9.966   9.943  1.0719 -1.4775  1.9022
36995SOL     OW16820   5.343   8.878   0.144  0.7270  0.7732 -0.1925
36995SOL    HW116821   5.333   8.868   0.049  0.4343 -1.3826  0.0113
36995SOL    HW216822   5.437   8.873   0.159  0.7129 -3.7541 -0.0879
36996SOL     OW16823  10.633   2.685   1.352  0.0478  0.6535 -0.3120
36996SOL    HW116824  10.660   2.593   1.359 -0.9411  0.3557 -0.2901
36996SOL    HW216825  10.590   2.703   1.436  1.4803  1.5727  0.2568
36997SOL     OW16826   3.159   0.117   7.221 -0.0269 -0.8812  0.3865
36997SOL    HW116827   3.114   0.178   7.279 -1.9484 -0.3556 -1.5257
36997SOL    HW216828   3.244   0.158   7.204 -0.2800 -0.0202  1.1348
36998SOL     OW16829   1.330   9.277   8.116 -0.5941  0.0828  0.1119
36998SOL    HW116830   1.288   9.312   8.037  0.0352  1.1506  0.2212
36998SOL    HW216831   1.410   9.235   8.085  0.3382  1.6566  0.2643
36999SOL     OW16832   8.133   1.217   2.841  0.3338  0.7833 -0.3298
36999SOL    HW116833   8.131   1.181   2.752  1.7586 -2.7988  0.9336
36999SOL    HW216834   8.226   1.215   2.866 -0.1774  0.4550  1.6958
37000SOL     OW16835   0.842   3.006   0.713  0.2206  0.0377 -0.0318
37000SOL    HW116836   0.750   3.029   0.699 -0.6244 -0.4758  3.6490
37000SOL    HW216837   0.887   3.090   0.721  0.6139  0.3547 -3.7207
37001SOL     OW16838   2.298   0.780   2.363 -0.2185 -0.4815  0.0049
37001SOL    HW116839   2.356   0.854   2.346  0.0114 -0.3506  1.2267
37001SOL    HW216840   2.324   0.713   2.300  1.0583 -0.3133  0.3381
37002SOL     OW16841   2.635   8.143   0.309  0.3586  0.3431  0.5080
37002SOL    HW116842   2.557   8.186   0.344  0.1544  0.4013 -0.0050
37002SOL    HW216843   2.670   8.205   0.246 -1.1157 -1.0180 -1.8158
37003SOL     OW16844   6.298   1.163   3.615  0.3102  0.2247 -0.3519
37003SOL    HW116845   6.383   1.149   3.575  0.9968  1.0294  0.7490
37003SOL    HW216846   6.309   1.136   3.706 -0.9123 -0.6219 -0.4263
37004SOL     OW16847   8.490   7.108   8.742 -0.8809 -0.2920  0.0042
37004SOL    HW116848   8.527   7.020   8.751 -2.4918 -0.8276  2.1421
37004SOL    HW216849   8.567   7.166   8.736  0.2533 -1.6393  0.9221
37005SOL     OW16850   5.364   0.198   4.126 -0.2817  0.3000  0.4446
37005SOL    HW116851   5.319   0.169   4.206 -1.8187 -1.3244 -0.9103
37005SOL    HW216852   5.441   0.141   4.120 -0.2957  0.2574  0.6508
37006SOL     OW16853   9.663   9.297   3.738  0.4510  0.3739  0.0277
37006SOL    HW116854   9.741   9.271   3.687 -0.2522  1.5291 -1.7270
37006SOL    HW216855   9.597   9.232   3.713  0.7660 -0.5080  1.3939
37007SOL     OW16856   3.325   7.906   4.712  0.5006  0.1456 -0.0551
37007SOL    HW116857   3.390   7.842   4.741  0.8750 -0.6658 -2.4396
37007SOL    HW216858   3.364   7.991   4.734  1.5280 -0.3771  0.2142
37008SOL     OW16859   8.090   3.741   8.018 -0.0763  0.1929  0.8783
37008SOL    HW116860   8.050   3.656   8.038  0.1842 -0.3012 -0.6106
37008SOL    HW216861   8.175   3.720   7.981  0.6689  1.1783  1.9269
37009SOL     OW16862   1.937   5.939   8.692  0.6684  0.5521  0.3094
37009SOL    HW116863   1.956   6.015   8.747 -0.6634  0.6667  0.6584
37009SOL    HW216864   1.868   5.970   8.632 -0.0236 -0.4122  0.5765
37010SOL     OW16865   4.031   8.909   3.078 -0.3042 -0.1798  0.4828
37010SOL    HW116866   4.042   8.877   2.988  1.8292 -1.9113  1.2726
37010SOL    HW216867   3.956   8.861   3.112  0.6652 -1.7487  0.4989
37011SOL     OW16868   8.338   0.126   3.409 -0.1639 -0.2199 -0.1952
37011SOL    HW116869   8.425   0.086   3.418 -0.9145 -1.9426 -0.0751
37011SOL    HW216870   8.345   0.181   3.331  1.0265 -0.3485 -0.2005
37012SOL     OW16871   5.152   5.280  10.195  0.4728 -0.2320 -0.6054
37012SOL    HW116872   5.144   5.197  10.241  2.1484 -0.5172 -0.7844
37012SOL    HW216873   5.120   5.345  10.258 -0.2275 -0.9279 -0.2238
37013SOL     OW16874   9.571   5.784   6.540 -0.1352 -0.0429  0.6043
37013SOL    HW116875   9.600   5.809   6.452 -1.1844  1.1160  0.5656
37013SOL    HW216876   9.554   5.867   6.584 -1.8554 -0.6231  1.1181
37014SOL     OW16877   0.626   6.522   9.961  0.4855 -0.0663  0.4987
37014SOL    HW116878   0.618   6.599   9.905 -1.3569  0.7469  1.7805
37014SOL    HW216879   0.718   6.522   9.989  0.7881  1.0042 -0.3955
37015SOL     OW16880   1.309   4.761   5.938  0.3144  0.4000 -0.1244
37015SOL    HW116881   1.340   4.672   5.922  1.6274  1.3530 -3.8162
37015SOL    HW216882   1.214   4.751   5.948  0.5782 -1.4987  1.0881
37016SOL     OW16883   3.208   2.760   1.728  0.1645  0.1080  0.0414
37016SOL    HW116884   3.226   2.788   1.818 -0.3378 -2.8345  1.1911
37016SOL    HW216885   3.286   2.711   1.703  0.2215  0.7584 -1.0678
37017SOL     OW16886   6.729   9.074   5.365  0.1922 -0.1416  0.3535
37017SOL    HW116887   6.730   9.019   5.287  0.3297  1.9953 -1.2356
37017SOL    HW216888   6.652   9.045   5.414  0.4354 -1.9197 -0.2393
37018SOL     OW16889   5.341   2.716  10.038  0.6208  0.0039 -0.0375
37018SOL    HW116890   5.428   2.707  10.000  1.0313  0.2688  0.8040
37018SOL    HW216891   5.335   2.644  10.101 -0.6272 -1.3609 -1.6149
37019SOL     OW16892   3.612   0.352   9.318 -0.8894  0.1133  0.2309
37019SOL    HW116893   3.542   0.290   9.335 -0.1159 -0.9184 -0.2677
37019SOL    HW216894   3.595   0.424   9.380 -1.6134 -0.7314  1.0500
37020SOL     OW16895   9.281   2.880   7.537  0.1896 -0.3099  0.3028
37020SOL    HW116896   9.225   2.862   7.461 -0.7685 -1.0911  1.1598
37020SOL    HW216897   9.344   2.807   7.538 -0.7070 -1.1101  1.0509
37021SOL     OW16898   3.581   5.461   5.221  0.0715 -0.6521  0.5696
37021SOL    HW116899   3.510   5.453   5.285  0.8050  0.9998  1.6355
37021SOL    HW216900   3.633   5.381   5.233  0.1092 -0.4533  1.9566
37022SOL     OW16901   3.191   7.540   7.808  0.1883 -0.0138  0.5677
37022SOL    HW116902   3.106   7.499   7.793  1.4680 -2.7398  0.1265
37022SOL    HW216903   3.172   7.616   7.864 -2.8783  1.5066 -2.1891
37023SOL     OW16904   8.331   1.336   8.929  0.2936  0.3972  0.3819
37023SOL    HW116905   8.346   1.426   8.958  1.6536 -0.5071  2.7792
37023SOL    HW216906   8.283   1.295   9.001 -1.3189 -0.5332 -1.1612
37024SOL     OW16907   5.328   8.497   9.153 -0.5154 -0.2377  0.0893
37024SOL    HW116908   5.256   8.557   9.136  0.9579  1.3487 -0.8710
37024SOL    HW216909   5.352   8.463   9.067 -0.0693 -0.6834  0.3809
37025SOL     OW16910   1.599   6.411   2.256 -0.0613 -0.1698 -0.0768
37025SOL    HW116911   1.520   6.458   2.228  0.8554  1.1482 -0.5343
37025SOL    HW216912   1.592   6.405   2.351 -0.4334  0.4726 -0.0612
37026SOL     OW16913   9.423   5.456   7.714 -0.0256 -0.1771 -0.3328
37026SOL    HW116914   9.503   5.409   7.691  0.7791  1.1307 -0.2876
37026SOL    HW216915   9.368   5.390   7.755  0.5669 -1.3671 -1.3687
37027SOL     OW16916   6.570   0.278   6.650 -0.4013  0.0344  0.2818
37027SOL    HW116917   6.506   0.349   6.648  1.5544  1.9589  1.8100
37027SOL    HW216918   6.523   0.206   6.693 -2.4953  0.2359 -1.4724
37028SOL     OW16919   5.842   2.976   4.198  0.1652 -0.0774 -0.3966
37028SOL    HW116920   5.859   3.055   4.146  0.4238 -0.5800 -1.0958
37028SOL    HW216921   5.894   2.908   4.155 -0.5954 -0.7829 -0.2253
37029SOL     OW16922   1.276   4.746   9.550  0.1700 -0.1778  0.0907
37029SOL    HW116923   1.278   4.707   9.638 -2.7165 -3.6707 -1.1359
37029SOL    HW216924   1.203   4.807   9.552  0.9539  0.7677  0.4296
37030SOL     OW16925   9.577   0.332   5.140 -0.2127 -0.7135 -0.3264
37030SOL    HW116926   9.483   0.336   5.122  0.0548  1.9452 -1.5784
37030SOL    HW216927   9.618   0.358   5.058  1.6139 -1.0576  0.4330
37031SOL     OW16928   5.992   1.093   1.529  0.0872 -0.7437 -0.0898
37031SOL    HW116929   5.916   1.103   1.587  0.8241  1.7328  0.5794
37031SOL    HW216930   6.028   1.007   1.551 -1.1653 -0.9609  1.2740
37032SOL     OW16931   2.423   4.058   6.982  0.2829 -0.5400  0.3313
37032SOL    HW116932   2.433   3.963   6.985  2.4133 -0.4866 -1.8109
37032SOL    HW216933   2.357   4.073   6.915 -1.7253 -0.4722  2.2134
37033SOL     OW16934   9.196  10.111   9.465  0.0685 -0.4266  0.1979
37033SOL    HW116935   9.149  10.165   9.402  1.5624  0.8959  0.1503
37033SOL    HW216936   9.230  10.038   9.414  0.4790  0.1420 -0.3499
37034SOL     OW16937   2.464   5.068   5.878  0.1415 -0.2056  0.3558
37034SOL    HW116938   2.377   5.078   5.917  0.5415 -1.2029  1.5673
37034SOL    HW216939   2.510   5.149   5.900 -0.2930  0.0894  0.1878
37035SOL     OW16940   7.479   1.493   8.486  0.2687 -0.1289 -0.2875
37035SOL    HW116941   7.507   1.414   8.441 -0.9012 -1.0458  0.5156
37035SOL    HW216942   7.385   1.497   8.471  0.4218  1.5975 -1.0104
37036SOL     OW16943   9.634   9.768   7.693  0.5176  0.7055  0.1796
37036SOL    HW116944   9.683   9.848   7.678  0.2841  1.2309  2.0359
37036SOL    HW216945   9.578   9.787   7.768  1.5595 -1.6625  1.6705
37037SOL     OW16946  10.089   1.300   0.477  0.0821  0.3425 -0.0686
37037SOL    HW116947  10.028   1.280   0.407 -0.7325  2.5345 -0.0639
37037SOL    HW216948  10.051   1.376   0.521  3.1302  2.3095 -0.5422
37038SOL     OW16949   7.596   4.142   2.993 -0.6028  0.3536  0.1322
37038SOL    HW116950   7.566   4.067   3.044 -3.4885 -0.1675 -2.0435
37038SOL    HW216951   7.627   4.205   3.058  0.5084 -2.0917  2.1189
37039SOL     OW16952   7.196   6.047   4.277  0.3288 -0.3725  0.0746
37039SOL    HW116953   7.168   6.127   4.321 -1.4056 -0.4071 -0.8651
37039SOL    HW216954   7.249   6.077   4.203  1.7950 -0.2446  1.1303
37040SOL     OW16955   9.177   3.943   1.628 -0.3938 -0.0252  0.5929
37040SOL    HW116956   9.262   3.950   1.585 -0.7618 -0.7119 -0.2538
37040SOL    HW216957   9.130   3.875   1.580 -1.1963 -0.1001  1.4421
37041SOL     OW16958   5.125   3.573   9.015 -0.1916 -0.1131  0.6226
37041SOL    HW116959   5.112   3.482   9.043 -1.0710 -0.4899 -0.8754
37041SOL    HW216960   5.047   3.593   8.964  1.3929  0.3833 -1.7936
37042SOL     OW16961   6.203   5.288  10.666 -0.3118 -0.2919  0.1279
37042SOL    HW116962   6.169   5.221  10.608 -0.7393 -1.0869  1.2605
37042SOL    HW216963   6.159   5.272  10.750 -0.0691  1.1097  0.5504
37043SOL     OW16964   2.453   3.791   8.790 -0.0374  0.6078  0.7102
37043SOL    HW116965   2.369   3.755   8.819  1.0472 -1.1427  1.9603
37043SOL    HW216966   2.499   3.810   8.872  1.2648  0.2631  0.0806
37044SOL     OW16967   4.266   5.432   4.816  0.8650 -0.1150  0.3742
37044SOL    HW116968   4.194   5.493   4.829  0.3250 -0.0290 -2.4634
37044SOL    HW216969   4.333   5.482   4.770  0.9302 -1.2970 -0.8782
37045SOL     OW16970   5.177   2.848   5.367  0.2188  0.3316 -0.1494
37045SOL    HW116971   5.135   2.769   5.401 -0.2794  0.7227  0.1440
37045SOL    HW216972   5.219   2.819   5.285  1.2722 -0.5714  0.6756
37046SOL     OW16973   2.492   8.298   4.310  0.2085 -0.0227 -0.3155
37046SOL    HW116974   2.501   8.281   4.217  1.7117 -0.1138 -0.1924
37046SOL    HW216975   2.561   8.363   4.329  1.2164 -1.3966  1.0403
37047SOL     OW16976   4.253   7.680   1.329 -0.6950  0.0267 -0.0136
37047SOL    HW116977   4.296   7.739   1.267 -0.0110  2.5914  2.7050
37047SOL    HW216978   4.160   7.704   1.324 -1.3303 -2.4190 -2.6191
37048SOL     OW16979   5.745   4.284  10.517  1.1598  0.1536  0.3446
37048SOL    HW116980   5.832   4.264  10.553  1.8955  0.1127 -1.3425
37048SOL    HW216981   5.693   4.207  10.537  1.4012  0.3004  1.6441
37049SOL     OW16982   0.318   7.377   9.488  0.1506  0.6883  0.5544
37049SOL    HW116983   0.332   7.315   9.416 -1.4094  1.2902 -0.3092
37049SOL    HW216984   0.361   7.336   9.563  0.8784 -0.4799 -0.4608
37050SOL     OW16985   5.823   5.024   0.470  0.6303  0.3000 -0.1321
37050SOL    HW116986   5.914   4.997   0.484  0.5246 -0.3927 -0.7492
37050SOL    HW216987   5.828   5.120   0.468  1.3236  0.2770 -0.0164
37051SOL     OW16988   5.673   3.072   8.285 -0.2402  0.2330  0.2771
37051SOL    HW116989   5.667   3.155   8.238  0.2915  0.3780  0.4551
37051SOL    HW216990   5.718   3.013   8.223 -1.5965 -0.2534 -0.2764
37052SOL     OW16991   5.405   1.566   2.251  0.4238  0.2335  0.4500
37052SOL    HW116992   5.460   1.645   2.248  0.0161  0.5438  0.9235
37052SOL    HW216993   5.380   1.558   2.343 -0.7063  0.3714  0.1722
37053SOL     OW16994   6.292   0.724   4.828  0.4755 -0.6735 -0.3899
37053SOL    HW116995   6.294   0.665   4.753  0.9155 -1.8187  0.5015
37053SOL    HW216996   6.248   0.675   4.897  1.0506 -0.0444  0.4418
37054SOL     OW16997   1.918  10.623   1.683  0.9850 -0.2725 -0.0696
37054SOL    HW116998   1.888  10.555   1.623  0.1290 -0.9714  1.1113
37054SOL    HW216999   2.013  10.622   1.675  0.8790  1.6536 -3.5580
37055SOL     OW17000   2.661  10.726   6.312  0.0822  0.5943  0.0323
37055SOL    HW117001   2.748  10.755   6.342  0.8492 -1.6765  0.1369
37055SOL    HW217002   2.669  10.721   6.217  0.0679  0.3853  0.0416
37056SOL     OW17003   9.177   4.001   4.755  0.1490 -0.3957 -0.1512
37056SOL    HW117004   9.146   3.994   4.845  2.7425 -0.0026  0.8724
37056SOL    HW217005   9.177   3.910   4.723 -1.9909 -0.4014 -0.2674
37057SOL     OW17006   6.404   3.881   7.536  0.3590 -0.7829  0.0876
37057SOL    HW117007   6.411   3.919   7.449 -2.3726  0.3037  0.2352
37057SOL    HW217008   6.392   3.957   7.594 -0.9648 -1.6174  0.9606
37058SOL     OW17009   6.859   6.740   5.997  0.0400  0.1254  0.0109
37058SOL    HW117010   6.932   6.773   6.049  0.0053  0.7267 -0.3096
37058SOL    HW217011   6.900   6.705   5.917  0.0583 -0.4149  0.2551
37059SOL     OW17012   7.621   6.770  10.324  0.0510 -0.1384 -0.4580
37059SOL    HW117013   7.672   6.849  10.305  1.3096 -0.5854  0.9596
37059SOL    HW217014   7.613   6.726  10.240 -2.0962  2.2415 -1.6790
37060SOL     OW17015   3.254   6.254   9.496  0.5005 -0.0186 -0.0577
37060SOL    HW117016   3.196   6.330   9.484  1.4202  0.4901 -1.6328
37060SOL    HW217017   3.341   6.293   9.508  0.7024 -0.8007  1.1416
37061SOL     OW17018  10.190   7.611  10.885  0.0074  0.0404  0.4251
37061SOL    HW117019  10.147   7.584  10.803  1.1730 -3.8773  0.8755
37061SOL    HW217020  10.278   7.637  10.858 -0.2433  0.7092  0.2465
37062SOL     OW17021   2.933   4.364   2.570 -0.4352  0.3469 -0.2583
37062SOL    HW117022   2.860   4.379   2.629  0.1739  1.2611  0.2811
37062SOL    HW217023   2.938   4.444   2.517 -1.5517 -0.8005 -2.2323
37063SOL     OW17024   6.687   6.366   3.350  0.2506 -0.1231 -0.1942
37063SOL    HW117025   6.625   6.436   3.368 -0.3019 -1.0240  1.6004
37063SOL    HW217026   6.655   6.325   3.270 -1.0812 -0.1405  0.3342
37064SOL     OW17027   4.440   6.160   7.616 -0.0040 -0.0498  0.6562
37064SOL    HW117028   4.427   6.171   7.711 -2.9548  1.1849  0.2286
37064SOL    HW217029   4.408   6.072   7.597 -1.2228  0.3860  0.5979
37065SOL     OW17030  10.323   4.643   9.606 -0.3213 -0.3521 -0.4265
37065SOL    HW117031  10.258   4.604   9.665  0.2786 -1.6151 -0.5627
37065SOL    HW217032  10.370   4.568   9.570  1.3250  0.5212 -0.1976
37066SOL     OW17033   6.430   0.942   8.951  0.2373 -0.2987  0.1135
37066SOL    HW117034   6.372   0.952   8.876 -1.4265  1.1626  1.4909
37066SOL    HW217035   6.419   0.851   8.979  1.5109 -1.1227 -1.7972
37067SOL     OW17036   1.765   2.769   4.787  0.6290  0.2525  0.3023
37067SOL    HW117037   1.730   2.847   4.831 -0.3722  0.8559 -1.4805
37067SOL    HW217038   1.818   2.726   4.854 -1.5403  0.6097  2.3912
37068SOL     OW17039   2.009   9.040   0.148 -0.1791 -0.0921 -0.7390
37068SOL    HW117040   2.036   8.958   0.107  3.0536  1.2410 -1.6057
37068SOL    HW217041   2.031   9.029   0.240 -1.0230 -0.6374 -0.5903
37069SOL     OW17042   5.327   8.035   0.253 -0.2889 -0.6779 -1.0801
37069SOL    HW117043   5.385   8.073   0.319 -0.4497 -1.3701 -0.5354
37069SOL    HW217044   5.275   8.109   0.222 -0.8303 -0.4836  0.2134
37070SOL     OW17045   7.165   6.035   6.983  0.7509 -0.3517 -0.8305
37070SOL    HW117046   7.205   6.057   6.899  2.1036  1.8404  0.3102
37070SOL    HW217047   7.230   6.060   7.048 -0.5657 -1.2836  0.9247
37071SOL     OW17048   7.382  10.763   8.789 -0.2603  0.1966 -0.2765
37071SOL    HW117049   7.396  10.858   8.786  1.1563  0.0024 -2.3469
37071SOL    HW217050   7.304  10.752   8.843  0.1785  2.4447  0.9574
37072SOL     OW17051   4.005   3.921   0.546  0.1953 -0.0540 -0.3514
37072SOL    HW117052   3.972   3.843   0.590 -1.5743  0.8639  0.0283
37072SOL    HW217053   3.981   3.993   0.604  1.8664  0.8073 -0.6534
37073SOL     OW17054   1.804   3.782   1.983 -0.4924  0.0147 -0.2647
37073SOL    HW117055   1.801   3.852   1.917  1.3462 -0.0490 -0.4780
37073SOL    HW217056   1.898   3.765   1.995 -0.6727  0.6656  3.0835
37074SOL     OW17057   6.446   8.678   9.152  0.0044  0.7033  0.0847
37074SOL    HW117058   6.407   8.641   9.073 -0.7592  0.3835  0.5899
37074SOL    HW217059   6.424   8.614   9.221  0.8876  0.8370  0.5023
37075SOL     OW17060   6.483   0.480   5.681  0.2770 -0.2309  0.6988
37075SOL    HW117061   6.489   0.572   5.657  0.5144  0.3576  2.8043
37075SOL    HW217062   6.400   0.450   5.642 -0.7061  1.3633  1.4554
37076SOL     OW17063   8.457   8.350   4.314 -0.2256  0.4910 -0.8172
37076SOL    HW117064   8.474   8.333   4.407  0.5097 -0.5134 -1.1119
37076SOL    HW217065   8.521   8.295   4.268 -1.0871  0.3943 -1.9308
37077SOL     OW17066   9.358   4.384   0.333 -0.0864  0.1561  0.0158
37077SOL    HW117067   9.454   4.383   0.327 -0.0328 -0.3533  0.8052
37077SOL    HW217068   9.329   4.416   0.248  0.8008  0.7409 -0.0773
37078SOL     OW17069   4.697   6.120   3.976 -0.2830 -0.1552  0.5271
37078SOL    HW117070   4.768   6.068   3.938  0.8595  1.5510  0.1919
37078SOL    HW217071   4.721   6.128   4.068  2.0422  3.3300 -0.1632
37079SOL     OW17072   1.153   2.611   9.685 -0.4101 -0.2123 -0.0369
37079SOL    HW117073   1.197   2.574   9.608 -1.2551 -1.0398 -0.1494
37079SOL    HW217074   1.060   2.611   9.661 -0.5400  0.9270  0.4200
37080SOL     OW17075   9.292   5.007   5.163 -0.0179 -0.1383  0.2433
37080SOL    HW117076   9.347   4.998   5.085  0.8771  0.0412  0.8294
37080SOL    HW217077   9.335   4.950   5.228 -0.1659  0.5001  0.9055
37081SOL     OW17078  10.589   2.598   8.273 -0.1099  0.6592 -1.0252
37081SOL    HW117079  10.649   2.659   8.229 -0.6380  1.4019 -0.7364
37081SOL    HW217080  10.507   2.605   8.223 -0.4876  0.9593 -0.3800
37082SOL     OW17081   8.603   3.807   6.713  0.5056  0.3716 -0.4780
37082SOL    HW117082   8.659   3.841   6.783 -1.5725 -0.3784  1.6721
37082SOL    HW217083   8.563   3.728   6.750 -2.0915  0.9606 -1.8016
37083SOL     OW17084   6.529   5.725   2.611 -0.1291 -0.0593 -0.4067
37083SOL    HW117085   6.555   5.633   2.612  0.4568  0.0836 -1.5471
37083SOL    HW217086   6.574   5.764   2.685 -1.5770 -0.9841  1.0328
37084SOL     OW17087   4.279   6.696   0.520 -0.1963  0.3101  0.6026
37084SOL    HW117088   4.333   6.727   0.593 -0.7507  0.8125  0.8106
37084SOL    HW217089   4.292   6.761   0.452 -0.2751  0.2517  0.5321
37085SOL     OW17090   0.403  10.296   4.043 -0.2793  0.0597 -0.5079
37085SOL    HW117091   0.377  10.343   3.963 -0.7707 -0.8542 -0.9045
37085SOL    HW217092   0.374  10.353   4.114 -1.4952  0.0614 -0.9748
37086SOL     OW17093   6.661   5.631   7.439  0.4290 -0.1994  0.5870
37086SOL    HW117094   6.644   5.719   7.472  2.1765  0.9866 -1.4321
37086SOL    HW217095   6.661   5.575   7.517 -2.0795  1.2967  1.7795
37087SOL     OW17096   7.594   0.636  10.768 -0.5203 -0.2797  0.1765
37087SOL    HW117097   7.610   0.607  10.678 -1.0283 -0.3817  0.1148
37087SOL    HW217098   7.628   0.566  10.823 -0.3881 -0.3074  0.0596
37088SOL     OW17099  10.179   7.909   2.233  0.1578  0.5411  0.1555
37088SOL    HW117100  10.187   7.826   2.280 -1.3776  0.5157  0.4261
37088SOL    HW217101  10.266   7.924   2.196  1.5891  0.6877  3.2135
37089SOL     OW17102   0.739   6.908   1.631 -0.3911  0.2569  0.2716
37089SOL    HW117103   0.748   6.913   1.535  1.0204  0.2394  0.3825
37089SOL    HW217104   0.806   6.844   1.657 -0.8676  0.1573  1.2629
37090SOL     OW17105   9.243   3.104   5.411 -0.3428 -0.1693  0.0848
37090SOL    HW117106   9.187   3.101   5.488  1.4942 -1.3284  1.4864
37090SOL    HW217107   9.295   3.023   5.417 -0.2958 -0.3952 -2.5074
37091SOL     OW17108   5.933   5.905   8.795 -0.3128  0.1461 -0.3638
37091SOL    HW117109   5.985   5.826   8.814 -0.1727 -0.1029 -1.7238
37091SOL    HW217110   5.905   5.936   8.882 -0.5207 -1.4963  0.1924
37092SOL     OW17111  10.366   1.029   8.200 -0.1034 -0.0271 -0.1080
37092SOL    HW117112  10.344   1.093   8.268 -0.7669  0.0624 -0.3970
37092SOL    HW217113  10.462   1.031   8.196 -0.0502 -0.1238  0.8986
37093SOL     OW17114  10.516   7.352   0.475  0.3286 -0.3450 -0.4976
37093SOL    HW117115  10.556   7.391   0.553 -0.6151  1.4484 -0.8687
37093SOL    HW217116  10.432   7.396   0.466  1.3306  1.1853 -3.7992
37094SOL     OW17117   6.086   0.927   3.437  0.0128 -0.2586 -0.0189
37094SOL    HW117118   6.062   1.011   3.477 -3.0855 -0.1743 -1.7647
37094SOL    HW217119   6.081   0.864   3.508  1.6545  0.8473  1.1640
37095SOL     OW17120   2.291   8.261   3.002 -0.2578  0.3474 -0.1090
37095SOL    HW117121   2.384   8.251   2.980 -0.0214 -1.2303  1.3640
37095SOL    HW217122   2.288   8.340   3.055  0.0710  0.9473 -0.9635
37096SOL     OW17123   2.562  10.854  10.453 -0.1290 -0.5564  0.1886
37096SOL    HW117124   2.546  10.879  10.544  0.5824  0.7767 -0.0369
37096SOL    HW217125   2.645  10.806  10.456  0.7727  0.9332  0.0460
37097SOL     OW17126   1.818   0.223   8.301  0.0062  0.6707 -0.3199
37097SOL    HW117127   1.826   0.232   8.206  0.4486  1.6175 -0.2089
37097SOL    HW217128   1.823   0.129   8.317 -1.7434  0.3564 -1.3632
37098SOL     OW17129  10.159   3.916   5.003 -0.5533 -0.5148  0.5855
37098SOL    HW117130  10.122   3.999   5.033 -0.5742 -0.1527 -0.4078
37098SOL    HW217131  10.225   3.894   5.069  0.1412  0.7887  0.3549
37099SOL     OW17132   9.981   1.587   6.279  0.7375 -0.5108 -0.1736
37099SOL    HW117133   9.993   1.608   6.187 -0.1844 -1.2599 -0.4816
37099SOL    HW217134   9.920   1.513   6.279 -1.4649  1.2013  1.1167
37100SOL     OW17135  10.856   2.599   1.887  0.3223 -0.3205 -0.2900
37100SOL    HW117136  10.951   2.601   1.897  0.3200  0.1482 -0.3383
37100SOL    HW217137  10.834   2.506   1.890  0.5725 -0.3605  1.8264
37101SOL     OW17138   6.399   2.242   9.184  0.0165  0.5570 -0.2933
37101SOL    HW117139   6.370   2.333   9.174 -0.3804  0.6078  1.0637
37101SOL    HW217140   6.361   2.196   9.109 -0.0982  1.4307 -0.7835
37102SOL     OW17141   8.899  10.722   5.323  0.0852  0.5687 -0.1362
37102SOL    HW117142   8.811  10.745   5.294 -0.0000 -0.9362 -1.1629
37102SOL    HW217143   8.941  10.684   5.246  0.3742 -2.1245  1.2450
37103SOL     OW17144   0.709   5.732   5.118 -0.0416  0.3155  0.1539
37103SOL    HW117145   0.771   5.661   5.103  0.0958  0.1213  1.4596
37103SOL    HW217146   0.677   5.717   5.207 -0.0603  1.8492  0.4312
37104SOL     OW17147   0.160   9.916   6.217  0.3370 -0.4314  0.0215
37104SOL    HW117148   0.067   9.916   6.194  0.4715 -1.1325 -0.5497
37104SOL    HW217149   0.168   9.984   6.284 -0.6194 -0.4881  0.2107
37105SOL     OW17150   9.732   1.937   4.661  0.4115  0.1551 -0.2883
37105SOL    HW117151   9.696   1.858   4.621 -2.3255  1.2267 -0.1830
37105SOL    HW217152   9.716   2.006   4.597 -1.1490  1.3342  1.2721
37106SOL     OW17153  10.471   1.781   4.722  0.4062  0.6298  0.4024
37106SOL    HW117154  10.528   1.845   4.766  2.3620 -0.0475 -1.0119
37106SOL    HW217155  10.496   1.697   4.761  1.8960  0.0672 -1.6081
37107SOL     OW17156   4.742   2.068   4.761  0.0713 -0.0687  0.3895
37107SOL    HW117157   4.702   1.985   4.737 -1.2894 -0.1135  2.5310
37107SOL    HW217158   4.709   2.131   4.696 -1.9102 -0.5139  0.9004
37108SOL     OW17159   7.591   6.000   9.993 -0.1251 -0.3697 -0.0646
37108SOL    HW117160   7.619   6.076  10.043 -0.8384 -0.2777  0.2132
37108SOL    HW217161   7.583   5.930  10.059 -2.4055  0.0969  0.2373
37109SOL     OW17162   9.619   0.348   1.422  0.1233  0.0385  0.0791
37109SOL    HW117163   9.685   0.360   1.490  3.2858  2.2960 -3.0736
37109SOL    HW217164   9.637   0.261   1.386  1.1506  0.4911 -0.5138
37110SOL     OW17165   3.719   2.288   3.067  0.2378 -0.0271  0.0268
37110SOL    HW117166   3.696   2.231   3.139 -0.6635 -0.6371 -0.7258
37110SOL    HW217167   3.814   2.278   3.058  0.0759 -1.5858 -0.2311
37111SOL     OW17168   2.461   0.149   8.738  0.2538 -0.3352 -0.6081
37111SOL    HW117169   2.449   0.233   8.693 -0.4173  0.1230  0.3827
37111SOL    HW217170   2.374   0.128   8.772  0.8270 -0.4012  0.9116
37112SOL     OW17171   0.407   8.965   4.472 -0.2062 -0.5592  0.2651
37112SOL    HW117172   0.358   8.884   4.485 -0.2832 -0.6467 -0.5191
37112SOL    HW217173   0.339   9.033   4.467 -0.1144 -0.3442  1.5321
37113SOL     OW17174   1.347   2.967   8.876  0.5572  0.1591  0.4178
37113SOL    HW117175   1.262   2.979   8.917  0.8849 -0.9816  1.5251
37113SOL    HW217176   1.374   2.878   8.902  1.9912  0.4188 -0.0562
37114SOL     OW17177   7.093   0.138   7.180  0.0530 -0.1862 -0.0261
37114SOL    HW117178   7.074   0.053   7.220 -2.1985 -0.5044 -1.5861
37114SOL    HW217179   7.188   0.137   7.165  0.4297 -1.4401  2.0450
37115SOL     OW17180   8.108   0.522   6.157  0.1381 -0.2975 -0.3486
37115SOL    HW117181   8.188   0.523   6.104  0.4677 -1.9358  0.0770
37115SOL    HW217182   8.041   0.485   6.100 -0.0868  0.1451 -0.3770
37116SOL     OW17183   0.763   4.559   5.616 -0.1877  0.1517 -0.3370
37116SOL    HW117184   0.793   4.558   5.525  0.2553  0.7335 -0.2059
37116SOL    HW217185   0.770   4.467   5.645 -0.2929 -0.0254 -0.8744
37117SOL     OW17186   0.142   2.649   0.763  0.0450  0.4021  0.1017
37117SOL    HW117187   0.236   2.637   0.750  0.0670 -0.3620  0.8832
37117SOL    HW217188   0.116   2.575   0.818 -1.0654  0.4673 -0.3205
37118SOL     OW17189   1.486   1.324   4.925 -0.5634  0.4911  0.2028
37118SOL    HW117190   1.415   1.261   4.910  1.1755 -1.1366 -1.7447
37118SOL    HW217191   1.451   1.384   4.991 -3.2142 -1.0607  0.3439
37119SOL     OW17192   6.207   5.491   8.748  0.5187 -0.6448  0.1286
37119SOL    HW117193   6.296   5.457   8.739  0.1465 -1.3179 -1.1783
37119SOL    HW217194   6.193   5.542   8.668 -0.0387  0.0129  0.6399
37120SOL     OW17195   2.098   0.623   8.118  0.3865 -0.7243 -0.1060
37120SOL    HW117196   2.084   0.624   8.023 -0.4949 -2.1196 -0.0101
37120SOL    HW217197   2.185   0.584   8.129  0.2938 -0.9886 -0.3100
37121SOL     OW17198   0.654   7.042   2.840  0.3007 -0.0707 -0.0937
37121SOL    HW117199   0.662   7.112   2.905 -0.1605 -1.1005  1.1100
37121SOL    HW217200   0.562   7.041   2.816  0.5381  0.5775 -1.1194
37122SOL     OW17201  10.078   1.018   8.552  0.1220  0.1275 -0.1267
37122SOL    HW117202  10.083   0.927   8.580 -0.8983 -0.1217 -0.7186
37122SOL    HW217203  10.145   1.026   8.484  1.1488  0.1887  0.8587
37123SOL     OW17204   2.187   0.268   7.934  0.4021 -0.0877 -0.0247
37123SOL    HW117205   2.178   0.185   7.981  1.1069  0.6088  1.4016
37123SOL    HW217206   2.133   0.257   7.856 -2.2423 -0.6511  1.7696
37124SOL     OW17207   0.355   1.222   7.692 -0.0841  0.1153  0.6085
37124SOL    HW117208   0.395   1.177   7.617 -0.4357 -0.8176  0.9728
37124SOL    HW217209   0.295   1.158   7.729  0.5927  0.3267  2.1198
37125SOL     OW17210   9.670   8.112  10.662  0.2660  0.3110 -0.1505
37125SOL    HW117211   9.717   8.112  10.579 -0.6424 -0.6553 -0.6887
37125SOL    HW217212   9.665   8.205  10.687  2.0979  0.4678 -0.2547
37126SOL     OW17213   1.799  10.673   8.565 -0.8101  0.4664 -0.5006
37126SOL    HW117214   1.797  10.669   8.660  0.9111 -0.2544 -0.4585
37126SOL    HW217215   1.769  10.587   8.536 -0.2496  0.2831 -0.5594
37127SOL     OW17216   0.087   4.078   3.044  0.0964  0.4287 -0.4843
37127SOL    HW117217   0.074   4.126   3.125  1.2260  0.4892 -0.3242
37127SOL    HW217218   0.144   4.134   2.991  1.3209 -0.6155 -0.3564
37128SOL     OW17219   3.229   8.549   7.343 -0.3982 -0.8603 -0.3089
37128SOL    HW117220   3.212   8.466   7.298 -0.6752  0.0822 -2.0235
37128SOL    HW217221   3.318   8.573   7.315  0.0208 -0.9635  0.8574
37129SOL     OW17222  10.555   1.674   6.656 -0.2877  1.1016 -0.0781
37129SOL    HW117223  10.630   1.614   6.651 -1.2531 -0.3239  1.3480
37129SOL    HW217224  10.583   1.742   6.716  0.2700  1.2335 -0.4761
37130SOL     OW17225  10.533   3.936   5.604  0.2505  0.0111  0.1271
37130SOL    HW117226  10.468   3.968   5.666  1.8323  0.3997  1.6704
37130SOL    HW217227  10.591   4.011   5.588 -0.0136 -0.1257 -1.7330
37131SOL     OW17228   3.386   1.429   1.402 -0.0011  0.2796  0.0683
37131SOL    HW117229   3.422   1.489   1.336  0.4081  0.2926  0.2997
37131SOL    HW217230   3.295   1.456   1.412  0.0274  0.5007 -0.2386
37132SOL     OW17231   9.539   5.671   0.105  0.1412  0.2493 -0.0567
37132SOL    HW117232   9.590   5.745   0.137  0.8069  0.5884 -1.8397
37132SOL    HW217233   9.552   5.603   0.172  0.2717  1.4030  1.1259
37133SOL     OW17234  10.367   6.353   6.086  0.1035 -0.3353 -0.0308
37133SOL    HW117235  10.291   6.391   6.041  0.3139 -1.2838 -1.2384
37133SOL    HW217236  10.332   6.278   6.133 -0.0313  0.3790  1.0398
37134SOL     OW17237   0.275   6.030   3.017  0.4146 -0.1071  0.0801
37134SOL    HW117238   0.293   6.049   3.109  0.2880 -0.6083  0.2096
37134SOL    HW217239   0.180   6.017   3.013  0.3141  0.6539 -0.2586
37135SOL     OW17240   4.031   1.928   6.581  0.3710 -0.0404  0.2027
37135SOL    HW117241   3.962   1.872   6.617 -0.1220  0.6007  0.2737
37135SOL    HW217242   4.033   2.004   6.640 -0.4311  1.0217 -1.0905
37136SOL     OW17243   3.960   9.526   5.293  0.2184 -0.1581  0.1845
37136SOL    HW117244   3.912   9.607   5.310 -1.3908 -0.2481 -3.2639
37136SOL    HW217245   3.893   9.463   5.268  1.6803 -1.8951  0.4529
37137SOL     OW17246   7.075   6.685   8.296 -0.9314 -0.2765 -0.0916
37137SOL    HW117247   7.161   6.650   8.320 -0.5849  0.4641 -0.2268
37137SOL    HW217248   7.087   6.719   8.208 -1.1819  0.4357  0.1463
37138SOL     OW17249   4.156   4.313   0.211 -0.3840  0.2525  0.2008
37138SOL    HW117250   4.074   4.271   0.185 -0.3681  0.8923 -0.9807
37138SOL    HW217251   4.147   4.403   0.179  1.8808 -0.3465 -2.5533
37139SOL     OW17252  10.702   4.305   9.942  0.0227  0.8750 -0.2026
37139SOL    HW117253  10.774   4.247   9.968 -0.6224 -0.5561 -1.4799
37139SOL    HW217254  10.628   4.247   9.930 -0.6036  1.9477 -1.7651
37140SOL     OW17255   9.734   1.215   4.312  0.6056  0.0373  0.9017
37140SOL    HW117256   9.770   1.129   4.291  0.2266  0.0686  0.0828
37140SOL    HW217257   9.647   1.197   4.346  0.6280  0.0808  0.9835
37141SOL     OW17258   0.992   3.584   1.534  0.6843 -0.3744  0.6794
37141SOL    HW117259   1.016   3.622   1.449 -0.3791  0.9374  0.9337
37141SOL    HW217260   1.066   3.606   1.591 -0.0358  1.6904  0.8995
37142SOL     OW17261   5.910   8.836   7.510  0.0762 -0.0015  0.4375
37142SOL    HW117262   5.848   8.908   7.524  0.7326  0.2669  2.2208
37142SOL    HW217263   5.973   8.871   7.446 -1.4162 -0.2014 -1.2178
37143SOL     OW17264   7.413   5.108   4.948 -0.1051 -0.2174  0.1693
37143SOL    HW117265   7.390   5.194   4.984 -1.6610  0.4215 -2.1010
37143SOL    HW217266   7.492   5.082   4.995 -0.1717  1.9891  1.6298
37144SOL     OW17267   2.482   0.551   5.097 -0.0466 -0.1845 -0.1992
37144SOL    HW117268   2.559   0.602   5.072  0.1386 -0.0425  0.6204
37144SOL    HW217269   2.492   0.538   5.192 -1.2413  0.2018 -0.0077
37145SOL     OW17270   4.048   8.439   5.601 -0.0705 -0.2842  0.3377
37145SOL    HW117271   4.001   8.453   5.683  0.7156 -0.6590  0.8645
37145SOL    HW217272   4.124   8.386   5.625 -0.2116 -1.0329 -0.7476
37146SOL     OW17273   8.516   6.573   5.499 -0.2258 -0.2898  0.0290
37146SOL    HW117274   8.548   6.486   5.525 -0.1188 -0.4613 -0.6392
37146SOL    HW217275   8.421   6.564   5.498 -0.2752  0.0117  1.3242
37147SOL     OW17276   8.733   3.385   9.953 -0.7607 -0.4451  0.0974
37147SOL    HW117277   8.730   3.375   9.857  1.0601  0.6532 -0.1212
37147SOL    HW217278   8.761   3.475   9.967  1.5247 -1.3022  1.5884
37148SOL     OW17279   3.818  10.761   3.988 -0.2316 -0.1101 -0.5354
37148SOL    HW117280   3.825  10.667   4.007  0.9513 -0.0660 -0.6522
37148SOL    HW217281   3.758  10.794   4.055  0.9999 -0.5987  0.8811
37149SOL     OW17282   7.496   4.974   3.331  0.1558 -0.3706 -0.1348
37149SOL    HW117283   7.446   4.959   3.251 -0.1891 -1.1559  0.2131
37149SOL    HW217284   7.484   5.067   3.350  1.9642  0.3830 -2.1226
37150SOL     OW17285   5.191   9.754   9.951  0.8275  0.0191 -0.1653
37150SOL    HW117286   5.285   9.754   9.970  0.8554  2.6321  0.0524
37150SOL    HW217287   5.151   9.784  10.033 -0.0584  0.5126 -0.7736
37151SOL     OW17288   2.799   8.841   3.553 -0.6868  0.0214  0.4062
37151SOL    HW117289   2.839   8.769   3.505  1.2677  0.7186  0.8667
37151SOL    HW217290   2.705   8.831   3.538 -0.2969 -1.0067 -1.7655
37152SOL     OW17291   2.502   0.599   0.412 -0.4613  0.4455 -0.5713
37152SOL    HW117292   2.505   0.693   0.391  0.9270  0.2845 -1.1650
37152SOL    HW217293   2.574   0.586   0.474 -0.4433 -0.2893 -0.7380
37153SOL     OW17294   4.204   8.762   3.445 -0.2809 -0.4916  0.4492
37153SOL    HW117295   4.145   8.754   3.369 -1.3438  0.0173  1.2006
37153SOL    HW217296   4.188   8.683   3.496  2.1978 -2.0749 -0.9920
37154SOL     OW17297   9.427   3.889   0.528 -0.2739  0.2667  0.3738
37154SOL    HW117298   9.452   3.835   0.453  1.5381  0.0094  1.1157
37154SOL    HW217299   9.363   3.951   0.492  1.5007  1.0189 -1.7349
37155SOL     OW17300   8.383   8.143   9.925 -0.2998 -1.2079 -0.1791
37155SOL    HW117301   8.446   8.215   9.927  1.4567 -2.6119 -1.6147
37155SOL    HW217302   8.410   8.086   9.997 -0.0858 -1.6793 -0.6277
37156SOL     OW17303   9.339   9.459   0.583 -0.5042 -0.3038  0.6855
37156SOL    HW117304   9.311   9.511   0.508  1.5190  0.2857  0.2953
37156SOL    HW217305   9.259   9.417   0.614 -1.4171 -0.4771 -1.7231
37157SOL     OW17306   8.286   6.212   7.158 -0.3012  0.0528  0.3421
37157SOL    HW117307   8.352   6.272   7.193 -0.6926  0.4363  0.4434
37157SOL    HW217308   8.237   6.265   7.095 -2.3414  0.6554  2.3199
37158SOL     OW17309   8.976   7.983   2.903 -0.3717 -0.0898 -0.2102
37158SOL    HW117310   8.989   8.015   2.814 -3.1785 -0.5619 -0.9006
37158SOL    HW217311   8.924   8.051   2.946  2.3186  0.9418  1.7474
37159SOL     OW17312   6.124   7.902   4.092 -0.3727  0.0182  0.5937
37159SOL    HW117313   6.078   7.820   4.112  0.6318 -0.2723  1.8763
37159SOL    HW217314   6.172   7.922   4.172  1.8979  0.1794 -0.7224
37160SOL     OW17315   2.300   6.325   4.200  0.3126  0.3381  0.6446
37160SOL    HW117316   2.381   6.284   4.172 -0.3802 -1.7661  1.5258
37160SOL    HW217317   2.297   6.311   4.295 -1.3771 -0.2870  0.5455
37161SOL     OW17318   1.211   0.359   2.368 -0.0217 -0.1392  0.4634
37161SOL    HW117319   1.290   0.311   2.392 -0.0643  0.3691  1.6715
37161SOL    HW217320   1.241   0.450   2.358  0.1453 -0.4044 -2.2022
37162SOL     OW17321   5.938   6.529   6.467  0.2336 -0.1659 -0.5528
37162SOL    HW117322   5.873   6.590   6.430  1.6388  1.4268 -0.4926
37162SOL    HW217323   5.922   6.447   6.420 -1.5893  0.2621 -0.7787
37163SOL     OW17324   4.424   3.687   6.584 -0.1375 -0.0893 -0.0666
37163SOL    HW117325   4.507   3.718   6.622 -0.1511  0.1480 -0.2288
37163SOL    HW217326   4.383   3.636   6.654  0.9749 -1.7311 -0.5534
37164SOL     OW17327   1.946   8.264   6.883 -0.7969 -0.2594  0.6799
37164SOL    HW117328   1.986   8.328   6.942 -0.5202 -0.8037  1.0933
37164SOL    HW217329   2.004   8.188   6.887 -0.2035  0.0473 -1.0836
37165SOL     OW17330   6.451   4.828   0.521 -0.4297 -0.2583 -0.2836
37165SOL    HW117331   6.440   4.806   0.613  1.2218 -1.1605 -0.2664
37165SOL    HW217332   6.452   4.744   0.476  0.0930  0.1029 -0.9626
37166SOL     OW17333   9.386   6.071   2.963 -0.5392 -0.2757  0.2789
37166SOL    HW117334   9.403   5.986   3.004 -0.7053 -0.7128 -0.5380
37166SOL    HW217335   9.420   6.135   3.025 -0.7162 -0.9261  1.0591
37167SOL     OW17336   0.053   3.803   2.501 -0.4039 -0.1898  0.4125
37167SOL    HW117337  -0.009   3.737   2.470  2.3572 -2.6948 -0.2924
37167SOL    HW217338   0.106   3.757   2.566  0.5895  1.8942  1.1648
37168SOL     OW17339   7.187  10.297   3.445 -0.5055  0.4478 -0.2474
37168SOL    HW117340   7.244  10.343   3.383 -1.2757  1.0235 -0.5414
37168SOL    HW217341   7.151  10.224   3.395 -0.4002  0.3580 -0.1948
37169SOL     OW17342   6.172   6.845  10.562  0.0230 -0.0278 -0.3977
37169SOL    HW117343   6.123   6.838  10.644 -0.6827  1.5685 -0.6375
37169SOL    HW217344   6.259   6.876  10.589  0.2537 -0.8619 -0.1502
37170SOL     OW17345   9.269   7.123   9.719  0.4565  0.3432 -0.8295
37170SOL    HW117346   9.247   7.213   9.744 -0.6045 -0.2661  0.6372
37170SOL    HW217347   9.186   7.075   9.727  1.2296 -0.9898 -0.4099
37171SOL     OW17348   9.317   5.591   5.131  0.0888 -0.6223  0.3441
37171SOL    HW117349   9.362   5.508   5.117  0.7014 -0.1663 -0.4739
37171SOL    HW217350   9.314   5.632   5.045  0.0771  0.3506  0.7867
37172SOL     OW17351   6.923   2.310   5.071  0.1564 -0.1300  0.4604
37172SOL    HW117352   6.845   2.262   5.042  0.3302  0.4339 -1.0041
37172SOL    HW217353   6.923   2.299   5.166 -1.4858 -0.4805  0.4598
37173SOL     OW17354   9.259   1.261   9.155 -0.2155  0.7498 -0.0585
37173SOL    HW117355   9.277   1.342   9.106  1.1590 -0.1013 -1.0365
37173SOL    HW217356   9.271   1.191   9.090 -0.6117 -0.2927  0.9636
37174SOL     OW17357   4.487  10.599   0.210 -0.1163  0.0961 -0.4401
37174SOL    HW117358   4.506  10.667   0.275 -2.0891  2.9410 -2.5407
37174SOL    HW217359   4.397  10.571   0.230  0.1827 -0.9141 -0.4528
37175SOL     OW17360   7.568   4.225   2.348 -0.0897  0.2227 -0.4369
37175SOL    HW117361   7.660   4.206   2.332  0.2831  0.8201  0.9277
37175SOL    HW217362   7.553   4.310   2.306 -0.1045  0.0007 -0.8917
37176SOL     OW17363   0.419   0.772   8.492 -0.4282 -0.2539 -0.4071
37176SOL    HW117364   0.364   0.788   8.415 -1.4092  0.8384  0.4754
37176SOL    HW217365   0.501   0.739   8.457 -0.1059  2.1007 -2.0757
37177SOL     OW17366   6.699   0.871   5.819  0.5391 -0.3251  0.0071
37177SOL    HW117367   6.686   0.963   5.843  0.9378 -0.4787  0.8489
37177SOL    HW217368   6.787   0.868   5.782 -0.2154 -0.0175 -1.9212
37178SOL     OW17369   7.677   3.804   6.845  0.0199  0.1001  0.0118
37178SOL    HW117370   7.644   3.815   6.934 -1.9584 -1.7390 -0.4147
37178SOL    HW217371   7.599   3.804   6.790  0.6718 -3.4901 -1.1561
37179SOL     OW17372  10.419   3.986   4.878 -0.3321 -0.5970  0.2216
37179SOL    HW117373  10.354   3.975   4.948  1.1977  0.5318  1.9144
37179SOL    HW217374  10.489   3.926   4.900  0.6165  0.4828  0.2583
37180SOL     OW17375  10.322   7.627  10.483  0.8130  0.0010 -0.1333
37180SOL    HW117376  10.283   7.683  10.416 -0.8429  0.3311  1.0228
37180SOL    HW217377  10.283   7.541  10.469 -0.8537  0.4561  1.3542
37181SOL     OW17378   4.604   7.844   3.834 -0.3842 -0.3779 -0.2435
37181SOL    HW117379   4.518   7.832   3.875 -0.7696  0.4929 -0.7824
37181SOL    HW217380   4.665   7.851   3.908 -0.6503 -1.7210  0.1386
37182SOL     OW17381   9.554   2.227   5.982  0.1287  0.0295  0.2451
37182SOL    HW117382   9.590   2.138   5.988 -1.3441 -0.5583  0.7009
37182SOL    HW217383   9.596   2.264   5.904 -0.5323 -1.6910 -0.9879
37183SOL     OW17384   0.573   1.401   0.681 -0.5984 -0.2836 -0.7971
37183SOL    HW117385   0.619   1.477   0.648 -1.1949  0.6370  0.4034
37183SOL    HW217386   0.642   1.344   0.715 -0.1903  0.0031 -1.1383
37184SOL     OW17387   4.930   0.330   9.395 -0.6411 -0.7756 -0.7113
37184SOL    HW117388   4.949   0.423   9.387  0.8200 -1.0580 -0.9047
37184SOL    HW217389   4.859   0.314   9.334  0.4259 -0.1461 -2.1703
37185SOL     OW17390   6.829   1.818   9.664  0.1582 -0.1819 -0.1557
37185SOL    HW117391   6.900   1.756   9.683  1.9994  1.8151 -0.2062
37185SOL    HW217392   6.797   1.845   9.750  0.9688  0.5424 -0.0691
37186SOL     OW17393   5.875   9.244   5.209 -0.2362 -0.0274  0.0936
37186SOL    HW117394   5.784   9.234   5.235 -0.2487  0.5249  0.2646
37186SOL    HW217395   5.925   9.212   5.285 -0.2801  0.8181  0.4833
37187SOL     OW17396   7.985   2.203   9.001 -0.3713  0.0046  0.0815
37187SOL    HW117397   7.973   2.126   9.057 -1.7561 -0.2854 -0.5532
37187SOL    HW217398   8.016   2.168   8.918 -0.7212  0.1567 -0.1152
37188SOL     OW17399   3.728   0.416   4.880  0.6643  0.3478 -0.0526
37188SOL    HW117400   3.762   0.505   4.869  0.1267  0.6725  0.8223
37188SOL    HW217401   3.792   0.372   4.935  1.0051  0.1359 -0.6061
37189SOL     OW17402   6.358   4.500   3.784 -0.8357  0.3179 -0.7915
37189SOL    HW117403   6.337   4.408   3.767 -1.0014  0.1619  0.1845
37189SOL    HW217404   6.288   4.549   3.740 -0.6686 -0.0154 -1.4351
37190SOL     OW17405   1.137   1.628   1.016  0.1913 -0.1683  0.7529
37190SOL    HW117406   1.131   1.579   0.934 -0.1795 -0.5264  0.9891
37190SOL    HW217407   1.160   1.562   1.082 -2.0577 -0.4002  1.3877
37191SOL     OW17408   0.545   8.437   2.266 -0.2068 -0.4918 -0.1712
37191SOL    HW117409   0.596   8.402   2.193 -0.9331  1.1810 -1.5330
37191SOL    HW217410   0.454   8.432   2.237 -0.6073 -0.8355  1.0876
37192SOL     OW17411   6.106   9.348   3.221  0.2422 -0.2743  0.2497
37192SOL    HW117412   6.029   9.303   3.254  0.2205  0.0050  0.5848
37192SOL    HW217413   6.081   9.378   3.133 -0.3000  0.4668  0.6444
37193SOL     OW17414   8.396   8.914   3.442  0.4190  0.0281  0.5628
37193SOL    HW117415   8.456   8.907   3.367 -2.5043  1.6334 -2.2048
37193SOL    HW217416   8.414   8.836   3.494  1.7497 -1.9790 -2.5839
37194SOL     OW17417   0.514   9.235   4.045  0.1511 -0.5625 -0.0177
37194SOL    HW117418   0.427   9.203   4.068  1.2137 -2.9648  1.0121
37194SOL    HW217419   0.544   9.175   3.976  1.3906 -0.4429  0.3910
37195SOL     OW17420   0.197   1.472   5.800  0.2210 -0.1448  0.5204
37195SOL    HW117421   0.179   1.566   5.795  0.6502 -0.1244 -1.0259
37195SOL    HW217422   0.275   1.465   5.855  1.2638  0.5882 -0.7981
37196SOL     OW17423   5.138   2.114   4.965 -0.3816  0.2793 -0.4141
37196SOL    HW117424   5.228   2.131   4.993 -0.1990  0.1357 -0.9051
37196SOL    HW217425   5.117   2.027   5.000  0.3446 -0.5292 -1.9014
37197SOL     OW17426   1.882   5.274   0.550 -0.5519 -0.6239 -0.0314
37197SOL    HW117427   1.795   5.293   0.515 -0.8044  0.8211  1.2849
37197SOL    HW217428   1.928   5.358   0.546  0.1257 -0.9317  1.0503
37198SOL     OW17429   9.252   9.684   2.760  0.0569 -0.4004 -0.2018
37198SOL    HW117430   9.197   9.761   2.777  0.1545 -0.6500  1.3147
37198SOL    HW217431   9.228   9.622   2.828  0.5619 -1.4162 -0.9327
37199SOL     OW17432   5.744  10.842  10.238 -0.1988 -0.5076  0.5236
37199SOL    HW117433   5.726  10.921  10.290  0.3558  0.3617 -0.5615
37199SOL    HW217434   5.780  10.876  10.156  0.2645 -1.9161  0.1337
37200SOL     OW17435   6.742   6.818   2.163 -0.2171 -0.2141 -0.5779
37200SOL    HW117436   6.826   6.775   2.178 -0.3211 -0.4400 -0.6394
37200SOL    HW217437   6.765   6.908   2.140 -0.0341  0.0120  0.4507
37201SOL     OW17438  10.846   5.685   9.597  0.4229  0.2883  0.4079
37201SOL    HW117439  10.897   5.704   9.518  1.0529 -0.1410  0.7076
37201SOL    HW217440  10.896   5.618   9.643 -2.0361 -2.7136 -0.9441
37202SOL     OW17441   6.557   5.016   9.675 -0.2961  0.0609  0.2487
37202SOL    HW117442   6.507   5.084   9.720 -1.1382 -1.5306  1.8123
37202SOL    HW217443   6.508   4.999   9.594  0.4365  1.9155 -0.6409
37203SOL     OW17444   2.184   2.368   6.993 -0.2958 -0.9349 -0.0419
37203SOL    HW117445   2.198   2.274   6.994  1.7838 -0.7182 -1.8039
37203SOL    HW217446   2.206   2.395   6.904 -1.1836  1.1812  0.3145
37204SOL     OW17447   4.169   7.748   3.808  0.3337  0.1608  0.0918
37204SOL    HW117448   4.153   7.696   3.730  1.2161 -2.7605  1.6951
37204SOL    HW217449   4.106   7.715   3.872  0.9720  1.0188  1.2027
37205SOL     OW17450   7.410   6.427   5.222  0.5523 -0.1312 -0.4553
37205SOL    HW117451   7.487   6.392   5.176  1.1757  1.2000 -0.4835
37205SOL    HW217452   7.432   6.418   5.315 -0.0958 -1.5062 -0.4168
37206SOL     OW17453   4.760   8.642  10.292 -0.0862  0.4631 -0.1329
37206SOL    HW117454   4.717   8.721  10.259  2.1778  1.9278  0.1687
37206SOL    HW217455   4.736   8.639  10.385  0.4057  1.2602  0.0309
37207SOL     OW17456   0.027   9.309   7.277  0.5343  0.0920  0.2740
37207SOL    HW117457   0.093   9.367   7.239 -0.0808  1.2820  0.9497
37207SOL    HW217458   0.024   9.335   7.370  1.3200 -2.0646  0.9583
37208SOL     OW17459  10.636   8.156   0.996  0.0702  0.0120  0.1672
37208SOL    HW117460  10.683   8.113   1.067 -0.3994 -1.8925 -0.6092
37208SOL    HW217461  10.663   8.247   1.001  0.5455 -0.1883  2.3686
37209SOL     OW17462   0.321   1.338   1.992 -0.1058 -0.0065 -0.0092
37209SOL    HW117463   0.336   1.325   1.899 -1.9760  0.5581 -0.4348
37209SOL    HW217464   0.236   1.297   2.009  0.4781 -0.6110  1.5783
37210SOL     OW17465   6.542   2.572   2.393  0.6398  0.1456  0.0200
37210SOL    HW117466   6.448   2.567   2.374  0.6337  1.1179 -0.2531
37210SOL    HW217467   6.551   2.643   2.456  1.1696 -0.1276  0.2622
37211SOL     OW17468   1.157  10.010   5.933 -0.3337 -0.5637 -0.4209
37211SOL    HW117469   1.159  10.054   6.018  1.1844 -1.6469  0.1542
37211SOL    HW217470   1.185  10.076   5.870 -0.2019 -0.1133  0.1027
37212SOL     OW17471   4.765   8.757  10.684 -0.1008  0.3803  0.3146
37212SOL    HW117472   4.782   8.847  10.655  0.3033  0.4540  0.7661
37212SOL    HW217473   4.741   8.765  10.776  1.6494 -0.1071  0.8490
37213SOL     OW17474   2.528   6.936   7.257 -0.1033 -0.3969  0.2154
37213SOL    HW117475   2.549   6.964   7.345  2.0914 -0.8846 -0.0990
37213SOL    HW217476   2.437   6.905   7.262  0.1789 -0.9904  2.4317
37214SOL     OW17477  10.193  10.813   0.211 -0.6424 -0.4561  0.0690
37214SOL    HW117478  10.106  10.772   0.209 -0.8443 -0.0344 -0.5893
37214SOL    HW217479  10.211  10.832   0.119 -0.1539  0.0810  0.2733
37215SOL     OW17480   5.647   1.852   0.289 -0.2142 -0.5459  0.5881
37215SOL    HW117481   5.634   1.799   0.210  0.2953  0.1641  0.0162
37215SOL    HW217482   5.733   1.826   0.322 -0.4401 -0.8648  0.9353
37216SOL     OW17483   1.932   5.938   1.819 -0.4512 -0.4012 -0.0395
37216SOL    HW117484   1.925   5.915   1.726  1.0071 -0.0897 -0.2475
37216SOL    HW217485   1.990   5.872   1.856 -0.6770 -0.2689  0.5613
37217SOL     OW17486   4.158   2.188  10.360 -0.0699  0.2369  0.2916
37217SOL    HW117487   4.247   2.176  10.326 -0.1078 -0.9297  0.5675
37217SOL    HW217488   4.110   2.111  10.332 -1.1930  1.1403 -0.3823
37218SOL     OW17489   7.284   3.770   3.866  0.2253 -0.1477  0.1605
37218SOL    HW117490   7.275   3.708   3.794  0.8774 -1.3153  1.0635
37218SOL    HW217491   7.378   3.788   3.871  0.0743  0.7540  0.0618
37219SOL     OW17492   3.527   8.522   4.597  0.3996  0.2725 -0.5830
37219SOL    HW117493   3.520   8.486   4.686 -0.4282  1.2079 -0.2463
37219SOL    HW217494   3.620   8.515   4.576  0.7014  0.5291  0.5774
37220SOL     OW17495   3.869   9.077   2.877  0.3338 -0.0585  0.0186
37220SOL    HW117496   3.932   9.013   2.843  0.2861  0.0330 -0.2455
37220SOL    HW217497   3.922   9.154   2.899  0.2812  0.1173 -0.4567
37221SOL     OW17498   4.021   5.355   4.386 -0.0375 -0.7170  0.1044
37221SOL    HW117499   4.088   5.423   4.395  0.2599 -1.0631  0.5479
37221SOL    HW217500   4.035   5.297   4.461 -0.6456 -0.9591  0.0355
37222SOL     OW17501  10.384   3.739   3.163  0.3419 -0.4581 -0.2994
37222SOL    HW117502  10.307   3.759   3.110 -0.8003 -0.8239  1.1355
37222SOL    HW217503  10.373   3.791   3.242  1.3345 -0.8789  0.1369
37223SOL     OW17504   0.536   4.403   8.797  0.1599  0.4169 -0.1339
37223SOL    HW117505   0.540   4.344   8.722 -1.0660 -0.2817  0.3191
37223SOL    HW217506   0.602   4.470   8.779 -0.6798  0.7429 -2.2360
37224SOL     OW17507   9.912   8.518   8.434 -0.0917  0.5285  0.0467
37224SOL    HW117508   9.965   8.552   8.506 -0.2961  0.9453  0.0046
37224SOL    HW217509   9.892   8.595   8.380  0.3625  0.1735 -0.6560
37225SOL     OW17510   5.472   5.822   0.368 -0.1254  0.3666  0.7027
37225SOL    HW117511   5.453   5.892   0.305 -1.5881 -0.5413  0.0890
37225SOL    HW217512   5.561   5.841   0.398  0.1265  1.5566 -0.6708
37226SOL     OW17513   4.063   9.225   4.653 -0.0945 -0.3199 -0.3917
37226SOL    HW117514   4.073   9.141   4.608 -1.1181  0.1612 -1.5857
37226SOL    HW217515   4.123   9.283   4.606  1.4296 -0.5983  1.1246
37227SOL     OW17516   4.911   2.476   5.192 -0.2936 -0.1044  0.0217
37227SOL    HW117517   4.851   2.421   5.142 -0.9078 -1.1987  1.8779
37227SOL    HW217518   4.998   2.452   5.160 -0.6883 -0.3804 -0.8757
37228SOL     OW17519   5.356   4.287  10.731 -0.1058 -0.6211  0.1516
37228SOL    HW117520   5.387   4.258  10.817 -1.9417 -1.5077  0.5612
37228SOL    HW217521   5.294   4.219  10.704  1.7904 -1.3748 -2.7764
37229SOL     OW17522   7.285   7.905   2.754  0.3306 -0.7283  0.0408
37229SOL    HW117523   7.296   7.999   2.745  1.5090 -0.9411 -1.1851
37229SOL    HW217524   7.298   7.887   2.847  1.0250  0.2121  0.1303
37230SOL     OW17525   9.812   2.751  10.082 -0.4994 -0.6115 -0.4068
37230SOL    HW117526   9.880   2.705  10.032  0.3813  0.5245 -0.2891
37230SOL    HW217527   9.821   2.718  10.171  0.1264 -0.2338 -0.3245
37231SOL     OW17528   0.079   1.645   0.813 -0.2621  0.8619  0.0986
37231SOL    HW117529  -0.010   1.627   0.845 -0.2711  0.9584  0.1275
37231SOL    HW217530   0.085   1.598   0.730 -0.0941  0.2600  0.4495
37232SOL     OW17531   2.622   1.155   5.381 -0.0263 -0.0530  0.1355
37232SOL    HW117532   2.529   1.140   5.361 -0.7177  0.2287  2.6908
37232SOL    HW217533   2.636   1.247   5.362  0.0254 -0.3175 -1.1820
37233SOL     OW17534   4.396   9.545   3.058  0.5642 -0.2011 -0.1460
37233SOL    HW117535   4.416   9.453   3.078  1.0384 -0.1207 -0.2480
37233SOL    HW217536   4.301   9.551   3.070  0.6210 -0.5331  0.5610
37234SOL     OW17537   3.397   8.072   0.501  0.2285 -0.3740  0.0169
37234SOL    HW117538   3.490   8.095   0.498  0.5049 -1.5274 -0.8567
37234SOL    HW217539   3.389   8.015   0.578  0.1261  0.2016  0.4345
37235SOL     OW17540   5.837   4.286   0.920 -0.1279 -0.1049 -0.0316
37235SOL    HW117541   5.882   4.222   0.864 -1.5709 -0.1103 -1.2215
37235SOL    HW217542   5.908   4.337   0.959  0.9225 -0.1225 -1.8336
37236SOL     OW17543   3.187   6.109   2.986  0.3799  0.2178 -0.3917
37236SOL    HW117544   3.248   6.130   3.057  1.3770  0.1836 -1.2170
37236SOL    HW217545   3.162   6.018   3.002  0.7479  0.1488 -0.1839
37237SOL     OW17546  10.320   7.604   4.393  0.1675 -0.3516 -0.6145
37237SOL    HW117547  10.262   7.528   4.385  0.0450 -0.1781 -1.4780
37237SOL    HW217548  10.405   7.571   4.363  0.3341 -0.3968 -0.0962
37238SOL     OW17549   0.115   4.636  10.925 -0.4750  0.2679  0.1487
37238SOL    HW117550   0.023   4.655  10.906 -0.6792 -1.6498 -1.1593
37238SOL    HW217551   0.114   4.545  10.957  1.0675 -0.2520 -1.1534
37239SOL     OW17552   5.316   2.229   8.078 -0.3224 -0.0995 -0.1285
37239SOL    HW117553   5.263   2.154   8.106 -0.7737  0.2631  0.0072
37239SOL    HW217554   5.336   2.211   7.986 -1.5412  0.2410 -0.4787
37240SOL     OW17555   5.635   6.069   2.160  0.3685 -0.8458 -0.3803
37240SOL    HW117556   5.635   5.996   2.099  1.5133 -1.9125  0.8396
37240SOL    HW217557   5.726   6.077   2.188  0.0719  0.3556  0.3203
37241SOL     OW17558   9.526   6.282   0.043 -0.5417  0.1566 -0.3217
37241SOL    HW117559   9.457   6.316  -0.013 -0.0329  1.0949 -0.3950
37241SOL    HW217560   9.550   6.355   0.099 -1.1425 -0.8066  1.2515
37242SOL     OW17561   5.564   2.664   4.123  1.0608  0.9313  0.8040
37242SOL    HW117562   5.564   2.732   4.191  1.0628  0.3399  1.4057
37242SOL    HW217563   5.656   2.638   4.116  1.1283  1.3190  0.2391
37243SOL     OW17564   2.188   1.371  10.811  0.3311  0.0503  0.2805
37243SOL    HW117565   2.281   1.360  10.826  0.3750 -0.1614 -0.1238
37243SOL    HW217566   2.167   1.307  10.743  0.4595  1.9237 -1.6565
37244SOL     OW17567   5.513   4.918   9.586  0.4118  0.3751  0.2862
37244SOL    HW117568   5.554   4.834   9.607 -3.1773 -1.1572  2.1148
37244SOL    HW217569   5.440   4.895   9.528  0.5290  2.5578 -0.8216
37245SOL     OW17570   4.799   3.789   5.004 -0.2105  0.1528  0.1352
37245SOL    HW117571   4.853   3.754   4.933 -0.4475 -2.0480  0.9519
37245SOL    HW217572   4.850   3.775   5.083 -0.3994  1.5922  0.5338
37246SOL     OW17573   4.788   2.232   7.932  0.2023 -0.2143 -0.6825
37246SOL    HW117574   4.741   2.233   8.015 -1.9291 -0.3210 -1.8385
37246SOL    HW217575   4.873   2.271   7.953 -0.5386  0.4254  1.3856
37247SOL     OW17576   7.753   3.200   5.810 -0.1273  0.5495  0.6110
37247SOL    HW117577   7.675   3.186   5.865 -2.1293  0.8039 -1.9478
37247SOL    HW217578   7.729   3.162   5.726  1.1945  3.5785 -1.2960
37248SOL     OW17579   1.584   4.361   4.256 -0.2003  0.3178 -0.2483
37248SOL    HW117580   1.549   4.272   4.250  1.1864 -0.1722 -2.3167
37248SOL    HW217581   1.676   4.349   4.279  0.0829  1.1895 -0.8664
37249SOL     OW17582   7.073   9.470   0.331 -0.1904 -0.3338 -0.5911
37249SOL    HW117583   7.017   9.537   0.291 -2.4712 -2.2379 -0.8344
37249SOL    HW217584   7.032   9.452   0.415  1.0007 -0.6943 -0.0699
37250SOL     OW17585   5.502   1.020   7.146 -0.0490  0.1384  0.2107
37250SOL    HW117586   5.433   0.995   7.085  0.5639  0.7031 -0.7309
37250SOL    HW217587   5.472   1.103   7.183  0.0753  0.3369 -0.1289
37251SOL     OW17588   6.394  10.366   9.810  0.5014  0.1920  0.2160
37251SOL    HW117589   6.392  10.342   9.717 -1.2303 -1.4126  0.6064
37251SOL    HW217590   6.313  10.414   9.824 -0.2768 -1.3389  1.2683
37252SOL     OW17591   9.079   0.587   3.655 -0.1268  0.4498  0.3119
37252SOL    HW117592   9.144   0.657   3.651 -0.8716  1.1101 -1.2775
37252SOL    HW217593   9.128   0.507   3.639  0.2421  1.0124 -1.7278
37253SOL     OW17594   1.187   5.675   3.608  0.1548  0.0741 -0.4515
37253SOL    HW117595   1.250   5.656   3.539 -0.5641 -0.2472 -1.0377
37253SOL    HW217596   1.224   5.632   3.686  0.4759 -0.4224 -0.8684
37254SOL     OW17597   6.254   1.212   8.636  0.5201 -0.0723 -0.3005
37254SOL    HW117598   6.222   1.258   8.714  0.7785  0.3258 -0.4311
37254SOL    HW217599   6.311   1.275   8.592  0.4785 -0.3419 -0.7454
37255SOL     OW17600   8.168   8.240   4.649 -0.4150  0.3461 -0.4456
37255SOL    HW117601   8.113   8.209   4.577 -0.7571 -1.1479  0.4259
37255SOL    HW217602   8.245   8.184   4.646  0.1041  1.0467 -0.3570
37256SOL     OW17603   3.378   8.923   9.894  0.3045 -0.4672 -0.0160
37256SOL    HW117604   3.342   8.885   9.974  2.0114 -0.5536  0.7513
37256SOL    HW217605   3.302   8.936   9.837 -0.9352 -0.4520  1.5816
37257SOL     OW17606   1.219   0.781   5.199 -0.0881 -0.7149 -0.0457
37257SOL    HW117607   1.198   0.763   5.108  0.5068 -0.6791 -0.1921
37257SOL    HW217608   1.274   0.859   5.197 -1.5799  0.4182  0.4871
37258SOL     OW17609   9.331   8.361   6.630 -0.5647  0.7068  0.0566
37258SOL    HW117610   9.421   8.357   6.597 -0.5310  0.4895  0.1731
37258SOL    HW217611   9.316   8.275   6.669 -0.9404  0.6239 -0.2682
37259SOL     OW17612   3.884   2.828   6.646  0.0441  0.5436 -0.5067
37259SOL    HW117613   3.881   2.788   6.733 -0.1211  0.1925 -0.6667
37259SOL    HW217614   3.948   2.898   6.653  0.6479 -0.0134 -0.3179
37260SOL     OW17615   8.002   7.628   1.901 -0.6384  0.4177 -0.1223
37260SOL    HW117616   8.002   7.640   1.806 -2.2520 -1.0960 -0.3611
37260SOL    HW217617   8.044   7.543   1.915 -3.6357 -1.1748  0.1246
37261SOL     OW17618   7.736   2.983   4.879 -0.4455 -0.9780 -0.3486
37261SOL    HW117619   7.714   3.031   4.799  1.3334 -0.4462 -0.5614
37261SOL    HW217620   7.679   2.906   4.877 -1.5077 -0.2110 -1.3358
37262SOL     OW17621   3.783   4.458  10.812  0.1014 -0.0257 -0.2752
37262SOL    HW117622   3.733   4.530  10.772 -1.0505 -0.8580 -0.3785
37262SOL    HW217623   3.762   4.464  10.905  2.0914  1.3667  0.1517
37263SOL     OW17624   3.321   0.508  10.803 -0.1375  0.1462  0.5702
37263SOL    HW117625   3.242   0.525  10.855  0.3479 -0.0808  1.3814
37263SOL    HW217626   3.326   0.582  10.743 -0.2580  0.8293  1.3895
37264SOL     OW17627   5.192  10.739   3.247  0.1931 -0.0083  0.2185
37264SOL    HW117628   5.217  10.647   3.241  0.5443  0.1252 -0.5003
37264SOL    HW217629   5.253  10.777   3.310  1.4535  0.1858 -1.0715
37265SOL     OW17630   0.304   5.872  10.019  0.2390 -0.4718 -0.6361
37265SOL    HW117631   0.236   5.882  10.087  1.7057  1.1725  0.6718
37265SOL    HW217632   0.288   5.944   9.958  1.2261  0.3820  0.0888
37266SOL     OW17633   2.319   2.697   9.707 -0.0991 -0.3027  0.9808
37266SOL    HW117634   2.271   2.779   9.697  0.2179 -0.1068  1.0524
37266SOL    HW217635   2.251   2.631   9.726 -0.8559 -0.8177 -2.7308
37267SOL     OW17636   1.485   5.398   4.430  0.1077 -0.1208  0.0313
37267SOL    HW117637   1.452   5.457   4.497  0.1739  0.4410 -0.4304
37267SOL    HW217638   1.445   5.313   4.451 -1.4178  0.4700 -0.3400
37268SOL     OW17639   5.284   7.046   6.081  0.3396  0.0799 -0.6302
37268SOL    HW117640   5.213   7.060   6.144  0.4127  1.5662 -0.8389
37268SOL    HW217641   5.323   7.133   6.070  2.8571 -0.8408  0.2665
37269SOL     OW17642   3.682   3.866   1.815  0.4897 -0.1455 -0.6753
37269SOL    HW117643   3.762   3.860   1.866  1.6331  2.6401 -1.9451
37269SOL    HW217644   3.613   3.835   1.874  2.2219 -0.7151  1.1404
37270SOL     OW17645   9.002   8.769   9.598 -0.0686  0.0170 -0.6004
37270SOL    HW117646   9.093   8.740   9.592 -0.0949 -0.0267 -0.8021
37270SOL    HW217647   8.994   8.807   9.686  0.0866 -0.1695 -0.5045
37271SOL     OW17648   4.469   4.271   2.977 -0.0584 -0.4273 -0.2650
37271SOL    HW117649   4.548   4.223   3.002 -1.1888 -1.2957  1.7913
37271SOL    HW217650   4.431   4.219   2.906  1.3742  0.2316 -1.5893
37272SOL     OW17651   6.590  10.611   8.759 -0.0280  0.3881  0.0110
37272SOL    HW117652   6.550  10.620   8.846 -1.6712  0.4966 -0.7377
37272SOL    HW217653   6.646  10.689   8.750  1.5391 -0.4594  1.6285
37273SOL     OW17654   3.692   6.688   1.837  0.6748 -0.3303 -0.4928
37273SOL    HW117655   3.604   6.651   1.841  1.1941 -1.9223 -2.5241
37273SOL    HW217656   3.681   6.771   1.790  0.3095 -0.6212 -0.9181
37274SOL     OW17657   1.012   1.568  10.319  0.0899  0.0639  0.6054
37274SOL    HW117658   1.007   1.660  10.344  0.1095 -0.1827  1.5243
37274SOL    HW217659   1.102   1.555  10.291 -0.2114  0.6135 -0.7233
37275SOL     OW17660  10.728   4.587   6.507  0.1025 -0.3103  0.0279
37275SOL    HW117661  10.724   4.492   6.498  0.5739 -0.4386  1.0326
37275SOL    HW217662  10.696   4.605   6.595  0.7571  0.3891  0.1364
37276SOL     OW17663   9.599   3.122   9.382  0.6749  0.2023  0.2108
37276SOL    HW117664   9.683   3.130   9.338 -0.1764  0.9023 -1.3801
37276SOL    HW217665   9.553   3.204   9.360 -0.1671  0.1391  1.6079
37277SOL     OW17666   7.182   4.662   4.835  0.1786 -0.1483 -0.0379
37277SOL    HW117667   7.235   4.733   4.871 -0.4897  0.6204 -0.5382
37277SOL    HW217668   7.186   4.675   4.741  0.4086 -1.0469 -0.1549
37278SOL     OW17669   7.632   9.181   1.810  0.0080  0.4349 -0.1605
37278SOL    HW117670   7.587   9.253   1.853 -0.5138  0.2214 -0.3379
37278SOL    HW217671   7.607   9.188   1.718 -0.8053 -0.5108 -0.0324
37279SOL     OW17672   5.447   1.255   8.544 -0.3965  0.7487 -0.6042
37279SOL    HW117673   5.433   1.166   8.576 -1.9168  0.6303 -1.4893
37279SOL    HW217674   5.489   1.301   8.617 -0.9111 -0.3152  0.3885
37280SOL     OW17675   6.893   1.718   8.450  0.6098 -0.2265  0.5011
37280SOL    HW117676   6.861   1.765   8.373  1.9263  0.2286  0.1952
37280SOL    HW217677   6.942   1.784   8.499  1.9020 -1.0965  0.4236
37281SOL     OW17678   6.537   4.139   2.884 -0.3729  0.5500 -0.2104
37281SOL    HW117679   6.561   4.135   2.977  0.2507 -0.4656 -0.3935
37281SOL    HW217680   6.459   4.194   2.881 -0.9427 -0.1681  1.0223
37282SOL     OW17681   0.710   2.318   9.411  0.1004  0.0972 -0.6072
37282SOL    HW117682   0.646   2.382   9.383  1.2886  0.6656 -2.1852
37282SOL    HW217683   0.696   2.243   9.353  0.0526 -0.2664 -0.1319
37283SOL     OW17684   1.872   8.456   2.090  0.5778  0.5029  0.7526
37283SOL    HW117685   1.808   8.386   2.079  0.4111  0.8520 -0.7002
37283SOL    HW217686   1.844   8.501   2.171  0.7729 -1.1412  1.7778
37284SOL     OW17687   2.088   5.810   5.966  0.2448  0.0271 -0.2605
37284SOL    HW117688   2.184   5.809   5.964  0.2589 -1.5304 -0.1550
37284SOL    HW217689   2.066   5.801   6.058  0.0060 -0.2602 -0.3449
37285SOL     OW17690  10.509   7.985   7.765  0.1469  0.1734 -0.4407
37285SOL    HW117691  10.425   7.976   7.810  0.8383  1.3214  1.1750
37285SOL    HW217692  10.493   8.049   7.695 -0.2059  0.7976  0.2050
37286SOL     OW17693   1.226   5.938   7.742 -0.2620 -0.0492  0.1871
37286SOL    HW117694   1.292   6.007   7.739  0.7166 -0.9877 -0.4594
37286SOL    HW217695   1.159   5.966   7.679  0.4701 -0.0072 -0.5885
37287SOL     OW17696   8.220   6.735   0.232 -0.2683  0.3594 -0.3737
37287SOL    HW117697   8.221   6.824   0.196  4.3667  0.4514 -0.5756
37287SOL    HW217698   8.222   6.678   0.155  1.9531  0.3377 -0.3601
37288SOL     OW17699   1.791   4.240   3.494 -0.0322  0.1189  0.4918
37288SOL    HW117700   1.873   4.195   3.515  0.1512  0.8204  1.3879
37288SOL    HW217701   1.772   4.291   3.573 -0.7302  0.8536 -0.1344
37289SOL     OW17702   8.899   8.096   3.290 -0.5621  0.3405  0.6465
37289SOL    HW117703   8.865   8.028   3.232 -0.2473 -0.1245  0.9987
37289SOL    HW217704   8.994   8.096   3.273 -0.6411  1.1770  0.1398
37290SOL     OW17705   5.480   1.377   2.082  0.2692  0.3488 -0.2422
37290SOL    HW117706   5.485   1.431   2.161  1.4845  0.6551 -0.5171
37290SOL    HW217707   5.427   1.430   2.021 -0.6752  0.1096  0.3457
37291SOL     OW17708   4.417   7.601   9.574 -0.5597 -0.2844 -0.0699
37291SOL    HW117709   4.332   7.559   9.582 -1.6126  1.2219 -2.1762
37291SOL    HW217710   4.396   7.694   9.561  1.5255  0.5037  1.5869
37292SOL     OW17711   9.258   0.532   1.067 -0.0727  0.3618  0.0127
37292SOL    HW117712   9.274   0.591   1.141 -0.1501  0.7761 -0.2980
37292SOL    HW217713   9.232   0.449   1.108  0.7374  0.3235  0.4689
37293SOL     OW17714   1.220   9.190   4.020 -0.5566  0.5392 -0.0523
37293SOL    HW117715   1.273   9.174   3.942  0.5141 -0.2304  0.7944
37293SOL    HW217716   1.257   9.270   4.058 -0.8538  0.7243 -0.1497
37294SOL     OW17717   3.031   8.141   4.213 -0.8304 -0.3054  0.0345
37294SOL    HW117718   2.937   8.157   4.206 -0.7693  1.6204  2.3714
37294SOL    HW217719   3.072   8.224   4.188  0.2859 -1.1040 -0.9036
37295SOL     OW17720   1.681   3.783   0.624 -0.7541  0.4992  0.3536
37295SOL    HW117721   1.613   3.824   0.571 -1.8535  0.7993  1.9189
37295SOL    HW217722   1.682   3.692   0.597 -0.2627  0.9237 -1.1717
37296SOL     OW17723   0.883   7.231   2.399  0.1923 -0.0174  0.1335
37296SOL    HW117724   0.810   7.215   2.340 -0.6408  0.1351  1.0951
37296SOL    HW217725   0.842   7.249   2.483  1.3525 -0.3125  0.7818
37297SOL     OW17726   0.017   2.203   6.420 -0.1660 -0.4325  0.1758
37297SOL    HW117727   0.014   2.238   6.331 -0.2611  0.4527  0.5212
37297SOL    HW217728   0.103   2.160   6.426 -0.2028 -0.5899 -0.3735
37298SOL     OW17729   2.509   6.367   2.054  0.3025 -0.0909  0.1469
37298SOL    HW117730   2.485   6.394   2.143  0.6973 -0.8514  0.4945
37298SOL    HW217731   2.555   6.443   2.018 -0.3874  0.4441  0.3692
37299SOL     OW17732   3.163   9.178   4.933  0.0026 -0.1068  0.1542
37299SOL    HW117733   3.158   9.094   4.887 -0.5141  1.2429 -2.4761
37299SOL    HW217734   3.194   9.156   5.021 -0.3695 -3.0449 -0.3590
37300SOL     OW17735   2.895   1.422   6.783 -0.0426  0.3895 -0.5055
37300SOL    HW117736   2.824   1.484   6.799 -1.3316 -1.0843 -0.2430
37300SOL    HW217737   2.914   1.385   6.870  0.0853 -0.2210 -0.7904
37301SOL     OW17738   1.539   9.734   3.311 -0.1716  0.3272  0.3039
37301SOL    HW117739   1.502   9.770   3.391 -1.4894 -0.5809  0.1515
37301SOL    HW217740   1.465   9.731   3.250  0.5492 -0.0285 -0.5874
37302SOL     OW17741   0.861   2.142   6.070  0.0451  0.2283 -0.5239
37302SOL    HW117742   0.845   2.235   6.053  1.1120  0.4189 -0.5548
37302SOL    HW217743   0.858   2.101   5.984 -1.3955  0.0609 -0.4127
37303SOL     OW17744   4.352   3.620   1.355 -0.2335 -0.3274  0.9070
37303SOL    HW117745   4.270   3.576   1.378 -0.6631  0.3968  0.8321
37303SOL    HW217746   4.408   3.551   1.319 -1.5436 -0.5147 -0.9228
37304SOL     OW17747   9.344   4.689   9.976 -0.1082 -0.5164 -0.0202
37304SOL    HW117748   9.328   4.606  10.020  0.1087 -0.6287 -0.1486
37304SOL    HW217749   9.440   4.696   9.972 -0.0750  0.8141  2.0001
37305SOL     OW17750   9.477  10.212   6.060  0.3607  0.2535  0.2064
37305SOL    HW117751   9.558  10.176   6.098  0.0309 -0.2126  0.4858
37305SOL    HW217752   9.492  10.211   5.966  0.4260 -0.4653  0.2190
37306SOL     OW17753   3.916   8.366   9.435  0.0385  0.6192  0.0689
37306SOL    HW117754   3.909   8.333   9.346 -0.2748  1.2835 -0.1612
37306SOL    HW217755   3.989   8.317   9.474 -0.7112 -0.6496 -0.1051
37307SOL     OW17756   9.978   5.794   4.723  0.4210  0.1698 -0.1919
37307SOL    HW117757   9.964   5.700   4.723 -1.2859  0.4046  0.1928
37307SOL    HW217758  10.002   5.815   4.814  1.0429  0.0939 -0.3306
37308SOL     OW17759   4.958   7.213   5.413  0.0596  0.2765  0.7326
37308SOL    HW117760   4.890   7.280   5.427  0.1622  1.3448 -2.9113
37308SOL    HW217761   4.927   7.163   5.337  2.2010 -0.8078  0.5177
37309SOL     OW17762   6.847   7.582   7.966  0.6592 -0.7431  0.2325
37309SOL    HW117763   6.762   7.570   8.007 -0.8241  0.6257 -2.2209
37309SOL    HW217764   6.893   7.644   8.024 -0.8969  0.2515  0.4479
37310SOL     OW17765   3.533   6.018   5.312  0.5283 -0.5409  0.3238
37310SOL    HW117766   3.476   6.060   5.248  0.0246  1.3355  1.9028
37310SOL    HW217767   3.613   6.071   5.311  1.1364 -1.4357  0.1634
37311SOL     OW17768   3.946   4.181   0.164 -0.3303  0.7321  0.1258
37311SOL    HW117769   3.996   4.106   0.197  2.7339  2.4490 -0.2195
37311SOL    HW217770   3.881   4.197   0.232  0.3266 -0.9219  1.2223
37312SOL     OW17771   3.401   0.756   8.642 -0.5320  0.0247  1.1376
37312SOL    HW117772   3.441   0.833   8.602  1.4132 -1.0911  0.7840
37312SOL    HW217773   3.340   0.791   8.707  0.6358  1.8602  1.3234
37313SOL     OW17774   1.032   9.214   6.834  0.5557  0.3457  0.0108
37313SOL    HW117775   1.107   9.267   6.806  0.4254  0.0348 -0.9458
37313SOL    HW217776   1.065   9.124   6.834  0.1937  0.2095 -0.4159
37314SOL     OW17777   1.014   0.389   7.307  0.5492  0.1728 -0.0706
37314SOL    HW117778   0.960   0.444   7.364 -1.1274 -0.6486 -0.7935
37314SOL    HW217779   1.022   0.439   7.225 -1.8924 -1.0129 -1.1251
37315SOL     OW17780   5.553  10.604   5.948 -0.6782 -0.2573 -0.0292
37315SOL    HW117781   5.590  10.532   6.000  0.6413  0.6197  0.2672
37315SOL    HW217782   5.613  10.615   5.875 -0.5431  0.9235  0.2422
37316SOL     OW17783   1.199  10.627   8.785 -0.1807  0.0121  0.3338
37316SOL    HW117784   1.257  10.611   8.710 -0.4538 -0.7032  0.2693
37316SOL    HW217785   1.121  10.666   8.746  0.0053  0.3976  0.3453
37317SOL     OW17786   2.621   1.975   5.254  0.6315 -0.6477  0.9135
37317SOL    HW117787   2.653   1.921   5.326 -0.1860 -2.9762 -0.3672
37317SOL    HW217788   2.555   1.921   5.210 -1.1575  1.8893  0.2436
37318SOL     OW17789   2.134   3.375   5.704 -0.0798  0.4977  0.2350
37318SOL    HW117790   2.138   3.410   5.793  0.6461  0.4405  0.2368
37318SOL    HW217791   2.042   3.352   5.690  0.0842 -1.1909  1.6372
37319SOL     OW17792   1.047   0.669   4.445  0.2111  0.0412 -0.5134
37319SOL    HW117793   1.077   0.673   4.354 -0.5105 -0.7503 -0.8115
37319SOL    HW217794   1.033   0.760   4.471  5.3543  0.7777  0.5839
37320SOL     OW17795   7.066   0.489   5.780  0.9116  0.7753  0.1301
37320SOL    HW117796   7.086   0.446   5.864 -1.2474 -1.8008 -0.5089
37320SOL    HW217797   6.974   0.516   5.789  0.5435  0.1538 -1.4658
37321SOL     OW17798   2.774   5.271   7.589  0.1115  0.6307 -0.1529
37321SOL    HW117799   2.793   5.268   7.496  0.2773  1.3300 -0.1522
37321SOL    HW217800   2.752   5.363   7.606  3.0467  1.2249  1.0522
37322SOL     OW17801   2.153   4.873   3.651  0.3332  0.0241  0.2626
37322SOL    HW117802   2.249   4.863   3.653  0.5238  1.6094  0.1998
37322SOL    HW217803   2.136   4.923   3.571 -0.5862 -0.5311  0.1021
37323SOL     OW17804   8.907   9.699   9.846 -0.5427 -0.2366  0.3415
37323SOL    HW117805   8.972   9.749   9.895  0.5729  0.0969 -1.3858
37323SOL    HW217806   8.941   9.609   9.846 -0.3999 -0.1871  0.0048
37324SOL     OW17807   5.663   2.255   1.189  0.2085 -0.3586 -0.3643
37324SOL    HW117808   5.743   2.262   1.240  1.1698 -0.7367 -1.7502
37324SOL    HW217809   5.592   2.269   1.252  1.3834  1.3933  0.6391
37325SOL     OW17810   8.284   2.176   0.391 -0.0507 -0.6640 -0.0152
37325SOL    HW117811   8.203   2.176   0.339  0.7078 -2.6537 -1.3443
37325SOL    HW217812   8.262   2.225   0.470 -2.4332 -0.7896 -0.5231
37326SOL     OW17813   6.815   2.610   9.239 -0.1036  0.7861  0.1251
37326SOL    HW117814   6.731   2.656   9.233 -0.3208  0.3811  0.0658
37326SOL    HW217815   6.842   2.622   9.331 -0.8391 -0.1477  0.4817
37327SOL     OW17816   5.406   6.800   7.122 -0.3557  0.2722  0.0412
37327SOL    HW117817   5.488   6.752   7.132 -0.8973 -0.6786  0.0556
37327SOL    HW217818   5.385   6.793   7.028 -0.2146  0.8668 -0.0392
37328SOL     OW17819   0.569   8.540   0.436  0.4848  0.0700  0.0627
37328SOL    HW117820   0.566   8.544   0.532  1.3501 -0.4393  0.1135
37328SOL    HW217821   0.659   8.516   0.415  0.3247  0.2473 -0.8897
37329SOL     OW17822   3.388   7.577   1.317  0.5020  0.3510  0.2049
37329SOL    HW117823   3.438   7.502   1.284  0.7579  0.9232 -0.7537
37329SOL    HW217824   3.454   7.633   1.358  0.0877 -0.7346  2.5299
37330SOL     OW17825   8.129   3.371   3.766  0.3514  0.1401  0.0486
37330SOL    HW117826   8.085   3.415   3.839  0.0431  1.3993 -0.8748
37330SOL    HW217827   8.222   3.392   3.778  0.2527  0.6927 -0.1532
37331SOL     OW17828   1.243   9.722   8.486 -0.6495  0.5335  0.2627
37331SOL    HW117829   1.257   9.808   8.524 -0.8369  0.9292 -0.5414
37331SOL    HW217830   1.230   9.738   8.392  1.6344 -0.5808 -0.3033
37332SOL     OW17831   9.899   0.074   8.506  0.3695 -0.3235 -0.1354
37332SOL    HW117832   9.968   0.127   8.466  0.1043  1.5899  1.7500
37332SOL    HW217833   9.823   0.087   8.450  0.5186  0.7161 -0.1203
37333SOL     OW17834   4.256   2.262   6.304  0.0537  0.5749  0.2568
37333SOL    HW117835   4.198   2.203   6.257  0.3217  1.1804 -0.8785
37333SOL    HW217836   4.285   2.212   6.380 -1.3919  0.0195  0.4781
37334SOL     OW17837   3.942   0.759   6.134 -0.1938  0.0147 -0.3896
37334SOL    HW117838   3.932   0.735   6.226  1.8473 -1.6265 -0.5220
37334SOL    HW217839   3.988   0.842   6.134  2.4195 -1.3429  0.1480
37335SOL     OW17840   7.426   2.721   1.652  0.2249 -0.1406 -0.3202
37335SOL    HW117841   7.456   2.800   1.606  0.2295  0.0910  0.0672
37335SOL    HW217842   7.505   2.686   1.693  0.0151  0.3916  0.5850
37336SOL     OW17843  10.538   8.862   3.445 -0.1767  0.2773 -0.5439
37336SOL    HW117844  10.455   8.815   3.443 -1.0343  1.7460 -1.2384
37336SOL    HW217845  10.537   8.916   3.366  1.2229  0.6974 -0.3078
37337SOL     OW17846   0.683   1.944   4.201  0.5925  0.1082 -0.1303
37337SOL    HW117847   0.613   1.889   4.165 -1.0051  0.3402  2.3645
37337SOL    HW217848   0.735   1.884   4.254 -0.5217  0.7373  1.7407
37338SOL     OW17849   9.023   1.612   3.397 -0.3475 -0.2879  0.0242
37338SOL    HW117850   9.106   1.600   3.443 -0.1833 -1.3781 -0.5154
37338SOL    HW217851   9.015   1.706   3.386  0.4745 -0.1272  0.6994
37339SOL     OW17852   5.393   7.865  10.019  0.0962 -0.4313 -0.4202
37339SOL    HW117853   5.410   7.943  10.071  2.3418  0.1956 -1.9290
37339SOL    HW217854   5.332   7.894   9.950  0.8801 -0.0032 -0.9423
37340SOL     OW17855   0.360   8.289   7.321 -0.3652 -0.7295  0.7497
37340SOL    HW117856   0.427   8.232   7.283  0.3937  1.1354 -0.8769
37340SOL    HW217857   0.283   8.275   7.266 -0.7146 -1.3752  1.3811
37341SOL     OW17858   9.405   3.225   4.077  0.0588  0.5491  0.0136
37341SOL    HW117859   9.377   3.162   4.010 -1.1369  0.8964  0.1551
37341SOL    HW217860   9.483   3.266   4.040  2.0201 -2.2838  0.7095
37342SOL     OW17861  10.328   8.789  10.827 -0.1730  0.5318  0.3855
37342SOL    HW117862  10.266   8.821  10.893 -0.3396  0.6117  0.1932
37342SOL    HW217863  10.396   8.745  10.877 -0.1108  0.9068  0.6331
37343SOL     OW17864   7.890   6.640   4.492 -0.2989 -0.3483 -0.1711
37343SOL    HW117865   7.900   6.678   4.580 -1.8846  1.1945 -0.6015
37343SOL    HW217866   7.798   6.615   4.487 -0.5410  0.7158 -1.7889
37344SOL     OW17867   0.411   0.391   4.560 -0.7477 -0.0670 -0.3580
37344SOL    HW117868   0.489   0.384   4.505  0.3272 -0.9085  1.1783
37344SOL    HW217869   0.360   0.312   4.540 -0.3173 -0.4156 -0.1036
37345SOL     OW17870   7.353   5.383   4.976  0.1476 -0.1826 -0.8258
37345SOL    HW117871   7.272   5.396   5.025  0.5464 -0.4960 -0.0693
37345SOL    HW217872   7.348   5.446   4.904 -1.5030 -1.2637 -1.7234
37346SOL     OW17873   5.599  10.546   2.326  0.7075 -0.1917 -0.3717
37346SOL    HW117874   5.596  10.590   2.411 -1.6255 -1.5422  0.3170
37346SOL    HW217875   5.554  10.605   2.266 -0.1109 -0.4602 -0.0308
37347SOL     OW17876   6.514   1.333   4.634  0.5814  0.1624  0.0537
37347SOL    HW117877   6.522   1.249   4.589 -1.6098 -0.3736  0.5643
37347SOL    HW217878   6.474   1.391   4.570  2.6757  1.0762 -0.5175
37348SOL     OW17879   8.517   9.100   0.462 -0.0834  0.9517 -0.5262
37348SOL    HW117880   8.442   9.158   0.452  0.8227  2.2791  0.2054
37348SOL    HW217881   8.530   9.063   0.374 -3.0327 -1.2082 -0.1980
37349SOL     OW17882   4.579   9.996   2.965 -0.1596  0.4764  0.2565
37349SOL    HW117883   4.555   9.951   3.046  1.1264  1.1161  1.0524
37349SOL    HW217884   4.595   9.926   2.902  1.0576 -0.1802  1.2394
37350SOL     OW17885   2.242  10.469   0.812 -0.1455 -0.4762  0.7114
37350SOL    HW117886   2.305  10.402   0.786  0.1170  0.5007 -1.4266
37350SOL    HW217887   2.288  10.552   0.799 -1.4907  0.2204  0.1294
37351SOL     OW17888   1.952   0.812  10.118 -0.2136  0.1377 -0.4748
37351SOL    HW117889   2.044   0.815  10.144 -0.3675 -1.5972  0.3954
37351SOL    HW217890   1.953   0.835  10.025  1.2261 -0.7355 -0.7163
37352SOL     OW17891   2.597   2.129   4.396  0.2019 -0.1313  0.1598
37352SOL    HW117892   2.593   2.197   4.464 -0.5625  0.8779 -0.8526
37352SOL    HW217893   2.686   2.133   4.362  0.8660 -1.2280  1.6311
37353SOL     OW17894   6.099   6.164   0.251  0.1386 -0.3877 -0.2128
37353SOL    HW117895   6.177   6.202   0.209  0.0573 -0.4125 -0.3842
37353SOL    HW217896   6.078   6.087   0.199  0.6184 -0.9829  0.4501
37354SOL     OW17897   1.443   1.833   4.057 -0.5028  0.9106 -0.3336
37354SOL    HW117898   1.451   1.829   3.961 -2.4434 -1.9196 -0.4807
37354SOL    HW217899   1.532   1.819   4.089 -0.0199  0.6728 -1.7150
37355SOL     OW17900   4.204   0.399   2.951  0.1504  0.8227 -0.7292
37355SOL    HW117901   4.207   0.339   2.876 -0.3047  0.1310 -0.2087
37355SOL    HW217902   4.277   0.372   3.006 -1.4827 -0.9537  0.7316
37356SOL     OW17903   7.663   1.998   9.744  0.0274 -0.3426  0.1975
37356SOL    HW117904   7.631   2.031   9.828  1.2426  0.5444  0.3470
37356SOL    HW217905   7.723   1.927   9.767  2.5482  1.6718  0.3468
37357SOL     OW17906   0.102   3.699   6.246  0.1849  0.1096  0.2281
37357SOL    HW117907   0.163   3.651   6.302  2.2437  2.0565 -0.1950
37357SOL    HW217908   0.141   3.786   6.238 -2.1800  1.1537 -0.9036
37358SOL     OW17909   4.519   8.540   6.630  0.2813 -0.0546 -0.0109
37358SOL    HW117910   4.485   8.612   6.576  1.3186 -0.3497 -1.1161
37358SOL    HW217911   4.519   8.574   6.719 -1.9396  0.2978 -0.0744
37359SOL     OW17912   8.322   3.140   0.014  0.2391  0.4611 -0.2417
37359SOL    HW117913   8.289   3.227  -0.008 -0.8969  0.2866  0.6560
37359SOL    HW217914   8.417   3.152   0.021  0.1325  1.5580 -0.4193
37360SOL     OW17915   9.747   5.298   0.608 -0.4389  0.0400  0.2913
37360SOL    HW117916   9.683   5.229   0.623 -0.1114 -0.0944  1.1012
37360SOL    HW217917   9.782   5.279   0.521  0.2593 -1.3267  0.8414
37361SOL     OW17918   3.750   2.289   9.176  0.1534  0.0462 -0.3223
37361SOL    HW117919   3.842   2.272   9.162  0.3631  1.7177 -1.2716
37361SOL    HW217920   3.738   2.381   9.151 -1.4854  0.2808  1.0866
37362SOL     OW17921   9.750   3.675   5.437  0.2168 -0.1914 -0.4139
37362SOL    HW117922   9.808   3.664   5.361 -0.3030 -0.1153 -0.8240
37362SOL    HW217923   9.810   3.674   5.512  0.7071 -0.5471 -0.8007
37363SOL     OW17924   9.380   0.002   0.336 -0.4457 -0.3005  0.2446
37363SOL    HW117925   9.421   0.059   0.271  0.2605 -1.5401 -0.4398
37363SOL    HW217926   9.452  -0.026   0.392 -0.9076  0.0413  1.0318
37364SOL     OW17927   7.216   2.363   1.699 -0.2145  0.3256  0.2619
37364SOL    HW117928   7.259   2.400   1.621  1.1940 -0.3944  0.6621
37364SOL    HW217929   7.123   2.358   1.675  0.1728  0.1902 -1.3515
37365SOL     OW17930   2.327   8.506   5.852  0.0281  0.3726  0.3878
37365SOL    HW117931   2.418   8.496   5.882 -0.3590  0.0737  1.5138
37365SOL    HW217932   2.333   8.502   5.757  1.3908  1.9247  0.3456
37366SOL     OW17933   9.765   7.621   6.464 -0.0403 -0.1053  0.6601
37366SOL    HW117934   9.729   7.691   6.519 -1.8009  0.0384 -0.6015
37366SOL    HW217935   9.729   7.541   6.502 -0.0067 -0.1339  0.6320
37367SOL     OW17936   1.857   3.217   9.702  0.9747  0.5229  0.1127
37367SOL    HW117937   1.919   3.270   9.651  0.6673  0.1784 -0.6363
37367SOL    HW217938   1.784   3.276   9.719 -0.3158 -0.1647 -2.4919
37368SOL     OW17939   5.647   2.878   9.736  0.0905  0.2172  0.3636
37368SOL    HW117940   5.645   2.817   9.810 -2.6327  1.3383  1.3777
37368SOL    HW217941   5.561   2.866   9.694  0.7829  1.0840 -1.3838
37369SOL     OW17942   6.098   3.133   7.832  0.5058 -0.7263  0.1973
37369SOL    HW117943   6.026   3.128   7.769  0.6382 -2.5861  0.1442
37369SOL    HW217944   6.102   3.226   7.856 -0.9861 -0.3494 -0.8474
37370SOL     OW17945   4.138  10.358   9.445 -0.0892 -0.6193  0.0149
37370SOL    HW117946   4.216  10.316   9.410 -0.6137 -1.2627 -0.4207
37370SOL    HW217947   4.149  10.451   9.425  2.8410  0.1856  4.2361
37371SOL     OW17948   7.197   8.059   8.642 -0.2865 -0.3521  0.1175
37371SOL    HW117949   7.288   8.070   8.671  0.0132 -1.1870 -0.4660
37371SOL    HW217950   7.174   7.969   8.669 -1.6998  0.5431  2.2458
37372SOL     OW17951   2.336   8.111   0.150 -0.5198  0.1784 -0.3563
37372SOL    HW117952   2.279   8.034   0.145  0.7750 -1.0130  1.7698
37372SOL    HW217953   2.311   8.154   0.232  3.3659 -2.0613  2.3607
37373SOL     OW17954   6.734   0.679   0.088  0.0869 -1.0713  0.0327
37373SOL    HW117955   6.711   0.587   0.073  1.1706 -1.7388  2.0604
37373SOL    HW217956   6.816   0.691   0.040 -0.5581 -0.8309 -1.0574
37374SOL     OW17957   3.803   9.052   3.744  0.1923 -0.3147  0.0590
37374SOL    HW117958   3.830   8.962   3.761  1.6326  0.0028 -0.4192
37374SOL    HW217959   3.828   9.067   3.652  0.0446  0.5901  0.1627
37375SOL     OW17960   4.854   9.998   9.522 -0.0391 -0.0485 -0.3641
37375SOL    HW117961   4.939   9.982   9.481 -0.7470 -2.1777 -1.0945
37375SOL    HW217962   4.795  10.015   9.449 -0.3843  0.9262  0.1180
37376SOL     OW17963   6.191   0.712   3.929  0.3246 -0.2739  0.3415
37376SOL    HW117964   6.141   0.786   3.894  1.4680  0.6947  0.6612
37376SOL    HW217965   6.271   0.711   3.878  0.7933 -0.5947  1.0626
37377SOL     OW17966   6.040   0.859  10.920 -0.0076 -0.2816 -0.4187
37377SOL    HW117967   5.946   0.876  10.926  0.1004  0.1674  0.0504
37377SOL    HW217968   6.066   0.835  11.009  0.5031  0.5852 -0.3214
37378SOL     OW17969   6.624   4.073   7.062 -0.0718 -0.2270 -0.0718
37378SOL    HW117970   6.558   4.036   7.003 -0.2050 -1.7694  0.9910
37378SOL    HW217971   6.704   4.025   7.042  0.1024 -0.1247  0.3708
37379SOL     OW17972   1.967  10.776   2.065 -0.5339  0.6683  0.2345
37379SOL    HW117973   1.885  10.756   2.018 -0.0762  0.0563 -0.3271
37379SOL    HW217974   2.007  10.846   2.014 -0.9072  1.2581  0.7489
37380SOL     OW17975  10.841   7.008   1.180  0.3984  0.1070 -0.0806
37380SOL    HW117976  10.839   6.957   1.261  1.0206  1.5012  0.8520
37380SOL    HW217977  10.754   7.047   1.175  0.4557  0.2602  0.0875
37381SOL     OW17978   0.438   5.484   2.370  0.1530  0.2568 -0.2770
37381SOL    HW117979   0.408   5.488   2.461 -0.0018  2.2831 -0.3676
37381SOL    HW217980   0.518   5.537   2.369  0.8804 -0.8287 -1.0806
37382SOL     OW17981   5.450   0.642   8.602  0.1793 -0.9011  0.3100
37382SOL    HW117982   5.502   0.591   8.540 -0.4739  0.0891 -1.0989
37382SOL    HW217983   5.361   0.609   8.591 -0.2430  0.4498 -0.5797
37383SOL     OW17984   9.098   1.412   8.176 -0.1121 -0.2246 -0.0271
37383SOL    HW117985   9.151   1.332   8.171 -0.3058 -0.5528  2.2161
37383SOL    HW217986   9.015   1.387   8.135 -0.1577 -1.1690  0.6122
37384SOL     OW17987   1.911   8.207   1.778  0.0836 -0.2480 -0.0373
37384SOL    HW117988   1.863   8.126   1.795  0.2180 -0.3053  0.0712
37384SOL    HW217989   1.982   8.207   1.843 -0.6940  0.6056  0.8501
37385SOL     OW17990   3.235   1.772   8.764 -0.2296  0.1259  0.6695
37385SOL    HW117991   3.160   1.815   8.722 -0.6197 -1.2029 -0.0731
37385SOL    HW217992   3.208   1.759   8.855  0.3873  2.5086  1.2618
37386SOL     OW17993   6.259   7.960   0.314  0.4162 -0.0361  0.6223
37386SOL    HW117994   6.227   7.870   0.309 -0.6845  0.4089 -1.3032
37386SOL    HW217995   6.180   8.012   0.325  0.9498  0.7678  0.6860
37387SOL     OW17996   8.259   3.672   3.511  0.2046 -0.0384 -0.0340
37387SOL    HW117997   8.182   3.616   3.504  0.4310 -0.6339  1.6856
37387SOL    HW217998   8.237   3.733   3.582  1.5376 -0.6517  0.9572
37388SOL     OW17999   9.253   5.609  10.100  0.0897 -0.1189  0.1002
37388SOL    HW118000   9.182   5.649  10.150 -0.1355  0.2575 -0.5011
37388SOL    HW218001   9.267   5.670  10.027  3.0932  1.4466  1.8007
37389SOL     OW18002   1.437   3.240   6.031  0.3743  0.7856 -0.4759
37389SOL    HW118003   1.488   3.182   5.975 -1.2538 -1.3473  0.0998
37389SOL    HW218004   1.426   3.191   6.112 -1.5472  1.6477 -0.1589
37390SOL     OW18005   4.049   1.874   0.555  0.2586  0.4320  0.2627
37390SOL    HW118006   4.092   1.813   0.614 -0.3881 -0.5142 -0.2149
37390SOL    HW218007   4.036   1.824   0.474  1.7342  1.8764 -0.9557
37391SOL     OW18008   6.310   8.205   7.453  0.4743  0.1147 -0.4026
37391SOL    HW118009   6.279   8.117   7.473  0.4090 -0.0039 -1.0149
37391SOL    HW218010   6.245   8.263   7.493 -0.8244 -0.1305 -2.0570
37392SOL     OW18011  10.816   7.578   1.529 -0.3347  0.5286  0.0623
37392SOL    HW118012  10.725   7.567   1.554 -0.3099 -0.2092 -0.1647
37392SOL    HW218013  10.855   7.491   1.540  0.9816  1.3195  2.7306
37393SOL     OW18014   2.405   0.786   4.384 -0.1901  0.2858 -0.2489
37393SOL    HW118015   2.338   0.851   4.406  0.3267  0.9395 -0.5736
37393SOL    HW218016   2.484   0.837   4.369  0.2389 -0.4267 -0.4575
37394SOL     OW18017   4.938   9.348   5.901 -0.4662  0.3511 -0.0146
37394SOL    HW118018   4.882   9.321   5.974  0.8255 -0.7074  0.6316
37394SOL    HW218019   4.970   9.265   5.864 -0.0479  0.9089 -0.9407
37395SOL     OW18020   2.470   6.915   8.041 -0.4979  0.5971 -1.5350
37395SOL    HW118021   2.522   6.838   8.018 -1.4215  0.2495 -2.5559
37395SOL    HW218022   2.525   6.990   8.015  0.6268  0.3389 -0.0501
37396SOL     OW18023   8.084   9.287   9.857 -0.0510 -0.2095  0.0496
37396SOL    HW118024   8.005   9.317   9.903  0.4424 -0.0727  0.8193
37396SOL    HW218025   8.089   9.194   9.879  0.5957  0.0134  0.9060
37397SOL     OW18026   5.187   4.965   0.687 -0.2093  0.1943 -0.0934
37397SOL    HW118027   5.179   5.040   0.628  1.2214  1.1620  0.8846
37397SOL    HW218028   5.274   4.974   0.725  1.0687 -3.3455 -1.7736
37398SOL     OW18029   7.627   1.213  10.732  0.2256  0.6646  0.3725
37398SOL    HW118030   7.700   1.275  10.731 -0.4065  1.4435  1.0808
37398SOL    HW218031   7.652   1.145  10.669  1.7614  0.6716  0.9268
37399SOL     OW18032   2.166   7.072   2.540 -0.2986 -0.2324  0.8018
37399SOL    HW118033   2.165   7.064   2.444 -0.9035 -1.2821  0.8765
37399SOL    HW218034   2.222   7.147   2.557  0.4975 -0.5354 -0.3428
37400SOL     OW18035   0.265   9.251   9.702 -0.1933  0.6805  0.1849
37400SOL    HW118036   0.229   9.243   9.613 -0.2042  0.7926  0.1784
37400SOL    HW218037   0.357   9.227   9.692 -0.3308  0.1187  0.2543
37401SOL     OW18038   8.550   2.230   5.584  0.1767 -0.1101 -0.4642
37401SOL    HW118039   8.583   2.141   5.570 -0.2733 -0.1399 -1.3697
37401SOL    HW218040   8.596   2.259   5.663 -0.2641 -1.4318  0.3237
37402SOL     OW18041   0.598  10.347   9.486 -0.0498  0.1550  0.1762
37402SOL    HW118042   0.677  10.296   9.506  0.3532  1.0608  1.0278
37402SOL    HW218043   0.579  10.328   9.394  1.4054  0.2134 -0.1657
37403SOL     OW18044   1.768   4.833   1.067 -0.3151  0.2573 -0.2047
37403SOL    HW118045   1.834   4.770   1.037  0.2535  0.7016  0.0938
37403SOL    HW218046   1.689   4.780   1.081  0.3623 -0.5392  0.7738
37404SOL     OW18047   1.727   4.645   5.702  0.5690 -0.0748  0.2505
37404SOL    HW118048   1.766   4.710   5.761  1.0342 -0.6948  0.6445
37404SOL    HW218049   1.798   4.620   5.643  0.8906 -1.4226  1.1556
37405SOL     OW18050   2.097   2.646   9.446 -1.0193  0.2699 -0.6988
37405SOL    HW118051   2.057   2.721   9.490 -1.2386  0.7546 -1.7064
37405SOL    HW218052   2.046   2.571   9.476 -1.0534  0.5708  0.0111
37406SOL     OW18053   7.653   4.104   7.140 -0.1914 -0.3468 -0.6049
37406SOL    HW118054   7.718   4.036   7.156 -0.5627 -0.4568  0.5095
37406SOL    HW218055   7.572   4.056   7.126 -1.2135 -0.2152  3.4628
37407SOL     OW18056   0.784   4.734   2.552 -0.2961 -0.0644  0.6961
37407SOL    HW118057   0.698   4.770   2.575 -0.8223 -0.8154 -0.0175
37407SOL    HW218058   0.808   4.780   2.471 -0.6751 -0.8277  0.1361
37408SOL     OW18059   1.690  10.775   1.484 -0.5355  0.5210  0.2064
37408SOL    HW118060   1.764  10.752   1.427  0.5544  0.5986  1.5371
37408SOL    HW218061   1.632  10.700   1.479  1.5444 -1.3713  2.1695
37409SOL     OW18062   2.793   2.219   4.235 -0.6625  0.2271  0.2050
37409SOL    HW118063   2.831   2.306   4.245 -0.8740  0.2073  1.2562
37409SOL    HW218064   2.746   2.223   4.152 -2.7924  1.9336  1.4192
37410SOL     OW18065   4.510   9.832   5.436 -0.2299 -0.3985 -0.0851
37410SOL    HW118066   4.448   9.759   5.430  0.7672 -1.2524 -0.2580
37410SOL    HW218067   4.456   9.907   5.460 -1.5671 -0.7868 -1.6753
37411SOL     OW18068   5.746   6.561   5.210  0.2155 -0.2987 -0.1750
37411SOL    HW118069   5.674   6.594   5.263 -0.3797 -0.6722 -0.7364
37411SOL    HW218070   5.704   6.530   5.129  0.8313 -1.7458  0.0220
37412SOL     OW18071  10.438   3.741   1.923 -0.4174  0.3815  0.2789
37412SOL    HW118072  10.457   3.650   1.901 -1.1584 -0.1022  1.5784
37412SOL    HW218073  10.347   3.754   1.895 -0.9897  0.0975  1.9108
37413SOL     OW18074   0.673  10.692   1.405 -0.1756  0.1651 -0.2960
37413SOL    HW118075   0.742  10.722   1.347  0.9970  0.8616  1.3663
37413SOL    HW218076   0.634  10.617   1.361  1.3665  0.0100 -1.4543
37414SOL     OW18077   9.731   9.650   6.609  0.2642 -0.0389  0.0900
37414SOL    HW118078   9.674   9.620   6.680 -0.8621 -0.4024 -0.9404
37414SOL    HW218079   9.734   9.576   6.548  1.1961  0.2778 -0.2667
37415SOL     OW18080  10.459   7.657   6.225  0.1378  1.3151  0.1902
37415SOL    HW118081  10.469   7.569   6.259 -2.0231  0.9007 -0.0765
37415SOL    HW218082  10.539   7.702   6.250  0.8425 -0.4218  1.2346
37416SOL     OW18083  10.158   7.288   2.962 -0.1554  0.0344  0.0486
37416SOL    HW118084  10.208   7.312   3.041  2.0442  1.4147 -1.6454
37416SOL    HW218085  10.115   7.369   2.936  0.7335  0.1160 -1.2314
37417SOL     OW18086   1.278   1.332   4.538 -0.2604 -0.2492  0.7026
37417SOL    HW118087   1.220   1.362   4.608  0.5164 -0.3164  1.3884
37417SOL    HW218088   1.245   1.375   4.459 -1.7763 -0.9588  0.9131
37418SOL     OW18089   2.340   7.236   0.848 -0.7164  0.2401  0.0034
37418SOL    HW118090   2.405   7.203   0.786 -1.6635 -1.3359 -0.2083
37418SOL    HW218091   2.360   7.193   0.930 -1.2524  0.0431  0.0355
37419SOL     OW18092   8.384   1.689   0.282  0.4763  0.4749  0.3563
37419SOL    HW118093   8.370   1.758   0.347  0.1269 -0.3008  1.1180
37419SOL    HW218094   8.464   1.646   0.311  0.6101  0.4534 -0.0378
37420SOL     OW18095   1.838   6.272   2.229 -0.1574 -0.7784 -0.2910
37420SOL    HW118096   1.904   6.291   2.161 -1.2868 -2.6191 -2.0280
37420SOL    HW218097   1.763   6.327   2.205  0.3284  0.6014  1.1367
37421SOL     OW18098   5.754  10.490   4.234  0.4584 -0.3788  0.8266
37421SOL    HW118099   5.792  10.578   4.236  2.2298 -0.8929 -2.5769
37421SOL    HW218100   5.673  10.500   4.185  1.2065 -0.7306 -0.5395
37422SOL     OW18101   9.606  10.531   5.837  0.1066 -0.3836  0.3984
37422SOL    HW118102   9.512  10.533   5.855 -0.3273 -0.1283 -1.6423
37422SOL    HW218103   9.646  10.560   5.918 -1.4976 -1.6446  1.7276
37423SOL     OW18104   5.436   2.276   9.018 -0.3860 -0.9436 -0.2716
37423SOL    HW118105   5.426   2.330   8.940  0.1248 -0.2136  0.1542
37423SOL    HW218106   5.383   2.198   9.001 -0.8448 -0.4702 -1.0452
37424SOL     OW18107   0.170   1.122   0.560  0.1053  0.4007 -0.1283
37424SOL    HW118108   0.154   1.215   0.577  0.4128  0.3173  0.6636
37424SOL    HW218109   0.124   1.077   0.631  0.8212  0.0047  0.0945
37425SOL     OW18110   8.195   0.617   5.663 -0.0075 -0.0277 -0.3172
37425SOL    HW118111   8.167   0.564   5.737 -0.0430 -0.2563 -0.4941
37425SOL    HW218112   8.180   0.707   5.692  1.8245 -0.0089  0.7076
37426SOL     OW18113   9.423  10.714   4.245  0.1614 -0.1364 -0.6205
37426SOL    HW118114   9.468  10.788   4.286  0.2305 -1.2399  1.4315
37426SOL    HW218115   9.340  10.707   4.292 -0.2241 -0.8365 -1.3778
37427SOL     OW18116   7.820   1.638   1.802  0.6170 -0.3370  0.2598
37427SOL    HW118117   7.879   1.705   1.769  1.5361 -1.2714 -0.0740
37427SOL    HW218118   7.740   1.685   1.827  0.8088  0.7082 -1.0157
37428SOL     OW18119   8.242   1.519   6.019  0.1571  0.1220  0.1552
37428SOL    HW118120   8.287   1.600   5.994  2.1904 -0.4864  1.5713
37428SOL    HW218121   8.160   1.549   6.059  1.3231  1.5992  1.6030
37429SOL     OW18122   3.041   6.667   8.883  0.3028  0.0221  0.3423
37429SOL    HW118123   3.018   6.731   8.949 -0.1234 -0.4065  0.6103
37429SOL    HW218124   2.958   6.640   8.844  0.3667 -1.1886  1.0027
37430SOL     OW18125   5.197   9.311   0.037 -0.5023 -0.3342 -0.2999
37430SOL    HW118126   5.136   9.297  -0.036  0.6749 -0.2532 -1.3361
37430SOL    HW218127   5.200   9.406   0.047 -0.9304 -0.3578  0.1078
37431SOL     OW18128   0.795   4.250   6.816 -0.3045 -0.2277 -0.2064
37431SOL    HW118129   0.816   4.295   6.734 -0.8123 -2.6327 -1.7575
37431SOL    HW218130   0.875   4.204   6.840 -0.9300 -1.7406 -0.9092
37432SOL     OW18131   2.828   4.672   3.620 -0.2977 -0.0574 -0.3667
37432SOL    HW118132   2.809   4.693   3.712 -1.1108  1.7510 -0.9058
37432SOL    HW218133   2.884   4.744   3.590  1.4184 -1.5116 -0.8685
37433SOL     OW18134   1.882   2.778   3.446 -0.3466  0.6533 -0.0133
37433SOL    HW118135   1.813   2.842   3.427 -0.4389  0.9131  1.1402
37433SOL    HW218136   1.839   2.710   3.498 -0.2924 -0.4742 -1.3678
37434SOL     OW18137   2.433   9.427   6.157 -0.0738 -0.0206  0.4751
37434SOL    HW118138   2.488   9.348   6.158 -0.6745 -0.4538  1.2804
37434SOL    HW218139   2.484   9.492   6.206 -0.4605 -0.5794  1.6749
37435SOL     OW18140   3.247   1.888   1.007 -0.0327 -0.5170 -0.4540
37435SOL    HW118141   3.250   1.981   0.981  0.2164 -0.8380 -1.6465
37435SOL    HW218142   3.306   1.883   1.082 -2.2101  0.8132  1.4602
37436SOL     OW18143   6.648   1.877  10.554  0.1181 -0.4620  0.1538
37436SOL    HW118144   6.658   1.830  10.471 -0.7613  1.0887 -0.8862
37436SOL    HW218145   6.555   1.868  10.576  0.4473 -1.3227  1.2866
37437SOL     OW18146   8.830   2.971   8.125  0.2699 -0.1330  0.1338
37437SOL    HW118147   8.815   2.881   8.152  2.1591 -0.2987  0.7084
37437SOL    HW218148   8.742   3.004   8.103 -0.4233 -2.1599 -0.3386
37438SOL     OW18149   3.437   9.043   3.473 -0.0245  0.4304 -0.2021
37438SOL    HW118150   3.429   9.015   3.382  1.0196  1.1392 -0.5326
37438SOL    HW218151   3.348   9.069   3.497 -0.2922  0.3808 -1.0769
37439SOL     OW18152   1.585   9.505   4.689  0.0033 -0.1455  0.0361
37439SOL    HW118153   1.549   9.422   4.658  3.4172 -1.6311 -0.2888
37439SOL    HW218154   1.606   9.554   4.609 -0.1934  0.2204  0.2029
37440SOL     OW18155   9.742   8.080   9.079  0.2641 -0.3671 -0.2263
37440SOL    HW118156   9.828   8.086   9.038  0.5017  1.7485  0.4605
37440SOL    HW218157   9.760   8.072   9.173 -0.2736 -0.0734 -0.0906
37441SOL     OW18158   4.670   3.702   8.051  0.4295 -0.1439  0.0774
37441SOL    HW118159   4.722   3.647   7.993  1.2324 -0.6490  1.2266
37441SOL    HW218160   4.686   3.791   8.022  0.8729 -0.3847 -0.4239
37442SOL     OW18161   4.223   3.099   9.357 -0.5464 -0.0257 -0.1966
37442SOL    HW118162   4.182   3.139   9.434  0.8010  0.3135  0.3703
37442SOL    HW218163   4.201   3.006   9.365 -0.3173 -0.0179  0.6703
37443SOL     OW18164   8.855  10.550   4.137 -0.1226  0.0550 -0.2394
37443SOL    HW118165   8.907  10.625   4.107  0.6859  0.2491  1.4759
37443SOL    HW218166   8.864  10.485   4.068  1.7086  0.4234 -0.3985
37444SOL     OW18167   9.438   3.969  10.301 -0.0843 -0.4299  0.7673
37444SOL    HW118168   9.458   3.892  10.247  1.8869  1.1394 -0.9310
37444SOL    HW218169   9.494   3.958  10.378 -0.8696 -1.3582  1.2246
37445SOL     OW18170   5.519   1.165   0.143  0.1590  0.2187 -0.1779
37445SOL    HW118171   5.602   1.212   0.146 -0.3273  1.1504 -0.6515
37445SOL    HW218172   5.479   1.193   0.060 -0.6081 -0.2404  0.0266
37446SOL     OW18173   6.521   1.452   2.235 -0.1585  0.2920  0.2442
37446SOL    HW118174   6.524   1.361   2.264 -1.9698 -0.0813 -0.6143
37446SOL    HW218175   6.558   1.451   2.147  0.2788  0.4847  0.4220
37447SOL     OW18176   1.742   9.750   3.689  0.0230 -0.3561 -0.2119
37447SOL    HW118177   1.661   9.744   3.638 -0.2153 -0.7893  0.2065
37447SOL    HW218178   1.722   9.816   3.756  0.5746  0.7379 -1.0904
37448SOL     OW18179  10.010   0.696   9.879  0.0003  0.2413  0.0505
37448SOL    HW118180  10.056   0.779   9.890  2.9978 -1.2282 -0.3694
37448SOL    HW218181  10.035   0.644   9.955 -1.7112 -0.3928  0.2405
37449SOL     OW18182   7.382   2.503   9.075  0.2712 -0.7211  0.2511
37449SOL    HW118183   7.444   2.495   9.147  0.6131  0.2287  0.0878
37449SOL    HW218184   7.435   2.490   8.996  0.5605  1.3100  0.0512
37450SOL     OW18185  10.172   7.785   0.255  1.0019 -0.3863 -0.2738
37450SOL    HW118186  10.268   7.790   0.261  1.0632 -0.6381 -0.9438
37450SOL    HW218187  10.141   7.847   0.321  1.6297 -0.2822 -0.0686
37451SOL     OW18188   1.181   0.953   3.237  0.2003  0.0284  0.1303
37451SOL    HW118189   1.141   0.952   3.150 -0.3722  1.0110  0.3714
37451SOL    HW218190   1.207   1.044   3.251 -1.8682  0.4474  1.9259
37452SOL     OW18191   0.307  10.827  10.295 -0.4824 -0.2400  0.1419
37452SOL    HW118192   0.288  10.898  10.357  0.2173 -1.6531  2.0456
37452SOL    HW218193   0.221  10.802  10.261 -0.8468  0.7901  0.2757
37453SOL     OW18194   1.972   7.154   3.675  0.5780  0.1116 -0.4926
37453SOL    HW118195   1.928   7.070   3.660  0.0273  0.4644 -0.9241
37453SOL    HW218196   1.962   7.201   3.592  1.5449  0.3092 -0.4996
37454SOL     OW18197   9.371   6.638   1.309 -0.2561 -0.7345 -0.4057
37454SOL    HW118198   9.415   6.605   1.230 -1.7717 -1.9655 -0.7725
37454SOL    HW218199   9.278   6.633   1.289 -0.8400 -3.5216  2.3252
37455SOL     OW18200   3.412   4.226   3.185 -0.3414  0.2377  0.1404
37455SOL    HW118201   3.436   4.252   3.274 -0.8581  0.1416  0.3092
37455SOL    HW218202   3.417   4.130   3.187 -0.3321  0.2365  0.0551
37456SOL     OW18203   2.456  10.054   0.436 -0.8066 -0.0219  0.6549
37456SOL    HW118204   2.394   9.986   0.463  0.6542 -1.5663  0.3282
37456SOL    HW218205   2.510  10.070   0.514 -1.2613  0.9268  0.7855
37457SOL     OW18206  10.084   4.827   6.351  0.7981 -0.3077  0.3775
37457SOL    HW118207  10.018   4.762   6.375 -0.2120  0.9171  1.0359
37457SOL    HW218208  10.109   4.806   6.261 -1.5440  0.0496 -0.4043
37458SOL     OW18209   7.225   2.341   0.268 -0.5050  0.1369 -0.0716
37458SOL    HW118210   7.172   2.264   0.245  0.8364 -0.4450 -1.3727
37458SOL    HW218211   7.182   2.414   0.225 -0.1987 -0.3525 -1.2316
37459SOL     OW18212  10.866   3.247   0.422  0.1637 -0.4227  0.1539
37459SOL    HW118213  10.870   3.269   0.515  1.0844  0.5544 -0.0988
37459SOL    HW218214  10.955   3.223   0.399  0.3492  1.0663 -0.8572
37460SOL     OW18215   8.414   2.248   6.875  0.2437  0.1884  0.2830
37460SOL    HW118216   8.359   2.170   6.882  2.2063 -1.3744 -0.6774
37460SOL    HW218217   8.387   2.289   6.792 -1.3696  1.0977  1.1875
37461SOL     OW18218   9.146   4.662   2.451  0.3540 -0.0824  0.6956
37461SOL    HW118219   9.102   4.690   2.372  0.0661 -2.7235 -0.1738
37461SOL    HW218220   9.185   4.742   2.487  0.4214  1.2037 -2.0337
37462SOL     OW18221  10.025   4.317  10.418  0.1909  0.3839  0.2856
37462SOL    HW118222   9.970   4.388  10.385 -1.2653  0.2071  2.1817
37462SOL    HW218223  10.017   4.248  10.352  1.0723  1.6360 -1.2319
37463SOL     OW18224   3.073   8.201   0.283  0.4399  0.2985  0.1702
37463SOL    HW118225   3.055   8.158   0.366  1.6068 -0.1156  0.2207
37463SOL    HW218226   3.137   8.268   0.304 -1.0220  1.8101  0.0079
37464SOL     OW18227   1.636   6.940   3.113 -0.6557 -0.4288 -0.2498
37464SOL    HW118228   1.565   6.903   3.061 -0.9635  0.8091 -0.7386
37464SOL    HW218229   1.623   7.035   3.108  0.4194 -0.2231  0.5172
37465SOL     OW18230   8.534   9.765   5.881 -0.3552  0.2529  0.1888
37465SOL    HW118231   8.620   9.778   5.842 -0.5531  0.7394 -0.0920
37465SOL    HW218232   8.552   9.749   5.974  0.1023 -0.7355 -0.0621
37466SOL     OW18233   5.461   3.945   3.531 -0.1766  0.3416 -0.4243
37466SOL    HW118234   5.539   3.888   3.532  0.6635  1.4436  0.7973
37466SOL    HW218235   5.394   3.894   3.578 -0.2117 -0.6136 -1.4784
37467SOL     OW18236   7.203   7.290   9.699 -0.6163 -0.9017  0.0180
37467SOL    HW118237   7.297   7.282   9.716 -0.5356 -1.6134 -0.7139
37467SOL    HW218238   7.162   7.290   9.786  0.1349  0.7763  0.4186
37468SOL     OW18239   5.443   2.258   1.038 -0.1803  0.0825  0.5327
37468SOL    HW118240   5.527   2.264   1.083  0.2033  1.3359 -0.2840
37468SOL    HW218241   5.435   2.167   1.011  0.9450 -0.0324  0.5731
37469SOL     OW18242   2.873   4.485   7.433 -0.4254 -0.1864  0.0315
37469SOL    HW118243   2.965   4.498   7.456 -0.4071  0.4649 -0.4051
37469SOL    HW218244   2.848   4.564   7.386 -0.7223 -1.0964 -1.4149
37470SOL     OW18245   0.760   4.077   4.371 -0.5851 -0.0780  0.1994
37470SOL    HW118246   0.853   4.065   4.390 -0.8221 -1.5432  0.6104
37470SOL    HW218247   0.751   4.054   4.279 -0.2287  2.1693 -0.4456
37471SOL     OW18248   3.043   1.025   6.928 -0.6130 -0.1215 -0.2858
37471SOL    HW118249   3.015   1.020   6.837 -1.2993 -0.7749 -0.0539
37471SOL    HW218250   2.963   1.013   6.979 -0.2236  0.1155  0.4057
37472SOL     OW18251   9.410   6.484   9.918 -0.5011 -0.1661  0.0736
37472SOL    HW118252   9.429   6.398   9.956 -0.0674  0.0780  0.4223
37472SOL    HW218253   9.359   6.529   9.985  0.4881  0.3604  0.4861
37473SOL     OW18254   4.665   2.928   9.723  0.0064 -0.4903  0.2315
37473SOL    HW118255   4.741   2.872   9.740  1.0170  0.9049  0.5610
37473SOL    HW218256   4.678   2.960   9.634  0.3550  0.5071  0.6159
37474SOL     OW18257  10.599   2.796   5.947 -0.4729 -0.1237 -0.1487
37474SOL    HW118258  10.668   2.837   5.895 -0.9361  0.4072 -0.3497
37474SOL    HW218259  10.547   2.869   5.980 -2.2900 -0.5618 -1.8226
37475SOL     OW18260   1.615   9.317   7.618  0.1999  0.3900 -0.1345
37475SOL    HW118261   1.658   9.349   7.698 -0.6891  1.2264  0.0299
37475SOL    HW218262   1.675   9.342   7.547  0.5556  0.4624  0.1863
37476SOL     OW18263   1.596   3.057  10.245  0.0175  0.0409  0.2206
37476SOL    HW118264   1.634   3.142  10.266 -0.6380  0.1207  1.1697
37476SOL    HW218265   1.546   3.073  10.165 -0.9288  0.8153  0.9408
37477SOL     OW18266   4.224   0.826   1.779 -0.5896  0.1948  0.5301
37477SOL    HW118267   4.173   0.800   1.855  0.2198 -1.4833  0.5569
37477SOL    HW218268   4.304   0.775   1.785  0.5095  1.7520 -0.2337
37478SOL     OW18269   7.926   3.626   2.212  0.5130 -0.4782 -0.1925
37478SOL    HW118270   7.949   3.672   2.293  0.1408  0.2017 -0.4723
37478SOL    HW218271   7.857   3.566   2.238 -0.2146  0.3502 -0.1690
37479SOL     OW18272   3.283   5.625   8.621  0.1030  0.2912 -0.0285
37479SOL    HW118273   3.346   5.581   8.564 -0.7259  1.3203 -1.8390
37479SOL    HW218274   3.336   5.656   8.695  1.1169 -1.5843  0.0947
37480SOL     OW18275  10.522   3.580   4.375 -0.4132  1.3177 -0.6925
37480SOL    HW118276  10.487   3.529   4.302 -3.3413  1.0706  0.7284
37480SOL    HW218277  10.570   3.517   4.428 -0.1537  1.0428 -1.2459
37481SOL     OW18278   8.490   1.658   5.168 -0.3144  0.2792 -0.2815
37481SOL    HW118279   8.454   1.735   5.211  1.3865 -0.0032  1.8461
37481SOL    HW218280   8.554   1.692   5.106  0.4541  0.6105  0.6737
37482SOL     OW18281   3.313   6.522  10.399  0.1024 -0.3225  0.0890
37482SOL    HW118282   3.378   6.479  10.454 -1.1414  0.3501  2.2136
37482SOL    HW218283   3.274   6.451  10.347  1.3082 -0.9832  0.0588
37483SOL     OW18284   4.598   0.035   5.493 -0.3750 -0.3699 -0.2433
37483SOL    HW118285   4.570   0.003   5.407 -0.7078  0.6899 -0.5312
37483SOL    HW218286   4.646   0.116   5.475 -0.4433 -0.1361  0.5734
37484SOL     OW18287   7.412   6.051   4.890 -0.1492 -0.6283  0.2973
37484SOL    HW118288   7.324   6.047   4.929 -0.4624  0.4024 -0.2812
37484SOL    HW218289   7.422   6.141   4.862 -0.8741 -1.6979 -4.1201
37485SOL     OW18290   6.968   6.870   1.454 -0.4153 -0.3391  0.1697
37485SOL    HW118291   6.916   6.857   1.533  0.8315 -0.5657  0.9832
37485SOL    HW218292   6.958   6.789   1.405 -1.5336 -0.0389 -0.1325
37486SOL     OW18293   2.646  10.913   3.630 -0.2348 -0.4890  0.1706
37486SOL    HW118294   2.717  10.900   3.693  0.8383 -0.7376 -1.0672
37486SOL    HW218295   2.629  11.007   3.631  2.7682  0.2196 -2.2655
37487SOL     OW18296   2.833   0.253   6.119  0.2620  0.2112  0.2051
37487SOL    HW118297   2.832   0.167   6.076  0.7915 -1.4160  3.1827
37487SOL    HW218298   2.924   0.282   6.112  0.2797  0.1056 -0.0172
37488SOL     OW18299   8.549  10.001   3.493 -0.3097 -0.3513  0.4400
37488SOL    HW118300   8.616   9.933   3.503  1.1124  0.4839 -2.3556
37488SOL    HW218301   8.598  10.081   3.478 -1.9807  0.7907  0.7767
37489SOL     OW18302   1.094   7.478  10.010  0.1017 -0.4800  0.1825
37489SOL    HW118303   1.010   7.472   9.965 -0.2934  1.2318  0.6228
37489SOL    HW218304   1.159   7.483   9.940 -0.5281  2.5071 -0.3265
37490SOL     OW18305   7.738   1.806   6.355 -0.3838  0.2953  0.3748
37490SOL    HW118306   7.800   1.764   6.414 -1.5554 -1.3526  0.4956
37490SOL    HW218307   7.722   1.741   6.287 -2.0282  0.6301  0.4030
37491SOL     OW18308   9.956   1.587   6.001 -0.0527 -0.2145  0.1381
37491SOL    HW118309   9.888   1.529   5.967 -0.1032  0.0877 -0.2827
37491SOL    HW218310  10.036   1.561   5.955 -0.3292  0.8914 -1.0205
37492SOL     OW18311   7.046   5.859   4.141  0.4210 -0.6862 -0.4275
37492SOL    HW118312   7.036   5.819   4.227  0.2320  0.2760  0.0151
37492SOL    HW218313   7.114   5.925   4.153 -0.7694  0.6263 -0.5690
37493SOL     OW18314   5.697   1.952   3.019 -0.2385  0.3603  0.7417
37493SOL    HW118315   5.648   1.965   2.938  2.2305  0.9346 -0.7641
37493SOL    HW218316   5.728   2.040   3.042  2.2887 -0.2601  0.0681
37494SOL     OW18317   9.865   6.536   4.451  0.1809  0.3264  0.5787
37494SOL    HW118318   9.884   6.443   4.436 -0.1207  0.2119  0.8860
37494SOL    HW218319   9.842   6.570   4.365  2.1096  0.5576  0.1193
37495SOL     OW18320  10.145  10.921   4.046  0.0036 -0.0774  0.3811
37495SOL    HW118321  10.192  10.953   4.123  0.8349  0.5884 -0.3802
37495SOL    HW218322  10.079  10.989   4.028 -1.4827 -1.1329  1.6038
37496SOL     OW18323   7.227   8.254   4.645 -0.5762 -0.5224  0.1029
37496SOL    HW118324   7.312   8.220   4.670 -0.4806 -0.1618  0.2673
37496SOL    HW218325   7.195   8.192   4.579  0.6697  0.3830 -1.4260
37497SOL     OW18326   1.257   1.439   4.293 -0.1594  0.1138  0.0605
37497SOL    HW118327   1.266   1.530   4.263 -1.8379  0.6821  1.1094
37497SOL    HW218328   1.207   1.396   4.224  2.5246 -0.7015 -1.5356
37498SOL     OW18329   0.395   0.368   5.607 -0.3267 -0.6105  0.1997
37498SOL    HW118330   0.322   0.372   5.545  0.2060  1.9992 -0.3663
37498SOL    HW218331   0.439   0.286   5.586 -0.4200 -0.0518 -2.6504
37499SOL     OW18332   0.898   2.846  10.788 -0.5674  0.2198 -0.5379
37499SOL    HW118333   0.829   2.862  10.853  0.0260  0.4910  0.0372
37499SOL    HW218334   0.859   2.874  10.705 -0.9943  0.8146 -0.1515
37500SOL     OW18335   4.446   2.041   3.468 -0.0696 -0.7339  0.3466
37500SOL    HW118336   4.384   1.992   3.414 -0.0335 -1.1393  0.6652
37500SOL    HW218337   4.396   2.068   3.545  0.9412 -4.2039  2.4523
37501SOL     OW18338   0.075   0.701   3.182  1.0344 -0.2506 -0.7814
37501SOL    HW118339   0.008   0.638   3.209  2.4267 -1.3749  0.2030
37501SOL    HW218340   0.124   0.656   3.112 -0.8003  1.5784 -3.4404
37502SOL     OW18341   5.416   4.499   7.801 -0.0113 -0.0008  0.4052
37502SOL    HW118342   5.398   4.440   7.874 -0.0120  0.9619  1.2099
37502SOL    HW218343   5.436   4.442   7.728 -0.8741 -1.0055  0.9352
37503SOL     OW18344   2.517   5.285  10.129 -0.2121 -0.9585  0.0942
37503SOL    HW118345   2.551   5.373  10.141 -2.6093  0.0508  0.0230
37503SOL    HW218346   2.501   5.253  10.218  1.9967 -1.9507  0.1902
37504SOL     OW18347   5.550   1.283   4.869 -0.2801  0.1092 -0.6003
37504SOL    HW118348   5.574   1.306   4.959 -0.6312  0.2090 -0.5305
37504SOL    HW218349   5.595   1.201   4.853  0.0953  0.2875 -0.4659
37505SOL     OW18350   0.549   1.035  10.219  0.6976  0.3946  0.3118
37505SOL    HW118351   0.621   0.980  10.251  0.7915  1.5008  2.1419
37505SOL    HW218352   0.583   1.076  10.140  1.2835 -0.7525 -0.0437
37506SOL     OW18353   6.294   3.490   6.995 -0.0236 -0.0341 -0.2063
37506SOL    HW118354   6.248   3.463   6.915 -1.9063 -2.2084  1.4702
37506SOL    HW218355   6.265   3.579   7.011 -0.7303 -0.0712 -1.2073
37507SOL     OW18356   2.171  10.128   7.489  0.1479 -0.4296 -0.5229
37507SOL    HW118357   2.256  10.171   7.485 -0.1903  0.3123 -0.0693
37507SOL    HW218358   2.114  10.191   7.534 -1.4898  0.5366 -3.6548
37508SOL     OW18359   6.283   8.552   8.001  0.0210  0.3236  0.3324
37508SOL    HW118360   6.209   8.507   7.959  0.1817  0.2957  0.0751
37508SOL    HW218361   6.332   8.482   8.045  1.4424 -0.1206 -1.7905
37509SOL     OW18362   5.549   8.786   1.632 -0.5279 -0.3342  0.0805
37509SOL    HW118363   5.560   8.725   1.559 -1.0253 -0.9794  0.5261
37509SOL    HW218364   5.493   8.738   1.694 -1.2418  0.7204  0.2698
37510SOL     OW18365   8.528   5.701   9.759  0.3453 -0.0593  0.5450
37510SOL    HW118366   8.577   5.783   9.748  0.8452 -0.3564  0.5463
37510SOL    HW218367   8.584   5.646   9.814  0.5316 -0.8331 -0.3990
37511SOL     OW18368   7.639   1.769   5.482 -0.5415 -0.0248 -0.2246
37511SOL    HW118369   7.694   1.724   5.546 -1.9996 -2.7076 -0.6847
37511SOL    HW218370   7.569   1.808   5.533 -1.0316 -1.1102 -0.0358
37512SOL     OW18371  10.163   7.795   0.898 -0.1675  0.6672 -0.0197
37512SOL    HW118372  10.254   7.771   0.884 -0.1815  0.6178 -0.0255
37512SOL    HW218373  10.167   7.874   0.952 -0.1141  0.8978 -0.3583
37513SOL     OW18374   4.130  10.085  10.265  0.8382  0.3638 -0.8795
37513SOL    HW118375   4.133   9.996  10.300 -1.2150  0.2339 -0.8616
37513SOL    HW218376   4.202  10.131  10.307 -0.8361 -0.0547  2.8592
37514SOL     OW18377   1.700   9.246   8.602 -0.2997 -0.2046  0.1894
37514SOL    HW118378   1.623   9.286   8.561  2.0050  2.6890 -1.7364
37514SOL    HW218379   1.690   9.264   8.695 -1.4972  0.9700 -0.1370
37515SOL     OW18380  10.688   0.180   8.802  0.1748 -0.1019 -0.0906
37515SOL    HW118381  10.687   0.099   8.750 -1.5063 -0.3889  0.3447
37515SOL    HW218382  10.770   0.174   8.852 -0.5302 -2.2286  0.9415
37516SOL     OW18383   1.934   2.702   9.724 -0.2510  0.7718  0.1325
37516SOL    HW118384   1.961   2.746   9.804  2.5452  0.2397 -0.3962
37516SOL    HW218385   1.943   2.768   9.656  0.6743  0.3523 -0.1766
37517SOL     OW18386  10.387  10.261   4.287  0.2772  0.0190  0.3528
37517SOL    HW118387  10.311  10.240   4.342  0.3727 -1.5158 -0.0491
37517SOL    HW218388  10.440  10.182   4.289  0.9441  0.4090 -0.8685
37518SOL     OW18389  10.709  10.294   4.045  0.4644 -0.3413 -0.4788
37518SOL    HW118390  10.793  10.290   4.001 -0.2281 -3.2461 -1.8054
37518SOL    HW218391  10.725  10.256   4.132  0.8091  0.6412 -0.0990
37519SOL     OW18392   4.113   2.261  10.628 -0.0995  0.1749  0.1362
37519SOL    HW118393   4.186   2.213  10.668  0.5060  1.9411  1.3378
37519SOL    HW218394   4.111   2.232  10.537 -1.0193 -3.4659  1.1807
37520SOL     OW18395   3.636   1.180   4.044 -0.2809 -0.0152  0.5158
37520SOL    HW118396   3.548   1.200   4.012 -0.9342 -1.6938  1.1244
37520SOL    HW218397   3.624   1.170   4.139  0.6985  0.3545  0.6820
37521SOL     OW18398   5.226   0.692   2.734  0.2812 -0.5035 -0.1069
37521SOL    HW118399   5.230   0.664   2.642 -1.2591 -0.1977 -0.2854
37521SOL    HW218400   5.176   0.623   2.778 -1.9041  0.9396 -0.1849
37522SOL     OW18401   3.303   1.912   5.850  0.3599 -0.0877 -0.3543
37522SOL    HW118402   3.397   1.896   5.852  0.4712  0.6303  1.3129
37522SOL    HW218403   3.280   1.936   5.939 -1.5350 -0.8627 -0.5793
37523SOL     OW18404   1.074   4.687   6.639 -0.0582  0.3686  0.1524
37523SOL    HW118405   1.142   4.652   6.581 -0.0110 -1.4046  1.1967
37523SOL    HW218406   1.108   4.771   6.668  2.0312 -0.7475  1.1427
37524SOL     OW18407   7.685   0.967   4.838  0.4455  0.2042  0.4780
37524SOL    HW118408   7.650   0.899   4.780  0.1814 -1.8683  2.8514
37524SOL    HW218409   7.616   1.032   4.843  0.8648  0.9775 -2.1956
37525SOL     OW18410   6.891   8.883   7.385  0.2627  0.3275  0.3253
37525SOL    HW118411   6.947   8.879   7.463 -0.4799 -0.6811  0.8264
37525SOL    HW218412   6.810   8.839   7.411 -0.5896  1.3229 -0.5465
37526SOL     OW18413   0.217   6.736   6.385 -0.4045  0.5736  0.0065
37526SOL    HW118414   0.166   6.733   6.304 -0.5765 -0.4676  0.1353
37526SOL    HW218415   0.205   6.649   6.423  0.7839  0.6013  0.4638
37527SOL     OW18416   1.673   8.697  10.446 -0.3013 -0.3603 -0.2457
37527SOL    HW118417   1.666   8.763  10.515 -1.1148 -1.8487  1.1577
37527SOL    HW218418   1.592   8.646  10.454  1.7415 -3.7354  1.1114
37528SOL     OW18419   1.452   7.410   9.482 -0.3105 -0.2935  0.1853
37528SOL    HW118420   1.520   7.353   9.518 -1.2115 -0.8301  1.1125
37528SOL    HW218421   1.497   7.464   9.418  0.9255 -0.8356  0.5639
37529SOL     OW18422   6.374   3.679  10.426 -0.3693  0.9596  0.2053
37529SOL    HW118423   6.426   3.697  10.505 -0.4970 -0.6321  0.6844
37529SOL    HW218424   6.283   3.694  10.453 -0.4540 -0.0372  0.5300
37530SOL     OW18425   0.685   9.619   3.184  0.5380 -0.2319  0.4267
37530SOL    HW118426   0.731   9.556   3.130 -0.0417 -0.5131  0.2546
37530SOL    HW218427   0.681   9.699   3.131 -0.4111 -0.6376 -0.1323
37531SOL     OW18428   0.165   2.466  10.263  0.6531 -0.2685  0.3203
37531SOL    HW118429   0.205   2.552  10.262 -2.8633  1.6529  2.7243
37531SOL    HW218430   0.194   2.426  10.345 -0.3255  0.1274  0.8825
37532SOL     OW18431   3.232   6.377   5.504 -0.4827  0.9506  0.1146
37532SOL    HW118432   3.239   6.473   5.507 -0.7261  0.9784 -0.1951
37532SOL    HW218433   3.266   6.354   5.417 -1.7054  0.8707 -0.3623
37533SOL     OW18434   0.368   4.803   5.804 -0.0735 -0.2583 -0.2509
37533SOL    HW118435   0.385   4.718   5.763 -1.2967 -1.2874  1.3014
37533SOL    HW218436   0.419   4.865   5.751  2.1841 -2.1366 -0.4451
37534SOL     OW18437   1.389   4.619   3.634  0.1351 -0.4269 -0.0524
37534SOL    HW118438   1.374   4.571   3.553 -2.0069  0.3632 -0.1741
37534SOL    HW218439   1.373   4.555   3.704  0.9339 -0.8231 -0.2180
37535SOL     OW18440   4.283   2.809   2.812  0.0417 -0.0845 -0.2139
37535SOL    HW118441   4.341   2.738   2.840  0.5712  0.3634 -0.1437
37535SOL    HW218442   4.305   2.882   2.871  0.5746  0.6152 -1.2358
37536SOL     OW18443   8.725   1.063   1.056  0.6228  0.5509  0.5584
37536SOL    HW118444   8.647   1.066   1.111  0.4171 -0.0673  0.3117
37536SOL    HW218445   8.794   1.102   1.110  0.6268 -0.8311  1.6189
37537SOL     OW18446   9.131   7.981   7.550  0.7114 -0.8676  0.4017
37537SOL    HW118447   9.082   7.926   7.489 -0.9375  1.5165 -0.5607
37537SOL    HW218448   9.205   8.013   7.498 -0.0055  0.1719 -0.0121
37538SOL     OW18449   9.109   4.827   5.393 -0.7070  0.0676 -0.6360
37538SOL    HW118450   9.080   4.767   5.462 -0.2080  0.3162 -0.2011
37538SOL    HW218451   9.203   4.838   5.409 -0.5899  0.1406 -1.3488
37539SOL     OW18452   9.946   6.438   8.198  0.0491  0.0857 -0.4851
37539SOL    HW118453   9.963   6.529   8.221 -3.0422  1.1012 -1.7757
37539SOL    HW218454   9.999   6.423   8.119  0.0289  0.9938 -0.6781
37540SOL     OW18455   2.727   5.061   0.579 -0.2979  0.0326 -0.3197
37540SOL    HW118456   2.697   5.148   0.608  1.0419 -0.1417  1.8272
37540SOL    HW218457   2.808   5.079   0.532  0.2261 -0.0407  0.5212
37541SOL     OW18458   0.297   1.238   1.113  0.1213  0.3944 -0.5975
37541SOL    HW118459   0.358   1.220   1.041 -1.3894 -0.6475 -1.6771
37541SOL    HW218460   0.302   1.161   1.169 -0.8893 -0.1397 -1.2168
37542SOL     OW18461   0.698   0.182   2.686  0.2807  0.7143 -0.4118
37542SOL    HW118462   0.767   0.118   2.671  0.2457  0.6814 -0.4303
37542SOL    HW218463   0.618   0.140   2.656 -0.0442  0.0341  1.2853
37543SOL     OW18464   8.396   9.055   9.488  0.2596 -0.0332  0.4451
37543SOL    HW118465   8.349   8.973   9.502 -0.1008  0.0804 -0.0596
37543SOL    HW218466   8.405   9.061   9.393  0.1551  0.5835  0.4718
37544SOL     OW18467   2.362   3.277   9.632  0.1480 -0.2007  0.0842
37544SOL    HW118468   2.403   3.191   9.625  0.0427 -0.2078 -0.4497
37544SOL    HW218469   2.379   3.304   9.722 -1.4467 -1.6031  0.8568
37545SOL     OW18470   8.375   8.349   2.446 -0.3606 -0.2342 -0.5080
37545SOL    HW118471   8.356   8.330   2.355 -0.5873  2.1375 -1.0174
37545SOL    HW218472   8.305   8.409   2.473 -0.8702 -1.6602  1.5436
37546SOL     OW18473   2.428  10.252   0.240  1.1993  0.4720 -0.0431
37546SOL    HW118474   2.383  10.204   0.171  1.9088 -0.0771 -0.1326
37546SOL    HW218475   2.451  10.186   0.305  1.2782  0.8509  0.3230
37547SOL     OW18476   9.565   2.708   7.355 -0.6034 -0.3953 -0.6451
37547SOL    HW118477   9.479   2.715   7.312 -0.9508 -1.4809 -0.1580
37547SOL    HW218478   9.599   2.798   7.353 -2.4069  0.3889  0.4871
37548SOL     OW18479   5.522   6.262   1.954 -0.1495  0.1802 -0.6544
37548SOL    HW118480   5.555   6.248   2.043  1.4255 -0.3661 -1.2897
37548SOL    HW218481   5.442   6.313   1.966 -0.2975 -0.3949  1.1093
37549SOL     OW18482   0.016   2.462   0.359 -0.2033 -0.0306  0.6432
37549SOL    HW118483  -0.013   2.430   0.444  2.0821 -0.6720  1.2553
37549SOL    HW218484   0.081   2.530   0.380  0.1845  0.0036 -0.5755
37550SOL     OW18485   7.065   3.470   5.146  0.3673 -0.2387  0.1762
37550SOL    HW118486   7.065   3.547   5.203  0.2373 -0.7387  0.8686
37550SOL    HW218487   7.157   3.461   5.119  0.3453  0.2820 -0.0910
37551SOL     OW18488   2.877   3.932   1.023 -0.4136  0.7573 -0.0935
37551SOL    HW118489   2.868   4.025   1.002 -0.0270  0.7714 -0.2063
37551SOL    HW218490   2.870   3.888   0.938  1.2924  0.8235 -0.3056
37552SOL     OW18491   4.437   9.381   6.052 -0.0197  0.9381  0.3007
37552SOL    HW118492   4.505   9.361   6.116  0.3238  2.2652  0.3715
37552SOL    HW218493   4.358   9.396   6.103 -0.9189 -2.4433  0.1304
37553SOL     OW18494   4.359   4.630   2.460  0.2997 -0.1294 -0.2411
37553SOL    HW118495   4.429   4.610   2.397 -0.9766  0.2551 -1.8529
37553SOL    HW218496   4.280   4.593   2.420 -0.3226 -1.3370  1.9550
37554SOL     OW18497   3.969   3.903   7.913 -0.0352  0.0091  0.0281
37554SOL    HW118498   4.034   3.832   7.918  1.8054  1.5259 -1.0521
37554SOL    HW218499   3.902   3.878   7.976  0.6149 -2.6069 -0.2063
37555SOL     OW18500  10.344   4.068  10.379 -0.0545 -0.7627  0.0024
37555SOL    HW118501  10.283   4.000  10.351 -2.2879  0.6661  1.1102
37555SOL    HW218502  10.341   4.064  10.475 -0.9723  1.4298  0.1279
37556SOL     OW18503   0.863   9.325   3.189  0.0961  0.2165 -0.0432
37556SOL    HW118504   0.889   9.245   3.144 -0.4107  0.2491 -0.4030
37556SOL    HW218505   0.864   9.393   3.121  2.1915  0.9052  0.5904
37557SOL     OW18506   0.174   0.960   8.148  0.2827  0.2941 -0.7482
37557SOL    HW118507   0.211   0.872   8.148  0.0183  0.1788 -1.4453
37557SOL    HW218508   0.244   1.016   8.182  0.3957 -0.2037 -0.1504
37558SOL     OW18509   7.843   3.286  10.381 -0.1997 -0.0053  0.1945
37558SOL    HW118510   7.834   3.207  10.327 -0.3846 -0.2919  0.6329
37558SOL    HW218511   7.783   3.271  10.455  1.3029 -0.4005  1.3919
37559SOL     OW18512   3.744  10.712   4.678  0.0379 -0.2152  0.1356
37559SOL    HW118513   3.749  10.804   4.704 -0.7743 -0.1555  0.0985
37559SOL    HW218514   3.679  10.674   4.737 -0.7440 -0.4166 -0.8348
37560SOL     OW18515  10.411   3.445   7.792 -0.0029  0.3358 -0.1728
37560SOL    HW118516  10.339   3.461   7.730 -0.0806 -0.6596 -0.3596
37560SOL    HW218517  10.490   3.447   7.738  0.0870  1.0452 -0.0303
37561SOL     OW18518   0.997   1.010   3.783  0.1217  0.6262 -0.2089
37561SOL    HW118519   0.999   0.918   3.755 -0.0651  0.5067  0.1594
37561SOL    HW218520   0.992   1.060   3.701  0.0408  0.3015 -0.4056
37562SOL     OW18521   2.936   6.973  10.378  0.0569 -0.3720 -0.0490
37562SOL    HW118522   3.030   6.985  10.390  0.0034 -0.7948  0.8667
37562SOL    HW218523   2.927   6.882  10.349 -0.0158 -0.1088 -0.8620
37563SOL     OW18524   1.638   3.120   6.708  0.0407 -0.2942 -0.0278
37563SOL    HW118525   1.696   3.101   6.634 -0.6694 -0.5595 -0.5349
37563SOL    HW218526   1.684   3.086   6.785  0.8670  0.1385 -0.3232
37564SOL     OW18527   5.491  10.556   7.762 -0.2381  0.8311  0.2665
37564SOL    HW118528   5.417  10.499   7.783 -0.5529  0.7943 -0.9106
37564SOL    HW218529   5.511  10.539   7.670  1.4780  0.5794  0.6441
37565SOL     OW18530   1.762   3.977   8.666 -0.8314  0.4126  0.2601
37565SOL    HW118531   1.741   4.042   8.733 -0.2508 -0.3695  1.2380
37565SOL    HW218532   1.691   3.913   8.672 -1.1406  0.6929 -0.3551
37566SOL     OW18533   4.239   6.515   8.962 -0.7099 -0.1974 -0.0333
37566SOL    HW118534   4.181   6.590   8.976 -0.5412  0.1064 -0.9197
37566SOL    HW218535   4.321   6.539   9.003  0.2015  1.2225 -2.4878
37567SOL     OW18536   9.486   2.439   2.191 -0.2097  0.1521 -0.2774
37567SOL    HW118537   9.452   2.485   2.267 -2.6771 -2.0889  0.1571
37567SOL    HW218538   9.416   2.447   2.126  2.1428  2.6850 -2.7674
37568SOL     OW18539   2.451   5.696   8.351 -0.0406  0.5935 -0.4297
37568SOL    HW118540   2.482   5.733   8.268  0.3421  0.8871 -0.1577
37568SOL    HW218541   2.491   5.609   8.354  0.1258  0.6696 -0.4469
37569SOL     OW18542   4.377   0.123   3.787  0.7005  0.0026  0.1905
37569SOL    HW118543   4.322   0.075   3.724 -0.1121  1.7720 -0.5055
37569SOL    HW218544   4.459   0.073   3.789 -0.5865 -2.2301  0.6250
37570SOL     OW18545   4.069   9.319   8.066  0.7805 -0.2066  0.4640
37570SOL    HW118546   4.013   9.270   8.006 -0.9418  0.8316  1.1794
37570SOL    HW218547   4.122   9.252   8.109  0.7320 -1.1280 -0.8442
37571SOL     OW18548   9.937   6.942   3.255  0.3812 -0.2251  0.0201
37571SOL    HW118549   9.937   6.964   3.162  0.4866  2.3859  0.5685
37571SOL    HW218550  10.024   6.969   3.286  0.4126 -1.2205  0.8748
37572SOL     OW18551   4.863   5.885   7.921  0.5258  0.0460 -0.3105
37572SOL    HW118552   4.834   5.794   7.928 -1.9565  0.8379  0.9855
37572SOL    HW218553   4.825   5.915   7.838  1.5087 -0.1151 -0.8353
37573SOL     OW18554  10.641   2.811   2.402 -0.4542  0.6846 -0.7449
37573SOL    HW118555  10.573   2.851   2.456  0.1428 -1.2844  1.6750
37573SOL    HW218556  10.600   2.732   2.367  0.3751 -0.2643  0.3454
37574SOL     OW18557   4.807   8.112   9.062  0.3268 -0.3096  0.3837
37574SOL    HW118558   4.892   8.135   9.100  0.9818 -1.6513 -0.1883
37574SOL    HW218559   4.780   8.033   9.108 -0.6559  0.1162  0.5789
37575SOL     OW18560   3.069  10.790   1.605  0.0176  0.3806  0.2128
37575SOL    HW118561   3.057  10.867   1.659 -0.3969  0.7023 -0.3223
37575SOL    HW218562   3.073  10.717   1.667 -0.4775  0.7382  0.6772
37576SOL     OW18563   9.410   6.659   6.977  0.1107  0.0661 -0.7233
37576SOL    HW118564   9.343   6.592   6.986  2.5930 -2.3740  1.3512
37576SOL    HW218565   9.486   6.613   6.941  2.2622  1.3790  1.7855
37577SOL     OW18566   4.417   0.050   4.543  0.3896  0.7548  0.5591
37577SOL    HW118567   4.408  -0.025   4.602  1.7681  1.7177  2.0871
37577SOL    HW218568   4.450   0.013   4.462 -0.3978 -0.4704  0.7735
37578SOL     OW18569   5.632   0.136  10.374  0.2241  0.0438 -0.3195
37578SOL    HW118570   5.605   0.209  10.319  0.1917  0.7697  0.6281
37578SOL    HW218571   5.603   0.160  10.462 -2.0013 -2.2008 -0.3022
37579SOL     OW18572   1.626   7.277  10.495 -0.1606 -0.5390 -0.0658
37579SOL    HW118573   1.630   7.239  10.583  0.7546  0.2810  0.2610
37579SOL    HW218574   1.562   7.223  10.449 -1.3090 -0.4559  1.3535
37580SOL     OW18575   9.084  10.586   4.370  0.4405 -0.1879 -0.2814
37580SOL    HW118576   9.120  10.548   4.291 -1.5119 -1.6174 -0.5479
37580SOL    HW218577   9.021  10.522   4.402 -1.4754  1.8938  0.4123
37581SOL     OW18578   3.339   9.801   5.096 -0.1368  0.4129  0.1103
37581SOL    HW118579   3.243   9.803   5.098 -0.1765  0.1189 -0.9268
37581SOL    HW218580   3.364   9.870   5.035  0.2914  0.1252 -0.0447
37582SOL     OW18581   1.937   4.329   1.421 -0.1832  0.0444 -0.4766
37582SOL    HW118582   2.004   4.261   1.434 -0.6971 -0.2885  0.5786
37582SOL    HW218583   1.951   4.359   1.332 -0.7078 -2.2920 -1.4191
37583SOL     OW18584   7.343   0.338  10.754  0.5770  0.4509 -0.4611
37583SOL    HW118585   7.383   0.254  10.733  0.1581  0.2821 -0.6013
37583SOL    HW218586   7.350   0.389  10.674  0.5736  0.4464 -0.4642
37584SOL     OW18587  10.398   9.617   4.136 -0.5054 -0.0160  0.5400
37584SOL    HW118588  10.328   9.552   4.135 -1.0378  0.4876  2.1358
37584SOL    HW218589  10.353   9.701   4.143  0.2188  0.4256  0.0262
37585SOL     OW18590   1.663   3.218   8.185  0.3495 -0.1569  0.2407
37585SOL    HW118591   1.688   3.168   8.263 -0.8952  0.7843  1.2820
37585SOL    HW218592   1.577   3.255   8.206  1.4129  2.8529 -0.2692
37586SOL     OW18593   9.226   9.724   9.409  0.0044  0.1674 -0.2619
37586SOL    HW118594   9.279   9.753   9.335 -1.5775 -0.7984 -1.8749
37586SOL    HW218595   9.140   9.765   9.395 -0.8012 -1.2892  0.1172
37587SOL     OW18596   5.961   4.119   6.342  0.7100  0.1747 -0.2656
37587SOL    HW118597   6.037   4.142   6.395 -0.5929  0.4149  1.6131
37587SOL    HW218598   5.922   4.203   6.319  0.4597  0.0318 -0.3607
37588SOL     OW18599   8.664   5.027   3.371 -0.5264  0.0680 -0.0125
37588SOL    HW118600   8.648   4.944   3.417  0.1021  1.0722  2.1705
37588SOL    HW218601   8.659   5.005   3.278  1.1772 -2.7715  0.4440
37589SOL     OW18602   0.275   3.279   1.448 -0.5091 -0.0416  0.3892
37589SOL    HW118603   0.310   3.194   1.474  0.3672  0.7028  1.7528
37589SOL    HW218604   0.210   3.299   1.515 -1.4210 -0.0591 -0.4754
37590SOL     OW18605   6.608   6.609   9.547 -0.4516 -0.0821  0.5371
37590SOL    HW118606   6.605   6.544   9.478  0.0683 -1.4599  1.7642
37590SOL    HW218607   6.689   6.658   9.531  0.6593 -1.6263  1.2030
37591SOL     OW18608   4.391   0.449   4.482  0.0497  0.1355 -0.3362
37591SOL    HW118609   4.413   0.378   4.543 -1.2085 -0.1173 -0.1636
37591SOL    HW218610   4.306   0.425   4.447 -1.1906  2.3430  0.9508
37592SOL     OW18611   6.968   1.897   5.691  0.8127 -0.1474  0.2432
37592SOL    HW118612   6.971   1.898   5.787 -0.6680 -0.0285  0.3210
37592SOL    HW218613   6.875   1.908   5.671  1.2255  1.0311 -1.2246
37593SOL     OW18614   4.699   8.953   3.334 -0.0983  0.2432  0.3646
37593SOL    HW118615   4.675   8.928   3.424 -1.1426 -1.3096 -0.2967
37593SOL    HW218616   4.788   8.918   3.322  0.7889  2.0518  1.3541
37594SOL     OW18617   7.875   5.065   9.022  0.1286  0.2148  0.5928
37594SOL    HW118618   7.848   5.033   9.108  0.6156 -0.4714  0.4966
37594SOL    HW218619   7.859   4.991   8.963  0.6039  0.3873  0.2429
37595SOL     OW18620   4.710   3.542   0.743 -0.7777  0.2394  0.0404
37595SOL    HW118621   4.766   3.616   0.722  0.6901 -0.5936  0.8789
37595SOL    HW218622   4.626   3.563   0.702  0.6901  0.5489 -3.1064
37596SOL     OW18623   9.402  10.233   6.709  0.0879  0.3719  0.1562
37596SOL    HW118624   9.425  10.141   6.695 -1.7148 -0.3923  1.7536
37596SOL    HW218625   9.376  10.265   6.622  0.3121 -0.7675 -0.3436
37597SOL     OW18626   2.037   8.604   7.406  0.1299  0.1483 -0.5499
37597SOL    HW118627   2.090   8.599   7.486 -0.0948  0.0319 -0.4065
37597SOL    HW218628   2.101   8.606   7.335  0.3256 -0.8022 -0.4199
37598SOL     OW18629   8.876   1.262   8.730  1.2162  0.5281 -0.4980
37598SOL    HW118630   8.857   1.282   8.638 -0.3295  1.0839 -0.0927
37598SOL    HW218631   8.800   1.212   8.759  1.3878  0.9153  0.6570
37599SOL     OW18632   8.360   5.566   2.863  0.2699 -0.2644  0.5822
37599SOL    HW118633   8.370   5.650   2.818  0.3876 -0.4664  0.2256
37599SOL    HW218634   8.363   5.588   2.956  1.1084  0.0321  0.4890
37600SOL     OW18635   6.606   9.571   4.354 -0.1983 -0.1713 -0.5325
37600SOL    HW118636   6.628   9.659   4.383  1.6986 -0.4362 -0.9709
37600SOL    HW218637   6.523   9.551   4.396 -1.8058  2.6045 -2.0766
37601SOL     OW18638   6.732   2.441   6.213  0.4650  0.3299  0.7349
37601SOL    HW118639   6.713   2.467   6.123 -1.7158 -1.6172  0.5455
37601SOL    HW218640   6.652   2.460   6.262  1.4460  0.9092  2.2002
37602SOL     OW18641   3.848   2.075   8.429 -0.2583 -0.0732  0.0496
37602SOL    HW118642   3.763   2.082   8.472  0.0408 -0.7927  0.7768
37602SOL    HW218643   3.827   2.082   8.335 -1.2727 -1.3205  0.1441
37603SOL     OW18644   6.221   3.831   9.418 -0.3391  0.1153 -0.3029
37603SOL    HW118645   6.161   3.789   9.480 -2.6439  1.8369 -1.2369
37603SOL    HW218646   6.246   3.913   9.461 -1.0741  0.8057 -1.1672
37604SOL     OW18647  10.342  10.755   5.304 -0.3375  0.1614 -0.1861
37604SOL    HW118648  10.349  10.675   5.252  0.7838  0.1691 -0.0797
37604SOL    HW218649  10.341  10.826   5.240 -1.0198  0.0791 -0.2687
37605SOL     OW18650  10.468   7.966   6.366  0.2652 -0.4647 -0.3838
37605SOL    HW118651  10.429   8.047   6.335 -1.9165 -0.9122  0.9140
37605SOL    HW218652  10.538   7.994   6.425 -0.3925  0.4918 -0.0268
37606SOL     OW18653   3.557   4.614   5.820 -0.9423 -0.2138 -0.1752
37606SOL    HW118654   3.537   4.594   5.911  1.1212  1.5517  0.7466
37606SOL    HW218655   3.529   4.706   5.809  3.7547  1.5508  0.4687
37607SOL     OW18656   4.103   0.518   4.277  0.2002 -0.0295 -0.3304
37607SOL    HW118657   4.157   0.445   4.308 -1.4744 -0.4272  1.9686
37607SOL    HW218658   4.038   0.477   4.220  0.6914  0.0705 -0.9823
37608SOL     OW18659   5.380   6.878   2.302 -0.6049  0.1290  0.5327
37608SOL    HW118660   5.374   6.821   2.378 -0.4069 -0.4371  0.1323
37608SOL    HW218661   5.454   6.936   2.321  0.6050 -1.1758  0.0268
37609SOL     OW18662   2.684   2.332   0.252 -0.3166  0.1920  0.1182
37609SOL    HW118663   2.623   2.402   0.229  0.7825  1.3199  0.5585
37609SOL    HW218664   2.735   2.317   0.173  0.4607  0.9566  0.4633
37610SOL     OW18665   7.556   2.408   3.438  0.2619 -0.3575  0.1414
37610SOL    HW118666   7.640   2.453   3.429  1.0472 -1.8716 -0.5006
37610SOL    HW218667   7.530   2.388   3.348  0.7492 -2.5311  0.4245
37611SOL     OW18668   1.046   6.544   0.601  0.0805  0.2169 -0.0913
37611SOL    HW118669   1.106   6.530   0.528 -0.1261 -0.5660 -0.1220
37611SOL    HW218670   1.066   6.473   0.662 -1.3634 -0.5704 -0.4745
37612SOL     OW18671   3.064   3.847   8.859 -0.4895  0.3774  0.7635
37612SOL    HW118672   3.042   3.864   8.767  0.8754 -0.7066  0.1972
37612SOL    HW218673   2.982   3.815   8.897 -0.7338 -0.5487 -0.4530
37613SOL     OW18674   7.422   0.047   4.290 -0.2871 -0.3083  0.5014
37613SOL    HW118675   7.513   0.062   4.267 -0.5736 -1.0373 -1.2544
37613SOL    HW218676   7.425   0.008   4.377  1.0323 -0.0077  0.6151
37614SOL     OW18677   5.762  10.413   8.197 -0.0456 -0.2217  0.5391
37614SOL    HW118678   5.743  10.371   8.113 -0.3919  0.9893 -0.0155
37614SOL    HW218679   5.857  10.421   8.198  0.0040 -0.7556  0.5285
37615SOL     OW18680   8.248   4.875   9.864  0.1581 -0.1869 -0.1865
37615SOL    HW118681   8.243   4.782   9.845 -0.1443 -0.4245  0.9587
37615SOL    HW218682   8.184   4.888   9.934 -1.2788  1.2576 -1.6588
37616SOL     OW18683   8.717   4.161   0.284  0.4201 -0.7090  0.1884
37616SOL    HW118684   8.709   4.150   0.379  0.8293 -0.2100  0.2787
37616SOL    HW218685   8.628   4.180   0.255  0.2828 -0.9250  0.4615
37617SOL     OW18686   4.370   4.739   3.781  0.6087 -0.1248 -0.1703
37617SOL    HW118687   4.454   4.734   3.734 -0.6156 -1.8098 -2.3556
37617SOL    HW218688   4.362   4.654   3.824 -0.5335 -0.4870 -1.0584
37618SOL     OW18689  10.871   8.208  10.183 -0.0622  0.6703 -0.0933
37618SOL    HW118690  10.862   8.289  10.134 -1.8926 -0.0015 -0.9599
37618SOL    HW218691  10.822   8.143  10.131  0.7477 -0.8185  0.9360
37619SOL     OW18692   8.497   1.715   4.412 -0.0281  0.1675 -0.0222
37619SOL    HW118693   8.403   1.699   4.402 -0.1458  2.0763 -3.5769
37619SOL    HW218694   8.538   1.643   4.363  0.0681  1.7871 -2.4685
37620SOL     OW18695   1.650   8.224   0.969 -0.9109  0.2273 -0.0445
37620SOL    HW118696   1.570   8.189   1.008 -2.5624  2.4314 -1.2242
37620SOL    HW218697   1.621   8.301   0.921  2.1208  1.8572  0.4995
37621SOL     OW18698   1.152   2.056   3.714 -0.2426  0.0592 -0.0422
37621SOL    HW118699   1.145   2.138   3.666 -1.6307 -0.4623 -0.7876
37621SOL    HW218700   1.191   2.080   3.798 -1.1140  1.5743 -0.0463
37622SOL     OW18701   6.552   2.094   4.151 -0.0343 -0.6324 -0.4633
37622SOL    HW118702   6.647   2.081   4.155  0.0996 -0.3937 -2.1296
37622SOL    HW218703   6.515   2.012   4.184  0.7023 -0.1563  1.7272
37623SOL     OW18704   0.236   8.606   3.184 -0.4879  0.0281  0.9309
37623SOL    HW118705   0.278   8.521   3.194 -1.5856 -0.5830  0.6074
37623SOL    HW218706   0.254   8.632   3.093  1.0053  0.8147  1.4240
37624SOL     OW18707   3.388   1.912   8.576  0.0757  0.6362  1.0570
37624SOL    HW118708   3.443   1.846   8.535 -0.2485  1.7440 -1.3499
37624SOL    HW218709   3.351   1.869   8.653 -2.5976 -3.1501 -1.9487
37625SOL     OW18710   6.229   1.537   3.060 -0.8356  0.5783  0.8086
37625SOL    HW118711   6.258   1.628   3.070  0.9108  0.0959  0.4951
37625SOL    HW218712   6.260   1.493   3.139  1.4257 -0.4350 -0.5293
37626SOL     OW18713  10.173   1.882   0.412 -0.4488 -0.2518  0.3150
37626SOL    HW118714  10.135   1.819   0.474  0.1766 -0.1712  0.7923
37626SOL    HW218715  10.125   1.963   0.428  0.2291 -0.0122  1.2721
37627SOL     OW18716   5.940   5.371   0.337  0.5708 -0.2253  0.4237
37627SOL    HW118717   6.020   5.339   0.296 -0.7429 -0.3180 -2.2606
37627SOL    HW218718   5.872   5.360   0.270 -1.4448  1.0609  2.1254
37628SOL     OW18719   3.527   4.790   7.577  0.2760 -0.0276 -0.2391
37628SOL    HW118720   3.507   4.878   7.608  0.1608 -0.7938  2.0856
37628SOL    HW218721   3.445   4.758   7.539 -1.4962 -1.0127  3.8668
37629SOL     OW18722   4.164   5.435   8.558 -0.2204  0.3896  0.7786
37629SOL    HW118723   4.141   5.527   8.572 -1.7852 -0.0937  1.6144
37629SOL    HW218724   4.092   5.386   8.597  1.3092 -1.2430  1.6692
37630SOL     OW18725  10.741   3.707   8.089  0.4877  0.2703 -1.0665
37630SOL    HW118726  10.665   3.683   8.143  0.8367  0.7849 -0.3417
37630SOL    HW218727  10.715   3.683   8.000  0.2322 -1.4214 -0.5897
37631SOL     OW18728   8.460   6.592   8.850 -0.0403  0.0785 -0.0746
37631SOL    HW118729   8.403   6.583   8.926  0.2634 -0.0011  0.1441
37631SOL    HW218730   8.530   6.528   8.864  0.2298  0.3375 -0.2269
37632SOL     OW18731   0.745  10.860   3.448  0.1052 -0.3090 -0.5412
37632SOL    HW118732   0.685  10.874   3.520  0.4064 -1.0164 -0.1341
37632SOL    HW218733   0.740  10.940   3.395 -0.8113 -0.1668 -0.2493
37633SOL     OW18734   5.369   5.567   0.907  0.0112  0.4448  0.1059
37633SOL    HW118735   5.345   5.499   0.970  0.9559 -0.2110 -0.2117
37633SOL    HW218736   5.286   5.599   0.873 -0.5132 -2.4461 -1.7079
37634SOL     OW18737   3.296  10.378   4.528 -0.2573  1.1239  0.0005
37634SOL    HW118738   3.224  10.438   4.549 -1.1469 -0.2361  1.0317
37634SOL    HW218739   3.342  10.366   4.611 -0.9908 -0.7198  0.1884
37635SOL     OW18740   1.566   8.605   2.971  1.0382 -0.0851  0.6273
37635SOL    HW118741   1.555   8.687   3.019 -0.7301 -1.2715  2.4425
37635SOL    HW218742   1.570   8.631   2.879  2.8715  2.1720  1.2554
37636SOL     OW18743   3.745   7.207   2.772  0.7386  0.2053 -0.0238
37636SOL    HW118744   3.813   7.263   2.735 -0.7877  1.2284 -1.3798
37636SOL    HW218745   3.701   7.170   2.696 -0.7828  0.2506  0.8134
37637SOL     OW18746   7.992   8.321  10.070  0.0375 -0.1142 -0.1859
37637SOL    HW118747   8.067   8.328  10.129 -1.0220  2.8624  0.9604
37637SOL    HW218748   7.936   8.255  10.111  0.3738  0.2578  0.8980
37638SOL     OW18749   5.832   2.440   2.643 -0.2136  0.1424 -0.3616
37638SOL    HW118750   5.826   2.501   2.716  3.0504 -0.5709  0.6507
37638SOL    HW218751   5.857   2.357   2.683  1.7820 -0.2565 -2.2625
37639SOL     OW18752   1.082   7.388   0.814 -0.0607  0.2618  0.1122
37639SOL    HW118753   1.103   7.421   0.726  0.7105 -0.8737 -0.1483
37639SOL    HW218754   1.093   7.293   0.807 -0.0782  0.1522  1.4246
37640SOL     OW18755   6.928   5.366   6.414 -0.0927 -0.1687  0.0880
37640SOL    HW118756   6.886   5.366   6.328  0.8900 -0.7063 -0.4105
37640SOL    HW218757   6.890   5.290   6.459  1.0292 -1.2659 -0.7347
37641SOL     OW18758   3.240   0.694   2.707  0.1468 -0.0751  0.2782
37641SOL    HW118759   3.269   0.777   2.743  2.8790 -0.8031 -0.0237
37641SOL    HW218760   3.268   0.629   2.772  1.3726 -1.0202 -1.1274
37642SOL     OW18761   3.122  10.585   4.568 -0.3969  0.0008 -0.3727
37642SOL    HW118762   3.033  10.563   4.593 -0.2710  1.2188  1.3251
37642SOL    HW218763   3.150  10.649   4.633  1.9943 -0.9298 -0.3720
37643SOL     OW18764   3.938   8.064   4.253 -0.2691 -0.4085  0.2696
37643SOL    HW118765   4.014   8.104   4.294  0.3252 -1.4005  0.1721
37643SOL    HW218766   3.863   8.098   4.303  0.0709  1.7331 -0.5684
37644SOL     OW18767   0.627   9.437   4.844  0.3908  0.1722 -0.0486
37644SOL    HW118768   0.656   9.377   4.913  0.4386 -0.9338 -0.9882
37644SOL    HW218769   0.548   9.397   4.809 -1.1450  2.0862  1.0767
37645SOL     OW18770   6.090   6.733   4.145 -0.2820 -0.0542  0.3301
37645SOL    HW118771   6.033   6.662   4.115 -1.4941  0.8757  0.3455
37645SOL    HW218772   6.100   6.789   4.068 -1.5617  1.1540  0.9993
37646SOL     OW18773  10.088   0.361   6.126  0.2228  0.1753  0.0695
37646SOL    HW118774  10.011   0.381   6.179 -0.0589 -0.8536  0.0635
37646SOL    HW218775  10.076   0.270   6.099  2.3799 -0.6625  1.6563
37647SOL     OW18776   1.029   4.334   9.967  0.0909  0.2299 -0.3307
37647SOL    HW118777   1.078   4.344  10.048 -0.8765  1.2412  0.1491
37647SOL    HW218778   1.087   4.283   9.910  1.6827  1.3666  0.2048
37648SOL     OW18779   5.470   0.638   6.459 -0.7934 -0.5399 -0.2402
37648SOL    HW118780   5.486   0.545   6.474  0.0267 -0.1161  1.8559
37648SOL    HW218781   5.512   0.682   6.532 -2.2246  1.4215 -0.5039
37649SOL     OW18782   3.107   4.247   2.732 -0.3380  0.4975  0.2704
37649SOL    HW118783   3.162   4.321   2.756 -0.3874  0.9075 -0.8587
37649SOL    HW218784   3.047   4.281   2.665  0.4477 -0.8356 -1.1749
37650SOL     OW18785   3.293   8.105   2.328 -0.5257 -0.2727  0.3139
37650SOL    HW118786   3.381   8.096   2.365 -0.5039 -2.7260 -0.1912
37650SOL    HW218787   3.277   8.199   2.329  2.4142  0.3461 -0.2822
37651SOL     OW18788   1.472   2.450   4.328  0.2265 -0.0054  0.2951
37651SOL    HW118789   1.487   2.487   4.241  0.2157 -1.1125 -0.1921
37651SOL    HW218790   1.397   2.499   4.363 -2.9784 -2.5889 -2.2559
37652SOL     OW18791   0.140   6.374   7.298  0.5400 -0.2018 -0.6520
37652SOL    HW118792   0.229   6.359   7.264 -0.6014 -3.0852 -2.9122
37652SOL    HW218793   0.084   6.365   7.221 -1.9054 -1.3249  1.1309
37653SOL     OW18794   1.735   5.185   7.122 -0.3597  0.0546 -0.6745
37653SOL    HW118795   1.820   5.179   7.165 -0.5409 -0.0667 -0.3340
37653SOL    HW218796   1.723   5.099   7.082 -0.2190  0.1472 -0.9190
37654SOL     OW18797  10.692   9.728   7.765 -0.0458 -0.3100  0.4745
37654SOL    HW118798  10.597   9.720   7.778 -0.4015  1.0437 -0.9304
37654SOL    HW218799  10.719   9.643   7.730 -0.7265 -0.7448  0.9986
37655SOL     OW18800   1.355   1.013   5.153 -0.2811 -0.4522  0.1459
37655SOL    HW118801   1.435   1.055   5.185 -0.5398 -0.9512  1.4723
37655SOL    HW218802   1.340   1.054   5.067 -0.0136  1.4991  0.9807
37656SOL     OW18803   2.356   8.424   2.689  0.1234  0.9146  0.0686
37656SOL    HW118804   2.349   8.486   2.762  1.1699  1.4421 -0.2683
37656SOL    HW218805   2.402   8.472   2.621 -0.8892  0.4445 -0.9803
37657SOL     OW18806   1.198   6.995   8.840 -0.1066  0.1206 -0.2067
37657SOL    HW118807   1.131   6.935   8.807  1.1571 -0.8704 -1.0777
37657SOL    HW218808   1.150   7.057   8.895 -1.5498 -1.3217  0.2335
37658SOL     OW18809   0.051   7.499   4.877 -0.4793 -0.2353  0.3737
37658SOL    HW118810   0.143   7.494   4.904 -0.1770  2.0374 -0.0152
37658SOL    HW218811   0.013   7.566   4.934 -1.5579 -0.2451 -0.3054
37659SOL     OW18812   4.005   5.243   9.151 -0.1555  0.4900 -0.4085
37659SOL    HW118813   4.049   5.162   9.126  2.4045  1.6571 -0.0066
37659SOL    HW218814   3.960   5.272   9.071  0.4615 -0.3829 -1.0838
37660SOL     OW18815   2.634   8.203   7.981 -0.2130 -0.0933 -0.6424
37660SOL    HW118816   2.593   8.171   8.062  0.9363 -0.0716 -0.0388
37660SOL    HW218817   2.596   8.148   7.912 -0.9101 -0.3805 -0.0473
37661SOL     OW18818   6.795   4.814   3.573 -0.1140  0.2313  0.3684
37661SOL    HW118819   6.705   4.823   3.604 -0.2466  0.2447 -0.0047
37661SOL    HW218820   6.796   4.864   3.491  0.6942  1.6959  1.2448
37662SOL     OW18821   6.155   2.508   6.878  0.7171  0.3301 -0.0277
37662SOL    HW118822   6.216   2.505   6.805 -1.3966  0.4306 -1.9264
37662SOL    HW218823   6.144   2.417   6.904  1.0889  0.2388 -0.1913
37663SOL     OW18824   2.852   0.970   9.749  0.0014 -0.2376 -0.3533
37663SOL    HW118825   2.781   0.998   9.806  1.0269  0.1124  0.8101
37663SOL    HW218826   2.853   1.034   9.679 -0.4949  0.0541 -0.1010
37664SOL     OW18827   1.546   0.912  10.340 -1.0816 -0.1808  0.5334
37664SOL    HW118828   1.583   0.965  10.269  0.5177  0.7536  1.9941
37664SOL    HW218829   1.451   0.914  10.324 -0.9601  1.9359 -0.2910
37665SOL     OW18830   2.425   6.767   4.813 -0.0349  0.0184  0.2445
37665SOL    HW118831   2.438   6.854   4.852  1.0495  0.2139 -0.4643
37665SOL    HW218832   2.493   6.763   4.745 -1.3545 -0.5959 -1.0764
37666SOL     OW18833   6.935   4.305   0.976  0.3749 -0.2225 -0.1790
37666SOL    HW118834   7.013   4.284   1.027  0.3321 -0.5037 -0.2268
37666SOL    HW218835   6.931   4.401   0.977 -0.2253 -0.2276  1.2690
37667SOL     OW18836   2.414   9.420   5.757 -0.2900  0.2438 -0.2802
37667SOL    HW118837   2.329   9.460   5.775  0.0825  0.8715  0.1166
37667SOL    HW218838   2.421   9.348   5.819 -0.5159  0.2258 -0.2770
37668SOL     OW18839   4.461   7.128   5.757 -0.1258 -0.2187 -0.1216
37668SOL    HW118840   4.433   7.052   5.706 -0.7124 -0.4239  0.4991
37668SOL    HW218841   4.530   7.094   5.814  1.5288  0.3118 -1.7306
37669SOL     OW18842   7.920   5.434   3.824  0.3253  0.1523 -0.5760
37669SOL    HW118843   7.935   5.442   3.730  2.2900 -1.2516 -0.4393
37669SOL    HW218844   7.978   5.364   3.852 -0.1997  0.5396  1.7113
37670SOL     OW18845   2.643   5.693   4.179 -0.0991 -0.2763  0.4641
37670SOL    HW118846   2.547   5.694   4.187 -0.1992  0.6311 -0.6624
37670SOL    HW218847   2.664   5.777   4.137  1.0683 -1.0969 -0.6419
37671SOL     OW18848   2.392   9.821   7.795 -0.6843 -0.3993  0.0997
37671SOL    HW118849   2.307   9.781   7.777 -1.0027  0.6456 -0.8736
37671SOL    HW218850   2.371   9.911   7.818  0.1700  0.0054 -0.6448
37672SOL     OW18851   4.112   9.993   0.431 -0.1426 -0.0972  0.3017
37672SOL    HW118852   4.145   9.980   0.520  2.0755  1.5607 -0.2003
37672SOL    HW218853   4.162   9.931   0.378  2.9466  2.8490 -0.5576
37673SOL     OW18854   9.656   0.986   2.347  0.3182 -0.0193  0.5895
37673SOL    HW118855   9.742   0.961   2.312  0.7816  1.7461  0.3967
37673SOL    HW218856   9.602   0.908   2.334  1.7505 -1.0177  0.3018
37674SOL     OW18857   0.769   9.832   8.708 -0.5123 -0.3617  0.2989
37674SOL    HW118858   0.776   9.811   8.801 -0.0395  0.4152  0.4498
37674SOL    HW218859   0.758   9.927   8.706 -1.5867 -0.4813 -0.3933
37675SOL     OW18860   6.516   1.972   0.501 -0.3580 -0.2614  0.4156
37675SOL    HW118861   6.450   1.921   0.455  0.0078 -0.3202 -0.0544
37675SOL    HW218862   6.502   2.062   0.472  0.1961 -0.3683 -0.2224
37676SOL     OW18863   6.713   3.568   5.108 -0.3097  0.1363  0.1844
37676SOL    HW118864   6.782   3.601   5.050 -0.0536 -2.4840 -1.1236
37676SOL    HW218865   6.632   3.580   5.060 -0.2050 -1.1171 -0.3431
37677SOL     OW18866   8.789  10.223   5.268 -0.3908 -0.1777 -0.1751
37677SOL    HW118867   8.869  10.174   5.287  1.3290  2.0274 -1.2802
37677SOL    HW218868   8.746  10.235   5.353  1.6010  0.4522  0.7902
37678SOL     OW18869   2.768   2.877   6.290 -0.7502  0.2911 -0.5159
37678SOL    HW118870   2.784   2.785   6.268  1.6565  0.9073 -1.6041
37678SOL    HW218871   2.746   2.918   6.207  1.0046  1.1856 -0.5911
37679SOL     OW18872   7.325   4.261   7.983 -0.2656  0.0242  0.0826
37679SOL    HW118873   7.386   4.196   7.948 -0.6356  0.0160 -0.5627
37679SOL    HW218874   7.293   4.222   8.064 -0.1014 -0.3718 -0.0385
37680SOL     OW18875   1.051   6.811   4.238  0.5254 -0.1942 -0.0547
37680SOL    HW118876   1.045   6.757   4.159  0.5806  0.8863 -0.8210
37680SOL    HW218877   1.095   6.891   4.209  1.3486 -0.1357  1.2739
37681SOL     OW18878   1.343   1.797   8.410  0.2385 -0.1679 -0.6475
37681SOL    HW118879   1.262   1.840   8.437 -0.1588 -0.1748 -1.8056
37681SOL    HW218880   1.394   1.791   8.491  0.6216  3.1089 -0.5411
37682SOL     OW18881   2.442   2.732   7.902 -0.3772  0.0538 -0.4948
37682SOL    HW118882   2.490   2.702   7.979 -0.1236  1.6230 -0.0235
37682SOL    HW218883   2.430   2.826   7.915 -2.2073 -0.0110 -1.3512
37683SOL     OW18884   5.891   6.959   8.445  0.2370  0.2189  0.1710
37683SOL    HW118885   5.846   7.031   8.489  0.5326  0.1568  0.5777
37683SOL    HW218886   5.908   6.991   8.356 -0.4227  0.3212  0.0762
37684SOL     OW18887  10.205   5.179   9.526  0.6586 -0.0476 -1.0565
37684SOL    HW118888  10.151   5.159   9.449  0.8735  0.4577 -1.3425
37684SOL    HW218889  10.199   5.274   9.536  1.4742  0.0118 -1.0784
37685SOL     OW18890   9.404   9.373   9.788 -0.1687  0.6085 -0.3856
37685SOL    HW118891   9.404   9.308   9.718 -0.8185 -0.7082  0.7964
37685SOL    HW218892   9.344   9.441   9.757 -1.1460 -0.3899 -0.7292
37686SOL     OW18893   4.112  10.198   2.788 -0.3346  0.6148 -0.1213
37686SOL    HW118894   4.136  10.289   2.810  2.2816  0.2041 -0.9275
37686SOL    HW218895   4.136  10.189   2.696  1.6019 -1.5086  0.5272
37687SOL     OW18896   4.737   7.747   8.190 -0.2801  0.3764 -0.1616
37687SOL    HW118897   4.651   7.776   8.159 -1.3240 -1.5557  0.7768
37687SOL    HW218898   4.786   7.728   8.110 -1.5416 -0.6847 -0.7183
37688SOL     OW18899   5.213   2.185  10.024 -0.2307  0.4495 -0.1444
37688SOL    HW118900   5.274   2.118   9.994  0.8283  0.4791  1.8153
37688SOL    HW218901   5.163   2.142  10.094 -0.8660  1.1474 -0.1581
37689SOL     OW18902   5.311  10.762   4.736 -0.2366 -0.2269 -0.0841
37689SOL    HW118903   5.283  10.846   4.700 -0.6218  1.0850  2.9428
37689SOL    HW218904   5.230  10.719   4.761  0.0495 -0.1852  0.9729
37690SOL     OW18905   6.902   3.041   4.503  0.1997  0.1015 -0.0303
37690SOL    HW118906   6.823   3.042   4.451 -0.4269 -1.4846  0.8191
37690SOL    HW218907   6.966   2.993   4.450 -0.2014 -0.8408  0.3263
37691SOL     OW18908   8.896   2.781  10.210 -0.2523  0.8414 -0.0195
37691SOL    HW118909   8.964   2.713  10.213 -0.9904  0.1247  1.4527
37691SOL    HW218910   8.932   2.848  10.152  1.2976  0.0326 -0.0446
37692SOL     OW18911   9.213   3.969   6.301  0.1158  0.0221  0.3527
37692SOL    HW118912   9.301   3.961   6.263  0.2498 -0.2219  0.7110
37692SOL    HW218913   9.154   3.952   6.228  0.3578  0.7833 -0.0310
37693SOL     OW18914   4.013  10.406   5.622  0.2972 -0.0961  0.6152
37693SOL    HW118915   4.036  10.403   5.529  0.2115 -1.3410  0.6148
37693SOL    HW218916   4.046  10.491   5.653 -1.0561  1.0325 -0.8845
37694SOL     OW18917   4.009   9.271   0.091 -0.5054  0.4578  0.4842
37694SOL    HW118918   4.091   9.298   0.048 -0.8015  1.9125  0.7914
37694SOL    HW218919   3.955   9.350   0.092 -1.2079 -0.0105  1.9342
37695SOL     OW18920   8.204   2.968   4.954  0.4600  0.4983 -0.1555
37695SOL    HW118921   8.176   2.982   4.864  1.1820 -0.0233 -0.4739
37695SOL    HW218922   8.283   2.915   4.947  0.2621  0.0379  0.8069
37696SOL     OW18923   2.810   7.720   1.664 -0.2070  0.2898 -0.4291
37696SOL    HW118924   2.856   7.733   1.581 -0.3381  0.9451 -0.4083
37696SOL    HW218925   2.814   7.626   1.680 -2.2030 -0.2172 -2.3427
37697SOL     OW18926   5.918   3.670   0.381 -0.0298  0.2839  0.3378
37697SOL    HW118927   5.974   3.607   0.426  0.7007  0.0317 -0.8979
37697SOL    HW218928   5.978   3.741   0.355 -0.1903 -0.1440 -1.2860
37698SOL     OW18929   6.856   1.620  10.496  0.1313  0.6308  0.1981
37698SOL    HW118930   6.893   1.604  10.582 -0.7003 -1.4512  0.2272
37698SOL    HW218931   6.762   1.607  10.507  0.2083 -2.2543 -1.4481
37699SOL     OW18932   9.122   3.952   3.705 -0.1233  0.1371 -0.3553
37699SOL    HW118933   9.156   3.977   3.619  0.8293  0.3669  0.0816
37699SOL    HW218934   9.159   4.016   3.765 -1.7506  0.7166  0.0810
37700SOL     OW18935   2.691   5.018  10.916 -0.0125 -0.1372  0.4874
37700SOL    HW118936   2.706   5.058  11.001  1.7964  0.4888 -0.0853
37700SOL    HW218937   2.752   5.062  10.857  1.6866 -3.2702 -0.3223
37701SOL     OW18938   1.411  10.223   8.586 -0.4147 -0.4851  0.1953
37701SOL    HW118939   1.452  10.180   8.661  0.2702 -1.8993 -0.9577
37701SOL    HW218940   1.317  10.215   8.603 -0.2892 -1.7264  0.4125
37702SOL     OW18941   7.892   8.879   6.073  0.0274 -0.4278  0.7462
37702SOL    HW118942   7.834   8.954   6.054  0.6586 -0.3977 -1.2665
37702SOL    HW218943   7.841   8.803   6.046  0.2883 -0.5329  0.5508
37703SOL     OW18944   6.760   4.948   0.121 -0.2630  0.2201 -0.1953
37703SOL    HW118945   6.850   4.934   0.091 -0.4302  0.5122 -0.8588
37703SOL    HW218946   6.716   4.864   0.106  0.1037 -0.1846  0.9179
37704SOL     OW18947   7.063   5.253   4.307 -0.1917 -0.0447  0.1638
37704SOL    HW118948   7.152   5.265   4.341  0.6046 -0.2071 -1.7187
37704SOL    HW218949   7.006   5.274   4.380  1.3980  0.2660  1.3660
37705SOL     OW18950   9.689   1.772   8.218  0.4524 -0.3384  0.1804
37705SOL    HW118951   9.723   1.837   8.156  0.9360 -0.6444  0.1216
37705SOL    HW218952   9.707   1.687   8.176 -1.3719 -0.5021 -0.3726
37706SOL     OW18953   9.509   9.180   7.307  0.1547  0.7117  0.5204
37706SOL    HW118954   9.419   9.203   7.287 -0.1681  0.4709  1.6371
37706SOL    HW218955   9.560   9.222   7.238 -0.8847 -0.0773 -0.7682
37707SOL     OW18956   0.931   7.854   3.161  0.3980  0.1227 -0.4571
37707SOL    HW118957   1.003   7.907   3.197 -0.1663  0.4390  0.2200
37707SOL    HW218958   0.927   7.778   3.218 -0.7632  0.8176  0.4216
37708SOL     OW18959  10.663  10.671   5.611 -0.6512  0.2666  0.0468
37708SOL    HW118960  10.595  10.736   5.591 -1.3902 -0.2983  0.6573
37708SOL    HW218961  10.652  10.604   5.543  0.5069  1.0526 -0.9453
37709SOL     OW18962   6.973   6.410   3.770  0.6142  0.6639 -0.5495
37709SOL    HW118963   7.067   6.412   3.787  1.1796  0.7511 -3.2367
37709SOL    HW218964   6.966   6.392   3.676 -2.1045 -1.4159 -0.0901
37710SOL     OW18965   8.593   3.332   1.938 -0.5284  0.1302 -0.0516
37710SOL    HW118966   8.598   3.413   1.990  0.9211  1.6506 -2.3637
37710SOL    HW218967   8.520   3.346   1.878 -2.5022 -1.8129  1.7230
37711SOL     OW18968   9.979   2.931  10.917 -0.3331 -0.0620  0.0549
37711SOL    HW118969   9.912   2.864  10.929 -0.7680  0.4901  0.7948
37711SOL    HW218970   9.949   2.983  10.843 -0.7859  0.2418  0.4440
37712SOL     OW18971   3.365  10.094   3.735  0.5128  0.3396 -0.5151
37712SOL    HW118972   3.334  10.159   3.799 -0.7884  1.1336 -1.9027
37712SOL    HW218973   3.303  10.022   3.742  1.7939 -0.7112  0.8180
37713SOL     OW18974   3.964   2.747   0.637  0.4953  0.2763 -0.0479
37713SOL    HW118975   3.934   2.733   0.547  0.9606  0.4243 -0.2294
37713SOL    HW218976   3.930   2.671   0.685  0.8683 -0.1845 -0.5049
37714SOL     OW18977   2.959   3.593   1.443  0.0436  0.1540 -0.0518
37714SOL    HW118978   3.022   3.660   1.469 -0.0715  0.6109 -0.9260
37714SOL    HW218979   2.920   3.626   1.362 -0.5415 -0.6296 -0.1050
37715SOL     OW18980   8.859   8.007   8.710  0.2461  0.6516  0.2649
37715SOL    HW118981   8.826   7.968   8.629  1.2746  1.1777 -0.4251
37715SOL    HW218982   8.780   8.032   8.759 -0.7210  5.5379 -3.0276
37716SOL     OW18983   5.523   1.307   1.227 -0.3174 -0.3362  0.3279
37716SOL    HW118984   5.600   1.266   1.267 -1.3501 -0.1707  2.6712
37716SOL    HW218985   5.558   1.376   1.171  1.3248 -2.3214 -1.2332
37717SOL     OW18986   1.379   0.765   1.849  0.4604  0.0889  0.4705
37717SOL    HW118987   1.299   0.812   1.828 -0.1171 -1.4182 -0.9200
37717SOL    HW218988   1.416   0.812   1.924 -2.1563  0.3505  1.7039
37718SOL     OW18989  10.325   5.367   6.834  0.2474  0.3370 -0.5789
37718SOL    HW118990  10.243   5.415   6.833 -0.6394 -1.0924 -2.1005
37718SOL    HW218991  10.346   5.354   6.741  1.0233 -1.2400 -0.2130
37719SOL     OW18992   7.284   0.644   7.704 -0.0841 -0.3640 -0.3695
37719SOL    HW118993   7.190   0.644   7.685 -0.3694 -4.2950  0.2096
37719SOL    HW218994   7.305   0.553   7.722  3.4735  0.6516  1.6935
37720SOL     OW18995   7.281   6.070   8.872  0.1286 -0.2087  0.1033
37720SOL    HW118996   7.235   6.124   8.809 -0.3544 -0.7008  0.0243
37720SOL    HW218997   7.226   5.992   8.881 -0.8717  0.6846  2.6032
37721SOL     OW18998   7.920   7.498   4.501 -0.5443 -0.1237 -0.5952
37721SOL    HW118999   7.899   7.591   4.510 -0.8212 -0.2647  0.3785
37721SOL    HW219000   7.922   7.483   4.407  0.3725  1.0566 -0.7937
37722SOL     OW19001   4.788   6.233   5.356  0.8728  0.4520  0.4880
37722SOL    HW119002   4.808   6.323   5.382 -0.4762  0.6128  1.0569
37722SOL    HW219003   4.764   6.190   5.438 -1.7175  0.4767 -0.1703
37723SOL     OW19004   9.294  10.087   5.376 -0.2831 -0.0109  0.3092
37723SOL    HW119005   9.344  10.069   5.456  0.3149 -0.7474 -0.2112
37723SOL    HW219006   9.224  10.144   5.405  0.4648  0.5018  1.1932
37724SOL     OW19007   8.880   3.741   3.370  0.5441  0.1688  0.0501
37724SOL    HW119008   8.869   3.646   3.367 -1.6598  0.3400  0.5670
37724SOL    HW219009   8.959   3.758   3.320  1.3304 -1.9793  0.4630
37725SOL     OW19010   2.335   6.084   0.310 -0.2244 -0.2789 -0.6658
37725SOL    HW119011   2.284   6.139   0.369  1.0929 -0.2080  0.4601
37725SOL    HW219012   2.347   6.002   0.359  2.2060  0.3294 -0.0747
37726SOL     OW19013   1.880   9.332   1.915  0.0002  0.0909 -0.3381
37726SOL    HW119014   1.916   9.390   1.982 -0.6755  0.7202 -0.5076
37726SOL    HW219015   1.847   9.256   1.963 -0.6764  0.6314  0.0777
37727SOL     OW19016   5.837   5.288   6.458  0.4767  0.2013  0.2579
37727SOL    HW119017   5.897   5.219   6.486 -0.4196  0.0706  1.9764
37727SOL    HW219018   5.892   5.366   6.449  1.0901 -0.1585  0.7893
37728SOL     OW19019   7.919   0.419   8.808  0.0046 -0.0363 -0.1038
37728SOL    HW119020   7.913   0.371   8.891  0.0091  0.4454  0.1813
37728SOL    HW219021   7.829   0.443   8.787 -0.0276 -0.4121 -0.3902
37729SOL     OW19022   2.468   0.572  10.516  0.2814 -0.4736 -0.0467
37729SOL    HW119023   2.542   0.597  10.572 -0.1265 -0.8222  0.6607
37729SOL    HW219024   2.467   0.477  10.518 -1.2523 -0.4702  1.4149
37730SOL     OW19025   4.484  10.311   0.484 -0.2214 -0.2727 -0.1576
37730SOL    HW119026   4.450  10.298   0.395  0.4633  0.5582 -0.5647
37730SOL    HW219027   4.486  10.406   0.494  0.1729 -0.3537  0.5668
37731SOL     OW19028   5.564   1.022   9.001 -0.1914 -0.3286 -0.4173
37731SOL    HW119029   5.575   1.088   8.933 -0.4912 -1.4758 -1.6039
37731SOL    HW219030   5.469   1.020   9.017 -0.0517  0.5311  0.6734
37732SOL     OW19031   5.482   4.640   2.722 -0.1111  0.3601 -0.2358
37732SOL    HW119032   5.435   4.599   2.650 -0.7582 -0.3121  0.5413
37732SOL    HW219033   5.435   4.722   2.739 -0.6384 -0.0137  0.1332
37733SOL     OW19034   9.834   7.383   1.314  0.6241  0.7409  0.1042
37733SOL    HW119035   9.924   7.410   1.336  1.0821  0.7544 -1.6031
37733SOL    HW219036   9.846   7.304   1.261 -0.2891  1.3243 -1.0183
37734SOL     OW19037   5.306   8.200   2.303  0.1204 -0.6817  0.0745
37734SOL    HW119038   5.344   8.157   2.227 -0.2231  2.0931 -1.8080
37734SOL    HW219039   5.367   8.181   2.374  1.7997 -1.3089 -1.4527
37735SOL     OW19040   3.344   7.271   3.118 -0.8625 -0.3787  0.6045
37735SOL    HW119041   3.368   7.258   3.210  0.3570  2.2239  0.7312
37735SOL    HW219042   3.426   7.259   3.070 -1.0620  0.2949  0.0824
37736SOL     OW19043   5.673   2.355   3.483  0.2896  0.0614  0.2777
37736SOL    HW119044   5.718   2.307   3.553 -1.2181 -0.8835  0.6542
37736SOL    HW219045   5.635   2.430   3.527 -0.2918 -0.2984  0.3976
37737SOL     OW19046   3.456   9.324   2.062  0.2196 -0.0030  0.0543
37737SOL    HW119047   3.391   9.358   2.001  0.1997  0.9528  0.5838
37737SOL    HW219048   3.418   9.339   2.149  0.8861  0.0474  0.3516
37738SOL     OW19049   1.934   8.075   6.426 -0.2973 -0.3081  0.3550
37738SOL    HW119050   1.910   8.167   6.420 -0.5922 -0.4324 -0.5141
37738SOL    HW219051   2.003   8.063   6.361  0.9806 -0.3295  1.6729
37739SOL     OW19052   4.099   8.198   1.203 -0.5014 -0.0978 -0.0208
37739SOL    HW119053   4.124   8.288   1.186 -3.2853  0.6944 -0.5065
37739SOL    HW219054   4.152   8.146   1.143  0.7959  1.2389 -0.0764
37740SOL     OW19055   1.227   5.718  10.190  0.3943 -0.2488 -0.2174
37740SOL    HW119056   1.139   5.702  10.225 -0.8798  0.6209 -2.7555
37740SOL    HW219057   1.285   5.705  10.265 -1.8818 -0.7601  1.5939
37741SOL     OW19058  10.919   0.555   2.726 -0.2852  0.6596  0.0207
37741SOL    HW119059  11.004   0.563   2.682 -0.3062  0.6501 -0.0211
37741SOL    HW219060  10.941   0.523   2.814 -0.2164  1.0227  0.1370
37742SOL     OW19061   6.058   2.452   5.172 -0.6831  0.4558 -0.6494
37742SOL    HW119062   6.135   2.451   5.115  0.2953  0.0931  0.6219
37742SOL    HW219063   6.002   2.382   5.139  0.6309 -0.8698 -0.1878
37743SOL     OW19064   1.098   5.344   4.585 -0.6270 -0.7536  0.0468
37743SOL    HW119065   1.171   5.345   4.648  0.9269 -0.1498 -1.6888
37743SOL    HW219066   1.096   5.254   4.552 -2.9075 -1.7405  2.4421
37744SOL     OW19067   7.086   4.761   6.321  0.0160  0.4997  0.2816
37744SOL    HW119068   7.046   4.704   6.256 -0.2095  0.7016  0.2407
37744SOL    HW219069   7.023   4.832   6.333 -0.9958 -0.6752  2.3574
37745SOL     OW19070   3.581   5.945   1.822  0.6482  0.1195  0.5576
37745SOL    HW119071   3.501   5.996   1.807  0.1932 -0.4274  1.0265
37745SOL    HW219072   3.565   5.900   1.905  1.4762  0.0436  0.6833
37746SOL     OW19073   4.138   6.311   8.812 -0.0953 -0.1171  0.1983
37746SOL    HW119074   4.177   6.387   8.856 -1.3589 -0.4626  2.0202
37746SOL    HW219075   4.207   6.244   8.814  0.7737  0.7140 -0.7768
37747SOL     OW19076   2.448   9.211   7.024 -0.0322 -0.6224 -0.6632
37747SOL    HW119077   2.513   9.169   7.081 -0.7809 -0.4755  0.3213
37747SOL    HW219078   2.367   9.162   7.040 -0.5282  0.1669 -0.7355
37748SOL     OW19079  10.872   7.979   2.728 -0.4270  0.3674 -0.2648
37748SOL    HW119080  10.790   7.950   2.687 -1.1621  1.1296  0.6086
37748SOL    HW219081  10.847   8.001   2.818  1.1158 -1.1927  0.6050
37749SOL     OW19082   8.051   5.636   0.897 -0.3837  0.0321  0.3260
37749SOL    HW119083   8.119   5.640   0.831  0.1972  0.2514  0.9280
37749SOL    HW219084   8.002   5.717   0.886 -0.2535  0.0943  0.2047
37750SOL     OW19085   7.513   2.154   4.215  0.4794 -0.4364 -0.0711
37750SOL    HW119086   7.548   2.243   4.210 -0.2855 -0.0798  0.6607
37750SOL    HW219087   7.467   2.143   4.132 -0.2088  0.2035  0.2134
37751SOL     OW19088   4.612   4.439   3.302  0.2913  0.5362 -0.7276
37751SOL    HW119089   4.545   4.453   3.370  0.8339  1.7962 -0.4237
37751SOL    HW219090   4.634   4.346   3.309 -1.5645  0.0367 -0.9820
37752SOL     OW19091   5.928   1.330   8.589  0.2296  0.2474  0.5535
37752SOL    HW119092   5.943   1.370   8.675  1.1887 -1.2655  1.1163
37752SOL    HW219093   5.858   1.267   8.604 -0.8417  1.2095 -0.1997
37753SOL     OW19094   5.499   1.076   6.463  0.0153 -0.1462 -0.2377
37753SOL    HW119095   5.527   1.099   6.374 -0.0960 -1.3335 -0.5935
37753SOL    HW219096   5.517   0.982   6.470 -1.0913 -0.3105  0.5777
37754SOL     OW19097   9.763  10.204   4.537  0.2146 -0.1473  0.6774
37754SOL    HW119098   9.710  10.132   4.574  0.1264  0.5030  1.8869
37754SOL    HW219099   9.707  10.243   4.470  1.0540 -2.4692 -1.5032
37755SOL     OW19100   4.204   5.574   8.142  0.3397 -1.2840  0.0655
37755SOL    HW119101   4.260   5.527   8.203  1.1463  1.1347  1.2954
37755SOL    HW219102   4.265   5.616   8.081 -0.2587 -0.3363  0.1117
37756SOL     OW19103   1.779   9.753  10.296  0.2291 -0.3513 -0.5094
37756SOL    HW119104   1.810   9.793  10.215 -1.3384 -0.3131 -1.1360
37756SOL    HW219105   1.684   9.747  10.284 -0.2551  1.0979  1.9769
37757SOL     OW19106   7.334  10.636   9.824  0.2852 -0.2347 -0.1752
37757SOL    HW119107   7.395  10.680   9.764  0.1208  0.2624  0.0121
37757SOL    HW219108   7.304  10.706   9.882 -0.3035 -0.5168 -0.1346
37758SOL     OW19109   4.714   6.325   8.587  0.2988 -0.3417 -0.6660
37758SOL    HW119110   4.691   6.391   8.652 -1.3260 -1.5212  0.0260
37758SOL    HW219111   4.797   6.355   8.550 -0.3280  1.9858 -0.2930
37759SOL     OW19112   1.158  10.319   1.111 -0.2718 -0.9246 -0.9367
37759SOL    HW119113   1.197  10.373   1.042  1.9413 -0.0974  0.8326
37759SOL    HW219114   1.099  10.377   1.157  1.7956  0.0285  0.7044
37760SOL     OW19115   5.825   0.113   0.395 -0.2699  0.1120  0.1396
37760SOL    HW119116   5.734   0.095   0.419 -0.9888  2.0963 -0.8816
37760SOL    HW219117   5.820   0.147   0.305  1.3615  1.2866  0.4507
37761SOL     OW19118   2.656   5.132   3.080 -0.5424  0.2929 -0.3992
37761SOL    HW119119   2.663   5.143   3.175 -1.1951 -0.0508 -0.3093
37761SOL    HW219120   2.700   5.210   3.044  1.2740 -0.4125  0.1439
37762SOL     OW19121   4.275   3.712   0.522 -0.1571 -0.5403  0.3481
37762SOL    HW119122   4.289   3.743   0.432  1.7843 -0.1704  0.7563
37762SOL    HW219123   4.197   3.657   0.515 -0.6007  0.2302 -1.3815
37763SOL     OW19124   6.299   8.479   4.798  0.6500  0.0984  0.1699
37763SOL    HW119125   6.204   8.490   4.791  0.3584 -1.8612  0.4710
37763SOL    HW219126   6.318   8.400   4.748  1.7074 -1.1152  2.3311
37764SOL     OW19127   3.009   7.601   7.392 -0.3828  0.2820  0.2056
37764SOL    HW119128   3.098   7.568   7.384  0.4187  1.8326  1.9764
37764SOL    HW219129   2.977   7.607   7.302  2.5631  2.8414 -0.8625
37765SOL     OW19130   0.957   5.922  10.119  0.0429 -0.2664  0.0751
37765SOL    HW119131   1.008   5.905  10.199  0.7032 -1.4352 -0.5628
37765SOL    HW219132   0.876   5.873  10.132 -1.1578  1.8835  1.2481
37766SOL     OW19133   8.351   7.242   4.270 -0.1677  0.3813 -0.1488
37766SOL    HW119134   8.271   7.197   4.242 -0.1005  0.4079 -0.3825
37766SOL    HW219135   8.319   7.312   4.327 -0.1786 -1.1658  1.8886
37767SOL     OW19136   0.535   5.492   7.455  0.1115  0.4411 -0.1155
37767SOL    HW119137   0.467   5.450   7.508 -1.5546  3.9051  0.7811
37767SOL    HW219138   0.613   5.488   7.509 -0.3268 -0.3090  0.4827
37768SOL     OW19139   0.989   7.316   1.563  0.1272 -0.8630  0.3057
37768SOL    HW119140   1.071   7.333   1.610 -0.5672 -0.6255  1.4849
37768SOL    HW219141   0.970   7.224   1.579  1.0014 -1.3762 -1.3823
37769SOL     OW19142   8.456   6.066   5.362 -0.4262 -0.0533 -0.4238
37769SOL    HW119143   8.413   5.980   5.365  1.3031 -0.9580  0.2871
37769SOL    HW219144   8.543   6.050   5.399  0.6201  1.6257 -1.9837
37770SOL     OW19145   4.965   9.681   6.523 -0.3705 -0.3523  0.4990
37770SOL    HW119146   5.003   9.685   6.435 -3.0680 -0.7037 -0.8054
37770SOL    HW219147   4.920   9.596   6.526 -0.5037 -0.2648  2.1520
37771SOL     OW19148   4.170   9.129   2.826  0.3370  0.1930 -0.4516
37771SOL    HW119149   4.138   9.039   2.833  1.6327 -0.3053 -0.5896
37771SOL    HW219150   4.239   9.135   2.891  2.2594  0.1533 -2.3519
37772SOL     OW19151   4.723  10.642   7.583  0.5503  0.1858  0.2943
37772SOL    HW119152   4.763  10.628   7.497 -1.7779 -2.2084 -0.5172
37772SOL    HW219153   4.632  10.616   7.572  0.2096 -0.3998  3.5233
37773SOL     OW19154   0.608   1.425   7.405  0.2659  0.1698  0.1087
37773SOL    HW119155   0.646   1.341   7.430 -0.4201 -1.0478 -2.5776
37773SOL    HW219156   0.683   1.485   7.403  0.9164 -0.5694  1.2081
37774SOL     OW19157   7.870   4.353   1.164  0.0567  0.0454 -0.5784
37774SOL    HW119158   7.867   4.279   1.225 -1.7693 -0.1140 -0.8076
37774SOL    HW219159   7.958   4.390   1.175  0.3697 -1.0488  0.8591
37775SOL     OW19160   2.223   9.693   9.520 -0.2156  0.0358 -0.3867
37775SOL    HW119161   2.171   9.682   9.600  0.1555 -1.8335 -0.3631
37775SOL    HW219162   2.216   9.609   9.475  2.1368 -0.0233 -0.7624
37776SOL     OW19163   9.481   6.667   1.687 -0.0123  0.4879  0.1795
37776SOL    HW119164   9.499   6.728   1.615 -0.2802 -0.3268 -0.5960
37776SOL    HW219165   9.516   6.583   1.657  0.4196  0.2650  1.2663
37777SOL     OW19166   8.781   1.689   7.806 -0.1475  0.1411 -0.5206
37777SOL    HW119167   8.788   1.784   7.800 -1.5160  0.2582 -0.6033
37777SOL    HW219168   8.724   1.664   7.734  1.6111 -0.9671 -1.5952
37778SOL     OW19169   5.173   8.705   7.049 -0.4103 -0.3291 -0.8044
37778SOL    HW119170   5.188   8.756   6.969  0.8733  2.2287  0.9383
37778SOL    HW219171   5.078   8.698   7.055 -0.6341  1.5114 -1.4100
37779SOL     OW19172   3.666   0.854   8.301 -0.7995  0.1076  0.0965
37779SOL    HW119173   3.657   0.821   8.211 -1.1697 -0.1132  0.2158
37779SOL    HW219174   3.689   0.947   8.290 -1.3291  0.2026 -0.2212
37780SOL     OW19175   3.037   1.199   3.738 -0.1711 -0.5379  0.2712
37780SOL    HW119176   2.992   1.277   3.771  0.2756  0.0893 -0.5579
37780SOL    HW219177   3.043   1.213   3.643 -0.1481 -1.6175  0.1031
37781SOL     OW19178   6.133   9.581   5.950  0.6388  0.1062 -0.1367
37781SOL    HW119179   6.076   9.537   6.013  1.0314 -0.2879 -0.0498
37781SOL    HW219180   6.178   9.510   5.904  0.1902  0.3787 -1.0298
37782SOL     OW19181   8.913   2.282   7.027  0.0805  0.6553  0.1747
37782SOL    HW119182   8.846   2.251   7.088  0.7703 -3.0946 -0.7421
37782SOL    HW219183   8.864   2.305   6.948 -0.2589 -1.7159 -0.3673
37783SOL     OW19184   5.416  10.098   9.619 -0.1701  0.0522 -0.1394
37783SOL    HW119185   5.445  10.007   9.613  1.3639  0.4175  1.0376
37783SOL    HW219186   5.492  10.149   9.591 -0.5279  1.0006  0.5704
37784SOL     OW19187   1.846   5.351   3.292  0.3118  0.0339 -0.3466
37784SOL    HW119188   1.784   5.308   3.350  0.1283  2.8029  1.7548
37784SOL    HW219189   1.928   5.304   3.305  0.2821  0.5764  2.3153
37785SOL     OW19190   9.579   4.305   4.484 -0.6019 -0.1127 -0.1362
37785SOL    HW119191   9.544   4.236   4.429  0.6053  0.4620 -1.6852
37785SOL    HW219192   9.554   4.279   4.573  0.1909 -2.7549 -0.6093
37786SOL     OW19193   4.557   4.092   1.487  0.3509 -0.6577 -0.5101
37786SOL    HW119194   4.538   4.008   1.528 -0.5267  0.4332  1.4815
37786SOL    HW219195   4.475   4.117   1.445  0.0866 -0.0435  0.3544
37787SOL     OW19196   5.356   4.286   9.798  0.2693  0.6866 -0.6941
37787SOL    HW119197   5.292   4.257   9.863  0.3254 -0.2623 -1.0579
37787SOL    HW219198   5.424   4.329   9.851 -0.8534  2.1018 -0.3446
37788SOL     OW19199   2.511   5.599   3.552  0.4175 -0.5426  0.2086
37788SOL    HW119200   2.496   5.633   3.640  0.0758 -1.9718  0.7272
37788SOL    HW219201   2.448   5.647   3.498 -0.2792 -0.5672  0.9658
37789SOL     OW19202   0.118   4.808   9.519  0.5652 -0.5131  0.2593
37789SOL    HW119203   0.032   4.844   9.495  0.3156 -0.7194  0.8152
37789SOL    HW219204   0.129   4.733   9.461 -0.5269 -1.6758  1.4771
37790SOL     OW19205   3.821   8.210   3.756 -0.2803  0.0135 -0.0200
37790SOL    HW119206   3.914   8.229   3.748 -0.3378  0.1386 -0.4495
37790SOL    HW219207   3.813   8.156   3.834  0.3569 -1.4454 -0.9238
37791SOL     OW19208   7.462   3.394   6.265 -0.1214  0.1297 -0.2317
37791SOL    HW119209   7.546   3.357   6.236 -1.2768 -0.3095 -3.3894
37791SOL    HW219210   7.436   3.340   6.340  2.4999  0.5075  1.0793
37792SOL     OW19211  10.354   4.688   3.812  0.3446 -0.6812  0.3348
37792SOL    HW119212  10.407   4.661   3.886 -0.7340 -1.3121  0.8983
37792SOL    HW219213  10.285   4.743   3.850 -1.2067 -2.3520  0.0855
37793SOL     OW19214   2.532   2.763   1.970  0.2430 -0.3614 -0.0675
37793SOL    HW119215   2.515   2.857   1.977  2.6698  0.2081 -0.8944
37793SOL    HW219216   2.594   2.756   1.898  0.7910 -2.5239  0.5733
37794SOL     OW19217   0.385   7.045  10.673  0.0747 -0.3235  0.5933
37794SOL    HW119218   0.413   7.074  10.586  1.1050 -2.0408  0.3026
37794SOL    HW219219   0.300   7.086  10.686 -0.0865 -0.0180 -1.2252
37795SOL     OW19220   6.335   2.924  10.447 -0.2482 -0.9667 -0.1596
37795SOL    HW119221   6.366   2.997  10.395  0.9174 -0.7678  0.7704
37795SOL    HW219222   6.243   2.945  10.466  0.5375  1.2496  1.6812
37796SOL     OW19223   2.284   7.692   9.185 -0.0283  0.1383  0.1282
37796SOL    HW119224   2.345   7.756   9.221 -0.1925  0.0969  0.4901
37796SOL    HW219225   2.280   7.623   9.252 -0.7643  0.3249  0.2887
37797SOL     OW19226   6.197   2.407   4.059  0.5701  0.1548  0.3630
37797SOL    HW119227   6.271   2.363   4.101  1.1879  0.5017 -0.3302
37797SOL    HW219228   6.141   2.434   4.131  0.8748 -0.5453  0.8763
37798SOL     OW19229   4.456   0.797   0.955  0.5089 -0.3987 -0.4246
37798SOL    HW119230   4.520   0.864   0.931  2.1820 -1.7691  0.0399
37798SOL    HW219231   4.371   0.836   0.931  1.5654  0.9999 -2.1514
37799SOL     OW19232   3.123   7.104   3.160 -0.0464  0.2312 -0.2308
37799SOL    HW119233   3.185   7.176   3.146 -0.7995  0.6386 -1.6834
37799SOL    HW219234   3.175   7.025   3.146  0.4368  0.5305 -0.1544
37800SOL     OW19235   7.280   9.453   3.015  0.3931 -0.0317 -0.2096
37800SOL    HW119236   7.187   9.434   3.031  0.3024  1.1495  0.7595
37800SOL    HW219237   7.326   9.403   3.082  0.1499  2.9103  2.3901
37801SOL     OW19238   6.950   3.487   5.521 -0.0657 -0.6579 -0.0459
37801SOL    HW119239   6.956   3.555   5.588  0.5608 -0.9107  0.1650
37801SOL    HW219240   6.938   3.406   5.570 -0.4719 -0.7397 -0.2804
37802SOL     OW19241   8.149   4.538   2.754  0.3967 -0.4908  0.4282
37802SOL    HW119242   8.227   4.507   2.707  0.5258  1.8557 -1.0766
37802SOL    HW219243   8.080   4.540   2.688 -0.6620 -1.3929  1.4664
37803SOL     OW19244   4.182   3.445   2.841 -0.1766  0.4575 -0.5704
37803SOL    HW119245   4.259   3.394   2.865 -0.3349  0.1232 -0.7622
37803SOL    HW219246   4.123   3.437   2.916 -0.1707  0.4218 -0.5696
37804SOL     OW19247   4.971  10.705   8.368  0.6110  0.1983  0.4797
37804SOL    HW119248   4.976  10.667   8.280  0.9371 -0.1711  0.6489
37804SOL    HW219249   5.038  10.773   8.368  2.4913 -1.5275  1.2282
37805SOL     OW19250   1.962   7.779   8.935 -0.1595 -0.0224 -0.0062
37805SOL    HW119251   1.949   7.685   8.950  0.7023 -0.0278  0.7814
37805SOL    HW219252   1.970   7.817   9.022  1.5468  0.4673 -0.3232
37806SOL     OW19253   4.031   7.364   4.292  0.1935 -0.0261 -0.3685
37806SOL    HW119254   4.052   7.325   4.377  0.8972  0.7221 -0.1861
37806SOL    HW219255   4.007   7.454   4.312 -0.9404 -0.2026 -0.8408
37807SOL     OW19256   0.543   2.248   4.892 -0.0384 -0.0679  0.0628
37807SOL    HW119257   0.495   2.330   4.884  1.3777  0.8833  0.8580
37807SOL    HW219258   0.574   2.247   4.983 -2.1138 -2.7118  0.8741
37808SOL     OW19259   4.336   5.325   6.763  0.7070  0.4810  0.2382
37808SOL    HW119260   4.421   5.343   6.723 -0.3692  2.0316 -1.4932
37808SOL    HW219261   4.297   5.257   6.709  0.8071 -0.2277  1.0294
37809SOL     OW19262   6.528   2.636   0.304  0.0759 -0.4987  0.6298
37809SOL    HW119263   6.530   2.594   0.390  0.1423  0.5713  1.1663
37809SOL    HW219264   6.473   2.713   0.317  0.2206 -0.2437 -0.2540
37810SOL     OW19265   8.195   8.101   2.256 -0.0354  0.3361  0.2917
37810SOL    HW119266   8.128   8.066   2.198 -0.3937  2.0078 -0.3419
37810SOL    HW219267   8.147   8.155   2.319  0.4687 -0.5499  1.4819
37811SOL     OW19268   0.213   2.231   6.733 -0.6938  0.1677  0.0226
37811SOL    HW119269   0.125   2.266   6.750 -0.8258 -0.5690  0.9500
37811SOL    HW219270   0.203   2.182   6.651 -0.4360  2.4289 -1.4568
37812SOL     OW19271   8.663   5.472   3.650  0.4663 -0.4702 -0.6556
37812SOL    HW119272   8.604   5.547   3.642 -0.2314 -0.9736 -0.3130
37812SOL    HW219273   8.739   5.495   3.595 -0.1831  0.0499 -1.3567
37813SOL     OW19274   4.831   7.387   3.173  0.3864  0.3535 -0.4362
37813SOL    HW119275   4.882   7.394   3.253 -1.0603  0.4990  0.5063
37813SOL    HW219276   4.822   7.477   3.142  0.6112  0.3392 -0.5425
37814SOL     OW19277   9.358   9.675  10.057 -0.0895  0.2335 -0.0073
37814SOL    HW119278   9.313   9.628   9.986 -0.3735  1.7620 -0.8826
37814SOL    HW219279   9.288   9.697  10.119 -0.3690  1.4335 -0.7107
37815SOL     OW19280   1.143   0.502   6.787  0.1036  0.1125 -0.2767
37815SOL    HW119281   1.137   0.581   6.733  1.4584 -0.5173 -1.4318
37815SOL    HW219282   1.196   0.528   6.862 -0.8022  0.6934  0.1806
37816SOL     OW19283  10.446   6.249  10.600 -0.1992  0.3389  0.3097
37816SOL    HW119284  10.508   6.321  10.591 -0.3786  0.6270  1.2470
37816SOL    HW219285  10.466   6.190  10.527  1.3829  0.2538  0.7861
37817SOL     OW19286   3.661   3.472   7.239  0.3767  0.5020  0.0686
37817SOL    HW119287   3.592   3.536   7.226 -0.9590 -0.8842  0.1080
37817SOL    HW219288   3.629   3.392   7.197  2.4206  0.0954 -0.8362
37818SOL     OW19289   0.736  10.411   5.253 -0.1049  0.1382  0.4295
37818SOL    HW119290   0.773  10.393   5.339  0.5333  0.3398  0.2060
37818SOL    HW219291   0.668  10.477   5.269 -0.5441 -0.4129  0.8773
37819SOL     OW19292   2.015   1.745   7.917 -0.2044 -0.5921 -0.1650
37819SOL    HW119293   2.032   1.749   7.823  0.5838  2.3558  0.0006
37819SOL    HW219294   2.081   1.804   7.956 -1.0126 -1.1076  2.1458
37820SOL     OW19295   7.647   0.487   9.749 -0.1126  0.3487  0.1482
37820SOL    HW119296   7.667   0.454   9.837 -0.0040 -0.4551 -0.1741
37820SOL    HW219297   7.600   0.569   9.765 -1.5534 -0.6065  0.9769
37821SOL     OW19298   2.075   6.005   3.905  0.2745 -0.1935  0.0794
37821SOL    HW119299   2.047   6.058   3.979  0.6666  1.0708 -0.6468
37821SOL    HW219300   2.059   5.915   3.933 -1.1187  0.3130  1.0669
37822SOL     OW19301   0.162   8.318   8.850 -0.1303  0.1944 -0.5304
37822SOL    HW119302   0.184   8.226   8.833 -0.3395  0.0803 -0.1984
37822SOL    HW219303   0.103   8.341   8.778 -0.3379 -0.0327 -0.4370
37823SOL     OW19304   9.190   1.284   5.857 -0.1902 -0.1872  0.1381
37823SOL    HW119305   9.103   1.252   5.882 -0.9013  1.2931 -0.2908
37823SOL    HW219306   9.172   1.361   5.803  1.3532  1.8397  2.2971
37824SOL     OW19307   0.394   1.183   8.041  1.1374 -0.4836  0.4097
37824SOL    HW119308   0.459   1.225   7.985  0.5410 -0.4082 -0.2437
37824SOL    HW219309   0.344   1.128   7.981  0.5659 -0.5035  0.8990
37825SOL     OW19310   7.054   3.976   9.095 -0.5463 -0.1012  0.2062
37825SOL    HW119311   7.103   4.024   9.162  1.9815  0.1644 -1.6468
37825SOL    HW219312   7.091   4.007   9.012 -3.1039 -0.8382 -1.3254
37826SOL     OW19313   9.205   1.845   3.632 -0.4976  0.4372  0.2826
37826SOL    HW119314   9.138   1.896   3.588  0.0979  1.1082  0.1327
37826SOL    HW219315   9.169   1.827   3.719 -0.7261  1.1017  0.3287
37827SOL     OW19316   5.288   1.339   0.948 -0.0071  0.0371 -0.0761
37827SOL    HW119317   5.294   1.424   0.905 -0.7774 -0.9994 -2.4073
37827SOL    HW219318   5.226   1.352   1.020 -2.2182  0.9148 -2.0101
37828SOL     OW19319   4.817   8.438  10.104  0.6846 -0.2139  0.1875
37828SOL    HW119320   4.792   8.500  10.172  1.0350  0.1961 -0.0576
37828SOL    HW219321   4.778   8.472  10.024  1.6316  0.1928 -0.1178
37829SOL     OW19322   1.055   6.952   5.358 -0.0377 -0.3778  0.0596
37829SOL    HW119323   1.026   6.939   5.267 -2.4739  0.0961  0.7044
37829SOL    HW219324   1.086   6.866   5.385 -0.1842 -0.7589 -0.9155
37830SOL     OW19325   2.384   3.708   2.116  0.3125  0.5844 -0.2226
37830SOL    HW119326   2.432   3.683   2.036 -1.1035 -1.2356 -0.5797
37830SOL    HW219327   2.441   3.772   2.159  2.6597 -0.8081 -1.0469
37831SOL     OW19328   2.210   0.142   6.716  0.3147 -0.0412 -0.6019
37831SOL    HW119329   2.206   0.108   6.627 -1.3063  1.1856 -1.0389
37831SOL    HW219330   2.273   0.214   6.712 -1.8662  1.9679 -1.5473
37832SOL     OW19331   4.811   7.992   1.721  0.1426 -0.3749  0.2742
37832SOL    HW119332   4.826   8.017   1.630  0.2027  0.6422  0.5524
37832SOL    HW219333   4.728   7.944   1.719 -0.5471  0.8126 -0.1319
37833SOL     OW19334   4.956   1.567   0.581  0.0275  0.0038  0.7593
37833SOL    HW119335   4.927   1.478   0.562  1.4732 -0.1246 -1.1219
37833SOL    HW219336   4.986   1.564   0.672  0.5606 -1.5719  0.5546
37834SOL     OW19337   4.390   4.284   4.158  0.4630 -0.6170  0.7476
37834SOL    HW119338   4.361   4.322   4.075 -2.6872 -2.8114  0.6724
37834SOL    HW219339   4.348   4.337   4.225  1.7023  0.1695  0.9292
37835SOL     OW19340   9.503   2.545   8.796 -0.6963 -0.1935  0.0262
37835SOL    HW119341   9.513   2.596   8.716 -0.8568 -0.5544 -0.2238
37835SOL    HW219342   9.568   2.582   8.856  0.1039 -0.5509 -0.5916
37836SOL     OW19343   3.742   4.685   7.729 -0.3643  0.1056 -0.1440
37836SOL    HW119344   3.679   4.711   7.661 -0.6058  1.3082  0.5120
37836SOL    HW219345   3.688   4.671   7.807  0.0442 -0.0801  0.1061
37837SOL     OW19346   2.898   9.856   0.831 -0.2776 -0.2559 -0.5395
37837SOL    HW119347   2.947   9.781   0.866 -0.8344 -0.3003  0.1694
37837SOL    HW219348   2.873   9.829   0.742  0.4146 -0.4935 -0.6628
37838SOL     OW19349   8.156   8.464   6.429 -0.5777  0.1072  0.4987
37838SOL    HW119350   8.126   8.506   6.349 -1.7130  0.6182  1.1745
37838SOL    HW219351   8.095   8.391   6.443 -0.2308 -0.1375  0.7629
37839SOL     OW19352   5.379   5.742   5.047  0.0996 -0.2007 -0.2074
37839SOL    HW119353   5.413   5.831   5.036  0.8065 -0.4836 -0.3965
37839SOL    HW219354   5.445   5.698   5.101 -1.0966 -0.1205  1.3672
37840SOL     OW19355   8.238   2.740   8.262  0.0674  0.2714  0.0497
37840SOL    HW119356   8.330   2.725   8.281  0.7664 -1.3137 -3.6794
37840SOL    HW219357   8.193   2.665   8.299  0.2132  1.0475  1.8839
37841SOL     OW19358   5.542   1.094   1.028  0.2793  0.1871  0.5169
37841SOL    HW119359   5.540   1.188   1.011  0.2689  0.6177  2.6633
37841SOL    HW219360   5.504   1.084   1.115  0.3343 -1.8207  0.3676
37842SOL     OW19361   7.862   7.053   6.147  0.0036 -0.1082  0.5137
37842SOL    HW119362   7.862   7.074   6.054  2.4066  0.7742  0.6391
37842SOL    HW219363   7.791   6.990   6.158 -0.4744 -0.0575 -1.8524
37843SOL     OW19364   1.627   9.305  10.254  0.7828 -0.0913 -0.2871
37843SOL    HW119365   1.568   9.354  10.198  2.6817  0.3334 -2.0439
37843SOL    HW219366   1.631   9.355  10.335 -0.5981  0.2909 -0.4353
37844SOL     OW19367   4.883  10.203   3.921 -0.3027  0.6430 -0.6404
37844SOL    HW119368   4.851  10.279   3.874  0.2551  1.4304  0.2092
37844SOL    HW219369   4.814  10.182   3.984 -0.2250  0.7772 -0.5109
37845SOL     OW19370  10.644   8.602   9.435 -0.4249 -0.7504 -0.0561
37845SOL    HW119371  10.737   8.625   9.436 -0.8944  1.6198 -1.6633
37845SOL    HW219372  10.640   8.519   9.387  0.9311 -1.6257  1.2445
37846SOL     OW19373   2.214   5.783   9.829  0.2993  0.3099  0.6687
37846SOL    HW119374   2.136   5.810   9.781 -0.4053 -2.4015  0.1138
37846SOL    HW219375   2.286   5.796   9.766  0.0940  1.3414  0.6295
37847SOL     OW19376  10.802   5.095  10.441  0.1036 -0.0035  0.4746
37847SOL    HW119377  10.848   5.178  10.433 -1.6139  1.0565  0.9432
37847SOL    HW219378  10.746   5.107  10.518 -2.8985 -0.1819 -1.5305
37848SOL     OW19379   9.237   8.707   4.644 -0.4069 -0.1335  0.2456
37848SOL    HW119380   9.179   8.661   4.705 -2.4700 -0.1671 -1.6125
37848SOL    HW219381   9.180   8.732   4.571  1.3164  2.4872 -0.3475
37849SOL     OW19382   9.681   5.804   3.776 -0.0130  0.5210  0.2907
37849SOL    HW119383   9.716   5.726   3.820  1.6244  1.0813  0.0595
37849SOL    HW219384   9.719   5.801   3.688 -3.0227 -0.4321 -1.1042
37850SOL     OW19385   4.887  10.200   8.252 -0.2635 -0.9466 -0.1780
37850SOL    HW119386   4.849  10.213   8.165  0.7877  0.5284 -0.4757
37850SOL    HW219387   4.968  10.152   8.235 -0.3591 -1.1922  0.0611
37851SOL     OW19388   0.983   6.165   1.274 -0.2637  0.4259  0.0080
37851SOL    HW119389   0.902   6.213   1.256  1.0414  2.1560 -1.6994
37851SOL    HW219390   1.005   6.188   1.364 -0.3569  2.0666 -0.3498
37852SOL     OW19391   6.175  10.185  10.399 -0.5578  0.2266 -0.2815
37852SOL    HW119392   6.186  10.245  10.472  1.8588  1.3223 -1.4267
37852SOL    HW219393   6.115  10.230  10.339  0.9046  1.3749 -0.9354
37853SOL     OW19394   7.206   9.872  10.536  0.2920  0.3397  0.3168
37853SOL    HW119395   7.226   9.835  10.622  1.7664  0.4623  0.0537
37853SOL    HW219396   7.270   9.942  10.525 -0.9954  1.4737 -0.1643
37854SOL     OW19397   1.908   0.682   6.054 -0.7261 -0.0809 -0.3937
37854SOL    HW119398   1.914   0.619   6.125  4.2835 -0.4329 -0.7344
37854SOL    HW219399   1.906   0.767   6.098 -1.4547 -0.3405  0.0976
37855SOL     OW19400   1.835   8.991   1.014 -0.2516 -0.6319  0.2273
37855SOL    HW119401   1.916   8.976   0.965 -0.1132  0.9933 -0.1195
37855SOL    HW219402   1.863   8.995   1.106 -0.1109 -1.1272  0.2098
37856SOL     OW19403   5.607   3.906   5.609  0.3604 -0.1284  0.1596
37856SOL    HW119404   5.626   3.816   5.585 -1.0439 -0.8105  1.4265
37856SOL    HW219405   5.514   3.906   5.633  0.4285  1.5577  0.5980
37857SOL     OW19406   2.602   9.982   0.655 -0.3394  0.0331 -0.0328
37857SOL    HW119407   2.676   9.935   0.616  0.1268  1.2922 -0.7373
37857SOL    HW219408   2.642  10.052   0.706 -1.0424  0.5903 -0.2327
37858SOL     OW19409   8.346   5.849   2.420 -0.2905 -0.0518  0.5464
37858SOL    HW119410   8.370   5.766   2.378 -1.4421 -1.4341  2.4345
37858SOL    HW219411   8.401   5.915   2.377  1.4754 -1.9514 -0.2884
37859SOL     OW19412   5.571   7.490   1.327  0.3244  0.0976 -0.3924
37859SOL    HW119413   5.603   7.410   1.369  1.5600  1.7047  1.9296
37859SOL    HW219414   5.483   7.502   1.361  0.2883 -0.0485 -0.4330
37860SOL     OW19415   5.315   7.068   6.691  0.3820 -0.0727  0.3391
37860SOL    HW119416   5.264   7.058   6.771  0.6337  0.2769  0.5448
37860SOL    HW219417   5.282   6.999   6.633 -0.7359  0.5151  0.2515
37861SOL     OW19418   3.840   5.508   1.256 -0.0424  0.0891  0.1742
37861SOL    HW119419   3.758   5.497   1.304  1.4941  0.5465  3.1826
37861SOL    HW219420   3.878   5.421   1.252 -1.2786 -0.4185 -2.6401
37862SOL     OW19421   9.721   9.395   4.329 -0.0820  0.0758  0.3723
37862SOL    HW119422   9.801   9.356   4.295 -0.3168  0.8111 -1.0997
37862SOL    HW219423   9.699   9.463   4.265 -2.3173 -0.6402  0.3336
37863SOL     OW19424   8.320   8.230   5.210 -0.5678  0.1678  0.3413
37863SOL    HW119425   8.259   8.209   5.139 -1.8415 -0.7621  1.6474
37863SOL    HW219426   8.384   8.288   5.170 -0.9230 -0.7508 -1.7128
37864SOL     OW19427   2.572   5.639   4.533 -0.2177 -0.2549 -0.0716
37864SOL    HW119428   2.557   5.720   4.485 -0.8308 -1.4704 -2.0460
37864SOL    HW219429   2.567   5.665   4.626  1.6220  2.2912 -0.5629
37865SOL     OW19430   7.990   8.223   8.687 -0.0366  0.9201  0.8815
37865SOL    HW119431   8.038   8.295   8.647  0.8833 -0.4929 -0.7157
37865SOL    HW219432   7.938   8.186   8.615  0.0702 -0.4473  1.4685
37866SOL     OW19433  10.598   5.517   3.896 -0.6832  0.1871  0.2451
37866SOL    HW119434  10.618   5.517   3.990 -0.9700 -1.1514  0.3192
37866SOL    HW219435  10.599   5.610   3.872 -2.1879  0.7017  1.9255
37867SOL     OW19436   7.964   8.755   6.480 -0.0160  0.1891 -0.6611
37867SOL    HW119437   7.888   8.813   6.469  0.1469  0.2644 -1.4312
37867SOL    HW219438   7.948   8.711   6.563 -1.0096  0.0498 -0.9093
37868SOL     OW19439   0.208   5.747  10.498 -0.0105  0.1556 -0.0541
37868SOL    HW119440   0.191   5.838  10.522 -0.0299 -0.0845  0.8692
37868SOL    HW219441   0.270   5.753  10.425  0.0047  0.9029  0.0108
37869SOL     OW19442   8.995   0.253   6.770 -0.3519 -0.5148 -0.4930
37869SOL    HW119443   9.031   0.236   6.683 -0.9460  0.6029 -0.9859
37869SOL    HW219444   9.041   0.331   6.800 -1.3699  0.1326 -0.5628
37870SOL     OW19445   0.879   0.970   9.074  0.0574  0.1049 -0.1847
37870SOL    HW119446   0.916   1.017   8.999  0.3731 -0.6419 -0.5057
37870SOL    HW219447   0.796   0.934   9.041  0.4422 -0.6536 -0.3280
37871SOL     OW19448   2.365   0.259  10.282 -0.1121  0.1418  0.6144
37871SOL    HW119449   2.447   0.209  10.278  0.5221  1.2765 -1.6465
37871SOL    HW219450   2.343   0.278  10.191 -2.3551  0.7870  1.2221
37872SOL     OW19451   0.896   4.132   5.188  0.4508 -0.4813 -0.1632
37872SOL    HW119452   0.815   4.121   5.138 -0.1702  1.3924  0.3619
37872SOL    HW219453   0.873   4.104   5.277 -0.0368  1.2952  0.2943
37873SOL     OW19454   8.042   1.407   6.786  0.1036 -0.5185 -0.2975
37873SOL    HW119455   8.057   1.319   6.750 -1.4230 -1.2377  0.7051
37873SOL    HW219456   8.015   1.459   6.711 -1.5078 -1.5976 -0.5275
37874SOL     OW19457  10.241   1.997  10.165  0.0885 -0.1953 -0.1429
37874SOL    HW119458  10.195   2.041  10.237  1.6860  1.2940  0.0487
37874SOL    HW219459  10.229   2.054  10.090  2.8741  1.1663  0.3024
37875SOL     OW19460   1.611   2.676   5.204  0.4901 -0.2719 -0.1918
37875SOL    HW119461   1.687   2.733   5.188  0.3768 -0.3287 -0.9705
37875SOL    HW219462   1.536   2.735   5.204  0.5175 -0.2313  0.4654
37876SOL     OW19463   5.894   1.564   7.591 -0.2685  0.1840  0.2928
37876SOL    HW119464   5.882   1.525   7.678 -0.2748  2.0870  1.1858
37876SOL    HW219465   5.948   1.500   7.544 -2.0482 -1.9043  0.9176
37877SOL     OW19466   2.104   2.923   3.381  0.0866 -0.5858 -0.1507
37877SOL    HW119467   2.035   2.859   3.396 -0.7087  0.0624 -0.8608
37877SOL    HW219468   2.107   2.975   3.461  0.7106 -1.4604  0.4139
37878SOL     OW19469   9.238   1.744   5.479 -0.2504  0.7357 -0.6083
37878SOL    HW119470   9.243   1.727   5.573 -0.8871  3.1618 -0.0616
37878SOL    HW219471   9.234   1.657   5.439 -0.6141 -0.3489  1.6264
37879SOL     OW19472  10.512  10.463   4.824  0.2110 -0.0010 -0.1362
37879SOL    HW119473  10.451  10.405   4.779 -1.6507  1.2999  0.5563
37879SOL    HW219474  10.526  10.535   4.762  1.4041 -0.4784 -0.4465
37880SOL     OW19475   5.666   8.780   7.068 -0.7158 -0.1838  0.8038
37880SOL    HW119476   5.652   8.702   7.120  1.3650  0.0195  1.7862
37880SOL    HW219477   5.707   8.842   7.128 -2.8222  1.9242  0.2168
37881SOL     OW19478  10.920  10.236   7.682  0.3425 -0.7539 -0.4295
37881SOL    HW119479  10.849  10.229   7.618  0.4046 -2.1541 -0.3694
37881SOL    HW219480  10.892  10.306   7.741 -0.0770  0.0216 -1.5138
37882SOL     OW19481   6.140   1.694   8.708 -0.6125 -0.0697  0.6758
37882SOL    HW119482   6.213   1.709   8.768  0.1863 -1.4321  0.0655
37882SOL    HW219483   6.063   1.693   8.766 -0.1169  0.7845  1.3933
37883SOL     OW19484   6.039   4.991   0.968 -0.6969 -0.4652 -0.4478
37883SOL    HW119485   6.112   5.047   0.940 -0.1565 -0.8390  0.1723
37883SOL    HW219486   5.969   5.010   0.906 -0.5501  0.9500 -0.2195
37884SOL     OW19487   3.146   4.673   3.027  0.2127 -0.3307  0.1442
37884SOL    HW119488   3.240   4.654   3.017  0.1075 -0.6595 -0.2302
37884SOL    HW219489   3.104   4.625   2.956 -0.2954 -0.6318  0.6366
37885SOL     OW19490   7.400   9.843  10.303 -0.7318  0.2140 -0.1052
37885SOL    HW119491   7.338   9.853  10.375  0.4765  0.7549  0.8937
37885SOL    HW219492   7.458   9.919  10.309  0.9196 -0.9699 -0.1056
37886SOL     OW19493   9.664   9.151   9.418 -0.6426  0.1076 -0.0853
37886SOL    HW119494   9.661   9.068   9.369  0.1680  0.3321 -0.5210
37886SOL    HW219495   9.693   9.216   9.354 -0.2087  0.5288  0.5260
37887SOL     OW19496   9.455   7.004   2.449 -0.0309  0.1511 -0.1734
37887SOL    HW119497   9.454   7.089   2.493 -1.6262  0.2615 -0.3677
37887SOL    HW219498   9.363   6.981   2.439  0.3666 -1.5395 -0.2700
37888SOL     OW19499   1.140   7.660   3.911  0.1363  0.2876 -0.6030
37888SOL    HW119500   1.142   7.642   3.817 -0.7853 -0.6961 -0.4587
37888SOL    HW219501   1.116   7.576   3.951 -2.0994  1.3036  0.3229
37889SOL     OW19502   2.337   9.501   9.915 -0.3998 -0.3168 -0.5224
37889SOL    HW119503   2.402   9.570   9.928  0.2953 -1.4608  3.5121
37889SOL    HW219504   2.281   9.506   9.993 -0.7854 -3.8037 -0.4088
37890SOL     OW19505   6.803   5.715   8.402 -0.8540 -0.6064  0.1123
37890SOL    HW119506   6.787   5.629   8.362  0.4201 -0.9748  0.3573
37890SOL    HW219507   6.722   5.735   8.448 -1.8114 -0.8704 -1.3702
37891SOL     OW19508   2.550   6.731   1.912 -0.4038  0.1278  0.2397
37891SOL    HW119509   2.555   6.813   1.864  0.1278 -0.0285  0.0092
37891SOL    HW219510   2.613   6.674   1.868 -0.3627 -0.2236  0.7377
37892SOL     OW19511   7.997   8.787   8.203 -0.4421  0.5109  0.2055
37892SOL    HW119512   7.976   8.695   8.188 -1.6951  0.4281  2.1923
37892SOL    HW219513   7.987   8.828   8.116  0.1034 -1.1728 -0.7017
37893SOL     OW19514   9.931   6.664   5.366 -0.3136 -0.0304 -0.1038
37893SOL    HW119515  10.024   6.645   5.349 -0.3088 -0.5566  0.4663
37893SOL    HW219516   9.920   6.755   5.338 -0.5089 -0.9942 -3.6905
37894SOL     OW19517   6.464   5.662   0.526 -0.1125 -0.2990  0.0154
37894SOL    HW119518   6.499   5.752   0.529 -0.4583 -0.1230 -0.8969
37894SOL    HW219519   6.370   5.673   0.514 -0.1606 -0.7846 -0.0793
37895SOL     OW19520   7.603   9.563   7.087 -0.1636  0.2524  0.2318
37895SOL    HW119521   7.548   9.491   7.057 -1.2410  0.8975  0.5810
37895SOL    HW219522   7.691   9.540   7.058 -0.5704 -0.9365 -0.1268
37896SOL     OW19523   3.474   8.115   7.187 -0.3900 -0.2037  0.1592
37896SOL    HW119524   3.556   8.165   7.193 -0.4936 -0.0590  0.3773
37896SOL    HW219525   3.494   8.044   7.125 -0.0965 -0.1767  0.2203
37897SOL     OW19526   3.828   3.537   1.539  0.0001  0.0425 -0.2383
37897SOL    HW119527   3.755   3.477   1.555  0.0673 -0.3325 -1.2580
37897SOL    HW219528   3.792   3.603   1.480  0.3632  0.0990 -0.3999
37898SOL     OW19529   8.388   4.911  10.554  0.1607  0.0110  0.0155
37898SOL    HW119530   8.338   4.939  10.631  0.7847 -0.2406  0.5237
37898SOL    HW219531   8.467   4.966  10.555 -0.2436  0.6492 -0.9762
37899SOL     OW19532  10.456   2.919   9.831 -0.0187 -0.4537  0.5961
37899SOL    HW119533  10.487   2.903   9.742  1.1898  0.4127  0.8235
37899SOL    HW219534  10.362   2.901   9.828  0.0329 -0.5911 -0.8152
37900SOL     OW19535   7.560   2.288   4.962 -0.4383  0.0460  0.1120
37900SOL    HW119536   7.618   2.363   4.949  0.7463 -0.7685  0.5198
37900SOL    HW219537   7.544   2.255   4.873 -0.1721  0.2028  0.0033
37901SOL     OW19538   4.693   3.491   1.812 -0.2392  0.2215  0.8638
37901SOL    HW119539   4.658   3.543   1.740  0.9417 -0.3445 -0.1538
37901SOL    HW219540   4.744   3.422   1.769  0.2233 -0.3232  2.2384
37902SOL     OW19541   3.434   1.183   7.636 -0.1988  0.3062  0.5441
37902SOL    HW119542   3.403   1.253   7.693  0.7852 -0.1668  1.7217
37902SOL    HW219543   3.464   1.227   7.557 -0.6216  1.0905  0.8122
37903SOL     OW19544   1.470   5.207   8.909  0.3790  0.1986  0.3794
37903SOL    HW119545   1.457   5.122   8.951  0.5089 -0.3749 -0.6971
37903SOL    HW219546   1.450   5.191   8.817  0.6200  1.2926  0.1236
37904SOL     OW19547   8.554   4.578   2.378  0.0748  0.7777  0.2060
37904SOL    HW119548   8.578   4.531   2.298  1.0481 -1.9452  1.9399
37904SOL    HW219549   8.632   4.627   2.402  1.2958 -1.5593  1.4544
37905SOL     OW19550   3.212   9.086   1.970  0.0648  0.4068 -0.1739
37905SOL    HW119551   3.216   9.090   1.874  0.0266 -1.2553 -0.2759
37905SOL    HW219552   3.206   9.178   1.998 -0.1656  0.9070 -1.7649
37906SOL     OW19553   2.690   9.223   4.219 -0.1413 -0.2912  0.3515
37906SOL    HW119554   2.682   9.163   4.144  2.1354 -0.8279  0.4559
37906SOL    HW219555   2.642   9.301   4.192 -1.4536 -1.3721 -0.6323
37907SOL     OW19556   0.728   1.474   1.196 -0.3917 -0.6374  0.4071
37907SOL    HW119557   0.744   1.526   1.275 -1.2269 -1.4244  1.1182
37907SOL    HW219558   0.739   1.383   1.224 -1.0895 -0.9453 -0.2816
37908SOL     OW19559   8.823   1.670   4.524 -0.0773 -0.6236  0.1672
37908SOL    HW119560   8.870   1.722   4.589 -0.3034 -0.8529  0.5162
37908SOL    HW219561   8.827   1.722   4.444  1.7036 -1.1328 -0.1017
37909SOL     OW19562   1.089   0.066   8.734 -0.1399 -0.8808  0.4891
37909SOL    HW119563   1.083  -0.018   8.688 -1.0314  0.0103 -1.1129
37909SOL    HW219564   1.014   0.067   8.793 -1.4984 -0.3153 -1.1529
37910SOL     OW19565   4.312   5.120   6.120  0.5844 -0.0291  0.1175
37910SOL    HW119566   4.260   5.130   6.040  2.4399  0.2272 -1.1065
37910SOL    HW219567   4.301   5.028   6.144 -0.1373 -0.0647 -0.3103
37911SOL     OW19568   2.410   5.468   5.808 -0.6568  0.0651 -0.2613
37911SOL    HW119569   2.447   5.390   5.850 -0.8446  0.3860  0.5194
37911SOL    HW219570   2.478   5.499   5.750 -0.4602 -0.5050 -0.3374
37912SOL     OW19571   2.869  10.885   6.833  0.6431 -0.5151  0.0007
37912SOL    HW119572   2.952  10.839   6.839  2.4090  2.1185 -1.8599
37912SOL    HW219573   2.881  10.964   6.887 -0.5212  0.0644 -0.5371
37913SOL     OW19574   4.259   1.980   2.365 -0.0676 -0.0951  0.1314
37913SOL    HW119575   4.166   1.978   2.342 -0.4692 -0.7577  1.6801
37913SOL    HW219576   4.266   1.922   2.441  1.2291  1.6470  1.4182
37914SOL     OW19577   8.564   2.827   1.115 -0.0648  0.5827  0.0202
37914SOL    HW119578   8.568   2.767   1.041  0.3468 -0.6379  0.9876
37914SOL    HW219579   8.630   2.893   1.096  1.5960 -0.9142  0.2702
37915SOL     OW19580   3.364   1.672   4.228  0.4871 -0.1108 -0.3669
37915SOL    HW119581   3.295   1.722   4.185 -0.2052 -1.6077 -1.0684
37915SOL    HW219582   3.445   1.705   4.191 -0.0112 -0.1422 -1.5078
37916SOL     OW19583   2.871   4.621  10.299  0.2004  0.0449  0.2750
37916SOL    HW119584   2.893   4.638  10.391  1.3199  0.8849 -0.1228
37916SOL    HW219585   2.954   4.633  10.252 -0.5415  0.5584 -0.9603
37917SOL     OW19586   6.548   4.262  10.294  0.1159 -0.1180  0.6718
37917SOL    HW119587   6.563   4.196  10.226  0.2060  0.9278 -0.3577
37917SOL    HW219588   6.635   4.285  10.326  0.1369  0.0444  0.4986
37918SOL     OW19589   9.943   3.069   1.657 -0.0803 -0.0030  0.2173
37918SOL    HW119590   9.946   2.979   1.691  0.6218  0.6098  1.8593
37918SOL    HW219591   9.883   3.064   1.582 -0.2404 -1.7854  0.4144
37919SOL     OW19592   9.121   2.215   7.792  0.8933 -0.1047  0.4069
37919SOL    HW119593   9.075   2.187   7.871 -0.2759  0.0443 -0.1917
37919SOL    HW219594   9.086   2.158   7.723  0.5316  0.9684 -0.3175
37920SOL     OW19595   9.339   2.194   2.895  0.0768  0.0114 -0.1804
37920SOL    HW119596   9.431   2.215   2.877 -0.8434  2.2852 -3.1778
37920SOL    HW219597   9.333   2.100   2.878  2.0343 -0.4879  1.4347
37921SOL     OW19598   3.505   7.599  10.196  0.3744  0.2700 -0.2817
37921SOL    HW119599   3.540   7.511  10.190 -0.2392  0.0898 -1.4353
37921SOL    HW219600   3.475   7.620  10.108  1.5692  2.0887 -0.3269
37922SOL     OW19601   1.957   0.062  10.410  0.0882  0.7183  0.8642
37922SOL    HW119602   2.006   0.093  10.334  0.4968 -0.1993  0.7393
37922SOL    HW219603   1.890   0.004  10.374  0.4542  0.0656  1.2156
37923SOL     OW19604   0.162   2.716   7.321 -0.0728 -0.0369 -0.0356
37923SOL    HW119605   0.166   2.639   7.377 -0.8819  0.0514  0.1459
37923SOL    HW219606   0.134   2.682   7.236  1.4518 -0.2184 -0.4997
37924SOL     OW19607  10.770   7.359   0.037  0.0263  0.1569  0.5362
37924SOL    HW119608  10.805   7.432  -0.013 -0.5978 -1.1251 -1.9411
37924SOL    HW219609  10.715   7.399   0.104  0.9095  1.9662  0.2321
37925SOL     OW19610   9.092   3.871   9.794 -0.0370  0.2791  0.1536
37925SOL    HW119611   9.111   3.912   9.878  0.3029  0.5901 -0.0719
37925SOL    HW219612   9.174   3.877   9.744 -0.8604  2.2462 -1.0757
37926SOL     OW19613   7.803   2.286   4.558  0.4598 -0.2252  0.3611
37926SOL    HW119614   7.715   2.323   4.563  0.1745 -1.0556  3.2961
37926SOL    HW219615   7.848   2.321   4.635  1.6383 -2.3430  0.6932
37927SOL     OW19616   9.349   7.847   2.223 -0.0157  0.1994  0.0739
37927SOL    HW119617   9.255   7.837   2.207 -0.2386  1.9045  0.1919
37927SOL    HW219618   9.389   7.839   2.136 -0.1698 -1.3117  0.1181
37928SOL     OW19619   8.697   1.411   7.783 -0.5628  0.2294 -0.7249
37928SOL    HW119620   8.611   1.437   7.815 -0.7232  0.2131 -1.1493
37928SOL    HW219621   8.701   1.444   7.694  1.0437  2.9012  0.2143
37929SOL     OW19622   9.940   7.438   4.569 -0.2985  0.0051  0.1576
37929SOL    HW119623   9.991   7.511   4.535 -0.7039  0.6650  0.9267
37929SOL    HW219624   9.909   7.392   4.491 -0.2431  0.8023 -0.3443
37930SOL     OW19625   4.381   1.243   5.390  0.2826 -0.3320 -0.0129
37930SOL    HW119626   4.419   1.255   5.303  0.3587  0.9336  0.1840
37930SOL    HW219627   4.378   1.330   5.427 -2.7029 -0.3643  0.0491
37931SOL     OW19628  10.826   4.015   2.517  0.6851  0.0521  0.1373
37931SOL    HW119629  10.885   3.940   2.514 -0.5093 -1.1463  3.0463
37931SOL    HW219630  10.769   4.002   2.440  1.7365 -0.9040 -0.5227
37932SOL     OW19631   0.848   9.798   2.510  0.5094 -0.1911  0.4963
37932SOL    HW119632   0.781   9.858   2.543 -1.3691 -1.8728 -0.0825
37932SOL    HW219633   0.836   9.718   2.561  0.7652 -1.1824 -0.9472
37933SOL     OW19634   5.380   5.278   9.234  0.0522  0.8256  0.5225
37933SOL    HW119635   5.460   5.300   9.188 -0.3343  0.4532 -0.3511
37933SOL    HW219636   5.321   5.351   9.216  0.3517  1.3529  1.5937
37934SOL     OW19637   9.213   0.116  10.614 -0.3992  0.0391 -0.5381
37934SOL    HW119638   9.294   0.121  10.664 -1.1161 -0.4184  0.7064
37934SOL    HW219639   9.172   0.035  10.644 -1.4529  0.4120 -0.9397
37935SOL     OW19640   8.577   8.522   6.802  0.0502  0.5474 -0.5700
37935SOL    HW119641   8.489   8.502   6.770  0.6181 -1.5014 -1.0072
37935SOL    HW219642   8.632   8.522   6.723  0.7929 -0.5495 -0.0907
37936SOL     OW19643   2.876   3.012   4.922  0.7083 -0.1588  0.1482
37936SOL    HW119644   2.821   3.090   4.930 -1.1576 -1.3287 -0.7159
37936SOL    HW219645   2.909   3.015   4.832  0.0020 -0.7518 -0.1357
37937SOL     OW19646   5.533   4.047   9.973  0.7771 -0.3130 -0.0918
37937SOL    HW119647   5.582   4.043  10.055  1.5578  0.3653 -0.5094
37937SOL    HW219648   5.538   4.139   9.946  1.0990 -0.6376 -1.2268
37938SOL     OW19649   5.449   6.162   2.800  0.1358  0.0815  0.1869
37938SOL    HW119650   5.423   6.101   2.869  1.9875 -0.1001  0.7881
37938SOL    HW219651   5.417   6.247   2.831  1.8408  0.1949  1.9101
37939SOL     OW19652  10.283   1.818   0.129  0.4035  0.2979 -0.0120
37939SOL    HW119653  10.231   1.864   0.195  2.5314  0.8303  1.3962
37939SOL    HW219654  10.228   1.820   0.050 -1.5050  1.1682  1.2522
37940SOL     OW19655   2.480   5.670   6.943 -0.4630 -0.2135 -0.3942
37940SOL    HW119656   2.540   5.744   6.954  1.6434 -1.7620 -0.8801
37940SOL    HW219657   2.437   5.661   7.029  0.5625  0.4891  0.2108
37941SOL     OW19658   4.596   9.798   2.767  0.0227 -0.3258  0.1902
37941SOL    HW119659   4.605   9.706   2.744 -0.6947 -0.4370  0.3202
37941SOL    HW219660   4.527   9.830   2.708  0.5611  0.2338 -0.1452
37942SOL     OW19661   8.831   5.775   4.030  0.3914  0.6500 -0.7264
37942SOL    HW119662   8.898   5.828   4.072  0.6105  1.3086 -1.8789
37942SOL    HW219663   8.877   5.730   3.959 -0.1395  0.1558 -0.7670
37943SOL     OW19664   5.647   8.216   5.063 -0.1227  0.2984  0.0241
37943SOL    HW119665   5.574   8.154   5.058  0.6381 -0.6100 -0.1620
37943SOL    HW219666   5.703   8.183   5.134  0.1741  0.9097  0.0853
37944SOL     OW19667   9.437   8.730   4.925  0.2053 -0.5853 -0.1836
37944SOL    HW119668   9.434   8.724   4.829  1.2169 -1.2208 -0.1989
37944SOL    HW219669   9.353   8.697   4.954  0.5830 -2.1745 -0.8055
37945SOL     OW19670   4.145  10.211   7.311  0.2588 -0.2716  0.5984
37945SOL    HW119671   4.058  10.176   7.289  0.5097 -0.2643 -0.4618
37945SOL    HW219672   4.140  10.230   7.405 -0.5883 -1.1278  0.7456
37946SOL     OW19673   3.052   9.905   8.550  0.0821  0.1374 -0.2610
37946SOL    HW119674   3.063   9.877   8.640  2.2828 -1.0870 -0.8566
37946SOL    HW219675   2.977   9.854   8.518  0.5674 -0.9402  0.2878
37947SOL     OW19676   1.321   7.452   9.814 -0.2549 -0.0799 -0.5983
37947SOL    HW119677   1.415   7.430   9.813 -0.1362  0.3890 -1.8979
37947SOL    HW219678   1.308   7.504   9.735 -1.0846  2.1733  0.9238
37948SOL     OW19679   4.869   8.836   4.589  0.0621 -0.0662 -0.1107
37948SOL    HW119680   4.779   8.805   4.583  0.4707 -1.3908  0.3584
37948SOL    HW219681   4.891   8.863   4.500 -0.2800 -1.2494 -0.5720
37949SOL     OW19682   1.618   9.059   0.317 -0.2448 -0.3985  0.7478
37949SOL    HW119683   1.533   9.015   0.319  0.8020 -2.6776 -0.7728
37949SOL    HW219684   1.610   9.123   0.247 -0.5087 -1.1263  0.0928
37950SOL     OW19685   4.189   5.785   4.519  0.4331 -0.2820  1.0470
37950SOL    HW119686   4.197   5.697   4.482 -1.4612 -0.2912  0.5616
37950SOL    HW219687   4.113   5.780   4.577 -1.6345  1.7058 -1.2504
37951SOL     OW19688   2.818   4.361   1.815  0.1391  0.6121 -0.3655
37951SOL    HW119689   2.820   4.277   1.770 -0.4648  0.5324 -0.2610
37951SOL    HW219690   2.729   4.367   1.849  0.5676  0.6722  0.8016
37952SOL     OW19691   4.707   0.639   9.063  0.3782  0.4417 -0.2931
37952SOL    HW119692   4.722   0.610   8.972 -0.7274 -2.9863  0.4487
37952SOL    HW219693   4.771   0.589   9.114 -2.1119 -1.4265  1.1936
37953SOL     OW19694   4.488  10.028   8.126  0.0677  0.0613 -0.0382
37953SOL    HW119695   4.482  10.060   8.036  1.5640  0.6633  0.0453
37953SOL    HW219696   4.553  10.084   8.167 -1.1662  0.2987  1.6714
37954SOL     OW19697   1.147  10.633   0.412 -0.5025 -0.8498  0.2705
37954SOL    HW119698   1.099  10.568   0.464  0.8220 -0.9377  1.4280
37954SOL    HW219699   1.166  10.704   0.474 -1.8950  0.6822 -0.9526
37955SOL     OW19700   9.825   9.307   6.617 -0.2984 -0.6015 -0.3862
37955SOL    HW119701   9.797   9.348   6.699  0.8449 -1.3681  0.4188
37955SOL    HW219702   9.911   9.345   6.599 -1.0487  0.4767 -1.9234
37956SOL     OW19703   3.755   3.893   8.707  0.2307  0.1474  0.4680
37956SOL    HW119704   3.667   3.900   8.670  0.0798  3.5400  1.0664
37956SOL    HW219705   3.813   3.883   8.631 -0.6028 -2.2501  0.0823
37957SOL     OW19706   4.235   3.372   1.765  0.3551  0.2110 -0.4206
37957SOL    HW119707   4.180   3.334   1.834  0.1130 -1.7798 -1.6062
37957SOL    HW219708   4.176   3.381   1.690  1.0113  0.7004 -0.8877
37958SOL     OW19709   8.820   8.084   7.789  0.6653  0.5624  0.4000
37958SOL    HW119710   8.737   8.108   7.830  1.0978  0.7276  1.2013
37958SOL    HW219711   8.855   8.166   7.756  0.7317  0.5675  0.4815
37959SOL     OW19712   2.839  10.732  10.438 -0.2418  0.6003 -0.2353
37959SOL    HW119713   2.888  10.793  10.383 -0.3066  0.6048 -0.2868
37959SOL    HW219714   2.896  10.717  10.513 -0.7826  1.7424  0.4280
37960SOL     OW19715   4.712   0.886   0.803  0.1036 -0.1904  0.2184
37960SOL    HW119716   4.640   0.913   0.745  0.0030  0.3926  0.6091
37960SOL    HW219717   4.747   0.807   0.761  0.1301  0.3045 -0.7269
37961SOL     OW19718   8.383   9.860   9.217 -0.3827 -0.2641  0.8902
37961SOL    HW119719   8.476   9.843   9.199 -0.5069 -2.0326  1.6939
37961SOL    HW219720   8.374   9.849   9.312 -1.6692 -1.6682  0.6500
37962SOL     OW19721   7.034   3.386   9.378 -0.2914  0.1876 -0.2309
37962SOL    HW119722   6.950   3.387   9.424 -0.6134  0.2759 -0.8103
37962SOL    HW219723   7.013   3.415   9.290  0.0778 -1.2221 -0.8179
37963SOL     OW19724   2.949   2.083   4.427  0.2846 -0.6932  0.3667
37963SOL    HW119725   2.911   2.130   4.501  0.6345  0.7717 -0.3501
37963SOL    HW219726   2.916   2.130   4.350  0.8517 -1.4775 -0.3714
37964SOL     OW19727   3.635   3.755   2.492 -0.5718 -0.3635  0.2537
37964SOL    HW119728   3.543   3.768   2.514 -0.7046 -1.1365  0.1667
37964SOL    HW219729   3.652   3.820   2.423 -0.7832  0.4407  0.9409
37965SOL     OW19730   8.390  10.267   6.619  0.0100 -0.1016 -0.1750
37965SOL    HW119731   8.367  10.209   6.691  0.0301  1.6346  1.2977
37965SOL    HW219732   8.331  10.242   6.548  0.3114 -2.1578  0.2532
37966SOL     OW19733   3.902   4.680   4.073  0.0562 -0.6654  0.5724
37966SOL    HW119734   3.838   4.747   4.096 -0.7307 -0.7389 -1.2392
37966SOL    HW219735   3.949   4.716   3.998  1.4128 -1.0732  1.2074
37967SOL     OW19736   4.899   0.679  10.464 -0.3127  0.1727  0.0328
37967SOL    HW119737   4.976   0.634  10.428 -0.2642 -0.5275  0.9662
37967SOL    HW219738   4.911   0.771  10.439  1.1401  0.1777  0.6665
37968SOL     OW19739   2.488   4.695  10.168  0.0087 -0.4396 -0.4896
37968SOL    HW119740   2.447   4.780  10.155  2.0689  0.3588 -2.6046
37968SOL    HW219741   2.576   4.716  10.199  0.1341 -1.8859  0.2175
37969SOL     OW19742   6.405   0.923   7.853  0.0269  0.0428  0.0784
37969SOL    HW119743   6.409   0.950   7.761  1.2535  2.2661  0.7154
37969SOL    HW219744   6.342   0.982   7.893 -0.4850 -0.8954  0.6981
37970SOL     OW19745   7.136  10.695   0.701 -0.0422  0.3074 -0.1930
37970SOL    HW119746   7.047  10.662   0.712 -1.6200  3.6615 -1.4421
37970SOL    HW219747   7.127  10.790   0.702  3.4508  0.8069 -1.0991
37971SOL     OW19748   6.569   1.760   3.157 -0.1133 -0.1351 -0.1792
37971SOL    HW119749   6.627   1.781   3.230  0.2179 -1.7921  0.0671
37971SOL    HW219750   6.488   1.731   3.198  0.7272 -2.9697 -0.3427
37972SOL     OW19751   4.385  10.753   2.257  0.2405  0.1942  1.1134
37972SOL    HW119752   4.468  10.716   2.226 -0.5257 -0.2100 -0.5484
37972SOL    HW219753   4.391  10.746   2.352  1.7832 -0.5486  1.0055
37973SOL     OW19754   1.553   8.238   2.420  0.1162  0.3292  0.2303
37973SOL    HW119755   1.501   8.186   2.359 -0.2727 -0.2462  1.0419
37973SOL    HW219756   1.542   8.328   2.390  0.2490  0.0167 -0.7772
37974SOL     OW19757   3.451   7.707   1.950 -0.4467 -0.2971  0.5416
37974SOL    HW119758   3.431   7.613   1.957  1.5706 -0.6725  1.7543
37974SOL    HW219759   3.534   7.710   1.902 -0.0207  0.8142  1.3265
37975SOL     OW19760  10.009   7.006   1.304  0.1709  0.0051 -0.2968
37975SOL    HW119761   9.990   6.939   1.238  0.4281  0.6955 -1.0796
37975SOL    HW219762  10.024   6.956   1.385 -1.2482 -0.7760 -0.4898
37976SOL     OW19763   3.776   5.778  10.416 -0.0175 -0.7375 -0.2181
37976SOL    HW119764   3.798   5.736  10.332  1.6777  0.4225 -0.4229
37976SOL    HW219765   3.836   5.853  10.420 -0.7532 -0.2156  1.5959
37977SOL     OW19766   4.010   5.400   5.268 -0.6126  0.0783  0.0221
37977SOL    HW119767   3.973   5.462   5.330 -0.0202 -0.7517  1.2408
37977SOL    HW219768   3.978   5.429   5.182 -0.6741  1.7992  0.6070
37978SOL     OW19769   0.396   8.637   7.710  0.2067  0.2210  0.1575
37978SOL    HW119770   0.392   8.613   7.617  1.2253 -0.0399  0.1623
37978SOL    HW219771   0.326   8.701   7.721  0.3209  0.5490 -0.8800
37979SOL     OW19772  10.663   2.815   3.844 -0.5721  0.1303  0.5503
37979SOL    HW119773  10.569   2.805   3.835 -0.8356 -0.2703  2.9942
37979SOL    HW219774  10.698   2.727   3.836 -0.1567  0.4705 -2.0640
37980SOL     OW19775   3.896  10.506   4.014  0.6178 -0.0459  0.1191
37980SOL    HW119776   3.811  10.471   3.988  0.6206 -0.1927  0.3028
37980SOL    HW219777   3.955  10.430   4.011  0.2456 -0.4841  2.2760
37981SOL     OW19778  10.227   8.603   3.807 -0.0626 -0.0285  0.3489
37981SOL    HW119779  10.288   8.557   3.748  0.1676  0.4059  0.2452
37981SOL    HW219780  10.282   8.665   3.855 -0.6114  1.3160 -0.6911
37982SOL     OW19781  10.567   4.508  10.856  0.7647 -0.9691  0.1858
37982SOL    HW119782  10.539   4.585  10.807 -0.6513 -0.1158  2.1512
37982SOL    HW219783  10.640   4.472  10.806 -1.6754 -1.3164 -3.5110
37983SOL     OW19784   7.422   7.008   9.515  0.8344  0.3670 -0.8320
37983SOL    HW119785   7.408   6.985   9.423  0.8910  1.6316 -1.1642
37983SOL    HW219786   7.445   7.100   9.514  4.5924 -0.3957  0.1004
37984SOL     OW19787   2.103   4.832   9.852  0.1599 -0.0009  0.5060
37984SOL    HW119788   2.166   4.902   9.868 -0.0106  0.2370  0.1465
37984SOL    HW219789   2.019   4.876   9.842 -0.2417 -0.3950  1.9678
37985SOL     OW19790  10.609   7.155   9.770  0.5420 -0.1640  0.1712
37985SOL    HW119791  10.628   7.245   9.744 -0.5638  0.7567  2.3199
37985SOL    HW219792  10.587   7.111   9.688  0.3032  1.7229 -0.8420
37986SOL     OW19793   4.916  10.626   7.375 -0.6484  0.7204  0.1289
37986SOL    HW119794   4.895  10.572   7.299  0.5436 -0.0319  0.3034
37986SOL    HW219795   4.899  10.716   7.347 -1.3129  0.3690 -0.6337
37987SOL     OW19796   7.656   9.407   2.341  0.1340  0.0548  0.4339
37987SOL    HW119797   7.746   9.415   2.371 -0.0766  2.0909  0.7109
37987SOL    HW219798   7.604   9.409   2.422 -0.2635  2.2653  0.2123
37988SOL     OW19799   0.446   3.309   9.223 -0.1887 -0.1211  0.0730
37988SOL    HW119800   0.425   3.247   9.292 -0.3689 -1.1345 -0.8708
37988SOL    HW219801   0.370   3.306   9.165  0.7224 -0.6424 -1.1194
37989SOL     OW19802   0.347   7.991   4.675 -0.3670 -0.0448 -0.0874
37989SOL    HW119803   0.421   8.025   4.725 -0.8732 -0.3587  0.9161
37989SOL    HW219804   0.331   8.056   4.607 -0.0306  0.7011  0.5322
37990SOL     OW19805   8.422   8.469   4.066 -0.7257  0.2788  0.5189
37990SOL    HW119806   8.442   8.438   4.154  0.3612  1.0268  0.5476
37990SOL    HW219807   8.458   8.402   4.008 -1.5816 -0.2943  0.6183
37991SOL     OW19808   3.230   8.608   6.073  0.1222 -0.1257 -0.1020
37991SOL    HW119809   3.255   8.606   5.980 -1.8876 -1.5404 -0.6609
37991SOL    HW219810   3.165   8.678   6.079  0.1396 -0.1355  0.2227
37992SOL     OW19811   3.413   5.738   7.324  0.2762  0.5167  0.1563
37992SOL    HW119812   3.371   5.822   7.341  0.1174  0.5845 -0.5721
37992SOL    HW219813   3.472   5.755   7.251 -0.5005 -0.2429 -0.6644
37993SOL     OW19814   9.121   9.079   1.522 -0.4312 -0.1571  0.5164
37993SOL    HW119815   9.195   9.115   1.473 -0.6838  0.3239  0.4889
37993SOL    HW219816   9.089   9.152   1.575  0.0490 -0.7334  1.6641
37994SOL     OW19817   2.563   7.533   7.699 -0.6688  0.2268  0.2180
37994SOL    HW119818   2.618   7.588   7.643 -3.1998  0.9234 -1.8016
37994SOL    HW219819   2.575   7.444   7.664  0.4832  0.0693  0.9664
37995SOL     OW19820   3.631   1.880   1.768  0.6375 -0.2075 -0.1691
37995SOL    HW119821   3.595   1.807   1.819 -0.7602  0.3518 -0.3192
37995SOL    HW219822   3.568   1.952   1.781 -0.0292 -0.1685 -2.9811
37996SOL     OW19823   7.860   2.587   7.941  0.2301  0.1801 -0.0477
37996SOL    HW119824   7.826   2.676   7.937  1.4707  0.8150  1.9324
37996SOL    HW219825   7.946   2.596   7.983 -1.1265 -2.2945  3.6853
37997SOL     OW19826   6.156  10.579   6.691 -0.1645  0.0758  0.2303
37997SOL    HW119827   6.239  10.562   6.736 -0.0790  1.2429  0.5519
37997SOL    HW219828   6.133  10.495   6.651  1.5006 -0.1267 -0.4033
37998SOL     OW19829  10.020   3.442   5.476 -0.4874  0.0242 -0.3021
37998SOL    HW119830  10.024   3.352   5.442  0.6861  0.1605 -0.5630
37998SOL    HW219831  10.001   3.496   5.400  0.6528  0.1741 -0.4989
37999SOL     OW19832   3.469   5.076   7.289 -0.0119 -0.2449 -0.1644
37999SOL    HW119833   3.412   5.075   7.213  0.8083 -0.9430 -0.7920
37999SOL    HW219834   3.411   5.096   7.363 -0.6312  1.4850 -1.0884
38000SOL     OW19835   4.017  10.399   4.913 -0.0426  0.0495  0.3080
38000SOL    HW119836   4.089  10.429   4.970  0.4433  2.3296 -1.3447
38000SOL    HW219837   4.036  10.306   4.898  1.1647 -0.0126  1.8649
38001SOL     OW19838   4.759   3.838   4.371 -0.2019 -0.4215 -0.2984
38001SOL    HW119839   4.778   3.768   4.308 -1.2778  0.0154 -1.1314
38001SOL    HW219840   4.843   3.884   4.382  0.6513 -2.1015  0.6456
38002SOL     OW19841   9.657   0.002   5.906 -0.2513  0.3762 -0.4428
38002SOL    HW119842   9.736   0.024   5.954 -1.6504 -0.3854  2.4140
38002SOL    HW219843   9.599   0.077   5.921 -1.0250 -0.2685 -0.1754
38003SOL     OW19844   9.432   6.115  10.596 -0.1948 -0.5574  0.2168
38003SOL    HW119845   9.511   6.070  10.567  0.6768  0.1229  1.4645
38003SOL    HW219846   9.429   6.100  10.691 -1.7886 -0.9097  0.1402
38004SOL     OW19847   8.316   1.635   7.121 -0.3795  0.1472  0.3929
38004SOL    HW119848   8.282   1.562   7.068  1.1337  0.0106 -0.4345
38004SOL    HW219849   8.368   1.686   7.060 -2.1875  2.5374  0.7092
38005SOL     OW19850  10.192   6.581   1.058 -0.5557  0.3333 -0.1731
38005SOL    HW119851  10.286   6.585   1.073 -0.5358  0.9773 -0.4306
38005SOL    HW219852  10.160   6.516   1.121 -0.4735  2.7543  2.5561
38006SOL     OW19853   4.716  10.024  10.656  0.2923 -0.4155 -0.5387
38006SOL    HW119854   4.716  10.120  10.653 -1.5466 -0.3290  0.3364
38006SOL    HW219855   4.693  10.003  10.747  1.5306 -1.7168 -0.4945
38007SOL     OW19856  10.793   7.144   8.749 -0.4071 -0.5370  0.2095
38007SOL    HW119857  10.853   7.211   8.716  0.0060  0.0340  1.9900
38007SOL    HW219858  10.768   7.175   8.836 -2.7247 -1.1449 -0.1689
38008SOL     OW19859   4.310   8.931   2.973 -0.0705  0.0965  0.0624
38008SOL    HW119860   4.296   8.837   2.972 -0.7899  0.1741 -2.2271
38008SOL    HW219861   4.240   8.965   3.029 -0.5253 -0.6307 -0.0534
38009SOL     OW19862   4.821   9.902   8.795 -0.1850 -0.5073  0.2940
38009SOL    HW119863   4.914   9.879   8.797 -0.2327 -0.6945  0.3671
38009SOL    HW219864   4.803   9.926   8.704  0.5095  1.8904  0.7098
38010SOL     OW19865  10.347   4.951   2.106 -0.1675 -0.8657 -0.0231
38010SOL    HW119866  10.363   4.859   2.129 -1.0467 -0.3914  2.9255
38010SOL    HW219867  10.415   5.000   2.152 -2.2045  0.1870  2.0770
38011SOL     OW19868   1.430  10.493   0.374 -0.0986 -0.3370 -0.3691
38011SOL    HW119869   1.441  10.578   0.331 -0.7005  0.1669  0.4365
38011SOL    HW219870   1.360  10.451   0.326 -1.3444  0.5684  0.5863
38012SOL     OW19871   4.767  10.110   6.800  0.4782 -0.6055  0.3128
38012SOL    HW119872   4.731  10.056   6.730 -1.0262 -1.8525  1.9605
38012SOL    HW219873   4.740  10.199   6.778 -0.0587 -0.9824 -0.6144
38013SOL     OW19874   1.705   5.623   3.347 -0.1319  1.2780 -0.1626
38013SOL    HW119875   1.764   5.623   3.272 -0.8663  2.2251 -0.7645
38013SOL    HW219876   1.666   5.535   3.347  0.6945  0.9077 -0.2180
38014SOL     OW19877   2.002   3.667  10.847 -0.0135 -0.2611  0.7560
38014SOL    HW119878   2.017   3.687  10.755 -0.1029  2.0158  1.1852
38014SOL    HW219879   2.046   3.737  10.895 -2.8273  0.6092  2.3255
38015SOL     OW19880  10.814   1.624   0.491 -0.1126 -0.5578 -0.1303
38015SOL    HW119881  10.741   1.574   0.527 -0.8033 -0.1654 -0.9234
38015SOL    HW219882  10.772   1.684   0.429  0.8415  0.0165 -0.2322
38016SOL     OW19883   3.607   3.838   3.635  0.6995 -0.0746 -0.4277
38016SOL    HW119884   3.682   3.873   3.588  1.2486 -0.3980  0.1909
38016SOL    HW219885   3.536   3.899   3.615  1.0355  0.0495 -1.2860
38017SOL     OW19886   8.023   3.024   6.170  0.2455  0.1449 -0.1552
38017SOL    HW119887   8.025   2.931   6.192  0.8453  0.0273 -0.6954
38017SOL    HW219888   7.969   3.028   6.091 -0.4179  0.3539  0.3003
38018SOL     OW19889   5.575  10.881   4.706  0.3486 -0.7360 -1.0748
38018SOL    HW119890   5.494  10.831   4.720  0.1288 -0.2707 -0.6462
38018SOL    HW219891   5.572  10.906   4.614 -0.2244 -0.3411 -0.9580
38019SOL     OW19892   4.377   4.405   1.336  0.4291 -0.5640 -0.7059
38019SOL    HW119893   4.315   4.400   1.409  3.8234  0.3315  2.5496
38019SOL    HW219894   4.386   4.499   1.320  1.3502 -0.6551 -0.7287
38020SOL     OW19895   6.589   3.099   8.291  0.0178 -0.1984  0.7584
38020SOL    HW119896   6.663   3.113   8.350 -0.8046  1.5944  1.4541
38020SOL    HW219897   6.554   3.187   8.277 -1.7433 -0.9617  0.1470
38021SOL     OW19898   5.852   7.329   7.917 -0.3066 -0.6353  0.4095
38021SOL    HW119899   5.838   7.292   7.830  1.4445 -0.6385  0.0851
38021SOL    HW219900   5.771   7.311   7.965 -0.4729 -2.6048 -0.5367
38022SOL     OW19901   0.760   9.287   6.816  0.2362  0.0124  0.9151
38022SOL    HW119902   0.737   9.331   6.897  0.5446  0.7459  0.6084
38022SOL    HW219903   0.855   9.283   6.815  0.2259 -0.3087  0.7500
38023SOL     OW19904   2.264   1.123   7.348  0.7904 -0.7339 -0.2562
38023SOL    HW119905   2.269   1.098   7.440 -1.1036  0.1234  0.1154
38023SOL    HW219906   2.314   1.055   7.302 -0.7399 -2.9036  1.1000
38024SOL     OW19907   1.947   8.731   2.654 -0.6846 -0.4548  0.4515
38024SOL    HW119908   1.997   8.757   2.731 -0.6033  0.6856  0.0248
38024SOL    HW219909   1.922   8.640   2.672  2.5086 -1.5365  0.1887
38025SOL     OW19910   3.661   5.775   5.880 -0.1569  0.2981 -0.1022
38025SOL    HW119911   3.727   5.822   5.830  0.9692 -1.4024 -0.2895
38025SOL    HW219912   3.584   5.833   5.878  0.9182  1.7802 -0.8914
38026SOL     OW19913   4.586   6.810   6.778 -0.2789 -1.1063 -0.1647
38026SOL    HW119914   4.561   6.903   6.780 -1.0926 -1.2111 -2.3823
38026SOL    HW219915   4.651   6.801   6.847  1.8353  1.7286 -1.5506
38027SOL     OW19916   0.261   5.492   0.135 -0.0016  0.1199 -0.6435
38027SOL    HW119917   0.342   5.454   0.100  0.1477  0.8588 -1.1246
38027SOL    HW219918   0.265   5.473   0.229  2.2439  2.7142 -0.0835
38028SOL     OW19919   1.777   0.755   4.437  0.2713 -0.3043  0.0037
38028SOL    HW119920   1.792   0.833   4.384 -1.5921  0.0746 -0.0514
38028SOL    HW219921   1.795   0.682   4.378 -0.0217  0.1119 -0.6109
38029SOL     OW19922   6.375   6.645   4.814  0.1116 -0.1869 -1.0133
38029SOL    HW119923   6.422   6.728   4.823  1.1166 -0.6078 -2.0712
38029SOL    HW219924   6.418   6.586   4.876 -1.2408  0.3018  0.4652
38030SOL     OW19925   3.319   6.612   3.595 -0.1703  0.6364  0.1205
38030SOL    HW119926   3.335   6.530   3.548  0.3507  0.2964  0.8883
38030SOL    HW219927   3.251   6.590   3.658 -0.1683  0.8483  0.1956
38031SOL     OW19928   3.016   1.066   2.163  0.0602  0.3121 -0.0258
38031SOL    HW119929   2.998   0.973   2.172  1.8680  0.0509  1.7835
38031SOL    HW219930   3.107   1.070   2.134  0.2558  1.4877  0.6719
38032SOL     OW19931   0.103   2.632   2.555  0.0497  0.0478 -0.2708
38032SOL    HW119932   0.101   2.696   2.626  1.1758 -1.2232  0.9693
38032SOL    HW219933   0.141   2.679   2.481 -0.6163  1.2442  0.1201
38033SOL     OW19934   2.317   2.591   5.535 -0.6587  0.1386 -0.2861
38033SOL    HW119935   2.363   2.675   5.541 -0.0194 -0.1912 -0.4488
38033SOL    HW219936   2.225   2.614   5.537 -0.4949  0.7701  0.7973
38034SOL     OW19937   0.794   6.392   3.029  0.6624  0.1846  0.1928
38034SOL    HW119938   0.820   6.420   3.117 -1.8060  1.1149  0.6845
38034SOL    HW219939   0.771   6.473   2.984 -1.4386 -0.5340 -0.1296
38035SOL     OW19940   7.057   8.417   4.334 -0.3525 -0.1707  0.1443
38035SOL    HW119941   7.104   8.356   4.277 -1.0089 -0.3217 -0.2403
38035SOL    HW219942   7.126   8.472   4.372  0.0345  0.5390 -1.5026
38036SOL     OW19943   7.772   8.197   8.429 -0.0716 -0.2641  0.2155
38036SOL    HW119944   7.836   8.140   8.385  1.0558  1.4744 -0.4913
38036SOL    HW219945   7.689   8.177   8.387  0.0913 -2.0851  0.6801
38037SOL     OW19946   5.692   9.783   0.272  0.2594 -0.1484  0.2186
38037SOL    HW119947   5.683   9.823   0.358 -0.9688  1.0936 -0.4446
38037SOL    HW219948   5.699   9.857   0.212  1.3367 -0.9947 -0.7420
38038SOL     OW19949   5.557   5.173   9.454 -0.0461  0.0671 -0.1394
38038SOL    HW119950   5.513   5.188   9.370  0.1262  0.3297 -0.1846
38038SOL    HW219951   5.555   5.078   9.466 -0.0180  0.0259 -0.4692
38039SOL     OW19952   8.309   4.333   3.173  0.0849 -0.2145 -0.1369
38039SOL    HW119953   8.333   4.378   3.092 -1.1636  3.0002  1.1357
38039SOL    HW219954   8.250   4.264   3.145  0.2911  0.3088 -2.0318
38040SOL     OW19955   8.045   3.472  10.451  0.6192 -0.1759  0.2995
38040SOL    HW119956   7.998   3.455  10.369 -2.9595  2.8400  1.4690
38040SOL    HW219957   7.984   3.443  10.520  0.9176  2.6872  1.9004
38041SOL     OW19958   8.392   3.504   7.178 -0.2201  0.0772  0.5991
38041SOL    HW119959   8.488   3.507   7.184 -0.0743  0.3569 -1.2715
38041SOL    HW219960   8.374   3.414   7.148 -0.1902  1.0664 -2.8321
38042SOL     OW19961  10.573   0.615   0.762  0.0489 -0.4388 -0.7664
38042SOL    HW119962  10.658   0.640   0.725  0.1271 -0.2147 -0.4339
38042SOL    HW219963  10.528   0.697   0.779  0.0045 -0.5403 -0.3805
38043SOL     OW19964   0.881   0.638   8.995 -0.4634 -0.2055 -0.3776
38043SOL    HW119965   0.875   0.595   9.080  1.9485 -0.8554 -0.4598
38043SOL    HW219966   0.930   0.719   9.013 -2.3752  1.0938 -0.7264
38044SOL     OW19967   2.206   2.323   8.302 -0.1762  0.1801 -0.0699
38044SOL    HW119968   2.158   2.338   8.383 -1.3236 -0.1195 -0.6639
38044SOL    HW219969   2.138   2.299   8.238  0.8745 -1.3559 -0.6838
38045SOL     OW19970   2.668   4.038   6.826  0.2960 -0.0280 -0.2944
38045SOL    HW119971   2.609   4.046   6.751 -1.2474 -1.4238  0.7082
38045SOL    HW219972   2.637   4.105   6.887  0.2266 -0.2623 -0.0728
38046SOL     OW19973   0.341   4.178   0.918  0.1218  0.4386 -0.1786
38046SOL    HW119974   0.319   4.090   0.888  1.5033  0.0360 -0.0949
38046SOL    HW219975   0.408   4.164   0.985  0.2537  1.5524 -0.0543
38047SOL     OW19976   4.374  10.528   9.155 -0.1905  0.4648 -0.1845
38047SOL    HW119977   4.386  10.614   9.195  1.3448 -0.9931  2.8821
38047SOL    HW219978   4.446  10.521   9.092  1.6775  0.3321  1.8393
38048SOL     OW19979   9.143   0.472   6.820 -0.1872 -0.8938 -0.0945
38048SOL    HW119980   9.178   0.475   6.731 -1.3480 -0.7334 -0.5709
38048SOL    HW219981   9.167   0.557   6.858  0.9110 -1.2340 -0.0004
38049SOL     OW19982   7.730   0.943  10.501 -0.0581 -0.3687 -0.1140
38049SOL    HW119983   7.762   0.926  10.589 -0.2232 -0.6147 -0.0993
38049SOL    HW219984   7.776   0.880  10.446  1.1070  0.7154 -0.4266
38050SOL     OW19985   5.580   8.583   9.266  0.0497  0.4778  0.3064
38050SOL    HW119986   5.575   8.600   9.360 -1.7766 -0.9880  0.5504
38050SOL    HW219987   5.489   8.592   9.236  0.6674  1.2854 -1.3961
38051SOL     OW19988   9.461   6.247   7.669  0.1522  0.1450 -0.0975
38051SOL    HW119989   9.498   6.163   7.697 -2.2199 -0.5068  1.4175
38051SOL    HW219990   9.400   6.224   7.599  1.4158  0.9807 -1.5097
38052SOL     OW19991   7.433   4.069   5.906  0.3503  0.4859 -1.0711
38052SOL    HW119992   7.431   4.165   5.903 -0.1113  0.4684 -1.5830
38052SOL    HW219993   7.458   4.048   5.996 -1.4284  1.0796 -0.3972
38053SOL     OW19994   5.906   3.533  10.362  0.2306 -0.4792  0.2472
38053SOL    HW119995   5.842   3.543  10.291  0.5207  0.4169  0.1022
38053SOL    HW219996   5.963   3.462  10.333 -1.0631 -1.7234  0.6653
38054SOL     OW19997   8.385   7.825   4.894  0.1889  0.0344  0.0541
38054SOL    HW119998   8.448   7.792   4.959  0.4186  0.6662  0.1574
38054SOL    HW219999   8.299   7.805   4.931  0.2564  2.0759  1.4924
38055SOL     OW20000   6.799   6.838   7.651  0.1877  0.0849 -0.4384
38055SOL    HW120001   6.813   6.827   7.745 -0.0389  1.8986 -0.1496
38055SOL    HW220002   6.745   6.762   7.626 -1.9517  0.8484  1.4496
38056SOL     OW20003   4.171   4.254   5.527 -0.2144 -0.4276  0.1733
38056SOL    HW120004   4.222   4.175   5.507  0.0806 -0.6929  1.7963
38056SOL    HW220005   4.229   4.327   5.506 -0.2136 -0.6477 -0.6281
38057SOL     OW20006   7.718   5.945  10.396 -0.0194 -0.6174  0.5922
38057SOL    HW120007   7.643   5.997  10.367 -0.9963 -2.0175  0.4923
38057SOL    HW220008   7.758   5.997  10.466  0.1105  1.0480 -0.6736
38058SOL     OW20009   2.692   6.941  10.536 -0.2539  0.0427 -0.5523
38058SOL    HW120010   2.758   6.942  10.468  0.3716  0.2095  0.0476
38058SOL    HW220011   2.697   6.853  10.573 -0.4686  0.0096 -0.5996
38059SOL     OW20012   2.334   4.622   3.695 -0.4656  0.2770  0.2185
38059SOL    HW120013   2.238   4.620   3.699 -0.5226 -0.7484 -1.0990
38059SOL    HW220014   2.354   4.620   3.601  0.8486  1.7595  0.4258
38060SOL     OW20015  10.886   0.096   7.317 -0.0482  0.2296  0.4692
38060SOL    HW120016  10.814   0.036   7.298 -0.0454  0.4664 -0.3194
38060SOL    HW220017  10.962   0.040   7.329 -0.4601 -0.0622  1.8616
38061SOL     OW20018   3.557   3.653   5.355 -0.5053 -0.2308  0.5312
38061SOL    HW120019   3.520   3.585   5.411  1.6242 -0.1707  2.1112
38061SOL    HW220020   3.598   3.715   5.415 -1.9866  2.2943 -0.8727
38062SOL     OW20021   5.429   7.308   4.921 -0.0170  0.5898  0.3410
38062SOL    HW120022   5.487   7.234   4.941 -0.8141  0.0319  0.6428
38062SOL    HW220023   5.341   7.272   4.929 -0.4910  2.0507  2.4788
38063SOL     OW20024   2.061  10.700   9.846  0.4517  0.7135 -0.1640
38063SOL    HW120025   1.974  10.715   9.810  0.6552 -0.6520 -1.3241
38063SOL    HW220026   2.052  10.717   9.940 -1.5547 -1.2116  0.0596
38064SOL     OW20027   6.431   4.589   0.376 -0.3761  0.1167  0.0048
38064SOL    HW120028   6.398   4.499   0.374  0.5176 -0.2187 -1.9645
38064SOL    HW220029   6.522   4.582   0.348 -0.7242  1.7628 -1.8086
38065SOL     OW20030   4.068   3.169   0.007  0.2124  0.0879  0.1092
38065SOL    HW120031   4.108   3.167   0.094 -0.4554 -0.1101  0.4217
38065SOL    HW220032   4.039   3.078  -0.008 -0.9354  0.4062  0.2932
38066SOL     OW20033   6.052   4.976   3.623 -0.2557 -0.2648  0.0090
38066SOL    HW120034   6.001   4.985   3.704 -0.0732 -0.3232  0.1294
38066SOL    HW220035   6.107   5.054   3.620 -0.8201  0.1217 -0.4516
38067SOL     OW20036   7.573   6.539   3.300  0.4322  0.6096  0.2289
38067SOL    HW120037   7.599   6.613   3.354  2.0092  0.1163  0.1743
38067SOL    HW220038   7.598   6.564   3.211 -1.1223  0.9399 -0.1608
38068SOL     OW20039   4.316   1.724   7.847  0.3064  0.2414  0.2810
38068SOL    HW120040   4.412   1.727   7.843  0.3174  0.8791  0.7703
38068SOL    HW220041   4.289   1.702   7.758  0.9550 -1.6881  0.5047
38069SOL     OW20042   4.135   9.261   9.441  0.4144 -0.6058 -0.1269
38069SOL    HW120043   4.113   9.174   9.475 -1.6152 -0.0360  0.1607
38069SOL    HW220044   4.146   9.247   9.347  0.5672 -1.2359 -0.0243
38070SOL     OW20045   8.848   3.171   9.183 -0.0622 -0.4690  0.3453
38070SOL    HW120046   8.786   3.164   9.110 -0.8958 -0.3380  1.0383
38070SOL    HW220047   8.851   3.264   9.204  0.1781 -0.5072  0.4898
38071SOL     OW20048   0.292  10.562   1.636  0.3357  0.4818  0.7416
38071SOL    HW120049   0.388  10.564   1.631  0.3730 -0.4122  0.8930
38071SOL    HW220050   0.263  10.625   1.570  1.0095 -0.2281 -0.2652
38072SOL     OW20051   0.459   2.992   4.881  0.3434  0.5856  0.0414
38072SOL    HW120052   0.452   3.062   4.946 -0.6239 -0.7809  1.4640
38072SOL    HW220053   0.544   2.951   4.898  1.6501  2.2692 -1.7993
38073SOL     OW20054   3.430   5.077   9.777  0.0469  0.9465 -0.6471
38073SOL    HW120055   3.522   5.085   9.754  0.6641 -0.6155  1.0528
38073SOL    HW220056   3.428   5.086   9.873 -1.1757 -1.4782 -0.3516
38074SOL     OW20057   7.585   8.350   7.037 -0.0044 -0.0489 -0.1558
38074SOL    HW120058   7.661   8.295   7.020  0.6300  0.7489  0.0341
38074SOL    HW220059   7.532   8.299   7.098  0.4834 -0.5215 -0.1215
38075SOL     OW20060   5.712   7.765   9.593 -0.2231  0.1058  0.0520
38075SOL    HW120061   5.737   7.759   9.500  1.8031  1.9355  0.4069
38075SOL    HW220062   5.624   7.727   9.596 -2.0590  3.3371 -3.3633
38076SOL     OW20063  10.058   2.134   5.849 -0.4079  0.1984  0.3306
38076SOL    HW120064  10.130   2.195   5.836  1.2136 -1.8875 -1.3145
38076SOL    HW220065  10.030   2.148   5.940  2.1529  1.0127  1.0622
38077SOL     OW20066   6.146  10.464   9.333  1.1605 -0.0664 -0.4227
38077SOL    HW120067   6.072  10.515   9.299  1.6339 -0.2931 -1.8819
38077SOL    HW220068   6.158  10.496   9.423 -1.1512 -0.5613  0.1063
38078SOL     OW20069   7.541   1.591   4.155  0.1634  0.3058  0.3567
38078SOL    HW120070   7.457   1.561   4.190 -0.6139  1.0175 -0.8286
38078SOL    HW220071   7.540   1.564   4.064  0.9526  0.8575  0.1736
38079SOL     OW20072  10.660   6.163  10.823 -0.1526 -0.3140 -0.1995
38079SOL    HW120073  10.658   6.117  10.906  0.8667  0.8022  0.4794
38079SOL    HW220074  10.568   6.175  10.799 -0.4431 -1.0910  0.4995
38080SOL     OW20075   4.443   9.599   5.831  0.1951  0.2418  0.1251
38080SOL    HW120076   4.412   9.560   5.749  1.8146  0.9113 -0.8441
38080SOL    HW220077   4.436   9.528   5.895 -2.2748  0.0655 -0.2560
38081SOL     OW20078   6.913  10.039   3.209 -0.7020  0.0269 -0.0813
38081SOL    HW120079   6.883  10.079   3.128  0.7306  0.6272 -0.3445
38081SOL    HW220080   6.888   9.947   3.201 -1.2588  0.2343 -0.8505
38082SOL     OW20081   2.547  10.156   6.916  0.1800  0.3245 -0.1815
38082SOL    HW120082   2.482  10.202   6.863  0.9969  0.8344 -0.7612
38082SOL    HW220083   2.517  10.167   7.006 -0.5178  0.5696 -0.4374
38083SOL     OW20084   7.887   9.791   5.293  0.3807  0.0073  0.0191
38083SOL    HW120085   7.870   9.829   5.207 -0.2287  0.5538  0.3692
38083SOL    HW220086   7.923   9.705   5.275 -4.2325 -2.0063 -0.8635
38084SOL     OW20087   7.622   0.802   9.262 -0.0810 -0.3501  0.0540
38084SOL    HW120088   7.622   0.862   9.187  1.8245 -0.6537 -0.2348
38084SOL    HW220089   7.707   0.816   9.304 -0.0153 -2.1023  0.5769
38085SOL     OW20090   3.373   0.784   8.179 -0.1552  0.6508 -0.4473
38085SOL    HW120091   3.458   0.792   8.135  0.9558  1.5398  1.7043
38085SOL    HW220092   3.387   0.719   8.248 -0.6451  2.1153  1.1001
38086SOL     OW20093   0.152   0.957   6.955 -0.2455 -0.7390  0.3711
38086SOL    HW120094   0.091   1.031   6.948  1.2917  0.6566  1.0231
38086SOL    HW220095   0.116   0.892   6.895  0.1259  1.8476 -3.0068
38087SOL     OW20096   6.975  10.716   4.718 -0.1052  0.1911  0.5560
38087SOL    HW120097   6.920  10.643   4.747  0.6073 -0.6539 -0.1634
38087SOL    HW220098   6.938  10.744   4.635 -0.0959  0.3308  0.5986
38088SOL     OW20099   4.457   8.384   0.651 -0.0339  0.1879  0.3275
38088SOL    HW120100   4.448   8.390   0.746  0.2737  0.7333  0.3276
38088SOL    HW220101   4.390   8.322   0.624 -2.2338  2.3021  0.5659
38089SOL     OW20102   4.772   5.762   5.364  0.1147 -0.0647  0.0655
38089SOL    HW120103   4.834   5.721   5.424 -1.2336 -1.7157  0.3973
38089SOL    HW220104   4.691   5.772   5.415 -0.3731  0.6457 -0.8052
38090SOL     OW20105   1.256   4.639   4.294 -0.1427  0.2279  0.1449
38090SOL    HW120106   1.272   4.683   4.378 -0.2437 -0.5379  0.5781
38090SOL    HW220107   1.282   4.703   4.228 -0.5027  1.0229  0.7533
38091SOL     OW20108   2.854   2.518   2.077  0.1770 -0.3660 -0.8017
38091SOL    HW120109   2.905   2.502   1.997  0.6932 -0.7753 -0.3957
38091SOL    HW220110   2.815   2.433   2.097 -0.3509 -0.1492 -0.8807
38092SOL     OW20111   9.733   7.962   3.636  0.1854  0.1799  0.5115
38092SOL    HW120112   9.824   7.975   3.663 -0.5686  1.2385  2.8519
38092SOL    HW220113   9.711   7.875   3.667  0.4286 -0.1471 -0.2128
38093SOL     OW20114   3.320  10.038   8.978 -0.1913 -0.3046  0.5481
38093SOL    HW120115   3.360  10.125   8.980  0.1107 -0.4491  0.9431
38093SOL    HW220116   3.257  10.042   8.907 -0.3183  0.3012  0.6934
38094SOL     OW20117  10.926   1.458   2.292 -0.2022 -0.7468 -0.5480
38094SOL    HW120118  10.886   1.539   2.324  0.4771 -0.0005 -1.5377
38094SOL    HW220119  10.878   1.438   2.211 -1.1689 -2.0172  0.2804
38095SOL     OW20120   7.506   8.948   9.861 -0.3613  0.3518 -0.1224
38095SOL    HW120121   7.534   8.894   9.787  0.3165  2.2485 -1.3223
38095SOL    HW220122   7.447   9.013   9.823 -0.3116  1.1340  1.0626
38096SOL     OW20123   3.491   7.997  10.500  0.3484  0.2934 -0.1637
38096SOL    HW120124   3.578   7.957  10.506  0.1803 -0.1344 -0.4935
38096SOL    HW220125   3.479   8.041  10.584  0.2899 -0.8891  0.4712
38097SOL     OW20126   2.079   8.278   9.387  0.4204 -0.8886  0.1055
38097SOL    HW120127   2.174   8.280   9.388  0.4124 -0.4659  1.1649
38097SOL    HW220128   2.055   8.214   9.455 -0.0593 -0.1310  0.6618
38098SOL     OW20129   8.885   4.944   4.826 -0.0204 -0.4615  0.5229
38098SOL    HW120130   8.959   4.998   4.855 -0.6811 -0.0223  1.4096
38098SOL    HW220131   8.859   4.894   4.903 -3.2541  2.3785  1.4904
38099SOL     OW20132   5.801   1.363  10.589  0.1714 -0.1193  0.0445
38099SOL    HW120133   5.742   1.371  10.514 -1.1994 -0.9313  0.9916
38099SOL    HW220134   5.759   1.414  10.658  1.4910  0.7447  0.2437
38100SOL     OW20135   6.025   4.324  10.128 -0.1172 -0.1192 -0.1519
38100SOL    HW120136   6.094   4.262  10.153 -0.2783  0.0447  0.7264
38100SOL    HW220137   5.959   4.316  10.197  0.4512  1.9597  0.7101
38101SOL     OW20138   7.475   2.833  10.557 -0.4170  0.2210  0.0556
38101SOL    HW120139   7.383   2.844  10.536 -0.4314 -0.9631 -0.6113
38101SOL    HW220140   7.519   2.902  10.507 -0.9565  0.9476  0.5759
38102SOL     OW20141   9.002   5.133   8.594  0.2230  0.2602 -0.4530
38102SOL    HW120142   9.094   5.109   8.592  0.2004  0.1114  0.1464
38102SOL    HW220143   8.964   5.090   8.517  0.7379  0.7122 -0.9730
38103SOL     OW20144   3.237   4.527   9.085 -0.3277 -0.4089  0.4323
38103SOL    HW120145   3.208   4.560   9.169  0.6510 -0.9778  1.0142
38103SOL    HW220146   3.299   4.457   9.106 -0.8509 -1.2770 -0.7564
38104SOL     OW20147   0.928  10.825   9.120 -0.1226 -0.0488  0.3859
38104SOL    HW120148   0.949  10.737   9.150  4.3503  0.5306 -0.3791
38104SOL    HW220149   0.928  10.879   9.199  0.5655 -0.2518  0.5322
38105SOL     OW20150   7.359   9.156   6.428  0.4796  0.2745  0.1607
38105SOL    HW120151   7.309   9.087   6.385 -0.5527 -1.4604  3.7662
38105SOL    HW220152   7.301   9.232   6.424 -1.0330 -0.7660  1.2777
38106SOL     OW20153   0.680   3.528   7.867  0.3738  0.1027  0.1101
38106SOL    HW120154   0.747   3.515   7.800  1.1408  1.1828  0.6435
38106SOL    HW220155   0.628   3.603   7.836 -0.7866 -0.8892 -0.4322
38107SOL     OW20156   7.163   9.226   6.648  0.2469  0.4543  0.3206
38107SOL    HW120157   7.097   9.292   6.626  1.4720  1.1641 -1.4615
38107SOL    HW220158   7.144   9.152   6.591  1.3611  0.9374 -0.7208
38108SOL     OW20159   3.446   8.995   5.063  0.6365 -0.2063 -0.9979
38108SOL    HW120160   3.374   9.014   5.123  0.9670 -1.8072  0.0003
38108SOL    HW220161   3.405   8.950   4.989  0.7099 -2.8980  0.4558
38109SOL     OW20162   0.146   1.788   7.783 -0.0301  0.2094 -0.2248
38109SOL    HW120163   0.142   1.694   7.802 -1.2312 -0.0253 -1.5165
38109SOL    HW220164   0.222   1.819   7.833  0.0751 -1.3387  0.6382
38110SOL     OW20165  10.907   1.929   3.997  0.0377 -0.3056 -0.4504
38110SOL    HW120166  10.873   2.013   3.968 -2.3246 -0.9324  0.2458
38110SOL    HW220167  10.959   1.897   3.923 -0.4582  0.9838 -1.3898
38111SOL     OW20168   0.757   6.790   6.947 -0.0582  0.2573 -0.1583
38111SOL    HW120169   0.782   6.776   7.038 -0.8927 -0.5496 -0.0283
38111SOL    HW220170   0.687   6.726   6.932  0.5515 -0.1018 -1.5763
38112SOL     OW20171   9.042   9.003   5.790 -0.2229  0.1745 -0.0956
38112SOL    HW120172   9.051   8.919   5.744 -0.3369 -1.4416  2.5982
38112SOL    HW220173   9.131   9.024   5.820 -0.1443  1.2113 -1.0023
38113SOL     OW20174   5.203   9.448   1.769 -0.2702 -0.1617  0.3897
38113SOL    HW120175   5.108   9.451   1.780 -0.2793 -0.7262  0.4751
38113SOL    HW220176   5.237   9.425   1.855 -0.0632 -0.1280  0.3186
38114SOL     OW20177   9.222   7.124   4.775  0.1025 -0.8629  0.4428
38114SOL    HW120178   9.277   7.188   4.821  0.4158  1.4844 -2.8225
38114SOL    HW220179   9.283   7.056   4.747  0.7143 -0.1071 -0.1088
38115SOL     OW20180   3.407   2.056   3.539  0.1515 -0.2656 -0.2238
38115SOL    HW120181   3.333   2.005   3.506 -0.7810  1.2237 -0.5366
38115SOL    HW220182   3.415   2.129   3.478  1.9836 -0.4511 -0.2617
38116SOL     OW20183   1.766   3.019   2.634  0.0397  0.0668 -0.9207
38116SOL    HW120184   1.753   2.948   2.697  1.2558 -0.6813 -1.4841
38116SOL    HW220185   1.713   2.994   2.558  0.0743  0.0066 -0.9253
38117SOL     OW20186   4.592   1.145   9.654 -0.6553  0.4275 -0.1336
38117SOL    HW120187   4.681   1.117   9.676 -1.0127 -0.4926  0.1963
38117SOL    HW220188   4.576   1.220   9.711 -0.5876 -0.2607  0.8040
38118SOL     OW20189   2.133  10.343   8.592  0.3708 -0.3062  0.5413
38118SOL    HW120190   2.113  10.435   8.609  1.1140 -0.5216  2.8476
38118SOL    HW220191   2.153  10.340   8.498 -0.2320  1.7549  0.2990
38119SOL     OW20192  10.167   6.377   5.405  0.3711  0.0456  0.6304
38119SOL    HW120193  10.167   6.473   5.396  0.3683 -0.0618 -0.8114
38119SOL    HW220194  10.112   6.347   5.332  0.2230 -1.0532  1.1842
38120SOL     OW20195   1.587   4.805   3.748 -0.5688  0.3243 -0.2045
38120SOL    HW120196   1.522   4.757   3.696  0.7799  0.4951 -2.1608
38120SOL    HW220197   1.608   4.881   3.693 -0.0484  1.2434  1.2320
38121SOL     OW20198  10.698   4.179  10.260 -0.5118  0.1560 -0.5570
38121SOL    HW120199  10.682   4.193  10.353  1.6752  2.1644 -0.4073
38121SOL    HW220200  10.739   4.092  10.255  0.8702  0.7046  0.5990
38122SOL     OW20201   6.509   8.965   4.770  0.3165  0.4975 -0.3276
38122SOL    HW120202   6.526   8.872   4.781 -3.6885 -0.2821  1.0581
38122SOL    HW220203   6.472   8.993   4.854  0.0127  2.9478 -1.1890
38123SOL     OW20204   4.301   3.151   7.341  0.4504 -0.1270  0.6079
38123SOL    HW120205   4.377   3.177   7.288 -0.2731 -0.9348 -0.8818
38123SOL    HW220206   4.250   3.231   7.352  1.2565  0.3170  1.2042
38124SOL     OW20207   5.684   2.300   0.806  0.0438  0.3904  0.2519
38124SOL    HW120208   5.682   2.205   0.794  0.9096  0.4133 -0.1503
38124SOL    HW220209   5.606   2.319   0.858 -0.4612 -0.4711 -0.1579
38125SOL     OW20210   9.002   6.205   8.698 -0.1254  0.1993 -0.1478
38125SOL    HW120211   8.986   6.263   8.623 -2.6505  0.6773  0.6501
38125SOL    HW220212   9.018   6.119   8.659 -1.9392  0.3215 -1.2662
38126SOL     OW20213   5.199   6.674   5.344  0.0831 -0.0009  0.5186
38126SOL    HW120214   5.178   6.699   5.254  0.9412 -1.0965 -0.0102
38126SOL    HW220215   5.202   6.579   5.342  0.1294 -0.0367  1.7203
38127SOL     OW20216   5.710   9.109   6.067 -0.3964 -0.3113  0.0034
38127SOL    HW120217   5.680   9.056   5.993 -1.4940  0.7950 -0.3846
38127SOL    HW220218   5.800   9.134   6.043 -1.1339  1.0082 -1.5583
38128SOL     OW20219  10.360   1.914   6.462  0.1853  0.7200  0.0726
38128SOL    HW120220  10.404   1.830   6.476 -2.5432 -0.8936 -0.4384
38128SOL    HW220221  10.366   1.958   6.547 -0.0539 -0.8675  0.9519
38129SOL     OW20222   9.674   1.558   0.000  0.4489  1.0999  0.0824
38129SOL    HW120223   9.601   1.504   0.029 -0.4278  0.3746 -3.0658
38129SOL    HW220224   9.746   1.497  -0.013  0.0519  0.9520 -1.5935
38130SOL     OW20225   2.431   7.888   1.329  0.6802  0.3082  0.0756
38130SOL    HW120226   2.458   7.882   1.238 -2.2517  0.7895 -0.9484
38130SOL    HW220227   2.413   7.981   1.342 -1.1011 -0.0350  0.3658
38131SOL     OW20228   9.685   4.072   7.088  0.7406 -0.2549 -0.0680
38131SOL    HW120229   9.691   4.093   6.995  0.1226  0.4938  0.0545
38131SOL    HW220230   9.657   3.980   7.090  2.7981 -0.9566 -0.6041
38132SOL     OW20231   1.009   5.597   8.055 -0.0822 -0.5762 -0.0852
38132SOL    HW120232   0.930   5.556   8.020 -0.8628  0.3507  0.5300
38132SOL    HW220233   0.977   5.672   8.105  1.2607  0.5594 -0.8455
38133SOL     OW20234   8.571   7.644   2.532  0.0113  0.4484  0.3598
38133SOL    HW120235   8.492   7.668   2.580 -0.5494 -1.2519  0.3377
38133SOL    HW220236   8.633   7.617   2.600  0.1173  0.4928  0.2822
38134SOL     OW20237   1.460   1.323   3.490  0.3142 -0.6075  0.3381
38134SOL    HW120238   1.534   1.309   3.431  0.5581 -0.3464  0.5761
38134SOL    HW220239   1.494   1.384   3.556 -0.6945  1.1631 -0.6841
38135SOL     OW20240   7.622   7.573   5.897 -0.4918 -0.2791  0.4985
38135SOL    HW120241   7.559   7.645   5.896 -0.2175 -0.0126  1.4589
38135SOL    HW220242   7.692   7.601   5.839 -0.8675 -0.2297  0.0598
38136SOL     OW20243   1.130   3.349   3.607  0.1507 -0.4646  0.4036
38136SOL    HW120244   1.131   3.269   3.554 -1.4924  0.8100 -1.7454
38136SOL    HW220245   1.046   3.347   3.653  0.8497 -0.7585  1.7084
38137SOL     OW20246   6.225   7.222   1.460 -0.4111 -0.0320 -0.2914
38137SOL    HW120247   6.273   7.140   1.451  0.6776  0.4056  1.1457
38137SOL    HW220248   6.185   7.236   1.375  2.2153 -0.3149 -1.6836
38138SOL     OW20249   2.063   0.576   4.031 -0.1516  0.5185 -0.5638
38138SOL    HW120250   2.001   0.560   4.102  0.0654  0.8151 -0.3049
38138SOL    HW220251   2.078   0.490   3.992  0.6764  0.1531  0.5266
38139SOL     OW20252   0.337   3.054  10.260  0.1056  0.0143 -0.4978
38139SOL    HW120253   0.396   2.987  10.225 -0.3931 -0.2625 -0.8139
38139SOL    HW220254   0.260   3.006  10.288  0.5915  0.1739  1.2921
38140SOL     OW20255   5.062   6.338   5.486 -0.2495 -0.0996  0.2712
38140SOL    HW120256   4.998   6.410   5.484  0.2167  0.3149  0.1037
38140SOL    HW220257   5.104   6.342   5.400 -0.7717 -1.0766 -0.0400
38141SOL     OW20258  10.665   8.026   5.879  0.4920  0.5197 -0.3021
38141SOL    HW120259  10.718   7.947   5.886  0.8556  0.5702 -2.0777
38141SOL    HW220260  10.644   8.033   5.786 -2.0531  0.8996  0.2110
38142SOL     OW20261   9.413   9.093   8.478  0.6856 -0.4225 -0.1191
38142SOL    HW120262   9.490   9.058   8.523  1.3436  1.2437  0.1189
38142SOL    HW220263   9.447   9.164   8.425 -0.6459  0.0902 -0.3173
38143SOL     OW20264   1.449   2.698   3.661 -0.5648  0.4711  0.2246
38143SOL    HW120265   1.419   2.611   3.632 -0.0238 -0.1079  1.3123
38143SOL    HW220266   1.422   2.757   3.591  2.1656 -1.0431 -2.3367
38144SOL     OW20267   3.325   1.342   6.974 -0.1276  0.2316  0.0384
38144SOL    HW120268   3.321   1.374   7.065  4.0472  1.7377 -0.0826
38144SOL    HW220269   3.286   1.412   6.922  0.0090  0.6477  0.4898
38145SOL     OW20270   8.013   3.863   1.349 -0.6384  0.2722 -0.0763
38145SOL    HW120271   7.940   3.835   1.295  0.0892 -1.3110 -0.3161
38145SOL    HW220272   8.091   3.830   1.304  0.0190 -0.7120  1.6422
38146SOL     OW20273   5.907   5.032   4.235  0.2107  0.0026 -0.3822
38146SOL    HW120274   5.959   5.053   4.313  0.7359  0.3811 -0.8249
38146SOL    HW220275   5.904   5.114   4.186 -0.0860 -0.2430 -0.7777
38147SOL     OW20276  10.124   4.078   3.868 -0.0477 -0.1913  0.0562
38147SOL    HW120277  10.173   4.137   3.925  2.0385 -0.5622 -1.2502
38147SOL    HW220278  10.080   4.135   3.806  4.3354  0.2525 -3.1516
38148SOL     OW20279   5.256   4.763   7.190  0.6309  0.0806 -0.0776
38148SOL    HW120280   5.270   4.687   7.247  1.6262 -0.0440 -0.4755
38148SOL    HW220281   5.344   4.792   7.166  0.2627 -0.4592 -2.3207
38149SOL     OW20282   1.946   8.058   4.494  0.3296  0.8723 -0.1525
38149SOL    HW120283   2.021   8.060   4.554 -1.3652 -0.7818  2.2361
38149SOL    HW220284   1.921   8.149   4.484  1.6470  1.3219  0.3561
38150SOL     OW20285   9.516   0.247   3.851 -0.4981  0.3032  0.0101
38150SOL    HW120286   9.603   0.226   3.816 -1.0457 -1.7052 -0.2937
38150SOL    HW220287   9.527   0.239   3.946 -0.6238 -1.3168 -0.0810
38151SOL     OW20288   9.713   2.962   7.219 -0.2870  0.1288  0.0068
38151SOL    HW120289   9.759   2.998   7.143  0.3954 -0.0982  0.2984
38151SOL    HW220290   9.672   3.037   7.261 -0.2318  0.3300 -0.2956
38152SOL     OW20291   8.697   8.009   6.066 -0.0028 -0.0190 -0.1156
38152SOL    HW120292   8.771   7.972   6.115  0.5761  1.0040 -0.1921
38152SOL    HW220293   8.662   7.935   6.017  0.0590 -0.8345  1.0307
38153SOL     OW20294  10.077   1.990   9.672  0.3838  0.1331 -0.2350
38153SOL    HW120295   9.996   1.939   9.675  0.8244 -0.6673 -1.4069
38153SOL    HW220296  10.071   2.039   9.590  1.8882 -1.3435 -1.2870
38154SOL     OW20297   6.727   3.002   5.851 -0.1340 -0.0172  0.0038
38154SOL    HW120298   6.812   3.043   5.865 -0.9272  1.9393 -0.5162
38154SOL    HW220299   6.720   2.992   5.756 -0.1331 -1.0101  0.0980
38155SOL     OW20300   8.911  10.413   4.600  0.0214  0.0470 -0.6154
38155SOL    HW120301   8.820  10.438   4.612  0.2171  0.8226 -0.7410
38155SOL    HW220302   8.953  10.436   4.683 -0.0547 -1.0754 -0.2466
38156SOL     OW20303   5.847   1.370   3.881 -0.0296  0.2708 -0.0854
38156SOL    HW120304   5.913   1.316   3.925 -0.2629 -0.2381 -0.3476
38156SOL    HW220305   5.895   1.416   3.812  0.3565  1.1480  0.7446
38157SOL     OW20306   4.430   0.648   2.795  0.2982 -0.1475 -0.4776
38157SOL    HW120307   4.420   0.588   2.869 -1.2931  0.2396 -0.3487
38157SOL    HW220308   4.485   0.600   2.733  2.6729 -0.0378  1.3771
38158SOL     OW20309   0.429   5.076   9.816 -0.1698  0.3939  0.6402
38158SOL    HW120310   0.390   5.025   9.887  0.2497 -0.7049  0.1121
38158SOL    HW220311   0.360   5.083   9.750 -1.0694  2.7064  1.7208
38159SOL     OW20312   3.807  10.603   7.821 -0.0868 -0.1254  0.6406
38159SOL    HW120313   3.830  10.666   7.889  0.7206 -0.6224  0.8406
38159SOL    HW220314   3.712  10.601   7.822 -0.1011  0.4334  1.2395
38160SOL     OW20315   8.476   0.089   6.211  0.0668  0.0770 -0.3335
38160SOL    HW120316   8.443   0.168   6.167 -1.9459 -0.0446  0.8361
38160SOL    HW220317   8.421   0.019   6.178 -0.5432 -0.2384  1.2440
38161SOL     OW20318   8.327   2.522   7.278  0.4488 -0.1586  0.4877
38161SOL    HW120319   8.364   2.518   7.190  1.0112  1.0426  0.6392
38161SOL    HW220320   8.334   2.614   7.302 -1.2319 -0.1793  1.1545
38162SOL     OW20321   2.920  10.078   6.017 -0.6152 -0.2471 -0.7131
38162SOL    HW120322   2.830  10.045   6.014 -0.9022  0.4666 -0.1612
38162SOL    HW220323   2.921  10.149   5.953 -1.0707  1.2241  0.8543
38163SOL     OW20324  10.602   1.831   3.748  0.2079  0.4713  0.3309
38163SOL    HW120325  10.635   1.862   3.664 -0.0567  0.7732  0.3391
38163SOL    HW220326  10.581   1.911   3.797  2.2900  0.3994  1.4761
38164SOL     OW20327   2.095   4.293  10.881  0.5920  0.4983 -0.3908
38164SOL    HW120328   2.150   4.314  10.956  0.6869 -1.6353  0.1838
38164SOL    HW220329   2.018   4.249  10.918 -0.0740  0.7300 -1.4322
38165SOL     OW20330   3.792   7.479  10.694 -1.0611  0.2186 -0.7351
38165SOL    HW120331   3.700   7.479  10.665 -1.0098 -1.0401 -0.9456
38165SOL    HW220332   3.790   7.437  10.779 -0.6249 -0.1924 -0.9276
38166SOL     OW20333   6.942   2.049   4.679  0.3858  0.4904  0.2142
38166SOL    HW120334   6.993   2.017   4.605 -1.4717 -2.1080 -0.0763
38166SOL    HW220335   6.852   2.024   4.659 -0.4958  1.5395  2.4379
38167SOL     OW20336   9.016   3.242   2.538 -0.6745  0.2184 -0.2424
38167SOL    HW120337   8.996   3.201   2.454 -0.0298  1.2668 -0.9274
38167SOL    HW220338   9.026   3.335   2.518  0.1084  0.4012  0.8963
38168SOL     OW20339   8.802   3.214   9.571 -0.3043 -0.0266  0.0812
38168SOL    HW120340   8.800   3.305   9.600 -0.9387 -0.2617  0.8106
38168SOL    HW220341   8.825   3.218   9.479  0.0588  0.8493  0.2091
38169SOL     OW20342   6.525   0.017   1.939 -0.2014 -0.4013 -0.1163
38169SOL    HW120343   6.482   0.102   1.955 -0.1095 -0.6754  1.7653
38169SOL    HW220344   6.561  -0.008   2.024  1.3995 -1.4653 -1.0640
38170SOL     OW20345   0.779   6.149   5.697 -0.3756 -0.6269  0.1557
38170SOL    HW120346   0.715   6.219   5.702 -0.2179 -0.5155  0.7083
38170SOL    HW220347   0.728   6.070   5.682 -0.7247 -0.6543  1.3583
38171SOL     OW20348   3.156   2.779   2.955 -0.0436 -0.1065 -0.3019
38171SOL    HW120349   3.229   2.730   2.992 -1.7751 -0.4912  3.0420
38171SOL    HW220350   3.181   2.871   2.965  1.7250 -0.1249 -3.3518
38172SOL     OW20351   2.166   3.395   1.600 -0.2135 -0.0434  0.4223
38172SOL    HW120352   2.205   3.376   1.515 -2.4585 -0.2355 -0.6488
38172SOL    HW220353   2.167   3.491   1.605 -1.0814  0.0287 -0.3803
38173SOL     OW20354   2.851   4.975   2.360  0.1325 -0.3673 -0.2362
38173SOL    HW120355   2.879   5.061   2.391 -1.2441 -0.0215  0.1133
38173SOL    HW220356   2.932   4.925   2.349  0.9654  1.0310 -0.6340
38174SOL     OW20357   5.572  10.615  10.178  0.2210  0.5732 -0.7607
38174SOL    HW120358   5.613  10.572  10.253  3.1037  0.3035 -2.3764
38174SOL    HW220359   5.593  10.708  10.189  0.8755  0.4990 -1.3478
38175SOL     OW20360   3.007   8.924   7.196  0.1586 -0.0020 -0.1096
38175SOL    HW120361   2.918   8.889   7.196  0.1274  0.0329 -1.1476
38175SOL    HW220362   2.998   9.013   7.231  0.2660 -1.0124  2.7108
38176SOL     OW20363   4.372  10.083   6.480 -0.1394  0.1948 -0.4618
38176SOL    HW120364   4.420  10.165   6.470 -0.5312  0.4919  0.0537
38176SOL    HW220365   4.280  10.108   6.473 -0.2315 -0.3375 -1.2090
38177SOL     OW20366   0.845   2.083   5.233  0.2638 -0.2033  0.0822
38177SOL    HW120367   0.783   2.031   5.181  0.7156 -1.0142  0.3420
38177SOL    HW220368   0.927   2.078   5.185  0.5696 -0.5851  0.6418
38178SOL     OW20369   7.194   4.498   5.919 -0.3735 -0.4362 -0.7104
38178SOL    HW120370   7.157   4.560   5.982  0.3174 -1.7222  1.0805
38178SOL    HW220371   7.128   4.489   5.851 -2.5858 -1.1990  1.3655
38179SOL     OW20372   8.039   9.258   7.368  0.4495 -0.2212 -0.2934
38179SOL    HW120373   7.967   9.211   7.327  1.4676 -1.2344 -1.0024
38179SOL    HW220374   8.055   9.332   7.310 -0.2427  0.2198  0.0652
38180SOL     OW20375   9.941   6.228   3.318 -0.7362 -0.4507 -0.6897
38180SOL    HW120376   9.869   6.191   3.370 -0.6558  0.3801  0.0438
38180SOL    HW220377  10.011   6.163   3.324 -0.6377 -0.2722  0.4864
38181SOL     OW20378   1.246   8.807   7.873 -0.1343  0.1760  0.1317
38181SOL    HW120379   1.213   8.738   7.815  0.1500  0.8356 -0.8248
38181SOL    HW220380   1.250   8.885   7.818  0.1538  0.8114  1.0385
38182SOL     OW20381   4.088   7.041   0.998 -0.2429  0.0373 -0.4413
38182SOL    HW120382   4.129   7.046   0.911 -1.7657 -0.3030 -1.2058
38182SOL    HW220383   4.106   6.951   1.027 -1.0393 -0.3434 -1.0917
38183SOL     OW20384   1.405   1.383   5.624 -0.4956  0.4259 -0.0149
38183SOL    HW120385   1.468   1.419   5.562  0.2720 -1.3253 -0.3239
38183SOL    HW220386   1.332   1.354   5.569  0.4492 -1.6921 -0.2647
38184SOL     OW20387   8.556   2.847   3.786  0.4143 -0.0546 -0.4666
38184SOL    HW120388   8.599   2.863   3.870 -1.2815 -1.4713  0.7575
38184SOL    HW220389   8.586   2.759   3.761 -0.0819 -0.1765 -0.6517
38185SOL     OW20390   4.580  10.172   1.233  0.0994  0.4681 -0.0612
38185SOL    HW120391   4.497  10.188   1.276  0.2568  0.7293  0.1466
38185SOL    HW220392   4.568  10.088   1.188 -0.6993  1.1240 -1.1091
38186SOL     OW20393   2.120   6.416   2.389 -0.2595 -0.3145  0.2843
38186SOL    HW120394   2.152   6.494   2.342 -0.9489 -0.0150  0.2993
38186SOL    HW220395   2.031   6.439   2.414  0.5026  0.0963  2.9460
38187SOL     OW20396   8.225  10.447   4.765  0.1739 -0.1834  0.2399
38187SOL    HW120397   8.175  10.365   4.763  2.4023 -1.6356 -0.6919
38187SOL    HW220398   8.299  10.431   4.705  1.4987  1.9676  1.1850
38188SOL     OW20399   9.748   6.164   3.711  0.2011  0.5857 -0.3253
38188SOL    HW120400   9.838   6.149   3.742  0.4283  1.6469 -0.4188
38188SOL    HW220401   9.721   6.245   3.754 -0.0915  1.1931 -1.5909
38189SOL     OW20402   8.488   7.167   4.028 -0.1901  0.2570 -0.4863
38189SOL    HW120403   8.431   7.218   3.971  0.0729  0.4266 -0.6018
38189SOL    HW220404   8.450   7.176   4.115 -1.0973 -0.7187 -0.7555
38190SOL     OW20405   6.480   3.681   4.926 -0.2180 -0.0285 -0.9159
38190SOL    HW120406   6.446   3.745   4.988 -0.0453 -2.2548  1.6361
38190SOL    HW220407   6.537   3.731   4.869 -0.7948  2.2257  0.3809
38191SOL     OW20408   1.709   5.915   8.502  0.1183 -0.3960 -1.1622
38191SOL    HW120409   1.731   5.822   8.496 -0.3067 -0.4563 -2.0188
38191SOL    HW220410   1.690   5.941   8.412 -1.2129  0.1540 -0.7581
38192SOL     OW20411   2.313   7.951   9.316 -0.2091 -0.3430 -0.5170
38192SOL    HW120412   2.361   7.967   9.397  0.0174 -2.0538 -0.2636
38192SOL    HW220413   2.292   8.038   9.282  1.1164  0.4138  0.5226
38193SOL     OW20414   8.209   3.893   5.803 -0.5857  0.1375  0.2970
38193SOL    HW120415   8.294   3.893   5.846 -0.3690  1.5929 -0.1040
38193SOL    HW220416   8.228   3.916   5.712 -1.1012 -2.3165 -0.5228
38194SOL     OW20417   9.784   6.676   3.925 -0.3302 -0.0386 -0.2299
38194SOL    HW120418   9.702   6.669   3.877  0.6622  0.1870 -2.0386
38194SOL    HW220419   9.801   6.770   3.930 -1.8214  0.2193  3.1990
38195SOL     OW20420   8.823   3.478  10.254 -0.1369 -0.2461  0.7653
38195SOL    HW120421   8.899   3.475  10.311  0.0011 -2.8704  0.5386
38195SOL    HW220422   8.751   3.444  10.307 -0.2737 -1.5281 -0.1937
38196SOL     OW20423   2.458   4.110   9.756  0.0208 -0.0470 -0.3698
38196SOL    HW120424   2.455   4.015   9.761  0.9023 -0.0766 -0.4147
38196SOL    HW220425   2.442   4.140   9.846  1.2885 -0.2749 -0.0549
38197SOL     OW20426   1.818   8.315   1.166 -0.0133  0.0423  0.5524
38197SOL    HW120427   1.754   8.381   1.194  0.6237  1.7206 -1.6466
38197SOL    HW220428   1.774   8.268   1.095  0.3610 -0.3409  0.5745
38198SOL     OW20429  10.585   1.461   7.215  0.2532  0.4059 -0.5196
38198SOL    HW120430  10.617   1.373   7.194 -0.8630 -0.5464  1.4052
38198SOL    HW220431  10.549   1.452   7.303 -0.5407  2.6477 -0.5588
38199SOL     OW20432   6.269   0.915   9.479 -0.4677 -0.6605 -0.7203
38199SOL    HW120433   6.208   0.842   9.486 -0.5098 -0.7226 -1.5964
38199SOL    HW220434   6.264   0.942   9.387  0.1485 -0.0818 -0.5955
38200SOL     OW20435   4.445   7.888   2.530 -0.0767  0.0907 -0.3934
38200SOL    HW120436   4.532   7.866   2.497  1.0519  2.7452  0.5422
38200SOL    HW220437   4.436   7.835   2.609  1.3181  0.7444  0.2461
38201SOL     OW20438   9.795  10.128   8.842  0.3988  0.4701  0.0859
38201SOL    HW120439   9.795  10.215   8.883  2.0346  0.5257  0.0150
38201SOL    HW220440   9.705  10.117   8.811 -0.1205  1.6792  1.0504
38202SOL     OW20441   2.266   6.148   1.796 -0.2807 -0.0493  0.3172
38202SOL    HW120442   2.326   6.128   1.868  1.1263  0.4181 -0.6847
38202SOL    HW220443   2.197   6.201   1.837  0.3009 -0.0879  1.3846
38203SOL     OW20444   7.690   3.820   2.324  0.0451  0.4823 -0.6278
38203SOL    HW120445   7.728   3.765   2.392 -0.2213  1.9733  0.7929
38203SOL    HW220446   7.642   3.888   2.371 -0.6187  1.2565 -2.3150
38204SOL     OW20447   9.190   8.532   0.590 -0.5695 -0.2737 -0.0122
38204SOL    HW120448   9.230   8.460   0.540  1.0013  0.8810 -0.5179
38204SOL    HW220449   9.109   8.552   0.543 -0.1961 -0.6477 -0.8393
38205SOL     OW20450   2.356   3.601  10.717 -0.2181  0.3117 -0.6479
38205SOL    HW120451   2.337   3.693  10.731  0.1362  0.5954 -1.9426
38205SOL    HW220452   2.402   3.574  10.797 -1.2831  0.9467  0.2244
38206SOL     OW20453   9.180   9.114   8.661 -0.1245 -0.2271 -0.8801
38206SOL    HW120454   9.236   9.074   8.595  0.4410 -0.5452 -0.2147
38206SOL    HW220455   9.217   9.201   8.674 -0.0999 -0.2487 -0.8119
38207SOL     OW20456   9.371  10.181   5.146  0.0962 -0.0370  0.0304
38207SOL    HW120457   9.368  10.147   5.236  1.8400 -1.2974 -0.3464
38207SOL    HW220458   9.407  10.269   5.155 -0.6599  0.2234  0.6425
38208SOL     OW20459  10.860   2.319   6.171  0.2318 -0.3911  0.3466
38208SOL    HW120460  10.936   2.295   6.117  1.1908 -0.5778  1.7217
38208SOL    HW220461  10.784   2.295   6.118  1.1066  0.2342 -1.2723
38209SOL     OW20462   3.876  10.474   7.332 -0.2832 -0.0109 -0.5822
38209SOL    HW120463   3.854  10.530   7.407  0.9062 -0.8997  0.4698
38209SOL    HW220464   3.936  10.527   7.279 -2.6521  1.3851 -2.0327
38210SOL     OW20465   0.728   6.757   6.144 -1.0541 -0.4177  0.1663
38210SOL    HW120466   0.803   6.798   6.186  0.0337 -3.3396  1.2962
38210SOL    HW220467   0.652   6.790   6.193 -0.2688  0.2166  0.9924
38211SOL     OW20468   4.171   6.606   3.502 -0.0120 -0.0102 -0.5818
38211SOL    HW120469   4.156   6.512   3.514 -1.2038  0.1388 -0.8225
38211SOL    HW220470   4.083   6.644   3.493  0.4729  1.0503 -1.0502
38212SOL     OW20471   5.803  10.307   3.497  0.7321 -0.4660 -0.3029
38212SOL    HW120472   5.818  10.216   3.475  1.7281 -0.0459 -1.4460
38212SOL    HW220473   5.715  10.326   3.463  0.0356 -1.2839  0.9699
38213SOL     OW20474   4.322   2.111   1.003  0.3053 -0.2420 -0.7393
38213SOL    HW120475   4.384   2.117   1.076 -0.2270  1.4415 -0.3774
38213SOL    HW220476   4.359   2.168   0.936  0.1746 -0.8386 -1.3250
38214SOL     OW20477   2.331   5.478   1.509  0.1950  0.7353 -0.2377
38214SOL    HW120478   2.326   5.421   1.586 -1.0678 -1.0577 -1.5452
38214SOL    HW220479   2.254   5.534   1.515 -0.3361  0.0606 -0.5455
38215SOL     OW20480   0.246   5.032   4.747  0.3567  0.3375  0.2217
38215SOL    HW120481   0.161   4.989   4.760  0.7961 -0.5836  0.1135
38215SOL    HW220482   0.270   5.012   4.657  0.1188  1.6710 -0.1702
38216SOL     OW20483   6.109  10.261   1.640 -0.8033  0.1126 -0.5418
38216SOL    HW120484   6.186  10.318   1.645 -0.4012 -0.5187  1.6149
38216SOL    HW220485   6.133  10.194   1.576  0.1297  0.3973 -0.5072
38217SOL     OW20486   1.094   1.656  10.725 -0.1068 -0.5835  0.1026
38217SOL    HW120487   1.093   1.620  10.814  0.7939 -0.0069  0.3565
38217SOL    HW220488   1.178   1.629  10.689  0.4354  0.9153  0.1678
38218SOL     OW20489   7.237   4.149   7.388  0.5201 -0.0557  0.0506
38218SOL    HW120490   7.232   4.056   7.410 -1.6051  0.2420  1.0584
38218SOL    HW220491   7.173   4.160   7.318 -0.6191  0.9349  1.1977
38219SOL     OW20492   6.565   6.874   7.255  0.2571 -0.5336 -0.3672
38219SOL    HW120493   6.580   6.800   7.314 -0.6838 -0.5294 -0.1005
38219SOL    HW220494   6.469   6.882   7.251  0.3354  0.2195 -0.9528
38220SOL     OW20495   0.364   8.230   0.399 -0.1705 -0.1960  0.0690
38220SOL    HW120496   0.277   8.262   0.375  0.3181  0.4357 -0.9327
38220SOL    HW220497   0.353   8.195   0.488 -1.0636  1.4487  0.6565
38221SOL     OW20498  10.477   0.632   8.014  0.0372  0.3469  0.4205
38221SOL    HW120499  10.390   0.656   8.047 -0.3578  1.4292 -1.2604
38221SOL    HW220500  10.535   0.641   8.090 -1.3972 -1.0593  1.7367
38222SOL     OW20501   9.192   1.166   8.101 -0.1621 -0.4372  0.3928
38222SOL    HW120502   9.109   1.120   8.110  0.9519 -2.2577  1.9876
38222SOL    HW220503   9.241   1.115   8.036  0.2456 -0.2000  0.5086
38223SOL     OW20504   5.536   7.658   4.442 -0.2231  0.2080 -0.0784
38223SOL    HW120505   5.478   7.583   4.456  0.8123 -1.1137 -2.4397
38223SOL    HW220506   5.489   7.713   4.379 -0.6511  1.2276  1.0902
38224SOL     OW20507   7.713   2.510   2.831 -0.3439  0.1496  0.0478
38224SOL    HW120508   7.800   2.490   2.795 -0.7163  0.7166 -1.2128
38224SOL    HW220509   7.652   2.469   2.770 -1.0085 -2.5083  2.3044
38225SOL     OW20510   0.071   5.769   9.393  0.2114 -0.1065 -0.0536
38225SOL    HW120511   0.121   5.846   9.420 -1.2130  0.8783 -0.0985
38225SOL    HW220512   0.121   5.732   9.320  1.0723  0.5900  0.1678
38226SOL     OW20513   5.276  10.807   1.104 -0.2955 -0.6955 -0.4947
38226SOL    HW120514   5.325  10.772   1.030  1.4699 -0.1524  0.3427
38226SOL    HW220515   5.217  10.737   1.131  0.3289 -1.5432 -1.3038
38227SOL     OW20516  10.769   4.558   3.569 -0.3768 -0.3259  0.1036
38227SOL    HW120517  10.787   4.624   3.502  1.5580 -0.0783  0.8102
38227SOL    HW220518  10.840   4.568   3.632 -0.5855 -2.4318  0.7387
38228SOL     OW20519   9.373   0.274   1.559 -0.2037 -0.1141  0.3380
38228SOL    HW120520   9.360   0.184   1.531  0.4535  0.0844 -0.6599
38228SOL    HW220521   9.452   0.302   1.513 -0.5911  1.0763  0.3708
38229SOL     OW20522  10.882   3.900   8.223 -0.0044 -0.3097  0.2558
38229SOL    HW120523  10.837   3.982   8.203 -0.1853 -0.9307 -2.1013
38229SOL    HW220524  10.829   3.832   8.181  2.4375 -1.1904 -1.6277
38230SOL     OW20525   1.871   6.986   2.663  0.5399  0.2915 -0.4376
38230SOL    HW120526   1.899   7.078   2.659  2.3608 -0.1768  0.5103
38230SOL    HW220527   1.841   6.967   2.574 -1.7821  2.3005 -0.2264
38231SOL     OW20528   5.747   2.085   9.894  0.6624 -0.1866 -0.3249
38231SOL    HW120529   5.801   2.073   9.972  1.0624  2.1097 -0.1953
38231SOL    HW220530   5.751   2.000   9.849 -0.3275 -1.9318  2.5522
38232SOL     OW20531   1.782   9.266   6.114 -0.6175 -0.9190 -0.0034
38232SOL    HW120532   1.817   9.344   6.072 -1.1953 -0.3308  0.5935
38232SOL    HW220533   1.691   9.263   6.086 -0.1578 -2.3932 -1.4820
38233SOL     OW20534   0.331   7.217   4.455  0.0921  0.2668  0.2582
38233SOL    HW120535   0.383   7.232   4.376  0.7446  0.8339  0.7852
38233SOL    HW220536   0.358   7.287   4.515  1.8837 -1.9355  2.1738
38234SOL     OW20537   2.665   7.893   5.958 -0.4408  0.0853  0.1985
38234SOL    HW120538   2.713   7.969   5.990 -1.4918  0.4700  0.9329
38234SOL    HW220539   2.678   7.826   6.027 -1.0087  0.2195  0.4410
38235SOL     OW20540   0.112   3.001   2.265  0.4056  0.1376  0.8478
38235SOL    HW120541   0.021   2.991   2.294  0.2226 -0.4378  0.1038
38235SOL    HW220542   0.138   3.088   2.297 -0.2841  0.1564  1.3805
38236SOL     OW20543   4.892   8.495   9.211 -0.5210 -0.0549  0.5602
38236SOL    HW120544   4.807   8.452   9.197  1.3967 -3.3924 -2.9660
38236SOL    HW220545   4.946   8.429   9.253  1.2446  0.6656 -0.4579
38237SOL     OW20546   0.788   9.224   6.367 -0.5755  0.4734 -0.0242
38237SOL    HW120547   0.823   9.198   6.282  1.9497 -1.9484  1.5421
38237SOL    HW220548   0.718   9.161   6.384  2.4047 -2.7186  1.7312
38238SOL     OW20549   9.905   1.424   3.827 -0.4490 -0.3949 -0.3194
38238SOL    HW120550   9.977   1.368   3.796 -0.3463 -0.9973  0.9330
38238SOL    HW220551   9.830   1.398   3.773 -0.4785 -2.0015  0.4283
38239SOL     OW20552   6.508   1.316   3.312 -0.2279  0.0095 -0.1404
38239SOL    HW120553   6.516   1.253   3.383 -1.1095 -1.3483 -1.1906
38239SOL    HW220554   6.419   1.349   3.319  0.4535  1.7622  0.8539
38240SOL     OW20555   5.020   8.374   6.484 -0.6402 -0.0507  0.0384
38240SOL    HW120556   5.021   8.353   6.578  0.1216 -0.9306 -0.1573
38240SOL    HW220557   5.095   8.432   6.472  0.9677 -2.1260 -0.4814
38241SOL     OW20558  10.299   4.015   2.901 -0.4068 -0.2882 -0.2427
38241SOL    HW120559  10.264   4.072   2.970 -0.8312 -1.0384  0.1799
38241SOL    HW220560  10.349   4.074   2.845  0.2755  0.2820  0.9274
38242SOL     OW20561   3.269   3.294   1.710  0.4727 -0.0512  0.2874
38242SOL    HW120562   3.195   3.234   1.711 -1.0753  1.7701  0.1837
38242SOL    HW220563   3.271   3.332   1.798  0.9921  0.2687  0.1445
38243SOL     OW20564   5.216   0.196   2.719 -0.5758  0.1358 -0.3765
38243SOL    HW120565   5.285   0.164   2.661 -1.3410 -0.0569 -1.2084
38243SOL    HW220566   5.178   0.117   2.757 -1.1499  0.1523 -0.8921
38244SOL     OW20567  10.526   5.562   2.373 -0.0783 -0.1375 -0.0419
38244SOL    HW120568  10.561   5.649   2.393 -0.6489 -0.4220  2.5433
38244SOL    HW220569  10.443   5.558   2.420 -0.6231 -1.6924 -1.0706
38245SOL     OW20570   4.221   8.217   7.372  0.0006 -0.4373 -0.0578
38245SOL    HW120571   4.239   8.123   7.371  2.2126 -0.0717 -1.0044
38245SOL    HW220572   4.257   8.249   7.290 -2.2393  1.0328 -0.5489
38246SOL     OW20573   9.189   1.875   9.279 -0.0122 -0.4961  0.1303
38246SOL    HW120574   9.254   1.917   9.224  0.3061 -0.6765  0.3650
38246SOL    HW220575   9.210   1.781   9.274 -0.4883 -0.5933 -0.0984
38247SOL     OW20576   1.821   6.337   3.309 -0.4596  0.6070  0.2134
38247SOL    HW120577   1.768   6.356   3.386  0.6253  1.0207  0.8845
38247SOL    HW220578   1.857   6.250   3.324 -1.2305  0.1694 -0.4149
38248SOL     OW20579   0.078   4.258  10.190  0.1199  0.4256 -0.3525
38248SOL    HW120580   0.169   4.230  10.190  0.2517  0.8488 -0.3074
38248SOL    HW220581   0.040   4.219  10.112 -0.0871 -1.1186  0.4689
38249SOL     OW20582   2.090  10.543   3.796  0.5569  0.2286 -0.1377
38249SOL    HW120583   2.166  10.601   3.794  0.0847  0.8383 -0.6822
38249SOL    HW220584   2.020  10.596   3.835 -0.0146  0.2068 -1.1110
38250SOL     OW20585   7.659   3.829   0.634 -0.3578 -0.4584 -0.1748
38250SOL    HW120586   7.573   3.868   0.648 -0.5449  0.0526 -2.4136
38250SOL    HW220587   7.651   3.740   0.667 -1.2790  0.0284  0.9763
38251SOL     OW20588   6.121   7.823   0.614  0.3704 -0.7355  0.5535
38251SOL    HW120589   6.167   7.787   0.690  0.3183 -0.3546  0.7692
38251SOL    HW220590   6.094   7.747   0.564  1.0439 -0.9699  0.5387
38252SOL     OW20591   4.988   9.830   2.096  0.1495 -0.2377  0.1310
38252SOL    HW120592   4.893   9.833   2.095  0.0582 -1.9404 -1.1232
38252SOL    HW220593   5.010   9.776   2.172  0.1959  1.0792  1.0846
38253SOL     OW20594   5.402   3.617   6.170 -0.0991  0.2153  0.0351
38253SOL    HW120595   5.374   3.574   6.250  0.6627 -1.0285 -0.3322
38253SOL    HW220596   5.416   3.546   6.108  1.2134  0.9794 -0.5961
38254SOL     OW20597   5.431   6.051  10.295  0.1642 -0.0446 -0.0225
38254SOL    HW120598   5.446   6.142  10.319 -1.2157 -0.1094  1.2571
38254SOL    HW220599   5.442   6.049  10.200 -0.2734  1.5634 -0.1372
38255SOL     OW20600   0.491   1.747   4.149  0.3118 -0.1444 -0.3514
38255SOL    HW120601   0.482   1.654   4.128 -1.4504 -0.2566  0.6389
38255SOL    HW220602   0.444   1.757   4.232 -0.1897  1.7669 -0.8122
38256SOL     OW20603   2.928   7.179   5.244  0.6219  0.1289  0.4299
38256SOL    HW120604   2.849   7.232   5.232  1.1577  1.4134  2.2663
38256SOL    HW220605   2.903   7.092   5.211 -0.7870  1.0706 -1.1434
38257SOL     OW20606   9.533   8.333   6.433  0.1909 -0.0925 -0.6082
38257SOL    HW120607   9.581   8.253   6.453  0.4256  0.1706 -0.0691
38257SOL    HW220608   9.600   8.402   6.436  0.0653  0.0792 -1.4572
38258SOL     OW20609   9.227   5.042   9.226  0.4834 -0.3511 -0.4423
38258SOL    HW120610   9.131   5.041   9.224  0.4968 -0.2934 -1.0750
38258SOL    HW220611   9.248   5.048   9.319 -0.1398  1.0570 -0.3777
38259SOL     OW20612   4.711   8.053  10.662 -0.2808  0.2094 -0.0047
38259SOL    HW120613   4.722   8.113  10.736  1.6493  0.2787 -0.3054
38259SOL    HW220614   4.632   8.004  10.682 -1.0146  1.7481  1.0305
38260SOL     OW20615   9.284   9.749   3.184 -0.1680  0.1769 -0.5498
38260SOL    HW120616   9.212   9.786   3.132 -0.8384  2.0497  1.5524
38260SOL    HW220617   9.359   9.751   3.125 -1.7835 -2.1792 -2.9584
38261SOL     OW20618   7.941   9.999   8.303 -0.3909 -0.7122  0.2139
38261SOL    HW120619   7.881   9.928   8.281 -1.2370 -0.3933  1.4272
38261SOL    HW220620   7.955  10.044   8.220 -0.0238 -2.1278 -0.5387
38262SOL     OW20621   6.452   6.292   0.386  0.1431  0.5070 -0.4867
38262SOL    HW120622   6.457   6.203   0.422  0.2699  0.6366 -0.1798
38262SOL    HW220623   6.533   6.334   0.414 -0.1340  0.8743 -0.2047
38263SOL     OW20624   0.430   9.875  10.121 -0.0446  0.4148  0.0261
38263SOL    HW120625   0.393   9.805  10.174  0.7145  0.0651  0.1061
38263SOL    HW220626   0.399   9.956  10.162 -0.7027  0.1299  0.0905
38264SOL     OW20627   4.563   3.500   7.409  0.2780 -0.0611  0.1831
38264SOL    HW120628   4.491   3.448   7.444  0.1045  0.2264  0.2528
38264SOL    HW220629   4.642   3.463   7.448  0.2507 -0.9354 -0.5556
38265SOL     OW20630   4.467   7.288   3.743  0.4490 -0.1502 -0.2246
38265SOL    HW120631   4.379   7.268   3.711 -0.5933  1.9773  1.1091
38265SOL    HW220632   4.502   7.204   3.773 -1.4942 -0.8878  0.0776
38266SOL     OW20633   2.954   4.903   4.906 -0.0781  0.4145  0.8793
38266SOL    HW120634   2.964   4.998   4.919 -0.7619  0.3306  2.2417
38266SOL    HW220635   2.861   4.892   4.885  0.2654  0.1524 -0.5946
38267SOL     OW20636   8.012   6.464   2.337  0.1011 -0.0069 -0.1793
38267SOL    HW120637   7.917   6.466   2.349  0.0431 -0.8484 -0.4045
38267SOL    HW220638   8.037   6.555   2.331 -0.6075  0.2554  0.5688
38268SOL     OW20639   6.451   4.190   5.625  0.8218 -0.5379 -0.0931
38268SOL    HW120640   6.376   4.131   5.624  1.1071 -0.9415  0.9849
38268SOL    HW220641   6.514   4.150   5.566  0.0844 -0.0147 -1.2885
38269SOL     OW20642   9.678  10.470  10.548  0.2238  0.4158  0.2242
38269SOL    HW120643   9.625  10.504  10.476 -0.7519 -0.6395  0.4348
38269SOL    HW220644   9.621  10.409  10.594  1.0890  0.4914  1.4435
38270SOL     OW20645   5.766   6.918   7.963  0.0645 -0.5393 -0.3550
38270SOL    HW120646   5.815   6.941   7.884 -2.0484 -0.5992 -1.7281
38270SOL    HW220647   5.831   6.876   8.019  2.4345  2.3274 -0.6517
38271SOL     OW20648   6.085   8.386   8.818 -0.5015  0.1375 -0.5483
38271SOL    HW120649   6.008   8.429   8.855  1.6069  2.5694  1.3736
38271SOL    HW220650   6.103   8.313   8.877  0.0097  1.0677  0.4973
38272SOL     OW20651   7.228   1.963  10.080 -0.2629  0.4892  0.2934
38272SOL    HW120652   7.316   1.937  10.053 -0.3795 -0.6822  0.9698
38272SOL    HW220653   7.178   1.882  10.080 -0.5579  0.6032  2.8499
38273SOL     OW20654   2.555   2.474   1.305 -0.4021 -0.1026  0.3384
38273SOL    HW120655   2.603   2.440   1.230 -0.9039  0.4379 -0.2436
38273SOL    HW220656   2.463   2.471   1.278 -0.5172  1.0169  0.5495
38274SOL     OW20657   0.690   8.557   8.532 -0.2587 -0.0005  0.1613
38274SOL    HW120658   0.770   8.529   8.488 -0.8034 -0.6808 -0.4053
38274SOL    HW220659   0.627   8.486   8.518 -1.2511  0.9089 -0.1809
38275SOL     OW20660   2.680   4.758   1.346 -0.5792 -0.0517  0.2577
38275SOL    HW120661   2.670   4.809   1.426 -0.5288 -1.4996  1.2390
38275SOL    HW220662   2.763   4.712   1.357 -1.0626 -1.0568 -0.1525
38276SOL     OW20663   9.226  10.282   8.444  0.1056  0.2055 -0.2104
38276SOL    HW120664   9.291  10.352   8.445 -1.3138  1.6419 -1.7599
38276SOL    HW220665   9.214  10.260   8.537 -0.0356  2.6879  0.4502
38277SOL     OW20666   6.904   0.567   7.661 -0.3754  0.2404  0.4344
38277SOL    HW120667   6.868   0.555   7.573  2.9856  0.0443 -1.0262
38277SOL    HW220668   6.831   0.545   7.719 -3.1874  1.7655 -2.2126
38278SOL     OW20669   0.605   9.408   7.814 -0.2029  0.3395  0.2939
38278SOL    HW120670   0.683   9.398   7.760 -0.2957 -0.1134  0.2423
38278SOL    HW220671   0.598   9.326   7.862 -0.5822  0.4222  0.3855
38279SOL     OW20672   7.525   6.677   2.641 -0.3201  0.3812  0.3874
38279SOL    HW120673   7.608   6.694   2.596 -0.0701 -0.1630  0.6443
38279SOL    HW220674   7.528   6.585   2.663 -1.9844 -0.2435 -1.6226
38280SOL     OW20675   6.748   1.658   0.152 -0.0958  0.3567  0.8988
38280SOL    HW120676   6.732   1.658   0.247  0.1123  0.1832  0.9348
38280SOL    HW220677   6.823   1.600   0.141 -2.0797 -2.2884  0.3181
38281SOL     OW20678   6.564  10.069   4.712  0.1955 -0.1104 -0.1941
38281SOL    HW120679   6.520  10.067   4.627  0.9078  1.0102 -0.6179
38281SOL    HW220680   6.524   9.998   4.762  2.2182 -3.2265 -2.6428
38282SOL     OW20681   3.705   9.131   1.702  0.1654  0.3671 -0.4715
38282SOL    HW120682   3.650   9.188   1.649 -1.4559 -1.2269 -0.6313
38282SOL    HW220683   3.661   9.128   1.787  1.0300  0.4996 -0.0186
38283SOL     OW20684   4.080   2.366   9.561 -0.1167  0.2437 -0.4549
38283SOL    HW120685   4.139   2.351   9.635  0.1779 -1.0079 -0.9133
38283SOL    HW220686   3.992   2.360   9.600  0.0272  1.3995  0.0971
38284SOL     OW20687   2.221   8.285   6.664  0.2691  0.3125 -0.4928
38284SOL    HW120688   2.149   8.239   6.708 -0.3464  0.2817 -1.5011
38284SOL    HW220689   2.296   8.272   6.722 -0.3905 -0.1539  0.2933
38285SOL     OW20690   5.004   3.882   9.485 -0.1228  0.2724 -0.5515
38285SOL    HW120691   4.952   3.832   9.548  2.5950  0.3499  1.9477
38285SOL    HW220692   4.960   3.966   9.478 -1.4617 -0.3773 -0.1772
38286SOL     OW20693   7.249   3.742   0.166 -0.7289 -0.0676  0.2395
38286SOL    HW120694   7.236   3.806   0.096 -3.1976  0.9257  1.5055
38286SOL    HW220695   7.203   3.664   0.136 -1.1444  0.1065  0.4196
38287SOL     OW20696   9.593   1.231   7.468  0.5525 -0.5371 -0.7561
38287SOL    HW120697   9.678   1.199   7.436  1.1650  0.1334  0.1451
38287SOL    HW220698   9.582   1.187   7.553  1.1053  1.1245  0.2069
38288SOL     OW20699   3.574   6.413   2.034 -0.3034  0.8563  0.3622
38288SOL    HW120700   3.506   6.346   2.036  1.7969 -1.4032 -0.4122
38288SOL    HW220701   3.534   6.485   1.985 -2.0672 -0.4415 -0.2385
38289SOL     OW20702   4.062   0.853   6.373 -0.1433 -0.3508 -0.2895
38289SOL    HW120703   4.156   0.865   6.384 -0.1731 -1.0308  0.7648
38289SOL    HW220704   4.025   0.941   6.381  0.3293 -0.1823  0.0167
38290SOL     OW20705   6.588  10.002   7.422  0.0531 -0.1276  0.0626
38290SOL    HW120706   6.652  10.002   7.492  0.1283 -1.6585  0.0314
38290SOL    HW220707   6.639  10.015   7.342  0.2170 -0.3429  0.1295
38291SOL     OW20708   4.477   0.240   2.961 -0.7398 -0.6853 -0.2343
38291SOL    HW120709   4.566   0.253   2.993 -0.2553 -0.8408 -1.4617
38291SOL    HW220710   4.436   0.183   3.026 -1.1032  2.1230  2.2223
38292SOL     OW20711   2.821   2.276   2.812 -0.2393 -0.1737  0.5128
38292SOL    HW120712   2.739   2.261   2.765 -0.3322 -0.4289  0.7491
38292SOL    HW220713   2.824   2.370   2.826 -0.8995 -0.2487  1.2144
38293SOL     OW20714   3.117   1.819  10.744  0.1983  0.3910  0.6397
38293SOL    HW120715   3.037   1.782  10.781  1.0358 -0.2197  1.9191
38293SOL    HW220716   3.128   1.774  10.660 -1.1970  1.0596  0.0631
38294SOL     OW20717   1.032   2.427   8.208  0.4061  0.5349 -0.4644
38294SOL    HW120718   0.953   2.480   8.213 -1.9318 -2.7766  2.9475
38294SOL    HW220719   1.030   2.388   8.121 -2.8863 -0.8766  0.1267
38295SOL     OW20720   1.021   1.236   7.550  0.0553  0.3085 -0.3085
38295SOL    HW120721   1.061   1.179   7.484 -2.5284  0.0882 -1.8122
38295SOL    HW220722   1.081   1.310   7.557  0.7074  0.0646 -2.5117
38296SOL     OW20723   3.109   9.998   1.002  0.1958 -0.5608  0.0472
38296SOL    HW120724   3.161   9.949   0.937 -1.4034 -0.9197 -1.0255
38296SOL    HW220725   3.050   9.933   1.039  0.2283 -0.0820  0.9560
38297SOL     OW20726   7.624   1.627   2.931 -0.5181  0.0527  0.3141
38297SOL    HW120727   7.531   1.623   2.907 -0.5543 -0.2206  0.5025
38297SOL    HW220728   7.624   1.639   3.026 -0.3517 -1.4630  0.5323
38298SOL     OW20729   1.272   4.089   0.546 -0.0424 -0.1675 -0.0546
38298SOL    HW120730   1.213   4.163   0.562 -0.3544 -0.2560 -0.7282
38298SOL    HW220731   1.359   4.126   0.549 -0.1084 -0.0929  1.2835
38299SOL     OW20732   8.486   4.099   5.644  0.5947 -0.1925 -0.0138
38299SOL    HW120733   8.402   4.139   5.621  0.8293 -0.6348 -1.7499
38299SOL    HW220734   8.534   4.170   5.688 -0.6259  0.0883  0.9174
38300SOL     OW20735  10.853   5.574   5.064  0.1605  0.3174 -0.3155
38300SOL    HW120736  10.939   5.545   5.094  0.0642 -0.8876 -1.1448
38300SOL    HW220737  10.824   5.507   5.003 -1.9103  0.0533  0.8340
38301SOL     OW20738   7.058   7.523   9.467  0.7358 -0.8753 -0.1222
38301SOL    HW120739   7.121   7.520   9.395 -1.7917 -1.3449 -2.4529
38301SOL    HW220740   7.050   7.432   9.496  0.7271 -0.8954 -0.1881
38302SOL     OW20741  10.096   3.887   8.133  0.0366  0.0892 -0.0646
38302SOL    HW120742  10.008   3.925   8.132 -0.1193 -0.2495  0.4949
38302SOL    HW220743  10.149   3.951   8.180  0.6002  1.3680 -2.3245
38303SOL     OW20744  10.165   9.472   9.656  0.3189 -0.6993  0.0467
38303SOL    HW120745  10.250   9.485   9.615  0.2871  2.9280  0.7891
38303SOL    HW220746  10.132   9.561   9.671 -3.8145 -1.9211 -0.5883
38304SOL     OW20747   4.547   0.169   1.003  0.5805  0.1190 -0.6531
38304SOL    HW120748   4.567   0.076   1.013  1.4330  0.5862  3.6074
38304SOL    HW220749   4.632   0.209   0.981  0.5802  0.1160 -0.6603
38305SOL     OW20750   3.739   6.847   6.020 -0.4531  0.1788  0.4756
38305SOL    HW120751   3.669   6.837   6.085  0.2921  2.0741  1.6359
38305SOL    HW220752   3.753   6.941   6.012  0.9825 -0.0902 -0.8238
38306SOL     OW20753   6.538   2.695   9.419  0.0332 -0.0300  0.1854
38306SOL    HW120754   6.495   2.615   9.448 -0.5881 -1.0970 -3.2340
38306SOL    HW220755   6.559   2.742   9.500  0.0014 -3.3682  2.3174
38307SOL     OW20756   1.111   3.585   2.525 -0.0134  0.2640 -0.7736
38307SOL    HW120757   1.046   3.576   2.594 -0.4935 -1.0346 -1.3574
38307SOL    HW220758   1.078   3.657   2.471 -0.7843 -0.1411 -0.8582
38308SOL     OW20759   2.250   9.237   7.429 -0.3245  0.1057  0.7369
38308SOL    HW120760   2.307   9.225   7.506  3.0879  0.2013 -1.5411
38308SOL    HW220761   2.235   9.148   7.396 -0.1874  0.1789  0.4744
38309SOL     OW20762   6.720   5.154   9.224  0.4176  0.2438  0.2460
38309SOL    HW120763   6.769   5.075   9.202 -0.9662 -0.4814 -0.3829
38309SOL    HW220764   6.709   5.199   9.140 -0.7858 -0.0926  0.2098
38310SOL     OW20765   5.140   1.053  10.264 -0.0878  0.0098  0.3572
38310SOL    HW120766   5.235   1.066  10.268 -0.1894  0.5934  0.8213
38310SOL    HW220767   5.120   1.058  10.170  0.3581 -0.2700  0.2423
38311SOL     OW20768   8.751   6.112   5.417  0.7144  0.1613 -0.3653
38311SOL    HW120769   8.731   6.201   5.444  1.7380 -0.4164  2.6169
38311SOL    HW220770   8.842   6.098   5.443  1.0023 -1.3716 -1.9822
38312SOL     OW20771  10.427   6.330   6.896  0.2417  1.1229 -0.5696
38312SOL    HW120772  10.389   6.360   6.813 -0.9427  0.3599 -0.3250
38312SOL    HW220773  10.459   6.242   6.878  1.3839  1.5395 -0.6131
38313SOL     OW20774   2.911   1.148   8.558 -0.1788  0.1997  0.1222
38313SOL    HW120775   2.998   1.174   8.530 -0.2217 -1.0239 -1.2688
38313SOL    HW220776   2.921   1.121   8.649  0.9563 -0.2124 -0.1177
38314SOL     OW20777   6.162   7.041   1.711 -0.3302 -0.1532  0.6645
38314SOL    HW120778   6.086   7.017   1.763 -0.9204  2.1940  1.0136
38314SOL    HW220779   6.144   7.007   1.623 -0.6950 -1.5648  1.2592
38315SOL     OW20780   4.652   7.551   0.723 -0.3369  0.3441 -0.1227
38315SOL    HW120781   4.620   7.489   0.657 -2.0590 -1.3750  2.1496
38315SOL    HW220782   4.732   7.587   0.685  0.3975 -2.7811 -1.9068
38316SOL     OW20783   4.214   2.492   8.627 -0.2025  0.2101 -0.2894
38316SOL    HW120784   4.226   2.576   8.581 -0.9549  0.0867 -0.7363
38316SOL    HW220785   4.252   2.427   8.568  3.1377  0.4742  1.3616
38317SOL     OW20786   7.222   2.921  10.477 -0.3352 -0.2299  0.0763
38317SOL    HW120787   7.151   2.857  10.467 -0.5021 -0.7227  3.4364
38317SOL    HW220788   7.178   3.006  10.475 -0.8028 -0.4576  0.5457
38318SOL     OW20789   0.172   1.881   0.731 -0.2737 -0.0157 -0.5992
38318SOL    HW120790   0.112   1.942   0.690  0.7156  0.5501 -1.2420
38318SOL    HW220791   0.116   1.824   0.784 -1.0456  3.1578  2.3658
38319SOL     OW20792  10.779   2.318   9.145 -0.2060  0.0438 -0.4157
38319SOL    HW120793  10.835   2.241   9.157 -0.1190  0.1465 -0.1676
38319SOL    HW220794  10.838   2.393   9.154 -0.5350  0.1775  0.7322
38320SOL     OW20795  10.522   9.670   8.252  0.5923  0.1211 -0.1327
38320SOL    HW120796  10.499   9.730   8.180  0.0759 -1.3733 -1.2753
38320SOL    HW220797  10.581   9.720   8.307 -2.0125  2.7051  0.5796
38321SOL     OW20798   0.773   6.375   0.623  0.8700 -0.0308  0.0870
38321SOL    HW120799   0.851   6.381   0.567  0.8410  0.9701  0.1384
38321SOL    HW220800   0.770   6.283   0.650  1.1444 -0.4254 -1.1772
38322SOL     OW20801   4.118   5.065   1.350 -0.2151 -0.3927  0.5383
38322SOL    HW120802   4.108   5.019   1.434 -0.7391 -0.9621  0.1772
38322SOL    HW220803   4.213   5.070   1.336 -0.0771  0.9328  1.8126
38323SOL     OW20804   1.954   3.856   4.740  0.1792 -0.4702  0.5036
38323SOL    HW120805   1.927   3.813   4.821 -0.6735 -0.6684  0.1281
38323SOL    HW220806   1.939   3.790   4.672 -1.7893  0.5781 -0.1790
38324SOL     OW20807   5.764   3.735   0.915 -0.1612  0.7151 -0.8175
38324SOL    HW120808   5.840   3.784   0.944  0.6651 -1.3124  0.7176
38324SOL    HW220809   5.775   3.727   0.820  2.7815 -1.2924 -0.4491
38325SOL     OW20810  10.356   5.430   5.406  0.2525  0.2592  0.3667
38325SOL    HW120811  10.278   5.448   5.354  0.5089 -1.1955 -0.5617
38325SOL    HW220812  10.423   5.408   5.341  1.2329  0.7364  1.1965
38326SOL     OW20813   2.873   4.545   6.696 -0.5413 -0.1446 -0.3734
38326SOL    HW120814   2.944   4.587   6.647 -0.5570 -2.0054 -2.1498
38326SOL    HW220815   2.917   4.482   6.753 -0.6340  0.8528  0.8503
38327SOL     OW20816   5.437   4.069   0.825  0.0271  0.2706 -0.0055
38327SOL    HW120817   5.476   4.064   0.738 -0.9927  0.0434 -0.4623
38327SOL    HW220818   5.502   4.116   0.878  1.1270 -0.5421 -0.6008
38328SOL     OW20819   3.889   6.589   9.287 -0.0965 -0.0689  0.1523
38328SOL    HW120820   3.977   6.623   9.299 -0.7658  1.3121  1.3091
38328SOL    HW220821   3.868   6.609   9.196  0.8027 -0.4982 -0.1604
38329SOL     OW20822   0.885  10.427   3.389  0.4146 -0.1812 -0.0646
38329SOL    HW120823   0.800  10.465   3.411  2.0783  2.4885  2.5293
38329SOL    HW220824   0.893  10.439   3.294 -1.0855  1.8403 -0.0080
38330SOL     OW20825   5.582   7.475   7.765  0.4323  0.0752  0.1302
38330SOL    HW120826   5.646   7.490   7.695 -2.5518  0.0369 -2.8708
38330SOL    HW220827   5.579   7.379   7.774  0.7938  0.0784  0.3128
38331SOL     OW20828  10.344   0.559   9.925  0.3261 -0.1547 -0.4231
38331SOL    HW120829  10.295   0.493   9.877  1.9187 -0.7150 -1.3201
38331SOL    HW220830  10.413   0.588   9.865  1.7189 -0.1062  1.1263
38332SOL     OW20831   3.492   2.655   2.569  0.3063  0.5962  0.1519
38332SOL    HW120832   3.476   2.747   2.546  0.4008  0.6281  0.2164
38332SOL    HW220833   3.571   2.632   2.521  0.2361  0.5246  0.0713
38333SOL     OW20834   2.321   0.451   9.793  0.0486 -0.0138 -0.6757
38333SOL    HW120835   2.351   0.437   9.703 -2.5033 -0.0005 -1.6048
38333SOL    HW220836   2.258   0.523   9.787  1.0518  1.1624  1.4491
38334SOL     OW20837   7.950   4.891   5.333 -0.2046 -0.0128  0.0720
38334SOL    HW120838   8.010   4.962   5.312  0.2021 -0.6027 -0.7875
38334SOL    HW220839   7.863   4.928   5.320 -0.0164 -0.4616 -3.3300
38335SOL     OW20840  10.756   4.837  10.375  0.2142  0.4808 -0.4461
38335SOL    HW120841  10.789   4.923  10.398  0.5545  0.1681  0.2515
38335SOL    HW220842  10.791   4.821  10.287 -0.6055  1.4293 -0.9559
38336SOL     OW20843   6.445   4.579   5.018  0.0514 -0.1571 -0.1247
38336SOL    HW120844   6.385   4.510   5.045  0.3109 -0.2803  0.1358
38336SOL    HW220845   6.390   4.640   4.969 -0.4590  0.1778  0.8550
38337SOL     OW20846   2.486   1.929  10.043  0.7470  0.2668  0.4360
38337SOL    HW120847   2.506   1.839  10.016 -1.3117 -0.0432 -0.2309
38337SOL    HW220848   2.546   1.983   9.992  0.3757 -0.6125 -0.9924
38338SOL     OW20849   5.659   3.972   8.443 -0.3037  0.3364 -0.0811
38338SOL    HW120850   5.582   4.030   8.445 -0.5797 -0.0439  0.4294
38338SOL    HW220851   5.672   3.945   8.534  0.4083  0.3556 -0.1694
38339SOL     OW20852   1.868   7.620   1.162  1.0085  0.4065  0.8347
38339SOL    HW120853   1.897   7.585   1.246  2.2774  1.3671  0.8170
38339SOL    HW220854   1.840   7.709   1.181  0.3508  0.3014  0.4038
38340SOL     OW20855   6.637   0.506   5.302 -0.2931 -0.1280  0.1798
38340SOL    HW120856   6.681   0.590   5.310  1.7745 -0.9093 -2.0136
38340SOL    HW220857   6.551   0.527   5.266  0.2937  1.0616 -0.5753
38341SOL     OW20858   0.933   6.734   1.701 -0.1753  0.2642  0.3883
38341SOL    HW120859   1.021   6.773   1.707  0.0833  0.0096 -1.1978
38341SOL    HW220860   0.950   6.642   1.678 -0.8437  0.6033 -1.6711
38342SOL     OW20861   5.872   3.922   4.571 -0.4614  0.1870  0.0277
38342SOL    HW120862   5.844   4.012   4.553 -0.3531  0.6552  1.9224
38342SOL    HW220863   5.951   3.932   4.624 -0.7154 -1.0159  0.6686
38343SOL     OW20864   3.244   7.274   0.669  0.0599  0.0087  0.1600
38343SOL    HW120865   3.180   7.327   0.622  1.4316  1.2294 -0.4160
38343SOL    HW220866   3.243   7.308   0.758 -0.7501 -0.6336  0.4163
38344SOL     OW20867   3.944   7.755   4.863 -0.1527 -0.1199  0.6349
38344SOL    HW120868   3.953   7.760   4.958  0.0746  2.3063  0.5724
38344SOL    HW220869   3.874   7.818   4.843  1.8816  1.8206 -0.9579
38345SOL     OW20870   8.225   3.859   6.681 -0.0783 -0.3745  0.2387
38345SOL    HW120871   8.281   3.833   6.753 -0.0303  0.0887  0.3751
38345SOL    HW220872   8.144   3.889   6.723 -0.0464 -0.0950  0.1038
38346SOL     OW20873   5.962   7.224   9.004  0.4588  0.0364 -0.3275
38346SOL    HW120874   5.912   7.218   8.923 -0.1098  0.9380 -0.0588
38346SOL    HW220875   5.990   7.134   9.022 -2.2410 -0.7944  0.2407
38347SOL     OW20876   4.414   8.000   8.635  0.0950 -0.1732 -0.0889
38347SOL    HW120877   4.463   8.042   8.706 -0.1601  0.6798 -0.4102
38347SOL    HW220878   4.404   7.909   8.664  0.0280  0.1502  0.9525
38348SOL     OW20879   5.374   2.936   8.922  0.2293 -0.3079  0.0338
38348SOL    HW120880   5.395   2.959   9.013  0.5692  3.2241 -0.7989
38348SOL    HW220881   5.280   2.918   8.923  0.2416 -0.3747  1.0724
38349SOL     OW20882   0.210   8.673   2.888 -0.7907  0.1074 -0.0293
38349SOL    HW120883   0.149   8.729   2.937  1.2759 -0.3593  3.3577
38349SOL    HW220884   0.258   8.734   2.832 -0.3610  1.4079  1.6718
38350SOL     OW20885   5.543   4.625   0.242 -0.0974  0.1512 -0.0580
38350SOL    HW120886   5.622   4.675   0.221 -1.2836  1.3998 -1.9536
38350SOL    HW220887   5.476   4.692   0.258 -1.2669 -0.8215 -0.6451
38351SOL     OW20888   0.104   0.549   4.316 -0.1208  0.1227 -0.2421
38351SOL    HW120889   0.024   0.559   4.369 -0.8736 -0.6695 -1.1847
38351SOL    HW220890   0.175   0.570   4.376 -0.8815 -1.5096  1.3494
38352SOL     OW20891   9.915   4.445   2.725 -0.0121  0.8511 -0.3824
38352SOL    HW120892   9.913   4.482   2.637  0.1430  0.5301 -0.5249
38352SOL    HW220893   9.834   4.474   2.766 -0.6999 -0.0478 -1.0671
38353SOL     OW20894   4.873   3.490   1.195 -0.2117 -0.0708 -0.3120
38353SOL    HW120895   4.809   3.516   1.129 -1.7390 -0.3132  1.0098
38353SOL    HW220896   4.935   3.563   1.198  0.7214 -0.6380 -2.9225
38354SOL     OW20897   4.076   0.691   5.039  0.2208 -0.4702 -0.6789
38354SOL    HW120898   4.119   0.605   5.050 -1.0467 -1.0600 -0.1866
38354SOL    HW220899   4.129   0.735   4.973  1.0808 -1.5105 -0.7221
38355SOL     OW20900   7.630   4.565   2.960 -0.4373  0.3817  0.2331
38355SOL    HW120901   7.608   4.652   2.927  0.8153  0.3348 -0.8004
38355SOL    HW220902   7.648   4.513   2.882  2.0228  0.0994  0.8981
38356SOL     OW20903   4.236   3.961   9.958 -0.1102  0.0539  0.9123
38356SOL    HW120904   4.282   4.005  10.029  2.3220 -1.5028  0.4112
38356SOL    HW220905   4.149   4.002   9.957  0.8862  2.4577  2.5703
38357SOL     OW20906   9.700   2.936   6.908  0.7465 -0.2836 -0.3070
38357SOL    HW120907   9.777   2.970   6.862  0.1242 -1.0057 -1.9957
38357SOL    HW220908   9.646   3.013   6.925  1.7793  0.2206  0.8427
38358SOL     OW20909   2.672   8.246   4.906  0.2960 -0.2706 -0.3273
38358SOL    HW120910   2.672   8.151   4.894  0.7752 -0.1572 -1.4310
38358SOL    HW220911   2.579   8.270   4.907  0.1733 -0.7356 -0.1388
38359SOL     OW20912   8.413   4.460   2.006 -0.4716  0.3630  0.3814
38359SOL    HW120913   8.389   4.515   1.931 -0.1919 -1.7382 -1.3645
38359SOL    HW220914   8.342   4.396   2.013  0.9004 -1.2927 -0.0596
38360SOL     OW20915   1.979   7.242   9.537 -0.0621 -0.5366 -0.0937
38360SOL    HW120916   1.978   7.330   9.574 -1.3856  0.0827 -1.4602
38360SOL    HW220917   2.069   7.229   9.507  0.2885  0.1067  0.6670
38361SOL     OW20918   6.083   1.329   2.179  0.5450  0.1604  0.1736
38361SOL    HW120919   6.112   1.400   2.235 -1.0933  0.7644  0.3228
38361SOL    HW220920   6.023   1.370   2.117 -0.6758 -1.1092  0.4591
38362SOL     OW20921   3.066  10.751   6.929 -0.1315  0.3303 -0.7098
38362SOL    HW120922   3.069  10.783   7.019 -1.7691  1.2627 -0.9580
38362SOL    HW220923   3.151  10.777   6.892 -0.6045  2.7032 -0.3098
38363SOL     OW20924  10.917   8.037   9.777 -0.4577  0.2675  0.0919
38363SOL    HW120925  10.905   7.980   9.853 -0.7812 -1.5991 -1.2809
38363SOL    HW220926  11.009   8.025   9.752  0.0315  1.9470  0.9657
38364SOL     OW20927   6.861  10.592   8.163  0.4311 -0.2438  0.7891
38364SOL    HW120928   6.893  10.664   8.217  0.2817 -1.3384  2.4110
38364SOL    HW220929   6.785  10.628   8.117  0.7355  0.8057  1.0775
38365SOL     OW20930   8.984   8.345   0.614 -0.1511 -0.1325  0.2727
38365SOL    HW120931   8.948   8.293   0.687 -0.6193  0.4951  0.4963
38365SOL    HW220932   9.031   8.416   0.657  1.9938 -1.3164 -0.0001
38366SOL     OW20933   1.903   1.756   3.954  0.3693 -0.5723 -0.3542
38366SOL    HW120934   1.978   1.728   4.007  0.7797 -1.1859 -1.2302
38366SOL    HW220935   1.932   1.838   3.914  0.0601 -0.1096  0.3474
38367SOL     OW20936   8.702   0.342   7.122 -0.4409 -0.2132  0.0081
38367SOL    HW120937   8.773   0.290   7.160  0.3820  0.2409 -0.8462
38367SOL    HW220938   8.746   0.421   7.090 -1.5895  0.7957  0.8601
38368SOL     OW20939   9.778   1.912   7.091 -0.3561 -0.3813 -0.4890
38368SOL    HW120940   9.861   1.948   7.123  0.0191 -1.7385  0.1349
38368SOL    HW220941   9.734   1.986   7.050  0.8421  0.5328 -0.1772
38369SOL     OW20942   3.196   0.170   0.538 -0.2144  0.4424 -0.2087
38369SOL    HW120943   3.155   0.203   0.459  2.1400  0.7215 -1.4220
38369SOL    HW220944   3.235   0.086   0.512  0.0887  0.2435  0.8241
38370SOL     OW20945   5.006   7.719   3.706  0.2948 -0.1406  0.2280
38370SOL    HW120946   4.996   7.698   3.799 -0.7052 -2.5664 -0.3718
38370SOL    HW220947   5.085   7.673   3.679  0.8020  0.8724 -0.0844
38371SOL     OW20948   9.040  10.479   0.455  0.1070  0.0442  0.7673
38371SOL    HW120949   8.953  10.517   0.471 -0.6395 -1.2179 -0.1635
38371SOL    HW220950   9.099  10.534   0.507 -0.9273  2.3594 -0.3380
38372SOL     OW20951   0.423   5.634   6.080 -0.2029 -0.3456  0.6460
38372SOL    HW120952   0.481   5.681   6.140  0.3146  0.6380 -0.5819
38372SOL    HW220953   0.358   5.593   6.137 -0.2786  1.3288  1.8400
38373SOL     OW20954   9.974   8.138   7.367 -0.7192 -0.0574  0.3174
38373SOL    HW120955   9.896   8.191   7.383 -0.4590 -0.2173  2.3261
38373SOL    HW220956   9.982   8.083   7.445  0.0749 -1.7419 -0.8889
38374SOL     OW20957  10.615   6.932   0.929 -0.2257 -0.1764 -0.2149
38374SOL    HW120958  10.604   6.917   0.835  1.1605  1.2370 -0.6364
38374SOL    HW220959  10.583   6.851   0.970  1.1686 -1.7123 -1.9969
38375SOL     OW20960   1.082  10.184   7.438  0.1994  0.8669  0.1924
38375SOL    HW120961   1.155  10.131   7.406  0.6307  0.7737  1.3029
38375SOL    HW220962   1.114  10.274   7.430  1.1052  0.7656  2.2003
38376SOL     OW20963   0.350   6.029   5.585  0.2718  0.2590 -0.3947
38376SOL    HW120964   0.298   6.094   5.538  2.8441  2.2007 -0.7551
38376SOL    HW220965   0.324   6.038   5.676  1.4399  2.7843 -0.2340
38377SOL     OW20966   7.991   7.952   6.250 -0.3267  0.3817 -0.3891
38377SOL    HW120967   7.959   7.910   6.329 -0.3961  1.5334  0.2132
38377SOL    HW220968   8.077   7.986   6.273  0.4088 -0.7644 -1.3402
38378SOL     OW20969   0.182   2.755  10.441  0.1749  0.2035  0.3011
38378SOL    HW120970   0.138   2.829  10.400  0.2185  0.4564  0.7027
38378SOL    HW220971   0.115   2.715  10.497 -0.0103 -0.4023 -0.3444
38379SOL     OW20972  10.221   4.598   1.760  0.0597 -0.4842 -0.1364
38379SOL    HW120973  10.237   4.543   1.838 -0.0259  0.1563  0.3394
38379SOL    HW220974  10.126   4.609   1.758  0.1503  0.5559  0.4190
38380SOL     OW20975   6.719   7.361   8.530  0.2013  0.4246 -0.3355
38380SOL    HW120976   6.743   7.271   8.508 -0.5361  0.4205 -1.1788
38380SOL    HW220977   6.774   7.415   8.472  0.8469  0.5420  0.3649
38381SOL     OW20978   2.845  10.347  10.844 -0.4515  0.4986  0.5268
38381SOL    HW120979   2.772  10.335  10.905 -1.3528 -0.0482 -0.6152
38381SOL    HW220980   2.879  10.259  10.828 -0.0502  0.6636  0.4564
38382SOL     OW20981   2.644   8.813  10.856  0.2255  0.2379 -0.3738
38382SOL    HW120982   2.619   8.893  10.811 -1.4719 -0.0514 -0.0255
38382SOL    HW220983   2.679   8.757  10.787 -1.8685 -0.0151 -1.3320
38383SOL     OW20984   2.912   0.335   2.426  0.4290 -0.6225  0.2353
38383SOL    HW120985   2.830   0.372   2.458  0.0405 -1.4696  0.2560
38383SOL    HW220986   2.979   0.397   2.455 -0.4608  1.9646 -2.7475
38384SOL     OW20987   6.961   2.774   6.011  0.0693 -0.0556 -0.2257
38384SOL    HW120988   6.982   2.771   6.105 -1.3582  0.4635  0.1352
38384SOL    HW220989   6.899   2.702   5.998 -0.2419  0.2880 -0.6440
38385SOL     OW20990   5.183   0.385   5.593  0.5496 -0.1822 -0.2657
38385SOL    HW120991   5.196   0.397   5.499  2.1663 -0.9372 -0.1723
38385SOL    HW220992   5.234   0.306   5.614  0.5812  0.2312  1.3186
38386SOL     OW20993   5.124   2.729   3.986  0.1841  0.1768  0.3323
38386SOL    HW120994   5.111   2.743   4.079 -0.6410  2.3019 -0.0363
38386SOL    HW220995   5.203   2.675   3.980  0.4286  0.2584  2.2375
38387SOL     OW20996   0.334   4.709   3.900  0.1615 -0.0182 -0.3170
38387SOL    HW120997   0.430   4.709   3.898  0.2118  0.5601  1.1452
38387SOL    HW220998   0.311   4.634   3.954 -0.2918 -1.0602 -1.8752
38388SOL     OW20999   8.622   0.139   0.198 -0.2524  0.1950  0.1321
38388SOL    HW121000   8.562   0.159   0.270  0.0481 -0.9551  0.7226
38388SOL    HW221001   8.691   0.086   0.238 -0.4156 -1.0074 -1.1181
38389SOL     OW21002   8.579   5.215   8.719 -0.3082 -0.2470  0.5788
38389SOL    HW121003   8.529   5.296   8.734 -0.9395 -0.5158  0.0061
38389SOL    HW221004   8.571   5.200   8.625  0.2596 -0.6921  0.6002
38390SOL     OW21005  10.219   6.043   8.727 -0.1556  0.0808 -0.0114
38390SOL    HW121006  10.135   6.014   8.763 -0.5981 -0.0985 -1.1387
38390SOL    HW221007  10.197   6.120   8.674  0.8509  1.9323  2.0966
38391SOL     OW21008   5.302   9.581   4.578  0.0414  0.0402  0.1367
38391SOL    HW121009   5.319   9.487   4.587 -0.8692 -0.2729 -1.1481
38391SOL    HW221010   5.242   9.601   4.650 -1.4109 -0.8287 -0.7871
38392SOL     OW21011   3.652   7.834   0.573  0.1340  0.0590 -0.4740
38392SOL    HW121012   3.619   7.849   0.662  2.3872  0.4732  0.3578
38392SOL    HW221013   3.613   7.751   0.546 -1.3664  0.4125  0.4800
38393SOL     OW21014  10.012   2.157   4.043  1.1566 -0.2455  0.0393
38393SOL    HW121015  10.017   2.235   3.988 -0.0690  0.1544  0.4486
38393SOL    HW221016  10.039   2.187   4.130 -1.8369  0.4820  0.8585
38394SOL     OW21017  10.861   5.269   3.341 -0.9694  0.1554 -0.0640
38394SOL    HW121018  10.773   5.263   3.303 -2.8834  1.3651  3.7289
38394SOL    HW221019  10.874   5.184   3.384 -0.5121  0.2288 -0.0529
38395SOL     OW21020   3.228   4.072   8.096  0.4645 -0.3556  0.2424
38395SOL    HW121021   3.143   4.108   8.071 -0.4896 -2.8627 -0.4826
38395SOL    HW221022   3.290   4.110   8.034 -0.5169 -0.1404 -0.6326
38396SOL     OW21023  10.160  10.783   7.560 -0.7418 -0.6782 -0.0008
38396SOL    HW121024  10.157  10.699   7.606  3.7066 -0.4576  1.0913
38396SOL    HW221025  10.130  10.847   7.625  0.7885 -0.9188  0.9742
38397SOL     OW21026  10.277   4.402   1.350 -0.6951 -0.2416 -0.2297
38397SOL    HW121027  10.210   4.471   1.342 -0.1572  0.2266 -0.7908
38397SOL    HW221028  10.350   4.445   1.394 -0.8624 -0.8310  0.6364
38398SOL     OW21029   3.719   1.589   0.115  0.5250  0.2251 -0.1485
38398SOL    HW121030   3.655   1.638   0.064 -0.5324 -1.1193 -0.1892
38398SOL    HW221031   3.767   1.538   0.049  0.3878 -0.1338  0.0223
38399SOL     OW21032  10.030   6.132  10.737 -0.6553  0.0038 -0.7694
38399SOL    HW121033  10.079   6.197  10.687  0.2308 -0.4156 -0.4562
38399SOL    HW221034   9.945   6.127  10.693  0.0522 -0.2463 -2.1475
38400SOL     OW21035   0.945   4.004   6.467 -0.4183 -0.1766  0.2069
38400SOL    HW121036   0.932   3.909   6.472  0.9130 -0.4348 -0.8127
38400SOL    HW221037   1.007   4.017   6.395  0.3770  1.3721  1.1118
38401SOL     OW21038   1.560   1.599   4.712 -0.4585 -0.6581  0.0824
38401SOL    HW121039   1.649   1.608   4.746  0.2451 -1.7122 -1.3675
38401SOL    HW221040   1.504   1.601   4.790  0.9095 -1.0017  1.1142
38402SOL     OW21041   7.888   9.327   7.938  0.3648  0.6771 -0.3859
38402SOL    HW121042   7.890   9.246   7.990 -0.2587  0.5878 -0.4867
38402SOL    HW221043   7.894   9.297   7.847  2.7796  0.9043 -0.3520
38403SOL     OW21044   3.155   1.513   6.738  0.3705 -0.4209 -0.0649
38403SOL    HW121045   3.071   1.468   6.743 -0.1701  0.3024 -1.8306
38403SOL    HW221046   3.148   1.585   6.800 -0.2669 -0.4395 -0.1128
38404SOL     OW21047   8.179   8.750  10.896 -0.4521  0.0637 -0.4470
38404SOL    HW121048   8.109   8.686  10.904 -0.0043 -0.2696  1.4497
38404SOL    HW221049   8.158   8.800  10.817 -0.8137 -2.3775 -1.9932
38405SOL     OW21050   1.193   8.722   4.902  0.2900  0.6794  0.1632
38405SOL    HW121051   1.209   8.813   4.926  0.9253  0.2901  1.3324
38405SOL    HW221052   1.261   8.673   4.949 -1.7338 -0.6674  1.8619
38406SOL     OW21053   1.116   7.760   8.904  0.4611 -0.2489 -0.4635
38406SOL    HW121054   1.160   7.715   8.832  1.4864 -0.2739  0.1593
38406SOL    HW221055   1.097   7.691   8.968 -0.1514 -0.1734 -0.5503
38407SOL     OW21056   0.253   1.150   5.801 -0.2852 -0.1898 -0.1231
38407SOL    HW121057   0.290   1.199   5.728  0.7615 -0.1812  0.3888
38407SOL    HW221058   0.171   1.115   5.768  0.0127  0.0988 -1.1926
38408SOL     OW21059   3.362   1.781   1.436  0.1130  0.0346 -0.0624
38408SOL    HW121060   3.428   1.733   1.487 -0.2367 -0.3221  0.0570
38408SOL    HW221061   3.404   1.865   1.415  1.3239 -0.9056 -1.5908
38409SOL     OW21062  10.877   5.114   2.567 -0.2279  0.0915  0.2342
38409SOL    HW121063  10.806   5.063   2.529  0.2034 -1.5256  1.4833
38409SOL    HW221064  10.893   5.074   2.652  1.0816  1.4553  0.6776
38410SOL     OW21065   3.324   7.051   0.346  0.1726 -0.6833  0.0201
38410SOL    HW121066   3.328   7.054   0.250  2.3264 -1.8234  0.0117
38410SOL    HW221067   3.239   7.009   0.365 -0.2327 -0.5515 -1.3773
38411SOL     OW21068   8.661   7.482   5.923 -0.7991 -0.0996  0.9105
38411SOL    HW121069   8.659   7.462   5.829  0.7268 -0.3712  0.9209
38411SOL    HW221070   8.591   7.428   5.960 -0.8674 -0.6199  0.0573
38412SOL     OW21071   8.106   9.569   7.741 -0.3213 -0.2706  1.0765
38412SOL    HW121072   8.062   9.582   7.657 -0.5948  0.7957  1.3691
38412SOL    HW221073   8.045   9.604   7.806  0.3461 -0.0924  1.6204
38413SOL     OW21074   4.457   0.938   5.033  0.0144  0.0413  0.3645
38413SOL    HW121075   4.487   0.860   4.986  0.6556 -0.2142  1.1742
38413SOL    HW221076   4.533   0.996   5.033 -0.7214  1.0819 -1.0259
38414SOL     OW21077   9.708   4.978   6.096  0.6121 -0.0229 -0.1379
38414SOL    HW121078   9.756   4.898   6.074  1.1104  0.5356 -1.1304
38414SOL    HW221079   9.654   4.953   6.171  0.7342 -1.2997 -0.4479
38415SOL     OW21080   0.234   9.471   4.143  0.1424 -0.1571 -0.0074
38415SOL    HW121081   0.322   9.460   4.179  1.4373 -0.7416 -3.0818
38415SOL    HW221082   0.177   9.421   4.203  1.9999 -0.6086  1.4847
38416SOL     OW21083   1.482   2.430   7.071  0.3381 -0.3644 -0.4687
38416SOL    HW121084   1.528   2.365   7.125 -1.3655 -0.8717  0.4358
38416SOL    HW221085   1.522   2.420   6.984 -1.1413 -4.1023 -0.9130
38417SOL     OW21086   6.424   3.657   5.920  0.2701  0.2895  0.0994
38417SOL    HW121087   6.429   3.600   5.997 -5.9908 -0.6015  0.3895
38417SOL    HW221088   6.420   3.746   5.956 -1.6661 -0.0582  0.8513
38418SOL     OW21089   1.169   9.895   2.468  0.3783  0.5329  0.1996
38418SOL    HW121090   1.197   9.985   2.489 -0.0159  0.3459  1.5809
38418SOL    HW221091   1.218   9.840   2.529  0.1558 -0.1530 -0.2328
38419SOL     OW21092   1.720  10.703   7.480  0.7614  0.0164  0.4710
38419SOL    HW121093   1.739  10.796   7.486  1.0393 -0.0479  0.5871
38419SOL    HW221094   1.803  10.662   7.455  0.0214  0.0996 -2.4104
38420SOL     OW21095   4.989   8.335   4.093 -0.5356  0.0381  0.1117
38420SOL    HW121096   4.912   8.392   4.090  0.1639  0.9817 -0.2455
38420SOL    HW221097   4.953   8.247   4.099 -1.6914  0.5694  2.9785
38421SOL     OW21098   2.372   3.811   5.604  0.3588  0.5549 -0.0623
38421SOL    HW121099   2.302   3.839   5.663 -0.1022  0.0831 -0.3823
38421SOL    HW221100   2.340   3.731   5.564  1.4719 -0.1804  0.4803
38422SOL     OW21101   6.859   4.545   3.617  0.4892 -0.0476 -0.2145
38422SOL    HW121102   6.777   4.525   3.661  0.5272  0.1379 -0.0572
38422SOL    HW221103   6.838   4.619   3.559  0.8864  1.0025  0.9316
38423SOL     OW21104   7.514   8.362   2.774  0.2357  0.0732  0.2178
38423SOL    HW121105   7.531   8.376   2.680  1.2052 -0.5332  0.2915
38423SOL    HW221106   7.430   8.404   2.789 -0.1078 -0.1266 -1.0076
38424SOL     OW21107   8.935  10.602   5.042 -0.2496  0.7150  0.1504
38424SOL    HW121108   8.840  10.593   5.051 -0.1031  0.7003  2.1983
38424SOL    HW221109   8.956  10.552   4.963 -1.7531 -0.7294  0.5895
38425SOL     OW21110   6.650   8.935  10.104  0.3224  0.0400 -0.4789
38425SOL    HW121111   6.642   8.843  10.128  0.4802  0.1791  0.1274
38425SOL    HW221112   6.590   8.946  10.029  0.2179 -0.5226 -0.4811
38426SOL     OW21113   6.394   3.804   0.523 -0.4795  0.6772  0.5914
38426SOL    HW121114   6.427   3.714   0.530  2.0026  1.1623 -2.6053
38426SOL    HW221115   6.301   3.793   0.502 -0.4762 -1.0875  1.3171
38427SOL     OW21116   0.486   6.995   4.543 -0.4192 -0.1918  0.3001
38427SOL    HW121117   0.537   6.983   4.463  0.9991 -0.1197  1.1616
38427SOL    HW221118   0.404   7.035   4.513 -0.5888 -1.5902 -1.2865
38428SOL     OW21119   3.201  10.850   9.531 -0.2725  0.1620  0.2399
38428SOL    HW121120   3.192  10.934   9.576 -0.9150 -0.1099  0.6273
38428SOL    HW221121   3.116  10.808   9.542 -0.2372 -0.1681 -0.7139
38429SOL     OW21122   6.755   8.699  10.771  0.0889 -0.2536  0.1749
38429SOL    HW121123   6.708   8.664  10.847  0.7642  0.0535  0.7353
38429SOL    HW221124   6.749   8.629  10.706 -1.5217 -0.0626  0.0627
38430SOL     OW21125   4.440  10.463   3.570 -0.0928  0.0768  0.0415
38430SOL    HW121126   4.451  10.403   3.644 -1.2215  1.1023  1.1038
38430SOL    HW221127   4.355  10.439   3.533  0.4706 -0.4333 -0.9485
38431SOL     OW21128   5.713   1.979   5.900  0.7348  1.0563 -0.2596
38431SOL    HW121129   5.629   1.996   5.856  0.4799  0.3633 -0.0566
38431SOL    HW221130   5.771   2.049   5.869  0.0846  1.5371 -0.4063
38432SOL     OW21131   7.995  10.203   6.226  0.2410 -0.6511 -0.0854
38432SOL    HW121132   7.900  10.191   6.228  0.1825 -0.1643  1.8405
38432SOL    HW221133   8.020  10.185   6.135 -1.6580 -0.9707 -0.5749
38433SOL     OW21134   1.824   9.318   0.330  0.5720 -0.3243  0.3788
38433SOL    HW121135   1.915   9.301   0.306  0.2735 -1.4053 -0.0500
38433SOL    HW221136   1.772   9.277   0.260 -0.2484 -0.2136  0.9045
38434SOL     OW21137   7.768  10.317   1.356  0.3716  0.0510 -0.3304
38434SOL    HW121138   7.780  10.224   1.373  0.1965  0.4115  2.0878
38434SOL    HW221139   7.693  10.321   1.296  1.0292 -1.3749 -1.2999
38435SOL     OW21140   0.059   7.778   3.833  0.4472 -0.3156  0.2626
38435SOL    HW121141  -0.016   7.719   3.821 -0.4432  0.7053  0.6277
38435SOL    HW221142   0.074   7.815   3.747 -2.3354  2.7635  0.8936
38436SOL     OW21143  10.814   8.292   4.594 -0.1632 -0.1307 -0.1503
38436SOL    HW121144  10.875   8.228   4.630  1.0214  0.7822 -0.4431
38436SOL    HW221145  10.751   8.308   4.664  0.6759 -0.1833  0.6321
38437SOL     OW21146   1.370   0.556  10.723  0.2147 -0.2726  0.1211
38437SOL    HW121147   1.348   0.515  10.807  1.9625  0.9507  1.2771
38437SOL    HW221148   1.337   0.645  10.731 -3.3231 -1.1568 -2.2541
38438SOL     OW21149   2.878   0.670   3.384  0.4269  0.2419 -0.4842
38438SOL    HW121150   2.815   0.722   3.334  1.3168  2.2459  0.3220
38438SOL    HW221151   2.957   0.671   3.331  0.4816 -0.1993 -0.4099
38439SOL     OW21152   2.469  10.014   3.320 -0.7827 -0.1527 -0.0996
38439SOL    HW121153   2.483  10.083   3.385  0.6574 -0.4118 -0.1053
38439SOL    HW221154   2.515  10.044   3.242  2.1334 -2.1894  0.6647
38440SOL     OW21155   5.488   8.728   9.492  0.2866  0.2254  0.3313
38440SOL    HW121156   5.442   8.811   9.479 -0.2232 -0.0240  0.5216
38440SOL    HW221157   5.418   8.663   9.497  0.6843 -0.2102  0.2133
38441SOL     OW21158   0.534   8.486  10.707 -0.4893 -0.0184  0.0059
38441SOL    HW121159   0.443   8.501  10.682 -1.2736 -0.6605  2.2483
38441SOL    HW221160   0.558   8.565  10.757  0.2327  0.2052 -0.6867
38442SOL     OW21161   8.699   6.620   9.370  0.0182  0.2231  0.3676
38442SOL    HW121162   8.624   6.628   9.311 -1.7489 -0.5170  2.3869
38442SOL    HW221163   8.733   6.709   9.378  0.8516  0.2403 -2.3018
38443SOL     OW21164   6.176   6.197   0.637  0.0505  0.2790  0.2877
38443SOL    HW121165   6.189   6.228   0.727  1.4005 -0.3358  0.3244
38443SOL    HW221166   6.179   6.277   0.584 -2.1661  0.8321  0.8682
38444SOL     OW21167   4.459   9.452   0.965  0.2195  0.1983  0.5701
38444SOL    HW121168   4.523   9.417   0.902 -0.9613  0.7704 -1.0081
38444SOL    HW221169   4.436   9.539   0.931 -2.2643 -0.4450  0.3905
38445SOL     OW21170   8.032   1.243   0.354 -0.0864  0.0835 -0.0526
38445SOL    HW121171   7.939   1.266   0.352  0.0139  0.4511 -0.8608
38445SOL    HW221172   8.040   1.168   0.295  0.4235  1.2504 -1.5323
38446SOL     OW21173   2.528   3.206   5.979  0.1671  0.0709 -0.0783
38446SOL    HW121174   2.508   3.259   6.056  1.5863  0.5818 -0.0280
38446SOL    HW221175   2.449   3.154   5.965 -1.0892  1.8195  0.1764
38447SOL     OW21176   9.982   5.052   5.706  0.0589  0.1466 -0.1964
38447SOL    HW121177  10.028   5.020   5.784 -1.0272 -1.9175 -0.3327
38447SOL    HW221178  10.051   5.062   5.640  0.5011 -2.0751 -0.1535
38448SOL     OW21179   0.457   7.835   1.225  0.3728 -0.0659 -0.3478
38448SOL    HW121180   0.487   7.840   1.315  1.1444  1.2143 -0.6493
38448SOL    HW221181   0.362   7.827   1.231  0.4773 -0.7344  0.5737
38449SOL     OW21182  10.122   7.303   3.964 -0.1560  0.1264 -0.1726
38449SOL    HW121183  10.193   7.278   3.905 -0.5466  0.9103 -0.9963
38449SOL    HW221184  10.056   7.343   3.907 -0.6671  0.6485  0.7568
38450SOL     OW21185   4.090   0.007   6.336 -0.0335  0.2454 -0.3021
38450SOL    HW121186   4.117   0.003   6.427  0.5864  0.5480 -0.4682
38450SOL    HW221187   4.143   0.076   6.298  0.4285 -0.5342 -1.1263
38451SOL     OW21188   6.162   1.677   9.432 -0.0298 -0.0565  0.6393
38451SOL    HW121189   6.129   1.709   9.348 -1.6722 -0.6666  1.0295
38451SOL    HW221190   6.223   1.607   9.408 -0.6186 -0.3497 -0.0562
38452SOL     OW21191   8.360   4.833   3.203  0.1456 -0.4247 -0.0036
38452SOL    HW121192   8.388   4.760   3.257 -1.6837 -0.1426  1.4054
38452SOL    HW221193   8.439   4.859   3.155  1.9353 -0.5225  2.7129
38453SOL     OW21194   2.951   0.295   8.886 -0.3031  0.1331 -0.1383
38453SOL    HW121195   2.901   0.358   8.835  0.3149 -0.3129 -1.3498
38453SOL    HW221196   2.991   0.238   8.821  1.2989  0.1142  0.8003
38454SOL     OW21197   5.955  10.022   6.250 -0.5750  0.6263  0.7442
38454SOL    HW121198   5.916  10.107   6.269  0.4033  1.0655  0.8560
38454SOL    HW221199   5.958   9.978   6.335  1.2944  1.5198  1.1837
38455SOL     OW21200  10.261  10.786  10.121 -0.2047  0.3611 -0.2219
38455SOL    HW121201  10.207  10.726  10.070  2.4684 -0.5819 -2.2349
38455SOL    HW221202  10.250  10.871  10.077 -2.9694  1.1937  1.8270
38456SOL     OW21203   2.057   3.992   7.924  0.1030  0.4039 -0.3627
38456SOL    HW121204   2.048   3.920   7.862 -0.4780  1.8380 -2.0125
38456SOL    HW221205   2.022   3.958   8.006  1.7392 -1.8531 -0.5027
38457SOL     OW21206   6.852  10.110   8.267 -0.2569  0.3169 -0.0570
38457SOL    HW121207   6.875  10.154   8.349  0.8220 -1.0398  0.4214
38457SOL    HW221208   6.762  10.136   8.250 -0.4246  0.8273  1.4393
38458SOL     OW21209   3.781   7.696   3.785 -0.4805 -0.0175 -0.8418
38458SOL    HW121210   3.818   7.775   3.745  0.6208  0.2555  0.6151
38458SOL    HW221211   3.724   7.729   3.854  1.4983 -0.4124  1.0963
38459SOL     OW21212   8.143   3.790   4.312 -0.2755  0.4405 -0.0737
38459SOL    HW121213   8.089   3.741   4.373  0.5015  1.0040  1.1039
38459SOL    HW221214   8.229   3.796   4.354  0.1492  1.2790 -0.9875
38460SOL     OW21215   2.780   8.261   9.942  0.1055 -0.0081  0.0069
38460SOL    HW121216   2.873   8.271   9.963  0.0849 -1.3867  0.8657
38460SOL    HW221217   2.777   8.191   9.876 -0.0950  2.2378 -2.5308
38461SOL     OW21218   5.004   2.934  10.891  0.3105 -0.0164 -0.1871
38461SOL    HW121219   4.940   2.982  10.838 -0.1806  0.0950  0.4885
38461SOL    HW221220   5.081   2.926  10.834 -0.2835 -0.1163 -0.9994
38462SOL     OW21221   7.633   8.909   3.102  0.3705  0.4000 -0.3215
38462SOL    HW121222   7.601   8.872   3.184  0.2043  1.9285  0.3474
38462SOL    HW221223   7.578   8.870   3.034 -0.5171  0.2845  0.4541
38463SOL     OW21224   6.341   9.804  10.769 -0.1648  0.2155 -0.8523
38463SOL    HW121225   6.304   9.719  10.790 -0.5970  0.0708 -2.1134
38463SOL    HW221226   6.271   9.851  10.723 -0.2598  1.6258  0.6304
38464SOL     OW21227   4.479   3.378   0.264 -0.0884  0.3607 -0.4281
38464SOL    HW121228   4.529   3.311   0.218 -0.3694 -0.7658  0.8438
38464SOL    HW221229   4.504   3.368   0.356  0.1332  2.2489 -0.2495
38465SOL     OW21230   7.143   8.427   0.300  0.3462 -0.0343  0.3660
38465SOL    HW121231   7.160   8.410   0.207  1.6013  1.4843  0.2674
38465SOL    HW221232   7.217   8.387   0.345  0.4077  0.3244  0.5887
38466SOL     OW21233   3.860   7.555   5.609 -0.3644 -0.0396  1.0933
38466SOL    HW121234   3.905   7.639   5.611  0.7098 -0.5160 -0.7797
38466SOL    HW221235   3.790   7.567   5.545 -0.7568 -0.3124  1.4688
38467SOL     OW21236   5.389   8.407   0.751  0.8284 -0.0759  0.3266
38467SOL    HW121237   5.346   8.398   0.836 -0.1877 -0.6451 -0.2246
38467SOL    HW221238   5.328   8.366   0.690  2.0327 -0.6113 -0.5321
38468SOL     OW21239   8.115  10.115   7.385 -0.2761 -0.0161  0.3820
38468SOL    HW121240   8.071  10.104   7.301  0.2964 -0.7800  0.1668
38468SOL    HW221241   8.045  10.139   7.446 -1.3146 -2.6556  0.3595
38469SOL     OW21242   3.200  10.541   9.311 -0.1359 -0.0979  0.0962
38469SOL    HW121243   3.183  10.478   9.241 -3.2799  2.4728 -1.7338
38469SOL    HW221244   3.133  10.523   9.376  0.0102  0.3012  0.3585
38470SOL     OW21245   6.371   7.405   7.723  0.0364  0.5146  0.4819
38470SOL    HW121246   6.424   7.423   7.646  0.6061 -0.0520  0.7319
38470SOL    HW221247   6.421   7.443   7.796 -1.1139  2.1862  0.4432
38471SOL     OW21248   5.798   9.669   7.021 -0.0062  1.0395 -0.1647
38471SOL    HW121249   5.858   9.647   6.949  0.4312  2.6724 -0.3608
38471SOL    HW221250   5.711   9.651   6.985  0.3027 -0.2127 -0.3156
38472SOL     OW21251   5.912   9.661   9.651  0.4378 -0.1999 -0.6649
38472SOL    HW121252   5.949   9.580   9.614 -3.0114 -1.3853 -1.9681
38472SOL    HW221253   5.867   9.702   9.577 -4.0631 -0.9835  1.3237
38473SOL     OW21254  10.383   2.511   3.225 -0.0325  0.0789 -0.1859
38473SOL    HW121255  10.429   2.539   3.146  0.9462 -0.5301  0.1531
38473SOL    HW221256  10.441   2.536   3.296 -0.2127 -0.7220  0.2497
38474SOL     OW21257   1.009   2.214   1.720 -0.6130 -0.9869 -0.2896
38474SOL    HW121258   1.077   2.267   1.679  1.7737 -2.0088  2.0236
38474SOL    HW221259   0.970   2.165   1.648  3.3119 -2.6952 -1.5452
38475SOL     OW21260   8.426   4.233  10.536  0.0421  0.0450  0.3039
38475SOL    HW121261   8.371   4.194  10.468 -1.6643  0.1643  1.5606
38475SOL    HW221262   8.502   4.175  10.541 -0.7951 -1.1507 -0.2737
38476SOL     OW21263   4.190   6.800   4.669 -1.1241 -0.8001  0.6474
38476SOL    HW121264   4.124   6.851   4.622 -1.3086  1.1466  2.7859
38476SOL    HW221265   4.141   6.754   4.737 -0.4164  0.2644  1.9390
38477SOL     OW21266   6.759   0.071   4.290 -0.2565 -0.6895  0.0247
38477SOL    HW121267   6.819  -0.002   4.274 -0.4030 -1.3879  2.2959
38477SOL    HW221268   6.816   0.148   4.295  0.5148 -1.3156  1.9341
38478SOL     OW21269   1.401   8.374   6.051 -0.0617  0.1140 -0.1608
38478SOL    HW121270   1.369   8.438   5.988  0.8770  1.1558  0.3902
38478SOL    HW221271   1.386   8.413   6.137  0.4537 -0.4227  0.1915
38479SOL     OW21272   7.858  10.564   7.331 -0.1660  0.0072 -0.2576
38479SOL    HW121273   7.869  10.537   7.240  3.5618  0.6364 -0.1344
38479SOL    HW221274   7.831  10.484   7.377  0.2526 -0.8936 -1.5449
38480SOL     OW21275   5.359   5.319   3.097 -0.2632  0.3023 -0.5518
38480SOL    HW121276   5.371   5.412   3.079 -1.4833  0.5332 -0.3015
38480SOL    HW221277   5.297   5.289   3.030 -1.3969  0.1533  0.5133
38481SOL     OW21278   6.231   3.634   8.095  0.4080  0.2221  0.5893
38481SOL    HW121279   6.178   3.679   8.029  0.0623  0.6290  1.1394
38481SOL    HW221280   6.181   3.641   8.176  1.8082  1.6448  1.3995
38482SOL     OW21281   8.350   3.217   7.063  0.6227 -0.7436 -0.1149
38482SOL    HW121282   8.426   3.174   7.024  1.9603  0.0290  1.4933
38482SOL    HW221283   8.299   3.146   7.103  2.0533 -1.0280  1.2893
38483SOL     OW21284   8.935   7.484   7.856 -0.2727  0.4584 -0.0273
38483SOL    HW121285   8.973   7.437   7.782  1.5733  1.4200  0.2674
38483SOL    HW221286   8.855   7.523   7.820 -0.2775 -0.4411 -1.0550
38484SOL     OW21287   9.180  10.094   6.494 -0.3194 -0.7564 -0.0652
38484SOL    HW121288   9.261  10.043   6.482  0.5832  0.7853 -0.9152
38484SOL    HW221289   9.171  10.144   6.413 -0.7004  1.0277  1.0046
38485SOL     OW21290   6.655  10.137   9.588  0.1703 -0.0845 -0.1692
38485SOL    HW121291   6.704  10.205   9.634 -1.9631  0.4379  1.4720
38485SOL    HW221292   6.646  10.066   9.652 -2.8587  0.6515  0.3903
38486SOL     OW21293  10.160   3.110   7.181 -0.2925 -0.1129 -0.4438
38486SOL    HW121294  10.095   3.099   7.251  0.4869  0.9211  0.4735
38486SOL    HW221295  10.209   3.028   7.181 -1.2444 -0.7003 -0.7942
38487SOL     OW21296   8.391   7.508   4.073 -0.7267  0.3036 -0.0838
38487SOL    HW121297   8.388   7.584   4.014  0.7339  0.3081 -0.1915
38487SOL    HW221298   8.414   7.435   4.016  1.0077  0.3592  0.5009
38488SOL     OW21299   7.738   0.759  10.032 -0.3738 -0.5767 -0.4098
38488SOL    HW121300   7.788   0.690   9.988 -0.4133  0.2930 -1.8891
38488SOL    HW221301   7.778   0.841  10.001  0.2967  0.1128  2.0468
38489SOL     OW21302   8.085   8.904   5.715  0.1962  0.2439 -0.2253
38489SOL    HW121303   8.022   8.976   5.707  0.0969  0.0957 -0.8871
38489SOL    HW221304   8.167   8.941   5.681  0.2608  0.1856 -0.1327
38490SOL     OW21305   1.742  10.075   9.241  0.4553 -0.5679 -0.0303
38490SOL    HW121306   1.768  10.155   9.194 -0.0966  0.3081  1.1014
38490SOL    HW221307   1.685  10.106   9.311 -3.0808 -2.3221 -1.8874
38491SOL     OW21308   2.755   1.355   8.034  0.0477  0.0931 -0.4547
38491SOL    HW121309   2.743   1.289   8.103 -2.0262  0.5032 -0.3649
38491SOL    HW221310   2.749   1.305   7.952  3.2288 -0.5140 -0.4509
38492SOL     OW21311   3.811   0.586   8.333  0.7307  0.1713  0.0700
38492SOL    HW121312   3.775   0.502   8.363  0.4240 -0.0669 -0.9315
38492SOL    HW221313   3.737   0.645   8.332  1.1502  0.7739  1.8194
38493SOL     OW21314   8.236   7.116   1.333  0.0356  0.3878 -0.4091
38493SOL    HW121315   8.231   7.169   1.412 -0.7605  0.1077 -0.2619
38493SOL    HW221316   8.145   7.108   1.304 -0.1402 -2.3093  0.5439
38494SOL     OW21317   3.797   8.805   4.516 -0.0522 -0.1688 -0.6445
38494SOL    HW121318   3.791   8.901   4.515  1.5245 -0.0139  0.5091
38494SOL    HW221319   3.798   8.782   4.609 -1.1315 -1.3910 -0.9038
38495SOL     OW21320   1.416   0.056   3.802  0.3686 -0.4660 -0.5080
38495SOL    HW121321   1.462   0.118   3.746  0.3270 -0.6722 -0.7751
38495SOL    HW221322   1.335   0.100   3.826  0.9818  0.1645  0.5058
38496SOL     OW21323   3.246   6.332   2.504 -0.3717 -0.1159 -0.3945
38496SOL    HW121324   3.271   6.348   2.414  0.7355  0.1771 -0.0429
38496SOL    HW221325   3.234   6.237   2.510  0.0956 -0.1923 -0.7086
38497SOL     OW21326   1.976   2.988  10.775  0.2804 -0.1779  0.2685
38497SOL    HW121327   2.054   2.978  10.830 -0.3179  2.4094  1.7594
38497SOL    HW221328   1.928   2.906  10.786  1.5327 -0.7982  1.3921
38498SOL     OW21329   5.160   9.450   8.841 -0.5042 -0.0170 -0.0882
38498SOL    HW121330   5.228   9.517   8.847  0.0249 -0.6423  1.8586
38498SOL    HW221331   5.088   9.493   8.794  0.6297  1.1682 -0.8122
38499SOL     OW21332   6.286   1.308   8.160  0.1917  0.2734  0.2424
38499SOL    HW121333   6.282   1.393   8.118 -1.5573 -0.7767 -1.9340
38499SOL    HW221334   6.219   1.311   8.228 -1.4404  0.0157 -1.2676
38500SOL     OW21335   6.848   4.822   0.620  0.3990  0.2411  0.1976
38500SOL    HW121336   6.850   4.915   0.597  0.0389  0.1639 -0.1585
38500SOL    HW221337   6.755   4.800   0.623  0.4961 -0.3865 -0.8650
38501SOL     OW21338   3.335  10.825   6.439  0.5508 -0.7677  0.2020
38501SOL    HW121339   3.351  10.877   6.517 -0.5683  1.3513 -0.8791
38501SOL    HW221340   3.417  10.778   6.423  1.3458  0.0628  1.6799
38502SOL     OW21341   7.672   1.677   9.281  0.4520 -0.2765 -0.8587
38502SOL    HW121342   7.759   1.684   9.321  0.1241  0.4263 -0.2415
38502SOL    HW221343   7.634   1.764   9.290 -1.3760 -1.2025  1.3520
38503SOL     OW21344   4.559  10.345   4.519 -0.4262  0.1222  0.3122
38503SOL    HW121345   4.568  10.440   4.514 -1.2041  0.2112  0.5524
38503SOL    HW221346   4.649  10.313   4.525 -0.0704  0.7608 -1.1604
38504SOL     OW21347   4.484   6.873   7.739 -0.1494  0.3145  0.1322
38504SOL    HW121348   4.564   6.914   7.772 -0.5721  0.7188  0.6823
38504SOL    HW221349   4.427   6.947   7.717 -0.3136  0.0299 -0.4010
38505SOL     OW21350   4.704   7.495   2.612 -0.4366  0.2588  0.2550
38505SOL    HW121351   4.667   7.478   2.698 -0.2032  1.8598  0.7108
38505SOL    HW221352   4.696   7.590   2.601 -0.6910  0.0639 -1.5989
38506SOL     OW21353   8.243  10.346   8.065 -0.1703 -0.1682 -0.2773
38506SOL    HW121354   8.215  10.395   7.987  2.5982 -0.7260 -1.7413
38506SOL    HW221355   8.270  10.414   8.127 -0.6052  0.2389 -0.5221
38507SOL     OW21356   1.595   0.674   9.594 -0.4865  0.0905 -0.0490
38507SOL    HW121357   1.621   0.626   9.515 -1.6467  0.4243 -0.6447
38507SOL    HW221358   1.548   0.750   9.562  0.8415  1.3647  0.9169
38508SOL     OW21359   1.984   9.697   7.867 -0.1268 -0.4303 -0.2217
38508SOL    HW121360   2.024   9.778   7.899  0.0141 -0.4766 -0.2821
38508SOL    HW221361   1.932   9.665   7.940  0.1559 -0.5116 -0.0545
38509SOL     OW21362   4.272   4.776   5.332  0.1133 -0.1591  0.7773
38509SOL    HW121363   4.237   4.690   5.354 -1.2939  0.7618  2.4105
38509SOL    HW221364   4.365   4.772   5.357 -0.1166 -0.9676  1.5401
38510SOL     OW21365   3.838   4.066   4.326 -0.0929  0.2751 -0.2853
38510SOL    HW121366   3.810   4.078   4.235  1.0117 -0.1286 -0.7011
38510SOL    HW221367   3.871   3.976   4.328 -2.0379 -0.4889  1.0581
38511SOL     OW21368   9.662   8.586   5.018 -0.1075 -0.2461  0.1318
38511SOL    HW121369   9.594   8.582   4.951 -1.1246 -2.1445  1.1707
38511SOL    HW221370   9.639   8.663   5.071 -1.3415 -0.7129  0.3176
38512SOL     OW21371   5.235   4.135   5.524  0.2591  0.2030 -0.4007
38512SOL    HW121372   5.274   4.204   5.470  1.1374 -0.6747 -0.9155
38512SOL    HW221373   5.308   4.077   5.547 -0.5873 -1.0304 -0.6927
38513SOL     OW21374   7.317   7.486   6.666  0.7737  0.3757 -0.1138
38513SOL    HW121375   7.342   7.394   6.663  0.5457  0.2825  0.7957
38513SOL    HW221376   7.365   7.522   6.740  0.7123  0.9532 -0.3448
38514SOL     OW21377   8.768   2.137   8.101  0.0973  0.4329 -0.4514
38514SOL    HW121378   8.746   2.224   8.136  0.9927  0.4368  0.1431
38514SOL    HW221379   8.851   2.151   8.054 -0.2731  0.0958 -1.2318
38515SOL     OW21380   0.137   2.902   3.704  0.4260  0.1190  0.4658
38515SOL    HW121381   0.105   2.876   3.790 -2.1625 -1.1293 -0.7328
38515SOL    HW221382   0.166   2.993   3.715  0.5562 -0.1420  2.7064
38516SOL     OW21383   6.473   4.343   1.427 -0.7245  0.4443  0.1047
38516SOL    HW121384   6.554   4.354   1.376 -0.8699 -0.0269 -0.2297
38516SOL    HW221385   6.495   4.378   1.513  0.0742 -0.3639  0.2431
38517SOL     OW21386   7.938   0.758   7.598 -0.2663 -0.2339  0.5906
38517SOL    HW121387   7.872   0.823   7.576  1.5240  1.4030 -0.2771
38517SOL    HW221388   7.909   0.720   7.681 -2.8134 -0.4101 -0.3000
38518SOL     OW21389   4.824   8.932   6.027  0.9607  0.3035  0.3750
38518SOL    HW121390   4.817   8.891   6.113 -0.0586 -0.7063 -0.1690
38518SOL    HW221391   4.860   8.864   5.971 -0.1516  0.3280 -0.4005
38519SOL     OW21392   4.487   6.879   9.329  0.5290  0.2091 -0.2549
38519SOL    HW121393   4.523   6.915   9.409 -1.3066  0.4627  0.5100
38519SOL    HW221394   4.404   6.839   9.355  0.7999 -1.4178 -1.7031
38520SOL     OW21395   2.451   3.970   3.626 -0.0727  0.4226  0.2157
38520SOL    HW121396   2.437   4.060   3.596  1.5810  0.9890  1.0281
38520SOL    HW221397   2.513   3.978   3.698 -0.0977 -1.3639  0.4815
38521SOL     OW21398   2.309   9.340   2.265 -0.1592 -0.3980 -0.5552
38521SOL    HW121399   2.382   9.287   2.298 -1.2964 -0.1443  2.7069
38521SOL    HW221400   2.231   9.289   2.286 -1.2690  2.2157  2.2987
38522SOL     OW21401   6.180   4.896   9.953  0.0995  0.1191 -0.6006
38522SOL    HW121402   6.100   4.907  10.005  0.4927 -1.0520  0.2944
38522SOL    HW221403   6.157   4.829   9.888  0.1826  0.2145 -0.7306
38523SOL     OW21404   2.467   1.121   6.109 -0.7913 -0.2284  0.0705
38523SOL    HW121405   2.492   1.083   6.025 -0.7962 -0.6758  0.2723
38523SOL    HW221406   2.382   1.082   6.130 -0.9816  0.1862  0.0926
38524SOL     OW21407   7.561   6.704   3.058 -0.6092  0.0265  1.0994
38524SOL    HW121408   7.502   6.754   3.115  1.5131  2.4454  1.3648
38524SOL    HW221409   7.551   6.745   2.972  0.8787  0.7451  1.2325
38525SOL     OW21410   8.862   3.301   5.299  0.6182 -0.0129  0.1936
38525SOL    HW121411   8.957   3.317   5.294  0.4352  0.9901 -0.5252
38525SOL    HW221412   8.829   3.335   5.216 -0.4710  0.3690  0.7731
38526SOL     OW21413   7.079   9.858  10.096 -0.4670  0.6817 -0.0853
38526SOL    HW121414   7.174   9.847  10.091 -0.5725 -0.7987  0.7093
38526SOL    HW221415   7.063   9.891  10.184 -0.9615 -3.5535  1.6440
38527SOL     OW21416   5.494   9.756  10.382  0.1219 -0.1714 -0.0418
38527SOL    HW121417   5.437   9.686  10.351  0.8325 -0.4529 -0.7744
38527SOL    HW221418   5.448   9.794  10.456  0.3027 -2.2955  1.2567
38528SOL     OW21419   6.870   1.282   1.500  0.1395  0.4530 -0.1899
38528SOL    HW121420   6.792   1.338   1.496 -0.4796 -0.2855  0.8672
38528SOL    HW221421   6.840   1.198   1.466 -0.2067 -0.5000  2.2315
38529SOL     OW21422   4.211   3.906   8.307 -0.1115 -0.1045 -0.4829
38529SOL    HW121423   4.221   3.832   8.247 -1.3943 -1.2419  0.6300
38529SOL    HW221424   4.159   3.969   8.257 -0.2770 -0.5900 -0.9470
38530SOL     OW21425   5.756  10.283   2.762 -0.1290  0.4430  0.1783
38530SOL    HW121426   5.700  10.207   2.779  0.7230 -0.5446 -1.2953
38530SOL    HW221427   5.715  10.353   2.813 -2.8626 -0.1603 -0.9889
38531SOL     OW21428   8.998   3.658   1.762  0.0372  1.0701  0.7398
38531SOL    HW121429   8.964   3.730   1.815 -1.4252  0.3206  0.8764
38531SOL    HW221430   8.960   3.672   1.675  0.3903  0.9153  0.5598
38532SOL     OW21431   2.497   8.518   6.699 -0.3295 -0.2413 -0.1094
38532SOL    HW121432   2.474   8.589   6.639 -2.4210 -1.4291 -0.8214
38532SOL    HW221433   2.579   8.546   6.740 -0.4090  1.9547 -1.3298
38533SOL     OW21434   0.528   1.788   3.752 -0.2233  0.2837  0.2518
38533SOL    HW121435   0.614   1.792   3.710 -1.2968 -2.4563 -2.6030
38533SOL    HW221436   0.490   1.875   3.736  1.0835  0.7294 -0.5864
38534SOL     OW21437   7.680   1.137   0.372  0.2038  0.3648  0.2877
38534SOL    HW121438   7.621   1.069   0.340  2.6496 -0.9690 -1.7941
38534SOL    HW221439   7.656   1.215   0.321  0.9948 -0.5235 -1.5531
38535SOL     OW21440   5.582   7.400   0.720 -0.1572 -0.0603 -0.5103
38535SOL    HW121441   5.662   7.392   0.668  0.0914 -0.5529 -0.0526
38535SOL    HW221442   5.515   7.357   0.666 -0.0311 -0.0172 -0.7044
38536SOL     OW21443   7.424   7.023   1.764  0.7313  0.0272 -0.0847
38536SOL    HW121444   7.348   7.052   1.814  1.5254 -0.2508  1.3572
38536SOL    HW221445   7.388   6.975   1.690 -0.6088  2.9485 -1.5282
38537SOL     OW21446   4.138   7.745   9.869  0.2314 -0.1046 -0.0498
38537SOL    HW121447   4.220   7.754   9.917 -0.3853 -0.3373  1.0868
38537SOL    HW221448   4.083   7.690   9.925 -0.6988  0.0385 -0.7916
38538SOL     OW21449   2.732   4.462   9.739  0.4845 -0.1155 -0.6642
38538SOL    HW121450   2.740   4.393   9.805  2.8565  0.5273 -0.1997
38538SOL    HW221451   2.660   4.517   9.769  0.3659 -0.8425  0.4277
38539SOL     OW21452   7.845   4.767   9.030  0.2132  0.0014 -0.6000
38539SOL    HW121453   7.749   4.768   9.035  0.2222 -1.6230  2.6551
38539SOL    HW221454   7.864   4.700   8.964 -0.8696  0.3250 -1.2810
38540SOL     OW21455   4.570   2.412   8.921  0.3569 -0.5516 -0.3538
38540SOL    HW121456   4.623   2.381   8.994  0.4205 -0.7956 -0.5046
38540SOL    HW221457   4.631   2.417   8.847 -0.1224 -2.1682 -0.8824
38541SOL     OW21458   8.328   4.972   8.240 -0.3297 -0.5602  0.0884
38541SOL    HW121459   8.403   4.912   8.231 -0.5889 -1.0628  1.1014
38541SOL    HW221460   8.286   4.945   8.322 -0.0405  1.4593  0.9743
38542SOL     OW21461   9.749   5.259   6.293 -0.0816  0.2913 -0.3260
38542SOL    HW121462   9.702   5.203   6.231  2.0972 -0.9493 -0.9775
38542SOL    HW221463   9.834   5.275   6.252 -0.1123  3.0256  0.4717
38543SOL     OW21464   3.908   6.634   6.289  0.2242  0.1079  0.6112
38543SOL    HW121465   3.850   6.710   6.286  1.0601  0.7512  0.0593
38543SOL    HW221466   3.995   6.671   6.308  0.6531 -0.7037  0.2853
38544SOL     OW21467   0.176   9.215   9.437  0.0380  0.0717  0.3849
38544SOL    HW121468   0.176   9.166   9.355  2.3838  1.2314 -0.4134
38544SOL    HW221469   0.088   9.251   9.445 -0.4379 -0.6778 -1.2572
38545SOL     OW21470   7.648   6.589   6.255  0.4414 -0.2512 -0.4571
38545SOL    HW121471   7.621   6.528   6.187 -0.5011 -0.4778  0.1084
38545SOL    HW221472   7.741   6.569   6.269 -0.2751 -2.9523  1.1072
38546SOL     OW21473   2.659   2.941   2.390  0.2026  0.5752 -0.2283
38546SOL    HW121474   2.577   2.944   2.439  0.7941 -0.9562  0.9324
38546SOL    HW221475   2.644   2.873   2.324  0.3201  0.7898 -0.4814
38547SOL     OW21476   0.618   3.354   3.527  0.1578  0.2674 -0.0425
38547SOL    HW121477   0.610   3.369   3.621  0.8279 -1.9903  0.4157
38547SOL    HW221478   0.528   3.354   3.495 -0.0812  0.9240  0.6022
38548SOL     OW21479   8.261   2.611   1.832  0.6298 -0.4370  0.0541
38548SOL    HW121480   8.170   2.607   1.804  0.5127  0.0860  0.3549
38548SOL    HW221481   8.260   2.662   1.913  1.4430  1.4987 -1.0768
38549SOL     OW21482   3.873   3.770  10.392 -0.1926 -0.3161 -0.0535
38549SOL    HW121483   3.819   3.831  10.442  1.3086  0.5540  0.5650
38549SOL    HW221484   3.868   3.688  10.442  0.8435  0.3849  1.2580
38550SOL     OW21485   5.693   6.848   9.937 -0.3114 -0.4453 -1.0627
38550SOL    HW121486   5.749   6.849   9.860  0.8162 -1.1168 -0.2830
38550SOL    HW221487   5.627   6.916   9.921 -1.0414 -1.5900 -3.2789
38551SOL     OW21488   4.651   7.446   1.230  0.0215 -0.0754 -0.6111
38551SOL    HW121489   4.693   7.405   1.154 -0.8916  0.6948 -1.5593
38551SOL    HW221490   4.711   7.517   1.254  1.8434 -2.1197  1.3244
38552SOL     OW21491   1.569   4.428   4.550 -0.2010 -0.3143  0.3248
38552SOL    HW121492   1.493   4.471   4.589 -1.7045 -2.6230  0.1558
38552SOL    HW221493   1.558   4.441   4.456  1.2426  1.7715  0.3602
38553SOL     OW21494   8.086   0.044   4.633 -0.5173 -0.4195  0.1408
38553SOL    HW121495   8.035   0.094   4.697  1.7614 -0.9004  2.5016
38553SOL    HW221496   8.122  -0.030   4.683  3.3087  0.4566 -0.9898
38554SOL     OW21497   4.716   9.275   7.700  0.0318 -0.0350 -0.2467
38554SOL    HW121498   4.752   9.217   7.768 -1.7579  1.4159  2.0767
38554SOL    HW221499   4.773   9.352   7.701  1.5797 -1.0347 -2.3701
38555SOL     OW21500   8.968   5.558   3.046  0.1197 -0.2258  0.2281
38555SOL    HW121501   8.988   5.624   3.112  1.4869  2.9390 -3.0077
38555SOL    HW221502   9.041   5.495   3.051  0.1469 -0.1005  1.7104
38556SOL     OW21503   1.240   8.375  10.481 -0.3242  0.3938 -0.0670
38556SOL    HW121504   1.276   8.327  10.406  0.5865 -2.4883  2.0479
38556SOL    HW221505   1.145   8.375  10.465 -0.1039  0.4497 -1.5247
38557SOL     OW21506   1.208   6.633   2.603  0.1860  0.3150 -0.0446
38557SOL    HW121507   1.204   6.727   2.584 -0.5203  0.4481  0.6936
38557SOL    HW221508   1.213   6.591   2.517  0.5260  1.0289 -0.3786
38558SOL     OW21509   1.105   4.671   7.922 -0.1403  0.7568  0.5905
38558SOL    HW121510   1.193   4.690   7.890 -0.0602 -0.2760  0.1792
38558SOL    HW221511   1.118   4.624   8.004 -0.3357  1.8753  1.2825
38559SOL     OW21512   3.992   2.689   2.955  0.0557  0.0124  0.5433
38559SOL    HW121513   3.904   2.710   2.985  0.6126  2.0550  0.8423
38559SOL    HW221514   3.990   2.707   2.861 -0.9778 -4.0520 -0.4504
38560SOL     OW21515   3.648   3.975   5.240  0.1932  0.2862  0.1146
38560SOL    HW121516   3.615   4.049   5.188  0.9697  0.6018  0.0660
38560SOL    HW221517   3.696   4.015   5.312  0.2189 -0.1671  0.3525
38561SOL     OW21518   3.054  10.365   6.943  0.6508  0.2615 -0.0025
38561SOL    HW121519   2.969  10.344   6.980  1.1305  0.3797  1.1943
38561SOL    HW221520   3.095  10.423   7.007  1.5682  0.3339 -0.6355
38562SOL     OW21521   4.869   5.575   5.167  0.1045 -0.4450 -0.2461
38562SOL    HW121522   4.934   5.645   5.167  0.6344 -0.8514  1.7762
38562SOL    HW221523   4.785   5.619   5.177  0.2327 -0.0105 -1.0465
38563SOL     OW21524   7.165   8.048   4.475  0.8677 -0.2042  0.0083
38563SOL    HW121525   7.130   7.970   4.519 -1.9523  0.1063 -1.4488
38563SOL    HW221526   7.133   8.040   4.385 -1.3911  3.6160  0.2879
38564SOL     OW21527   4.391   6.981   8.063 -0.3149  0.3892 -0.2828
38564SOL    HW121528   4.361   6.923   7.993 -0.9103 -1.2498  1.2478
38564SOL    HW221529   4.479   6.949   8.085 -0.1005  0.9398 -0.3104
38565SOL     OW21530   2.689   9.225   9.668  0.6239  0.2790 -0.1365
38565SOL    HW121531   2.627   9.293   9.692  0.8185 -0.4691  2.7790
38565SOL    HW221532   2.697   9.170   9.746  0.8015 -2.8712 -2.1768
38566SOL     OW21533   0.205   8.028   5.580 -0.2488  0.4179 -0.4336
38566SOL    HW121534   0.143   8.052   5.511 -0.2028 -0.8044 -0.9141
38566SOL    HW221535   0.289   8.061   5.548  0.0759 -1.5138 -1.7835
38567SOL     OW21536   9.032  10.802   8.672  0.0610  0.4091 -0.2508
38567SOL    HW121537   9.064  10.767   8.755 -1.0545  0.2070  0.1090
38567SOL    HW221538   9.046  10.897   8.679  1.7830  0.2117 -0.6529
38568SOL     OW21539  10.500   8.998   9.924 -0.8007  0.2889 -0.0406
38568SOL    HW121540  10.492   8.917   9.873  1.9483 -0.6021  0.7206
38568SOL    HW221541  10.566   9.049   9.877  0.1224  0.4438  1.3623
38569SOL     OW21542   7.624   6.443   8.544  0.0843 -0.3336  0.0542
38569SOL    HW121543   7.618   6.374   8.610  1.1682  0.1312  0.6500
38569SOL    HW221544   7.587   6.520   8.587  0.9155  0.0035  0.1817
38570SOL     OW21545   2.779   9.201   5.630 -0.5452  0.0844 -0.1820
38570SOL    HW121546   2.813   9.225   5.717 -3.7414 -0.2620  1.3164
38570SOL    HW221547   2.726   9.276   5.604 -1.3877 -0.6826 -0.7588
38571SOL     OW21548   9.947   1.337   5.691 -0.2801 -0.0071 -0.4810
38571SOL    HW121549   9.879   1.327   5.624 -0.4136 -0.5174 -0.2760
38571SOL    HW221550   9.973   1.247   5.712  1.5948  0.1932 -1.6765
38572SOL     OW21551   2.392   3.816   9.638 -0.0542  0.1728  0.2406
38572SOL    HW121552   2.441   3.759   9.698  0.9758  0.6851 -0.0994
38572SOL    HW221553   2.439   3.811   9.556 -0.8712  0.2931 -0.2442
38573SOL     OW21554   1.822  10.794   6.238 -0.0080 -0.0434  0.1401
38573SOL    HW121555   1.769  10.832   6.168 -0.0189 -0.7283 -0.2363
38573SOL    HW221556   1.893  10.748   6.192  0.6012  0.4111  0.6220
38574SOL     OW21557   6.922   8.173   9.672 -0.3317 -0.1593 -0.1694
38574SOL    HW121558   6.900   8.221   9.592 -2.4972 -2.0879 -0.8534
38574SOL    HW221559   6.930   8.082   9.643 -0.8650 -0.8624  1.7394
38575SOL     OW21560   8.573   8.942   4.607 -0.2132  0.1764 -0.1438
38575SOL    HW121561   8.582   9.025   4.560 -0.6105 -0.0375 -0.6203
38575SOL    HW221562   8.561   8.877   4.537  2.2376 -0.6225  0.0652
38576SOL     OW21563   0.930   5.580   2.970 -0.6108  0.4495  0.2721
38576SOL    HW121564   0.937   5.571   2.875  0.8095 -2.6277  0.5334
38576SOL    HW221565   0.836   5.572   2.988 -0.7346 -1.0280 -0.8047
38577SOL     OW21566   1.873  10.421   1.285 -0.2266 -0.5043  0.1691
38577SOL    HW121567   1.855  10.363   1.359  0.2388 -0.4211  0.3496
38577SOL    HW221568   1.888  10.362   1.211  0.6003 -0.6347  0.4297
38578SOL     OW21569   4.184   9.165   3.715  0.3053 -0.0609 -0.1914
38578SOL    HW121570   4.098   9.204   3.726  0.7367  1.0579 -0.6177
38578SOL    HW221571   4.177   9.113   3.635 -0.0344 -0.1206 -0.1231
38579SOL     OW21572   0.924   3.929  10.225  0.1005 -0.5090 -0.5170
38579SOL    HW121573   0.994   3.874  10.260 -0.5679 -0.5249  0.8871
38579SOL    HW221574   0.844   3.878  10.240 -0.4213  0.4020 -0.1337
38580SOL     OW21575   2.421   1.302   5.778 -0.1388  0.0711  0.0107
38580SOL    HW121576   2.415   1.371   5.843 -0.0071 -0.1344  0.2440
38580SOL    HW221577   2.402   1.221   5.826 -1.3430  0.0444 -0.4660
38581SOL     OW21578  10.523   1.934   4.193 -0.5187 -0.9098  0.6406
38581SOL    HW121579  10.599   1.881   4.216  0.0684 -0.1216  0.5698
38581SOL    HW221580  10.545   1.971   4.107 -0.8296 -0.4065  0.7702
38582SOL     OW21581  10.484   1.008   1.644  0.2855 -0.7724  0.0822
38582SOL    HW121582  10.423   0.971   1.580  1.5707  0.5309 -2.0409
38582SOL    HW221583  10.428   1.051   1.709 -1.0859 -0.3148 -1.3425
38583SOL     OW21584  10.530   8.834   5.763 -0.0435 -0.5465 -0.6855
38583SOL    HW121585  10.625   8.840   5.774 -0.2906 -0.5806  2.4301
38583SOL    HW221586  10.499   8.924   5.767 -0.2922 -0.6738  1.0160
38584SOL     OW21587  10.598   4.207   3.360 -0.2752  0.1141  0.9251
38584SOL    HW121588  10.533   4.215   3.291 -0.8501  0.9206  1.5278
38584SOL    HW221589  10.569   4.269   3.427  1.0613  0.4259  1.2520
38585SOL     OW21590  10.186   8.864   5.998 -0.0581 -0.1966  0.1310
38585SOL    HW121591  10.258   8.919   6.028  0.9004 -1.6533  0.6163
38585SOL    HW221592  10.214   8.774   6.019 -1.6280 -0.8644 -0.4742
38586SOL     OW21593   0.897   1.404  10.512 -0.1066  0.1788 -0.3317
38586SOL    HW121594   0.819   1.361  10.475  0.9709 -0.7810 -1.5776
38586SOL    HW221595   0.930   1.458  10.440  1.3130 -0.7265 -0.4022
38587SOL     OW21596   5.617   9.943   7.338  0.3384  0.0766  0.0323
38587SOL    HW121597   5.583   9.854   7.333 -0.0612  0.1936  0.6098
38587SOL    HW221598   5.712   9.934   7.332  0.4609 -0.5774  2.1447
38588SOL     OW21599   2.112   0.816   2.813 -0.2151 -0.6362  0.1787
38588SOL    HW121600   2.079   0.761   2.884 -0.4243 -0.6819  0.0458
38588SOL    HW221601   2.049   0.888   2.807 -1.6500 -1.9353 -1.6391
38589SOL     OW21602   9.073   9.753   6.449  0.0248 -0.5868 -0.5244
38589SOL    HW121603   9.012   9.811   6.496  1.3361  0.0943  0.3881
38589SOL    HW221604   9.156   9.800   6.450  0.4898 -1.3162 -2.1185
38590SOL     OW21605  10.222   2.852  10.787 -0.6245 -0.5079  0.2941
38590SOL    HW121606  10.193   2.905  10.861  0.8905  0.3085  0.3292
38590SOL    HW221607  10.248   2.916  10.721  1.4972 -1.1769  0.4311
38591SOL     OW21608   8.493  10.909   0.881 -0.3684 -0.0506  0.1245
38591SOL    HW121609   8.536  10.835   0.923  0.5634  0.0468 -0.6182
38591SOL    HW221610   8.440  10.949   0.951 -0.5539 -1.1559  0.6302
38592SOL     OW21611   1.327   9.652   7.024  0.2414  0.2859 -0.0583
38592SOL    HW121612   1.333   9.649   6.929  1.8158  0.9665 -0.0115
38592SOL    HW221613   1.388   9.584   7.054 -0.0735  0.2309  0.4840
38593SOL     OW21614   7.445   2.381   6.424 -0.3485  0.1774  0.2430
38593SOL    HW121615   7.451   2.472   6.396 -0.9590  0.0522 -0.3165
38593SOL    HW221616   7.384   2.341   6.362 -0.0731 -0.6149  0.4728
38594SOL     OW21617   2.199   4.604   9.965 -0.6036  0.0804  0.3881
38594SOL    HW121618   2.126   4.543   9.959  0.3423 -1.2269  1.6684
38594SOL    HW221619   2.169   4.682   9.918 -1.9799 -1.2141 -0.9751
38595SOL     OW21620  10.357   9.950   9.499  0.1754 -0.0820 -0.3260
38595SOL    HW121621  10.439   9.954   9.449 -0.8187  1.0215 -1.9598
38595SOL    HW221622  10.375  10.003   9.576  1.0706 -0.0152 -0.5630
38596SOL     OW21623   9.425   1.621   2.325  0.5862  0.0562 -0.2601
38596SOL    HW121624   9.415   1.685   2.255 -1.3987  0.1655  0.0578
38596SOL    HW221625   9.336   1.596   2.348  1.1986 -0.5662  1.6985
38597SOL     OW21626   6.768   5.873   8.701 -0.5595 -0.1572  0.4735
38597SOL    HW121627   6.851   5.882   8.748  0.4838 -0.7929 -1.1381
38597SOL    HW221628   6.772   5.940   8.632 -0.9399 -0.8172 -0.2087
38598SOL     OW21629  10.731   8.758   8.744  0.2443 -0.0035 -0.2486
38598SOL    HW121630  10.815   8.720   8.772 -0.5546 -0.9521  0.9807
38598SOL    HW221631  10.749   8.796   8.658  1.5007 -1.7340 -0.8007
38599SOL     OW21632   5.069   0.948   1.008  0.0094 -0.0995 -0.3351
38599SOL    HW121633   5.073   0.949   0.912  0.4158 -2.0380 -0.3728
38599SOL    HW221634   4.981   0.981   1.028  0.1284  0.8902 -1.3281
38600SOL     OW21635   7.600   5.472   0.399  0.2773 -0.2788  0.3567
38600SOL    HW121636   7.510   5.469   0.366  0.3804  1.8942 -0.2230
38600SOL    HW221637   7.631   5.382   0.391 -1.5436 -0.9005 -0.2469
38601SOL     OW21638  10.514   6.864   2.657 -0.2484  0.3468 -0.3147
38601SOL    HW121639  10.584   6.836   2.598  1.1290 -0.0902  1.4363
38601SOL    HW221640  10.450   6.792   2.654  0.6899 -0.5241  0.1031
38602SOL     OW21641   2.567   4.904   8.396 -0.0160 -0.1061 -0.5224
38602SOL    HW121642   2.487   4.952   8.378 -0.4745 -0.5459  0.2491
38602SOL    HW221643   2.558   4.821   8.348  0.5755  0.3757 -1.4940
38603SOL     OW21644   8.595   4.815   3.531  0.0336  0.7624  0.3858
38603SOL    HW121645   8.581   4.734   3.579  1.0715  1.0179  1.1453
38603SOL    HW221646   8.518   4.869   3.552 -1.1182 -0.3343 -0.8517
38604SOL     OW21647   0.740   3.330   8.284  0.0921  0.2767 -0.1513
38604SOL    HW121648   0.769   3.258   8.228 -2.0226 -0.9667  0.2418
38604SOL    HW221649   0.774   3.409   8.241  1.9295 -0.8620 -0.9458
38605SOL     OW21650   6.453   9.859   2.954  0.4351 -0.2143 -0.4223
38605SOL    HW121651   6.501   9.908   2.887  0.4169 -0.8181 -0.8790
38605SOL    HW221652   6.397   9.799   2.905 -0.6698  0.3471  0.1075
38606SOL     OW21653   6.121   6.069   7.970 -0.0932 -0.1343 -0.8587
38606SOL    HW121654   6.071   6.078   8.051  2.5904  1.9246  0.7540
38606SOL    HW221655   6.104   6.150   7.922  1.0610  0.2463 -0.6425
38607SOL     OW21656   1.256   5.432   0.604 -0.5596 -0.3164 -0.0875
38607SOL    HW121657   1.172   5.430   0.559  0.0538  0.2137 -1.3142
38607SOL    HW221658   1.275   5.340   0.624 -1.2541 -0.4711 -0.1283
38608SOL     OW21659   3.179   3.588   8.851  0.0947  0.0126  0.1000
38608SOL    HW121660   3.126   3.666   8.864  0.0019 -0.0354  0.0085
38608SOL    HW221661   3.138   3.521   8.906  1.2825  0.5301  1.6828
38609SOL     OW21662   5.099   1.566   2.898  0.8349 -0.0208  0.2262
38609SOL    HW121663   5.032   1.569   2.830  0.9198 -0.7684  0.1022
38609SOL    HW221664   5.159   1.637   2.876  0.8361 -0.2294 -0.4517
38610SOL     OW21665   1.712   7.599   0.369 -0.0230  0.0512 -0.3154
38610SOL    HW121666   1.801   7.563   0.363 -0.1911 -0.4762  0.2633
38610SOL    HW221667   1.655   7.522   0.362 -0.4860  0.4900 -1.8084
38611SOL     OW21668   0.303   7.819   7.738  0.2723  0.5801 -0.4612
38611SOL    HW121669   0.398   7.807   7.745  0.4471  1.5390 -1.0873
38611SOL    HW221670   0.284   7.896   7.791  0.1737  1.7347 -2.1143
38612SOL     OW21671   2.380   5.748   8.915 -0.7327 -0.2513  0.5507
38612SOL    HW121672   2.458   5.705   8.950  0.0390 -1.2935 -2.2084
38612SOL    HW221673   2.317   5.747   8.988  1.3620 -0.4671  2.4646
38613SOL     OW21674   8.612   0.043   8.273  0.4699 -0.1921  0.6753
38613SOL    HW121675   8.565   0.111   8.321 -1.2681  0.9001 -2.2660
38613SOL    HW221676   8.703   0.074   8.270 -0.3055  2.2591 -0.7557
38614SOL     OW21677  10.116   0.592   5.569  0.0727  0.5414 -0.0494
38614SOL    HW121678  10.067   0.580   5.488  0.9445  0.9032 -0.6500
38614SOL    HW221679  10.144   0.504   5.595  0.1534  0.4702 -0.3795
38615SOL     OW21680   3.130   5.921   8.204 -0.6635 -0.5070 -0.0322
38615SOL    HW121681   3.087   5.923   8.289 -0.0408 -0.7427  0.2877
38615SOL    HW221682   3.198   5.855   8.212 -0.0206  0.0891 -0.4315
38616SOL     OW21683   5.965   1.930   7.936 -0.3665 -0.1949  0.1900
38616SOL    HW121684   5.879   1.942   7.975 -0.1340  0.4740  0.5142
38616SOL    HW221685   6.024   1.980   7.992  0.2471 -0.7149  0.0197
38617SOL     OW21686   7.550   7.122   7.553 -1.2151  0.6920  0.2840
38617SOL    HW121687   7.486   7.080   7.611 -1.8167  1.8449  0.4848
38617SOL    HW221688   7.635   7.096   7.589 -1.5813  0.3792  0.9422
38618SOL     OW21689  10.348   6.065  10.878  0.2578  0.6597 -0.2245
38618SOL    HW121690  10.297   6.097  10.804 -1.0469  2.3123  1.2992
38618SOL    HW221691  10.342   6.135  10.943  0.2578 -1.2521  1.9477
38619SOL     OW21692   2.566   9.818   7.388 -0.7254  0.6382 -0.7366
38619SOL    HW121693   2.571   9.876   7.313 -2.9783 -2.3771 -3.5388
38619SOL    HW221694   2.475   9.788   7.389 -0.6326 -0.0206  2.8588
38620SOL     OW21695   4.214   8.096   9.271 -0.1164  0.4858  0.1705
38620SOL    HW121696   4.233   8.176   9.319  1.8416  0.7373 -0.8911
38620SOL    HW221697   4.269   8.101   9.193  2.1739 -2.9984  1.2682
38621SOL     OW21698   5.969   2.904   1.349  0.0166  0.0722 -0.0262
38621SOL    HW121699   5.929   2.865   1.272  0.8049  0.0673 -0.4504
38621SOL    HW221700   5.939   2.995   1.349  0.0882  0.0986 -0.3980
38622SOL     OW21701   0.552   9.823   7.354  0.2289 -0.1284  0.6169
38622SOL    HW121702   0.569   9.730   7.371  0.0375 -0.5693 -1.3161
38622SOL    HW221703   0.638   9.860   7.336  0.2774  0.0154  1.1402
38623SOL     OW21704   4.184   9.657   1.769  0.3845  0.1113  0.1554
38623SOL    HW121705   4.130   9.645   1.691 -0.3035 -0.8400  0.7464
38623SOL    HW221706   4.235   9.576   1.775 -1.1148 -0.7937  1.8205
38624SOL     OW21707   6.293   7.750   4.824  0.3173  0.0661  0.1484
38624SOL    HW121708   6.301   7.809   4.750  2.5445 -0.9076 -0.4625
38624SOL    HW221709   6.215   7.781   4.871  0.3175  2.2672 -1.1682
38625SOL     OW21710   2.460   7.504   1.800 -0.1256 -0.2317 -0.0015
38625SOL    HW121711   2.379   7.458   1.822 -0.7477  0.5596 -0.6089
38625SOL    HW221712   2.463   7.503   1.704 -0.1941  1.0726 -0.0259
38626SOL     OW21713   7.016   4.053   8.294 -0.2297  0.0678 -0.1087
38626SOL    HW121714   7.001   3.966   8.259  0.1927 -0.1315  0.1992
38626SOL    HW221715   6.929   4.095   8.293 -1.1511 -1.4691  2.7104
38627SOL     OW21716   2.909   4.604   6.346 -0.5428  0.5370 -0.1635
38627SOL    HW121717   2.949   4.659   6.414 -0.7565  0.4310  0.0485
38627SOL    HW221718   2.825   4.576   6.384 -0.7505  0.6343 -0.5446
38628SOL     OW21719   2.775   3.525   4.930  0.5084  0.2144 -0.5138
38628SOL    HW121720   2.707   3.470   4.969  0.5436  0.6913  0.2504
38628SOL    HW221721   2.756   3.524   4.836  1.2629 -2.1295 -0.7228
38629SOL     OW21722   6.614   4.697   5.586  0.3427 -0.2434 -0.2827
38629SOL    HW121723   6.631   4.701   5.680  2.5198 -1.7752 -0.5516
38629SOL    HW221724   6.690   4.738   5.546 -0.4047  0.0896 -1.4216
38630SOL     OW21725   6.569   5.063   1.642  0.6412  0.6717 -0.3979
38630SOL    HW121726   6.590   4.987   1.696 -0.9937  0.1526 -0.4305
38630SOL    HW221727   6.557   5.135   1.704 -2.6508 -0.2260  0.2149
38631SOL     OW21728   5.119   0.859   8.115  0.1080 -0.2258 -0.0486
38631SOL    HW121729   5.055   0.863   8.186  0.3099 -0.3667  0.1430
38631SOL    HW221730   5.080   0.911   8.044 -0.3851 -0.6153 -0.0676
38632SOL     OW21731   1.560   0.850   9.875  0.7574  0.0333  0.0918
38632SOL    HW121732   1.627   0.904   9.917  0.3135  0.8001 -0.1700
38632SOL    HW221733   1.599   0.822   9.793  1.2845 -0.7071  0.5854
38633SOL     OW21734   7.585   3.157   5.468  0.1218 -0.3479 -0.2320
38633SOL    HW121735   7.574   3.248   5.441  0.9839 -0.6035 -1.4963
38633SOL    HW221736   7.602   3.110   5.387 -2.0714 -1.9500  0.1348
38634SOL     OW21737   9.962   0.800   5.609  0.4436  0.5891 -0.4148
38634SOL    HW121738   9.901   0.765   5.675 -0.1189 -0.1746 -1.3132
38634SOL    HW221739  10.027   0.730   5.598 -0.5944 -0.1675 -2.1024
38635SOL     OW21740  10.724   7.260   4.096 -0.0996  0.2165  0.1582
38635SOL    HW121741  10.682   7.185   4.054  0.2401  0.1651 -0.0919
38635SOL    HW221742  10.752   7.316   4.023  0.0520  0.3683  0.3304
38636SOL     OW21743   9.058   1.760   1.879  0.3431 -0.6521  0.2563
38636SOL    HW121744   9.103   1.678   1.901 -0.8065 -0.7438  2.5216
38636SOL    HW221745   9.027   1.747   1.789  3.5497 -1.1039 -0.9116
38637SOL     OW21746   2.635   1.173   8.285 -0.3393 -0.0111 -0.8278
38637SOL    HW121747   2.594   1.254   8.315 -1.0527 -0.0088 -1.7487
38637SOL    HW221748   2.619   1.111   8.355 -0.8830  0.3206 -0.6454
38638SOL     OW21749   7.468   2.425   9.946 -0.4322 -0.1344 -0.0977
38638SOL    HW121750   7.528   2.445   9.874 -1.4094 -1.8818 -1.4682
38638SOL    HW221751   7.391   2.388   9.904 -1.6751  0.2175  1.7662
38639SOL     OW21752   9.094   4.672   9.255  0.3661  0.2023  0.6199
38639SOL    HW121753   9.004   4.678   9.289  0.6678  0.6360  1.3574
38639SOL    HW221754   9.084   4.676   9.160 -0.4707 -0.6714  0.6589
38640SOL     OW21755   8.353   0.484   7.213  0.2320 -0.4781  0.3294
38640SOL    HW121756   8.425   0.535   7.177  2.2925 -2.0226  1.9748
38640SOL    HW221757   8.375   0.473   7.305 -1.8754 -1.4631  0.7767
38641SOL     OW21758   5.182   7.519   8.297 -0.6079 -0.3327 -0.0064
38641SOL    HW121759   5.277   7.512   8.293 -0.7671 -2.9188 -1.2280
38641SOL    HW221760   5.155   7.456   8.364 -1.4911 -0.2651 -0.2733
38642SOL     OW21761   8.385   8.389   9.451  0.2124  0.6182  0.7766
38642SOL    HW121762   8.357   8.358   9.365  1.4818  0.0056  0.5578
38642SOL    HW221763   8.303   8.407   9.498 -0.5056  0.2810 -0.3077
38643SOL     OW21764   9.062   0.610   4.642 -0.6688 -0.3973 -0.2433
38643SOL    HW121765   9.016   0.693   4.656 -0.6332 -0.6205  1.3974
38643SOL    HW221766   8.993   0.544   4.636 -0.6543 -0.5673  1.0315
38644SOL     OW21767   4.051   5.485   2.900  0.2318 -0.2792 -0.0197
38644SOL    HW121768   4.133   5.529   2.920  0.0972 -0.6852  1.5238
38644SOL    HW221769   4.043   5.417   2.967 -0.6057 -1.2680 -1.0831
38645SOL     OW21770   6.084   1.874   0.128  0.3912 -0.2105 -0.5261
38645SOL    HW121771   6.135   1.942   0.171 -1.1654  1.3120 -0.9430
38645SOL    HW221772   6.056   1.913   0.045 -1.1959 -1.0261 -0.4322
38646SOL     OW21773   7.530   4.965   6.667 -0.1918 -0.3207  0.0081
38646SOL    HW121774   7.504   4.938   6.579  2.5744  0.5303 -1.1847
38646SOL    HW221775   7.549   5.058   6.658  1.0970 -0.4392  1.2693
38647SOL     OW21776   1.932  10.032   1.893 -0.0719  0.7350  0.6982
38647SOL    HW121777   2.001  10.006   1.832 -1.3940 -0.0978 -0.5029
38647SOL    HW221778   1.948   9.978   1.970  0.5619  0.4781  0.4020
38648SOL     OW21779   1.626   7.503   3.258  0.4071  0.1605 -0.3804
38648SOL    HW121780   1.708   7.508   3.208 -0.1058 -0.1321 -1.2753
38648SOL    HW221781   1.581   7.585   3.238  1.3270  1.2540  1.6938
38649SOL     OW21782   0.247   3.305   9.040 -0.0179  0.1024 -0.0332
38649SOL    HW121783   0.179   3.373   9.041  0.2405  0.3930 -1.0091
38649SOL    HW221784   0.203   3.228   9.004  0.2588  0.4104 -1.0656
38650SOL     OW21785   7.970   2.186  10.407 -0.5211  0.7170 -0.3552
38650SOL    HW121786   7.996   2.108  10.456  0.0291  1.2830  0.2660
38650SOL    HW221787   8.050   2.238  10.400 -1.1911  1.8908  0.4805
38651SOL     OW21788   2.307   5.813   5.051  0.7529 -0.5647 -0.2829
38651SOL    HW121789   2.276   5.813   5.142 -0.2563  1.3580 -0.5719
38651SOL    HW221790   2.402   5.817   5.057  0.7167 -0.9840  0.6859
38652SOL     OW21791   2.488  10.855   8.577  0.0078 -0.1103  0.4269
38652SOL    HW121792   2.535  10.810   8.647  4.1914 -0.8845 -2.5169
38652SOL    HW221793   2.484  10.946   8.606  0.6626 -0.5838  2.1229
38653SOL     OW21794   3.675   1.287   8.637  0.8594 -0.4163  0.5038
38653SOL    HW121795   3.725   1.340   8.698 -0.1294 -0.3492  1.2937
38653SOL    HW221796   3.590   1.276   8.680 -0.5362  1.1820 -1.6518
38654SOL     OW21797   0.999   1.386   1.941 -0.0348 -0.3282  0.0890
38654SOL    HW121798   0.966   1.451   2.003 -0.0852  2.0419 -2.2410
38654SOL    HW221799   0.925   1.367   1.884  0.6419 -0.5873 -0.7211
38655SOL     OW21800   7.584   2.104   2.861 -0.5403 -0.9717 -0.1757
38655SOL    HW121801   7.516   2.102   2.929 -0.8196 -0.3214 -0.4233
38655SOL    HW221802   7.626   2.190   2.873 -1.5111 -0.2437 -1.6982
38656SOL     OW21803   2.217   0.824  10.092 -0.3878  0.0882 -0.0390
38656SOL    HW121804   2.233   0.915  10.067 -0.0048  0.0951  0.2250
38656SOL    HW221805   2.258   0.772  10.023 -2.6758  0.0954 -1.5078
38657SOL     OW21806   8.977   4.391   0.904 -0.1251 -0.4189  0.1337
38657SOL    HW121807   9.036   4.458   0.872 -0.4328 -0.1769  0.0672
38657SOL    HW221808   9.033   4.331   0.953 -0.0877  0.8168  1.6823
38658SOL     OW21809  10.361   9.080   7.673  0.4927 -0.6804  0.0592
38658SOL    HW121810  10.269   9.059   7.657  0.1702  1.1373 -0.8051
38658SOL    HW221811  10.389   9.126   7.594  2.0751 -0.9748  0.4175
38659SOL     OW21812   2.664   4.828   1.612 -0.5324  0.5219  0.6892
38659SOL    HW121813   2.720   4.760   1.649  0.4799 -0.2379 -2.0075
38659SOL    HW221814   2.713   4.909   1.625  0.6896  0.0175 -0.5721
38660SOL     OW21815  10.888   7.106   4.287 -0.2645 -0.2212 -0.5914
38660SOL    HW121816  10.842   7.165   4.228  0.1422  1.0676  0.3426
38660SOL    HW221817  10.819   7.059   4.334 -0.6525  1.0095  0.1169
38661SOL     OW21818   3.066   4.697   5.103 -0.1654  0.1660 -0.0225
38661SOL    HW121819   3.022   4.751   5.037  0.6223 -0.6931 -1.2781
38661SOL    HW221820   3.105   4.625   5.054  1.9100  0.4184  1.1491
38662SOL     OW21821   6.195  10.925   3.314 -0.0658 -0.2191 -0.0064
38662SOL    HW121822   6.213  11.012   3.352  1.7183 -0.8050  0.6053
38662SOL    HW221823   6.279  10.898   3.278 -1.2120 -0.6163 -2.5563
38663SOL     OW21824  10.445  10.782   9.097  0.1510 -0.0764 -0.1073
38663SOL    HW121825  10.372  10.789   9.159 -0.1487 -0.7517 -0.3737
38663SOL    HW221826  10.456  10.688   9.083  0.6070  0.0472 -0.6161
38664SOL     OW21827   6.583   2.166   1.497  0.1934 -0.2310 -0.4716
38664SOL    HW121828   6.606   2.255   1.524  0.7172  0.5078 -3.0912
38664SOL    HW221829   6.590   2.114   1.577 -0.8370  2.1695  1.2854
38665SOL     OW21830   7.953   2.803   5.695  0.0425  0.0844  0.4912
38665SOL    HW121831   8.038   2.825   5.657  0.9737 -0.4585  2.1562
38665SOL    HW221832   7.892   2.806   5.621  1.0646  2.7389 -0.3649
38666SOL     OW21833   4.851   5.359   6.419  0.5336 -0.0817  0.2652
38666SOL    HW121834   4.804   5.426   6.468  0.4754 -0.7572  1.1617
38666SOL    HW221835   4.794   5.339   6.345 -0.1096 -0.1526  0.7742
38667SOL     OW21836   7.630   5.668   5.829 -0.3526  0.1518  0.2793
38667SOL    HW121837   7.644   5.679   5.735  0.5931  2.1025  0.6096
38667SOL    HW221838   7.535   5.671   5.840 -0.4053  2.7795 -0.3491
38668SOL     OW21839   1.564   6.620   3.195 -0.0521 -0.2261  0.6674
38668SOL    HW121840   1.525   6.589   3.277 -0.8805 -1.3590 -0.1161
38668SOL    HW221841   1.489   6.632   3.136  0.4616  1.3244  0.2915
38669SOL     OW21842   3.519   0.247   5.004 -0.7895 -0.8097  0.3123
38669SOL    HW121843   3.581   0.320   5.006 -2.7356  0.9596  0.0149
38669SOL    HW221844   3.523   0.215   4.914 -0.0532 -0.9852  0.3963
38670SOL     OW21845   8.747   1.261   3.400  0.7968  0.0385  0.2441
38670SOL    HW121846   8.732   1.348   3.362  1.8078 -0.1747 -0.7092
38670SOL    HW221847   8.733   1.201   3.327  1.3599 -0.4977  0.5674
38671SOL     OW21848  10.900   5.084  10.874  0.4556  0.0397 -0.4278
38671SOL    HW121849  10.989   5.051  10.888  0.5320 -0.1502 -1.2859
38671SOL    HW221850  10.850   5.053  10.950  1.3771  1.1852  0.6908
38672SOL     OW21851   0.709   9.047   9.167  0.1945 -0.2162  0.2713
38672SOL    HW121852   0.696   9.062   9.074 -0.1865 -0.7639  0.2300
38672SOL    HW221853   0.782   8.986   9.171 -0.2120 -0.7057  0.2984
38673SOL     OW21854   9.128   0.954   8.532 -0.8683  0.2542  0.4815
38673SOL    HW121855   9.075   0.894   8.479 -0.3351  1.0473 -1.0388
38673SOL    HW221856   9.218   0.934   8.506 -0.6714  1.5719  0.0455
38674SOL     OW21857   9.421   2.841   8.660  1.0428 -0.3253 -0.3450
38674SOL    HW121858   9.508   2.877   8.677  0.0186  2.1769  0.0390
38674SOL    HW221859   9.364   2.885   8.724 -0.2649 -3.2817  0.6776
38675SOL     OW21860   0.727   5.471   1.007 -0.6922  0.1685 -1.0658
38675SOL    HW121861   0.781   5.421   0.946  0.8795  0.6557 -0.1171
38675SOL    HW221862   0.770   5.556   1.014 -0.9480  0.1941  0.5528
38676SOL     OW21863   9.849   4.287   6.797  0.2227  0.0726 -0.0354
38676SOL    HW121864   9.799   4.327   6.726 -1.5218 -0.9027  0.5662
38676SOL    HW221865   9.859   4.357   6.862 -4.2309 -0.5904  1.7524
38677SOL     OW21866   8.668   7.412   5.645  0.2032 -0.2749 -0.3483
38677SOL    HW121867   8.666   7.501   5.611  1.4090  0.0281  0.3301
38677SOL    HW221868   8.720   7.364   5.581 -1.0241 -0.6896 -1.0858
38678SOL     OW21869   1.335   5.406   6.878  0.1524 -0.6806 -0.2245
38678SOL    HW121870   1.281   5.327   6.878  0.9592 -1.2514 -0.9865
38678SOL    HW221871   1.423   5.374   6.858  0.2824  0.5252 -1.7913
38679SOL     OW21872   6.644   4.927   1.067  0.5101  0.2057  0.4268
38679SOL    HW121873   6.693   5.006   1.048  0.1190  1.0282  2.5203
38679SOL    HW221874   6.616   4.937   1.158 -1.2231 -1.4583  0.1545
38680SOL     OW21875   9.127   0.152   5.073 -0.2621 -0.1917 -0.0530
38680SOL    HW121876   9.098   0.112   4.991  0.7616 -0.6663 -0.2083
38680SOL    HW221877   9.082   0.237   5.076  0.8139  0.5158 -1.8871
38681SOL     OW21878   0.869   6.475   5.728  0.2505  0.1806 -0.1896
38681SOL    HW121879   0.882   6.382   5.706  1.5978 -0.0550  1.3843
38681SOL    HW221880   0.866   6.476   5.823 -0.3937  1.7091 -0.2046
38682SOL     OW21881   2.971   9.720   6.674  0.0965  0.4248  0.1284
38682SOL    HW121882   3.012   9.643   6.714  0.4426 -0.0799 -1.1596
38682SOL    HW221883   2.966   9.699   6.581 -1.9519  1.0033  0.0588
38683SOL     OW21884   2.981   3.406  10.707 -0.6076 -0.0589  0.8405
38683SOL    HW121885   3.031   3.382  10.629 -0.2150 -1.2642  1.4318
38683SOL    HW221886   3.048   3.424  10.773 -0.8550  3.1866  0.3497
38684SOL     OW21887   0.200   1.671   4.588 -0.2369 -0.0283 -0.2976
38684SOL    HW121888   0.208   1.627   4.672  1.7519  0.8872  0.0316
38684SOL    HW221889   0.140   1.744   4.604  0.9502  0.7736  0.6156
38685SOL     OW21890   7.278   9.733   9.639 -0.3291 -0.3288 -0.1469
38685SOL    HW121891   7.349   9.672   9.617  0.1226  0.1807 -0.1110
38685SOL    HW221892   7.225   9.685   9.702  0.6587 -0.2796  0.7517
38686SOL     OW21893   1.143  10.519   4.338 -0.5502  0.1481 -0.0283
38686SOL    HW121894   1.192  10.478   4.410 -0.5743 -0.1674 -0.1884
38686SOL    HW221895   1.160  10.613   4.348  1.3200 -0.0518 -0.9600
38687SOL     OW21896   8.607   0.754   3.941  0.5860  0.1903 -0.0783
38687SOL    HW121897   8.577   0.664   3.934 -1.3269  0.5105  2.4111
38687SOL    HW221898   8.602   0.774   4.035 -1.5558  3.6225 -0.7366
38688SOL     OW21899  10.479   5.049   4.483 -0.3606 -0.5369  0.3136
38688SOL    HW121900  10.496   5.143   4.497 -4.2665  0.5737 -1.1745
38688SOL    HW221901  10.465   5.014   4.570  0.7167  0.3343  0.8663
38689SOL     OW21902   7.332   6.376   8.180  0.5237 -0.3378 -0.1304
38689SOL    HW121903   7.389   6.335   8.244 -0.3172  0.0247  0.8864
38689SOL    HW221904   7.266   6.309   8.160  2.6540 -1.7267 -3.2677
38690SOL     OW21905   1.697   8.167   3.843  0.7896  1.1797 -0.0516
38690SOL    HW121906   1.676   8.248   3.797  0.1892  0.3694 -1.2796
38690SOL    HW221907   1.685   8.098   3.776  0.0569 -0.0282  1.2701
38691SOL     OW21908   8.986   8.330   7.440  0.4353  0.2962  0.5347
38691SOL    HW121909   8.958   8.355   7.528  0.3263 -1.1594  0.9386
38691SOL    HW221910   8.941   8.391   7.382 -2.0361 -0.7011  1.2792
38692SOL     OW21911   4.215   2.085   4.715  0.3765 -0.3481  0.4356
38692SOL    HW121912   4.247   2.139   4.643 -0.3032  0.8200  0.9793
38692SOL    HW221913   4.293   2.038   4.746  0.7781 -0.4520 -0.6991
38693SOL     OW21914   6.871   5.202   3.468 -0.0062 -0.0107 -0.1282
38693SOL    HW121915   6.962   5.198   3.438 -0.0970 -0.7225 -0.3285
38693SOL    HW221916   6.819   5.175   3.392 -0.3943  0.4528 -0.0350
38694SOL     OW21917   0.396   9.957  10.459  0.0509 -0.2466 -0.4035
38694SOL    HW121918   0.402   9.878  10.513  1.7332  1.0516  1.4641
38694SOL    HW221919   0.314   9.947  10.410  0.1609 -3.0518 -0.1374
38695SOL     OW21920   7.959   7.118   0.316 -0.4416  0.2843  0.1071
38695SOL    HW121921   7.876   7.101   0.272  0.1585 -0.1509 -0.9089
38695SOL    HW221922   7.940   7.106   0.409 -0.9097 -2.6652 -0.2665
38696SOL     OW21923   1.139   0.493   5.982 -0.2092  0.7453  0.0685
38696SOL    HW121924   1.192   0.492   5.903  0.1318  3.0146  0.1858
38696SOL    HW221925   1.054   0.459   5.955  0.1428  0.7567 -1.0920
38697SOL     OW21926   4.502   6.659   3.894  0.5373 -0.0174 -0.1980
38697SOL    HW121927   4.495   6.721   3.821  0.1652  0.8543  0.5535
38697SOL    HW221928   4.461   6.579   3.861 -1.1006  0.8619 -0.4130
38698SOL     OW21929  10.892   1.142   9.228 -0.0736  0.0779 -0.4995
38698SOL    HW121930  10.970   1.198   9.230  0.8578 -1.1475 -1.3760
38698SOL    HW221931  10.842   1.173   9.152 -2.1626  2.9847  1.8054
38699SOL     OW21932   9.896   1.979  10.114 -0.0481 -0.6444  0.3351
38699SOL    HW121933   9.940   1.941  10.038  0.1049  1.4395 -0.6641
38699SOL    HW221934   9.859   2.061  10.083  0.7491  0.7086  2.7059
38700SOL     OW21935   2.414   1.184   8.599 -0.0009 -0.1566 -0.0690
38700SOL    HW121936   2.464   1.252   8.645 -0.0967 -0.5898  0.7001
38700SOL    HW221937   2.479   1.118   8.575 -0.0032 -0.0931 -0.2505
38701SOL     OW21938   2.295   0.258   5.509 -0.4222 -0.4514 -0.1292
38701SOL    HW121939   2.272   0.273   5.601 -0.1375  1.6089 -0.3382
38701SOL    HW221940   2.357   0.186   5.511  0.0463 -0.0427  1.3712
38702SOL     OW21941   0.232   2.204   7.010 -0.2932  0.0104 -0.6282
38702SOL    HW121942   0.222   2.109   7.019 -0.7236 -0.2114 -2.8802
38702SOL    HW221943   0.254   2.217   6.918 -0.9543  2.1685 -0.5339
38703SOL     OW21944   4.733   2.987   6.148 -0.3840 -0.0101  0.4736
38703SOL    HW121945   4.684   2.919   6.194 -0.4394 -1.1799 -1.2100
38703SOL    HW221946   4.807   2.940   6.109  0.1352  1.0969  0.1081
38704SOL     OW21947   0.833   5.513   7.382 -0.3169 -0.7577 -0.1321
38704SOL    HW121948   0.905   5.451   7.397  1.3491  1.2132  0.5511
38704SOL    HW221949   0.754   5.458   7.381  1.1933 -3.1050 -1.4720
38705SOL     OW21950   5.451   5.437   0.327  0.6413  0.2773 -0.2946
38705SOL    HW121951   5.542   5.468   0.328  0.1502  1.8066  1.3858
38705SOL    HW221952   5.404   5.503   0.276  0.2132  0.2767  0.0972
38706SOL     OW21953  10.521   5.641   8.002 -0.8557  0.0559  0.2118
38706SOL    HW121954  10.467   5.677   8.073 -2.1142  0.0204 -0.6974
38706SOL    HW221955  10.602   5.691   8.005 -0.8824  0.0484  1.6727
38707SOL     OW21956   5.802   0.303   3.520  0.2046 -0.0222  0.1798
38707SOL    HW121957   5.870   0.264   3.574 -0.4044 -0.6360  0.5219
38707SOL    HW221958   5.747   0.352   3.583 -0.2220 -0.3329  0.0538
38708SOL     OW21959   0.936   5.358   4.839  0.0767 -0.0730 -0.0757
38708SOL    HW121960   0.854   5.392   4.804  0.0686 -0.1403 -0.1210
38708SOL    HW221961   1.004   5.396   4.783  0.0221 -0.7451 -0.6087
38709SOL     OW21962  10.857   7.374   2.347  1.0170 -0.2582 -0.2978
38709SOL    HW121963  10.789   7.408   2.290 -0.4320  0.2048  1.6180
38709SOL    HW221964  10.856   7.279   2.333 -1.7914 -0.5920  1.4224
38710SOL     OW21965   6.018  10.586   6.021  0.3690 -0.1162  0.0677
38710SOL    HW121966   5.990  10.496   6.000  2.0078 -0.2600 -1.7528
38710SOL    HW221967   6.003  10.635   5.941  1.7370  0.6584  0.2610
38711SOL     OW21968   8.519   2.383   4.378  0.7270  0.0757  0.2047
38711SOL    HW121969   8.424   2.371   4.368  0.6847 -0.0085  0.6797
38711SOL    HW221970   8.553   2.294   4.389  0.9981  0.0132 -1.0722
38712SOL     OW21971   2.710   4.158   2.042 -0.1770  0.3732 -0.1443
38712SOL    HW121972   2.752   4.243   2.033  0.1527  0.2262 -0.0029
38712SOL    HW221973   2.633   4.175   2.096 -1.4967  1.0355 -2.1213
38713SOL     OW21974   3.996   3.774   3.120 -0.1423  0.0791 -0.3849
38713SOL    HW121975   3.902   3.797   3.119  0.1732  1.5210 -0.0942
38713SOL    HW221976   4.006   3.711   3.049 -1.0512  1.2027 -1.5717
38714SOL     OW21977   2.096   2.147   5.473 -0.0321  0.1862 -0.4106
38714SOL    HW121978   2.005   2.148   5.504  0.4135  0.0837  0.9825
38714SOL    HW221979   2.141   2.209   5.531  0.9711 -0.4597 -0.4828
38715SOL     OW21980   9.989   7.384   6.810 -0.2144  0.1508  0.8846
38715SOL    HW121981  10.076   7.345   6.818 -0.0540 -0.1831 -1.6094
38715SOL    HW221982   9.974   7.428   6.893  0.7939 -2.8345  2.8242
38716SOL     OW21983   9.995   1.294   2.494 -0.2958  0.2486 -0.7381
38716SOL    HW121984   9.929   1.337   2.439 -1.9365  0.9288  1.5956
38716SOL    HW221985   9.954   1.211   2.520  1.1443 -0.8548 -1.8222
38717SOL     OW21986  10.112   5.336   8.546 -0.3648  0.1227 -0.4107
38717SOL    HW121987  10.162   5.324   8.465  1.3524 -1.2866  0.7781
38717SOL    HW221988  10.179   5.342   8.614 -1.7984 -0.5159  1.1033
38718SOL     OW21989   0.248   7.070  10.021 -0.0590  0.2479  0.5683
38718SOL    HW121990   0.280   7.114   9.943 -0.3726  0.3571  0.5035
38718SOL    HW221991   0.162   7.036   9.997 -0.0319  0.0310  0.7732
38719SOL     OW21992   4.957   8.169   0.538 -0.6158 -0.4557  0.6785
38719SOL    HW121993   4.960   8.229   0.612  0.0776 -0.8684  0.9978
38719SOL    HW221994   4.866   8.172   0.508 -1.3370 -1.5312  2.5861
38720SOL     OW21995   8.530   2.338   4.105 -0.0119  0.1501  0.2287
38720SOL    HW121996   8.499   2.356   4.016 -0.8649 -1.6443  0.1078
38720SOL    HW221997   8.581   2.257   4.096 -0.1509 -0.0771  1.3728
38721SOL     OW21998   2.795   6.517   1.347  0.5474  0.2955 -0.4274
38721SOL    HW121999   2.709   6.518   1.305 -0.1235 -2.3026  0.7067
38721SOL    HW222000   2.791   6.445   1.410  3.2848  0.6464  0.3034
38722SOL     OW22001  10.540   6.860   4.394  0.1546 -0.0752  0.0416
38722SOL    HW122002  10.555   6.769   4.369  1.2609  0.5182 -1.5712
38722SOL    HW222003  10.626   6.892   4.420 -0.2686  0.4634  0.8071
38723SOL     OW22004   3.016   2.894   6.409 -0.6715 -0.3515  0.1023
38723SOL    HW122005   2.936   2.899   6.356 -1.2163  1.9906  0.9797
38723SOL    HW222006   2.984   2.887   6.499  0.1717 -1.2010  0.3449
38724SOL     OW22007   0.768   1.707   9.966  0.3253 -0.0006  0.1878
38724SOL    HW122008   0.781   1.626  10.015 -0.5726  1.3983  2.9149
38724SOL    HW222009   0.854   1.750   9.967  0.5119 -0.3553 -0.2382
38725SOL     OW22010   0.554   7.652   2.217 -0.5488 -0.1630  0.1807
38725SOL    HW122011   0.629   7.593   2.225  1.1753  2.0208  1.3695
38725SOL    HW222012   0.555   7.681   2.125 -0.3579 -0.6608  0.0257
38726SOL     OW22013   2.451   3.421   8.305 -0.4672  0.1094  0.1104
38726SOL    HW122014   2.423   3.503   8.263  0.1832 -0.0025 -0.5520
38726SOL    HW222015   2.481   3.448   8.392 -2.6914  0.2292  0.9037
38727SOL     OW22016   1.508   0.198   4.959  0.4183 -0.3667  0.0285
38727SOL    HW122017   1.444   0.263   4.930 -0.4549 -0.5012  1.5175
38727SOL    HW222018   1.455   0.124   4.988  1.3633 -1.4130 -0.8125
38728SOL     OW22019   2.271   9.522  10.179  0.5596  0.6284  0.1377
38728SOL    HW122020   2.183   9.531  10.216 -0.4024  0.5306 -2.0151
38728SOL    HW222021   2.329   9.541  10.253 -1.2270  0.1672  1.7615
38729SOL     OW22022   1.290   3.172  10.811  0.0380  0.1003 -0.4326
38729SOL    HW122023   1.348   3.236  10.769  0.6116 -0.0165  0.1527
38729SOL    HW222024   1.204   3.213  10.809  0.2637  0.5738 -0.7163
38730SOL     OW22025  10.277   3.290  10.259 -0.0156  0.1287 -0.1208
38730SOL    HW122026  10.372   3.284  10.268 -0.0201 -0.6417 -0.5565
38730SOL    HW222027  10.245   3.204  10.285 -0.6051  0.4049  0.0891
38731SOL     OW22028   2.051   3.122   7.382 -0.1685  0.1099  0.4114
38731SOL    HW122029   2.013   3.202   7.419  0.1177  0.3173  0.2650
38731SOL    HW222030   2.008   3.051   7.429  0.3963  0.3719  1.3587
38732SOL     OW22031   7.207   5.136   3.574 -0.0305  0.1394  0.3084
38732SOL    HW122032   7.298   5.167   3.568  0.4873 -1.5873 -2.9770
38732SOL    HW222033   7.209   5.069   3.642  2.0408 -2.1150 -1.7613
38733SOL     OW22034   4.673   8.226   7.017 -0.3350 -0.4337 -0.6099
38733SOL    HW122035   4.756   8.224   7.064 -1.5228  2.3084  1.9423
38733SOL    HW222036   4.682   8.300   6.956 -0.5652 -0.7637 -1.0507
38734SOL     OW22037   3.430   2.755  10.042  0.0722  0.5417  0.1657
38734SOL    HW122038   3.484   2.756   9.963 -0.0859 -1.2300  0.0068
38734SOL    HW222039   3.364   2.823  10.026  0.6447  0.8945 -0.7775
38735SOL     OW22040   4.719   0.300   4.887  0.0726  0.4474 -0.0721
38735SOL    HW122041   4.760   0.357   4.822 -0.1997  0.1472 -0.5117
38735SOL    HW222042   4.790   0.274   4.945  0.5733 -0.2844 -0.9861
38736SOL     OW22043   2.887   2.869   8.549  0.8046 -0.5971  0.1117
38736SOL    HW122044   2.944   2.882   8.474  0.4135  1.5940  0.1269
38736SOL    HW222045   2.848   2.783   8.536  0.2626 -0.0140 -2.5349
38737SOL     OW22046   7.037   3.152   0.348  0.3056 -0.8003  0.0653
38737SOL    HW122047   6.969   3.097   0.309 -0.8126  0.6033 -0.0273
38737SOL    HW222048   7.054   3.112   0.434  0.1128 -1.7541 -0.3323
38738SOL     OW22049   6.881   6.818   4.432  0.2996 -0.0346 -0.7246
38738SOL    HW122050   6.804   6.792   4.483  0.7938  0.6340  0.4035
38738SOL    HW222051   6.953   6.770   4.471  0.7742  0.9078 -0.4045
38739SOL     OW22052   8.342   7.346   6.296 -0.3503  0.0489 -0.2323
38739SOL    HW122053   8.270   7.409   6.295 -1.8983 -1.5783  1.5152
38739SOL    HW222054   8.399   7.375   6.225 -2.0760  2.1335 -0.8981
38740SOL     OW22055   4.328   3.639   9.501 -0.3146 -0.2723  0.1941
38740SOL    HW122056   4.330   3.684   9.585  0.3354  1.4757 -0.6962
38740SOL    HW222057   4.298   3.706   9.439 -1.2880 -1.6526 -0.8984
38741SOL     OW22058   6.919   5.051  10.045 -0.1690  0.6793 -0.6626
38741SOL    HW122059   6.860   5.112  10.002  0.2534  1.1411 -0.5934
38741SOL    HW222060   6.957   5.101  10.117  1.9740  1.1102 -2.0113
38742SOL     OW22061   0.616   7.025   7.902 -0.4191  0.1289 -0.2643
38742SOL    HW122062   0.694   6.970   7.894 -2.0712 -2.3656 -0.2750
38742SOL    HW222063   0.618   7.082   7.825  1.4942  0.3180 -0.1202
38743SOL     OW22064   1.078   2.032   5.132  0.6152 -0.5026  0.4810
38743SOL    HW122065   1.155   2.074   5.171  1.6806 -0.7960 -1.2156
38743SOL    HW222066   1.086   2.049   5.039 -1.0837 -1.0567  0.2077
38744SOL     OW22067   8.815   7.464   4.134 -0.2102  0.0706  0.2235
38744SOL    HW122068   8.867   7.544   4.125 -0.4240  0.5304  2.4155
38744SOL    HW222069   8.878   7.397   4.162  0.4975 -1.3561 -4.0813
38745SOL     OW22070   8.635   8.258   0.479 -1.2571  0.7504 -0.3044
38745SOL    HW122071   8.712   8.207   0.505 -1.0853  0.8685 -0.5811
38745SOL    HW222072   8.648   8.275   0.386 -1.1224  1.6378 -0.1344
38746SOL     OW22073   8.270   5.309   2.897 -0.1228 -0.0427 -0.4920
38746SOL    HW122074   8.347   5.271   2.855  0.3691  0.2886  0.0984
38746SOL    HW222075   8.282   5.404   2.889  0.2339  0.0462  0.7994
38747SOL     OW22076   3.927   1.693   7.582  0.2731  0.2531  0.5493
38747SOL    HW122077   3.834   1.673   7.590  1.0482 -3.7006  1.9491
38747SOL    HW222078   3.948   1.743   7.660 -0.3442 -0.7182  1.3633
38748SOL     OW22079   5.418   4.790   2.440  0.2794 -0.0090  0.0602
38748SOL    HW122080   5.397   4.776   2.532  1.3159  0.2578  0.3505
38748SOL    HW222081   5.335   4.818   2.401 -0.0137  0.6098  1.0699
38749SOL     OW22082  10.849   1.453   4.366  0.2713 -0.0801 -0.3304
38749SOL    HW122083  10.896   1.500   4.297 -1.3232  0.0846 -1.3538
38749SOL    HW222084  10.834   1.366   4.329 -1.9738  0.4810 -0.9201
38750SOL     OW22085   7.800   6.624   8.377 -0.2409 -0.2256  0.2340
38750SOL    HW122086   7.740   6.567   8.425 -2.0358  0.9884 -0.4626
38750SOL    HW222087   7.857   6.661   8.445 -0.6312 -1.0037  1.0079
38751SOL     OW22088   4.345   9.106   4.465  0.5355  0.3997 -0.0006
38751SOL    HW122089   4.289   9.182   4.477 -1.2492 -0.7924 -0.5045
38751SOL    HW222090   4.320   9.046   4.536  1.0544 -0.2254 -0.3358
38752SOL     OW22091   7.605   1.288   1.888  0.1094  0.0839  0.3900
38752SOL    HW122092   7.548   1.303   1.963 -1.6201 -1.5909 -0.5216
38752SOL    HW222093   7.690   1.266   1.927  0.5576  3.4816  1.7728
38753SOL     OW22094   7.738   5.890   3.037 -0.1984  0.0805 -0.1538
38753SOL    HW122095   7.732   5.930   3.124 -0.5250 -1.4416  0.5577
38753SOL    HW222096   7.647   5.873   3.012 -0.0540 -0.4587 -0.3209
38754SOL     OW22097   0.623   1.187   0.064 -0.3370  0.0744  0.1788
38754SOL    HW122098   0.712   1.186   0.099 -0.3993  1.5334  0.4372
38754SOL    HW222099   0.594   1.096   0.070  0.2903 -0.0383  2.3200
38755SOL     OW22100   6.099   6.834   3.838 -0.0588  0.3088  0.0375
38755SOL    HW122101   6.044   6.777   3.785  0.6127 -2.0522  1.7058
38755SOL    HW222102   6.184   6.832   3.795  0.0434 -0.2252  0.2569
38756SOL     OW22103   2.227  10.909   0.235  0.0684  0.0211 -0.2840
38756SOL    HW122104   2.186  10.873   0.156  1.5482  0.7123 -1.4113
38756SOL    HW222105   2.306  10.857   0.247 -0.3054 -0.2999  0.9757
38757SOL     OW22106   2.525   0.563   6.675  0.3510 -0.5918 -0.4021
38757SOL    HW122107   2.437   0.547   6.640  0.5862 -0.3786 -1.0825
38757SOL    HW222108   2.544   0.654   6.652  0.7033 -0.6011 -0.1460
38758SOL     OW22109   1.318   6.186   0.524  0.6239 -0.5998  0.3463
38758SOL    HW122110   1.371   6.161   0.448 -0.5876  0.3723 -0.8863
38758SOL    HW222111   1.229   6.160   0.500  0.6512 -3.8887  3.1056
38759SOL     OW22112   3.086   2.773   5.378 -0.2626 -0.2436  0.8312
38759SOL    HW122113   3.144   2.737   5.310 -1.1316 -0.0314 -0.0419
38759SOL    HW222114   3.065   2.861   5.346 -0.6367 -0.1253  1.4128
38760SOL     OW22115   0.387   8.388   4.847  0.0299  0.5691 -0.1008
38760SOL    HW122116   0.401   8.467   4.899  0.0787  1.5520 -1.5608
38760SOL    HW222117   0.473   8.368   4.810 -0.0941  0.1430 -0.1612
38761SOL     OW22118   9.701   9.941   2.754  0.0212 -0.1255 -0.1802
38761SOL    HW122119   9.728   9.850   2.739 -0.3886 -0.7484  2.4248
38761SOL    HW222120   9.612   9.946   2.718 -0.0230 -0.7964 -0.1767
38762SOL     OW22121   4.182   3.673   2.128  0.1115  0.4824 -0.5349
38762SOL    HW122122   4.131   3.594   2.148  0.7650  0.4306  1.0724
38762SOL    HW222123   4.271   3.640   2.112  0.2963  0.8535 -0.2788
38763SOL     OW22124   0.299  10.503   7.163  0.2037  0.0925  0.3342
38763SOL    HW122125   0.256  10.537   7.084  0.0150  2.8251  1.4969
38763SOL    HW222126   0.390  10.488   7.136 -0.2700 -0.8090 -0.8412
38764SOL     OW22127   6.935   4.164   6.742  0.3782  0.0247 -0.4077
38764SOL    HW122128   7.008   4.150   6.802  1.3518  0.5682 -1.4266
38764SOL    HW222129   6.938   4.258   6.722 -0.0165 -0.1185 -1.1788
38765SOL     OW22130   5.683   6.451   8.805  0.1830  0.4846  0.3210
38765SOL    HW122131   5.728   6.367   8.810  0.2055  0.5604  1.7997
38765SOL    HW222132   5.591   6.427   8.790  0.3787  0.2562 -0.5691
38766SOL     OW22133   6.239   9.413   2.784  0.7308  0.5808 -0.0491
38766SOL    HW122134   6.261   9.424   2.691  0.2985 -1.1906 -0.3993
38766SOL    HW222135   6.265   9.323   2.804 -1.6214  0.0247  0.8040
38767SOL     OW22136   4.095   3.899   6.455 -0.5853 -0.0115 -0.1311
38767SOL    HW122137   4.182   3.893   6.494 -0.9598 -2.2602  0.5058
38767SOL    HW222138   4.082   3.814   6.412 -2.3833  0.3386 -0.3670
38768SOL     OW22139   9.049   1.184  10.414 -0.4146 -0.2436 -0.3195
38768SOL    HW122140   9.061   1.278  10.404 -0.3586 -0.1944  0.1749
38768SOL    HW222141   9.134   1.152  10.446  0.3362 -0.8161 -2.6715
38769SOL     OW22142   6.618   8.108   7.330 -0.1157  0.3710 -0.0558
38769SOL    HW122143   6.570   8.176   7.378 -2.1055 -1.4216  0.6693
38769SOL    HW222144   6.685   8.078   7.391 -1.4503 -0.6098  1.0237
38770SOL     OW22145   8.531   0.770   1.564 -0.3507  0.1667  0.0816
38770SOL    HW122146   8.594   0.838   1.589 -0.0010 -0.7303  1.8155
38770SOL    HW222147   8.585   0.691   1.554 -0.9173 -0.1349 -0.7021
38771SOL     OW22148   3.623  10.204   3.349 -0.1675 -0.0665 -0.1254
38771SOL    HW122149   3.579  10.149   3.284 -1.1607  0.8414 -0.2541
38771SOL    HW222150   3.624  10.291   3.309  0.5589  0.2015  0.4580
38772SOL     OW22151   5.470   6.257   4.753  0.1881 -0.2230  0.0964
38772SOL    HW122152   5.497   6.167   4.737  2.6731  0.5898 -0.6747
38772SOL    HW222153   5.549   6.302   4.783 -0.6503  1.9969 -0.7606
38773SOL     OW22154   7.830   2.000   7.706  0.8626 -0.3254 -0.3022
38773SOL    HW122155   7.910   2.024   7.754  1.8338  1.0597 -2.4432
38773SOL    HW222156   7.763   2.058   7.742  1.3935  0.1750 -0.0864
38774SOL     OW22157  10.874  10.646  10.526  0.6080  0.5148  0.1685
38774SOL    HW122158  10.927  10.640  10.447  0.2020  0.4636 -0.1016
38774SOL    HW222159  10.801  10.586  10.511  0.3064  0.8205  0.4078
38775SOL     OW22160   3.893  10.496  10.356 -0.3263 -0.2460  0.1946
38775SOL    HW122161   3.921  10.418  10.404  1.1261 -0.3293 -0.7200
38775SOL    HW222162   3.890  10.468  10.265 -0.1206  0.6795 -0.1064
38776SOL     OW22163   6.902  10.035   9.966  0.1018 -0.1670  0.1599
38776SOL    HW122164   6.960   9.961   9.982 -0.7113 -0.6885  0.7435
38776SOL    HW222165   6.879  10.067  10.053  0.2487  0.6224 -0.0851
38777SOL     OW22166   9.962   9.223   2.618  0.2270  0.5220  0.1748
38777SOL    HW122167  10.049   9.212   2.578  0.1258  3.1905 -0.9940
38777SOL    HW222168   9.977   9.211   2.711  1.1325 -2.4348 -0.2182
38778SOL     OW22169  10.768   1.574   5.755 -0.2786  0.3551 -0.1198
38778SOL    HW122170  10.721   1.493   5.775  1.2629 -0.1211  1.8586
38778SOL    HW222171  10.750   1.631   5.829  0.1365  1.1547 -0.6165
38779SOL     OW22172   3.069   4.446   8.312 -0.6678 -0.1634 -0.0369
38779SOL    HW122173   3.103   4.395   8.386 -0.6392 -1.3836 -0.8680
38779SOL    HW222174   3.145   4.459   8.255 -1.3405 -2.0755 -1.4395
38780SOL     OW22175   3.715   9.613   0.373 -0.0176 -0.1975  0.4070
38780SOL    HW122176   3.761   9.686   0.331 -0.9496 -0.4625 -1.1511
38780SOL    HW222177   3.784   9.566   0.420  1.3271 -0.4550 -1.6892
38781SOL     OW22178   2.208   2.595   4.884 -0.2209 -0.4566 -0.1961
38781SOL    HW122179   2.244   2.507   4.872  0.0263 -0.3213 -0.4601
38781SOL    HW222180   2.174   2.620   4.798 -0.9215 -0.5664  0.0421
38782SOL     OW22181   6.697   1.775   3.690  0.1115  0.0507 -0.0746
38782SOL    HW122182   6.615   1.785   3.738  0.2954 -0.8678  0.4528
38782SOL    HW222183   6.700   1.683   3.666  1.4431 -0.1603  0.7813
38783SOL     OW22184   3.029   1.305   7.879  0.1301  0.4283  0.3162
38783SOL    HW122185   2.940   1.329   7.906  0.2726  0.8810  0.3910
38783SOL    HW222186   3.016   1.233   7.817 -0.3840  1.3361 -0.6845
38784SOL     OW22187   3.971   1.370   4.864 -0.6873  0.2297  0.2244
38784SOL    HW122188   3.888   1.323   4.855 -0.8423  0.7138 -1.2396
38784SOL    HW222189   3.970   1.433   4.792  1.0859  0.0517  0.0025
38785SOL     OW22190   7.564   2.906   7.042  0.0392 -0.3837 -0.4359
38785SOL    HW122191   7.499   2.917   7.111  0.5770  0.7957 -0.0981
38785SOL    HW222192   7.612   2.828   7.068 -0.1629 -0.3077  0.2004
38786SOL     OW22193   7.882   7.065   4.354  0.2466  0.4839 -0.5431
38786SOL    HW122194   7.923   6.982   4.330  0.2660  0.2366  0.3013
38786SOL    HW222195   7.788   7.045   4.357  0.3805 -0.1691  1.9404
38787SOL     OW22196   8.546   9.946   8.764  0.1486 -0.6190  0.3016
38787SOL    HW122197   8.485  10.020   8.765  0.9925  0.1015  1.0126
38787SOL    HW222198   8.493   9.870   8.740 -0.9051  0.0786  0.3861
38788SOL     OW22199   0.608   1.225   4.639 -0.4107 -0.1064  0.0008
38788SOL    HW122200   0.537   1.289   4.642 -1.4025 -1.0420 -1.7011
38788SOL    HW222201   0.611   1.188   4.727 -3.0042 -1.0172 -0.2280
38789SOL     OW22202   3.001   4.272   5.586 -0.2525 -0.3720 -0.0871
38789SOL    HW122203   2.945   4.262   5.664  0.1174 -0.2289  0.1994
38789SOL    HW222204   3.090   4.271   5.621 -0.0990  1.4846 -0.2801
38790SOL     OW22205   6.910   6.835   1.015 -0.0381  0.2065  0.1997
38790SOL    HW122206   6.982   6.796   0.966 -1.1882  0.2561 -1.6250
38790SOL    HW222207   6.928   6.812   1.106  0.4947 -2.7138 -0.5260
38791SOL     OW22208   7.851  10.583   7.058  0.7335  0.4921 -0.0774
38791SOL    HW122209   7.924  10.543   7.011  1.0304  0.8441  0.0783
38791SOL    HW222210   7.816  10.649   6.997  0.2707  0.0338 -0.3182
38792SOL     OW22211   9.236   6.203   2.525  0.6130  0.0336  0.9773
38792SOL    HW122212   9.284   6.131   2.565  1.6172  0.3919  0.4532
38792SOL    HW222213   9.296   6.239   2.460 -1.3242 -1.3048 -1.7924
38793SOL     OW22214   1.570   1.843   1.763 -0.4955  0.1379  0.4025
38793SOL    HW122215   1.561   1.926   1.811 -0.9183  0.2153  0.1901
38793SOL    HW222216   1.550   1.776   1.828 -0.7348  0.2284  0.4229
38794SOL     OW22217   0.943   0.327  10.613  0.0555  0.4352  0.6125
38794SOL    HW122218   0.977   0.383  10.544  1.2413 -0.8399  0.1007
38794SOL    HW222219   0.976   0.239  10.591 -0.3303 -0.1737  2.2722
38795SOL     OW22220  10.193   3.459   1.536  1.1253  0.4924  0.2983
38795SOL    HW122221  10.137   3.460   1.458  0.4270 -0.0964  0.7718
38795SOL    HW222222  10.131   3.456   1.609  1.7735  0.9060  0.8721
38796SOL     OW22223   1.006   2.536   9.033 -0.6398 -0.1937  0.0272
38796SOL    HW122224   1.095   2.567   9.047 -0.8448  0.0302  0.9040
38796SOL    HW222225   1.012   2.480   8.956  0.4255 -0.8522  0.5601
38797SOL     OW22226   5.761   1.543   7.001 -0.4173  0.7292 -0.1163
38797SOL    HW122227   5.818   1.619   6.995  1.5431 -0.5708  0.7204
38797SOL    HW222228   5.782   1.504   7.086 -2.0340 -0.2491 -0.1153
38798SOL     OW22229   3.303  10.597   5.485 -0.3832  0.1230  0.0409
38798SOL    HW122230   3.358  10.519   5.495 -0.7193 -0.1587 -0.2773
38798SOL    HW222231   3.285  10.601   5.391 -2.6069 -0.9696  0.3711
38799SOL     OW22232   2.813  10.887   6.096  0.6666  0.3456 -0.7607
38799SOL    HW122233   2.818  10.899   6.191 -1.7224  1.1077 -0.6502
38799SOL    HW222234   2.865  10.809   6.078 -0.5646 -1.0975  1.4930
38800SOL     OW22235   7.201   0.536   9.203 -0.7557 -0.2962  0.3400
38800SOL    HW122236   7.208   0.618   9.250  2.8726  0.7673 -1.6647
38800SOL    HW222237   7.249   0.473   9.256  0.0727 -0.0422 -0.0963
38801SOL     OW22238   3.020   9.849   5.579  0.4742 -0.8643 -0.8644
38801SOL    HW122239   3.088   9.904   5.540  0.3242 -0.4048 -0.4887
38801SOL    HW222240   2.947   9.854   5.518 -0.3376  1.1195  0.1924
38802SOL     OW22241   8.812  10.560   7.457 -0.0231 -0.3390 -0.1235
38802SOL    HW122242   8.817  10.465   7.451  2.3634 -0.2354 -0.8673
38802SOL    HW222243   8.765  10.577   7.539  0.8145 -2.1842  0.8010
38803SOL     OW22244   5.883   2.000   3.888  0.4941 -0.5082 -0.5222
38803SOL    HW122245   5.856   1.950   3.966  0.7852 -1.9966 -1.3425
38803SOL    HW222246   5.962   2.047   3.916  0.2133 -0.4917  0.2734
38804SOL     OW22247   5.232   5.153   0.457 -0.2593  0.3950  0.0836
38804SOL    HW122248   5.282   5.105   0.391 -1.5139  1.0656 -1.4281
38804SOL    HW222249   5.152   5.102   0.468  0.5670 -0.5511  2.3088
38805SOL     OW22250   0.589  10.718   2.392  0.5276 -0.3652 -0.6351
38805SOL    HW122251   0.504  10.680   2.415  0.1518  1.0216  0.3968
38805SOL    HW222252   0.571  10.774   2.316  0.4829 -0.0115 -0.3700
38806SOL     OW22253   6.724   8.647   8.198  0.1011  0.4843  0.2881
38806SOL    HW122254   6.731   8.631   8.104  1.9074  0.7855  0.3317
38806SOL    HW222255   6.637   8.686   8.210 -0.6251 -0.6607 -1.0722
38807SOL     OW22256   3.428   3.709   4.932 -0.7316 -0.3608 -0.2960
38807SOL    HW122257   3.427   3.801   4.905  0.1645 -0.1636  0.2920
38807SOL    HW222258   3.505   3.673   4.888 -0.5324 -0.5907  0.2402
38808SOL     OW22259   0.662   5.571   9.587  0.2519  0.2075 -0.3280
38808SOL    HW122260   0.630   5.592   9.674 -1.4832  0.9750 -1.1127
38808SOL    HW222261   0.742   5.521   9.602  0.5407  1.2059  1.6766
38809SOL     OW22262  10.498   8.280   4.380  0.1098 -0.4793  0.3173
38809SOL    HW122263  10.510   8.230   4.461 -1.1060 -1.4681 -0.0677
38809SOL    HW222264  10.453   8.219   4.321  0.2837  0.4723 -0.8421
38810SOL     OW22265   4.134   4.654   9.382 -0.2853  0.6857 -0.1788
38810SOL    HW122266   4.220   4.678   9.349  0.2551  0.6041  1.0973
38810SOL    HW222267   4.098   4.595   9.315  0.8449  0.3344 -0.5068
38811SOL     OW22268   1.364   3.015   7.470 -0.3386  1.0361 -0.5131
38811SOL    HW122269   1.306   2.945   7.500  0.7006 -0.3500 -1.5981
38811SOL    HW222270   1.332   3.037   7.383 -1.0670  2.4270  0.0758
38812SOL     OW22271   7.583  10.206   3.319 -0.7430  0.3127 -0.7455
38812SOL    HW122272   7.524  10.166   3.383  0.1757 -1.9793 -1.2290
38812SOL    HW222273   7.652  10.246   3.371  0.5317 -2.3803 -0.1960
38813SOL     OW22274   1.774   4.381   7.936  0.4183 -0.3224  0.2468
38813SOL    HW122275   1.815   4.348   7.856 -1.8357 -1.7668 -0.3838
38813SOL    HW222276   1.812   4.468   7.948  1.8477 -0.6292 -1.5868
38814SOL     OW22277   7.651   4.803   0.745 -0.0392  0.1822 -0.0250
38814SOL    HW122278   7.616   4.779   0.660 -0.1298 -0.2325  0.1256
38814SOL    HW222279   7.630   4.896   0.755 -1.5133 -0.1560  0.2551
38815SOL     OW22280   4.473   4.097   2.518  0.1232  1.0603 -0.1029
38815SOL    HW122281   4.422   4.157   2.463 -0.0089  2.2699  1.2926
38815SOL    HW222282   4.497   4.026   2.459 -3.0878  0.4649 -0.8638
38816SOL     OW22283   5.394  10.421   6.614 -0.1280  0.2141 -0.6850
38816SOL    HW122284   5.394  10.352   6.547 -1.8764  1.0760 -1.6423
38816SOL    HW222285   5.385  10.374   6.697  1.4114 -0.8337 -1.0652
38817SOL     OW22286   5.704   2.691   4.469  0.1970  0.0783 -0.2677
38817SOL    HW122287   5.694   2.769   4.415  0.2452 -0.3355 -0.8750
38817SOL    HW222288   5.674   2.718   4.556 -0.6907  0.5052 -0.6990
38818SOL     OW22289   4.118   7.609   3.585  0.5843 -0.0664  0.3352
38818SOL    HW122290   4.128   7.517   3.560  1.0136  0.1029 -0.1177
38818SOL    HW222291   4.043   7.640   3.533  0.6837 -0.0562  0.1975
38819SOL     OW22292  10.038   5.215   7.669  0.5541  0.1511 -0.1394
38819SOL    HW122293  10.040   5.172   7.755  0.5664 -0.3057 -0.3705
38819SOL    HW222294  10.095   5.162   7.614 -2.6459 -2.0546 -1.6194
38820SOL     OW22295   0.453   8.890  10.812  0.3596 -0.0050  0.0849
38820SOL    HW122296   0.437   8.913  10.721  1.7422  0.7802  0.0152
38820SOL    HW222297   0.501   8.808  10.809  0.8670  0.2927  0.0889
38821SOL     OW22298   5.916   3.026   2.162 -0.3065  0.0813  0.2111
38821SOL    HW122299   5.846   3.087   2.187 -0.8138 -0.7763  0.9346
38821SOL    HW222300   5.994   3.061   2.203 -0.4850  0.5572  0.1497
38822SOL     OW22301   5.184   0.901   6.178  0.4353  0.1327  0.4229
38822SOL    HW122302   5.205   0.809   6.193 -2.8931 -0.8188 -0.0099
38822SOL    HW222303   5.193   0.911   6.083  0.5257  0.1794  0.4365
38823SOL     OW22304  10.468   3.695   5.023 -0.4284  0.1727 -0.7232
38823SOL    HW122305  10.549   3.682   4.973 -0.1986  1.6753 -0.8042
38823SOL    HW222306  10.429   3.608   5.030  0.3364 -0.3078 -2.1528
38824SOL     OW22307   1.733   5.430  10.228 -0.0264 -0.2363  0.2318
38824SOL    HW122308   1.727   5.497  10.161 -0.3952  2.0938  2.4430
38824SOL    HW222309   1.818   5.389  10.214  0.3793  0.9547 -0.9719
38825SOL     OW22310   2.084   7.576   3.258  0.8783  0.4436  0.2438
38825SOL    HW122311   2.057   7.625   3.336  1.4114 -1.0589  1.4257
38825SOL    HW222312   2.020   7.600   3.191  0.1704  1.4732  1.2545
38826SOL     OW22313   4.985   7.029   0.374  0.2261  0.5724  0.1389
38826SOL    HW122314   4.905   6.976   0.382  0.2505  0.5154  0.0120
38826SOL    HW222315   5.046   6.990   0.437  1.5570 -1.9523 -2.4355
38827SOL     OW22316   2.540  10.172   5.770  0.0827 -0.0605 -0.0915
38827SOL    HW122317   2.560  10.230   5.843  2.6239  0.9120 -1.4383
38827SOL    HW222318   2.553  10.084   5.806  0.4782  0.3616  0.8411
38828SOL     OW22319   3.137   1.400   4.561  0.5361 -0.7910 -0.7044
38828SOL    HW122320   3.073   1.466   4.536  0.2749 -0.8022 -0.0815
38828SOL    HW222321   3.162   1.358   4.479  1.0789  0.4048 -1.1735
38829SOL     OW22322   3.289  10.071   7.181 -0.7564 -0.5640 -0.1614
38829SOL    HW122323   3.298  10.123   7.102 -1.4201 -1.5152 -0.8805
38829SOL    HW222324   3.196  10.076   7.203 -0.6787 -0.7768  0.2389
38830SOL     OW22325  10.358   3.348   6.578 -0.4210 -0.0736 -0.0903
38830SOL    HW122326  10.426   3.403   6.618 -0.5402 -1.1215  1.6681
38830SOL    HW222327  10.285   3.352   6.639 -0.7107 -1.5582 -0.3041
38831SOL     OW22328   1.950   9.632   4.768 -0.2753  0.1277 -0.1123
38831SOL    HW122329   1.940   9.539   4.748 -1.0661  0.1208  0.3023
38831SOL    HW222330   2.001   9.633   4.850  0.8581  0.1040 -0.7895
38832SOL     OW22331   9.269   8.484   6.916 -0.5290 -0.2749  0.4838
38832SOL    HW122332   9.306   8.551   6.973  0.0671  0.2590 -0.5217
38832SOL    HW222333   9.345   8.434   6.885 -0.8452 -0.5393  0.1224
38833SOL     OW22334   0.227   1.044   7.850 -0.1522 -0.1475 -0.1483
38833SOL    HW122335   0.155   0.986   7.875  1.0394 -0.9877  1.5286
38833SOL    HW222336   0.295   0.985   7.816  0.4269  0.4384 -0.0220
38834SOL     OW22337   3.024   3.470   2.912 -0.2164  0.1218  0.7285
38834SOL    HW122338   3.042   3.518   2.831  1.1693  1.9412  2.0485
38834SOL    HW222339   2.945   3.419   2.892 -0.0897  0.7301 -1.6532
38835SOL     OW22340   7.897   8.381   1.326  0.5848 -0.0071  0.1760
38835SOL    HW122341   7.978   8.333   1.340 -0.1487 -2.0667 -2.0560
38835SOL    HW222342   7.906   8.420   1.240 -0.7541 -0.2201 -0.0817
38836SOL     OW22343   8.668  10.040   6.092  0.5051  0.0978  0.0647
38836SOL    HW122344   8.754  10.005   6.067  1.1879  1.0036  1.0613
38836SOL    HW222345   8.641  10.093   6.017  1.7064  1.3303  0.4437
38837SOL     OW22346   4.689   9.798   2.115  0.6600  0.0248 -0.3131
38837SOL    HW122347   4.631   9.860   2.160 -1.3817 -0.3523 -2.2724
38837SOL    HW222348   4.695   9.723   2.175 -1.2531 -0.1024 -0.2189
38838SOL     OW22349   0.317   4.274   0.056  0.0494 -0.6093  0.3856
38838SOL    HW122350   0.262   4.332   0.109  1.3561  0.9421  0.1480
38838SOL    HW222351   0.285   4.286  -0.033 -0.1479 -0.7985  0.4318
38839SOL     OW22352   0.017   6.862   4.724 -0.3589  0.2225 -0.1003
38839SOL    HW122353   0.062   6.778   4.730  1.3586  1.1544  0.9446
38839SOL    HW222354  -0.033   6.869   4.806 -0.0934  0.4232  0.0472
38840SOL     OW22355  10.676   0.108   0.089  0.6560 -0.1142 -0.0201
38840SOL    HW122356  10.640   0.193   0.062 -1.2621 -0.9715 -0.3400
38840SOL    HW222357  10.761   0.103   0.046 -0.3189  0.5331 -2.1776
38841SOL     OW22358  10.418   1.563   9.788 -0.7976  0.5114 -0.7816
38841SOL    HW122359  10.326   1.588   9.790 -1.2917 -1.2024 -0.1202
38841SOL    HW222360  10.418   1.474   9.754  0.5528  0.2386 -0.1390
38842SOL     OW22361   4.363   8.370   5.291  0.3357  0.0553 -0.5181
38842SOL    HW122362   4.326   8.375   5.379 -0.0005  1.1758 -0.7111
38842SOL    HW222363   4.429   8.440   5.288  0.6308 -0.2330 -1.0327
38843SOL     OW22364  10.089   8.166   5.320  0.1716  0.1925 -0.0340
38843SOL    HW122365  10.175   8.186   5.355  0.4544  0.0879 -0.6592
38843SOL    HW222366  10.079   8.225   5.245  0.2501 -0.6979 -0.7617
38844SOL     OW22367   9.638   7.833   4.527 -0.1563 -0.0006  0.1444
38844SOL    HW122368   9.555   7.865   4.563 -0.1606 -0.5687  0.6671
38844SOL    HW222369   9.700   7.841   4.600 -0.2795 -1.6532  0.4701
38845SOL     OW22370   6.321  10.405   5.650 -0.0425  0.1165 -0.1757
38845SOL    HW122371   6.330  10.499   5.663 -1.3809  0.0808  1.3078
38845SOL    HW222372   6.399  10.368   5.691  0.3100  0.5466 -0.4478
38846SOL     OW22373   0.576   3.296   1.378  0.2885  0.2988 -0.0971
38846SOL    HW122374   0.593   3.263   1.466  1.1956  0.0866 -0.3427
38846SOL    HW222375   0.481   3.307   1.375  0.1783 -0.3326  0.6814
38847SOL     OW22376   7.771   7.521   4.726  0.2210 -0.1122  0.6630
38847SOL    HW122377   7.850   7.474   4.701  0.2642  1.4057 -2.4767
38847SOL    HW222378   7.802   7.596   4.777  0.4724 -1.1511  2.1076
38848SOL     OW22379  10.375   8.818   4.525  0.1112 -0.4145 -0.2504
38848SOL    HW122380  10.408   8.839   4.612 -0.3719 -2.0285  0.3622
38848SOL    HW222381  10.453   8.808   4.471  0.3773  2.0654 -0.4021
38849SOL     OW22382   5.468   8.318   5.959  0.1798  0.0410 -0.2720
38849SOL    HW122383   5.555   8.333   5.995 -1.1257  0.8981  2.9306
38849SOL    HW222384   5.471   8.356   5.871  2.3250  2.4757  0.7223
38850SOL     OW22385   4.415   8.533   9.846 -0.0830  0.0356 -0.3737
38850SOL    HW122386   4.445   8.495   9.929 -0.6829 -1.6479 -0.8824
38850SOL    HW222387   4.454   8.621   9.845 -0.5003  0.3174  1.9122
38851SOL     OW22388   0.105   4.100   1.762 -0.6596  0.0150  0.1900
38851SOL    HW122389   0.087   4.129   1.851 -2.3874  0.2110 -0.1918
38851SOL    HW222390   0.029   4.129   1.711 -0.0136 -0.6608 -1.2234
38852SOL     OW22391   9.812   2.097   5.235 -0.5083  0.0104  0.0185
38852SOL    HW122392   9.874   2.099   5.308  1.6843 -2.1659 -1.5966
38852SOL    HW222393   9.851   2.153   5.169 -0.3060 -1.2144 -0.9425
38853SOL     OW22394   5.286   2.185   1.445  0.1325  0.1452  0.1543
38853SOL    HW122395   5.232   2.194   1.367 -0.8739 -1.7644  0.5622
38853SOL    HW222396   5.261   2.259   1.500  0.5724  1.2868 -1.1291
38854SOL     OW22397   1.180   3.164   4.184  0.1622 -0.3359  0.3588
38854SOL    HW122398   1.252   3.131   4.239  0.7202 -0.1060 -0.2100
38854SOL    HW222399   1.152   3.088   4.133  1.1074 -0.0874 -0.5843
38855SOL     OW22400   5.992   1.993   6.793  0.8016 -0.5688 -1.0357
38855SOL    HW122401   6.063   1.950   6.840  0.7733  0.7504  0.3007
38855SOL    HW222402   5.935   1.922   6.764 -0.0216 -1.4849  2.3324
38856SOL     OW22403   8.653   4.454   2.790  0.6488  0.2471  0.6700
38856SOL    HW122404   8.710   4.380   2.810  0.8086 -0.2261 -1.2621
38856SOL    HW222405   8.603   4.425   2.713 -1.4815  1.0385  1.6813
38857SOL     OW22406   6.561   1.397   7.435 -0.0826  0.4194 -0.1292
38857SOL    HW122407   6.621   1.463   7.470 -0.0560  0.2570  0.1380
38857SOL    HW222408   6.578   1.319   7.488 -0.3491  0.2962 -0.2217
38858SOL     OW22409   2.343   3.850   7.272  0.1171  0.4605  0.2734
38858SOL    HW122410   2.426   3.814   7.240  0.9006  3.0120 -0.8680
38858SOL    HW222411   2.293   3.773   7.300  1.2397 -1.6088 -2.8050
38859SOL     OW22412   5.726   3.007   2.618  0.2899  0.2269 -0.1874
38859SOL    HW122413   5.763   2.964   2.695  2.4272  0.3458 -1.0670
38859SOL    HW222414   5.675   3.080   2.652  0.3311 -0.3513  1.1458
38860SOL     OW22415   0.452   0.124   6.643  0.1340  0.1930 -0.1388
38860SOL    HW122416   0.504   0.052   6.607 -0.6916  0.5237 -2.1718
38860SOL    HW222417   0.486   0.202   6.600 -0.6413  0.6779  0.1050
38861SOL     OW22418   1.085   2.926   0.901  0.2207 -0.1469 -0.2304
38861SOL    HW122419   1.157   2.986   0.883 -0.0724  0.8296  1.5853
38861SOL    HW222420   1.013   2.956   0.845 -0.2500  1.9328  1.3533
38862SOL     OW22421   1.605   7.426  10.076  0.5187 -0.2153 -0.6191
38862SOL    HW122422   1.651   7.441  10.159 -1.1622  0.8399  0.1814
38862SOL    HW222423   1.512   7.426  10.100  0.0285 -0.9574 -2.3624
38863SOL     OW22424   9.075   5.272   5.819  0.4639  0.2918  0.0864
38863SOL    HW122425   9.073   5.187   5.862 -1.0089  0.1701 -0.1580
38863SOL    HW222426   9.072   5.252   5.725  1.5812  0.6023 -0.0392
38864SOL     OW22427   5.099   7.915   8.152  0.0098  0.4957 -0.3090
38864SOL    HW122428   5.037   7.851   8.116  2.4086 -1.6600 -0.9240
38864SOL    HW222429   5.093   7.903   8.247  0.6878 -0.9990 -0.4223
38865SOL     OW22430   2.583   0.282   3.784 -0.2923  0.7762 -0.4696
38865SOL    HW122431   2.591   0.273   3.689 -2.2636 -0.1649 -0.5908
38865SOL    HW222432   2.600   0.375   3.801 -0.0627  0.9872 -1.7550
38866SOL     OW22433   8.848   3.697   8.039  0.2925 -0.3852 -0.3249
38866SOL    HW122434   8.885   3.640   8.107 -0.4948 -2.4324 -1.5015
38866SOL    HW222435   8.910   3.693   7.967 -0.5830 -1.1973 -1.0670
38867SOL     OW22436   4.771   7.862   5.488 -0.0049  0.2898 -0.1682
38867SOL    HW122437   4.764   7.825   5.400 -1.8232 -0.6630  0.3208
38867SOL    HW222438   4.743   7.953   5.477 -1.1636 -0.0809 -0.4394
38868SOL     OW22439   1.992   9.676   3.602 -0.6737  0.4355  0.2267
38868SOL    HW122440   1.900   9.693   3.617 -0.8405 -0.5605  0.4294
38868SOL    HW222441   2.020   9.625   3.678 -0.2230 -0.1584 -0.3166
38869SOL     OW22442   9.198  10.014  10.910 -0.2290  0.4070  0.1945
38869SOL    HW122443   9.181  10.094  10.860 -0.1940  0.1162 -0.2894
38869SOL    HW222444   9.211   9.947  10.844 -0.7232 -0.1000  0.6009
38870SOL     OW22445   7.853  10.498   8.952  0.4904  0.4853  0.3492
38870SOL    HW122446   7.898  10.565   8.901 -0.1546  1.0445  0.5051
38870SOL    HW222447   7.884  10.415   8.914 -2.1471  0.8005 -3.0268
38871SOL     OW22448   2.481   7.821   6.316 -0.0368  0.1397  0.0239
38871SOL    HW122449   2.463   7.856   6.403 -0.1909  0.7837 -0.2576
38871SOL    HW222450   2.421   7.747   6.307 -2.1811  1.8353 -0.6331
38872SOL     OW22451   9.923   7.325   3.319  0.1606 -0.7390 -0.2881
38872SOL    HW122452   9.861   7.396   3.300  0.0764 -0.7522 -0.0568
38872SOL    HW222453   9.874   7.245   3.301 -0.0132 -0.7599  0.2642
38873SOL     OW22454   0.068  10.785   6.835  0.3655  0.0871  0.3964
38873SOL    HW122455   0.132  10.725   6.873  0.5940 -0.8330 -1.3296
38873SOL    HW222456   0.115  10.868   6.826  0.7041 -0.0469  0.8867
38874SOL     OW22457   8.569   2.194   0.426 -0.6517 -0.3885 -0.2084
38874SOL    HW122458   8.514   2.163   0.354 -1.4254  0.0335  0.1907
38874SOL    HW222459   8.548   2.287   0.435 -0.1444 -0.3048  0.1988
38875SOL     OW22460   1.291   5.793   4.965  0.1764 -0.2641  0.5089
38875SOL    HW122461   1.364   5.849   4.939 -0.9056  2.0915  2.2346
38875SOL    HW222462   1.228   5.801   4.893  0.9694 -1.1502 -0.3115
38876SOL     OW22463   8.107   6.033   1.083 -0.3013  0.2618  0.3769
38876SOL    HW122464   8.110   6.022   0.988 -1.1214  1.2598  0.2187
38876SOL    HW222465   8.172   6.101   1.102 -0.2233  0.1505  0.5068
38877SOL     OW22466   7.715   2.497   0.870 -0.2201  0.1092  0.2281
38877SOL    HW122467   7.741   2.538   0.953  1.0567 -0.2938  0.0486
38877SOL    HW222468   7.631   2.537   0.849 -0.4474  0.4124  1.5832
38878SOL     OW22469   9.266   2.808  10.079  0.5648  0.1976  0.0731
38878SOL    HW122470   9.342   2.765  10.118 -0.8625 -2.0518  0.5283
38878SOL    HW222471   9.227   2.742  10.022 -2.2949  0.4192  1.5722
38879SOL     OW22472   5.227   5.719   8.460 -0.1959  0.5930 -0.3656
38879SOL    HW122473   5.317   5.749   8.441 -0.4736  2.2788  0.7216
38879SOL    HW222474   5.190   5.699   8.374  0.6653  1.6165 -1.0077
38880SOL     OW22475   1.291   2.540   3.499  0.7901 -0.2233 -0.5355
38880SOL    HW122476   1.208   2.548   3.452  0.4444  2.5633  0.3716
38880SOL    HW222477   1.284   2.455   3.544 -1.5213 -0.1206 -0.5599
38881SOL     OW22478   8.630   3.487  10.443 -0.6253 -0.1693 -0.4777
38881SOL    HW122479   8.669   3.538  10.514  0.4666 -2.4670  0.6782
38881SOL    HW222480   8.536   3.499  10.455 -0.4313  1.7435 -0.4383
38882SOL     OW22481   2.159   0.739   3.634 -0.7265  0.4512  0.3337
38882SOL    HW122482   2.226   0.780   3.689  0.1115  1.2553 -1.2432
38882SOL    HW222483   2.208   0.687   3.571 -1.5520  1.2468 -1.0106
38883SOL     OW22484  10.244   6.148   9.059 -0.3465 -0.3762 -0.3519
38883SOL    HW122485  10.259   6.233   9.018  0.4184 -0.6184 -0.5893
38883SOL    HW222486  10.222   6.168   9.150  0.1679  0.0642 -0.3181
38884SOL     OW22487   0.981   9.289   1.718  0.7932  0.0670 -0.2148
38884SOL    HW122488   1.031   9.368   1.699  0.4688 -0.1382 -2.1287
38884SOL    HW222489   0.893   9.308   1.686  0.4076 -0.6569  0.3754
38885SOL     OW22490   7.838   7.002   0.528 -0.0222 -0.1129 -0.4143
38885SOL    HW122491   7.775   6.932   0.510  1.3033 -1.3498 -0.5336
38885SOL    HW222492   7.919   6.955   0.551  1.0309  1.3836 -0.8845
38886SOL     OW22493   2.076   3.426   9.121 -0.0877 -0.1936  0.0685
38886SOL    HW122494   1.990   3.439   9.082  0.3675  2.0551 -0.3180
38886SOL    HW222495   2.074   3.476   9.202  0.4256 -1.2329  0.7448
38887SOL     OW22496   3.489   2.082   1.527 -0.4746  0.2156  0.2476
38887SOL    HW122497   3.576   2.052   1.553 -0.0666  2.2759  1.5201
38887SOL    HW222498   3.506   2.158   1.472 -1.4792 -0.1873 -0.6493
38888SOL     OW22499   8.120   3.292   2.296 -0.3082 -0.4932  0.3630
38888SOL    HW122500   8.175   3.338   2.359 -0.7119 -1.8479  1.7694
38888SOL    HW222501   8.180   3.233   2.250 -0.0907  0.1803 -0.2341
38889SOL     OW22502   0.232  10.006   7.498  0.2424  0.0164  0.8615
38889SOL    HW122503   0.151  10.055   7.480 -1.1721 -3.2064 -2.7057
38889SOL    HW222504   0.221   9.975   7.588 -1.4051  1.4529  1.2166
38890SOL     OW22505   1.650   8.716   9.345 -0.7059 -0.2815 -0.5005
38890SOL    HW122506   1.735   8.672   9.344  0.5025  1.9264 -0.6770
38890SOL    HW222507   1.607   8.686   9.265  1.1733  0.7792 -1.9900
38891SOL     OW22508   8.119   9.021   6.791  0.0453 -0.4243  0.4391
38891SOL    HW122509   8.209   9.054   6.794 -0.5119  1.1092  0.9183
38891SOL    HW222510   8.094   9.029   6.699 -0.0488  0.4396  0.5311
38892SOL     OW22511   5.186   3.752   7.612 -0.0888 -0.0567 -0.4861
38892SOL    HW122512   5.258   3.700   7.576  0.3579 -0.5380  1.0496
38892SOL    HW222513   5.147   3.697   7.679  0.5410  1.6235  1.3649
38893SOL     OW22514   1.215   8.087   0.605  0.3801 -0.4438  0.5024
38893SOL    HW122515   1.268   8.111   0.681  0.4687 -0.7639  0.5456
38893SOL    HW222516   1.274   8.037   0.550 -0.2154 -1.9456  1.1647
38894SOL     OW22517   0.159   4.810   0.379 -0.3334 -0.0349 -0.2463
38894SOL    HW122518   0.222   4.739   0.391  0.3659  0.8458  1.6048
38894SOL    HW222519   0.074   4.770   0.396  0.1331 -0.2520  1.8251
38895SOL     OW22520   8.459   3.887   5.882  0.0272  0.3696  0.0355
38895SOL    HW122521   8.514   3.834   5.824  0.4593 -0.7024  1.3677
38895SOL    HW222522   8.519   3.954   5.917  0.7546 -1.2072  2.0110
38896SOL     OW22523  10.593   5.278   8.607 -0.5663 -0.0154 -0.1520
38896SOL    HW122524  10.642   5.324   8.676 -0.5342 -0.9860  0.4834
38896SOL    HW222525  10.502   5.280   8.637 -0.7849  0.8593 -0.8208
38897SOL     OW22526   0.681   3.480  10.809  0.6158  0.5761 -0.2775
38897SOL    HW122527   0.663   3.502  10.718  1.4660 -0.8739 -0.8240
38897SOL    HW222528   0.755   3.535  10.834  2.3541 -1.1202 -1.4445
38898SOL     OW22529   3.468   0.680   7.423 -0.3139  0.5154  0.0376
38898SOL    HW122530   3.422   0.752   7.466  0.1415 -0.0762  1.5916
38898SOL    HW222531   3.542   0.661   7.481 -1.0828 -1.9871  0.3397
38899SOL     OW22532   1.410   0.067   3.230  0.0583 -0.1580 -0.0521
38899SOL    HW122533   1.491   0.015   3.232  0.6206  0.7026  0.4710
38899SOL    HW222534   1.437   0.153   3.263 -1.1239  0.0835  0.2995
38900SOL     OW22535   3.272   7.840  10.721 -0.0589  0.1157 -0.2678
38900SOL    HW122536   3.318   7.857  10.639  1.8867 -2.6026  0.1044
38900SOL    HW222537   3.300   7.910  10.780  0.4367  0.7293 -1.2152
38901SOL     OW22538  10.123   7.668   5.332 -0.1027  0.2166 -0.0120
38901SOL    HW122539  10.061   7.601   5.301 -2.9292  2.2375  0.9125
38901SOL    HW222540  10.133   7.649   5.425  1.0097 -0.2901 -0.2169
38902SOL     OW22541   9.015   5.487   5.300  0.4686 -0.1368  0.3473
38902SOL    HW122542   8.937   5.525   5.340 -0.5409 -2.0537  0.3064
38902SOL    HW222543   9.088   5.534   5.340 -0.6609  1.1593  0.9746
38903SOL     OW22544   3.805   7.807   2.849  0.3802 -0.5031  0.8877
38903SOL    HW122545   3.712   7.796   2.865  0.0339 -0.5108 -0.9617
38903SOL    HW222546   3.836   7.719   2.826  0.7668 -0.4216  1.0747
38904SOL     OW22547   6.769   8.513   0.506  0.0315 -0.1005  0.0728
38904SOL    HW122548   6.701   8.448   0.486  0.1556  0.0711 -0.9536
38904SOL    HW222549   6.825   8.470   0.571 -0.6521 -0.5048  0.4030
38905SOL     OW22550   3.512   6.176   7.774  0.0140 -0.3395 -0.3313
38905SOL    HW122551   3.433   6.224   7.748  0.5927  0.0742 -1.3860
38905SOL    HW222552   3.542   6.222   7.853 -0.9663 -0.7122  0.2839
38906SOL     OW22553   7.948   8.010   8.334  0.2213  0.3121 -0.4285
38906SOL    HW122554   7.985   7.930   8.372  1.6233  1.1181 -0.0475
38906SOL    HW222555   7.990   8.017   8.249  0.2974  0.7871 -0.3523
38907SOL     OW22556   2.495   3.443   8.566  0.1293 -0.3104 -0.7225
38907SOL    HW122557   2.409   3.474   8.595 -0.6399 -2.1152 -0.9348
38907SOL    HW222558   2.548   3.439   8.645  0.0964  0.9615 -0.6128
38908SOL     OW22559   5.971   2.375   9.907 -0.2613  0.5347  0.2270
38908SOL    HW122560   5.998   2.284   9.895  1.1231  0.8137  0.9663
38908SOL    HW222561   5.943   2.380   9.998 -0.3811  0.8385  0.1750
38909SOL     OW22562   2.720   9.856   4.358  0.2868  0.1330  0.4540
38909SOL    HW122563   2.658   9.910   4.407  0.9982  1.2425  0.1868
38909SOL    HW222564   2.729   9.901   4.274  1.5440  0.0810  0.5362
38910SOL     OW22565   4.136   3.746   3.979  0.2584 -0.3426  0.7213
38910SOL    HW122566   4.115   3.833   4.015  1.3344 -0.0965  0.7781
38910SOL    HW222567   4.135   3.758   3.884 -1.1421 -0.6540  0.6707
38911SOL     OW22568   9.071   6.398  10.911 -0.2881 -0.4353  0.1989
38911SOL    HW122569   9.098   6.478  10.956  1.9219 -0.4445 -1.0087
38911SOL    HW222570   8.980   6.385  10.939  0.2202  0.8378  2.7498
38912SOL     OW22571   4.054   4.741   3.101 -0.0203  0.3408 -0.2293
38912SOL    HW122572   4.032   4.667   3.045  0.5011  0.5020 -0.6453
38912SOL    HW222573   3.982   4.744   3.165 -0.5121  0.0379 -0.7587
38913SOL     OW22574   1.577   2.020   3.665 -0.4063 -0.5376  0.6273
38913SOL    HW122575   1.520   1.959   3.711 -0.9621 -1.1182 -0.7962
38913SOL    HW222576   1.618   1.968   3.596  0.1960  0.3735  0.2745
38914SOL     OW22577  10.461   7.513   6.608 -0.1626 -0.5497  0.3463
38914SOL    HW122578  10.472   7.430   6.654 -1.7943 -0.0197  1.8233
38914SOL    HW222579  10.382   7.501   6.556  0.2901 -0.3207 -0.4013
38915SOL     OW22580   4.636   0.020   8.818 -0.1002 -0.1277 -0.2249
38915SOL    HW122581   4.589   0.100   8.796 -1.9193 -0.8140  0.9235
38915SOL    HW222582   4.657  -0.021   8.734 -2.7169 -0.3961 -0.8246
38916SOL     OW22583   3.478   8.306   6.238 -0.3651  0.3549  1.2278
38916SOL    HW122584   3.536   8.254   6.294 -0.9616  0.8361  2.3189
38916SOL    HW222585   3.535   8.374   6.202 -0.0791  0.3564  1.6684
38917SOL     OW22586   6.080   2.045   2.071  0.2919  0.0159 -0.7631
38917SOL    HW122587   5.996   2.090   2.062 -0.4372 -1.3138 -0.7991
38917SOL    HW222588   6.118   2.082   2.151 -0.6894  0.0543 -0.2991
38918SOL     OW22589   9.547   5.807   7.264 -0.1289 -0.2366  0.5840
38918SOL    HW122590   9.452   5.815   7.271 -0.1251 -0.6810  1.1648
38918SOL    HW222591   9.560   5.746   7.192 -0.3209 -1.2467  1.3847
38919SOL     OW22592   5.216   5.509   3.330 -0.2676  0.4922  0.1888
38919SOL    HW122593   5.198   5.498   3.237 -1.2062 -0.6036  0.4714
38919SOL    HW222594   5.228   5.420   3.363  2.3712  0.9749  0.7156
38920SOL     OW22595   2.021   1.165   4.939 -0.5265 -0.0518  0.3323
38920SOL    HW122596   1.989   1.250   4.908 -0.8149 -0.9473 -1.9797
38920SOL    HW222597   2.104   1.185   4.984  0.7816  1.2288 -2.4442
38921SOL     OW22598   6.383   7.111   5.777  0.0201  0.2953 -0.7446
38921SOL    HW122599   6.354   7.098   5.686 -1.2295  1.0381 -0.4811
38921SOL    HW222600   6.466   7.064   5.783 -1.4712 -2.6121 -1.3367
38922SOL     OW22601   7.532   7.696   4.494 -0.5553  0.1234  0.1826
38922SOL    HW122602   7.504   7.709   4.403  0.9229 -1.0919 -0.4846
38922SOL    HW222603   7.467   7.636   4.531  0.6784 -2.1617 -1.1588
38923SOL     OW22604   1.927   3.320   0.966 -0.0842  0.4563 -0.3154
38923SOL    HW122605   1.871   3.309   1.043  0.5802 -0.1103  0.0951
38923SOL    HW222606   1.991   3.387   0.992 -0.3256  0.8254 -0.6508
38924SOL     OW22607   0.766   7.464   8.701 -0.0094 -0.1880 -0.2811
38924SOL    HW122608   0.821   7.532   8.663  0.9123 -1.0933 -0.6187
38924SOL    HW222609   0.699   7.447   8.635 -0.8623  1.0799  0.2245
38925SOL     OW22610   0.487   5.305   4.914  0.1794  0.2608 -0.4738
38925SOL    HW122611   0.442   5.389   4.922 -0.5130 -0.0988 -0.5112
38925SOL    HW222612   0.534   5.311   4.831  1.1550  1.0787  0.1127
38926SOL     OW22613   5.433   8.051   6.048  0.0332  0.5689  0.3753
38926SOL    HW122614   5.499   7.995   6.007 -0.6720 -0.5413  0.7079
38926SOL    HW222615   5.433   8.131   5.995  0.8407  0.1293 -0.3075
38927SOL     OW22616   4.530   2.103   0.730 -0.2178 -0.3482  0.5167
38927SOL    HW122617   4.616   2.121   0.692 -0.8457  0.2457 -0.6487
38927SOL    HW222618   4.542   2.119   0.824 -0.0509  3.7853 -0.0461
38928SOL     OW22619   6.048   2.918   0.961  0.5431  0.0332 -0.2600
38928SOL    HW122620   6.078   2.831   0.934  1.5418  0.0718  0.6107
38928SOL    HW222621   5.966   2.902   1.008  0.6826 -0.4378 -0.1722
38929SOL     OW22622   2.666   4.846   4.951  0.6535  0.0858  0.3994
38929SOL    HW122623   2.580   4.825   4.914  1.1057  1.9971 -1.9714
38929SOL    HW222624   2.649   4.919   5.011  0.5959  0.3864  0.0197
38930SOL     OW22625   6.963   2.570   3.929 -0.4604 -0.9249 -0.0142
38930SOL    HW122626   6.909   2.621   3.869  1.1883 -0.5743 -1.2744
38930SOL    HW222627   6.983   2.490   3.881  0.3129 -0.9519  0.3354
38931SOL     OW22628   1.680   5.022   2.086 -0.2182 -0.0426 -0.2866
38931SOL    HW122629   1.750   5.085   2.104 -0.2758 -0.5868  2.3796
38931SOL    HW222630   1.718   4.937   2.108 -1.2765 -0.4954 -0.1127
38932SOL     OW22631   9.774   8.940   7.970 -0.1182 -0.6296 -0.3294
38932SOL    HW122632   9.709   9.003   8.000 -0.3859 -0.3713 -1.4135
38932SOL    HW222633   9.743   8.914   7.883  1.7782  0.2805 -1.3132
38933SOL     OW22634   9.784   2.227   6.228 -0.0736 -0.4215  0.5832
38933SOL    HW122635   9.816   2.221   6.318 -0.7700  1.4821  1.0043
38933SOL    HW222636   9.813   2.313   6.198 -1.7209 -0.1019 -0.2209
38934SOL     OW22637   3.045   6.402   4.297  0.2545  0.2080  0.1711
38934SOL    HW122638   2.949   6.404   4.295  0.2275  0.5776  0.9630
38934SOL    HW222639   3.066   6.337   4.364  0.5606 -0.1112 -0.2370
38935SOL     OW22640   5.208   2.807   3.702  0.4336 -0.2267  0.2881
38935SOL    HW122641   5.117   2.807   3.673  0.4726  1.2473  0.0697
38935SOL    HW222642   5.204   2.838   3.793  0.8215  1.7788 -0.3149
38936SOL     OW22643   9.301   8.978   7.623  0.1882  0.3731  0.8086
38936SOL    HW122644   9.383   9.015   7.591 -0.5574  0.6189 -0.9621
38936SOL    HW222645   9.311   8.974   7.718  2.0133  0.9265  0.6682
38937SOL     OW22646   2.852   0.024   9.702 -0.3463 -0.7977  0.0430
38937SOL    HW122647   2.875  -0.068   9.688 -1.0238 -1.1253  0.9682
38937SOL    HW222648   2.760   0.021   9.731 -0.5401  0.2104 -0.4314
38938SOL     OW22649   5.945   5.133   0.738 -0.4182 -0.4402  0.0686
38938SOL    HW122650   5.996   5.213   0.741 -1.2976  0.1405 -0.1370
38938SOL    HW222651   5.860   5.160   0.704 -0.9596 -1.3320  0.6699
38939SOL     OW22652   2.190   0.437   2.896  0.4031 -0.4904  0.4435
38939SOL    HW122653   2.173   0.515   2.949 -1.2713  0.9970 -2.0460
38939SOL    HW222654   2.285   0.434   2.887  0.5883  0.3999  1.7807
38940SOL     OW22655   8.902   8.874   8.961 -0.0613 -0.0149 -0.3252
38940SOL    HW122656   8.845   8.815   9.010  1.0810 -0.1550  0.8740
38940SOL    HW222657   8.958   8.914   9.027  0.1484  1.3554 -1.2801
38941SOL     OW22658   5.292   9.661   9.141 -0.2811 -0.0799  0.0836
38941SOL    HW122659   5.374   9.708   9.124  0.3735 -0.9693  0.6844
38941SOL    HW222660   5.243   9.718   9.200  0.2411  0.1246  0.3255
38942SOL     OW22661   5.706   1.321   2.423 -0.3567 -0.1095  0.1640
38942SOL    HW122662   5.745   1.389   2.478 -1.5440  0.9142 -0.2079
38942SOL    HW222663   5.745   1.334   2.336 -0.2851 -0.1572  0.1893
38943SOL     OW22664   1.253   4.168   7.978  0.4217  0.4806 -0.2720
38943SOL    HW122665   1.162   4.200   7.986  0.2074 -0.3561  1.0394
38943SOL    HW222666   1.305   4.236   8.021  0.4712  1.1481 -1.3645
38944SOL     OW22667   1.559   1.870   5.183 -0.7360 -0.0979 -0.6521
38944SOL    HW122668   1.526   1.868   5.273  1.7242 -0.3837  0.3047
38944SOL    HW222669   1.581   1.962   5.168  0.6205 -0.3446 -0.2512
38945SOL     OW22670   0.716   7.975   3.667  0.0935  0.4498  0.0861
38945SOL    HW122671   0.708   7.920   3.745  0.3010  0.8542  0.3981
38945SOL    HW222672   0.810   7.973   3.647  0.0357  0.3211 -0.1729
38946SOL     OW22673   3.653   0.110   9.157  0.3196  0.2511 -1.0148
38946SOL    HW122674   3.708   0.187   9.173  1.2721 -0.6312  0.1160
38946SOL    HW222675   3.601   0.134   9.080  1.6452  1.4576 -1.5952
38947SOL     OW22676   1.242   9.101   6.146 -0.3894 -0.3855  0.4071
38947SOL    HW122677   1.334   9.074   6.151 -0.7288 -2.1692 -1.5845
38947SOL    HW222678   1.235   9.174   6.208  2.5970  0.5144 -0.1563
38948SOL     OW22679   3.624   7.789   8.046  0.5157 -0.4758  0.5631
38948SOL    HW122680   3.625   7.693   8.046 -0.2051 -0.5024 -0.4098
38948SOL    HW222681   3.624   7.813   8.139  1.1649 -1.4031  0.8176
38949SOL     OW22682   1.503   4.743   1.562  0.0225  0.1613 -0.3266
38949SOL    HW122683   1.479   4.720   1.652 -0.0298 -0.7031 -0.5543
38949SOL    HW222684   1.473   4.668   1.510 -0.9396  1.1362 -1.2143
38950SOL     OW22685   9.131   1.619   6.749 -0.7359  0.1303  0.5833
38950SOL    HW122686   9.043   1.658   6.748  1.1807  5.3015 -1.9428
38950SOL    HW222687   9.170   1.651   6.831 -0.0851  1.1687 -0.1066
38951SOL     OW22688   6.222   9.132  10.312 -0.2028  0.1236 -0.2804
38951SOL    HW122689   6.156   9.123  10.380  0.3270 -1.7203  0.0446
38951SOL    HW222690   6.283   9.060  10.328 -0.7602 -1.2624 -3.4379
38952SOL     OW22691   5.010   0.227   0.382  0.2017 -0.2887  0.2382
38952SOL    HW122692   4.977   0.182   0.459 -2.6332 -0.9308 -1.2129
38952SOL    HW222693   4.999   0.320   0.402  0.6754 -0.4023  1.0547
38953SOL     OW22694   0.363   2.641  10.639 -0.0177  0.4828  0.2129
38953SOL    HW122695   0.355   2.545  10.633  1.4735  0.2930  0.6893
38953SOL    HW222696   0.324   2.673  10.558  0.0943 -0.5902 -0.2880
38954SOL     OW22697   4.351   6.730   1.926 -1.1796  0.1227 -0.9611
38954SOL    HW122698   4.303   6.760   1.849 -2.7727  0.0287 -0.0477
38954SOL    HW222699   4.304   6.768   2.000  1.4319  1.8509 -0.0222
38955SOL     OW22700   9.083   5.643   0.336 -0.1001  0.2603 -0.0232
38955SOL    HW122701   9.086   5.732   0.300  2.1155  0.5997  0.8203
38955SOL    HW222702   9.058   5.655   0.427 -0.2532 -0.0426 -0.0237
38956SOL     OW22703   4.659   9.877   4.615  0.6282 -0.6296 -0.0053
38956SOL    HW122704   4.650   9.849   4.706  0.4758 -0.9378 -0.1115
38956SOL    HW222705   4.706   9.804   4.573 -1.7624 -1.8071 -0.8038
38957SOL     OW22706   8.744   4.494   0.182 -0.3085 -0.4776 -0.3782
38957SOL    HW122707   8.754   4.428   0.113 -2.6534 -0.8654 -0.4497
38957SOL    HW222708   8.704   4.569   0.137  0.6101  0.2932  0.0653
38958SOL     OW22709   0.603   6.159   1.288  0.2397  0.4214 -0.5911
38958SOL    HW122710   0.511   6.145   1.307  0.2286 -2.6233 -2.3355
38958SOL    HW222711   0.648   6.085   1.327  1.9041  1.4626 -0.4179
38959SOL     OW22712  10.329   2.791   3.848 -0.3475  0.2368  0.3846
38959SOL    HW122713  10.342   2.886   3.838  1.4928  0.1133  1.1512
38959SOL    HW222714  10.312   2.760   3.759  2.0910  0.9199 -0.4036
38960SOL     OW22715   2.717  10.544   6.081  0.0784 -0.3167  0.3423
38960SOL    HW122716   2.644  10.482   6.086 -0.9522  0.9526  2.6959
38960SOL    HW222717   2.785  10.505   6.137 -0.0787  0.0585  0.7988
38961SOL     OW22718   5.772   0.931   9.432 -0.2564  0.2378  0.3503
38961SOL    HW122719   5.735   0.856   9.478 -0.4478  0.0713 -0.0635
38961SOL    HW222720   5.705   0.954   9.367 -0.9573  1.8385  1.5661
38962SOL     OW22721   3.238   6.321   8.267  0.1203  0.1010  0.4562
38962SOL    HW122722   3.258   6.388   8.201 -0.0356 -1.1083 -0.8784
38962SOL    HW222723   3.158   6.279   8.235 -0.2144 -0.2265  1.6687
38963SOL     OW22724   6.094   0.838   8.912  0.1284 -0.0628 -0.1200
38963SOL    HW122725   6.100   0.932   8.894  0.4097  0.1895  1.1717
38963SOL    HW222726   6.060   0.833   9.002 -0.8715 -1.2194 -0.5300
38964SOL     OW22727   6.745   0.804   8.308 -0.2451 -0.0571  0.2608
38964SOL    HW122728   6.780   0.818   8.396  2.0776  0.0641 -0.5977
38964SOL    HW222729   6.758   0.888   8.264 -0.1107 -0.5059 -0.5727
38965SOL     OW22730   9.434   9.140   0.865 -0.2326 -0.0019  0.0386
38965SOL    HW122731   9.384   9.111   0.789  0.8908  1.6234 -1.3978
38965SOL    HW222732   9.524   9.116   0.844  0.3780  2.2628 -0.1089
38966SOL     OW22733   4.146   4.654   5.070 -0.4913 -0.3759 -0.1543
38966SOL    HW122734   4.160   4.593   5.142  0.0797  1.5579  1.4515
38966SOL    HW222735   4.081   4.611   5.015 -0.1302 -2.4019  0.8966
38967SOL     OW22736   4.932   4.570   6.806  0.2957 -0.6274 -0.3910
38967SOL    HW122737   4.895   4.657   6.789 -1.5801 -1.6382 -1.9084
38967SOL    HW222738   4.956   4.537   6.719  1.9223 -1.2812  0.2626
38968SOL     OW22739  10.423   1.780   8.524 -0.2818  0.0181  0.0988
38968SOL    HW122740  10.436   1.763   8.617 -1.6388 -0.0476  0.3049
38968SOL    HW222741  10.508   1.808   8.492  0.5032 -1.1505  1.0898
38969SOL     OW22742   2.077   5.412   0.879  0.3747 -0.7240  0.0708
38969SOL    HW122743   2.000   5.383   0.928 -0.0017  0.8527  0.4689
38969SOL    HW222744   2.134   5.335   0.875 -0.8236 -1.6563  0.5490
38970SOL     OW22745   5.932   1.770   5.023  0.8375 -0.2015 -0.1201
38970SOL    HW122746   5.914   1.762   4.929  0.8282 -1.6093 -0.0213
38970SOL    HW222747   5.917   1.862   5.043 -0.4270 -0.1464 -1.2338
38971SOL     OW22748   9.397   2.891   5.487 -0.3080 -0.2508 -0.1802
38971SOL    HW122749   9.481   2.897   5.531 -1.9382  2.1183  3.0058
38971SOL    HW222750   9.350   2.821   5.534 -1.5870  1.3971  1.1288
38972SOL     OW22751   2.852   8.160   0.581 -0.0058  0.5148 -0.1607
38972SOL    HW122752   2.925   8.098   0.580 -0.3909  0.0336  0.5834
38972SOL    HW222753   2.888   8.240   0.542  1.2021  0.5819  0.9924
38973SOL     OW22754   7.575   4.537   7.060 -0.2472  0.6943  0.1384
38973SOL    HW122755   7.487   4.507   7.081  0.0753 -0.2385  0.1792
38973SOL    HW222756   7.611   4.468   7.005  0.2986  1.2911 -0.2639
38974SOL     OW22757   6.252   2.399   4.948  0.9406 -0.6440  0.3304
38974SOL    HW122758   6.196   2.322   4.953  1.4659 -0.9621  1.9122
38974SOL    HW222759   6.341   2.364   4.946  1.1578 -0.0967  0.0764
38975SOL     OW22760   4.594   0.596   7.966  0.0869 -0.3286 -0.1410
38975SOL    HW122761   4.580   0.517   8.018  1.8854 -0.0075  0.9072
38975SOL    HW222762   4.515   0.604   7.912 -1.5411 -1.0807  2.0042
38976SOL     OW22763   7.997   6.560   1.929 -0.0111 -0.2763  0.4841
38976SOL    HW122764   8.044   6.643   1.938 -2.1165  1.1879 -1.0170
38976SOL    HW222765   7.934   6.560   2.001 -1.5578  0.6110 -0.7913
38977SOL     OW22766  10.781   1.359   7.540  0.5766 -0.0827  0.5728
38977SOL    HW122767  10.796   1.320   7.626  2.9141 -0.0555  0.2518
38977SOL    HW222768  10.767   1.452   7.557  0.1534 -0.2203  0.9850
38978SOL     OW22769   0.417   1.910   2.012  0.1604 -0.3767 -0.1369
38978SOL    HW122770   0.460   1.849   1.952 -0.9015 -1.1853 -0.1260
38978SOL    HW222771   0.384   1.853   2.083 -1.5008  0.0944 -0.5045
38979SOL     OW22772   6.021  10.145   1.867 -0.6692  0.2207  0.8756
38979SOL    HW122773   6.030  10.181   1.778 -1.0423 -0.3034  0.6167
38979SOL    HW222774   6.012  10.221   1.923  0.0003  0.5753  0.5140
38980SOL     OW22775   0.890   8.682   8.940 -0.3092  0.3715  0.2183
38980SOL    HW122776   0.825   8.714   8.877 -1.8167 -0.9232  1.0613
38980SOL    HW222777   0.966   8.659   8.886 -0.9557  0.8395 -0.9309
38981SOL     OW22778  10.177   0.543   3.330 -0.0247  0.2469 -0.1374
38981SOL    HW122779  10.128   0.624   3.333 -1.3682 -0.3997 -2.1554
38981SOL    HW222780  10.263   0.568   3.297 -1.0855  0.6973 -2.8632
38982SOL     OW22781   8.715   0.312   7.610  0.3686 -0.3119  0.3641
38982SOL    HW122782   8.733   0.265   7.529  0.9059 -0.8423  0.7927
38982SOL    HW222783   8.792   0.367   7.624 -0.3624  0.9375 -0.2770
38983SOL     OW22784   0.036   5.688   2.727  0.4197 -0.1037  0.4922
38983SOL    HW122785   0.120   5.715   2.764  1.0021  0.4244 -1.1166
38983SOL    HW222786  -0.029   5.727   2.785  1.2557 -0.8556  2.0067
38984SOL     OW22787   0.602   3.688   1.946 -0.5618 -0.0431  0.3554
38984SOL    HW122788   0.558   3.614   1.904 -2.6314  1.6728 -0.6908
38984SOL    HW222789   0.531   3.742   1.981  0.7572  2.1111 -0.0644
38985SOL     OW22790   5.554   6.033   1.755 -0.3427  0.2910  0.3536
38985SOL    HW122791   5.635   6.085   1.748 -0.4846  0.5964  0.9266
38985SOL    HW222792   5.506   6.074   1.827 -1.8029  1.1823 -1.0646
38986SOL     OW22793   9.093   4.153   1.003  0.7649 -0.4028  0.1901
38986SOL    HW122794   9.181   4.121   1.024 -0.1146 -1.2337  3.0952
38986SOL    HW222795   9.034   4.096   1.053 -1.5523 -0.5624 -2.4713
38987SOL     OW22796   6.473   5.612   4.798 -0.0226 -0.4776 -0.6398
38987SOL    HW122797   6.387   5.641   4.830 -0.0617 -1.7806  0.5126
38987SOL    HW222798   6.452   5.544   4.734  0.1547 -0.4827 -0.6920
38988SOL     OW22799   5.421   1.049   0.533  0.7724 -0.5482  0.3412
38988SOL    HW122800   5.433   0.965   0.578  1.3385 -0.8792 -0.4016
38988SOL    HW222801   5.390   1.109   0.601 -0.7736 -1.6391  0.6417
38989SOL     OW22802   4.166   1.076   2.645  0.0530 -0.1416  0.4212
38989SOL    HW122803   4.198   0.990   2.616 -1.1657 -0.4186 -0.1734
38989SOL    HW222804   4.162   1.128   2.565 -0.2094  0.1293  0.6081
38990SOL     OW22805  10.391   3.939   0.170  0.0484 -0.5731  0.4577
38990SOL    HW122806  10.429   3.894   0.095 -0.9928 -1.6780  0.5432
38990SOL    HW222807  10.328   4.001   0.132  0.5976 -0.0565  0.3798
38991SOL     OW22808   8.694   5.073   9.228 -0.8078  0.2671  0.5105
38991SOL    HW122809   8.653   5.129   9.163 -0.4473 -0.7623 -0.6359
38991SOL    HW222810   8.727   4.998   9.179 -2.0051 -1.3893  2.0810
38992SOL     OW22811   2.493   4.493   1.044  0.1729  0.4532 -0.1672
38992SOL    HW122812   2.518   4.435   0.972  2.6069  1.0106  0.1341
38992SOL    HW222813   2.572   4.500   1.098 -0.8699  1.9106  1.2822
38993SOL     OW22814  10.025   6.004   8.218 -0.0573 -0.5667 -0.4358
38993SOL    HW122815   9.987   5.931   8.268 -0.6107 -0.1020 -0.1682
38993SOL    HW222816  10.108   5.969   8.185  0.5496 -0.7480  1.1841
38994SOL     OW22817   5.480   4.578   4.729  0.7543  0.4017 -0.1837
38994SOL    HW122818   5.561   4.551   4.772 -0.5708 -1.7416  1.1724
38994SOL    HW222819   5.451   4.654   4.780  0.1237 -1.0175  1.6977
38995SOL     OW22820   5.952   4.514   4.472 -0.3436 -0.0243  0.1363
38995SOL    HW122821   5.873   4.517   4.525  0.0776 -1.8491  0.9366
38995SOL    HW222822   5.962   4.604   4.439 -1.8878  0.6012  1.2465
38996SOL     OW22823   7.190  10.018   5.203 -0.0203  0.3839  0.1617
38996SOL    HW122824   7.208  10.041   5.294 -1.2418 -1.1043  0.8166
38996SOL    HW222825   7.103  10.053   5.186 -0.2320 -0.2504 -0.0882
38997SOL     OW22826   7.436   1.027  10.594 -0.0898  0.1077  0.1577
38997SOL    HW122827   7.512   0.969  10.595 -0.2763 -0.1656 -0.5086
38997SOL    HW222828   7.461   1.102  10.648  2.3211  2.0926 -3.2842
38998SOL     OW22829   5.457   6.594   1.749 -0.1353  0.3434  0.2509
38998SOL    HW122830   5.519   6.649   1.796 -1.1217  2.6375 -0.9882
38998SOL    HW222831   5.401   6.557   1.817  0.0934  1.4679  1.0720
38999SOL     OW22832   2.473   8.836  10.280 -0.1528 -0.0459  0.0522
38999SOL    HW122833   2.406   8.770  10.260  0.5389 -0.9348  0.5720
38999SOL    HW222834   2.505   8.863  10.195 -1.2740  0.5101 -0.2116
39000SOL     OW22835   3.569   1.979   5.157  0.3936  0.0764  0.2355
39000SOL    HW122836   3.494   1.998   5.101  0.2938  2.1502  0.9620
39000SOL    HW222837   3.532   1.932   5.232  0.0885 -0.2478 -0.1157
39001SOL     OW22838   4.179   3.618   9.172 -0.0891 -0.1305 -0.3065
39001SOL    HW122839   4.224   3.533   9.166  0.1758 -0.0464  0.3385
39001SOL    HW222840   4.236   3.678   9.125  0.9129  0.1307  1.1431
39002SOL     OW22841   6.750   1.440   9.949  0.0754 -0.4045  0.2249
39002SOL    HW122842   6.819   1.467  10.010 -1.2506 -0.2642  1.7204
39002SOL    HW222843   6.672   1.431  10.003 -1.5344  1.1565 -1.6972
39003SOL     OW22844   1.540   6.388   1.107 -0.0451  0.1945 -0.5310
39003SOL    HW122845   1.519   6.481   1.117  0.3523  0.1823  0.4821
39003SOL    HW222846   1.563   6.359   1.195  0.2236 -0.7744 -0.9111
39004SOL     OW22847   7.327   1.478   4.621 -0.2495  0.8064 -0.0114
39004SOL    HW122848   7.271   1.468   4.698 -0.9386 -1.1336 -0.6835
39004SOL    HW222849   7.416   1.484   4.655 -0.6153  0.7707  0.9655
39005SOL     OW22850   6.450   2.503   2.738 -0.1610 -0.1794  0.0732
39005SOL    HW122851   6.487   2.415   2.746  1.4400  0.3749 -0.7820
39005SOL    HW222852   6.503   2.545   2.670 -1.6456  1.0703 -0.3694
39006SOL     OW22853   4.971   7.487   4.334  0.8077  0.9478 -0.2909
39006SOL    HW122854   4.894   7.543   4.332 -0.2221 -0.4066 -0.7773
39006SOL    HW222855   5.005   7.495   4.423 -2.1677 -1.2759  1.2380
39007SOL     OW22856   3.256   7.605   9.560 -0.2610 -0.2732  0.1590
39007SOL    HW122857   3.204   7.637   9.634 -0.2694 -0.2409  0.1393
39007SOL    HW222858   3.343   7.640   9.576  0.1980 -1.7637  1.1173
39008SOL     OW22859   6.971   6.458   3.494  0.6771  0.3952  0.4101
39008SOL    HW122860   6.978   6.549   3.466 -1.9242  0.9794  1.3323
39008SOL    HW222861   6.961   6.409   3.412 -1.0572  1.3675 -0.0160
39009SOL     OW22862   8.244   6.011   5.047  0.3932  0.3201 -0.4587
39009SOL    HW122863   8.309   6.060   4.996  0.0933 -0.2608 -1.4174
39009SOL    HW222864   8.160   6.036   5.010  0.1879 -0.2684 -0.4113
39010SOL     OW22865   1.769   6.723   5.368 -0.0216 -0.2804 -0.6959
39010SOL    HW122866   1.845   6.698   5.420  0.0673  0.6358 -0.3748
39010SOL    HW222867   1.693   6.699   5.422  0.0721  1.7285  0.4092
39011SOL     OW22868   9.919   6.904   5.873  0.9232 -0.5055  0.3302
39011SOL    HW122869   9.895   6.929   5.784 -2.7628 -1.8963  0.7895
39011SOL    HW222870   9.959   6.817   5.863 -1.6263 -1.7282  0.1286
39012SOL     OW22871   9.966   3.494   1.704 -0.1637  0.0352  0.4075
39012SOL    HW122872   9.944   3.433   1.774 -0.9896  1.2766  1.2660
39012SOL    HW222873   9.975   3.579   1.747  4.0564  0.1108 -0.2439
39013SOL     OW22874   5.467   4.264   0.077  0.3776 -0.2513  0.1660
39013SOL    HW122875   5.428   4.267   0.164 -1.1861 -0.2499 -0.5135
39013SOL    HW222876   5.534   4.332   0.079 -0.4907  0.6145  0.9760
39014SOL     OW22877   2.936   5.526   4.937  0.0781 -0.5663  0.1055
39014SOL    HW122878   3.002   5.468   4.897 -1.2567 -1.4546 -0.9193
39014SOL    HW222879   2.933   5.499   5.029  0.9698 -0.6610  0.1189
39015SOL     OW22880   2.654   5.545   8.622  0.3299 -0.2700  0.4108
39015SOL    HW122881   2.567   5.552   8.662  0.8133  0.4786  1.3842
39015SOL    HW222882   2.640   5.494   8.542 -1.0930  0.2709  0.2876
39016SOL     OW22883  10.405   2.769   1.233  0.2820 -0.4934 -0.3119
39016SOL    HW122884  10.430   2.845   1.180  0.0299 -0.0056  0.2483
39016SOL    HW222885  10.488   2.735   1.267  0.5416 -1.3848 -1.7485
39017SOL     OW22886   0.701   9.022   8.883  0.6844  0.4343  0.3530
39017SOL    HW122887   0.611   8.997   8.901  1.3523 -0.2127  3.2066
39017SOL    HW222888   0.734   8.952   8.826 -0.7421  1.0401 -1.3033
39018SOL     OW22889   1.832   9.600   0.809  0.0395  0.7311  0.1734
39018SOL    HW122890   1.875   9.541   0.747  0.7582  1.7734 -0.3481
39018SOL    HW222891   1.772   9.544   0.858  0.3212 -0.3291 -0.6641
39019SOL     OW22892   9.329  10.531   8.544 -0.1941  0.0055  0.0768
39019SOL    HW122893   9.422  10.515   8.529  0.2749  1.3476  1.3208
39019SOL    HW222894   9.313  10.617   8.505 -0.8184 -0.0288  0.2486
39020SOL     OW22895   1.229   3.346   5.182  0.3875 -0.1300  0.2177
39020SOL    HW122896   1.196   3.351   5.092  1.3450  2.5989 -0.0623
39020SOL    HW222897   1.152   3.324   5.234 -0.4600 -0.4384 -1.0969
39021SOL     OW22898   3.239   8.884   6.323  0.1037 -0.0744 -0.1013
39021SOL    HW122899   3.305   8.815   6.322 -1.2132 -1.3807 -1.4673
39021SOL    HW222900   3.163   8.846   6.367 -0.4386  0.7097 -0.3238
39022SOL     OW22901   8.218   0.934   5.932 -0.4244 -0.5290  0.0508
39022SOL    HW122902   8.198   0.925   5.839 -1.7327 -0.1441  0.2689
39022SOL    HW222903   8.208   1.028   5.949 -0.2195 -0.6018  0.5910
39023SOL     OW22904   7.668   6.565   0.686 -0.1670 -0.0013 -0.1609
39023SOL    HW122905   7.733   6.560   0.756  0.1554 -0.7121 -0.5041
39023SOL    HW222906   7.625   6.480   0.686 -0.9759  0.3960 -0.0693
39024SOL     OW22907   7.648   5.259   6.616 -0.2659 -1.0835  0.3414
39024SOL    HW122908   7.583   5.305   6.669 -0.0462 -1.3450  0.8462
39024SOL    HW222909   7.718   5.236   6.678 -0.1985 -1.7571  0.0280
39025SOL     OW22910   6.074   3.884   2.827  0.3801 -0.5112 -0.0386
39025SOL    HW122911   6.097   3.973   2.800 -1.6194 -0.0382 -0.3587
39025SOL    HW222912   6.024   3.849   2.753 -0.0972 -1.3611  0.6598
39026SOL     OW22913   8.620  10.837   2.494  0.2279  0.4172  0.0347
39026SOL    HW122914   8.675  10.880   2.429  0.4686 -0.8391 -0.6132
39026SOL    HW222915   8.535  10.827   2.452  0.2338  0.0597  0.1074
39027SOL     OW22916   8.434   1.884   7.928  0.0990 -0.0317  0.2946
39027SOL    HW122917   8.392   1.897   8.013 -3.0518 -0.8533 -1.0105
39027SOL    HW222918   8.486   1.963   7.914  0.0307  0.4725  2.5901
39028SOL     OW22919  10.443   3.029   6.574 -0.4349  0.3214  0.2950
39028SOL    HW122920  10.408   2.953   6.620  1.7874  0.6968  2.8854
39028SOL    HW222921  10.392   3.103   6.608 -1.7546  0.1940 -1.2886
39029SOL     OW22922   1.491   9.086   6.502  0.4037 -0.0883  0.3114
39029SOL    HW122923   1.400   9.086   6.533 -0.5453  0.1561 -2.2380
39029SOL    HW222924   1.500   9.170   6.456  0.8029 -1.4715 -2.3236
39030SOL     OW22925   4.929   3.699   0.692  0.0775 -0.2381  0.0042
39030SOL    HW122926   4.984   3.760   0.742 -0.4083  0.4442 -0.2817
39030SOL    HW222927   4.964   3.613   0.713  1.9956  0.2333 -1.0084
39031SOL     OW22928   7.986   7.440   6.835  0.1242  0.1321  0.0667
39031SOL    HW122929   7.997   7.426   6.741 -0.8912 -0.5566  0.0297
39031SOL    HW222930   7.929   7.368   6.863 -0.8903  1.2182  0.9021
39032SOL     OW22931   4.777   0.292   1.923  0.1958  0.4342  0.2530
39032SOL    HW122932   4.845   0.272   1.987  0.7069  0.6180 -0.2288
39032SOL    HW222933   4.812   0.365   1.872  0.2637 -0.4092 -0.9488
39033SOL     OW22934  10.765   9.402   8.499 -0.4774  0.0502 -0.3107
39033SOL    HW122935  10.803   9.316   8.515 -0.9121  0.1302  1.3447
39033SOL    HW222936  10.686   9.404   8.554 -0.9191  1.2005 -0.9468
39034SOL     OW22937   2.414   1.001   7.116 -0.0012 -0.2564  0.4162
39034SOL    HW122938   2.343   1.034   7.060 -1.4266 -1.8827  1.1559
39034SOL    HW222939   2.483   1.067   7.109 -0.8088  0.4447 -1.8626
39035SOL     OW22940   2.230   5.356   2.329 -0.6114  0.6372 -0.0451
39035SOL    HW122941   2.319   5.327   2.347 -0.6891  0.8940  0.8013
39035SOL    HW222942   2.218   5.341   2.235  0.0230 -0.2134 -0.0064
39036SOL     OW22943   8.314   6.763   9.942  0.0989 -0.5669  0.1052
39036SOL    HW122944   8.312   6.674   9.977  1.1829 -0.7561 -0.2660
39036SOL    HW222945   8.284   6.754   9.852  1.3806 -0.7879 -0.3319
39037SOL     OW22946   8.392   4.020   5.092  0.0454 -0.1512  0.5586
39037SOL    HW122947   8.338   3.946   5.119 -0.0739 -0.5825 -0.7606
39037SOL    HW222948   8.332   4.077   5.045  0.2241  0.5973  1.2206
39038SOL     OW22949   9.574  10.471   7.304 -0.2782 -0.9760 -0.2736
39038SOL    HW122950   9.640  10.450   7.371 -0.7540  3.3688  1.9319
39038SOL    HW222951   9.626  10.502   7.229  0.2660 -0.3061  0.3602
39039SOL     OW22952   4.704   4.514   1.885 -0.0996  0.1226  0.2574
39039SOL    HW122953   4.745   4.566   1.953  1.8512 -0.4460 -0.3963
39039SOL    HW222954   4.754   4.535   1.806 -1.3468 -0.3418 -0.6894
39040SOL     OW22955  10.901   2.317   5.791 -0.0045  0.0751 -0.1084
39040SOL    HW122956  10.860   2.383   5.848  0.1005 -0.6802  0.8653
39040SOL    HW222957  10.988   2.353   5.773 -0.0882  0.3919  0.0952
39041SOL     OW22958  10.196   7.053   9.901 -0.4574  0.0226 -0.2570
39041SOL    HW122959  10.150   7.052   9.985 -0.8300  0.3328 -0.4587
39041SOL    HW222960  10.288   7.065   9.924 -0.3910 -1.2079  0.1842
39042SOL     OW22961   4.520   9.909   3.223 -0.6098  0.3128  0.0403
39042SOL    HW122962   4.576   9.831   3.231  1.2594  1.4841 -1.1162
39042SOL    HW222963   4.552   9.968   3.292 -1.0776  0.6304 -0.0122
39043SOL     OW22964   4.277   7.297   4.907  0.4739 -0.0993  0.0788
39043SOL    HW122965   4.214   7.282   4.978  0.0862  1.1826  0.0274
39043SOL    HW222966   4.280   7.213   4.860 -0.1355 -0.6075  0.9136
39044SOL     OW22967   3.011   7.584   8.104  0.0887 -0.4651 -0.0770
39044SOL    HW122968   2.918   7.563   8.098 -0.1834  0.4630  0.7195
39044SOL    HW222969   3.028   7.592   8.198  1.2697 -1.8472 -0.1425
39045SOL     OW22970   9.014   0.703   1.935 -0.3124 -0.3229 -0.2799
39045SOL    HW122971   9.006   0.708   1.840 -0.2738  0.3212 -0.2560
39045SOL    HW222972   8.933   0.661   1.964 -0.7547  0.3420 -0.5283
39046SOL     OW22973   3.944   8.506   0.225  0.0190  0.0991 -0.1861
39046SOL    HW122974   3.991   8.472   0.301 -1.3991 -0.0858  0.6224
39046SOL    HW222975   3.995   8.584   0.200 -0.5654  1.3357  2.1807
39047SOL     OW22976  10.223   1.556   2.240  0.3177  0.2027  0.5234
39047SOL    HW122977  10.173   1.560   2.322  0.1090  0.8148  0.3695
39047SOL    HW222978  10.157   1.557   2.171  0.5332  1.6943  0.2995
39048SOL     OW22979   5.106   1.943   2.645 -0.1165 -0.1344 -0.2148
39048SOL    HW122980   5.127   2.034   2.666 -2.1881  0.7204 -1.4755
39048SOL    HW222981   5.059   1.910   2.721 -1.3735  0.6268 -0.6397
39049SOL     OW22982  10.776   6.704   7.297 -0.1386  0.0530 -0.1822
39049SOL    HW122983  10.759   6.787   7.341  1.2229 -0.3031  1.1126
39049SOL    HW222984  10.690   6.672   7.272 -0.8560  0.9316  1.0495
39050SOL     OW22985  10.705   7.525   2.178  0.2224  0.3398 -0.1543
39050SOL    HW122986  10.749   7.609   2.186 -0.4061  0.6701 -0.1482
39050SOL    HW222987  10.614   7.547   2.158 -0.2132 -0.3066  1.0075
39051SOL     OW22988   6.619   3.768   8.154  0.3033 -0.4037  0.0994
39051SOL    HW122989   6.692   3.745   8.096  0.5410 -1.1996  0.6938
39051SOL    HW222990   6.577   3.843   8.111 -0.3433 -1.7870 -1.7907
39052SOL     OW22991   5.889   3.234   6.234  0.2131  0.0340  0.0176
39052SOL    HW122992   5.953   3.293   6.272 -0.0367  0.6970 -0.5656
39052SOL    HW222993   5.938   3.153   6.217  1.3383  1.0506 -1.8918
39053SOL     OW22994   8.064   8.224   5.384 -0.2310  0.3717 -0.4139
39053SOL    HW122995   8.026   8.142   5.352 -0.0310 -0.1074  0.5400
39053SOL    HW222996   8.155   8.221   5.354 -0.5476  0.8653 -1.4901
39054SOL     OW22997   4.735   2.732  10.909 -0.7849 -0.4532  0.2567
39054SOL    HW122998   4.702   2.748  10.820  1.0973  0.0026 -0.4229
39054SOL    HW222999   4.789   2.654  10.899 -1.2050 -0.8697  1.1998
39055SOL     OW23000   6.228   7.157   3.052  0.2463  0.4038  0.3932
39055SOL    HW123001   6.306   7.105   3.033 -0.0034 -0.2891  1.2477
39055SOL    HW223002   6.255   7.216   3.122  0.5347  1.4860 -0.5794
39056SOL     OW23003   7.564   9.267   4.679 -0.1766 -0.5664 -0.0822
39056SOL    HW123004   7.523   9.312   4.605  0.4837  0.0221 -0.0967
39056SOL    HW223005   7.518   9.182   4.683 -0.8740 -0.2250 -0.5577
39057SOL     OW23006  10.315   6.664   8.217  0.0485 -0.3507 -0.3617
39057SOL    HW123007  10.375   6.704   8.280  0.5293 -2.0232  0.3148
39057SOL    HW223008  10.306   6.729   8.147  0.0826  1.2585  1.0548
39058SOL     OW23009   6.745   4.525   3.280 -0.0526  0.4326  0.6465
39058SOL    HW123010   6.671   4.541   3.339 -1.6252 -3.3522 -0.0319
39058SOL    HW223011   6.706   4.525   3.193  0.9693 -0.4702  0.1645
39059SOL     OW23012   0.320   2.205   7.356 -0.1854  0.1268 -0.7801
39059SOL    HW123013   0.386   2.220   7.424  0.4771 -0.3949 -1.2894
39059SOL    HW223014   0.302   2.292   7.320 -0.2719  0.3583 -0.1922
39060SOL     OW23015   2.528   1.693   1.552  0.0074  0.2661 -0.0865
39060SOL    HW123016   2.578   1.614   1.532  1.3080  1.1360 -0.3852
39060SOL    HW223017   2.437   1.667   1.540  0.3830 -1.2861  0.1864
39061SOL     OW23018   9.444   9.602   4.292  0.0548 -0.5217 -1.0228
39061SOL    HW123019   9.408   9.650   4.218  1.3473  2.6538  0.2108
39061SOL    HW223020   9.536   9.591   4.272  0.4808  0.6110  0.1419
39062SOL     OW23021   9.787  10.187   4.143 -0.0088 -0.1533  0.0635
39062SOL    HW123022   9.737  10.222   4.217 -0.8818 -0.3041 -0.4463
39062SOL    HW223023   9.743  10.223   4.065  1.0894  0.2670 -0.3834
39063SOL     OW23024   6.003   9.958   6.635 -0.1299  0.3565 -0.4008
39063SOL    HW123025   6.082   9.960   6.582 -1.0474  0.0428 -1.8176
39063SOL    HW223026   5.944   9.898   6.589 -0.9266 -0.0032  1.0212
39064SOL     OW23027  10.861   3.266   1.093  0.3153 -0.2061 -0.2648
39064SOL    HW123028  10.783   3.266   1.038  0.1796 -0.2862 -0.0746
39064SOL    HW223029  10.931   3.299   1.036 -0.4867  3.1548  0.4922
39065SOL     OW23030   3.233   7.929  10.134 -0.5555  0.4822 -0.0983
39065SOL    HW123031   3.202   7.949  10.222  1.9982 -2.2364  1.6174
39065SOL    HW223032   3.207   7.838  10.120  1.1244  0.1355 -1.1652
39066SOL     OW23033  10.495   8.394   6.109  0.4470 -0.1045  0.2317
39066SOL    HW123034  10.468   8.454   6.039 -0.0696  0.8222  1.2009
39066SOL    HW223035  10.414   8.371   6.155  0.8269 -0.3605  0.7914
39067SOL     OW23036   9.282   2.831   6.754 -0.6288  0.0137  0.1066
39067SOL    HW123037   9.263   2.740   6.732 -1.0229  0.0585  0.2613
39067SOL    HW223038   9.297   2.831   6.848  0.5337 -0.0856 -0.0605
39068SOL     OW23039   5.152   5.101   7.525 -0.2556  0.3387  0.1841
39068SOL    HW123040   5.158   5.148   7.608  1.3856  0.0176  0.2746
39068SOL    HW223041   5.189   5.015   7.543 -1.1327 -0.2208 -0.5603
39069SOL     OW23042   2.354  10.920   2.675 -0.3927 -0.5116 -0.1719
39069SOL    HW123043   2.369  10.988   2.741 -2.3508 -1.4938  1.3825
39069SOL    HW223044   2.428  10.860   2.685 -0.8403 -0.8292  1.4018
39070SOL     OW23045   2.123   5.856   7.481 -0.1936 -0.2643 -0.3285
39070SOL    HW123046   2.161   5.861   7.569 -1.2438  1.2375  0.0794
39070SOL    HW223047   2.169   5.923   7.431  0.2540 -0.9728 -0.8812
39071SOL     OW23048   9.827   5.850   5.170  0.5966 -0.5671 -0.5434
39071SOL    HW123049   9.875   5.889   5.243 -2.6434  3.1630 -0.0344
39071SOL    HW223050   9.743   5.824   5.208  0.1774 -1.9100 -2.2983
39072SOL     OW23051   3.742   9.247   8.927  0.1007 -0.3918  0.3176
39072SOL    HW123052   3.717   9.223   9.017 -0.7906  0.7442  0.3937
39072SOL    HW223053   3.717   9.171   8.874  0.9660 -1.2237  1.0575
39073SOL     OW23054   4.695   5.852   4.936  0.2828 -0.5743 -0.0526
39073SOL    HW123055   4.775   5.902   4.925  1.0110 -1.2532  1.8272
39073SOL    HW223056   4.625   5.911   4.907  1.3002  0.6756  0.0089
39074SOL     OW23057   8.535   9.799   6.185  0.0303 -0.2961 -0.1165
39074SOL    HW123058   8.545   9.768   6.275  0.0527 -0.2347 -0.0978
39074SOL    HW223059   8.589   9.878   6.180  1.2268 -1.1179 -0.6124
39075SOL     OW23060  10.664   6.428   6.999  0.0987 -0.3814 -0.1039
39075SOL    HW123061  10.594   6.369   6.969  0.5507 -0.9170 -0.1302
39075SOL    HW223062  10.619   6.493   7.053 -0.4414 -0.6352 -0.2396
39076SOL     OW23063   9.671   7.589   1.979 -0.4436 -0.2475 -0.0763
39076SOL    HW123064   9.654   7.622   1.890 -1.5038 -0.4820  0.0202
39076SOL    HW223065   9.708   7.664   2.025  1.3663 -0.4888 -1.0509
39077SOL     OW23066   0.843   5.290   2.709 -0.0972  0.1904  0.0574
39077SOL    HW123067   0.903   5.331   2.646 -1.4264  0.2354 -1.2364
39077SOL    HW223068   0.760   5.337   2.698 -1.1364 -1.5894 -0.1331
39078SOL     OW23069  10.042  10.572   8.130 -0.3600  1.0790 -0.2815
39078SOL    HW123070  10.040  10.487   8.174 -1.3559  0.8652 -0.7028
39078SOL    HW223071  10.020  10.635   8.199  0.2984  0.9981  0.0138
39079SOL     OW23072   5.447   5.859   8.442 -0.3179  0.0393 -0.2482
39079SOL    HW123073   5.465   5.930   8.504  1.0958 -0.0946 -0.4684
39079SOL    HW223074   5.487   5.888   8.360 -0.5335 -0.6036 -0.5883
39080SOL     OW23075   7.481   4.034   4.550 -0.9768 -0.0933 -0.4572
39080SOL    HW123076   7.428   4.060   4.625  0.6308  4.1290 -0.5173
39080SOL    HW223077   7.420   4.034   4.476 -1.9845 -1.3015  0.3441
39081SOL     OW23078   2.132   2.557   4.156  0.4939 -0.0288  0.2544
39081SOL    HW123079   2.150   2.592   4.069  0.4930 -1.3361 -0.2815
39081SOL    HW223080   2.139   2.634   4.214  0.6784  0.8185 -0.8542
39082SOL     OW23081   6.129   3.782   5.075 -0.5833  0.7772 -0.1653
39082SOL    HW123082   6.143   3.807   4.984  0.3527  0.9430  0.0140
39082SOL    HW223083   6.047   3.733   5.074  0.1582 -0.5200 -1.3537
39083SOL     OW23084   6.969   3.361   4.068  0.1606  0.2406 -0.5689
39083SOL    HW123085   6.951   3.362   4.162 -0.7810  0.6521 -0.7354
39083SOL    HW223086   6.970   3.269   4.044  1.0434  0.1051 -0.0494
39084SOL     OW23087   6.700   2.043   4.455  0.0425 -0.2567 -0.0358
39084SOL    HW123088   6.735   2.117   4.406 -0.4832 -1.0332 -1.6358
39084SOL    HW223089   6.763   1.972   4.440 -0.9841 -0.9868 -1.0039
39085SOL     OW23090   0.941   6.330   7.713 -0.0970 -0.5369  0.1000
39085SOL    HW123091   0.859   6.343   7.665  0.3875  0.0654 -0.5955
39085SOL    HW223092   0.966   6.240   7.696 -1.1772 -1.0960  1.2464
39086SOL     OW23093   9.809   2.702   0.074  0.4776  0.1329  0.0888
39086SOL    HW123094   9.840   2.631   0.018 -1.6124  0.3242 -1.4175
39086SOL    HW223095   9.736   2.664   0.123  0.0442  0.9395  0.0816
39087SOL     OW23096   4.472   9.916   4.438  0.2530 -0.0731 -0.3913
39087SOL    HW123097   4.478   9.837   4.384  1.6493 -0.4874  0.3168
39087SOL    HW223098   4.524   9.895   4.516 -0.4883  1.0569  0.4317
39088SOL     OW23099   8.269   7.016   5.474 -0.2703  0.5736 -0.0793
39088SOL    HW123100   8.200   7.038   5.537  1.0322  1.7646  0.9995
39088SOL    HW223101   8.273   7.093   5.417 -0.1973  0.2733 -0.4819
39089SOL     OW23102   1.747   9.691   2.405 -0.1808  0.0549  0.1151
39089SOL    HW123103   1.666   9.675   2.454  1.1130 -1.1671  1.9890
39089SOL    HW223104   1.774   9.779   2.430 -0.6419  0.2761 -0.1399
39090SOL     OW23105   1.432   5.614   1.576 -0.0109 -0.8803  0.6145
39090SOL    HW123106   1.447   5.620   1.482  1.1982 -0.5033  0.8129
39090SOL    HW223107   1.512   5.573   1.610  1.2687  2.3584  1.8905
39091SOL     OW23108   7.769   0.743   5.667  0.0487  0.1936  0.5672
39091SOL    HW123109   7.700   0.790   5.621  1.1398  0.2041 -1.1495
39091SOL    HW223110   7.774   0.785   5.753 -0.0644  2.1808 -0.3472
39092SOL     OW23111   8.396   4.877   8.744 -0.3283  0.3497  0.2018
39092SOL    HW123112   8.349   4.794   8.746  0.6012 -0.1941  0.8136
39092SOL    HW223113   8.373   4.919   8.827  0.1626  0.1130  0.4712
39093SOL     OW23114   1.240   6.707   4.762  0.2322  0.4358 -0.0125
39093SOL    HW123115   1.207   6.656   4.688 -0.9395  0.1787  0.6622
39093SOL    HW223116   1.292   6.777   4.722 -0.9123  0.6901 -1.1303
39094SOL     OW23117   6.150   6.295   7.836  0.1008  0.1888 -0.0271
39094SOL    HW123118   6.141   6.294   7.740  0.5142  1.0871 -0.0815
39094SOL    HW223119   6.244   6.306   7.851  0.4933 -2.8913  0.5104
39095SOL     OW23120   6.627   3.522   6.727 -0.4845 -0.5291  0.1012
39095SOL    HW123121   6.577   3.547   6.804 -1.5531 -1.4499 -0.2538
39095SOL    HW223122   6.680   3.448   6.755  1.5818  1.1115  0.7686
39096SOL     OW23123   3.195   3.217   6.178 -0.5491 -0.2357 -0.4899
39096SOL    HW123124   3.154   3.209   6.264  0.4046 -2.9886 -0.1785
39096SOL    HW223125   3.283   3.251   6.196 -0.4659 -0.4982 -0.3864
39097SOL     OW23126   3.384   4.579   3.369 -0.4815 -0.0846  0.1660
39097SOL    HW123127   3.370   4.638   3.443 -0.4636  0.1632 -0.0256
39097SOL    HW223128   3.462   4.614   3.325 -0.8646  0.1457 -0.3381
39098SOL     OW23129   8.865   4.741   8.480 -0.0911 -0.0317  0.5636
39098SOL    HW123130   8.888   4.825   8.440 -0.8895  0.8026  1.7810
39098SOL    HW223131   8.775   4.753   8.511  0.0812 -1.0482  1.5071
39099SOL     OW23132   5.017   4.370   2.680  0.1306 -0.8584 -0.3118
39099SOL    HW123133   5.087   4.307   2.662  0.3658 -0.4445 -0.8757
39099SOL    HW223134   4.994   4.405   2.595 -1.0931 -1.3194 -0.1914
39100SOL     OW23135   9.377   6.378  10.745  0.4188 -0.4115  0.2493
39100SOL    HW123136   9.330   6.296  10.755  0.2458 -0.4181 -0.5761
39100SOL    HW223137   9.338   6.419  10.669 -0.0434  0.8271  1.1247
39101SOL     OW23138   1.059   5.435   9.396  0.3615 -0.2053 -0.1617
39101SOL    HW123139   1.059   5.339   9.398 -0.0797 -0.1998  0.1487
39101SOL    HW223140   1.145   5.459   9.432  0.4420 -0.4813 -0.1648
39102SOL     OW23141   5.659   1.440  10.375 -0.5261 -0.0947 -0.5013
39102SOL    HW123142   5.686   1.531  10.385  0.0607 -0.1154 -1.7065
39102SOL    HW223143   5.677   1.420  10.283  1.8652 -2.2229  0.3238
39103SOL     OW23144   9.028   8.016   7.284 -0.0451 -0.4519  0.5137
39103SOL    HW123145   9.014   8.107   7.310 -0.3823  0.1416 -1.5339
39103SOL    HW223146   8.956   7.968   7.325 -1.1838  0.6008 -0.1810
39104SOL     OW23147   2.365   0.419   8.751  0.0947  0.7074  0.0177
39104SOL    HW123148   2.316   0.477   8.693  0.2960  1.8235  0.9337
39104SOL    HW223149   2.334   0.440   8.839  0.3397 -0.4268  0.4002
39105SOL     OW23150   5.865   0.568   9.274 -0.1183  0.3932  0.0048
39105SOL    HW123151   5.839   0.646   9.225  1.6101  1.1738  0.2544
39105SOL    HW223152   5.952   0.590   9.310  1.4469 -2.3892 -1.7120
39106SOL     OW23153   6.697   1.657   7.493  0.2769 -0.5099 -0.1938
39106SOL    HW123154   6.636   1.704   7.550  1.1263 -1.1192  1.2798
39106SOL    HW223155   6.739   1.726   7.441 -2.7997 -0.1869 -2.5276
39107SOL     OW23156   0.320   1.704   0.294 -0.2354 -0.5310  0.3767
39107SOL    HW123157   0.225   1.699   0.296 -0.5200  2.1176 -1.4485
39107SOL    HW223158   0.345   1.657   0.214 -0.5479  2.5916 -1.7369
39108SOL     OW23159   0.529   1.034   2.314  0.0401 -0.6043  0.1340
39108SOL    HW123160   0.464   1.104   2.311  0.5415 -0.1586 -0.6333
39108SOL    HW223161   0.477   0.953   2.309 -0.6423 -0.3855  2.3924
39109SOL     OW23162   7.323   2.265   2.633 -0.2093  0.1875 -0.1384
39109SOL    HW123163   7.383   2.204   2.591 -0.9529 -0.2024 -0.6520
39109SOL    HW223164   7.244   2.264   2.578 -1.1574 -0.2307  1.1788
39110SOL     OW23165   8.071   2.030   1.362 -0.1419 -0.3722  0.6607
39110SOL    HW123166   8.124   2.051   1.285 -0.9343 -1.4674 -0.2131
39110SOL    HW223167   8.129   1.979   1.419 -0.0438 -1.0084  0.0057
39111SOL     OW23168   2.973   7.814   5.156  0.0180  0.1141  0.3309
39111SOL    HW123169   2.904   7.848   5.213 -1.5025  0.3378 -1.5671
39111SOL    HW223170   2.984   7.880   5.088 -1.2686 -1.9245 -2.0433
39112SOL     OW23171   1.636   0.511   3.781  0.0008 -0.1294 -0.2701
39112SOL    HW123172   1.689   0.431   3.788 -1.8202 -1.6140 -2.1751
39112SOL    HW223173   1.592   0.503   3.697 -1.5275  2.1147  0.2448
39113SOL     OW23174  10.423   6.504   5.631 -0.1397 -0.2760  0.4301
39113SOL    HW123175  10.403   6.572   5.567 -0.4555 -1.8602 -1.2775
39113SOL    HW223176  10.346   6.502   5.689 -0.2863  0.5531  0.2751
39114SOL     OW23177   6.297   2.068   7.588 -0.2016 -0.3427  0.7919
39114SOL    HW123178   6.266   2.063   7.498  0.8982  0.2001  0.3609
39114SOL    HW223179   6.220   2.092   7.639 -0.6873  0.0534 -0.1059
39115SOL     OW23180   2.792   6.295   1.143 -0.2405 -0.4186 -0.6546
39115SOL    HW123181   2.724   6.353   1.108  1.5033  1.7799 -0.6753
39115SOL    HW223182   2.858   6.292   1.074  1.1196  0.1406  0.5763
39116SOL     OW23183   1.546   0.495   2.700 -0.0657  0.6456 -0.0161
39116SOL    HW123184   1.525   0.425   2.638  0.4565 -0.1240  0.6515
39116SOL    HW223185   1.474   0.494   2.763  0.1466  0.4278  0.2258
39117SOL     OW23186   5.333   5.952   1.410  0.0740 -0.3253 -0.0613
39117SOL    HW123187   5.331   6.041   1.446 -2.7562 -0.5969  0.7390
39117SOL    HW223188   5.323   5.964   1.316  1.8104  0.2118 -0.2153
39118SOL     OW23189  10.175   3.731   7.249 -0.5055  0.1044  0.6790
39118SOL    HW123190  10.137   3.806   7.204  2.1428  1.6756  0.8223
39118SOL    HW223191  10.115   3.659   7.231 -1.3166  1.4196 -2.5510
39119SOL     OW23192   3.641   4.485   0.580 -0.2554  0.3873  0.0853
39119SOL    HW123193   3.651   4.443   0.665  0.8797  2.0134  0.8034
39119SOL    HW223194   3.721   4.537   0.569 -1.1497  1.5719 -1.1853
39120SOL     OW23195   2.379   8.875   0.398  0.5516  0.9179  0.2375
39120SOL    HW123196   2.399   8.783   0.380  0.3151  0.9223 -0.0655
39120SOL    HW223197   2.306   8.872   0.461 -0.3395  0.8816 -0.7638
39121SOL     OW23198   0.728   4.585   6.052  0.2260  0.3601 -0.8193
39121SOL    HW123199   0.762   4.496   6.061  1.2572  0.8840  1.2707
39121SOL    HW223200   0.633   4.575   6.060  0.4166 -0.4472  1.0737
39122SOL     OW23201   9.412  10.705   9.970 -0.0185 -0.5219 -0.5653
39122SOL    HW123202   9.459  10.657  10.038  1.6595  2.0054  0.2040
39122SOL    HW223203   9.323  10.712  10.003  0.3226 -0.9274  0.4941
39123SOL     OW23204   1.046   9.747   5.686 -0.0136 -0.3242 -0.1209
39123SOL    HW123205   0.979   9.799   5.641  0.1543  0.0003  0.0035
39123SOL    HW223206   1.129   9.776   5.648  0.0624 -0.6909 -0.2390
39124SOL     OW23207  10.653   8.398   8.792  0.0552 -0.6595  0.0647
39124SOL    HW123208  10.626   8.306   8.791  1.3302 -1.0560 -1.3165
39124SOL    HW223209  10.572   8.447   8.784 -0.5219 -1.7288 -0.9314
39125SOL     OW23210  10.782   2.000   5.974  0.1570  0.4610  0.3852
39125SOL    HW123211  10.726   2.059   6.024 -0.3533  0.9439 -0.7098
39125SOL    HW223212  10.728   1.921   5.962  0.0763  0.5514  0.1502
39126SOL     OW23213   7.517   5.406   8.299  0.5067 -0.6385  0.6754
39126SOL    HW123214   7.598   5.398   8.349  0.0886 -0.3720  1.4069
39126SOL    HW223215   7.473   5.482   8.337  0.8985  0.5457 -1.1304
39127SOL     OW23216   5.312   5.009   5.445  0.1540  0.5680  0.1257
39127SOL    HW123217   5.291   5.100   5.467  0.5846  0.5937  0.4577
39127SOL    HW223218   5.228   4.964   5.444 -0.0611  0.9684 -0.0319
39128SOL     OW23219   0.621   5.344   5.201 -0.1298 -0.2186 -0.1179
39128SOL    HW123220   0.571   5.295   5.136  1.0975 -0.3595 -0.9916
39128SOL    HW223221   0.617   5.435   5.172  2.2503 -0.5410 -1.7187
39129SOL     OW23222   4.359  10.211   0.185 -0.0237  0.2691 -0.4022
39129SOL    HW123223   4.360  10.146   0.114  0.9820  0.4020 -0.5274
39129SOL    HW223224   4.283  10.188   0.238  1.5990 -2.5814  0.9662
39130SOL     OW23225   4.604   1.789  10.713 -0.4871  0.9842 -0.3768
39130SOL    HW123226   4.539   1.812  10.779 -0.2667  0.2023  0.1352
39130SOL    HW223227   4.561   1.722  10.660  0.6040 -1.2036  1.3290
39131SOL     OW23228   3.734   5.038   8.290 -0.6281 -0.1346 -0.2765
39131SOL    HW123229   3.808   4.982   8.264  1.1138  1.5163  0.8580
39131SOL    HW223230   3.676   4.980   8.339  1.0520 -1.0067  0.7801
39132SOL     OW23231   1.240   2.558   9.950 -0.3450 -0.4875 -0.1065
39132SOL    HW123232   1.196   2.577   9.868 -0.6326 -0.9899 -0.0735
39132SOL    HW223233   1.309   2.496   9.927  1.0318  1.0574 -0.3277
39133SOL     OW23234   2.617   1.586   8.388  0.2662 -0.3496 -0.2172
39133SOL    HW123235   2.665   1.504   8.401  1.5721  0.5371  0.8683
39133SOL    HW223236   2.563   1.595   8.466  2.1163  1.0663  0.9875
39134SOL     OW23237   8.052  10.214   0.410  0.0556  0.8331 -0.1072
39134SOL    HW123238   8.084  10.234   0.322 -2.2737  1.9691 -0.7951
39134SOL    HW223239   8.087  10.127   0.429  1.1610  0.8354 -1.8687
39135SOL     OW23240   2.430   2.552   6.391  0.0617 -0.1169 -0.2851
39135SOL    HW123241   2.340   2.558   6.359 -0.0189  1.4230  0.1698
39135SOL    HW223242   2.453   2.642   6.415  1.6036 -0.5468 -0.0705
39136SOL     OW23243   1.083   0.820   6.435 -0.2090  0.0796 -0.0333
39136SOL    HW123244   1.090   0.753   6.368  2.2382  1.0636 -0.8889
39136SOL    HW223245   1.009   0.874   6.408  0.8430  0.5632 -2.1155
39137SOL     OW23246  10.821   7.997   8.045 -0.5978 -0.4384  0.3444
39137SOL    HW123247  10.908   8.036   8.054 -1.1638  0.6812  1.2593
39137SOL    HW223248  10.829   7.911   8.086  0.3242 -0.7492 -0.4641
39138SOL     OW23249   3.365   9.076  10.838 -0.5808 -0.0018 -0.1298
39138SOL    HW123250   3.364   8.987  10.803 -0.5315  0.0655 -0.3058
39138SOL    HW223251   3.421   9.124  10.777  1.2945 -0.3532  1.2123
39139SOL     OW23252   0.426   7.484  10.077  0.2001 -0.1556  1.0135
39139SOL    HW123253   0.382   7.399  10.088  0.2548 -0.2923  0.2600
39139SOL    HW223254   0.356   7.548  10.083  0.1944 -0.2370  1.8418
39140SOL     OW23255   5.014   7.046   6.577 -0.3824 -0.0930  0.2555
39140SOL    HW123256   4.999   7.006   6.662 -0.5800  0.3630  0.4380
39140SOL    HW223257   5.101   7.017   6.551 -0.1505  0.1005  0.8063
39141SOL     OW23258   9.074   3.472   3.836 -0.4348  0.0713  0.4088
39141SOL    HW123259   9.138   3.409   3.801  0.5634  0.1631  1.9523
39141SOL    HW223260   8.996   3.419   3.854 -1.1000  0.0764 -2.1040
39142SOL     OW23261   4.699   7.670   9.247  0.3766 -0.1590  0.2791
39142SOL    HW123262   4.700   7.612   9.323  0.1887  1.1655  1.3310
39142SOL    HW223263   4.610   7.703   9.242 -0.1896 -1.7258 -1.7678
39143SOL     OW23264   7.442   4.867   7.344  0.2394 -0.4632 -0.5810
39143SOL    HW123265   7.531   4.896   7.364  0.1079  0.3766 -1.1782
39143SOL    HW223266   7.433   4.783   7.390  1.3658 -0.6001 -0.5867
39144SOL     OW23267  10.137   4.561  10.219  0.0189 -0.2845  0.3727
39144SOL    HW123268  10.186   4.490  10.261 -0.0464  0.0829  1.0829
39144SOL    HW223269  10.204   4.625  10.195 -0.0000 -0.2705  0.3581
39145SOL     OW23270   3.969   8.326  10.411 -0.4609 -0.3042 -0.0523
39145SOL    HW123271   4.005   8.295  10.494 -1.6222  0.8448  0.9145
39145SOL    HW223272   4.039   8.309  10.348  0.7499 -0.5088  1.2718
39146SOL     OW23273   1.945   9.795   0.524 -0.0795 -0.6130 -0.6002
39146SOL    HW123274   1.934   9.729   0.455 -1.5844  0.3832 -1.3721
39146SOL    HW223275   1.882   9.769   0.591  0.0180 -0.4961 -0.4634
39147SOL     OW23276   5.630   5.836   6.809  0.1659  0.0713  0.1544
39147SOL    HW123277   5.725   5.841   6.816  0.0883  1.3203  0.6236
39147SOL    HW223278   5.598   5.857   6.897 -0.5348 -2.5498  0.5981
39148SOL     OW23279   3.724   9.403   2.242 -0.3603 -0.0541  0.2863
39148SOL    HW123280   3.805   9.406   2.292  0.8171  1.0355 -1.5880
39148SOL    HW223281   3.665   9.350   2.296  1.6001 -0.9646  1.6648
39149SOL     OW23282   7.045   3.740   9.606  0.5633 -0.6686 -0.4010
39149SOL    HW123283   7.010   3.807   9.548  1.0011  1.1015  1.2490
39149SOL    HW223284   7.130   3.718   9.568  1.6872  1.8163  0.4301
39150SOL     OW23285   7.512   8.038  10.511 -0.0258 -0.1214 -0.0900
39150SOL    HW123286   7.435   8.091  10.489  0.0468  0.0011 -0.0567
39150SOL    HW223287   7.477   7.956  10.544 -0.1393 -0.2010 -0.4037
39151SOL     OW23288   1.065  10.038   2.004  0.0899  0.2079  0.0334
39151SOL    HW123289   1.098  10.098   2.071  0.9503 -1.7615  1.4758
39151SOL    HW223290   0.973  10.061   1.995  0.0826  0.8871  1.5086
39152SOL     OW23291   0.336   4.639   0.795  0.3770 -0.2766 -0.5511
39152SOL    HW123292   0.246   4.610   0.813 -0.2479  0.1370 -2.6933
39152SOL    HW223293   0.387   4.558   0.789 -0.0569 -0.5744 -0.2715
39153SOL     OW23294   4.841   6.174  10.549 -0.2056  0.0545  0.2554
39153SOL    HW123295   4.849   6.082  10.574 -1.3272  0.3843  2.0173
39153SOL    HW223296   4.805   6.172  10.461  0.6095 -1.1918 -0.0728
39154SOL     OW23297   9.767   6.765   0.903  0.0647  0.1917 -0.3299
39154SOL    HW123298   9.740   6.850   0.868  0.3920  0.1894 -0.5871
39154SOL    HW223299   9.844   6.742   0.852  0.6266  0.2511  0.4865
39155SOL     OW23300   5.508   7.925   5.604  0.4899  0.2471  0.2437
39155SOL    HW123301   5.534   8.014   5.629  1.1721 -0.1723  1.0748
39155SOL    HW223302   5.419   7.916   5.638  0.3770  0.6406  0.0642
39156SOL     OW23303   5.130   4.389   2.307 -0.2715 -0.7421  0.3250
39156SOL    HW123304   5.092   4.314   2.354 -0.3622 -1.2381 -0.5170
39156SOL    HW223305   5.106   4.374   2.215  0.5535 -0.1972  0.0110
39157SOL     OW23306   9.334   8.387   6.069 -0.0945 -0.1307 -0.3079
39157SOL    HW123307   9.379   8.465   6.103  1.5889  0.9019 -4.2878
39157SOL    HW223308   9.330   8.401   5.974 -3.1728 -3.2441 -0.8514
39158SOL     OW23309   1.855   7.191   0.155 -0.2232 -0.4190 -0.3329
39158SOL    HW123310   1.928   7.132   0.138  0.5647  0.3959  0.1447
39158SOL    HW223311   1.890   7.257   0.215 -0.9940  0.6859 -1.0522
39159SOL     OW23312   7.749   3.529   3.687  0.3698  0.5048 -0.3064
39159SOL    HW123313   7.807   3.598   3.718  1.2141 -0.8976  1.3792
39159SOL    HW223314   7.764   3.525   3.593 -1.1013  3.8430 -0.8269
39160SOL     OW23315   1.350   1.122   0.521  0.1057  0.0310 -0.0893
39160SOL    HW123316   1.272   1.070   0.499  1.6338 -2.7411  0.4804
39160SOL    HW223317   1.342   1.138   0.615  0.8628 -1.5677  0.2831
39161SOL     OW23318   3.018   7.018   9.754 -0.4333 -0.1930 -0.4873
39161SOL    HW123319   3.093   7.071   9.726 -0.7785  2.6415  3.1613
39161SOL    HW223320   3.054   6.932   9.772  1.8595  0.8893  0.4361
39162SOL     OW23321   3.749   4.119   3.822  0.3946 -0.5135  0.0556
39162SOL    HW123322   3.770   4.027   3.839  1.8913 -0.1466  0.3576
39162SOL    HW223323   3.670   4.117   3.769  1.4492 -2.0499 -1.5320
39163SOL     OW23324   2.021   7.590   7.622  0.0385  0.4219  0.3968
39163SOL    HW123325   1.964   7.666   7.608  0.4403  0.9982  1.7217
39163SOL    HW223326   2.003   7.533   7.547 -3.0235  0.0977  1.2236
39164SOL     OW23327   8.089   3.181  10.107 -0.2726  0.2319  0.5259
39164SOL    HW123328   8.182   3.166  10.126 -0.1699 -0.1339 -0.2062
39164SOL    HW223329   8.078   3.276  10.113  0.2055  0.2996  0.3925
39165SOL     OW23330   3.835   8.117   0.270  0.5385  0.8334 -0.2155
39165SOL    HW123331   3.884   8.178   0.325  0.8185  1.3781 -1.0436
39165SOL    HW223332   3.804   8.171   0.197 -2.7327  0.9051  1.0817
39166SOL     OW23333   7.066   6.664   3.324  0.1860 -0.4168  0.1747
39166SOL    HW123334   7.044   6.613   3.246  1.4615  0.2464 -0.6571
39166SOL    HW223335   7.152   6.631   3.351  0.6933  0.7436  0.0617
39167SOL     OW23336  10.892   9.723   6.048 -0.4234  0.0285 -0.0774
39167SOL    HW123337  10.831   9.662   6.007 -1.1477  1.1222 -0.6618
39167SOL    HW223338  10.919   9.679   6.129 -1.4135 -0.7834 -0.1712
39168SOL     OW23339   2.580   7.302  10.801  0.0557 -0.4223 -0.0610
39168SOL    HW123340   2.521   7.370  10.833 -1.5004 -1.9705  0.5343
39168SOL    HW223341   2.564   7.227  10.859  0.4562 -1.8397 -1.6884
39169SOL     OW23342   6.547   9.940   6.343  0.9263  0.0824  0.4116
39169SOL    HW123343   6.474  10.000   6.325 -0.4988 -1.7251 -0.1108
39169SOL    HW223344   6.614   9.996   6.382 -1.1531  1.6480  2.0236
39170SOL     OW23345   4.426   6.735   3.495 -0.5560 -0.2823  0.0952
39170SOL    HW123346   4.359   6.667   3.497  0.4972 -1.5226 -2.3914
39170SOL    HW223347   4.406   6.786   3.416  2.5726 -2.0711 -2.0412
39171SOL     OW23348   0.324   6.853   7.938  0.2409 -0.2123 -0.6746
39171SOL    HW123349   0.234   6.860   7.907 -0.1697  1.0588  0.6937
39171SOL    HW223350   0.316   6.842   8.033  1.4783  4.4224  0.2216
39172SOL     OW23351   5.391   4.200  10.286 -0.2905 -0.2484 -0.1526
39172SOL    HW123352   5.376   4.265  10.355  2.0583 -0.4018  0.5935
39172SOL    HW223353   5.380   4.115  10.331 -1.0385 -0.3839 -0.5663
39173SOL     OW23354   8.393   5.124   6.257  0.2813  0.0596 -0.3305
39173SOL    HW123355   8.393   5.042   6.307  0.3964  0.8092  0.9281
39173SOL    HW223356   8.473   5.169   6.285 -0.6772  1.4031  0.3594
39174SOL     OW23357   8.189   5.551   2.441 -0.3249 -0.4324  0.1605
39174SOL    HW123358   8.161   5.612   2.373  1.3598  1.2980  0.9340
39174SOL    HW223359   8.250   5.601   2.495  0.9439 -2.7223  0.9996
39175SOL     OW23360   8.382  10.742   2.377 -0.2691 -0.2857  0.5189
39175SOL    HW123361   8.397  10.666   2.434 -0.1045  0.9316  2.1630
39175SOL    HW223362   8.293  10.769   2.398 -0.3580 -0.0680 -0.1340
39176SOL     OW23363   9.805  10.005   0.347 -0.0987 -0.5946  0.0660
39176SOL    HW123364   9.864  10.046   0.283 -0.9214 -1.4628 -1.2931
39176SOL    HW223365   9.755  10.078   0.384  0.8198 -0.0125  0.1942
39177SOL     OW23366   5.941   0.860   9.639 -0.3403  0.2463  0.2719
39177SOL    HW123367   5.874   0.897   9.697 -0.5946 -0.9985  0.7871
39177SOL    HW223368   5.911   0.882   9.551 -2.9698 -2.6067  0.2896
39178SOL     OW23369   3.326   7.394   5.755  0.1648 -0.1738 -0.0207
39178SOL    HW123370   3.374   7.463   5.710 -1.1442  0.7222 -0.0730
39178SOL    HW223371   3.260   7.439   5.806 -1.6352 -1.4089 -1.1275
39179SOL     OW23372   8.011   6.842   4.300 -0.3042 -0.4441 -0.3087
39179SOL    HW123373   8.027   6.819   4.208 -0.4115 -1.1933 -0.1443
39179SOL    HW223374   7.952   6.773   4.332  0.0610 -0.4206  0.4332
39180SOL     OW23375   8.749   1.192   8.231 -0.0541  0.9549 -0.5122
39180SOL    HW123376   8.804   1.258   8.188 -0.6080  1.8942  0.1793
39180SOL    HW223377   8.681   1.172   8.168  0.0472  1.1435 -0.6816
39181SOL     OW23378   4.023   5.396   2.098  0.1009 -0.0194  0.3343
39181SOL    HW123379   4.022   5.378   2.192 -1.3872 -1.1649  0.1274
39181SOL    HW223380   4.098   5.454   2.086 -1.5009  2.7972  2.7059
39182SOL     OW23381   0.670   0.353   7.983  0.1471  0.1162 -0.0306
39182SOL    HW123382   0.748   0.407   7.994 -0.2925  0.5955  0.7646
39182SOL    HW223383   0.701   0.263   7.998  0.6236  0.2649 -0.1226
39183SOL     OW23384   6.977   5.283   1.376  0.4367  0.0590  0.4182
39183SOL    HW123385   6.907   5.218   1.382 -0.9965  1.6477  2.0942
39183SOL    HW223386   7.026   5.259   1.297 -3.0238 -0.1809 -1.8697
39184SOL     OW23387   4.639   9.146   4.886  0.0366 -0.1187 -0.1544
39184SOL    HW123388   4.661   9.219   4.827  0.6757  0.4262  0.7363
39184SOL    HW223389   4.694   9.073   4.855 -0.7918 -0.3245 -1.2131
39185SOL     OW23390   7.139  10.561   0.440  0.1775  0.3964  0.3462
39185SOL    HW123391   7.089  10.504   0.498  0.0975 -0.8463 -0.8984
39185SOL    HW223392   7.120  10.650   0.472 -0.3980 -0.2042  1.7627
39186SOL     OW23393   3.599   7.172   6.596 -0.0996 -0.5732 -0.0069
39186SOL    HW123394   3.540   7.154   6.523 -0.1680 -2.4900  0.4822
39186SOL    HW223395   3.611   7.088   6.640  0.8182  0.3131  1.5543
39187SOL     OW23396   0.216   2.066   3.220  0.0704  0.8177  0.2566
39187SOL    HW123397   0.262   2.020   3.290 -0.0976 -0.1272 -0.2307
39187SOL    HW223398   0.259   2.151   3.215  0.1057  0.8921  1.4746
39188SOL     OW23399   9.291   6.282   6.678 -0.3771 -0.6332  0.3049
39188SOL    HW123400   9.310   6.370   6.712  0.1708 -0.9120  0.7272
39188SOL    HW223401   9.372   6.256   6.634  0.4855 -2.0420  2.5644
39189SOL     OW23402   9.070   5.776   3.166 -0.0209 -0.3989  0.0292
39189SOL    HW123403   9.025   5.836   3.107 -0.9587 -1.9675 -0.8996
39189SOL    HW223404   9.129   5.833   3.217 -1.7506  1.4670  0.0795
39190SOL     OW23405   4.937   0.812   9.761 -0.0700  0.7678 -0.2880
39190SOL    HW123406   4.846   0.820   9.733 -1.0168  0.3721  2.3950
39190SOL    HW223407   4.985   0.873   9.705 -2.2646  2.3916 -0.5243
39191SOL     OW23408  10.546  10.526   0.091  0.2173 -0.5574  0.4094
39191SOL    HW123409  10.522  10.448   0.041  1.9077 -0.6381 -0.3456
39191SOL    HW223410  10.615  10.496   0.150 -2.2330 -0.6645  3.5454
39192SOL     OW23411   2.481  10.411   5.319 -0.5225  0.0119  0.2812
39192SOL    HW123412   2.418  10.412   5.246 -0.1139 -1.6007 -0.1409
39192SOL    HW223413   2.438  10.359   5.387 -0.3676  0.4267  0.7012
39193SOL     OW23414   6.258   4.027   5.150  0.1225  0.1878 -0.1215
39193SOL    HW123415   6.230   3.936   5.138  1.1545 -0.1536 -0.0855
39193SOL    HW223416   6.179   4.079   5.134 -0.2844 -0.6663 -1.0194
39194SOL     OW23417   4.163   3.521   5.238  0.2818 -0.3489  0.3459
39194SOL    HW123418   4.104   3.523   5.162  1.5167 -0.9663 -0.6737
39194SOL    HW223419   4.156   3.608   5.276 -0.5212 -0.0927 -0.3567
39195SOL     OW23420   3.572   8.496   7.159  0.1220 -0.0921  0.0031
39195SOL    HW123421   3.495   8.452   7.122 -0.8946 -0.1128  2.0153
39195SOL    HW223422   3.641   8.480   7.095 -1.5946  0.2078 -2.0583
39196SOL     OW23423  10.324   0.515   9.236 -0.4294 -0.8329  0.9617
39196SOL    HW123424  10.343   0.519   9.330 -0.4548 -1.0943  0.9774
39196SOL    HW223425  10.400   0.471   9.198 -0.6193 -1.1179  0.9144
39197SOL     OW23426   4.284   3.530   3.911  0.1015 -0.2436 -0.2144
39197SOL    HW123427   4.332   3.503   3.990 -2.4297 -1.6755  0.9436
39197SOL    HW223428   4.221   3.595   3.942 -0.5193 -0.3754 -1.1610
39198SOL     OW23429   0.822   6.412   9.658  0.2070 -0.4026 -0.1221
39198SOL    HW123430   0.842   6.496   9.617 -0.5109 -0.2484 -0.1651
39198SOL    HW223431   0.886   6.404   9.729  0.6892 -0.1215 -0.5174
39199SOL     OW23432   2.820   1.378   6.522  0.6625  0.6160  0.3019
39199SOL    HW123433   2.767   1.456   6.507 -0.4967 -0.1412  0.3310
39199SOL    HW223434   2.867   1.395   6.603  0.1688  1.1561  0.4736
39200SOL     OW23435   8.569   4.804   8.270 -0.7126  0.2399 -0.1220
39200SOL    HW123436   8.519   4.756   8.336  1.4942  0.4951  1.8666
39200SOL    HW223437   8.615   4.736   8.221 -1.4774  0.1150 -0.6959
39201SOL     OW23438   5.455   2.819   2.422 -0.6619  0.1415 -0.0697
39201SOL    HW123439   5.410   2.889   2.376 -0.1551  0.5480  0.0344
39201SOL    HW223440   5.496   2.767   2.353 -0.1513  0.5762 -0.0993
39202SOL     OW23441   7.905  10.058  10.461  0.3117 -0.4112  0.0114
39202SOL    HW123442   7.858  10.025  10.384  0.4710  0.5127 -0.4961
39202SOL    HW223443   7.976  10.111  10.425  0.4900 -0.1019  0.7949
39203SOL     OW23444   8.323  10.809   6.139 -0.3029 -0.1183  0.0797
39203SOL    HW123445   8.247  10.816   6.082  0.7203  1.1763 -1.2107
39203SOL    HW223446   8.292  10.759   6.215 -2.6990  1.1996  0.0722
39204SOL     OW23447   6.924   2.662   1.542 -0.1317  0.1785  0.3347
39204SOL    HW123448   6.995   2.727   1.541 -1.4236  1.6904  1.3996
39204SOL    HW223449   6.893   2.663   1.633 -0.2422 -1.9185  0.3595
39205SOL     OW23450   2.983   5.937   8.464  0.2408 -0.2660  0.1165
39205SOL    HW123451   2.959   6.025   8.493  1.4822  0.1219  0.0463
39205SOL    HW223452   2.906   5.884   8.482 -0.6981  0.9181 -0.2358
39206SOL     OW23453   4.446   6.549   4.604  0.3986 -0.4908  0.1129
39206SOL    HW123454   4.353   6.526   4.608  0.0482  0.7622 -0.4735
39206SOL    HW223455   4.470   6.536   4.513  0.0720  1.7353 -0.3587
39207SOL     OW23456   3.093   4.644  10.144  0.7150 -0.4647  0.0171
39207SOL    HW123457   3.126   4.573  10.088  2.8397  0.1873  0.3589
39207SOL    HW223458   3.022   4.683  10.094  0.4211 -1.9377 -0.7799
39208SOL     OW23459   5.663   3.017   1.502  0.2508  0.0150 -0.5276
39208SOL    HW123460   5.658   3.073   1.579 -0.3806 -0.7859  0.0257
39208SOL    HW223461   5.657   2.928   1.536  1.4908 -0.4164 -1.3698
39209SOL     OW23462   8.918  10.200   3.607  0.5221  0.8545  0.3538
39209SOL    HW123463   8.995  10.153   3.576  0.5986  0.3247  1.3040
39209SOL    HW223464   8.900  10.265   3.538  1.5312  0.6853 -0.0901
39210SOL     OW23465   4.385   1.527   9.588  0.1966  0.1813 -0.1743
39210SOL    HW123466   4.316   1.590   9.603 -1.0276 -1.3642  1.0619
39210SOL    HW223467   4.434   1.524   9.670  0.3179 -0.3734 -0.2576
39211SOL     OW23468   2.038   5.691   9.330  0.0886  0.3038 -0.1123
39211SOL    HW123469   2.001   5.754   9.268  0.2690 -2.2050 -3.0228
39211SOL    HW223470   1.964   5.635   9.354  0.8697 -1.6414 -1.9620
39212SOL     OW23471   4.021   2.936   4.805 -0.2990  0.0460 -0.0165
39212SOL    HW123472   4.075   2.967   4.732 -0.3373  0.9529  0.3243
39212SOL    HW223473   4.030   2.841   4.803  0.4440  0.1198 -0.6328
39213SOL     OW23474   2.603  10.508   1.182  0.2547 -0.4314 -0.1207
39213SOL    HW123475   2.525  10.468   1.218 -0.0881 -0.2107 -0.5998
39213SOL    HW223476   2.572  10.590   1.144  0.8265 -0.0409  0.2383
39214SOL     OW23477   1.750   3.616   0.915 -0.3259  0.9100  0.3093
39214SOL    HW123478   1.750   3.632   0.821 -2.3259 -0.6689 -0.0397
39214SOL    HW223479   1.842   3.608   0.939  0.1928 -0.2941 -1.8293
39215SOL     OW23480   7.309  10.747   4.455 -1.1131  0.4859  0.1299
39215SOL    HW123481   7.262  10.678   4.502 -0.1205 -1.4926 -1.5807
39215SOL    HW223482   7.240  10.801   4.417 -1.9399  0.0344  0.9302
39216SOL     OW23483   7.698  10.760   3.708 -0.3247  0.2901  0.0153
39216SOL    HW123484   7.786  10.762   3.745 -0.1104 -0.6226 -0.4183
39216SOL    HW223485   7.640  10.757   3.784 -0.0230  1.7602  0.3152
39217SOL     OW23486   4.390   2.489   5.968 -0.2335 -0.0754  0.1113
39217SOL    HW123487   4.358   2.553   5.904 -1.1661 -1.6441 -1.0621
39217SOL    HW223488   4.484   2.482   5.951 -0.0640  1.1026  0.4180
39218SOL     OW23489   8.093   5.482   7.305 -0.3576  0.5238 -0.2575
39218SOL    HW123490   8.174   5.532   7.297 -1.1308  1.7142 -1.0401
39218SOL    HW223491   8.088   5.430   7.225  0.7689 -1.3939  0.8408
39219SOL     OW23492   3.042   3.107   9.990  0.3881  0.0045  0.7121
39219SOL    HW123493   2.983   3.176  10.021  1.2171  1.8246 -1.4721
39219SOL    HW223494   3.026   3.103   9.896 -0.3181 -3.5534  0.8493
39220SOL     OW23495   0.727   3.290   0.196  0.2654 -0.3801  0.0653
39220SOL    HW123496   0.809   3.332   0.221 -1.6279  4.6274 -0.8191
39220SOL    HW223497   0.739   3.265   0.104  0.7689  0.7108 -0.1851
39221SOL     OW23498   2.544   0.804   4.873  0.5142  0.1552 -0.6388
39221SOL    HW123499   2.629   0.848   4.871  0.8451 -0.4834 -0.8589
39221SOL    HW223500   2.537   0.762   4.787 -0.4052  0.9005 -0.9506
39222SOL     OW23501   1.727   7.005   1.033  0.1262  0.0702 -0.2275
39222SOL    HW123502   1.778   7.081   1.061  0.7318 -0.5243  0.3333
39222SOL    HW223503   1.766   6.931   1.081 -0.7905 -0.5117 -0.3524
39223SOL     OW23504   3.558   4.683   4.292 -0.1560  0.2382 -0.2779
39223SOL    HW123505   3.601   4.767   4.304 -1.7631  1.1538 -0.6084
39223SOL    HW223506   3.619   4.619   4.329 -0.2775  1.8441  3.0920
39224SOL     OW23507   9.984   5.166   7.938  0.4495 -0.1730 -0.6516
39224SOL    HW123508   9.913   5.226   7.962 -0.0459 -1.1591  0.4868
39224SOL    HW223509   9.973   5.091   7.997  1.6295 -0.9566 -1.3730
39225SOL     OW23510   0.510   6.095   7.730  0.2236  0.0227  1.3631
39225SOL    HW123511   0.482   6.179   7.765  0.7292  0.5838  0.4429
39225SOL    HW223512   0.431   6.059   7.689  0.7817  1.7198 -1.4608
39226SOL     OW23513   2.431   2.244   9.746 -0.7904 -0.0471 -0.1464
39226SOL    HW123514   2.373   2.251   9.670 -0.9351  0.3278 -0.0035
39226SOL    HW223515   2.407   2.161   9.787 -1.0345 -0.0261 -0.2475
39227SOL     OW23516   7.758   2.732  10.778 -0.7330 -0.7417  0.0920
39227SOL    HW123517   7.714   2.647  10.789 -0.0810 -1.0309  0.4814
39227SOL    HW223518   7.711   2.773  10.706 -2.8465 -0.2756  1.6325
39228SOL     OW23519   5.251   6.375   7.674  0.5072  0.0257  0.4556
39228SOL    HW123520   5.216   6.463   7.690  1.9886  0.4519  1.5717
39228SOL    HW223521   5.211   6.348   7.591 -0.6054  1.4106  0.5067
39229SOL     OW23522   3.229   3.469   9.723  0.4408  0.3506  0.2091
39229SOL    HW123523   3.206   3.378   9.704  0.6804  0.5295 -0.9725
39229SOL    HW223524   3.320   3.478   9.696  0.4992  0.8770  0.5579
39230SOL     OW23525   5.264   2.158   7.410  0.0597  0.5911 -0.0267
39230SOL    HW123526   5.295   2.246   7.432  1.5218  0.1362 -0.1616
39230SOL    HW223527   5.205   2.135   7.482 -0.0716  1.5441  0.1888
39231SOL     OW23528  10.464   5.740   6.997  0.0280  0.5158 -0.0538
39231SOL    HW123529  10.475   5.710   6.906 -0.1613 -0.2762  0.1719
39231SOL    HW223530  10.544   5.789   7.015  1.5909 -1.9584  0.3366
39232SOL     OW23531   5.167   1.089   2.967  0.5497 -0.8051 -0.4360
39232SOL    HW123532   5.204   1.001   2.961 -0.3982 -1.1283 -2.2048
39232SOL    HW223533   5.227   1.143   2.917  1.2542 -0.3733  0.8392
39233SOL     OW23534   2.192   8.635   5.008 -0.2458 -0.1045 -0.3080
39233SOL    HW123535   2.232   8.715   5.042 -1.4908 -0.8057  3.1867
39233SOL    HW223536   2.239   8.564   5.051 -0.6910 -1.2259 -1.5718
39234SOL     OW23537   2.268   3.693   1.119 -0.3280  0.0104 -0.2331
39234SOL    HW123538   2.317   3.612   1.134 -1.3349 -0.4135  1.0274
39234SOL    HW223539   2.332   3.754   1.083  1.2830 -0.3645  1.7826
39235SOL     OW23540   1.702   0.604   5.883 -0.1805 -0.7846  0.0485
39235SOL    HW123541   1.686   0.673   5.819 -2.2006 -0.6566  0.6226
39235SOL    HW223542   1.792   0.617   5.910  0.5738 -0.5033 -2.3288
39236SOL     OW23543   4.948   4.942   8.321 -0.2716  0.0849  0.0309
39236SOL    HW123544   5.037   4.940   8.287 -0.6839 -0.3235 -1.0403
39236SOL    HW223545   4.918   5.032   8.305 -0.8115 -0.3566 -1.6610
39237SOL     OW23546   2.181   0.752   6.184  0.1205 -0.5048 -0.3108
39237SOL    HW123547   2.202   0.774   6.093 -0.6646  0.5397 -0.2491
39237SOL    HW223548   2.111   0.687   6.178 -0.1306 -0.2227 -0.4565
39238SOL     OW23549   9.059   0.795  10.409  0.2838  0.1702 -0.0238
39238SOL    HW123550   9.090   0.821  10.322  0.8663 -0.2143  0.0652
39238SOL    HW223551   8.985   0.853  10.426  0.5476  0.6611 -0.5206
39239SOL     OW23552   0.917   9.906   6.701 -0.1074 -0.5949 -0.0868
39239SOL    HW123553   0.924   9.955   6.783 -2.1254 -2.1708  1.1190
39239SOL    HW223554   0.998   9.856   6.695 -0.4729 -1.4642  1.6697
39240SOL     OW23555   0.329   7.178   7.802  0.3211 -0.0669 -0.2145
39240SOL    HW123556   0.282   7.197   7.884  0.6940 -2.1612  0.5507
39240SOL    HW223557   0.421   7.178   7.827  0.5315  0.7310 -0.9741
39241SOL     OW23558   2.109   5.514   5.238  0.2360  0.2001 -0.8726
39241SOL    HW123559   2.078   5.597   5.274  0.4724 -0.2641  0.4730
39241SOL    HW223560   2.204   5.518   5.245  0.2266 -0.4029 -0.2522
39242SOL     OW23561   3.171   1.313   4.292  0.0115 -0.0180 -0.1498
39242SOL    HW123562   3.115   1.372   4.241  1.0944  0.2816 -1.0122
39242SOL    HW223563   3.120   1.232   4.297 -0.7529  0.4302 -0.4206
39243SOL     OW23564   1.001   5.980   2.348 -0.4966 -0.6446 -0.2875
39243SOL    HW123565   0.997   5.946   2.259 -0.5110 -2.7319  0.4586
39243SOL    HW223566   0.932   6.047   2.352 -0.9068 -0.9656 -1.6428
39244SOL     OW23567   6.476   1.251   8.970  0.1144 -0.1755  0.2810
39244SOL    HW123568   6.516   1.259   8.883  1.3407  0.0796  0.8473
39244SOL    HW223569   6.453   1.158   8.977 -0.3723 -0.1212 -0.4700
39245SOL     OW23570   0.154   8.152   2.856 -0.3178 -0.1280 -0.3037
39245SOL    HW123571   0.096   8.092   2.808 -1.7888  0.0279  1.1525
39245SOL    HW223572   0.239   8.142   2.815 -0.3034 -3.7757  0.2850
39246SOL     OW23573   3.317   1.509   8.354  0.3109 -0.0652  0.5082
39246SOL    HW123574   3.261   1.527   8.430  0.2220  2.0259  0.0094
39246SOL    HW223575   3.257   1.471   8.289  0.2305 -1.1490  1.2032
39247SOL     OW23576   7.337   7.984   2.334  0.5489  0.4324 -0.1485
39247SOL    HW123577   7.245   8.008   2.344  0.2900 -0.7544  0.4567
39247SOL    HW223578   7.337   7.911   2.272  1.0623  0.3138 -0.0137
39248SOL     OW23579   1.727   4.340   9.432 -0.1868 -0.0428 -0.2842
39248SOL    HW123580   1.700   4.418   9.480 -0.1129 -0.1903  0.0014
39248SOL    HW223581   1.800   4.305   9.483 -0.1178 -0.2117 -0.4967
39249SOL     OW23582   1.361   8.594   7.222  0.1979 -0.0065  0.0345
39249SOL    HW123583   1.434   8.579   7.282 -0.3164 -1.9024  0.2502
39249SOL    HW223584   1.403   8.613   7.138  0.9317  0.1543  0.4282
39250SOL     OW23585   9.603   2.732   1.095 -0.0924 -0.1589  0.2717
39250SOL    HW123586   9.623   2.727   1.188 -0.1386  2.3219  0.4792
39250SOL    HW223587   9.687   2.752   1.053 -0.0557 -1.3361 -0.2526
39251SOL     OW23588   0.363   6.621   1.154 -0.1870  0.8856  0.0930
39251SOL    HW123589   0.428   6.680   1.116 -0.0382  0.5519 -0.1713
39251SOL    HW223590   0.404   6.588   1.234 -0.8358  2.2639  1.0493
39252SOL     OW23591   4.454   4.323   4.481 -0.3467 -0.2249  0.8475
39252SOL    HW123592   4.492   4.389   4.422  0.1523 -2.5615 -1.6016
39252SOL    HW223593   4.520   4.312   4.549  0.4453  0.4137  0.2086
39253SOL     OW23594   0.475   8.222   8.790  0.6779  0.1128 -0.0005
39253SOL    HW123595   0.449   8.229   8.882  1.9223 -2.9553  0.7279
39253SOL    HW223596   0.549   8.282   8.781  0.8564  0.0859  1.1547
39254SOL     OW23597   7.802  10.737   4.121 -0.6584  0.6149 -0.1731
39254SOL    HW123598   7.852  10.659   4.146 -0.6768  1.0314  1.2155
39254SOL    HW223599   7.714  10.703   4.103 -0.8675  0.4052  1.1817
39255SOL     OW23600   4.174   0.883   3.302  0.5279 -0.2942  0.6422
39255SOL    HW123601   4.245   0.863   3.240 -0.5253  0.2852 -0.8144
39255SOL    HW223602   4.107   0.817   3.283 -1.2773  1.9420 -1.3782
39256SOL     OW23603   1.828   7.782   9.748 -0.3755 -0.4085  0.1227
39256SOL    HW123604   1.803   7.784   9.841 -1.1898 -2.0336 -0.0184
39256SOL    HW223605   1.764   7.723   9.708 -0.5266  0.8862 -1.6446
39257SOL     OW23606   6.224   6.823   8.892 -0.0519 -0.8955 -0.5382
39257SOL    HW123607   6.146   6.850   8.845  1.0890  0.5665 -1.7166
39257SOL    HW223608   6.288   6.804   8.824  1.2597  0.0318  0.3692
39258SOL     OW23609   7.478   6.372   0.454  0.2177  0.2517  0.2461
39258SOL    HW123610   7.395   6.354   0.410  0.8104  1.5493 -1.5278
39258SOL    HW223611   7.504   6.289   0.493 -1.5815 -0.3293  0.2874
39259SOL     OW23612   9.049   8.202   6.351 -0.2891  0.4711 -0.0162
39259SOL    HW123613   8.974   8.233   6.300  0.0062  1.1022 -0.0664
39259SOL    HW223614   9.025   8.223   6.442 -1.9639 -2.8792  0.4873
39260SOL     OW23615   3.291   0.036   5.908  0.0479 -0.0131 -0.2279
39260SOL    HW123616   3.338  -0.037   5.949 -0.0249  0.0395 -0.0526
39260SOL    HW223617   3.202   0.004   5.897  0.4523 -0.6623 -1.9120
39261SOL     OW23618   9.735   6.688   3.008 -0.0046  0.3772 -0.1663
39261SOL    HW123619   9.656   6.663   3.055 -0.2980 -2.0061 -1.7178
39261SOL    HW223620   9.714   6.772   2.968 -0.1493  1.9024  2.8165
39262SOL     OW23621  10.698   8.741   3.627 -0.2138  0.4762  0.5506
39262SOL    HW123622  10.669   8.798   3.699 -1.8870  0.3653  0.0034
39262SOL    HW223623  10.665   8.784   3.549  1.1590  0.3236 -0.1520
39263SOL     OW23624   1.318   7.215   0.544 -0.2832 -0.4769  0.2449
39263SOL    HW123625   1.334   7.137   0.596 -0.1129  0.2327  1.2764
39263SOL    HW223626   1.283   7.279   0.606  2.8534  1.4366  0.2071
39264SOL     OW23627   1.353   9.781   4.019 -0.1589 -0.0627 -0.0640
39264SOL    HW123628   1.271   9.772   3.970  0.8842  0.3080 -1.9673
39264SOL    HW223629   1.347   9.868   4.059 -0.2578  0.3998 -1.0633
39265SOL     OW23630   3.713   9.513   6.763  1.2288 -0.0173  0.2163
39265SOL    HW123631   3.656   9.466   6.824  0.1638 -0.7068 -1.2629
39265SOL    HW223632   3.790   9.457   6.754  1.5226  0.2247  1.1166
39266SOL     OW23633   4.542   1.937   3.742  0.2718  0.4832 -0.1558
39266SOL    HW123634   4.595   1.997   3.689  0.7350  0.1495 -0.0709
39266SOL    HW223635   4.483   1.994   3.790 -0.1161  0.8046 -0.9833
39267SOL     OW23636   9.142   6.162   5.880 -0.1013 -0.5955 -0.2549
39267SOL    HW123637   9.106   6.213   5.808  1.4652 -0.2206 -0.8041
39267SOL    HW223638   9.070   6.104   5.907 -1.9144  1.7300  0.2856
39268SOL     OW23639   2.415   2.962   3.070  0.1954  0.5065 -0.4240
39268SOL    HW123640   2.428   2.894   3.137 -0.6124 -1.6309 -2.3128
39268SOL    HW223641   2.324   2.991   3.083 -0.2026 -0.4374 -1.0260
39269SOL     OW23642   0.880   0.808   6.989 -0.3768  0.0171 -0.2951
39269SOL    HW123643   0.921   0.889   6.958  1.2606 -0.2190  1.1267
39269SOL    HW223644   0.848   0.829   7.077  3.0389 -1.6754  1.5364
39270SOL     OW23645   0.447   4.619   7.659 -0.6890  0.6308  0.0672
39270SOL    HW123646   0.467   4.528   7.635 -0.8734  0.0854  1.8089
39270SOL    HW223647   0.530   4.665   7.648 -0.3139  0.0009  0.1881
39271SOL     OW23648   6.008   6.863   6.249 -0.2041 -0.0526 -0.0059
39271SOL    HW123649   6.030   6.805   6.322 -0.9965 -0.8640 -0.3888
39271SOL    HW223650   6.017   6.808   6.172 -0.5114  0.4727 -0.4234
39272SOL     OW23651   4.664   8.062   6.794  0.4051  0.4139  0.6188
39272SOL    HW123652   4.735   8.000   6.778  0.9173  0.4131  2.6222
39272SOL    HW223653   4.666   8.077   6.888 -3.1171 -0.6291  1.0013
39273SOL     OW23654   5.250   3.188   0.868 -0.4059 -0.4644 -0.4103
39273SOL    HW123655   5.317   3.152   0.927 -1.5023 -0.7242  0.7495
39273SOL    HW223656   5.176   3.206   0.926 -1.2552  0.0227 -1.6166
39274SOL     OW23657   4.511  10.758   6.934 -0.1767  0.0423 -0.2990
39274SOL    HW123658   4.553  10.844   6.937 -0.6555  0.2847  2.1910
39274SOL    HW223659   4.579  10.698   6.903  1.2383  0.8275  1.1316
39275SOL     OW23660   7.165   0.637   4.809 -0.1741 -0.1857 -0.2525
39275SOL    HW123661   7.122   0.703   4.754  0.0543  1.5625  1.5767
39275SOL    HW223662   7.111   0.559   4.798 -0.5155  0.2889 -2.3978
39276SOL     OW23663   0.563   1.707   8.347  0.1533 -0.0718  0.0136
39276SOL    HW123664   0.567   1.629   8.293 -0.9696 -0.8528  1.0238
39276SOL    HW223665   0.612   1.684   8.426 -0.2174  0.2228  0.3344
39277SOL     OW23666   7.159   8.580   8.633  0.5251  0.7989  0.2400
39277SOL    HW123667   7.076   8.559   8.676  0.5087  2.1010  0.8904
39277SOL    HW223668   7.223   8.521   8.674 -0.2107 -0.9736 -1.0086
39278SOL     OW23669   5.775   6.694   4.512  0.2570 -0.8875  0.1156
39278SOL    HW123670   5.855   6.657   4.549  1.1807 -0.1690 -1.0670
39278SOL    HW223671   5.748   6.631   4.445  0.6121 -0.5021 -0.4046
39279SOL     OW23672   8.257   7.909   1.416  0.2919  0.5433  0.1090
39279SOL    HW123673   8.258   7.955   1.500  0.5550 -1.4397  1.2580
39279SOL    HW223674   8.346   7.873   1.408 -0.1247 -0.4080 -0.3570
39280SOL     OW23675  10.503   1.483   4.291  0.8468  0.0684  0.1651
39280SOL    HW123676  10.561   1.409   4.312  1.8615 -0.6015 -4.1747
39280SOL    HW223677  10.425   1.466   4.344  1.1617 -3.9762 -0.3012
39281SOL     OW23678   6.433   1.959   5.151  0.1758  0.3339 -0.0810
39281SOL    HW123679   6.514   1.908   5.158 -0.0709  0.0912  1.4281
39281SOL    HW223680   6.386   1.940   5.232 -1.6737  0.0306 -1.1814
39282SOL     OW23681  10.307   4.244   6.310  0.2324 -0.4949 -0.2921
39282SOL    HW123682  10.327   4.319   6.254 -1.0395  0.8009  0.9059
39282SOL    HW223683  10.351   4.262   6.392 -0.5942 -0.7288  0.2185
39283SOL     OW23684   6.757   3.272   7.038 -0.3726 -0.2158 -0.1107
39283SOL    HW123685   6.802   3.289   6.955  1.3352 -1.1121  0.5918
39283SOL    HW223686   6.670   3.241   7.011 -0.2115  0.4716 -1.5327
39284SOL     OW23687   5.014   2.208   1.866 -0.1260  0.4119  0.6943
39284SOL    HW123688   4.950   2.141   1.842  0.1425  0.7027 -0.9355
39284SOL    HW223689   4.961   2.278   1.906 -0.6771  0.1727  0.4018
39285SOL     OW23690  10.669   2.360   4.032  0.1807 -0.3614 -0.2677
39285SOL    HW123691  10.595   2.345   3.973 -0.4172 -0.9738  0.6108
39285SOL    HW223692  10.645   2.315   4.113  2.2166 -1.9855 -0.4844
39286SOL     OW23693   0.713   8.310   7.190  0.0763  0.1055 -0.3574
39286SOL    HW123694   0.731   8.315   7.097  0.8383 -0.6136 -0.2578
39286SOL    HW223695   0.759   8.385   7.228  1.3930 -0.6708 -0.3409
39287SOL     OW23696   4.371  10.443   8.225 -0.1129 -0.0094  0.3320
39287SOL    HW123697   4.351  10.473   8.314  0.3544 -1.6900  1.0437
39287SOL    HW223698   4.292  10.394   8.199 -0.7558  1.4979 -0.7024
39288SOL     OW23699   7.613   3.168  10.660  0.4069  0.0580 -0.3309
39288SOL    HW123700   7.535   3.182  10.608  1.2518  0.5716 -1.5146
39288SOL    HW223701   7.581   3.150  10.748 -1.0470 -0.4067 -0.9356
39289SOL     OW23702   0.590   6.140  10.067 -0.4063 -0.5431  0.1423
39289SOL    HW123703   0.574   6.112  10.157 -0.4607  1.8074  0.9393
39289SOL    HW223704   0.510   6.186  10.041 -0.3624 -1.1266 -1.1058
39290SOL     OW23705   9.661   6.565   8.973  0.4430 -0.5752 -0.3072
39290SOL    HW123706   9.652   6.507   8.898  0.3969 -1.8127  0.6238
39290SOL    HW223707   9.597   6.634   8.958 -2.1346 -2.6657  0.2402
39291SOL     OW23708  10.150   3.361   4.202  0.1396  0.0154  0.0627
39291SOL    HW123709  10.108   3.317   4.128  0.4368  0.3742 -0.3278
39291SOL    HW223710  10.242   3.333   4.198  0.0395 -0.4081  0.6362
39292SOL     OW23711   6.092   0.427   7.261  0.5183  0.2757  0.0561
39292SOL    HW123712   6.006   0.443   7.301  0.6937  1.5085 -0.0295
39292SOL    HW223713   6.133   0.361   7.318  0.5564  1.6079  1.6464
39293SOL     OW23714  10.705   4.451   0.902  0.2433  0.1489 -0.3421
39293SOL    HW123715  10.756   4.384   0.948  0.6414  1.4356  1.1941
39293SOL    HW223716  10.650   4.490   0.970 -0.3023  1.0804 -1.2875
39294SOL     OW23717   5.407   9.303   2.414  0.2632  0.2766 -0.5352
39294SOL    HW123718   5.497   9.320   2.384  0.8337  0.1735  1.0108
39294SOL    HW223719   5.399   9.208   2.412 -0.4332  0.3359 -2.2941
39295SOL     OW23720   9.307   4.220   0.687  0.0375  0.1548 -0.6831
39295SOL    HW123721   9.243   4.269   0.636  0.9648  1.3984 -0.6983
39295SOL    HW223722   9.385   4.276   0.688  1.0785 -1.2397 -0.5305
39296SOL     OW23723  10.509   7.936   2.915  0.2621  0.6321  0.3640
39296SOL    HW123724  10.499   7.906   2.824 -2.0640  1.6314  0.2244
39296SOL    HW223725  10.527   7.856   2.964  2.1486  0.1461 -1.0115
39297SOL     OW23726   1.824  10.346   5.003 -0.1960 -0.2340 -0.1803
39297SOL    HW123727   1.839  10.252   4.996  0.0290 -0.2447  0.3878
39297SOL    HW223728   1.910  10.386   4.987 -0.4825 -0.0671 -1.4052
39298SOL     OW23729   3.422   6.281   1.318  0.0798 -0.2287  0.3021
39298SOL    HW123730   3.368   6.291   1.395 -1.0460 -0.9533 -0.3672
39298SOL    HW223731   3.453   6.190   1.322 -0.4541 -0.4497 -0.3745
39299SOL     OW23732  10.264   6.604   4.534  0.7368 -0.3775 -0.3128
39299SOL    HW123733  10.191   6.624   4.593  0.8900 -2.1174  0.5394
39299SOL    HW223734  10.244   6.516   4.500  0.8777  0.3900 -2.5541
39300SOL     OW23735   3.264   5.101   7.108  0.2449  0.0536 -0.2806
39300SOL    HW123736   3.189   5.155   7.132  1.2542  2.0669 -1.4260
39300SOL    HW223737   3.226   5.013   7.095 -1.3769  0.3390  1.9483
39301SOL     OW23738   5.858   9.037   6.944  0.5129 -0.2860  0.1006
39301SOL    HW123739   5.834   9.126   6.920  2.3503  0.2235  0.0050
39301SOL    HW223740   5.846   9.033   7.038 -0.4079 -0.2345 -0.0038
39302SOL     OW23741   8.295  10.464   3.723 -0.5624  0.1108  0.6268
39302SOL    HW123742   8.279  10.524   3.796  0.6860  0.1999  0.8426
39302SOL    HW223743   8.386  10.436   3.734 -0.5463 -0.3583 -0.5427
39303SOL     OW23744   5.905   6.152  10.106  0.0622 -0.1813 -0.7610
39303SOL    HW123745   5.843   6.127  10.174  1.9110 -1.4296  0.5848
39303SOL    HW223746   5.922   6.245  10.122  0.9347 -0.5872  0.9774
39304SOL     OW23747   1.634   1.134   9.380  0.5818 -0.2834 -0.7285
39304SOL    HW123748   1.692   1.209   9.395  2.6087 -1.1709 -3.2867
39304SOL    HW223749   1.547   1.172   9.373  1.0416  1.3515  1.4234
39305SOL     OW23750   5.803   6.848   6.693 -0.2285 -0.3166  0.0740
39305SOL    HW123751   5.789   6.939   6.665  1.5901 -0.1877 -0.5665
39305SOL    HW223752   5.865   6.855   6.766  0.0642 -1.0328 -0.0962
39306SOL     OW23753   1.475  10.100   2.864 -0.2777  0.6729  0.0205
39306SOL    HW123754   1.527  10.144   2.932 -0.4452  0.3590  0.3603
39306SOL    HW223755   1.397  10.068   2.911 -0.1464 -0.0013 -0.2032
39307SOL     OW23756   1.057   8.672  10.306  0.2786  0.2715 -0.4760
39307SOL    HW123757   1.028   8.721  10.229 -0.4984  0.6137  0.0202
39307SOL    HW223758   1.152   8.662  10.294  0.0750 -0.2608 -1.7966
39308SOL     OW23759   1.533   0.336   8.651  0.2676  0.4184  0.0421
39308SOL    HW123760   1.605   0.351   8.712  1.5571  1.1117 -1.5619
39308SOL    HW223761   1.485   0.262   8.688  1.8014 -0.0744  1.1711
39309SOL     OW23762   2.136   7.739   1.831  0.1621  0.1490  0.1241
39309SOL    HW123763   2.085   7.664   1.800 -0.3026  0.4897  0.0607
39309SOL    HW223764   2.125   7.805   1.763 -0.8405  0.8892  0.9731
39310SOL     OW23765   5.591   5.140   7.266  0.4736  0.6897  0.6183
39310SOL    HW123766   5.592   5.093   7.350  0.6038 -0.0763  0.2012
39310SOL    HW223767   5.668   5.196   7.270  0.4760  0.6655  1.0171
39311SOL     OW23768   5.519   1.848   4.564  0.1292  0.6322 -0.1664
39311SOL    HW123769   5.521   1.753   4.579  4.0784  0.6754  0.5998
39311SOL    HW223770   5.474   1.884   4.640  1.1981 -0.5045  1.0532
39312SOL     OW23771   0.251  10.734   7.925 -0.2569 -0.2649 -0.5464
39312SOL    HW123772   0.246  10.695   7.839 -0.4482  0.0948 -0.7017
39312SOL    HW223773   0.197  10.813   7.919 -0.6776 -0.4975  0.0420
39313SOL     OW23774   5.466   0.574   3.487 -0.3553 -0.5742 -0.2624
39313SOL    HW123775   5.414   0.507   3.443 -1.1284 -1.7556  2.2642
39313SOL    HW223776   5.532   0.599   3.422 -2.1182 -1.2962 -2.4672
39314SOL     OW23777   3.831   5.814   4.175 -0.5628  0.7126 -0.1802
39314SOL    HW123778   3.828   5.905   4.147 -0.5466  0.5161 -0.8337
39314SOL    HW223779   3.786   5.814   4.260 -1.3485  1.1833 -0.5844
39315SOL     OW23780   4.711   2.052   3.544 -0.4794  0.1399 -0.2493
39315SOL    HW123781   4.634   2.056   3.487 -0.9607 -2.1816  0.1303
39315SOL    HW223782   4.765   1.983   3.506  0.1846 -0.0102  0.9287
39316SOL     OW23783   6.119   1.626   0.485  0.1378  0.3432 -0.2335
39316SOL    HW123784   6.214   1.632   0.485  0.0932  1.2826  0.0827
39316SOL    HW223785   6.098   1.554   0.545  0.6891 -1.1159 -1.7221
39317SOL     OW23786   9.995  10.445   9.455 -0.0135 -0.4196  0.4802
39317SOL    HW123787   9.939  10.478   9.525  0.9283  2.4592 -0.0007
39317SOL    HW223788   9.939  10.446   9.377 -0.4261 -1.5052  0.7482
39318SOL     OW23789   7.699  10.801   4.997 -0.0561 -0.0673 -0.2066
39318SOL    HW123790   7.668  10.717   5.031 -0.5753  0.2434  0.1076
39318SOL    HW223791   7.698  10.859   5.073 -0.1761  0.3512 -0.5225
39319SOL     OW23792  10.072   1.922  10.816  0.2945 -0.3832  0.4503
39319SOL    HW123793  10.070   1.989  10.748  1.5830 -0.5136  0.2737
39319SOL    HW223794  10.138   1.859  10.788  0.1855 -0.9389  1.3617
39320SOL     OW23795  10.712   9.493   7.601 -0.0476  0.2440 -0.1672
39320SOL    HW123796  10.661   9.452   7.531 -0.4673 -0.4196  0.5151
39320SOL    HW223797  10.791   9.440   7.607  0.5491  1.0171 -0.9341
39321SOL     OW23798   8.591   3.791   4.404  0.4680  0.0445 -0.0594
39321SOL    HW123799   8.601   3.813   4.311  0.9109  0.9327  0.1834
39321SOL    HW223800   8.681   3.774   4.433  0.8386  3.1430  0.9783
39322SOL     OW23801   6.657   6.298   7.552  0.2115  0.7022  0.2840
39322SOL    HW123802   6.639   6.262   7.639 -1.7056 -0.9345 -0.7004
39322SOL    HW223803   6.702   6.228   7.506 -1.7531  0.2276 -1.0350
39323SOL     OW23804   3.423   8.081   1.487 -0.4941  0.5699 -0.0242
39323SOL    HW123805   3.514   8.089   1.461 -0.2736  0.7950  0.7945
39323SOL    HW223806   3.425   8.020   1.561 -1.0541  0.2574 -0.2630
39324SOL     OW23807   2.121   7.753   8.011 -0.0924 -0.5282  0.7184
39324SOL    HW123808   2.033   7.786   8.029 -0.3567  0.1048 -1.4495
39324SOL    HW223809   2.153   7.807   7.940  1.5352 -1.6280  0.5603
39325SOL     OW23810   9.633   8.503   8.092  0.1902  0.0986  0.3070
39325SOL    HW123811   9.685   8.565   8.143  0.4625  0.7412 -0.7302
39325SOL    HW223812   9.669   8.508   8.004  0.5083 -1.8646  0.2697
39326SOL     OW23813  10.757   4.233   4.234 -0.0078  0.6631 -0.3145
39326SOL    HW123814  10.796   4.319   4.247  1.7482 -0.1015 -0.2178
39326SOL    HW223815  10.812   4.192   4.167 -1.4967  0.0160 -1.1985
39327SOL     OW23816   4.098   6.826   8.690 -0.7952  0.0065 -0.0803
39327SOL    HW123817   4.139   6.787   8.613 -1.6025 -0.0035 -0.5213
39327SOL    HW223818   4.171   6.855   8.745 -0.2135  0.5224 -1.1124
39328SOL     OW23819   0.049   0.124   7.790 -0.1331 -0.1567  0.5040
39328SOL    HW123820  -0.031   0.072   7.796 -0.7149  0.8221  1.3988
39328SOL    HW223821   0.120   0.059   7.790 -0.8899 -0.9906  0.5797
39329SOL     OW23822   3.208   5.239   4.567 -0.2621 -0.0239 -0.2508
39329SOL    HW123823   3.212   5.230   4.472  2.4317 -0.7713 -0.1623
39329SOL    HW223824   3.214   5.150   4.600  1.1367  0.3429  0.5906
39330SOL     OW23825   6.885   3.881   0.844  0.3946 -0.1514  0.1763
39330SOL    HW123826   6.891   3.970   0.808 -1.8129  0.1186  0.3446
39330SOL    HW223827   6.864   3.895   0.937  0.4177 -0.8582  0.2896
39331SOL     OW23828   3.378   7.495   3.717  0.4657 -0.7019  0.4154
39331SOL    HW123829   3.360   7.532   3.803 -1.3582  0.8220 -0.5602
39331SOL    HW223830   3.299   7.445   3.696  0.8393 -0.9407 -0.4469
39332SOL     OW23831   3.200   4.440   7.920 -0.1882 -0.0985 -0.6974
39332SOL    HW123832   3.215   4.481   8.005  4.2297 -1.2428 -0.7008
39332SOL    HW223833   3.166   4.353   7.940 -0.5615  0.1446 -0.2433
39333SOL     OW23834   4.340   4.189   5.797 -0.1441 -0.0027  0.2649
39333SOL    HW123835   4.393   4.220   5.870 -1.3716 -0.8850  1.5865
39333SOL    HW223836   4.390   4.213   5.719  2.0505 -0.5372  1.4249
39334SOL     OW23837   8.237   6.784   3.092  0.0919 -0.5055 -0.0065
39334SOL    HW123838   8.173   6.831   3.038 -0.0671 -0.7993 -0.0744
39334SOL    HW223839   8.312   6.770   3.034  1.0207  1.5153  0.6039
39335SOL     OW23840   8.555   6.943   5.002 -0.4125  0.4495 -0.0956
39335SOL    HW123841   8.501   7.006   4.954  0.2291  0.5031 -0.7446
39335SOL    HW223842   8.592   6.993   5.074 -0.0307  0.7727 -0.5198
39336SOL     OW23843   4.605   9.775   5.963  0.1265 -0.0856 -0.3164
39336SOL    HW123844   4.561   9.712   5.906 -0.8563 -1.8182  2.2137
39336SOL    HW223845   4.575   9.754   6.051  4.7232 -0.3110  1.4558
39337SOL     OW23846   3.774   8.735  10.099 -0.3739 -0.0564  0.2278
39337SOL    HW123847   3.715   8.672  10.057  0.3627 -0.6739  0.0870
39337SOL    HW223848   3.826   8.682  10.159 -0.1192  0.5161  0.5172
39338SOL     OW23849   8.902   6.232   6.190  0.3431  0.1844 -0.5252
39338SOL    HW123850   8.887   6.323   6.216  1.8221  0.5958 -1.0206
39338SOL    HW223851   8.828   6.184   6.227 -1.4487  1.8388 -1.7783
39339SOL     OW23852   5.350   8.467   6.335  0.0368 -0.6083 -0.6730
39339SOL    HW123853   5.332   8.448   6.427 -1.2878 -0.5877 -0.9192
39339SOL    HW223854   5.388   8.555   6.336  0.9269 -0.9853 -0.0706
39340SOL     OW23855   8.378   4.462   4.506 -0.3772 -0.3282 -0.0583
39340SOL    HW123856   8.322   4.507   4.442 -1.9046 -1.1649  0.6255
39340SOL    HW223857   8.382   4.372   4.474 -1.2877 -0.7929  1.0587
39341SOL     OW23858   3.560   3.057   0.324 -0.4261  0.0315 -0.3809
39341SOL    HW123859   3.631   3.048   0.388 -0.7065 -1.4585 -0.2545
39341SOL    HW223860   3.595   3.017   0.244 -0.2166  1.5468 -1.0956
39342SOL     OW23861   3.062   6.543   3.913 -0.9275 -1.0367  0.1420
39342SOL    HW123862   3.041   6.546   3.820 -1.3961 -1.3276  0.2387
39342SOL    HW223863   3.157   6.554   3.916 -1.1323  1.3622 -0.2348
39343SOL     OW23864   0.711   3.583  10.527  0.6261 -0.0800  0.0397
39343SOL    HW123865   0.802   3.594  10.498  1.8186 -3.0852  2.0388
39343SOL    HW223866   0.669   3.532  10.458  0.1694  1.9566 -1.2414
39344SOL     OW23867   3.862   6.847   5.674  0.0284 -0.4933  0.3677
39344SOL    HW123868   3.812   6.767   5.686  0.1197 -0.6502 -0.2400
39344SOL    HW223869   3.950   6.827   5.707 -0.2482 -0.2760  1.2655
39345SOL     OW23870  10.674   3.879   7.567  0.3925 -0.4610 -0.8382
39345SOL    HW123871  10.759   3.835   7.569  0.0697 -1.0857 -0.5291
39345SOL    HW223872  10.610   3.808   7.571 -0.1577 -0.0499 -1.8516
39346SOL     OW23873   2.588   2.244   1.787  0.4929  0.1525 -0.1643
39346SOL    HW123874   2.609   2.302   1.713 -1.7360  0.2306 -0.8027
39346SOL    HW223875   2.500   2.271   1.814  0.3804 -1.3666  1.0758
39347SOL     OW23876   3.250   3.280   3.716 -0.0288 -0.4309  0.0569
39347SOL    HW123877   3.308   3.233   3.776  2.0804  1.6926 -0.1699
39347SOL    HW223878   3.282   3.259   3.629 -0.9376 -0.8448 -0.1918
39348SOL     OW23879   1.210   7.440   5.161 -0.4930  0.0007  0.2768
39348SOL    HW123880   1.237   7.355   5.126  1.5598  0.8864 -0.4066
39348SOL    HW223881   1.115   7.432   5.171 -0.9687 -0.9955 -3.6151
39349SOL     OW23882   9.184   3.896  10.472  0.1325  0.2891  0.2661
39349SOL    HW123883   9.232   3.901  10.390  0.1276 -1.0797  0.1618
39349SOL    HW223884   9.222   3.821  10.518 -0.6188  0.3569  1.0277
39350SOL     OW23885   2.077  10.913   8.646  0.4236 -0.0352  0.0903
39350SOL    HW123886   2.126  10.981   8.693 -1.7292  1.0373  0.8850
39350SOL    HW223887   2.116  10.913   8.558  0.5576  2.1675  0.1019
39351SOL     OW23888   2.492   4.952   6.435 -0.5006 -0.5398 -0.0807
39351SOL    HW123889   2.520   4.919   6.520  0.0859  0.3526  0.0825
39351SOL    HW223890   2.554   5.022   6.414 -0.4707 -0.9160 -1.3626
39352SOL     OW23891   7.824   9.854  10.229  0.2025  0.4760  0.4092
39352SOL    HW123892   7.800   9.824  10.316  1.3757 -0.7859  0.3286
39352SOL    HW223893   7.917   9.832  10.221 -0.0602 -0.1169 -1.4272
39353SOL     OW23894   0.279   0.546   8.020  0.3610  1.1147  0.0583
39353SOL    HW123895   0.339   0.476   7.994  1.1435  0.8980  2.2500
39353SOL    HW223896   0.331   0.627   8.010  0.4421  1.0972  0.3527
39354SOL     OW23897   8.236   9.438  10.111 -0.1121 -0.2807  0.0165
39354SOL    HW123898   8.179   9.515  10.112 -1.3808 -1.1656 -0.7275
39354SOL    HW223899   8.317   9.469  10.071 -0.7181  0.6007 -0.5740
39355SOL     OW23900   7.308  10.309  10.535 -0.2570 -0.5110 -0.6786
39355SOL    HW123901   7.292  10.372  10.465 -1.4854 -1.6587 -1.4937
39355SOL    HW223902   7.221  10.281  10.563  0.1576  0.7612  2.1784
39356SOL     OW23903  10.077   9.043   7.728 -0.4504 -0.0705  0.6731
39356SOL    HW123904  10.124   9.072   7.806  0.3838  1.4043 -0.3332
39356SOL    HW223905  10.011   9.111   7.713 -0.1735  0.0042 -0.2638
39357SOL     OW23906   5.207   1.886   8.355  0.3666  0.0380  0.1166
39357SOL    HW123907   5.264   1.865   8.429  0.4110  0.3122  0.1599
39357SOL    HW223908   5.146   1.812   8.351  3.0141 -2.2521 -2.2869
39358SOL     OW23909   8.185   6.752   2.802  0.5532 -0.1016  0.2867
39358SOL    HW123910   8.144   6.684   2.855  0.1267  0.1747  0.3143
39358SOL    HW223911   8.243   6.705   2.743 -0.2338 -0.5466 -0.1498
39359SOL     OW23912   5.502  10.275   4.104  0.7449 -0.4343 -0.1659
39359SOL    HW123913   5.509  10.370   4.097  2.0695 -0.5917 -1.2472
39359SOL    HW223914   5.426  10.261   4.162 -0.9464  1.2254 -1.8453
39360SOL     OW23915   1.585  10.245  10.702 -0.5633 -0.3537  0.2038
39360SOL    HW123916   1.632  10.171  10.665 -1.5828  0.0847 -2.1414
39360SOL    HW223917   1.653  10.304  10.732  0.3067 -1.1873 -0.0637
39361SOL     OW23918   9.974   4.398   1.787  0.2128  0.0583  0.1152
39361SOL    HW123919   9.902   4.375   1.728 -0.7400 -0.7016  1.5017
39361SOL    HW223920   9.960   4.342   1.864  2.3249 -0.1267  0.4070
39362SOL     OW23921   3.038   8.990   3.179  0.1231  0.9640  0.2371
39362SOL    HW123922   2.957   9.005   3.228 -0.0771  0.0265  0.2103
39362SOL    HW223923   3.010   8.979   3.088  0.1485 -0.3698  0.3681
39363SOL     OW23924   3.716   0.331   2.039  0.1422  0.4965 -0.3945
39363SOL    HW123925   3.626   0.336   2.071  0.3943  0.4891  0.3315
39363SOL    HW223926   3.746   0.421   2.036  0.3646  0.4395  0.1035
39364SOL     OW23927   5.406   9.443   9.610 -0.1145  0.1906  0.0190
39364SOL    HW123928   5.464   9.377   9.571 -0.8389 -1.4982  1.6435
39364SOL    HW223929   5.332   9.449   9.549  0.4792  0.3409 -0.6973
39365SOL     OW23930   8.281   1.954   6.078 -0.4194 -0.0991 -0.1284
39365SOL    HW123931   8.260   1.978   6.168  1.6236  0.9307  0.1412
39365SOL    HW223932   8.220   2.004   6.024 -0.2324  0.9918  0.6453
39366SOL     OW23933   9.084   8.233   1.455 -0.5962  0.1877 -0.0036
39366SOL    HW123934   8.989   8.236   1.457 -0.7521 -1.3751 -1.7328
39366SOL    HW223935   9.112   8.320   1.482 -2.6207  1.8352 -2.6742
39367SOL     OW23936   9.956   2.087   5.448 -0.3154 -0.3038  0.6241
39367SOL    HW123937   9.935   2.059   5.537 -0.8908  1.5788  1.1411
39367SOL    HW223938  10.052   2.086   5.444 -0.3042 -1.8521  0.7304
39368SOL     OW23939   1.000   9.598   8.858 -0.7486 -0.4302 -0.0362
39368SOL    HW123940   1.006   9.572   8.766  1.9477 -0.8076  0.1567
39368SOL    HW223941   0.915   9.641   8.865  0.0501  2.1882 -3.3958
39369SOL     OW23942   6.237   2.159   4.446  0.1465 -0.0634 -0.3468
39369SOL    HW123943   6.235   2.187   4.538  0.8386  0.7988 -0.5822
39369SOL    HW223944   6.311   2.099   4.441  0.0983 -0.1237 -0.3394
39370SOL     OW23945   6.876   5.498   7.847 -0.7198  0.6789  0.2265
39370SOL    HW123946   6.919   5.494   7.762  0.9004 -1.6346  1.0404
39370SOL    HW223947   6.946   5.524   7.908 -1.3317  0.3180  1.1115
39371SOL     OW23948  10.215   7.231   6.879 -0.4990  0.4424  0.0822
39371SOL    HW123949  10.261   7.289   6.940 -1.1807 -0.2843  1.3351
39371SOL    HW223950  10.219   7.145   6.920 -0.6138 -0.1464 -1.1242
39372SOL     OW23951   6.421   8.191   4.772 -0.1780 -0.3745 -0.2469
39372SOL    HW123952   6.337   8.145   4.768  1.0040 -2.7164  0.2615
39372SOL    HW223953   6.477   8.144   4.711  2.1474 -2.0608  2.9146
39373SOL     OW23954   0.308  10.090   3.148  0.4939 -0.4073 -0.1103
39373SOL    HW123955   0.232  10.144   3.126 -0.3701 -0.8218  1.5992
39373SOL    HW223956   0.373  10.152   3.180 -0.0936 -0.2407  0.8124
39374SOL     OW23957   4.605   1.086   6.959  0.1928  0.0558 -0.0288
39374SOL    HW123958   4.517   1.055   6.981  0.0855 -1.3044 -2.1022
39374SOL    HW223959   4.660   1.008   6.962  1.1620  0.7283  0.3716
39375SOL     OW23960   7.223   9.238   4.681  0.2089  0.3489  0.1717
39375SOL    HW123961   7.177   9.193   4.752  0.8662 -0.0687  0.3475
39375SOL    HW223962   7.300   9.184   4.665  1.2555  1.6220  0.6769
39376SOL     OW23963  10.921   7.914  10.270 -0.1289  0.4705  0.1778
39376SOL    HW123964  10.897   7.970  10.344 -0.2205  0.2917  0.2851
39376SOL    HW223965  10.891   7.827  10.295  2.8234 -0.2913  1.4239
39377SOL     OW23966   5.965   0.264   4.746 -0.6253 -0.4839  0.0127
39377SOL    HW123967   5.944   0.242   4.655 -2.0383 -0.1478  0.2244
39377SOL    HW223968   6.022   0.193   4.775 -0.2728 -0.6774 -1.0806
39378SOL     OW23969   0.836  10.886   2.653 -0.2197  0.1235  0.2023
39378SOL    HW123970   0.884  10.813   2.612  1.9176  2.0746 -1.0016
39378SOL    HW223971   0.867  10.886   2.744  0.0585 -0.2517  0.1130
39379SOL     OW23972   6.890   1.089   5.026 -0.2398 -0.3869  0.2028
39379SOL    HW123973   6.866   1.003   4.993 -0.5744 -0.1285 -0.2473
39379SOL    HW223974   6.899   1.143   4.947  0.5515 -0.1533  0.4398
39380SOL     OW23975   4.342   9.618   5.383 -0.3940 -0.2839 -0.0075
39380SOL    HW123976   4.350   9.572   5.300  1.8359 -0.0068 -0.0184
39380SOL    HW223977   4.346   9.549   5.450 -0.0791 -0.3563 -0.0983
39381SOL     OW23978   4.672   6.247   2.152  0.3753 -0.2552 -0.5373
39381SOL    HW123979   4.612   6.252   2.227  0.9882 -0.0615 -0.0407
39381SOL    HW223980   4.661   6.331   2.107  1.6478  0.6126  0.6649
39382SOL     OW23981   1.585   2.384   6.823 -0.0569  0.0555 -0.2217
39382SOL    HW123982   1.495   2.374   6.792  0.6269 -0.9081 -2.0280
39382SOL    HW223983   1.627   2.301   6.803  0.4240 -0.8742  3.7762
39383SOL     OW23984   0.828  10.135   7.540 -0.1668  0.3469 -0.1683
39383SOL    HW123985   0.786  10.195   7.479 -0.0094  0.6819  0.0499
39383SOL    HW223986   0.922  10.146   7.524 -0.0846  1.1593  0.8086
39384SOL     OW23987   2.150   0.818   5.276  0.1354 -0.1952 -0.0401
39384SOL    HW123988   2.238   0.827   5.239 -0.0875 -0.9644 -0.8269
39384SOL    HW223989   2.135   0.898   5.325  0.8060  0.4904 -0.9221
39385SOL     OW23990   1.594   7.117   7.579  0.0055 -0.0708  0.4356
39385SOL    HW123991   1.620   7.208   7.564  0.4593 -0.1088  0.9579
39385SOL    HW223992   1.530   7.099   7.510 -0.0005  0.6056  0.2541
39386SOL     OW23993   7.905  10.692   2.866 -0.3940  0.2089 -0.1959
39386SOL    HW123994   7.814  10.718   2.882 -0.6368 -0.8170  0.1604
39386SOL    HW223995   7.942  10.677   2.953  0.2759  1.1195 -0.3161
39387SOL     OW23996   4.010   3.778   3.386  0.2928 -0.0959 -0.4050
39387SOL    HW123997   4.009   3.773   3.290  0.3369 -0.3979 -0.3926
39387SOL    HW223998   4.095   3.815   3.407 -0.1210  0.9517 -0.5180
39388SOL     OW23999   6.816   5.066   4.591  0.0546 -0.1013  0.2987
39388SOL    HW124000   6.816   4.973   4.612 -0.9388 -0.4957 -1.2430
39388SOL    HW224001   6.751   5.104   4.650 -1.4129 -0.8620 -0.7730
39389SOL     OW24002   1.582   9.659   9.297 -0.2076 -0.0621 -0.0950
39389SOL    HW124003   1.626   9.717   9.235 -0.4016 -0.4182 -0.5752
39389SOL    HW224004   1.547   9.717   9.364  1.1306  0.2156  0.3946
39390SOL     OW24005   9.248   6.880   6.859  0.1553  0.2653 -0.0691
39390SOL    HW124006   9.216   6.797   6.822 -3.5524  0.0778  2.9054
39390SOL    HW224007   9.317   6.853   6.921  0.1988 -0.3989 -0.3921
39391SOL     OW24008   4.211   5.003   5.174  0.2991  0.4547  0.6499
39391SOL    HW124009   4.235   4.927   5.228  0.5683  0.3889  0.4375
39391SOL    HW224010   4.179   5.068   5.238 -0.2672  0.0369  0.7974
39392SOL     OW24011   3.697   2.237   9.440  0.0716  0.0392 -0.3852
39392SOL    HW124012   3.617   2.185   9.430  0.2235  0.0230 -1.7174
39392SOL    HW224013   3.712   2.275   9.353  0.1347  2.0743  0.4678
39393SOL     OW24014   3.554   0.089  10.804 -0.1025  0.1997  0.0979
39393SOL    HW124015   3.472   0.043  10.791  0.2730 -0.0824 -1.6140
39393SOL    HW224016   3.580   0.116  10.716  2.8055 -1.7792  0.2044
39394SOL     OW24017   7.939   4.666   3.756 -0.5080 -0.4381 -0.7686
39394SOL    HW124018   7.856   4.669   3.804 -0.9374 -0.0236 -1.5261
39394SOL    HW224019   7.946   4.575   3.726  0.1807 -0.9289  0.7714
39395SOL     OW24020   1.197   9.846   2.180  0.1788  0.1568 -0.8328
39395SOL    HW124021   1.201   9.873   2.272 -0.5927  0.7464 -0.9546
39395SOL    HW224022   1.272   9.889   2.139  0.9589 -0.7100 -0.3436
39396SOL     OW24023   0.365  10.676   9.702 -0.6300 -0.6135  0.8305
39396SOL    HW124024   0.446  10.716   9.733  0.4085 -1.5248 -0.6355
39396SOL    HW224025   0.310  10.671   9.781  0.8296 -0.2489  1.9171
39397SOL     OW24026   6.065   9.950  10.636  0.3851 -0.6156 -0.2778
39397SOL    HW124027   6.069  10.032  10.587  0.2128 -0.8026 -0.6110
39397SOL    HW224028   5.978   9.915  10.615  0.1470 -0.4977  0.4912
39398SOL     OW24029   4.977   9.952   6.105  0.2644 -0.0123 -0.1862
39398SOL    HW124030   5.022   9.930   6.187  0.9166 -0.8558 -0.7443
39398SOL    HW224031   4.932   9.871   6.081 -0.4061  0.4101 -0.3634
39399SOL     OW24032   3.364   3.927   8.283  0.0798 -0.2771 -0.3351
39399SOL    HW124033   3.307   3.922   8.360  0.1476  0.5853 -0.2125
39399SOL    HW224034   3.314   3.977   8.219  0.2524 -0.4957 -0.6438
39400SOL     OW24035   3.800   9.834   3.088 -0.7462  0.3882 -0.3851
39400SOL    HW124036   3.817   9.768   3.021 -0.1671  0.0745  0.0567
39400SOL    HW224037   3.714   9.811   3.124  1.0292 -2.6619  2.5554
39401SOL     OW24038   1.068   4.882   3.514  0.1872 -0.2269  0.1622
39401SOL    HW124039   1.019   4.845   3.587  1.3708 -0.9604  0.6198
39401SOL    HW224040   1.114   4.807   3.475  2.2063  0.6192  0.7740
39402SOL     OW24041   6.487   4.403   8.840  0.0662 -0.0553  0.4524
39402SOL    HW124042   6.421   4.471   8.855 -1.1228 -1.1153  0.2838
39402SOL    HW224043   6.436   4.327   8.813  1.2963 -1.1851  1.1821
39403SOL     OW24044  10.059  10.869   2.087  0.3300  0.2013  0.5295
39403SOL    HW124045  10.014  10.808   2.029  1.1072  0.3050 -0.1954
39403SOL    HW224046  10.142  10.826   2.108  0.4569  0.5722  0.8109
39404SOL     OW24047   3.962   6.909   8.261 -0.4481  0.2585 -0.1291
39404SOL    HW124048   3.978   6.873   8.349 -0.7585 -0.4393 -0.3554
39404SOL    HW224049   3.982   6.837   8.201 -0.7448  0.5677 -0.6079
39405SOL     OW24050   3.795   5.143   5.675  0.7956  0.2918 -0.3023
39405SOL    HW124051   3.734   5.071   5.656 -0.8522  1.0978  1.5875
39405SOL    HW224052   3.881   5.102   5.675  0.0480 -1.3774 -0.7257
39406SOL     OW24053   2.717   6.647   6.166 -0.2986 -0.3782 -0.1119
39406SOL    HW124054   2.622   6.662   6.162 -0.1997  2.3393  3.2160
39406SOL    HW224055   2.754   6.713   6.107 -0.4249  0.3801  0.6469
39407SOL     OW24056   6.101   9.759   8.283 -0.4797 -0.4588 -0.1587
39407SOL    HW124057   6.131   9.669   8.272 -3.1937 -1.5496  0.5836
39407SOL    HW224058   6.076   9.765   8.375  0.1371  1.2313 -0.0750
39408SOL     OW24059   3.293   3.470   5.679  0.0638  0.0786 -0.1072
39408SOL    HW124060   3.202   3.479   5.707 -0.1007 -0.2076 -0.5358
39408SOL    HW224061   3.337   3.547   5.714  0.1208 -0.7919  1.8839
39409SOL     OW24062   8.349   8.441   5.763 -0.5098 -0.3323 -0.0761
39409SOL    HW124063   8.295   8.434   5.685 -1.2684  0.3585  0.3679
39409SOL    HW224064   8.436   8.465   5.731 -1.0381  0.8499 -0.6583
39410SOL     OW24065   1.695  10.549  10.448 -0.1101 -0.2540  0.2532
39410SOL    HW124066   1.654  10.586  10.527  0.4401 -0.4089  0.6209
39410SOL    HW224067   1.759  10.486  10.482 -1.7368 -2.3623 -0.3636
39411SOL     OW24068   8.770   9.443  10.096  0.2089  0.6047  0.2073
39411SOL    HW124069   8.699   9.449  10.032  0.9645 -1.0428 -0.8566
39411SOL    HW224070   8.733   9.394  10.169 -0.0126  0.5566  0.0630
39412SOL     OW24071   5.166   5.917   4.010 -0.4091 -0.7023  0.0984
39412SOL    HW124072   5.176   5.847   4.075  0.3814  1.0401  1.9812
39412SOL    HW224073   5.232   5.898   3.944 -0.0763 -1.6275  0.6783
39413SOL     OW24074   6.948   9.779  10.483 -0.2543  0.1249  0.0159
39413SOL    HW124075   7.009   9.848  10.508 -0.4892  1.2580 -2.2509
39413SOL    HW224076   7.003   9.711  10.444 -0.3055  0.9169 -1.5442
39414SOL     OW24077   1.182   4.254   5.779  0.1473 -0.2484 -0.5198
39414SOL    HW124078   1.260   4.204   5.756  0.3784  0.1651 -0.6634
39414SOL    HW224079   1.132   4.259   5.697 -0.2626 -0.9157 -0.3122
39415SOL     OW24080   1.494   0.125   6.590 -0.6204  0.1368  0.4209
39415SOL    HW124081   1.522   0.210   6.624  0.0617 -0.5690  1.7161
39415SOL    HW224082   1.414   0.104   6.639  0.2992 -0.8269  1.6134
39416SOL     OW24083   5.288   4.488   0.378  0.5838  0.0030  0.3990
39416SOL    HW124084   5.309   4.564   0.323 -0.6758  0.8838  1.0784
39416SOL    HW224085   5.291   4.522   0.468 -0.4756 -0.6096  0.6876
39417SOL     OW24086   7.601   6.945   2.070  0.2246 -0.6901 -0.2951
39417SOL    HW124087   7.523   6.933   2.125 -0.7888  1.8900 -1.0190
39417SOL    HW224088   7.570   6.936   1.980  1.1817 -1.4846 -0.5710
39418SOL     OW24089   8.788   6.941   7.083  0.1684  0.2389 -0.1537
39418SOL    HW124090   8.816   6.906   6.999 -0.3383  0.7395 -0.5359
39418SOL    HW224091   8.798   6.868   7.144 -1.8733 -0.9429 -1.1162
39419SOL     OW24092   6.047   3.299   9.418 -0.0021  0.0336  0.4292
39419SOL    HW124093   5.991   3.365   9.459 -0.1601 -0.6926  1.3954
39419SOL    HW224094   5.987   3.229   9.394 -0.0004  0.6305 -1.5180
39420SOL     OW24095   0.422   2.775   3.452 -0.3440  0.1833  0.0961
39420SOL    HW124096   0.433   2.789   3.546  0.4089  0.6905 -0.0552
39420SOL    HW224097   0.458   2.854   3.412  0.5555 -0.5851 -0.6636
39421SOL     OW24098   2.204   2.173   0.189 -0.2390 -0.0870 -0.1478
39421SOL    HW124099   2.125   2.222   0.210 -0.1670  1.2430 -2.6162
39421SOL    HW224100   2.174   2.085   0.169 -0.6114 -0.5946  2.4155
39422SOL     OW24101   2.016   7.043   0.769 -0.6608 -0.7877 -0.0208
39422SOL    HW124102   2.049   7.048   0.679  1.7974  1.5583  0.8911
39422SOL    HW224103   1.975   7.127   0.784 -0.1473 -0.7629  1.3606
39423SOL     OW24104   4.764   5.599   6.517  0.5175  0.2435 -0.2685
39423SOL    HW124105   4.686   5.653   6.524 -0.4067 -1.0089 -0.4874
39423SOL    HW224106   4.829   5.643   6.571  0.0439  1.9521 -1.0378
39424SOL     OW24107   4.726   8.866   6.756  0.3206 -0.3045 -0.2355
39424SOL    HW124108   4.698   8.901   6.672  1.8276 -1.4731 -1.2851
39424SOL    HW224109   4.750   8.943   6.808 -0.9368  0.4458 -0.7356
39425SOL     OW24110   1.568   8.276   9.854  0.1779 -0.5833  0.3709
39425SOL    HW124111   1.642   8.316   9.899  0.2089  0.3738 -0.4853
39425SOL    HW224112   1.597   8.270   9.762 -1.2464  1.0233 -0.2416
39426SOL     OW24113   8.497   5.123   5.385 -0.4703  0.0820 -0.0225
39426SOL    HW124114   8.446   5.107   5.306  0.2624 -2.1941 -0.0915
39426SOL    HW224115   8.442   5.091   5.456 -0.7304  1.2648  0.3435
39427SOL     OW24116   1.453   3.874   0.502 -0.5099 -0.2619  0.4498
39427SOL    HW124117   1.369   3.902   0.540 -0.4120 -1.4951  1.6651
39427SOL    HW224118   1.431   3.795   0.452 -0.2534  0.0615 -0.1726
39428SOL     OW24119   0.297   2.430   0.965 -0.3298  0.2776  0.3420
39428SOL    HW124120   0.314   2.511   1.014 -0.5930  0.0776  0.7748
39428SOL    HW224121   0.380   2.383   0.966 -0.7104 -0.4492  1.9742
39429SOL     OW24122  10.622   1.442   6.834 -0.6906 -0.1483 -0.3599
39429SOL    HW124123  10.645   1.486   6.916 -0.1802  0.2701 -0.7210
39429SOL    HW224124  10.528   1.457   6.825 -0.7930 -0.3919  0.2600
39430SOL     OW24125   2.128   4.721   2.265  0.2131  0.0585 -0.3356
39430SOL    HW124126   2.151   4.714   2.173  0.3392 -0.8634 -0.2390
39430SOL    HW224127   2.050   4.667   2.275  1.0230 -1.0092  0.3740
39431SOL     OW24128   4.642   7.252   7.531 -0.2270  0.3023  0.4623
39431SOL    HW124129   4.619   7.218   7.617  1.0565 -0.3770  0.5611
39431SOL    HW224130   4.600   7.192   7.469  1.7873 -1.4439  0.6365
39432SOL     OW24131   9.367   6.564   8.228 -0.3739  0.4197 -0.3729
39432SOL    HW124132   9.392   6.526   8.312  0.4073  1.0112 -0.3281
39432SOL    HW224133   9.297   6.506   8.196  0.0795 -0.4478  0.1579
39433SOL     OW24134   1.678   7.194   8.528 -0.0257 -0.1711  0.7013
39433SOL    HW124135   1.710   7.275   8.568 -1.2250  0.3340  0.6617
39433SOL    HW224136   1.753   7.134   8.533  0.7278  0.7799  1.1545
39434SOL     OW24137   7.691   1.562   5.290  0.1701 -0.3087 -0.6285
39434SOL    HW124138   7.621   1.500   5.310  0.5100 -0.5090 -0.0236
39434SOL    HW224139   7.684   1.630   5.357  0.9047 -0.6346 -0.2067
39435SOL     OW24140   2.644   9.497   3.319  0.7474  0.3193  0.1028
39435SOL    HW124141   2.655   9.459   3.232 -1.7208  0.5002 -0.3540
39435SOL    HW224142   2.630   9.590   3.304  1.0409  0.4795  0.7720
39436SOL     OW24143   6.317   3.315   7.269 -0.0462  0.0722 -0.7308
39436SOL    HW124144   6.410   3.305   7.291 -0.0252  1.6245  0.0523
39436SOL    HW224145   6.317   3.348   7.179  0.1399 -0.3878 -0.8993
39437SOL     OW24146   5.538   0.944   0.293  0.6456  0.0814 -0.0022
39437SOL    HW124147   5.536   1.018   0.233  2.4028  0.5652  0.4517
39437SOL    HW224148   5.508   0.979   0.377  0.2662 -0.0460 -0.0832
39438SOL     OW24149   0.516  10.216   2.660 -0.0816  0.3262  0.2712
39438SOL    HW124150   0.472  10.131   2.664 -0.1832  0.3617 -0.0838
39438SOL    HW224151   0.506  10.252   2.748 -1.6569  0.7745 -0.0520
39439SOL     OW24152   2.007   9.382   1.421  0.1087 -0.2420 -0.0162
39439SOL    HW124153   1.937   9.419   1.368  0.1853 -0.4518 -0.2684
39439SOL    HW224154   2.086   9.428   1.391  0.0297  0.2448  0.5141
39440SOL     OW24155   1.877   4.280   3.980 -0.7960  0.3724 -0.1817
39440SOL    HW124156   1.844   4.285   4.070 -1.4920 -0.1383 -0.3970
39440SOL    HW224157   1.955   4.334   3.980 -0.0389 -0.6666  1.0645
39441SOL     OW24158   2.125  10.566   2.174  0.2456  0.0562  0.0091
39441SOL    HW124159   2.151  10.609   2.256  2.6541 -0.0451 -0.6237
39441SOL    HW224160   2.080  10.635   2.125 -0.4332  0.3704  1.0334
39442SOL     OW24161   9.523   3.121   6.946  0.5445 -0.1285 -0.5199
39442SOL    HW124162   9.474   3.173   6.882  0.6243  0.9447  0.2576
39442SOL    HW224163   9.518   3.172   7.027  2.4360 -0.2712 -0.2695
39443SOL     OW24164   9.749   3.377   3.407 -0.1119 -0.8087 -0.2097
39443SOL    HW124165   9.777   3.459   3.449 -1.8337 -0.2771 -0.0194
39443SOL    HW224166   9.800   3.309   3.451  3.0133  0.2513 -1.8501
39444SOL     OW24167   0.255  10.271   6.471 -0.2288 -0.6439 -0.0619
39444SOL    HW124168   0.348  10.267   6.490  0.0858  0.8507 -1.0946
39444SOL    HW224169   0.237  10.364   6.461 -2.1492 -0.7767  1.5210
39445SOL     OW24170   9.330   7.626   5.466 -0.0392 -0.1066  0.6190
39445SOL    HW124171   9.405   7.671   5.505  1.4691 -0.1662 -1.9910
39445SOL    HW224172   9.254   7.672   5.501  1.3138  1.8861  1.1302
39446SOL     OW24173   4.879   1.100   9.626 -0.2977  0.4855  0.0183
39446SOL    HW124174   4.888   1.082   9.533 -1.2795  1.0708 -0.1976
39446SOL    HW224175   4.959   1.146   9.650 -0.3976  1.0396 -0.7069
39447SOL     OW24176   5.126   4.450   3.349  0.1291 -0.1826 -0.1856
39447SOL    HW124177   5.086   4.369   3.316  1.0436 -0.6723 -0.1552
39447SOL    HW224178   5.218   4.443   3.321  0.8855 -0.4919  2.1618
39448SOL     OW24179   6.729   8.966  10.733 -0.0256  0.1156 -0.1278
39448SOL    HW124180   6.737   9.018  10.813  1.5123  0.0354 -0.1972
39448SOL    HW224181   6.728   8.875  10.764  0.3898  0.0904 -0.1837
39449SOL     OW24182   0.513   6.781   6.336  0.5759 -0.1304  0.2914
39449SOL    HW124183   0.533   6.845   6.404 -1.5365  0.7813  0.1387
39449SOL    HW224184   0.423   6.752   6.355  1.0726 -2.2251 -0.3070
39450SOL     OW24185   2.982   3.821   6.244 -0.7362  0.3033  0.5809
39450SOL    HW124186   2.970   3.756   6.314  0.3092  1.3183  1.7459
39450SOL    HW224187   2.901   3.873   6.246 -0.6233  0.4633  1.1879
39451SOL     OW24188   9.969   2.506   4.910 -0.4904  0.0591 -0.0018
39451SOL    HW124189   9.874   2.522   4.915 -0.3469  1.0744 -0.3584
39451SOL    HW224190  10.008   2.582   4.952  0.2145  0.4778 -1.3791
39452SOL     OW24191   2.541   4.129   5.985  0.5001 -0.5991 -0.2931
39452SOL    HW124192   2.546   4.221   6.013  0.9027 -1.1245  1.4965
39452SOL    HW224193   2.504   4.133   5.897 -1.9138  1.1387  0.6907
39453SOL     OW24194   8.509   6.789   3.303 -0.0432 -0.5926 -0.3868
39453SOL    HW124195   8.456   6.865   3.278  1.2485  0.6368  0.3977
39453SOL    HW224196   8.475   6.763   3.388 -0.1935 -0.5959 -0.4484
39454SOL     OW24197   3.201   7.351  10.113  0.4432 -0.1906 -0.1906
39454SOL    HW124198   3.141   7.280  10.089 -1.6703  1.7782 -1.2436
39454SOL    HW224199   3.180   7.371  10.204 -0.2894  0.2524 -0.4471
39455SOL     OW24200   4.296   5.285   3.732  0.0276 -0.2532 -0.1381
39455SOL    HW124201   4.291   5.261   3.824  1.6350  0.7940  0.2706
39455SOL    HW224202   4.367   5.231   3.697 -0.1156 -0.1551 -0.5982
39456SOL     OW24203   4.555   4.570   4.860 -0.2987  0.3509 -0.2645
39456SOL    HW124204   4.503   4.642   4.896 -1.4175 -0.9707  0.8776
39456SOL    HW224205   4.557   4.588   4.766 -0.5960  1.8298 -0.0254
39457SOL     OW24206   7.961   8.849   7.958 -0.2529 -0.2330  0.7559
39457SOL    HW124207   7.912   8.862   7.877  1.9709  0.3747 -0.5733
39457SOL    HW224208   8.052   8.867   7.935  0.5167 -0.3534  3.3286
39458SOL     OW24209   1.992   3.736   6.304  0.1335  0.0254 -0.1147
39458SOL    HW124210   1.902   3.707   6.316 -0.4926  2.2650  1.3358
39458SOL    HW224211   1.988   3.797   6.230  0.0110  1.5498  1.0826
39459SOL     OW24212   7.910   7.384   5.117 -0.0025 -0.2437  0.1890
39459SOL    HW124213   7.815   7.372   5.107 -0.0535  0.9285 -0.9690
39459SOL    HW224214   7.945   7.369   5.029  0.5086  2.3138 -0.1256
39460SOL     OW24215   1.244   7.659   5.451  0.0832 -0.3155  0.6915
39460SOL    HW124216   1.162   7.626   5.488  0.7209  0.2939  2.8058
39460SOL    HW224217   1.297   7.581   5.438  0.1578 -0.5138  1.9948
39461SOL     OW24218  10.303   9.131   5.872 -0.1211  0.2417 -0.0596
39461SOL    HW124219  10.361   9.193   5.828 -1.6363  2.0171  0.3278
39461SOL    HW224220  10.242   9.102   5.805 -0.2454  0.2174  0.0625
39462SOL     OW24221   2.270   3.396   2.455 -0.3517 -0.3267 -0.0322
39462SOL    HW124222   2.218   3.456   2.508  0.4312 -0.0231  0.3995
39462SOL    HW224223   2.355   3.393   2.498  0.2854 -0.1069 -1.2322
39463SOL     OW24224   0.459   9.287   7.235  0.4791  0.0283 -0.0912
39463SOL    HW124225   0.455   9.243   7.320 -1.1016 -0.6142 -0.4687
39463SOL    HW224226   0.420   9.225   7.174 -0.0430  1.1946 -0.9850
39464SOL     OW24227   8.671   0.875   6.485 -0.2795 -0.2263  0.4587
39464SOL    HW124228   8.691   0.967   6.465  0.6915  0.0872  2.5331
39464SOL    HW224229   8.594   0.855   6.432 -0.5706  1.8171  0.0130
39465SOL     OW24230   8.163   0.579   4.543  0.1090 -0.1428 -0.4364
39465SOL    HW124231   8.207   0.504   4.502  1.1603 -1.3015  2.5356
39465SOL    HW224232   8.224   0.609   4.610 -1.3114  1.8736  0.0344
39466SOL     OW24233   9.913   6.453   4.710  0.5928 -0.2784  0.6506
39466SOL    HW124234   9.941   6.363   4.692 -1.3432 -0.9857  0.9499
39466SOL    HW224235   9.900   6.492   4.623 -0.4346 -0.9383  0.4900
39467SOL     OW24236   4.959   0.360   4.096  0.1973  0.1370  0.0764
39467SOL    HW124237   4.897   0.293   4.066  2.1090 -1.2525 -0.9458
39467SOL    HW224238   4.942   0.435   4.038  0.1420 -0.5749 -0.8461
39468SOL     OW24239   2.321   7.337   9.203 -0.4839 -0.2785  0.4536
39468SOL    HW124240   2.271   7.347   9.122  0.3068 -0.3546 -0.0650
39468SOL    HW224241   2.258   7.304   9.267 -1.0103 -0.7093 -0.2708
39469SOL     OW24242   7.612   9.650   9.039  0.0028 -0.1078  0.1129
39469SOL    HW124243   7.571   9.578   8.993  0.7438  0.1733 -1.0392
39469SOL    HW224244   7.675   9.609   9.098 -0.9006 -0.4682  0.8412
39470SOL     OW24245   6.070   3.335   2.905  0.2570  0.1958  0.3633
39470SOL    HW124246   6.139   3.334   2.971  0.8777 -1.0813 -0.2641
39470SOL    HW224247   6.118   3.340   2.822 -0.4229 -0.3785 -0.0686
39471SOL     OW24248   4.804   5.705   0.727 -0.2436 -0.0044  0.1576
39471SOL    HW124249   4.883   5.689   0.675 -0.5584  0.1989 -0.3899
39471SOL    HW224250   4.807   5.799   0.746 -0.4966  0.0638 -0.1176
39472SOL     OW24251  10.365   8.046   4.290 -0.2723 -0.2459  0.0428
39472SOL    HW124252  10.350   8.045   4.196 -1.5022  0.1428  0.2172
39472SOL    HW224253  10.284   8.080   4.327 -0.4865 -2.0580  1.3754
39473SOL     OW24254   3.557   9.426   5.506  0.3750  0.2176  0.1081
39473SOL    HW124255   3.586   9.515   5.523 -0.6050  0.2462  1.8758
39473SOL    HW224256   3.477   9.436   5.454 -0.9726  0.5313  2.1253
39474SOL     OW24257   2.592   3.948   9.274  0.0905 -0.0864  0.4643
39474SOL    HW124258   2.513   3.977   9.228  0.1756  0.9958  0.9705
39474SOL    HW224259   2.593   3.999   9.355  1.3684  0.0105  0.4114
39475SOL     OW24260   7.421   4.375   9.952  0.8054  0.6268 -0.3418
39475SOL    HW124261   7.383   4.303   9.903 -0.2436  2.0111 -1.6606
39475SOL    HW224262   7.439   4.442   9.886  2.4782  1.2977  0.7213
39476SOL     OW24263   5.125  10.174   0.261 -0.2413  0.1427 -0.0843
39476SOL    HW124264   5.156  10.193   0.349 -1.8541  1.4473  0.2590
39476SOL    HW224265   5.178  10.100   0.232  2.3788  1.5509  0.8015
39477SOL     OW24266   6.332   7.584   5.409  0.3873 -0.2878 -0.2648
39477SOL    HW124267   6.289   7.529   5.343 -0.2740 -0.1718  0.0581
39477SOL    HW224268   6.342   7.669   5.366 -2.4142  0.5979  0.5766
39478SOL     OW24269   9.262   4.287   4.742 -0.0773 -0.3779 -0.6146
39478SOL    HW124270   9.217   4.205   4.761 -1.6912 -0.2198 -3.2272
39478SOL    HW224271   9.354   4.263   4.736 -0.2636 -1.5564  0.7307
39479SOL     OW24272   0.071   9.027   7.903 -0.3065  0.1440 -0.5879
39479SOL    HW124273   0.120   9.105   7.928  0.9971 -1.0711  0.7900
39479SOL    HW224274   0.069   8.973   7.982 -0.7166 -1.4615 -1.6415
39480SOL     OW24275   8.330   3.606   2.250  0.1416  0.6170 -0.2702
39480SOL    HW124276   8.275   3.678   2.280 -1.2935 -0.2335 -0.7683
39480SOL    HW224277   8.420   3.634   2.269 -0.4192  2.2963  0.0011
39481SOL     OW24278   4.328   9.027   0.347  0.2901  0.2345 -0.7950
39481SOL    HW124279   4.265   8.955   0.361 -0.2153  0.8213 -0.0069
39481SOL    HW224280   4.413   8.984   0.349  0.1273 -0.1194  1.6387
39482SOL     OW24281   7.079   7.810   4.775  0.1161 -0.1049  0.1395
39482SOL    HW124282   7.057   7.717   4.779 -0.7769  0.0941  0.0619
39482SOL    HW224283   7.175   7.812   4.781  0.1318 -1.0109  0.3926
39483SOL     OW24284   2.420   2.181   4.207  0.3351  0.2872 -0.8646
39483SOL    HW124285   2.473   2.170   4.127 -0.5933 -1.5987 -1.2742
39483SOL    HW224286   2.481   2.162   4.278  1.0737  1.6113 -1.1029
39484SOL     OW24287   9.251   4.672   6.506 -0.2754  0.5461 -0.1206
39484SOL    HW124288   9.215   4.744   6.557 -2.8286 -1.3833  1.0207
39484SOL    HW224289   9.179   4.645   6.448  1.0042 -0.3552 -1.3748
39485SOL     OW24290   9.983   1.202  10.692 -0.1736 -0.0480  0.1474
39485SOL    HW124291   9.959   1.111  10.680  0.5867 -0.2278 -0.0633
39485SOL    HW224292  10.079   1.202  10.696 -0.1716  0.7023  0.4307
39486SOL     OW24293   6.172  10.580   8.116 -0.0699  0.3974  0.5766
39486SOL    HW124294   6.267  10.588   8.126 -0.0638 -0.2112  1.0748
39486SOL    HW224295   6.154  10.487   8.131 -0.9001  0.7519  2.0346
39487SOL     OW24296   8.493   0.433   7.899 -0.0477  0.1007 -0.3377
39487SOL    HW124297   8.557   0.366   7.875  1.3637  1.3818 -0.2642
39487SOL    HW224298   8.520   0.511   7.850 -0.8853  0.9835  0.5680
39488SOL     OW24299   3.351   2.489   3.480  0.2679 -0.2785  0.3288
39488SOL    HW124300   3.401   2.558   3.524  0.6095 -0.5241  0.3337
39488SOL    HW224301   3.267   2.486   3.526 -0.4281  1.3107 -0.7785
39489SOL     OW24302   2.872   9.734   8.431  0.1183  0.2533 -0.0306
39489SOL    HW124303   2.778   9.735   8.410 -0.0505 -0.5321  0.6449
39489SOL    HW224304   2.914   9.715   8.347 -0.3099  0.8039 -0.3810
39490SOL     OW24305   8.809   5.050   6.400  0.2084  0.1626  0.1261
39490SOL    HW124306   8.747   5.123   6.394 -0.5546 -0.4783  0.0522
39490SOL    HW224307   8.758   4.978   6.437  0.3120 -1.0093 -1.8614
39491SOL     OW24308   5.068   4.672   5.231  0.3257 -0.0224  0.1483
39491SOL    HW124309   5.136   4.640   5.290  1.5612 -0.3925 -1.4199
39491SOL    HW224310   5.115   4.708   5.156 -1.0969  2.9642  0.5417
39492SOL     OW24311   4.956   5.100   0.836 -0.4167 -0.4743 -0.6498
39492SOL    HW124312   4.909   5.038   0.893 -0.7314  0.9034  0.6338
39492SOL    HW224313   5.048   5.090   0.861 -0.6320  0.6834  0.7089
39493SOL     OW24314   1.330   7.563   2.281 -0.0755 -0.2319 -0.7758
39493SOL    HW124315   1.344   7.603   2.366  0.1612  1.0099 -1.3785
39493SOL    HW224316   1.314   7.470   2.300 -1.6402  0.2887  0.7528
39494SOL     OW24317   0.490   7.980   4.222  0.0163  0.6019 -0.7940
39494SOL    HW124318   0.465   7.903   4.172  0.0343  0.3283 -0.3866
39494SOL    HW224319   0.556   8.024   4.168  0.2856  0.1290 -0.8593
39495SOL     OW24320   2.480   1.609   5.568  0.2617 -0.3177 -0.0859
39495SOL    HW124321   2.433   1.606   5.651  0.1433  0.1255 -0.1361
39495SOL    HW224322   2.564   1.650   5.589  0.1519 -0.0181 -0.2181
39496SOL     OW24323   8.686   1.996   5.573 -0.4716 -0.1286 -0.2601
39496SOL    HW124324   8.715   2.017   5.662  0.4746 -1.0684 -0.3266
39496SOL    HW224325   8.657   1.905   5.579 -3.6481  0.7780 -0.1672
39497SOL     OW24326   4.449   2.879   3.130 -0.0804  0.4106 -0.2291
39497SOL    HW124327   4.485   2.855   3.045 -1.0751 -0.2010 -0.4945
39497SOL    HW224328   4.371   2.932   3.109 -1.7738 -1.7796  0.2058
39498SOL     OW24329   3.447   9.822   1.049 -0.9549  0.0288  0.3028
39498SOL    HW124330   3.376   9.800   1.109 -1.2268  1.4222  0.5204
39498SOL    HW224331   3.409   9.813   0.962 -0.3419 -2.7816  0.2149
39499SOL     OW24332   1.712   9.857   6.050  0.7290 -0.5651  0.4239
39499SOL    HW124333   1.804   9.848   6.026  0.7389  1.9934 -0.8580
39499SOL    HW224334   1.672   9.773   6.024  2.3751 -1.1024 -0.5147
39500SOL     OW24335   5.225   3.285   4.546 -0.2034 -0.0801 -0.2787
39500SOL    HW124336   5.262   3.208   4.503  0.2007  0.9534 -1.8428
39500SOL    HW224337   5.301   3.339   4.569 -0.4344 -0.4003  1.4169
39501SOL     OW24338   7.358   0.072   6.490  0.0150  0.3388 -0.1641
39501SOL    HW124339   7.339   0.128   6.565  2.6372  2.0852 -0.6494
39501SOL    HW224340   7.304  -0.006   6.503 -2.9250  2.4340  1.1827
39502SOL     OW24341   3.576   8.177   4.039  0.2372 -0.1818  0.1281
39502SOL    HW124342   3.538   8.156   3.954 -0.1776  0.7923  0.0578
39502SOL    HW224343   3.588   8.272   4.037  1.5507 -0.3107  0.6199
39503SOL     OW24344   4.779   2.601   6.446  0.2028  0.2992  0.2108
39503SOL    HW124345   4.874   2.600   6.450  0.1799  0.1711  0.8185
39503SOL    HW224346   4.759   2.605   6.353  0.8085  1.3343  0.1178
39504SOL     OW24347   0.179   4.364   7.691  0.6729 -0.1389 -0.6098
39504SOL    HW124348   0.096   4.315   7.690  0.4377  0.2419 -1.6027
39504SOL    HW224349   0.154   4.453   7.716  0.9698 -0.3103  0.3142
39505SOL     OW24350   8.222   9.947   7.760  0.3398  0.8752  0.1283
39505SOL    HW124351   8.187   9.861   7.782  1.5568  0.4349  0.4005
39505SOL    HW224352   8.226   9.993   7.843 -0.4329  1.2509 -0.0361
39506SOL     OW24353   3.066   9.418   7.651 -0.0334  0.0684 -0.5899
39506SOL    HW124354   2.974   9.428   7.675 -0.5438 -2.1248 -1.3901
39506SOL    HW224355   3.098   9.351   7.711  0.3448 -0.9856 -1.9375
39507SOL     OW24356   8.606   7.672   4.599 -0.0534  0.2650 -0.6022
39507SOL    HW124357   8.524   7.722   4.595 -0.1073  0.1663 -0.7546
39507SOL    HW224358   8.599   7.609   4.527 -0.5194 -0.7767  0.3109
39508SOL     OW24359  10.254   2.599   7.417 -0.1594 -0.7901 -0.2911
39508SOL    HW124360  10.243   2.692   7.436  0.4966 -0.6995 -0.3211
39508SOL    HW224361  10.291   2.597   7.328 -0.1541 -1.0744 -0.2835
39509SOL     OW24362   6.779  10.113   1.511  0.0995 -0.3092 -0.6512
39509SOL    HW124363   6.817  10.201   1.510  0.2515 -0.3455  0.5248
39509SOL    HW224364   6.839  10.061   1.457  0.4568  0.1286 -0.6853
39510SOL     OW24365   8.287   2.946   3.199 -0.4160  0.0443 -0.0422
39510SOL    HW124366   8.341   2.915   3.271  0.1165 -1.5890 -1.0994
39510SOL    HW224367   8.315   3.037   3.184  0.1274  0.0804  1.1586
39511SOL     OW24368   1.745   6.736   5.725 -0.3364 -0.4574 -0.5644
39511SOL    HW124369   1.726   6.648   5.757  1.6127 -0.9269 -0.5484
39511SOL    HW224370   1.757   6.788   5.804 -1.7806 -0.0702 -0.5715
39512SOL     OW24371   0.449  10.217   8.572  0.0517  0.1191 -0.8529
39512SOL    HW124372   0.419  10.264   8.651 -1.0621 -1.7747 -0.0631
39512SOL    HW224373   0.537  10.186   8.594  0.4391  1.0758 -1.0410
39513SOL     OW24374   3.059   7.062   8.550  0.1593  0.2656  0.4472
39513SOL    HW124375   3.112   7.131   8.589  3.6823 -1.9310  0.0019
39513SOL    HW224376   3.071   6.987   8.608 -0.4303 -1.0115 -1.0206
39514SOL     OW24377   5.166   3.958   2.799 -0.6194 -0.0160  0.5611
39514SOL    HW124378   5.078   3.993   2.813 -0.6213  0.2849 -0.1936
39514SOL    HW224379   5.156   3.863   2.810 -1.0692  0.0019  0.3347
39515SOL     OW24380  10.576   2.799   8.442 -0.1015  0.0989 -0.5828
39515SOL    HW124381  10.631   2.761   8.511 -2.0145 -0.6509  0.5875
39515SOL    HW224382  10.566   2.729   8.379  0.0989  0.1735 -0.7002
39516SOL     OW24383   8.969   3.375   1.742 -0.7144 -0.1043 -1.1286
39516SOL    HW124384   8.991   3.459   1.782 -1.5606 -0.4175  0.0530
39516SOL    HW224385   9.050   3.347   1.698 -0.0739  0.7615 -0.5345
39517SOL     OW24386   9.591   2.362   9.188 -0.2154 -0.4510 -0.7651
39517SOL    HW124387   9.640   2.369   9.106 -1.6340  1.2852 -1.5285
39517SOL    HW224388   9.631   2.428   9.245 -0.1444 -0.6825 -0.5432
39518SOL     OW24389   2.325   8.299   7.786 -0.4352  0.5038  0.5268
39518SOL    HW124390   2.277   8.216   7.785 -0.8153  0.6942 -1.0722
39518SOL    HW224391   2.368   8.302   7.871  0.2227 -1.6880  0.3212
39519SOL     OW24392   2.698   4.520   6.498  0.2050  0.1925 -0.2655
39519SOL    HW124393   2.617   4.485   6.536 -1.1562  4.0077  0.8581
39519SOL    HW224394   2.755   4.535   6.574  0.9605 -0.1663 -0.7601
39520SOL     OW24395   6.885   3.397   4.907 -0.0974 -0.2032  0.3162
39520SOL    HW124396   6.917   3.382   4.996  1.4495 -0.7169 -0.3122
39520SOL    HW224397   6.820   3.328   4.893 -0.8248  0.2555  1.2381
39521SOL     OW24398   8.964   5.253   6.696 -0.1077 -0.2153 -0.2243
39521SOL    HW124399   9.054   5.239   6.727 -0.3671 -0.2680  0.5090
39521SOL    HW224400   8.909   5.208   6.760 -0.6137 -0.9848 -1.1835
39522SOL     OW24401   3.509   0.061   5.463  0.1417 -0.2913 -0.1800
39522SOL    HW124402   3.513   0.039   5.556  1.7458  0.0305 -0.1475
39522SOL    HW224403   3.424   0.029   5.434 -0.0734 -1.0520  1.2337
39523SOL     OW24404   0.952   7.819   7.591 -0.0775 -0.2415  0.5940
39523SOL    HW124405   0.990   7.830   7.679 -0.6487 -1.3036  0.9990
39523SOL    HW224406   0.989   7.890   7.540  1.2191 -0.3074  1.3911
39524SOL     OW24407   4.351   8.615   0.930  0.6524  0.0318 -0.2975
39524SOL    HW124408   4.378   8.655   0.848 -0.3210 -0.2801 -0.7825
39524SOL    HW224409   4.281   8.554   0.906 -1.1102  1.4180  0.9574
39525SOL     OW24410   7.310   9.911   8.594  0.1128 -0.1819 -0.6613
39525SOL    HW124411   7.266   9.871   8.519 -0.5102  0.5927 -0.7191
39525SOL    HW224412   7.321  10.003   8.569  1.0656 -0.1910 -0.3230
39526SOL     OW24413   9.448   2.625   3.596 -0.2522 -0.0687 -0.9975
39526SOL    HW124414   9.487   2.563   3.658  2.1077  1.9937 -0.2510
39526SOL    HW224415   9.468   2.588   3.510 -1.7762 -1.9347 -0.6207
39527SOL     OW24416   8.603   9.107   3.916 -0.2339 -0.0891 -0.0511
39527SOL    HW124417   8.542   9.077   3.983  1.2807  0.3093  1.5749
39527SOL    HW224418   8.574   9.064   3.836 -1.4185 -1.4924  1.0774
39528SOL     OW24419   8.425   3.401  10.121 -0.2331 -0.4669 -0.6647
39528SOL    HW124420   8.514   3.424  10.145 -0.6736  0.7769 -0.1110
39528SOL    HW224421   8.406   3.456  10.045 -0.3313 -1.1760 -1.1629
39529SOL     OW24422   1.318   2.363   5.564 -0.5825  0.3658  0.4662
39529SOL    HW124423   1.320   2.272   5.535  0.4378 -0.5696  3.1135
39529SOL    HW224424   1.320   2.414   5.484 -1.8190 -1.9169 -1.1436
39530SOL     OW24425  10.919  10.774  10.763 -0.0118 -0.1423 -0.0164
39530SOL    HW124426  11.012  10.773  10.784 -0.1195 -2.2993  0.6587
39530SOL    HW224427  10.912  10.724  10.682 -0.5753 -0.1501  0.0343
39531SOL     OW24428  10.011   5.704   4.296  0.7954 -0.1720  0.0103
39531SOL    HW124429  10.094   5.678   4.257 -0.2490 -1.7231 -1.2926
39531SOL    HW224430   9.988   5.632   4.354 -0.9928 -1.2200 -1.8562
39532SOL     OW24431   9.912   9.389   6.179  0.3879  0.4074  0.2733
39532SOL    HW124432   9.916   9.343   6.095 -0.3866 -0.0381  0.4726
39532SOL    HW224433   9.836   9.352   6.223  0.0326  1.5430  0.6405
39533SOL     OW24434   4.958   2.360   4.773 -0.8526  0.7435 -0.3455
39533SOL    HW124435   4.971   2.295   4.704 -0.8920  0.1264  0.2050
39533SOL    HW224436   5.027   2.425   4.760 -1.8215  1.5043 -1.9216
39534SOL     OW24437   3.679   4.258  10.446 -0.1936 -0.2570 -0.1677
39534SOL    HW124438   3.686   4.254  10.541 -0.7848  0.7743 -0.0642
39534SOL    HW224439   3.585   4.266  10.429 -0.0244  0.6337 -0.7717
39535SOL     OW24440   3.880   2.340   0.428 -0.2684 -0.4722 -0.6007
39535SOL    HW124441   3.810   2.340   0.494  0.0050 -1.5985 -0.2959
39535SOL    HW224442   3.953   2.386   0.471 -0.2895 -0.6872 -0.3285
39536SOL     OW24443   7.582  10.201   4.042 -0.1871 -0.3136  0.1642
39536SOL    HW124444   7.525  10.125   4.030  0.1695 -0.5820  0.1624
39536SOL    HW224445   7.625  10.213   3.958  0.0197 -0.3303  0.2650
39537SOL     OW24446  10.599   8.129  10.379  0.3123 -0.0533  0.6732
39537SOL    HW124447  10.626   8.199  10.320  1.9817 -2.1850 -1.2767
39537SOL    HW224448  10.676   8.115  10.435 -0.1892 -0.0250  1.3799
39538SOL     OW24449   3.268   2.458   0.024  0.0397  0.0040  0.3132
39538SOL    HW124450   3.266   2.425   0.114  1.9061 -2.4087 -0.4359
39538SOL    HW224451   3.348   2.511   0.021 -0.2845  0.4876  0.1942
39539SOL     OW24452   2.925   3.889   3.760  0.2358  0.0001 -0.2931
39539SOL    HW124453   2.946   3.807   3.716 -1.2641  1.3146 -3.8318
39539SOL    HW224454   3.010   3.931   3.773  0.8005 -0.6632 -1.5923
39540SOL     OW24455   4.555   0.202   9.859  0.2108 -0.1000  0.2001
39540SOL    HW124456   4.500   0.271   9.895  0.7787  0.8790 -0.7423
39540SOL    HW224457   4.573   0.144   9.933 -2.5200 -0.7930  0.4289
39541SOL     OW24458   5.812   9.106   5.475  0.8452  0.4874  0.2853
39541SOL    HW124459   5.781   9.190   5.441  0.4030 -0.6156 -2.2742
39541SOL    HW224460   5.732   9.053   5.483  1.3736 -0.4995 -0.7073
39542SOL     OW24461   1.054   7.512   5.602 -0.2527  0.4984 -0.1941
39542SOL    HW124462   0.999   7.434   5.608  0.7276 -0.1951 -0.1283
39542SOL    HW224463   1.120   7.500   5.670 -0.8820  2.0372  0.7588
39543SOL     OW24464   5.813   0.387   9.071  0.1056  0.6342 -0.5127
39543SOL    HW124465   5.746   0.433   9.020  1.2503  1.7574 -1.0635
39543SOL    HW224466   5.830   0.445   9.145  0.5794  0.4227 -0.4566
39544SOL     OW24467   8.953   2.141   5.075  0.1068 -0.3616  0.1622
39544SOL    HW124468   8.888   2.202   5.111 -0.0367 -0.7850  0.6320
39544SOL    HW224469   8.915   2.110   4.993  0.6337  0.9569 -0.6249
39545SOL     OW24470   0.010   4.794   8.478 -0.4704  0.5673  0.1883
39545SOL    HW124471   0.030   4.851   8.403  0.5768 -0.1842 -0.1245
39545SOL    HW224472   0.062   4.716   8.463 -0.1150  0.4633  1.8016
39546SOL     OW24473   0.934   4.649   2.181 -0.3849 -0.3807  0.1218
39546SOL    HW124474   0.891   4.565   2.196 -0.5747  0.0097  1.9994
39546SOL    HW224475   0.868   4.715   2.204  0.6871  0.2349  1.5970
39547SOL     OW24476   8.549   4.153   9.181  0.2436  0.3059  0.0714
39547SOL    HW124477   8.499   4.206   9.119 -1.0364 -1.1590 -0.2230
39547SOL    HW224478   8.639   4.186   9.174 -0.3132  1.7133 -0.8418
39548SOL     OW24479   8.268   7.736   6.941 -0.1531  0.3508  0.1600
39548SOL    HW124480   8.234   7.653   6.975 -0.2601 -0.1280 -1.0359
39548SOL    HW224481   8.309   7.779   7.016  1.7370 -1.7223  0.4262
39549SOL     OW24482   3.301   9.339   3.756 -0.0276  0.0331  0.1749
39549SOL    HW124483   3.382   9.289   3.750 -0.1514 -0.0830 -0.7513
39549SOL    HW224484   3.288   9.375   3.668 -0.2543  1.2052  0.6691
39550SOL     OW24485   5.203   1.848   0.860  0.2557 -1.0083 -0.2757
39550SOL    HW124486   5.109   1.860   0.873  0.3567 -2.1482  1.9441
39550SOL    HW224487   5.213   1.836   0.765 -1.7604 -0.4255 -0.6028
39551SOL     OW24488   8.029   5.582   2.768  0.0280 -0.4371 -0.2765
39551SOL    HW124489   8.075   5.610   2.847 -0.7135  0.8905 -0.2941
39551SOL    HW224490   8.012   5.663   2.720 -3.6301 -0.6371  0.4265
39552SOL     OW24491   8.269   9.476  10.898  0.0162 -0.3819  0.1328
39552SOL    HW124492   8.216   9.536  10.950 -0.4361 -1.0175  0.4298
39552SOL    HW224493   8.216   9.457  10.821 -0.6255 -1.7220  0.8564
39553SOL     OW24494   2.749   7.584   0.264  0.1771  0.6371  0.3470
39553SOL    HW124495   2.820   7.561   0.203 -1.7295  1.8667 -2.6106
39553SOL    HW224496   2.792   7.634   0.333  2.4767 -0.6842 -0.0240
39554SOL     OW24497   6.920   8.763   8.803  0.3451 -0.6034  0.0887
39554SOL    HW124498   6.940   8.856   8.815  1.7310 -0.6313 -1.5783
39554SOL    HW224499   6.932   8.725   8.890  2.4803  0.3690  0.2964
39555SOL     OW24500   3.759   8.765   1.162 -0.7786  0.4070 -0.4787
39555SOL    HW124501   3.747   8.685   1.111  0.6770 -0.5269  0.5707
39555SOL    HW224502   3.727   8.742   1.250  2.4261 -0.1244  0.6830
39556SOL     OW24503   9.942   2.789   1.522  0.0744 -0.4532  0.4792
39556SOL    HW124504   9.871   2.816   1.464  0.4803 -2.0192 -0.8133
39556SOL    HW224505  10.018   2.783   1.465  0.7653 -0.8578  1.4265
39557SOL     OW24506   7.735   1.414   3.541  0.4360  0.4549  0.2362
39557SOL    HW124507   7.788   1.413   3.621  0.9037  0.2329 -0.0700
39557SOL    HW224508   7.653   1.455   3.567  1.2217  1.9842  0.4335
39558SOL     OW24509   2.477   2.021   7.442  0.2043 -0.2000  0.0566
39558SOL    HW124510   2.504   2.092   7.383 -0.3275  0.0540  0.1078
39558SOL    HW224511   2.464   2.065   7.526 -0.0814 -0.3650  0.0990
39559SOL     OW24512   1.364   1.628   8.793  0.4711  0.0191  0.6858
39559SOL    HW124513   1.366   1.541   8.753 -1.9452  0.6356 -0.9683
39559SOL    HW224514   1.417   1.682   8.734  0.7656 -0.0078  0.9212
39560SOL     OW24515   1.035   1.382   3.139  0.4639  0.1432  0.0138
39560SOL    HW124516   0.947   1.416   3.154 -0.2768 -2.1010  1.1771
39560SOL    HW224517   1.085   1.411   3.215  0.9373  1.7885 -0.8508
39561SOL     OW24518   4.105   4.297   9.317  0.1896 -0.0176 -0.2989
39561SOL    HW124519   4.051   4.359   9.270 -0.0647 -0.7571 -1.0006
39561SOL    HW224520   4.108   4.219   9.261  0.3260 -0.7203  0.6395
39562SOL     OW24521   4.715   8.335   7.359 -0.2761  0.5615 -0.3553
39562SOL    HW124522   4.651   8.280   7.403 -0.2715 -0.2704 -1.3510
39562SOL    HW224523   4.786   8.346   7.423 -0.3157 -0.5284 -0.1084
39563SOL     OW24524   0.333   4.880   8.683  0.8869  0.4198  0.3064
39563SOL    HW124525   0.296   4.962   8.717  1.0320 -0.2253  2.1445
39563SOL    HW224526   0.327   4.888   8.588 -3.8955  0.4304  0.3698
39564SOL     OW24527   5.634   2.462   6.640 -0.5070  0.0670  0.2169
39564SOL    HW124528   5.583   2.402   6.587 -0.0466 -0.4733  0.3697
39564SOL    HW224529   5.655   2.412   6.720 -0.0146  0.3785  0.2909
39565SOL     OW24530   0.108   8.161   1.578 -0.2600  0.1398  0.4270
39565SOL    HW124531   0.129   8.072   1.606 -0.1672  0.4816  1.4898
39565SOL    HW224532   0.190   8.208   1.585 -0.7908  0.8633  2.1271
39566SOL     OW24533   3.228   4.500   1.907 -0.6169  0.8310 -0.1090
39566SOL    HW124534   3.305   4.446   1.926 -1.0359  0.8957  2.1048
39566SOL    HW224535   3.250   4.547   1.827  0.7175 -0.8338 -0.7796
39567SOL     OW24536  10.068  10.611   9.828 -0.5619 -0.2649  0.2237
39567SOL    HW124537  10.020  10.652   9.900 -0.7704  1.8198 -1.0140
39567SOL    HW224538  10.001  10.581   9.767 -0.3677 -1.3195  0.5100
39568SOL     OW24539   7.154  10.617   6.294  0.0741  0.1919 -0.6195
39568SOL    HW124540   7.221  10.555   6.263  0.1497 -0.6245  1.0547
39568SOL    HW224541   7.199  10.702   6.296  0.2012  0.1916 -2.1878
39569SOL     OW24542   5.732   1.293   7.248  0.5224  0.2442 -0.0639
39569SOL    HW124543   5.664   1.291   7.182  0.7698  0.1418 -0.3168
39569SOL    HW224544   5.727   1.207   7.291  0.9250 -0.0104 -0.5234
39570SOL     OW24545   4.805   6.188   6.988 -0.4011 -0.9135 -0.0158
39570SOL    HW124546   4.831   6.280   6.985 -0.9291 -0.7266  0.8658
39570SOL    HW224547   4.830   6.159   7.076 -1.4694 -1.2345  0.1968
39571SOL     OW24548   3.653   7.032   2.563 -0.2184  0.2393 -0.0582
39571SOL    HW124549   3.592   7.026   2.490 -0.4549  3.0156 -0.1848
39571SOL    HW224550   3.725   6.973   2.539 -0.6954  0.4329 -2.1028
39572SOL     OW24551   0.536   8.602   4.045 -0.0662  0.0156  0.0583
39572SOL    HW124552   0.617   8.580   3.997 -0.9523  1.6410 -2.3720
39572SOL    HW224553   0.548   8.694   4.070 -1.4336  0.5194 -1.0291
39573SOL     OW24554   1.934  10.900   2.319  0.1770 -0.9735 -0.0888
39573SOL    HW124555   2.018  10.887   2.363 -0.5011 -0.1617  1.5485
39573SOL    HW224556   1.948  10.868   2.230  1.8063 -2.1365  0.5303
39574SOL     OW24557   0.690   1.052   7.777 -0.2799 -0.2772  0.0217
39574SOL    HW124558   0.733   1.136   7.793  1.0581 -0.8477 -0.4400
39574SOL    HW224559   0.732   1.018   7.698 -0.1718 -1.7684  0.6849
39575SOL     OW24560   3.414   8.807   2.775 -0.3676 -0.2046 -0.3078
39575SOL    HW124561   3.442   8.727   2.818  0.3703  0.6130  0.8111
39575SOL    HW224562   3.484   8.825   2.711  0.4370  0.4975  0.7302
39576SOL     OW24563   5.709   3.464   5.435 -0.2665 -0.2630  0.0088
39576SOL    HW124564   5.652   3.432   5.364 -1.1965 -3.1985  1.8817
39576SOL    HW224565   5.651   3.515   5.491  0.0730  0.6618 -0.4746
39577SOL     OW24566   8.286   7.982   6.213  0.6263  0.1146 -0.4082
39577SOL    HW124567   8.266   7.984   6.307  1.7695  3.3880 -0.0878
39577SOL    HW224568   8.265   7.893   6.186 -2.2092 -0.2591  2.3715
39578SOL     OW24569   3.401   6.013   0.561 -0.0026 -0.2838 -0.6990
39578SOL    HW124570   3.453   6.083   0.522 -0.4564  0.8188  0.5939
39578SOL    HW224571   3.327   6.058   0.602  0.1871 -1.4013  0.9757
39579SOL     OW24572   6.276   9.261   9.464  0.2362 -0.6679 -0.1673
39579SOL    HW124573   6.254   9.211   9.385  1.1665 -0.1290 -0.7816
39579SOL    HW224574   6.362   9.299   9.446 -0.1611  0.6445  0.5306
39580SOL     OW24575   5.799   5.498   7.946  0.3229 -0.1521  0.7266
39580SOL    HW124576   5.742   5.442   7.892  0.9918  1.1935 -1.5198
39580SOL    HW224577   5.740   5.562   7.985  0.1744  1.1114 -1.4245
39581SOL     OW24578   1.595   6.203   9.748 -0.4765  0.2520  0.3657
39581SOL    HW124579   1.642   6.120   9.740 -0.4819  0.4325 -2.5520
39581SOL    HW224580   1.507   6.184   9.715 -1.3866  0.7765  2.3795
39582SOL     OW24581  10.446   0.102   8.060 -0.2285 -0.6415 -0.0612
39582SOL    HW124582  10.489   0.146   7.987  2.0927 -1.6894  0.5727
39582SOL    HW224583  10.355   0.132   8.056  0.7071  2.4908 -0.9165
39583SOL     OW24584   5.928   5.617  10.401 -0.1242 -0.2205 -0.3610
39583SOL    HW124585   5.976   5.690  10.362  0.0378 -0.2656 -0.2454
39583SOL    HW224586   5.836   5.644  10.396 -0.1050 -0.2276 -0.7764
39584SOL     OW24587   1.996   8.237   4.209  0.2471  0.3045  0.1329
39584SOL    HW124588   2.088   8.236   4.233  0.5448  2.3141 -0.7232
39584SOL    HW224589   1.992   8.185   4.128  0.6970  0.4635  0.0050
39585SOL     OW24590   9.313   3.609   0.663 -0.3666 -0.1044  0.2683
39585SOL    HW124591   9.219   3.615   0.649 -0.3551 -0.9602 -0.2409
39585SOL    HW224592   9.340   3.531   0.614  0.6619  0.3305  0.1145
39586SOL     OW24593   8.932  10.320   7.413 -0.0207 -0.2421 -0.3580
39586SOL    HW124594   8.983  10.350   7.489 -0.0167 -2.6954  0.6918
39586SOL    HW224595   8.998  10.294   7.349 -0.0244  1.8083 -1.2715
39587SOL     OW24596   2.937   5.285   2.400 -0.0661  0.0070  0.1593
39587SOL    HW124597   2.859   5.275   2.454 -0.6778  2.8901 -0.0396
39587SOL    HW224598   2.912   5.347   2.332  2.1942  0.5707 -0.2568
39588SOL     OW24599   0.974   1.016   4.763 -0.4013  0.1033  0.3791
39588SOL    HW124600   0.898   1.015   4.822 -0.4345  4.0160  0.6927
39588SOL    HW224601   1.050   1.008   4.820 -0.4994 -0.7595  0.3987
39589SOL     OW24602   5.506   1.636   0.891 -0.0684 -0.0654 -0.3629
39589SOL    HW124603   5.466   1.718   0.864  0.8989  0.2549 -0.8577
39589SOL    HW224604   5.600   1.649   0.877  0.0360 -1.5512 -1.3085
39590SOL     OW24605   1.556   3.140   8.892 -0.2144 -0.2509 -0.2155
39590SOL    HW124606   1.482   3.080   8.887 -0.3637 -0.0664 -0.2487
39590SOL    HW224607   1.594   3.125   8.978  2.0492 -3.0736 -1.5474
39591SOL     OW24608   7.887   8.988   7.329 -0.1652  0.4849  0.4384
39591SOL    HW124609   7.933   9.039   7.262  0.4521  0.2667  0.6938
39591SOL    HW224610   7.860   8.908   7.285 -0.9979  0.9557  0.0783
39592SOL     OW24611   9.769   4.422   8.045  1.0813  1.3886 -0.0922
39592SOL    HW124612   9.846   4.465   8.008  1.4564  0.8432  0.0407
39592SOL    HW224613   9.802   4.378   8.124  0.9430 -0.0118 -0.7885
39593SOL     OW24614   2.064   1.949   6.372 -0.6088 -0.1205  0.0735
39593SOL    HW124615   2.065   1.854   6.389 -0.2399  0.1161  1.4485
39593SOL    HW224616   2.068   1.955   6.276  1.8888 -1.4677  0.0017
39594SOL     OW24617   0.661   2.684   8.685  0.2467  0.8226 -0.1019
39594SOL    HW124618   0.607   2.627   8.631  3.0488  0.1084 -2.4203
39594SOL    HW224619   0.725   2.626   8.726  1.9974  1.9867 -1.0265
39595SOL     OW24620  10.871   0.395   5.062 -0.0680  0.1433 -0.1181
39595SOL    HW124621  10.846   0.303   5.064  1.4551 -0.2994  0.0578
39595SOL    HW224622  10.850   0.423   4.973  1.1387 -0.9085 -0.7722
39596SOL     OW24623   6.900   8.082  10.136 -0.2134 -0.1649  0.2900
39596SOL    HW124624   6.955   8.024  10.188 -0.2086  1.1847  1.8681
39596SOL    HW224625   6.954   8.106  10.060 -0.4537 -2.6641 -0.7461
39597SOL     OW24626  10.865   7.194   9.904  0.4813  0.6691 -0.6282
39597SOL    HW124627  10.790   7.250   9.888 -0.8354 -0.8288  0.0669
39597SOL    HW224628  10.845   7.112   9.859  0.3331 -0.7790  1.8636
39598SOL     OW24629   6.051   9.535   4.573  0.1899 -0.6269  0.1359
39598SOL    HW124630   6.017   9.597   4.638 -1.0215 -1.7140  0.5843
39598SOL    HW224631   6.015   9.567   4.490  0.9158  0.1878  0.1189
39599SOL     OW24632   7.659   9.919   9.134  0.1382 -0.2891 -0.1406
39599SOL    HW124633   7.621   9.832   9.127 -0.6764  0.0413  0.1303
39599SOL    HW224634   7.753   9.903   9.145 -0.0734 -1.1444  0.4808
39600SOL     OW24635   7.606   6.206   8.097  0.3748  0.7065 -0.1678
39600SOL    HW124636   7.618   6.291   8.054 -2.0155  1.1069 -0.1820
39600SOL    HW224637   7.584   6.228   8.187 -1.3891  0.2030 -0.4449
39601SOL     OW24638   6.612   5.516   0.747 -0.3278 -0.1370 -0.6458
39601SOL    HW124639   6.678   5.573   0.786 -0.1452  0.0893 -1.2687
39601SOL    HW224640   6.557   5.575   0.695 -1.0948 -0.3018 -0.0495
39602SOL     OW24641   9.481   1.007   8.649  0.0438 -0.5172  0.0565
39602SOL    HW124642   9.520   1.086   8.611  2.2495 -1.2494  0.6368
39602SOL    HW224643   9.425   0.972   8.579 -0.8436  1.4031 -0.2702
39603SOL     OW24644   7.824   2.239   9.471 -0.4206 -0.0970  0.1334
39603SOL    HW124645   7.858   2.210   9.556  1.4492 -1.3306 -0.9463
39603SOL    HW224646   7.734   2.205   9.468 -0.2220 -0.7809  1.2870
39604SOL     OW24647   9.437   3.580   1.244 -0.0705 -0.0384 -0.2148
39604SOL    HW124648   9.490   3.511   1.205 -1.5213 -2.0349  1.1459
39604SOL    HW224649   9.481   3.602   1.325 -1.1174 -1.5631  0.8223
39605SOL     OW24650   2.559   9.594   1.116  0.4524 -0.4897  0.1707
39605SOL    HW124651   2.589   9.651   1.186  0.7508 -0.5004  0.0517
39605SOL    HW224652   2.482   9.639   1.080  1.2346  0.3189 -0.5466
39606SOL     OW24653   4.155   4.622   6.998 -0.5458  0.3487  0.0907
39606SOL    HW124654   4.076   4.572   6.975  0.0709 -0.0274 -1.2863
39606SOL    HW224655   4.220   4.555   7.019  0.1488  0.5615 -1.2949
39607SOL     OW24656  10.623   9.271   5.471 -0.2867 -0.3461 -0.2891
39607SOL    HW124657  10.683   9.345   5.461 -0.5019 -0.1183  0.0837
39607SOL    HW224658  10.561   9.281   5.399  1.8891 -2.3297 -2.6595
39608SOL     OW24659   1.544   9.359   9.896  0.3542  0.6835 -0.2734
39608SOL    HW124660   1.620   9.414   9.911 -0.5234  2.1528 -0.9230
39608SOL    HW224661   1.574   9.270   9.914  1.9654  1.3114  0.3082
39609SOL     OW24662   8.596   3.200   0.345  0.0483 -0.4935  0.2376
39609SOL    HW124663   8.569   3.246   0.424  0.6967  2.0748 -0.9624
39609SOL    HW224664   8.689   3.183   0.357 -0.4766 -3.2022  1.3945
39610SOL     OW24665   0.932   1.795   8.499  0.3465  0.4943 -0.1994
39610SOL    HW124666   0.909   1.741   8.423 -0.7566 -0.8902  1.0438
39610SOL    HW224667   1.021   1.824   8.481  0.4958 -0.6448 -1.5581
39611SOL     OW24668   9.159   3.312   9.234  0.7982 -0.6441  0.5501
39611SOL    HW124669   9.070   3.333   9.263  0.4848 -0.7097 -0.3349
39611SOL    HW224670   9.177   3.373   9.163  1.7465 -0.1532  1.1877
39612SOL     OW24671   3.200   5.637   1.878  0.1751  0.8558 -0.2670
39612SOL    HW124672   3.224   5.684   1.798  1.1435 -2.3528 -2.0196
39612SOL    HW224673   3.140   5.569   1.849  0.1954 -0.1391  1.8305
39613SOL     OW24674   4.266   9.740   1.355  0.3689 -0.1264 -0.6104
39613SOL    HW124675   4.303   9.742   1.267  1.0464  1.6200 -0.3184
39613SOL    HW224676   4.209   9.816   1.360 -1.5765 -1.5215 -0.2894
39614SOL     OW24677   5.030   0.552   9.245 -0.2735  0.3883  0.4709
39614SOL    HW124678   5.121   0.579   9.255 -0.0391 -0.0082 -0.5057
39614SOL    HW224679   5.026   0.510   9.159 -1.5566  1.1395  0.1379
39615SOL     OW24680   8.878   6.542   3.887  0.1279  0.2394 -0.5892
39615SOL    HW124681   8.848   6.453   3.902 -0.2422  0.7591  2.2943
39615SOL    HW224682   8.801   6.589   3.854 -0.3000  0.0016  0.0711
39616SOL     OW24683   0.274  10.640   7.662  0.1563 -0.4402  0.0235
39616SOL    HW124684   0.329  10.564   7.679 -0.9897 -1.2685  0.1830
39616SOL    HW224685   0.247  10.631   7.571  1.7049  0.9431 -0.6199
39617SOL     OW24686   2.784   6.770   2.714 -0.0753  0.3571 -0.4673
39617SOL    HW124687   2.829   6.722   2.784 -1.8572 -0.8828 -0.1144
39617SOL    HW224688   2.804   6.721   2.635 -0.3593  0.1205 -0.3932
39618SOL     OW24689   7.204   5.061   7.598 -0.3368  0.0288 -0.0415
39618SOL    HW124690   7.231   5.143   7.556 -2.2823  0.2690 -0.9501
39618SOL    HW224691   7.284   5.008   7.602  0.5923  1.2849 -1.0399
39619SOL     OW24692   3.546   8.067   2.439  0.3159  0.0049  0.3174
39619SOL    HW124693   3.596   8.020   2.372 -0.3567  0.1151 -0.2857
39619SOL    HW224694   3.499   7.999   2.486 -1.7043  0.0804 -1.4176
39620SOL     OW24695   6.487   3.722   7.111 -0.3833 -0.8288  0.2891
39620SOL    HW124696   6.401   3.683   7.128 -0.5758  0.1672  1.7675
39620SOL    HW224697   6.539   3.701   7.188  1.0329 -2.1542 -0.9485
39621SOL     OW24698   5.505   4.824   6.219 -0.0331  0.3535 -0.5173
39621SOL    HW124699   5.545   4.911   6.218  0.6738  0.1479  2.0035
39621SOL    HW224700   5.433   4.832   6.281  1.5637 -1.3688  1.7354
39622SOL     OW24701   3.295   4.211   9.657 -0.4247  0.3027  0.4149
39622SOL    HW124702   3.382   4.251   9.660  0.1150 -0.8029  0.1718
39622SOL    HW224703   3.308   4.129   9.608 -1.4877 -0.1493  0.8486
39623SOL     OW24704   6.112   7.296   6.461  0.3904  0.4830  0.2860
39623SOL    HW124705   6.021   7.271   6.445  0.0699  1.8962 -0.2184
39623SOL    HW224706   6.139   7.239   6.533 -1.4569  1.1900  1.6414
39624SOL     OW24707   2.242   2.402   7.961 -0.4257 -0.1197 -0.9282
39624SOL    HW124708   2.212   2.483   7.920 -1.1184 -0.0813 -0.3771
39624SOL    HW224709   2.210   2.408   8.051  0.9822 -0.2398 -0.3950
39625SOL     OW24710   7.344   2.793   3.708 -0.2263  0.2296 -0.0223
39625SOL    HW124711   7.429   2.810   3.750 -0.4800  0.9226  0.2323
39625SOL    HW224712   7.362   2.800   3.614 -0.3596  2.2938  0.0590
39626SOL     OW24713   7.819   1.826   9.883  0.6282 -0.1350 -0.3919
39626SOL    HW124714   7.830   1.857   9.973  0.3498 -1.3814  0.0909
39626SOL    HW224715   7.906   1.835   9.844  1.6627 -2.6823  1.0478
39627SOL     OW24716   3.079   3.492   9.983 -0.6936  0.8623  0.7371
39627SOL    HW124717   3.132   3.474  10.061 -1.8689  2.4619  1.9825
39627SOL    HW224718   3.142   3.499   9.912  0.4002 -0.7804  1.4969
39628SOL     OW24719   3.299   0.057   4.200  0.2739 -0.6389  0.2646
39628SOL    HW124720   3.330  -0.018   4.250 -0.1422 -0.6489  0.5099
39628SOL    HW224721   3.323   0.037   4.110 -0.4983 -1.4185  0.2180
39629SOL     OW24722   3.488  10.886   8.547  0.2681 -0.1206 -0.0033
39629SOL    HW124723   3.415  10.912   8.604  0.1998  0.7479 -0.4606
39629SOL    HW224724   3.447  10.833   8.478 -0.0664  0.9685 -0.6681
39630SOL     OW24725   1.324   1.972   4.604 -0.1938 -0.1089 -0.5921
39630SOL    HW124726   1.307   1.880   4.586 -2.2771 -0.0335  0.6417
39630SOL    HW224727   1.238   2.009   4.625  1.0693  1.1754  3.0444
39631SOL     OW24728   6.713   2.272   5.374  0.0414 -0.0505 -0.1490
39631SOL    HW124729   6.722   2.306   5.463  0.5694 -0.9441  0.1496
39631SOL    HW224730   6.661   2.339   5.328  0.1051  0.6099  0.7121
39632SOL     OW24731   5.799   9.861   5.223 -0.0367 -0.5012  0.1249
39632SOL    HW124732   5.778   9.832   5.312 -0.5896  0.3802  0.2945
39632SOL    HW224733   5.862   9.796   5.191  0.7367 -0.4370  1.4268
39633SOL     OW24734   4.143   8.986   9.577 -0.0057  0.1961  0.5979
39633SOL    HW124735   4.185   8.916   9.527  0.3022  0.4400  0.5150
39633SOL    HW224736   4.208   9.056   9.580 -0.1232  0.2854  1.1140
39634SOL     OW24737   9.023   8.419   3.047 -0.2774 -0.4938 -0.2870
39634SOL    HW124738   8.930   8.442   3.048 -0.2730 -0.4625  0.5853
39634SOL    HW224739   9.027   8.335   3.002 -0.7538 -0.5692 -0.1918
39635SOL     OW24740   5.374   6.108   2.240  0.0753 -0.0356 -0.1834
39635SOL    HW124741   5.405   6.116   2.330  0.5542  0.5235 -0.3910
39635SOL    HW224742   5.454   6.104   2.187 -0.0498  3.4781 -0.9127
39636SOL     OW24743  10.277   7.171   9.415  0.6131  0.3224 -0.3829
39636SOL    HW124744  10.268   7.129   9.329  0.4433  1.2748 -0.8400
39636SOL    HW224745  10.213   7.242   9.414  0.6004  0.3307  0.5432
39637SOL     OW24746   0.959   3.141   3.555  0.2677 -0.4161 -0.3956
39637SOL    HW124747   0.964   3.045   3.559  0.6887 -0.3537  1.1139
39637SOL    HW224748   0.867   3.161   3.572  0.8062 -0.4685  3.3529
39638SOL     OW24749   4.731   8.655   8.383 -0.2733 -0.2148  0.2647
39638SOL    HW124750   4.781   8.573   8.381 -0.7222 -0.5286  1.4273
39638SOL    HW224751   4.798   8.724   8.376  0.4997 -0.5995  2.8114
39639SOL     OW24752   4.648   4.698   9.942  0.0049  0.5947  0.3682
39639SOL    HW124753   4.598   4.618   9.924 -1.1508  1.7094 -1.7913
39639SOL    HW224754   4.723   4.668   9.993 -0.5080 -1.8423 -0.1709
39640SOL     OW24755   3.364   8.104   4.177  0.2299 -0.1028 -0.4713
39640SOL    HW124756   3.454   8.112   4.146  0.8476 -3.1388  0.1864
39640SOL    HW224757   3.372   8.063   4.263 -1.7701  0.3360 -0.0269
39641SOL     OW24758   8.798   4.966   4.564  0.5579  0.1377  0.1479
39641SOL    HW124759   8.842   4.962   4.649  3.9626 -2.1448 -1.4859
39641SOL    HW224760   8.868   4.953   4.500 -2.1936 -1.0867 -2.9166
39642SOL     OW24761   8.742   4.579   1.328  0.5289 -0.2227 -0.1794
39642SOL    HW124762   8.796   4.502   1.307  2.7128  1.5101 -1.2611
39642SOL    HW224763   8.794   4.628   1.392  0.0691  1.3168 -0.9541
39643SOL     OW24764   6.832   5.032   9.642 -0.1080 -0.1790  0.4960
39643SOL    HW124765   6.852   5.125   9.638  2.0825 -0.6056  0.4283
39643SOL    HW224766   6.738   5.028   9.657 -0.1439  2.0436  1.1351
39644SOL     OW24767   1.194   4.007   5.113  0.2035 -0.1204 -0.2312
39644SOL    HW124768   1.189   3.941   5.182 -2.8898 -1.5672 -1.6444
39644SOL    HW224769   1.109   4.051   5.117  0.3257  0.4042 -2.4789
39645SOL     OW24770   4.490   6.216   5.749  0.2059  0.1414  0.2310
39645SOL    HW124771   4.506   6.280   5.818  0.7026 -1.0655  1.2954
39645SOL    HW224772   4.468   6.268   5.672 -0.0049  1.5490  1.2010
39646SOL     OW24773  10.622   7.102   0.553  0.3244 -0.3871 -0.2774
39646SOL    HW124774  10.603   7.182   0.504  0.1761 -0.3931 -0.2293
39646SOL    HW224775  10.699   7.125   0.606  0.0893 -0.1766 -0.0258
39647SOL     OW24776   3.226   2.759  10.423 -0.7505 -0.2466 -0.0078
39647SOL    HW124777   3.238   2.677  10.376 -1.4904  0.5689 -1.7358
39647SOL    HW224778   3.136   2.785  10.404 -0.2130  1.4863 -0.4336
39648SOL     OW24779   2.464   8.077   4.116 -0.2527 -0.7982 -0.1955
39648SOL    HW124780   2.448   8.145   4.050  0.7606 -0.9736 -0.6474
39648SOL    HW224781   2.388   8.020   4.110 -0.4681 -0.4616 -0.7754
39649SOL     OW24782   2.471   5.744   6.414 -0.8209 -0.5897  0.0782
39649SOL    HW124783   2.385   5.704   6.405 -1.2251 -0.4889  2.7095
39649SOL    HW224784   2.498   5.726   6.504  2.0532 -0.8166 -0.7110
39650SOL     OW24785   2.325   8.958   2.995 -0.4605  0.1653 -0.4666
39650SOL    HW124786   2.237   8.958   3.033 -0.0766 -1.8249  0.5232
39650SOL    HW224787   2.384   8.964   3.071  0.2893 -2.0472 -0.8129
39651SOL     OW24788   9.396   8.472   7.440  0.2392 -0.1730  0.1251
39651SOL    HW124789   9.468   8.440   7.385  0.2643 -1.7767  1.0524
39651SOL    HW224790   9.438   8.529   7.504  0.3725  0.6470 -0.6589
39652SOL     OW24791  10.562   1.065   9.759 -0.4206  0.2660 -0.0522
39652SOL    HW124792  10.630   0.998   9.756  0.1712  0.8869 -0.9195
39652SOL    HW224793  10.575   1.116   9.680 -2.5822 -0.2521 -0.8144
39653SOL     OW24794   4.493   5.800   3.881  0.0771  0.0733 -0.1988
39653SOL    HW124795   4.435   5.834   3.949  1.5085  1.9316  0.1684
39653SOL    HW224796   4.480   5.705   3.885 -2.4303  0.3563  0.2777
39654SOL     OW24797   8.347   6.655   2.471 -0.6486  0.5578 -0.2093
39654SOL    HW124798   8.327   6.563   2.488 -1.6896  1.0722  1.7105
39654SOL    HW224799   8.261   6.696   2.462 -0.4228  1.8986  2.6147
39655SOL     OW24800   6.419   3.420  10.153 -0.1907  0.1341  0.0144
39655SOL    HW124801   6.388   3.468  10.076  1.1178  0.3999 -0.3622
39655SOL    HW224802   6.513   3.436  10.155 -0.2759  0.7057  2.0566
39656SOL     OW24803   8.789   5.476   1.444 -0.1166  0.4920 -0.0245
39656SOL    HW124804   8.789   5.567   1.413 -1.3264  0.7067  0.5725
39656SOL    HW224805   8.881   5.459   1.465  0.7877  0.4257 -3.3192
39657SOL     OW24806   3.248   3.350   4.729  0.2411  0.1563 -0.2240
39657SOL    HW124807   3.338   3.355   4.696  0.4376 -0.0522  0.2680
39657SOL    HW224808   3.212   3.438   4.714  0.3962  0.1286 -0.7763
39658SOL     OW24809   8.671   4.601   6.903  0.5125  0.1107 -0.0007
39658SOL    HW124810   8.734   4.536   6.874 -0.9094 -1.2884 -0.0671
39658SOL    HW224811   8.641   4.643   6.823 -0.4534 -0.9623 -0.2207
39659SOL     OW24812   5.934   7.723   0.409  0.4475 -0.0248  0.2426
39659SOL    HW124813   6.015   7.696   0.366 -0.1863  0.6878 -1.4676
39659SOL    HW224814   5.875   7.648   0.400  0.1471  0.3066 -0.6015
39660SOL     OW24815  10.739   7.734   2.532 -0.6542  0.3839 -0.2847
39660SOL    HW124816  10.718   7.818   2.493 -0.2951  0.4728 -0.2914
39660SOL    HW224817  10.802   7.694   2.471 -0.9449  0.0429 -0.3648
39661SOL     OW24818   2.758   8.720   9.430 -0.5468  0.7016 -0.2546
39661SOL    HW124819   2.853   8.716   9.422 -0.4162  0.8388  0.9904
39661SOL    HW224820   2.739   8.812   9.449 -0.8304  0.5090  0.4426
39662SOL     OW24821  10.544   8.110   8.082 -0.4400 -0.0416  0.3268
39662SOL    HW124822  10.634   8.081   8.096 -0.8870 -1.0936  1.1485
39662SOL    HW224823  10.547   8.156   7.998  0.9349  0.3020  0.5447
39663SOL     OW24824   5.625   9.429   5.026  0.0154  0.2743  0.2320
39663SOL    HW124825   5.602   9.514   5.064  1.7255  1.1000 -0.4552
39663SOL    HW224826   5.563   9.417   4.953 -1.6414 -0.1424  1.6442
39664SOL     OW24827   5.523   4.042  10.849 -0.0907 -0.6359  0.0689
39664SOL    HW124828   5.449   3.988  10.877  0.0841 -0.3081  1.2064
39664SOL    HW224829   5.524   4.115  10.911  0.7106 -0.2217 -0.4155
39665SOL     OW24830   4.316  10.168   4.115 -0.5925 -0.1345  0.2375
39665SOL    HW124831   4.384  10.167   4.182 -0.9143  0.1300  0.5687
39665SOL    HW224832   4.234  10.178   4.164 -0.8731 -0.4889 -0.1548
39666SOL     OW24833   3.995   4.736   4.511  0.5646 -0.4093  0.3665
39666SOL    HW124834   3.954   4.800   4.453  1.7829  0.6198  0.5978
39666SOL    HW224835   3.922   4.697   4.560 -0.4746 -1.1750 -1.6679
39667SOL     OW24836   9.156   9.871  10.160 -0.2965 -0.0916 -0.4520
39667SOL    HW124837   9.203   9.947  10.127 -0.6937  0.1557 -0.4416
39667SOL    HW224838   9.077   9.865  10.106  0.1622 -1.0234 -1.0619
39668SOL     OW24839   2.401   3.539   9.484 -0.5052 -0.1081 -0.0402
39668SOL    HW124840   2.490   3.568   9.504 -0.3219  0.0502 -1.0347
39668SOL    HW224841   2.386   3.467   9.545 -0.4651  1.1603  1.5347
39669SOL     OW24842   0.362   0.946   5.055 -0.3471 -0.4359 -0.0986
39669SOL    HW124843   0.271   0.917   5.056 -0.7732  0.8288 -0.9896
39669SOL    HW224844   0.411   0.870   5.087 -1.8184 -0.6697  1.7474
39670SOL     OW24845   7.169   8.291   0.681  0.2825 -0.3588 -0.0877
39670SOL    HW124846   7.186   8.198   0.667 -1.9022 -0.8577  0.0917
39670SOL    HW224847   7.129   8.321   0.599 -1.1493 -0.1956  0.6329
39671SOL     OW24848   7.811   5.563   3.496 -0.5176  0.4512 -0.9735
39671SOL    HW124849   7.764   5.508   3.559 -0.0137 -0.1233 -1.0898
39671SOL    HW224850   7.888   5.512   3.473  0.4499  1.6042 -0.3942
39672SOL     OW24851   8.050   5.260   8.046 -0.0743 -0.1894  0.0199
39672SOL    HW124852   8.144   5.263   8.068 -0.2111  1.8422  0.5708
39672SOL    HW224853   8.048   5.261   7.950  0.4845  0.6594  0.0043
39673SOL     OW24854   6.904   5.030   8.345 -0.1822 -0.1879 -0.2884
39673SOL    HW124855   6.823   5.021   8.295  0.7291 -1.3643 -1.6264
39673SOL    HW224856   6.904   4.955   8.405 -0.8382  0.7176  0.8817
39674SOL     OW24857  10.002   8.355   2.583 -0.0616  0.2123 -0.2448
39674SOL    HW124858   9.972   8.285   2.641  1.7917 -1.2100 -0.9076
39674SOL    HW224859   9.922   8.403   2.560 -1.2509 -1.0845  0.9777
39675SOL     OW24860   8.742   4.489   8.614 -0.2436  0.3603 -0.1577
39675SOL    HW124861   8.767   4.465   8.525 -0.4069 -0.8338  0.1047
39675SOL    HW224862   8.812   4.455   8.669 -0.2903  0.8370  0.2053
39676SOL     OW24863   1.130   3.682   8.388 -0.3596 -0.0569 -0.2673
39676SOL    HW124864   1.142   3.625   8.312 -0.6435 -0.9246  0.3234
39676SOL    HW224865   1.078   3.755   8.355 -1.0049 -0.7266 -0.7839
39677SOL     OW24866   5.990   5.868   5.941  1.0346 -0.0395 -0.2232
39677SOL    HW124867   5.983   5.818   6.022  0.4152  2.5919  1.4854
39677SOL    HW224868   6.075   5.912   5.948  1.6664 -0.9608 -1.7767
39678SOL     OW24869  10.423   5.125   5.049 -0.6176  0.3416  0.0406
39678SOL    HW124870  10.330   5.148   5.052 -1.3952 -2.2048 -1.3797
39678SOL    HW224871  10.467   5.207   5.026 -2.7359  1.2292 -1.1654
39679SOL     OW24872   2.700   9.118   6.431 -0.1236 -0.2707  0.2869
39679SOL    HW124873   2.665   9.077   6.510  0.3174 -0.4307  0.3994
39679SOL    HW224874   2.717   9.045   6.371 -0.2045 -0.1727  0.1428
39680SOL     OW24875   6.387   2.150   7.962  0.4392 -0.3601 -0.1719
39680SOL    HW124876   6.472   2.108   7.973  0.7002 -0.4278 -2.1428
39680SOL    HW224877   6.337   2.090   7.907 -0.0359  0.7764 -1.0234
39681SOL     OW24878   5.410   6.645   3.241 -0.5607  0.2915  0.2084
39681SOL    HW124879   5.354   6.571   3.266 -0.1068 -0.1703 -0.1284
39681SOL    HW224880   5.349   6.717   3.225 -0.9207  0.4361  1.9990
39682SOL     OW24881   5.349   0.181   1.078 -0.3016  0.2820 -0.4226
39682SOL    HW124882   5.301   0.251   1.122 -1.6159 -0.7314 -0.1543
39682SOL    HW224883   5.394   0.224   1.006 -1.7768  1.2928 -0.7938
39683SOL     OW24884   7.154   1.452   3.036 -0.0798 -0.0259 -0.2655
39683SOL    HW124885   7.110   1.448   3.121 -0.3726 -0.5687 -0.4367
39683SOL    HW224886   7.214   1.378   3.036 -2.4844 -2.1214 -1.8149
39684SOL     OW24887   2.807   5.852   9.924 -0.2184  0.2991 -0.1251
39684SOL    HW124888   2.804   5.947   9.927 -0.2751  0.3034 -0.3478
39684SOL    HW224889   2.900   5.831   9.911 -0.1377  0.3117  0.4070
39685SOL     OW24890   6.467   7.219   5.407  0.0192 -0.8105  0.0837
39685SOL    HW124891   6.493   7.170   5.485  3.2705 -0.9700 -0.9469
39685SOL    HW224892   6.392   7.272   5.436  0.6356 -1.3744  3.0834
39686SOL     OW24893   3.925   4.927   6.608  0.5726  0.2095  0.5552
39686SOL    HW124894   3.935   4.965   6.695 -0.9855 -0.8185  1.2307
39686SOL    HW224895   3.869   4.850   6.622  1.1067 -0.5523 -1.2097
39687SOL     OW24896   2.656   2.133   9.994 -0.2435 -0.4726 -0.2041
39687SOL    HW124897   2.752   2.128   9.998 -0.2821 -0.4962  1.3399
39687SOL    HW224898   2.637   2.226  10.003 -0.3864 -0.5925  0.8892
39688SOL     OW24899   2.941   3.342   1.807  0.0228 -0.0249 -0.9445
39688SOL    HW124900   2.958   3.252   1.780 -0.1706 -0.1190 -0.7468
39688SOL    HW224901   2.883   3.377   1.740  0.0828 -0.0512 -1.0108
39689SOL     OW24902   8.661   0.493   9.033  0.5679  0.4589  0.2572
39689SOL    HW124903   8.719   0.480   9.108  0.8662 -1.9370 -0.3143
39689SOL    HW224904   8.578   0.455   9.060  0.2322  0.9352 -0.0977
39690SOL     OW24905   7.708   0.888   1.144 -0.0228  0.5718 -0.2977
39690SOL    HW124906   7.729   0.919   1.232 -1.5766  1.9963 -0.3839
39690SOL    HW224907   7.709   0.967   1.090 -1.3851  0.0822 -1.0859
39691SOL     OW24908   8.052   9.278   9.130 -0.3383  0.1116  0.0835
39691SOL    HW124909   7.982   9.295   9.067 -0.4071  0.5469  0.2723
39691SOL    HW224910   8.130   9.268   9.076 -0.2175  1.4299 -0.0364
39692SOL     OW24911   7.447   4.245   4.944 -0.5199  0.4007  0.2188
39692SOL    HW124912   7.524   4.194   4.917 -1.3298 -1.4501  1.2231
39692SOL    HW224913   7.453   4.247   5.039 -0.7529  1.8510  0.2141
39693SOL     OW24914   6.386   5.689   7.677  0.1695  0.7165  0.2597
39693SOL    HW124915   6.336   5.710   7.756 -2.7120 -1.1467 -0.9059
39693SOL    HW224916   6.417   5.600   7.691  0.5918  0.7777 -0.2667
39694SOL     OW24917   5.544   2.449   4.343  0.2358  0.0762  0.0061
39694SOL    HW124918   5.461   2.488   4.318  0.2302  0.6536  0.8894
39694SOL    HW224919   5.608   2.519   4.332  0.3402  0.1338  0.8785
39695SOL     OW24920   0.716   4.075   6.573 -0.2442  0.3479  0.3671
39695SOL    HW124921   0.796   4.046   6.530 -0.5370  0.3350 -0.1709
39695SOL    HW224922   0.739   4.079   6.666 -0.1917 -1.6475  0.4869
39696SOL     OW24923   2.219   7.434   4.227  0.7803  0.4186 -0.0947
39696SOL    HW124924   2.263   7.519   4.230 -0.7875  1.2626  1.0608
39696SOL    HW224925   2.233   7.397   4.314 -0.3820  0.5384  0.1701
39697SOL     OW24926   8.523   5.406   2.158 -0.2782  0.1793  0.1308
39697SOL    HW124927   8.618   5.419   2.156 -0.2233 -0.1247  0.7920
39697SOL    HW224928   8.512   5.311   2.157 -0.5723  0.2135  0.3843
39698SOL     OW24929   3.356   8.343   1.309  0.0772 -0.1275  0.6390
39698SOL    HW124930   3.301   8.338   1.231  1.5092  1.4480 -0.5609
39698SOL    HW224931   3.409   8.263   1.307 -0.7030 -0.6529  0.6663
39699SOL     OW24932   4.144   5.526   6.623 -0.1381 -0.1011 -0.1578
39699SOL    HW124933   4.207   5.464   6.659  0.4335  0.5746  0.0188
39699SOL    HW224934   4.060   5.500   6.661  0.1359 -0.6070  0.1113
39700SOL     OW24935   0.956   7.379   5.230  0.2726 -0.0807  0.2447
39700SOL    HW124936   0.875   7.429   5.225  0.0020 -0.5924 -0.9129
39700SOL    HW224937   0.930   7.297   5.273  0.5491  0.4270  1.4154
39701SOL     OW24938  10.245  10.686   9.611  0.2059  0.2212 -0.3373
39701SOL    HW124939  10.173  10.624   9.629  0.4326  0.0607  0.0153
39701SOL    HW224940  10.309  10.669   9.680  0.2913  0.8257 -0.2649
39702SOL     OW24941   3.505   7.583   0.492 -0.5772  0.6507  0.1739
39702SOL    HW124942   3.477   7.496   0.464 -2.5020  0.5468  2.1076
39702SOL    HW224943   3.558   7.567   0.570 -1.1010  1.1701  0.6534
39703SOL     OW24944   2.485   5.872  10.047  0.0897 -0.1955 -0.3392
39703SOL    HW124945   2.398   5.889  10.081  0.3529  0.9347 -0.1946
39703SOL    HW224946   2.510   5.953  10.003  1.0525 -0.5115 -0.3993
39704SOL     OW24947   1.488  10.649   3.313  0.1836 -0.6219 -0.0358
39704SOL    HW124948   1.417  10.669   3.375  0.2531  0.1955 -0.2216
39704SOL    HW224949   1.566  10.687   3.353  0.2771 -0.3318 -0.4918
39705SOL     OW24950   4.177   3.867   2.321  0.0139 -0.2112  0.3049
39705SOL    HW124951   4.112   3.836   2.385 -0.4874 -0.4004 -0.2824
39705SOL    HW224952   4.190   3.792   2.263  1.2188 -0.3786  0.7665
39706SOL     OW24953   3.664   8.690   8.267 -0.3390  0.3138 -0.8433
39706SOL    HW124954   3.638   8.741   8.344  1.7676 -0.8283  0.7599
39706SOL    HW224955   3.752   8.722   8.247  0.2102 -1.2663 -1.0538
39707SOL     OW24956   7.649   3.343   0.228 -0.0330  0.2684 -0.1954
39707SOL    HW124957   7.606   3.428   0.234 -0.3846  0.0074  1.1929
39707SOL    HW224958   7.593   3.292   0.169 -0.4213  0.6336 -0.1492
39708SOL     OW24959   1.795   0.665   6.324  0.0963  0.1944 -0.1538
39708SOL    HW124960   1.875   0.614   6.333  0.2376  0.4105 -0.1868
39708SOL    HW224961   1.820   0.753   6.350 -0.2563  0.1528  0.3260
39709SOL     OW24962   2.743   3.513   3.387 -0.1911 -0.1323  0.4096
39709SOL    HW124963   2.770   3.536   3.298  0.1975 -0.7455  0.3582
39709SOL    HW224964   2.771   3.587   3.441  0.3323 -0.1248  0.1373
39710SOL     OW24965   2.431   6.060   4.645 -0.2622  0.0846  0.0932
39710SOL    HW124966   2.453   6.088   4.734 -0.4714  2.5714 -0.5673
39710SOL    HW224967   2.511   6.018   4.612 -0.9615 -3.3833  2.2511
39711SOL     OW24968   8.152   2.772   9.219 -0.3665  0.3937  0.0039
39711SOL    HW124969   8.229   2.728   9.184 -0.3314  0.9265 -0.6172
39711SOL    HW224970   8.176   2.865   9.218 -1.1480  0.5955 -0.5476
39712SOL     OW24971  10.839   4.299  10.900  0.1293  0.0633  0.3362
39712SOL    HW124972  10.762   4.242  10.907 -0.1857  0.2700 -1.1966
39712SOL    HW224973  10.900   4.264  10.965 -0.7831 -0.8637  0.7250
39713SOL     OW24974   4.037   0.156   9.574  0.3662 -0.4180 -0.0810
39713SOL    HW124975   3.982   0.088   9.612 -0.2183 -0.1582 -0.4418
39713SOL    HW224976   4.117   0.154   9.625 -0.1559 -0.5019  0.7489
39714SOL     OW24977   7.311   5.158   4.176  0.4959  0.1347 -0.3070
39714SOL    HW124978   7.366   5.204   4.113 -0.9399  0.7726 -1.1522
39714SOL    HW224979   7.312   5.214   4.254  1.0089  0.1577 -0.3278
39715SOL     OW24980   5.381   6.640   4.911 -0.0815  0.0808 -0.5077
39715SOL    HW124981   5.438   6.654   4.835  0.3407  0.2280 -0.1721
39715SOL    HW224982   5.423   6.569   4.959  0.5260  1.0278  0.4068
39716SOL     OW24983   4.767   3.902   8.413  0.1264  0.3227 -0.3798
39716SOL    HW124984   4.856   3.928   8.390  0.8494  0.1674  2.0504
39716SOL    HW224985   4.712   3.975   8.382  1.3596  1.5054  0.1335
39717SOL     OW24986   8.761   5.256   7.237  0.7361  0.4371 -0.5730
39717SOL    HW124987   8.670   5.272   7.260  1.3092  3.1574  0.2379
39717SOL    HW224988   8.775   5.163   7.254 -1.8098  0.0071 -0.5449
39718SOL     OW24989   8.070   4.674  10.666  0.4624  0.1989  0.4075
39718SOL    HW124990   7.994   4.712  10.710  0.0450 -1.5949  1.3495
39718SOL    HW224991   8.073   4.718  10.581 -2.9546 -1.1264 -0.5562
39719SOL     OW24992   4.841   8.174   4.248  0.1885 -0.0824  0.0148
39719SOL    HW124993   4.917   8.206   4.298  0.9831  0.1071 -1.2786
39719SOL    HW224994   4.840   8.080   4.264 -0.6920  0.1911  1.8612
39720SOL     OW24995   1.562   1.876   4.912 -0.6748 -0.0247  0.1917
39720SOL    HW124996   1.630   1.826   4.867 -0.4332  0.4236  0.0513
39720SOL    HW224997   1.576   1.857   5.005 -1.6308 -1.5286  0.0589
39721SOL     OW24998   0.587   0.192   3.515 -0.1682 -0.3012  0.1528
39721SOL    HW124999   0.577   0.284   3.540 -1.4716  0.2027 -1.9932
39721SOL    HW225000   0.664   0.163   3.564  1.1238  2.3063 -0.1278
39722SOL     OW25001   6.885  10.924   6.255  0.6205  0.5217 -0.2814
39722SOL    HW125002   6.829  10.983   6.205  0.3962  0.1922 -0.4261
39722SOL    HW225003   6.831  10.896   6.329  1.2969  1.8075  0.7308
39723SOL     OW25004   7.872   6.274   6.671  0.2748 -0.1279 -0.0881
39723SOL    HW125005   7.846   6.193   6.715 -1.0333 -0.0983 -0.7599
39723SOL    HW225006   7.864   6.342   6.738  0.0022 -0.3480  0.1043
39724SOL     OW25007   3.999   9.500  10.791  0.1906 -0.3106 -0.2852
39724SOL    HW125008   4.024   9.439  10.721 -1.5136 -1.1336 -0.2172
39724SOL    HW225009   3.958   9.574  10.745  0.7341  0.0182 -0.2544
39725SOL     OW25010   4.012   0.685   3.271 -0.6248  0.2861  0.1864
39725SOL    HW125011   4.085   0.639   3.311  0.5903  1.7220 -0.2709
39725SOL    HW225012   3.970   0.620   3.215 -0.3829 -0.8562  1.2962
39726SOL     OW25013   6.376   7.771  10.613 -0.1709 -0.0521  0.2981
39726SOL    HW125014   6.394   7.723  10.694 -0.9279  1.2951  1.2891
39726SOL    HW225015   6.406   7.860  10.630 -0.3089  0.2448 -0.9198
39727SOL     OW25016   2.000   0.350   9.123 -0.0256 -0.3831  0.0285
39727SOL    HW125017   1.934   0.297   9.078  0.2583 -1.9077  1.3062
39727SOL    HW225018   1.976   0.344   9.216  1.9868 -1.1698  0.5592
39728SOL     OW25019   5.024   8.147   5.310 -0.4407 -0.1304 -0.5183
39728SOL    HW125020   5.038   8.083   5.239  0.2235  0.2506 -0.7437
39728SOL    HW225021   5.027   8.232   5.266  1.4135  0.2009  0.1259
39729SOL     OW25022   1.358   8.575   0.112  0.2075 -0.1101  0.1055
39729SOL    HW125023   1.439   8.534   0.083  0.7288 -0.0263  1.3683
39729SOL    HW225024   1.310   8.594   0.032  0.1829 -2.6763 -0.5777
39730SOL     OW25025   4.287   9.183   7.676 -0.0660 -0.2804  0.1284
39730SOL    HW125026   4.233   9.238   7.732 -1.3134 -1.4046  0.0747
39730SOL    HW225027   4.313   9.241   7.604  0.8742  0.9443  1.3778
39731SOL     OW25028   3.237   7.440  10.650  0.3763  0.1255  0.0905
39731SOL    HW125029   3.204   7.487  10.727 -2.3268  0.8453 -1.3537
39731SOL    HW225030   3.226   7.503  10.578  0.9218 -1.1884 -1.1877
39732SOL     OW25031   4.526   8.397   6.327 -0.0290 -0.2128 -0.2979
39732SOL    HW125032   4.580   8.341   6.272  1.0492  0.6136 -0.1009
39732SOL    HW225033   4.542   8.367   6.416 -0.0101 -0.0610 -0.2498
39733SOL     OW25034   7.995   7.507   2.627 -0.2300  0.0749  0.0746
39733SOL    HW125035   8.004   7.601   2.618 -0.3395  0.2255  1.4128
39733SOL    HW225036   7.992   7.491   2.721 -1.9580 -1.0919 -0.1199
39734SOL     OW25037   8.194   2.940   0.161  0.6357 -0.0184 -0.5386
39734SOL    HW125038   8.181   3.003   0.232  1.0165  0.7668 -1.1466
39734SOL    HW225039   8.235   2.991   0.091  0.6376 -0.8693 -1.1745
39735SOL     OW25040   6.505  10.581   2.227 -0.2937  0.5172  0.1015
39735SOL    HW125041   6.478  10.673   2.234  2.7453  1.5940 -1.0398
39735SOL    HW225042   6.600  10.583   2.237 -0.1237 -2.5059 -0.2073
39736SOL     OW25043   4.702   2.599   6.762 -0.6833  0.1146 -0.1608
39736SOL    HW125044   4.750   2.641   6.834 -3.7839  1.4001  1.3400
39736SOL    HW225045   4.679   2.672   6.704 -1.2113 -0.4141 -0.6219
39737SOL     OW25046   5.242   2.267   4.333  0.7985  0.2864  0.0268
39737SOL    HW125047   5.214   2.177   4.348  0.3264  0.3119 -0.6681
39737SOL    HW225048   5.314   2.280   4.395  1.5961 -0.9152 -0.5907
39738SOL     OW25049   1.443   1.553   6.680  0.6298 -0.2736 -0.4055
39738SOL    HW125050   1.507   1.565   6.750 -1.9282 -0.1557  2.0765
39738SOL    HW225051   1.407   1.641   6.664 -1.4630 -0.8196  0.9269
39739SOL     OW25052  10.609   5.877   2.182  0.2098  0.2009  0.2473
39739SOL    HW125053  10.520   5.904   2.205 -0.4604 -0.3339 -1.5473
39739SOL    HW225054  10.640   5.945   2.121 -0.1680 -1.1641 -1.5445
39740SOL     OW25055   1.635   9.393   4.006  0.4523  0.6887  0.0544
39740SOL    HW125056   1.708   9.448   3.974  0.0806  0.6510 -0.9036
39740SOL    HW225057   1.632   9.320   3.945 -1.8927  1.8935 -1.4317
39741SOL     OW25058   9.276   8.471   5.801  0.1527 -0.0159  0.2174
39741SOL    HW125059   9.284   8.380   5.773 -2.3078 -0.5363  0.9482
39741SOL    HW225060   9.239   8.517   5.726  3.9589  1.1184 -1.1752
39742SOL     OW25061   9.966   9.601   9.009  0.0500  0.1913 -0.2221
39742SOL    HW125062   9.871   9.589   9.006  0.0765 -0.4068  0.9030
39742SOL    HW225063   9.978   9.696   9.005 -0.6839  0.3629  1.2325
39743SOL     OW25064   0.855   0.493   6.227 -0.0108 -0.2238 -0.3944
39743SOL    HW125065   0.911   0.425   6.264 -0.7443 -0.5947  0.0662
39743SOL    HW225066   0.799   0.446   6.165 -1.2417 -0.2548  0.6949
39744SOL     OW25067   8.813  10.548   7.049  0.4120 -0.1921  0.1106
39744SOL    HW125068   8.834  10.492   7.124 -0.7155 -2.1638 -0.9551
39744SOL    HW225069   8.881  10.616   7.050  0.7339 -0.4631  2.5656
39745SOL     OW25070   9.899   6.836   6.934 -0.3554  0.0765  0.3596
39745SOL    HW125071   9.972   6.898   6.945 -0.6518  0.3871  0.5890
39745SOL    HW225072   9.906   6.808   6.842 -0.4597  0.7630  0.1361
39746SOL     OW25073   8.712   6.845   0.611  0.3964  0.2062  0.0891
39746SOL    HW125074   8.667   6.763   0.633 -0.1643  0.5341  0.1817
39746SOL    HW225075   8.748   6.875   0.694 -0.2776  0.5732  0.2628
39747SOL     OW25076   4.447   2.788   9.857 -0.0656  0.2631  0.4854
39747SOL    HW125077   4.499   2.718   9.896  0.7732  1.0431  0.8003
39747SOL    HW225078   4.512   2.846   9.817 -0.7679  0.7112 -0.0257
39748SOL     OW25079   4.292   4.687   4.174 -0.5666 -0.0153 -0.3681
39748SOL    HW125080   4.290   4.625   4.101 -0.5487 -0.3353 -0.1013
39748SOL    HW225081   4.246   4.642   4.245 -0.7783  0.3802 -0.2498
39749SOL     OW25082   0.135   0.833   8.533 -0.7203 -0.2449  0.0425
39749SOL    HW125083   0.100   0.764   8.477  0.1734 -1.2874  0.7501
39749SOL    HW225084   0.227   0.811   8.546 -0.7843  0.2268  1.5379
39750SOL     OW25085   5.751   8.625   0.631  0.0720 -0.3377 -0.1500
39750SOL    HW125086   5.710   8.538   0.629  2.7092 -1.6737 -0.9753
39750SOL    HW225087   5.787   8.633   0.719 -0.9856  0.3974  0.2428
39751SOL     OW25088   6.215   0.365   3.766  0.2110  0.3742  0.4701
39751SOL    HW125089   6.266   0.371   3.846  1.2289  1.8237 -0.2372
39751SOL    HW225090   6.261   0.422   3.704 -1.5991  0.8084 -0.5563
39752SOL     OW25091   7.772   8.189   4.390 -0.2939  0.2198 -0.3464
39752SOL    HW125092   7.683   8.186   4.425  0.1201 -0.5953  0.7078
39752SOL    HW225093   7.779   8.111   4.335  0.2585 -0.6585  0.9084
39753SOL     OW25094   6.717   0.685   6.822  0.5382  0.1364  0.4145
39753SOL    HW125095   6.691   0.596   6.846 -1.3844  0.3157 -0.8014
39753SOL    HW225096   6.689   0.739   6.896  0.9448 -0.1328  0.7749
39754SOL     OW25097   8.221   8.472  10.203 -0.0561  0.2325 -0.5228
39754SOL    HW125098   8.215   8.560  10.240 -0.9978  0.3520 -0.9337
39754SOL    HW225099   8.282   8.481  10.130 -0.7303  0.7206 -1.0361
39755SOL     OW25100   4.415   6.974   2.104  0.1387 -0.1717 -0.4331
39755SOL    HW125101   4.467   6.897   2.083  0.5285 -0.4094  1.2842
39755SOL    HW225102   4.327   6.941   2.120  0.4777 -0.3923  1.0752
39756SOL     OW25103   7.938   7.291  10.024 -0.2134 -0.2387  0.0874
39756SOL    HW125104   7.859   7.247   9.994 -0.2444 -0.7364  0.8735
39756SOL    HW225105   8.009   7.231  10.002 -0.2018 -0.4455  0.6501
39757SOL     OW25106   9.017   4.994   5.183  0.1567 -0.0568  0.0015
39757SOL    HW125107   9.101   5.034   5.160 -0.7729  2.0941  0.0809
39757SOL    HW225108   9.039   4.927   5.248  1.9666 -0.8161 -1.3037
39758SOL     OW25109   4.602   2.165   5.798 -0.4949  1.1493  0.1620
39758SOL    HW125110   4.530   2.152   5.861 -0.7820  2.4696  0.1274
39758SOL    HW225111   4.570   2.123   5.718 -0.6755  0.6027  0.5071
39759SOL     OW25112   2.987   8.544   2.481 -0.2792  0.7910 -1.0646
39759SOL    HW125113   3.054   8.612   2.475  1.7067 -1.1105 -1.8650
39759SOL    HW225114   3.036   8.465   2.505 -2.6596 -0.1387  1.1513
39760SOL     OW25115   3.949   7.899   0.174  0.3730 -0.3166 -0.1642
39760SOL    HW125116   3.896   7.903   0.095  1.5075 -0.6263 -0.9601
39760SOL    HW225117   3.917   7.972   0.228  0.0760  0.3411 -1.2027
39761SOL     OW25118   4.976   4.705   0.374  0.2904 -0.2199 -0.0081
39761SOL    HW125119   4.967   4.622   0.421 -0.5748  1.0964  2.3286
39761SOL    HW225120   4.890   4.747   0.384  0.8026  1.0869 -0.8817
39762SOL     OW25121   9.968   5.708   5.983 -0.2326  0.3415  0.1487
39762SOL    HW125122   9.932   5.702   5.894 -1.0470  1.6597  0.3637
39762SOL    HW225123  10.017   5.627   5.994 -1.3938 -0.5621 -0.9526
39763SOL     OW25124   0.063  10.037   1.949  0.0403 -0.0810  0.4714
39763SOL    HW125125   0.120   9.983   2.003  1.3364 -0.1062 -0.8552
39763SOL    HW225126   0.117  10.062   1.874 -1.5688  0.2377 -0.6450
39764SOL     OW25127  10.612   7.734   8.458 -0.0346  0.0199 -0.2025
39764SOL    HW125128  10.684   7.704   8.403 -0.5596  0.3872 -1.1031
39764SOL    HW225129  10.593   7.659   8.515  2.2371  0.5072  1.3435
39765SOL     OW25130   2.979   1.781   2.582 -0.1689  0.1774  0.8391
39765SOL    HW125131   3.056   1.771   2.638 -1.1303 -1.1927  1.9826
39765SOL    HW225132   2.955   1.692   2.556  0.3946  0.7770 -2.0647
39766SOL     OW25133   4.392   4.474   2.782  0.2684 -0.3795 -0.7399
39766SOL    HW125134   4.484   4.485   2.757  0.3771 -0.4002 -0.3514
39766SOL    HW225135   4.379   4.379   2.787 -0.0872 -0.4155 -1.9287
39767SOL     OW25136   1.448   0.025   2.289 -0.6099 -0.4279  0.2897
39767SOL    HW125137   1.526  -0.030   2.297 -0.4875 -0.2991  0.0343
39767SOL    HW225138   1.431   0.028   2.194 -1.7429 -1.5786  0.4364
39768SOL     OW25139   8.762   7.537  10.564  0.3550 -0.3565  0.1004
39768SOL    HW125140   8.784   7.457  10.611  1.0633  0.4217  1.1362
39768SOL    HW225141   8.690   7.575  10.614 -1.4511 -1.3761 -1.5903
39769SOL     OW25142   5.902  10.334   3.745 -0.1128 -0.0947 -0.0599
39769SOL    HW125143   5.974  10.396   3.733  0.1205 -0.1774  0.8353
39769SOL    HW225144   5.864  10.324   3.658  0.7129  0.2535 -0.4707
39770SOL     OW25145   4.631   1.265   8.823 -0.4717 -0.6513  0.3692
39770SOL    HW125146   4.616   1.357   8.802  0.3857  0.1042  2.7138
39770SOL    HW225147   4.610   1.218   8.742 -0.8899  1.5850 -0.9091
39771SOL     OW25148   4.148   5.568   7.472 -0.3099 -0.3147  0.0054
39771SOL    HW125149   4.151   5.558   7.377  0.9894  1.3746 -0.1771
39771SOL    HW225150   4.223   5.517   7.504 -0.2518 -0.2102  0.0377
39772SOL     OW25151   5.855  10.021   5.560 -0.2132  0.0291  0.0585
39772SOL    HW125152   5.948  10.030   5.578 -0.6809 -0.2648  3.0887
39772SOL    HW225153   5.820  10.110   5.568  0.0191  0.5558 -3.3019
39773SOL     OW25154   3.871   3.593   4.600 -0.0370  0.2228  0.0869
39773SOL    HW125155   3.966   3.580   4.590  0.0899 -1.0196  2.1868
39773SOL    HW225156   3.833   3.548   4.525  0.9756 -1.3410  0.4616
39774SOL     OW25157  10.575   6.452   8.623 -0.1530 -0.3129 -0.6407
39774SOL    HW125158  10.653   6.419   8.578 -0.4598 -0.5998 -0.9685
39774SOL    HW225159  10.569   6.400   8.703  2.0414  2.0874  1.2739
39775SOL     OW25160   4.821   9.037   2.913 -0.1874 -0.3363 -0.8499
39775SOL    HW125161   4.848   9.034   2.821 -1.0621 -0.6271 -1.1025
39775SOL    HW225162   4.903   9.053   2.961  0.2325  0.1007 -1.6937
39776SOL     OW25163   3.208   2.162   0.992  0.1478  0.1561 -0.3997
39776SOL    HW125164   3.180   2.251   1.016  0.6334  0.6271 -1.4784
39776SOL    HW225165   3.182   2.154   0.900  0.2079 -0.7923 -0.3400
39777SOL     OW25166   6.115   6.495   3.544 -0.0830  0.1856 -0.1787
39777SOL    HW125167   6.080   6.477   3.457  0.0235  0.1549 -0.2156
39777SOL    HW225168   6.055   6.559   3.582 -0.8820 -0.7972  0.2371
39778SOL     OW25169   2.674  10.520   9.911 -0.2223 -0.6242 -0.1172
39778SOL    HW125170   2.644  10.520   9.820 -0.0497  0.5086 -0.1882
39778SOL    HW225171   2.734  10.446   9.917  2.7478  1.4393 -1.9700
39779SOL     OW25172   8.242   6.325   0.865  0.3548 -0.6331 -0.4223
39779SOL    HW125173   8.307   6.299   0.800 -0.3675 -0.5745 -1.1834
39779SOL    HW225174   8.158   6.300   0.827 -0.2623  1.4192 -0.5142
39780SOL     OW25175   2.137   3.860   6.880 -0.4302  0.1997 -0.3659
39780SOL    HW125176   2.210   3.859   6.818  0.7058 -0.1807  0.9318
39780SOL    HW225177   2.160   3.793   6.945 -2.2119 -0.3160 -0.2190
39781SOL     OW25178   3.306   3.527   2.440 -0.1658  0.2463  0.2668
39781SOL    HW125179   3.349   3.611   2.454 -0.5502  0.5345 -0.2716
39781SOL    HW225180   3.374   3.462   2.460  0.5460  0.6942 -0.6131
39782SOL     OW25181   7.473  10.690   9.434  0.3561 -0.1203 -0.3414
39782SOL    HW125182   7.396  10.658   9.387  0.7265  0.5694 -1.4477
39782SOL    HW225183   7.520  10.611   9.460 -0.4823 -0.5358 -0.0556
39783SOL     OW25184   1.016   8.028   8.916  0.0318  0.0431 -0.2355
39783SOL    HW125185   1.065   7.948   8.935 -1.2239 -1.1006 -1.5667
39783SOL    HW225186   1.078   8.099   8.934  1.0965 -1.1941  1.2324
39784SOL     OW25187   6.081   4.110   9.101 -0.3089  0.4951 -0.3511
39784SOL    HW125188   6.109   4.192   9.060  0.8099 -0.0766 -0.7647
39784SOL    HW225189   6.156   4.083   9.154 -0.1498 -0.8984 -1.2268
39785SOL     OW25190   0.898   7.709   0.209  0.4027  0.1421  0.1007
39785SOL    HW125191   0.829   7.692   0.274 -0.6299 -2.4062 -1.5163
39785SOL    HW225192   0.854   7.759   0.140  0.7979  0.4791  0.0848
39786SOL     OW25193   4.972   6.519   1.652  0.0518  0.1106 -0.0982
39786SOL    HW125194   5.064   6.533   1.632  0.0359  1.3012  0.5531
39786SOL    HW225195   4.967   6.528   1.747 -0.7427  0.1064 -0.1353
39787SOL     OW25196   6.720   4.819   8.146 -0.3940 -0.3776 -0.0198
39787SOL    HW125197   6.712   4.727   8.171  1.9387 -0.5529  0.2999
39787SOL    HW225198   6.802   4.824   8.098 -1.3150  1.2701 -1.5317
39788SOL     OW25199   2.801   1.091   3.544 -0.1412 -0.3147  0.1932
39788SOL    HW125200   2.745   1.164   3.571  0.1930  1.6468 -3.7234
39788SOL    HW225201   2.885   1.132   3.523 -0.4863 -1.2962 -3.9402
39789SOL     OW25202   3.681  10.791  10.008 -0.1468 -0.1392 -0.5582
39789SOL    HW125203   3.690  10.777  10.102 -0.8295 -0.9817 -0.6014
39789SOL    HW225204   3.765  10.765   9.971  1.1244  2.7578  0.0371
39790SOL     OW25205   5.922   1.228   5.543  0.1624 -0.0733 -0.5092
39790SOL    HW125206   5.937   1.304   5.488 -0.7002  2.1708  2.1342
39790SOL    HW225207   5.994   1.229   5.606 -0.1666 -1.1341 -0.0870
39791SOL     OW25208  10.558  10.359   7.817  0.1507 -0.5082  0.7322
39791SOL    HW125209  10.617  10.365   7.893  0.9428 -0.3041  0.1229
39791SOL    HW225210  10.494  10.428   7.831  0.6526 -0.0689  0.9245
39792SOL     OW25211   4.325   0.264   5.958  0.0339  1.0351  0.1032
39792SOL    HW125212   4.388   0.222   5.899 -2.0966 -1.9825 -0.2369
39792SOL    HW225213   4.250   0.285   5.902 -0.6047  1.4960  1.1035
39793SOL     OW25214   3.440   4.658   0.091  0.7322  0.0883 -0.1353
39793SOL    HW125215   3.434   4.744   0.049 -0.5633  0.2574  0.3301
39793SOL    HW225216   3.352   4.622   0.082  0.9673 -0.7158  0.6653
39794SOL     OW25217   9.419   9.705   6.822 -0.2216  0.3007 -0.0321
39794SOL    HW125218   9.411   9.645   6.897 -0.7955  1.6786  1.0511
39794SOL    HW225219   9.410   9.648   6.745  1.5342 -1.3397  0.8810
39795SOL     OW25220  10.757   8.024   5.202  0.7430 -0.5116 -0.0643
39795SOL    HW125221  10.789   7.941   5.166 -0.8250 -1.1134 -0.1285
39795SOL    HW225222  10.675   8.002   5.245 -0.5830  1.2647 -1.5175
39796SOL     OW25223   1.335   5.046   0.879  0.0040  0.2638 -0.3952
39796SOL    HW125224   1.336   4.991   0.801  0.9632 -0.9414  0.4139
39796SOL    HW225225   1.409   5.014   0.931 -0.3891  1.2758  0.8363
39797SOL     OW25226   0.995   7.691  10.793 -0.4991  0.6664  0.5148
39797SOL    HW125227   1.042   7.725  10.869  1.7777 -0.4576 -0.3011
39797SOL    HW225228   0.982   7.598  10.812 -1.9078  0.8340  0.4552
39798SOL     OW25229   0.197   5.353   4.731  0.0392  0.6272 -0.4330
39798SOL    HW125230   0.250   5.404   4.793  0.0059  1.3044 -0.9555
39798SOL    HW225231   0.243   5.270   4.724  2.4982  2.0390 -2.7731
39799SOL     OW25232   8.014   3.585   5.544  0.2060 -0.3740  0.2138
39799SOL    HW125233   7.977   3.648   5.607 -0.8113 -0.2505 -0.4859
39799SOL    HW225234   8.015   3.502   5.591 -3.0642 -0.8854 -0.3819
39800SOL     OW25235   0.203   4.570   2.788  0.2851 -0.1715 -0.0321
39800SOL    HW125236   0.169   4.482   2.799 -2.0329  0.6732  0.2028
39800SOL    HW225237   0.249   4.568   2.704  0.1707 -1.5539 -0.0789
39801SOL     OW25238   1.081   8.885   7.471 -0.5474 -0.2805 -0.1819
39801SOL    HW125239   1.084   8.823   7.398  0.1293  2.7052 -2.9225
39801SOL    HW225240   1.173   8.899   7.494 -0.5696  0.7303 -0.6316
39802SOL     OW25241   3.700   5.076   5.176 -0.2784  0.0493  0.3683
39802SOL    HW125242   3.695   5.126   5.257  3.3972  0.9721  0.2241
39802SOL    HW225243   3.721   4.987   5.204  2.3052  0.6382  0.5197
39803SOL     OW25244   3.059   1.280   0.049  0.5296  0.4154 -0.6906
39803SOL    HW125245   2.970   1.288   0.084 -0.0612  2.6009 -2.4448
39803SOL    HW225246   3.102   1.361   0.077  1.1405  0.5482 -1.9527
39804SOL     OW25247   2.817   6.123   7.455  0.0637 -0.8259  0.0648
39804SOL    HW125248   2.853   6.083   7.534  0.4159 -1.1552 -0.2535
39804SOL    HW225249   2.890   6.173   7.418 -1.1378  2.7959  2.0933
39805SOL     OW25250   1.011  10.545   1.235  0.3739  0.0527 -0.2182
39805SOL    HW125251   0.967  10.628   1.253  0.0232 -0.0114 -0.7743
39805SOL    HW225252   1.039  10.514   1.321 -0.1894  0.3541  0.0764
39806SOL     OW25253   1.790   1.860  10.703 -0.2260 -0.1384 -0.2150
39806SOL    HW125254   1.702   1.888  10.677 -0.7565 -0.1057  1.4913
39806SOL    HW225255   1.798   1.886  10.795  1.6929  0.1209 -0.3979
39807SOL     OW25256   6.892   0.867   3.841 -0.0324  0.2129 -0.4324
39807SOL    HW125257   6.938   0.946   3.868 -1.2817  1.0372 -0.6386
39807SOL    HW225258   6.952   0.796   3.864  1.8778  1.2726 -1.7739
39808SOL     OW25259   4.625   8.698   1.780 -0.2036  0.0906 -0.2244
39808SOL    HW125260   4.637   8.646   1.860 -0.5025 -0.2218 -0.3810
39808SOL    HW225261   4.530   8.698   1.766 -0.0606 -0.9063 -1.2721
39809SOL     OW25262   2.741   6.883   8.704  0.3443  0.0023  0.2994
39809SOL    HW125263   2.816   6.838   8.667  0.7686  2.1640 -1.7372
39809SOL    HW225264   2.712   6.943   8.634 -2.1752  0.5128  1.6470
39810SOL     OW25265   9.116   5.155  10.725  0.3523  0.2236 -0.0332
39810SOL    HW125266   9.210   5.151  10.741  0.4369 -2.7996 -0.7895
39810SOL    HW225267   9.107   5.149  10.630 -0.6048 -0.3165  0.0773
39811SOL     OW25268   1.138   7.431   3.236  0.0665 -0.1703  0.0194
39811SOL    HW125269   1.140   7.335   3.245  0.6295 -0.0922  0.8910
39811SOL    HW225270   1.201   7.450   3.166  1.7153 -0.3109  1.3953
39812SOL     OW25271   0.621   5.471   7.730  0.1592  0.1591  0.2561
39812SOL    HW125272   0.704   5.474   7.779  0.7780  1.2055 -0.8151
39812SOL    HW225273   0.603   5.377   7.720  0.5731 -0.0809  1.5344
39813SOL     OW25274   5.412   6.915   5.872  0.0067 -0.0112 -0.5794
39813SOL    HW125275   5.492   6.968   5.861 -0.3687  0.5332 -0.7682
39813SOL    HW225276   5.367   6.955   5.946 -0.8191  0.6456 -1.4062
39814SOL     OW25277   7.725  10.203   6.223 -0.4390 -0.3895  0.3337
39814SOL    HW125278   7.678  10.165   6.149  0.7570  1.0369 -1.2191
39814SOL    HW225279   7.671  10.278   6.249  0.0287  0.1706 -0.2765
39815SOL     OW25280   6.851   4.802   7.777  0.0264  0.0245  0.0586
39815SOL    HW125281   6.872   4.866   7.844  1.3918 -0.3759  0.0382
39815SOL    HW225282   6.923   4.740   7.780  0.6666  0.5559 -2.4855
39816SOL     OW25283   9.754   2.686  10.353 -0.0418  0.0042  0.4626
39816SOL    HW125284   9.792   2.672  10.440 -0.4828 -0.1633  0.6341
39816SOL    HW225285   9.756   2.781  10.340 -0.1550  0.0455  0.7404
39817SOL     OW25286   2.132  10.799   0.457 -0.2137 -0.1408  0.2871
39817SOL    HW125287   2.105  10.709   0.436 -0.6377  0.0036  0.1987
39817SOL    HW225288   2.175  10.831   0.378 -0.0017 -0.2898  0.3418
39818SOL     OW25289   8.965   5.480   8.972 -0.0828  0.1537  0.1828
39818SOL    HW125290   9.059   5.469   8.982 -0.0622  0.1171 -0.0308
39818SOL    HW225291   8.956   5.559   8.918 -0.1455 -0.3443 -0.5475
39819SOL     OW25292   6.421   2.820   1.160 -0.2687  0.8352  0.1378
39819SOL    HW125293   6.390   2.862   1.240  1.2136  0.5963  0.8659
39819SOL    HW225294   6.389   2.730   1.165 -1.3688  1.1904 -0.2398
39820SOL     OW25295   7.286   4.191   1.680 -0.8130 -0.4424  0.5574
39820SOL    HW125296   7.378   4.171   1.661 -0.8945 -0.1938 -0.1403
39820SOL    HW225297   7.287   4.279   1.717 -1.0756  1.2745 -3.0976
39821SOL     OW25298   3.410   9.688   2.043 -0.1607 -0.0189 -0.3077
39821SOL    HW125299   3.470   9.622   2.007  0.3801  0.1474  0.2582
39821SOL    HW225300   3.451   9.771   2.020  0.3168  0.0889  0.8632
39822SOL     OW25301   8.945   8.637   7.752 -0.1049  0.5317  0.1715
39822SOL    HW125302   8.883   8.584   7.702 -0.2636  0.3176  0.5937
39822SOL    HW225303   9.024   8.638   7.698 -0.6263  1.2077 -0.5946
39823SOL     OW25304   5.168   1.691   5.346 -0.6885 -0.1150 -0.0264
39823SOL    HW125305   5.231   1.693   5.274 -0.5257 -0.0192  0.1172
39823SOL    HW225306   5.221   1.709   5.424 -1.0011  0.6635  0.0161
39824SOL     OW25307   3.288  10.126   3.466 -0.2438 -0.4651 -0.5653
39824SOL    HW125308   3.374  10.169   3.472 -0.0040 -0.8626 -1.1452
39824SOL    HW225309   3.276  10.085   3.551 -0.1767  0.1884 -0.2330
39825SOL     OW25310   8.209   3.472   4.682 -0.1981  0.0734 -0.2074
39825SOL    HW125311   8.213   3.438   4.593 -1.1610  2.1496 -1.1165
39825SOL    HW225312   8.299   3.496   4.703  0.3016 -1.8808  0.0305
39826SOL     OW25313   4.875   1.876   3.401 -0.3712  0.3715  0.2483
39826SOL    HW125314   4.826   1.924   3.334 -1.2422  0.0975  0.6748
39826SOL    HW225315   4.892   1.791   3.362 -1.8144 -0.1713  0.7520
39827SOL     OW25316   2.984   4.405   5.961  0.3370 -0.2143  0.0146
39827SOL    HW125317   2.943   4.492   5.965  1.7157  0.4556  0.4314
39827SOL    HW225318   3.078   4.423   5.968  0.7019 -1.6973 -0.7050
39828SOL     OW25319   8.739  10.473   5.394 -0.2279  0.0666  0.0152
39828SOL    HW125320   8.696  10.401   5.439  0.1923  0.4580  1.0886
39828SOL    HW225321   8.703  10.472   5.305 -1.5821 -0.3165  0.5532
39829SOL     OW25322   7.778  10.489   7.693 -0.6251 -0.1702  0.2727
39829SOL    HW125323   7.776  10.585   7.698 -0.2722 -0.1799  0.7063
39829SOL    HW225324   7.694  10.465   7.654 -1.4440  0.2377  1.6750
39830SOL     OW25325   9.871   6.410   5.237  0.4568  0.2695 -0.0307
39830SOL    HW125326   9.789   6.415   5.188 -0.9283  0.0251  2.1488
39830SOL    HW225327   9.891   6.500   5.261  2.3598  0.7042 -2.8024
39831SOL     OW25328   6.107   3.665  10.514 -0.3331 -0.1200 -0.1583
39831SOL    HW125329   6.029   3.639  10.465 -0.7279  1.8692 -0.6469
39831SOL    HW225330   6.075   3.685  10.602 -0.5191  1.3676 -0.5464
39832SOL     OW25331   1.067   8.610   0.860  0.0492  0.5523  0.3121
39832SOL    HW125332   1.032   8.631   0.947  0.9532  1.8218  0.3872
39832SOL    HW225333   1.102   8.521   0.869  0.0722  0.6481  1.2196
39833SOL     OW25334   9.860   7.149  10.827  0.1916  0.2216 -0.1601
39833SOL    HW125335   9.922   7.080  10.804 -0.8372 -0.7147 -0.1822
39833SOL    HW225336   9.780   7.103  10.850 -0.6214  1.4221 -0.4893
39834SOL     OW25337   6.153   0.576   7.560  0.0251 -0.1664 -0.4642
39834SOL    HW125338   6.108   0.628   7.493  1.4534  0.5911 -0.8855
39834SOL    HW225339   6.166   0.636   7.633  1.4083  0.0063 -0.8280
39835SOL     OW25340   5.627   5.976   9.465 -0.3720  0.1169  0.0811
39835SOL    HW125341   5.536   5.950   9.473  0.0096 -1.0726  0.8068
39835SOL    HW225342   5.658   5.934   9.385 -0.1230 -0.5979  0.5372
39836SOL     OW25343   3.719   0.012   1.408 -0.3272 -0.2878 -0.0808
39836SOL    HW125344   3.717   0.052   1.495  2.7607  0.6429 -0.3415
39836SOL    HW225345   3.758  -0.075   1.423  0.2551 -0.1073 -0.5157
39837SOL     OW25346   8.066   5.463   9.043 -0.6077  0.4910 -0.2120
39837SOL    HW125347   8.068   5.547   9.090  1.3196  0.4452 -0.1219
39837SOL    HW225348   8.002   5.476   8.973 -1.7503  1.3733  0.9464
39838SOL     OW25349   1.151   9.421   0.178 -0.2304  0.0604 -0.5234
39838SOL    HW125350   1.145   9.349   0.240  0.6096  0.7398  0.3883
39838SOL    HW225351   1.244   9.423   0.153 -0.2075  0.9282 -0.3995
39839SOL     OW25352   2.162   6.691  10.698 -0.0194  0.0568  0.0225
39839SOL    HW125353   2.252   6.724  10.689 -0.2473  1.0044  1.1101
39839SOL    HW225354   2.171   6.596  10.685  0.9739  0.2485 -0.8968
39840SOL     OW25355   9.187   5.919   9.458  0.0197 -0.2063 -0.2315
39840SOL    HW125356   9.250   5.958   9.518  0.8419 -0.8981 -0.6215
39840SOL    HW225357   9.102   5.930   9.501  0.2352  1.7574 -0.2131
39841SOL     OW25358   5.439   0.542   4.907 -0.7147 -0.0168 -0.1214
39841SOL    HW125359   5.364   0.600   4.901 -1.5126 -1.0280 -0.1480
39841SOL    HW225360   5.496   0.568   4.835 -0.4481  1.5565  0.6243
39842SOL     OW25361  10.728   1.911   9.659  0.3854 -0.0822 -0.4772
39842SOL    HW125362  10.664   1.869   9.716 -0.3315  1.1224 -0.3722
39842SOL    HW225363  10.681   1.985   9.620  2.1882  1.9994  1.0245
39843SOL     OW25364   1.335   4.795  10.638  0.1813 -0.2908  0.2343
39843SOL    HW125365   1.374   4.753  10.715 -0.1641 -0.1461  0.4926
39843SOL    HW225366   1.394   4.773  10.566  0.4403 -0.5353  0.5170
39844SOL     OW25367  10.295   0.228  10.402 -0.3892 -0.2107 -0.1840
39844SOL    HW125368  10.296   0.133  10.416  0.7408 -0.2919 -0.7565
39844SOL    HW225369  10.387   0.254  10.407 -0.7554  0.9900  0.8238
39845SOL     OW25370   7.701   7.100   6.752 -1.1781 -0.1798  0.2199
39845SOL    HW125371   7.782   7.069   6.713 -0.9378  1.1552 -0.4113
39845SOL    HW225372   7.665   7.024   6.797  0.9590 -0.5340  1.4373
39846SOL     OW25373   2.195   2.159   6.180 -0.1714  0.5307  0.6451
39846SOL    HW125374   2.153   2.131   6.099  0.2564 -2.6700  1.3896
39846SOL    HW225375   2.277   2.199   6.152 -0.0538 -0.4692 -0.5215
39847SOL     OW25376   2.826   8.206   5.186 -0.2679 -0.0435  0.5898
39847SOL    HW125377   2.888   8.267   5.146 -1.1451  0.0966 -0.6362
39847SOL    HW225378   2.876   8.161   5.254  1.4894 -0.7443 -1.0893
39848SOL     OW25379   3.082   0.848   3.533  0.2733 -0.7090 -0.6017
39848SOL    HW125380   3.107   0.757   3.550  0.3639 -0.4023  0.9661
39848SOL    HW225381   2.986   0.847   3.531  0.2590 -0.7119  0.1308
39849SOL     OW25382   1.510   1.363   7.857 -0.1652  0.0900 -0.7858
39849SOL    HW125383   1.520   1.457   7.875  0.8783  0.1979 -1.7465
39849SOL    HW225384   1.520   1.356   7.762 -2.7681 -0.7283 -1.0680
39850SOL     OW25385   2.827   4.701   8.752  0.1273  0.1079 -0.0475
39850SOL    HW125386   2.783   4.774   8.794 -0.5240 -0.9818  1.2568
39850SOL    HW225387   2.920   4.725   8.753 -0.2023  1.5803 -1.0964
39851SOL     OW25388   7.619   3.356   0.942 -0.2259 -0.3901  0.0318
39851SOL    HW125389   7.591   3.269   0.968  0.3802 -0.6400 -0.1399
39851SOL    HW225390   7.655   3.395   1.022  0.0918 -0.5367 -0.0381
39852SOL     OW25391  10.187   0.467   6.655 -0.0759  0.0348 -0.3805
39852SOL    HW125392  10.171   0.460   6.561 -2.3221 -0.1021 -0.0502
39852SOL    HW225393  10.256   0.532   6.663  2.2634 -2.0041 -2.2195
39853SOL     OW25394   6.465   7.216   6.596  0.0609 -0.0162 -0.0455
39853SOL    HW125395   6.462   7.163   6.516  2.5775 -0.6730  0.2247
39853SOL    HW225396   6.539   7.275   6.584 -0.3019  0.7607  1.2819
39854SOL     OW25397   5.384   8.662   0.794 -0.1028  0.1463 -0.5143
39854SOL    HW125398   5.459   8.659   0.853  0.1539  0.8409 -0.8117
39854SOL    HW225399   5.373   8.571   0.765 -0.6198 -0.3394  1.0854
39855SOL     OW25400   5.534   1.998   6.279 -0.1017  0.1747 -0.2495
39855SOL    HW125401   5.472   2.063   6.245 -1.5807 -0.4617  1.1142
39855SOL    HW225402   5.529   2.008   6.374  1.1670 -0.5950 -0.0732
39856SOL     OW25403  10.120   1.288   4.915 -0.3284 -0.4816  0.3405
39856SOL    HW125404  10.033   1.319   4.940 -0.2561 -0.6027  0.7437
39856SOL    HW225405  10.111   1.261   4.823  0.1859  3.1094 -0.9412
39857SOL     OW25406   8.073   2.088   5.945 -0.3524 -0.6828 -0.1595
39857SOL    HW125407   8.083   2.133   5.861 -2.6293  0.9252  0.3492
39857SOL    HW225408   8.003   2.136   5.990 -0.8233 -2.9398  1.6902
39858SOL     OW25409  10.302   1.512   8.228 -0.4390 -0.0492  0.4604
39858SOL    HW125410  10.294   1.517   8.324 -0.4413 -0.4694  0.4848
39858SOL    HW225411  10.283   1.601   8.198  0.4698  0.3087  0.9092
39859SOL     OW25412   5.070   9.070   2.999 -0.0020  0.2384  0.2909
39859SOL    HW125413   5.118   9.084   3.080  0.5694 -0.1159  0.0217
39859SOL    HW225414   5.119   9.120   2.933  1.4432 -2.0018 -0.4705
39860SOL     OW25415   3.421   6.182   6.539 -0.3976  0.3684  0.0065
39860SOL    HW125416   3.333   6.158   6.566 -1.4218  2.3226 -1.3766
39860SOL    HW225417   3.467   6.098   6.530 -1.5200 -0.6164  2.4542
39861SOL     OW25418  10.818   1.434   3.554 -0.0616 -0.0139  0.0191
39861SOL    HW125419  10.826   1.353   3.604 -1.3064  1.3469  2.6737
39861SOL    HW225420  10.905   1.474   3.558 -0.0366 -0.1223  0.8313
39862SOL     OW25421  10.893   4.148   5.155  0.4489 -0.1958  0.0417
39862SOL    HW125422  10.885   4.087   5.082 -0.9864  2.1035 -1.8833
39862SOL    HW225423  10.925   4.229   5.116 -1.0993  1.3579  1.7598
39863SOL     OW25424   8.476   3.947   4.740 -0.3782  0.1875 -0.6026
39863SOL    HW125425   8.383   3.970   4.747 -0.5715  0.4096 -3.0562
39863SOL    HW225426   8.509   4.001   4.669  1.4592 -0.4538 -0.2920
39864SOL     OW25427   0.409   7.413   2.321  0.4496  0.1071 -0.2810
39864SOL    HW125428   0.439   7.347   2.259  3.2902 -0.2025  1.2442
39864SOL    HW225429   0.435   7.497   2.282  1.8049 -0.0590  0.2197
39865SOL     OW25430   9.574   7.727   5.568 -0.5430  0.3049  0.0194
39865SOL    HW125431   9.613   7.665   5.629 -2.2796 -0.1329  0.7095
39865SOL    HW225432   9.646   7.788   5.547  0.7885 -1.0785  0.4201
39866SOL     OW25433   3.536   8.247   5.142  0.9284 -0.2867 -0.4418
39866SOL    HW125434   3.516   8.312   5.209 -0.7717 -0.6000 -0.6024
39866SOL    HW225435   3.623   8.271   5.110  0.7234  1.3425  0.1515
39867SOL     OW25436   4.821   7.256   0.767  0.3002  0.4028 -0.1575
39867SOL    HW125437   4.871   7.196   0.712 -0.6557 -0.1354 -0.4654
39867SOL    HW225438   4.731   7.247   0.737 -0.1228  0.6953  0.9544
39868SOL     OW25439  10.845   4.102   9.368  0.1183  0.5423  0.3341
39868SOL    HW125440  10.837   4.009   9.389 -0.1393  0.3644 -0.5027
39868SOL    HW225441  10.939   4.118   9.368  0.1383  1.0894  3.7166
39869SOL     OW25442   0.779   4.450   9.148  0.6985 -0.0160  0.3271
39869SOL    HW125443   0.835   4.467   9.223  0.8382 -0.5828  0.3543
39869SOL    HW225444   0.695   4.491   9.170  1.0290  0.6443  0.3782
39870SOL     OW25445   9.294   2.288   4.382 -0.0469  0.2054  0.5596
39870SOL    HW125446   9.258   2.373   4.359 -1.9747 -0.9027 -0.8179
39870SOL    HW225447   9.273   2.277   4.475  0.9023  1.5082  0.9583
39871SOL     OW25448  10.016   7.526   2.513 -0.3240  0.6019 -0.5670
39871SOL    HW125449   9.988   7.499   2.426  2.2737 -1.2917 -0.9191
39871SOL    HW225450  10.016   7.446   2.565  1.9146  0.9046  0.0233
39872SOL     OW25451   4.136   8.870   9.928 -0.3790 -0.0757 -0.1428
39872SOL    HW125452   4.148   8.780   9.899  1.9313  0.1601 -0.1572
39872SOL    HW225453   4.071   8.906   9.869 -2.7850 -2.1873  1.0245
39873SOL     OW25454   7.674   9.771  10.728  0.3794  0.1786  0.0767
39873SOL    HW125455   7.611   9.778  10.656 -0.0362  1.1850  0.5277
39873SOL    HW225456   7.714   9.858  10.733 -1.2620  0.8994  2.5583
39874SOL     OW25457   8.629   5.530  10.583  0.1881 -0.1751 -0.1512
39874SOL    HW125458   8.694   5.587  10.541 -0.0600 -0.3758 -0.8244
39874SOL    HW225459   8.556   5.588  10.604  0.2022 -0.1241 -0.2435
39875SOL     OW25460   3.784   9.544   3.320  0.6628 -0.6737 -0.3747
39875SOL    HW125461   3.739   9.473   3.365  3.2438 -1.7435  0.6552
39875SOL    HW225462   3.865   9.506   3.286  1.2453  1.3353 -1.4704
39876SOL     OW25463   7.286  10.840   3.204 -0.0294  0.4729  0.3091
39876SOL    HW125464   7.253  10.789   3.130  0.6497 -1.3186  1.1587
39876SOL    HW225465   7.233  10.811   3.278 -0.4224  1.9328  0.6148
39877SOL     OW25466   0.552   3.517   6.545  0.3476 -0.4660 -0.2841
39877SOL    HW125467   0.584   3.432   6.575  1.5608  0.2185  0.4265
39877SOL    HW225468   0.546   3.570   6.625 -0.8028  0.0077 -0.6547
39878SOL     OW25469   2.448   0.715   8.481  0.8373 -0.5149  0.1386
39878SOL    HW125470   2.530   0.671   8.501  0.3060 -2.3322 -1.3969
39878SOL    HW225471   2.385   0.676   8.541  0.8201 -0.1382  0.3658
39879SOL     OW25472  10.764   5.096   2.003 -0.3138 -0.0414  0.1253
39879SOL    HW125473  10.847   5.072   2.043 -0.6614 -2.0842 -0.2916
39879SOL    HW225474  10.757   5.040   1.925 -2.4689 -0.5818  0.6289
39880SOL     OW25475  10.542   6.012   7.298 -0.1004  0.0347 -0.1516
39880SOL    HW125476  10.618   5.958   7.272 -0.9456 -0.4915 -1.6211
39880SOL    HW225477  10.573   6.102   7.291  0.9030 -0.1965  0.9560
39881SOL     OW25478   5.243   7.084   2.601 -0.2669 -0.1183 -0.5047
39881SOL    HW125479   5.231   7.175   2.630 -0.3501 -0.5415  0.8170
39881SOL    HW225480   5.185   7.076   2.525 -1.8606  0.3449  0.6190
39882SOL     OW25481   4.894   9.106   9.780 -0.1746 -0.1448  0.5046
39882SOL    HW125482   4.921   9.015   9.792  2.3293  0.4943  0.2215
39882SOL    HW225483   4.904   9.122   9.687  0.5426  0.7215  0.7178
39883SOL     OW25484   5.118   0.604   4.710 -0.3937  0.2940 -0.4462
39883SOL    HW125485   5.205   0.643   4.696  0.0005 -0.6420 -0.6482
39883SOL    HW225486   5.062   0.647   4.645  0.0355  0.5308 -0.6654
39884SOL     OW25487   5.474  10.226  10.067 -0.0778 -0.5240 -0.4429
39884SOL    HW125488   5.412  10.268  10.127 -0.8717  0.7102 -2.0468
39884SOL    HW225489   5.546  10.288  10.060 -0.3118 -0.3275 -1.2609
39885SOL     OW25490   3.964   8.484   2.752  1.1727  0.4597  0.2465
39885SOL    HW125491   4.035   8.425   2.775  1.7462  1.0855  0.1075
39885SOL    HW225492   4.003   8.572   2.757  0.3072  0.8390  0.5727
39886SOL     OW25493   0.828   9.229   2.518 -0.5810  0.1744 -0.1251
39886SOL    HW125494   0.866   9.198   2.600 -0.3185  1.0468  0.0907
39886SOL    HW225495   0.823   9.151   2.463 -1.3269 -0.5433  0.9253
39887SOL     OW25496   3.454   9.419   3.336  0.3820 -0.0273  0.2813
39887SOL    HW125497   3.423   9.504   3.304 -1.1117 -1.6198 -2.9917
39887SOL    HW225498   3.491   9.376   3.259  2.5119 -1.8322  2.1574
39888SOL     OW25499   8.212   3.122   5.829 -0.7215  0.9034  0.0835
39888SOL    HW125500   8.251   3.038   5.805 -0.3710  1.3726 -1.0680
39888SOL    HW225501   8.241   3.137   5.919 -1.2558 -0.4587  0.4958
39889SOL     OW25502   2.025   2.081   7.672 -0.0349  0.0317  0.0381
39889SOL    HW125503   2.063   2.145   7.613  0.7439 -0.4290  0.0202
39889SOL    HW225504   2.073   2.000   7.653 -1.4164 -0.7068 -0.3740
39890SOL     OW25505   2.161   3.827   2.231 -0.0117  0.4403  0.1180
39890SOL    HW125506   2.086   3.778   2.197 -0.5166  1.5800 -0.4757
39890SOL    HW225507   2.237   3.784   2.192 -0.4983  0.8085 -1.3216
39891SOL     OW25508   3.537   6.029   5.956  0.0046  0.3724 -0.2956
39891SOL    HW125509   3.571   6.049   5.869  1.7983 -1.1544 -0.0017
39891SOL    HW225510   3.443   6.050   5.951  0.3440  1.6263 -2.1397
39892SOL     OW25511   6.764   3.491   0.060 -0.0080  0.5538  0.0550
39892SOL    HW125512   6.737   3.581   0.042 -1.2413  0.3199  0.6727
39892SOL    HW225513   6.795   3.458  -0.025 -1.3241  0.9609 -0.5985
39893SOL     OW25514   5.369   4.421   3.277  0.3214 -0.0650  0.2712
39893SOL    HW125515   5.424   4.497   3.259 -0.2152  0.0302 -1.0603
39893SOL    HW225516   5.430   4.347   3.279  0.6315  0.1786 -0.1386
39894SOL     OW25517   8.121   3.172   4.703  0.3443 -0.1939  0.3708
39894SOL    HW125518   8.032   3.174   4.669  0.0469 -0.7459  1.0977
39894SOL    HW225519   8.175   3.150   4.627 -0.1530 -0.0329 -0.0366
39895SOL     OW25520   1.056   9.175   3.662 -0.0786 -0.7603 -0.8362
39895SOL    HW125521   1.008   9.258   3.662 -0.5834 -1.0353  0.0467
39895SOL    HW225522   1.055   9.147   3.570 -1.4757 -0.6789 -0.8637
39896SOL     OW25523  10.220   5.251   3.517  0.4554  0.0015  0.4312
39896SOL    HW125524  10.292   5.254   3.581  0.3447  0.3246  0.5400
39896SOL    HW225525  10.254   5.197   3.446  1.2214  1.0866 -0.0391
39897SOL     OW25526   7.225   7.450   1.134 -0.3615 -0.6014 -0.2876
39897SOL    HW125527   7.142   7.465   1.089 -0.8989  0.0680  0.8645
39897SOL    HW225528   7.279   7.526   1.111  0.0195 -1.1322 -1.1931
39898SOL     OW25529   1.029   8.862   4.535 -0.2465 -0.2447 -0.3186
39898SOL    HW125530   0.988   8.929   4.481  0.7672 -0.4505 -1.3739
39898SOL    HW225531   1.123   8.883   4.532  0.3622 -2.8518 -2.3766
39899SOL     OW25532   2.616   7.728   4.347  0.1590 -0.1474  0.3474
39899SOL    HW125533   2.628   7.747   4.440  1.6165  0.3010  0.0846
39899SOL    HW225534   2.636   7.811   4.303  0.4842 -0.6318 -0.4339
39900SOL     OW25535   5.522  10.545   4.081  0.3023  0.2663  0.0731
39900SOL    HW125536   5.435  10.546   4.041  0.1960  0.7530  0.3030
39900SOL    HW225537   5.573  10.608   4.029  0.6191 -0.2777 -0.2798
39901SOL     OW25538   7.053  10.908   4.088 -0.5070 -0.5728  0.1377
39901SOL    HW125539   7.085  10.997   4.074  0.2557 -0.9306 -0.4855
39901SOL    HW225540   7.000  10.889   4.010 -0.7160 -0.6404  0.2956
39902SOL     OW25541   3.128   1.047   6.176 -1.1251  0.1157  0.1963
39902SOL    HW125542   3.184   1.106   6.227 -0.9352 -0.3850  0.5848
39902SOL    HW225543   3.039   1.066   6.207 -0.9166 -0.9898  1.6059
39903SOL     OW25544   9.834   8.355   6.992  0.7687  0.6324  0.0056
39903SOL    HW125545   9.844   8.260   6.999 -0.2603  0.5376  0.4052
39903SOL    HW225546   9.854   8.375   6.901 -1.2056 -0.2840 -0.6898
39904SOL     OW25547   3.046   3.674   2.704 -0.1377 -0.5677  0.7857
39904SOL    HW125548   3.052   3.652   2.611  0.5495  1.1212  0.3952
39904SOL    HW225549   2.992   3.753   2.706  0.0872 -0.4315  1.8112
39905SOL     OW25550   1.132   9.709   1.117 -0.7385 -0.1292  0.7227
39905SOL    HW125551   1.137   9.626   1.069 -0.4070  0.5268 -0.3960
39905SOL    HW225552   1.207   9.760   1.086 -0.0385  0.0209  2.5371
39906SOL     OW25553   4.868   7.966   7.698  0.7655  0.7496 -0.1492
39906SOL    HW125554   4.872   7.993   7.790 -0.6478 -0.3314  0.2659
39906SOL    HW225555   4.778   7.939   7.685  1.5900 -1.8552 -1.0492
39907SOL     OW25556   7.565  10.646   3.933 -0.0385  0.1199 -0.1568
39907SOL    HW125557   7.500  10.616   3.997 -2.0222  0.3139 -1.9683
39907SOL    HW225558   7.622  10.570   3.921 -1.0812 -0.7370  0.0920
39908SOL     OW25559   9.418   8.603  10.174  0.3702 -0.1181  0.4669
39908SOL    HW125560   9.383   8.514  10.161 -2.6420  1.0689 -0.2580
39908SOL    HW225561   9.410   8.619  10.268 -0.3775 -0.1303  0.4079
39909SOL     OW25562   0.682   3.112   9.074 -0.3575 -0.2103  0.2401
39909SOL    HW125563   0.681   3.094   8.980  1.6285 -4.3553  0.8116
39909SOL    HW225564   0.595   3.087   9.104  0.1443 -2.5431 -0.0724
39910SOL     OW25565   8.120   0.007   7.240 -0.3714  0.0374  0.4423
39910SOL    HW125566   8.101   0.076   7.304  0.8893 -1.1472  2.2127
39910SOL    HW225567   8.213  -0.012   7.253 -0.2128 -0.6106 -1.4289
39911SOL     OW25568   1.184   6.965   3.979 -0.3302 -0.2625  0.0664
39911SOL    HW125569   1.191   6.921   3.894  0.4505  0.0837 -0.0570
39911SOL    HW225570   1.273   6.967   4.013 -0.0047  2.5999 -0.6636
39912SOL     OW25571  10.063   6.713   3.467  0.2089  0.0819  0.0922
39912SOL    HW125572  10.036   6.708   3.375 -0.3591  0.5550  0.2319
39912SOL    HW225573  10.143   6.661   3.470 -0.8325 -1.6367 -0.2644
39913SOL     OW25574   7.779   3.763   9.798 -0.1501 -0.2641  0.7472
39913SOL    HW125575   7.853   3.800   9.751  1.1424 -1.6947  1.5644
39913SOL    HW225576   7.702   3.795   9.751  1.0178 -0.3589 -1.3500
39914SOL     OW25577   7.129   5.437   8.396  0.0708  0.8439 -0.3452
39914SOL    HW125578   7.089   5.452   8.310 -0.7024  0.1887 -0.1178
39914SOL    HW225579   7.093   5.505   8.452 -1.3497 -0.1645  0.0357
39915SOL     OW25580   2.837   8.286   5.576 -0.0282 -0.0401  0.0740
39915SOL    HW125581   2.748   8.262   5.600  0.4517 -2.2453 -0.1383
39915SOL    HW225582   2.885   8.203   5.574  2.2611  1.1580  1.0684
39916SOL     OW25583   1.868   8.845   8.617  0.4538  0.4876 -0.4282
39916SOL    HW125584   1.816   8.916   8.578 -0.2223 -0.7801 -1.9691
39916SOL    HW225585   1.818   8.818   8.694  0.7612  1.6941  0.2259
39917SOL     OW25586   7.365   5.459   9.654  0.1795  0.0477 -0.0955
39917SOL    HW125587   7.355   5.532   9.714 -1.9774 -0.1719 -0.1178
39917SOL    HW225588   7.299   5.396   9.681  0.6440 -1.0228 -1.3287
39918SOL     OW25589   6.394   9.761   9.586  0.0161  0.1764 -0.1878
39918SOL    HW125590   6.407   9.810   9.667 -0.6876  2.1031 -1.1717
39918SOL    HW225591   6.365   9.674   9.614  3.2697 -0.4521  1.6882
39919SOL     OW25592   1.712  10.824   0.247  0.2781  0.0106 -0.5855
39919SOL    HW125593   1.766  10.876   0.188  1.4795 -0.2093  0.2891
39919SOL    HW225594   1.649  10.780   0.189  1.1150  0.1669 -1.6432
39920SOL     OW25595   6.573   4.653  10.295  0.3937 -0.2553 -0.4184
39920SOL    HW125596   6.510   4.676  10.362  1.3869  3.0599 -0.4404
39920SOL    HW225597   6.526   4.663  10.212  0.2352 -0.4019 -0.3444
39921SOL     OW25598   5.869   3.352   3.724 -0.0067 -0.0027 -0.2248
39921SOL    HW125599   5.785   3.398   3.719 -0.7171 -1.2809 -0.4555
39921SOL    HW225600   5.930   3.410   3.680 -1.2974 -0.1895 -2.3945
39922SOL     OW25601   4.272   5.628   6.415  0.6211 -0.2421 -0.4081
39922SOL    HW125602   4.297   5.540   6.388 -0.2892 -0.6275 -0.0444
39922SOL    HW225603   4.214   5.615   6.491  0.5426  0.6661 -0.2945
39923SOL     OW25604   2.960   1.910   5.450 -1.1967  0.3903 -0.6733
39923SOL    HW125605   3.020   1.883   5.519  0.8890  0.5607 -2.3314
39923SOL    HW225606   2.908   1.980   5.489 -0.5824  0.0012  0.9198
39924SOL     OW25607   1.154   3.848  10.384  0.6342  0.2151  0.5197
39924SOL    HW125608   1.140   3.866  10.477  0.3688  0.0631  0.5072
39924SOL    HW225609   1.234   3.897  10.363  0.9765 -0.1498  0.9467
39925SOL     OW25610   7.725   9.755   6.142  0.3854 -0.1224 -0.0297
39925SOL    HW125611   7.725   9.815   6.216  1.6860 -0.2459  0.0832
39925SOL    HW225612   7.738   9.811   6.066  1.5054 -0.2267  0.0677
39926SOL     OW25613   4.861   2.108   5.667  0.0469  0.0605  0.7251
39926SOL    HW125614   4.799   2.121   5.738  0.4574  1.1021  0.9071
39926SOL    HW225615   4.947   2.101   5.710  0.3261  0.9376  0.3313
39927SOL     OW25616   3.904   8.240   6.135 -0.1809  0.2531  0.2698
39927SOL    HW125617   3.851   8.174   6.091  0.0228  0.7121 -0.6939
39927SOL    HW225618   3.853   8.263   6.213 -1.1358  0.2824 -0.3463
39928SOL     OW25619   3.467   3.393   9.514 -0.4083 -0.1721 -0.2766
39928SOL    HW125620   3.511   3.315   9.480  1.7862  1.5357 -1.5872
39928SOL    HW225621   3.382   3.393   9.469  0.3448 -0.7793 -1.7829
39929SOL     OW25622   4.381   2.206   2.521 -0.1716 -0.7848  0.5383
39929SOL    HW125623   4.370   2.288   2.472  1.1508 -0.4322  0.7858
39929SOL    HW225624   4.372   2.138   2.455  0.2197 -0.3669  0.0406
39930SOL     OW25625   9.835   4.915   0.303 -0.0594 -0.5499 -0.6047
39930SOL    HW125626   9.922   4.886   0.277 -0.4636 -0.9526 -1.5567
39930SOL    HW225627   9.831   5.007   0.279  0.6919 -0.0527  1.0315
39931SOL     OW25628   2.806   6.021   1.568  0.0093 -0.2629  0.0541
39931SOL    HW125629   2.783   5.929   1.569  1.7477 -0.7497 -0.9070
39931SOL    HW225630   2.792   6.048   1.477  1.3715 -0.1213 -0.1352
39932SOL     OW25631   0.876   6.192  10.132 -0.3660  0.5634  0.0002
39932SOL    HW125632   0.798   6.190  10.076  0.2908  1.5571 -0.9885
39932SOL    HW225633   0.913   6.104  10.126  0.4787  1.0045 -2.3206
39933SOL     OW25634   2.902   1.819   7.265  0.1499  0.3631  0.2987
39933SOL    HW125635   2.836   1.777   7.320  1.2207  0.9450  2.1408
39933SOL    HW225636   2.960   1.748   7.238 -0.5252  0.0338 -0.3179
39934SOL     OW25637   5.440   4.605   9.377  0.9550  0.7107  0.4322
39934SOL    HW125638   5.498   4.530   9.368  0.7787  0.1667  2.9027
39934SOL    HW225639   5.364   4.571   9.425 -0.8619  1.6835 -1.5977
39935SOL     OW25640  10.841  10.896   9.595  0.7395  0.0958  0.2452
39935SOL    HW125641  10.874  10.912   9.506  2.4023  1.4209  1.0435
39935SOL    HW225642  10.797  10.811   9.589 -1.1695  1.1523 -2.3258
39936SOL     OW25643   6.322   6.155   2.143 -0.4978  0.2890 -0.1844
39936SOL    HW125644   6.292   6.169   2.053  2.3542 -0.7416 -1.4197
39936SOL    HW225645   6.266   6.085   2.177 -1.6244  0.7036 -1.1480
39937SOL     OW25646   4.413   8.461   2.779 -0.9956 -0.9609  0.3819
39937SOL    HW125647   4.480   8.447   2.846  0.4177  0.8610 -0.5706
39937SOL    HW225648   4.372   8.544   2.803  1.4760  1.2969 -2.3748
39938SOL     OW25649   3.519   7.411  10.576  0.8722  0.1571 -0.0347
39938SOL    HW125650   3.495   7.493  10.534 -0.1359 -0.1769 -0.1391
39938SOL    HW225651   3.439   7.381  10.619  1.8120  0.3962  2.0175
39939SOL     OW25652   4.342   2.784   4.120  0.1752 -0.4039  0.4728
39939SOL    HW125653   4.255   2.788   4.081  0.2826 -2.6034 -0.0980
39939SOL    HW225654   4.358   2.873   4.151 -0.6646  1.1231 -2.9406
39940SOL     OW25655   6.888   6.026   1.793 -0.1983 -0.9272 -0.0467
39940SOL    HW125656   6.970   6.003   1.837 -0.8384  0.1444  1.7808
39940SOL    HW225657   6.859   6.106   1.836 -1.9266 -0.9636 -1.0611
39941SOL     OW25658   0.003   5.335  10.454  0.5514 -0.0857  0.3691
39941SOL    HW125659  -0.016   5.393  10.527 -0.2433  0.3129 -0.1315
39941SOL    HW225660   0.097   5.343  10.440  0.3770  1.6290 -0.1177
39942SOL     OW25661   7.240   8.194   5.752  0.1525 -0.0194  0.4889
39942SOL    HW125662   7.314   8.133   5.745 -0.0435 -0.1084 -1.3051
39942SOL    HW225663   7.280   8.281   5.750  0.3066 -0.0790  1.0304
39943SOL     OW25664   2.444   0.816   2.005 -0.6018  0.4387 -0.0126
39943SOL    HW125665   2.349   0.825   2.003 -0.8370 -1.6416 -0.5674
39943SOL    HW225666   2.467   0.788   1.916  0.3562 -0.4073  0.4857
39944SOL     OW25667   0.592   3.423  10.309 -0.4563  0.1115  0.2516
39944SOL    HW125668   0.570   3.401  10.218 -0.3690  0.3637  0.1697
39944SOL    HW225669   0.548   3.356  10.361  0.1744 -0.5300 -0.0237
39945SOL     OW25670   9.797   5.002   8.388  0.7417 -1.0196  0.2824
39945SOL    HW125671   9.859   5.029   8.457 -0.6964 -0.1280  1.2772
39945SOL    HW225672   9.774   4.912   8.411  0.0603 -0.6365  1.1533
39946SOL     OW25673   4.450   3.883   2.324 -0.7041 -0.5515  0.3918
39946SOL    HW125674   4.452   3.801   2.275 -1.9424 -0.0821 -0.5043
39946SOL    HW225675   4.358   3.897   2.345 -0.4911  0.5179  0.6948
39947SOL     OW25676   3.612   7.734   4.251  0.5638  0.2827 -0.4158
39947SOL    HW125677   3.603   7.641   4.275 -1.5335  0.4361 -0.4894
39947SOL    HW225678   3.564   7.781   4.318 -0.4548  1.1367 -1.7076
39948SOL     OW25679   5.630   0.269   4.651 -0.1528  0.1122 -0.6082
39948SOL    HW125680   5.578   0.243   4.727  0.2770  2.7499  0.6720
39948SOL    HW225681   5.565   0.286   4.583 -0.6476 -0.7172 -0.3630
39949SOL     OW25682   3.143   5.451   6.320  0.2089  0.3878  0.6214
39949SOL    HW125683   3.126   5.525   6.261  0.5118 -1.4739 -1.9790
39949SOL    HW225684   3.235   5.428   6.302 -0.1430 -1.1453  0.6941
39950SOL     OW25685   5.480   3.692   5.877 -0.2818 -0.2987 -0.5807
39950SOL    HW125686   5.427   3.689   5.957 -0.9386  0.9947 -0.9360
39950SOL    HW225687   5.554   3.635   5.895 -0.0828  0.4507  1.2143
39951SOL     OW25688   9.391   3.945   3.821 -0.2059  0.4161 -0.1160
39951SOL    HW125689   9.366   3.874   3.881 -0.3407  0.7952  0.2804
39951SOL    HW225690   9.385   4.024   3.874 -1.9036  0.9688 -1.0548
39952SOL     OW25691   8.640   9.898   4.706  0.0617  0.6669 -0.2903
39952SOL    HW125692   8.731   9.922   4.687  0.3755 -2.2976 -3.5015
39952SOL    HW225693   8.644   9.805   4.728 -2.2634  0.2094 -1.5046
39953SOL     OW25694   6.259   1.443   7.464  0.7201  0.2400 -0.4490
39953SOL    HW125695   6.345   1.409   7.441  1.5803  0.6309  1.9217
39953SOL    HW225696   6.209   1.366   7.492  0.4815  0.1023 -1.2219
39954SOL     OW25697   7.206   2.194   5.140 -0.3058  0.4189  0.3333
39954SOL    HW125698   7.166   2.265   5.091  0.3562 -0.2382 -1.2069
39954SOL    HW225699   7.246   2.236   5.216 -0.9344  1.5180  0.0696
39955SOL     OW25700   6.296   2.362   2.462 -0.1529 -0.5926 -0.2405
39955SOL    HW125701   6.275   2.299   2.393 -1.6396  0.2001 -0.5680
39955SOL    HW225702   6.219   2.419   2.465  1.1947  1.2807 -0.0366
39956SOL     OW25703   0.088   0.752   7.715 -0.7142 -0.0332 -0.3461
39956SOL    HW125704   0.031   0.678   7.694  0.6759 -1.9056  1.8611
39956SOL    HW225705   0.168   0.735   7.665  1.3879 -2.7858  3.4000
39957SOL     OW25706   6.230   7.098   3.756 -0.3352 -0.2512 -0.2330
39957SOL    HW125707   6.156   7.072   3.701  1.6515 -0.7270 -2.8947
39957SOL    HW225708   6.271   7.015   3.781 -0.4308  0.0222  0.8968
39958SOL     OW25709   1.508   7.463   5.928 -0.5506  0.2684 -0.0391
39958SOL    HW125710   1.434   7.443   5.986 -0.0770  0.9102  0.8159
39958SOL    HW225711   1.578   7.492   5.987  0.4418 -0.4597 -0.8205
39959SOL     OW25712   4.981  10.233   1.499 -0.0529  0.0152 -0.3372
39959SOL    HW125713   5.051  10.209   1.560  0.6528 -2.0721 -1.8435
39959SOL    HW225714   4.962  10.325   1.518  2.0481  0.2053  1.1209
39960SOL     OW25715  10.301   0.226   0.124  0.4258  0.0351 -0.1232
39960SOL    HW125716  10.352   0.178   0.058  1.6610  1.0105  0.0755
39960SOL    HW225717  10.350   0.212   0.206 -0.5738 -0.3912  0.4134
39961SOL     OW25718   1.453   2.284   2.607 -0.0338 -0.1530  0.4462
39961SOL    HW125719   1.468   2.245   2.693  0.1807 -0.6185  0.2054
39961SOL    HW225720   1.407   2.366   2.625  1.8408  0.8043  1.1404
39962SOL     OW25721   2.678   1.619   6.481 -0.0638 -0.2264 -0.3593
39962SOL    HW125722   2.644   1.709   6.481 -0.0547 -0.2190 -0.8823
39962SOL    HW225723   2.670   1.591   6.390 -0.8236 -1.0479 -0.0520
39963SOL     OW25724  10.904   9.990   1.306 -0.3715  0.0788  0.3543
39963SOL    HW125725  10.869  10.000   1.218 -0.4029  0.1833  0.3785
39963SOL    HW225726  10.913   9.895   1.318  1.1677  0.1101 -0.3596
39964SOL     OW25727   9.322   7.689   9.006  0.0892 -0.0298  0.1724
39964SOL    HW125728   9.319   7.668   8.913 -1.5963  0.9394 -0.0471
39964SOL    HW225729   9.394   7.751   9.015  0.0807  0.0833 -0.5386
39965SOL     OW25730   0.800   6.908   9.211  0.1851 -0.2992 -0.4376
39965SOL    HW125731   0.816   6.966   9.285  0.5988 -0.8181 -0.1058
39965SOL    HW225732   0.793   6.966   9.136  1.3272  0.1382 -0.2266
39966SOL     OW25733   6.445   1.822   0.249 -0.2988 -0.1541 -0.4195
39966SOL    HW125734   6.419   1.736   0.282 -0.7754 -0.1618 -0.8142
39966SOL    HW225735   6.380   1.883   0.285  0.4125  0.1437  0.3993
39967SOL     OW25736   4.021   2.528   3.267  0.6113  0.1156  0.2799
39967SOL    HW125737   3.987   2.450   3.223  0.3429 -0.3141  1.2421
39967SOL    HW225738   4.042   2.588   3.195 -1.4728  0.1212 -0.3974
39968SOL     OW25739   6.498   4.360   4.358 -0.5313 -0.7440 -0.4151
39968SOL    HW125740   6.545   4.391   4.435 -1.0585 -0.7205 -0.0956
39968SOL    HW225741   6.566   4.331   4.298  0.0769  1.9745 -1.1803
39969SOL     OW25742  10.925   6.030   6.798 -0.5677 -0.4173  0.2443
39969SOL    HW125743  10.866   6.057   6.869  0.6056 -1.4501  1.6510
39969SOL    HW225744  10.984   6.104   6.787  2.1621 -1.8429  3.5834
39970SOL     OW25745   3.160   1.662   0.896  0.5570 -0.1833 -0.4443
39970SOL    HW125746   3.203   1.740   0.932  2.4615 -1.0761 -0.6491
39970SOL    HW225747   3.082   1.650   0.950  1.2018  0.8074  0.7636
39971SOL     OW25748   4.937   3.405   0.536  0.1517  0.2531 -0.3876
39971SOL    HW125749   5.025   3.418   0.503  0.3442 -2.0785 -0.9598
39971SOL    HW225750   4.946   3.415   0.631  1.0556 -0.0173 -0.4317
39972SOL     OW25751   7.002   2.185   7.191 -0.0045  0.3512  0.4289
39972SOL    HW125752   6.942   2.174   7.117 -0.5712  2.7076  0.4669
39972SOL    HW225753   6.966   2.257   7.241  1.4162  0.0532  1.9915
39973SOL     OW25754   5.245   9.463   2.242  0.0398 -0.6737  0.1819
39973SOL    HW125755   5.319   9.406   2.264  0.4935 -0.2944 -0.3627
39973SOL    HW225756   5.169   9.415   2.275  0.5434 -0.9284  1.0245
39974SOL     OW25757   2.359   0.860  10.534  0.4261  0.3496 -0.2671
39974SOL    HW125758   2.448   0.867  10.498 -0.5361 -0.9139 -3.1779
39974SOL    HW225759   2.324   0.779  10.498 -1.3983 -0.0803  2.1871
39975SOL     OW25760   4.202   1.479   3.021 -0.0194  0.2145 -0.2349
39975SOL    HW125761   4.272   1.416   3.033  0.4199  0.7613  0.1064
39975SOL    HW225762   4.128   1.442   3.069  0.1787 -0.1202 -0.1832
39976SOL     OW25763  10.128   8.059   8.344  0.0186  0.1198  0.2330
39976SOL    HW125764  10.061   8.120   8.376 -0.1485 -1.2557  2.7772
39976SOL    HW225765  10.080   7.996   8.291 -0.2096  0.7105 -0.2827
39977SOL     OW25766   9.399   7.098   6.811 -0.5897 -0.7077 -0.6638
39977SOL    HW125767   9.336   7.063   6.749  0.6434  0.1148 -2.4633
39977SOL    HW225768   9.475   7.040   6.803 -0.2855 -0.3773 -0.1981
39978SOL     OW25769   1.878   3.665   2.527  0.0415  0.0791  0.2763
39978SOL    HW125770   1.890   3.580   2.569 -0.7940 -0.5382 -0.6917
39978SOL    HW225771   1.796   3.698   2.562  0.1369  0.2854  0.3093
39979SOL     OW25772   5.750   8.300   9.355 -0.0638  0.0019  0.4469
39979SOL    HW125773   5.844   8.290   9.371 -0.0200 -0.8889 -0.3157
39979SOL    HW225774   5.738   8.394   9.339  0.4346  0.3712  2.1153
39980SOL     OW25775   3.853   7.638  10.310  0.1929 -0.3447  0.0618
39980SOL    HW125776   3.794   7.713  10.307  0.8806  0.7657  5.2102
39980SOL    HW225777   3.805   7.571  10.358  0.8614 -1.9499 -1.4043
39981SOL     OW25778   8.756   3.522   4.921 -0.0980  0.3142  0.0422
39981SOL    HW125779   8.775   3.436   4.883  1.6739  1.3578 -1.6444
39981SOL    HW225780   8.705   3.567   4.854 -3.0162 -0.0821  1.8120
39982SOL     OW25781   9.943   9.985   8.553 -0.6901  0.1524 -0.7073
39982SOL    HW125782   9.886   9.992   8.477  0.2819  1.4153 -1.3633
39982SOL    HW225783   9.887  10.006   8.628 -1.5352 -0.6114 -1.1142
39983SOL     OW25784   6.309   4.595   7.162 -0.2547  0.1809  0.6098
39983SOL    HW125785   6.273   4.616   7.248  0.0723 -0.5174  0.9272
39983SOL    HW225786   6.367   4.669   7.142 -0.2578  0.3008  1.0300
39984SOL     OW25787   2.577   9.238   8.624  0.0295 -0.4721  0.2431
39984SOL    HW125788   2.598   9.162   8.569 -0.0241 -0.6008  0.3969
39984SOL    HW225789   2.496   9.212   8.669 -0.6702  0.1532 -0.6151
39985SOL     OW25790   0.274  10.915   2.890 -0.1760 -0.4161 -0.1311
39985SOL    HW125791   0.258  11.009   2.899  0.6818 -0.2243 -0.4933
39985SOL    HW225792   0.365  10.903   2.918 -0.8571 -1.4560  1.8696
39986SOL     OW25793   9.647   0.386   6.196 -0.4982  0.0412 -0.0355
39986SOL    HW125794   9.630   0.480   6.195  1.1897  0.4325 -2.7127
39986SOL    HW225795   9.726   0.376   6.250 -1.0821  0.0552  0.8280
39987SOL     OW25796   6.755   6.319   3.938  0.3310  0.3816 -0.5232
39987SOL    HW125797   6.688   6.358   3.881 -1.5763 -1.4549  0.3361
39987SOL    HW225798   6.838   6.354   3.904 -0.8311  0.7514 -3.3013
39988SOL     OW25799  10.679   7.537  10.076  0.2664  0.3785  0.4352
39988SOL    HW125800  10.769   7.534  10.044 -0.3901  1.4628 -1.7498
39988SOL    HW225801  10.664   7.629  10.097  0.6803 -0.2607  4.2936
39989SOL     OW25802   2.846   6.566   9.466 -0.5337 -0.4604 -0.1420
39989SOL    HW125803   2.912   6.635   9.475 -1.8348  0.6896  1.0097
39989SOL    HW225804   2.807   6.582   9.380  1.5005 -1.9708 -1.4502
39990SOL     OW25805   6.643   6.283   0.767 -0.1366 -0.5264  0.1170
39990SOL    HW125806   6.669   6.367   0.806 -0.5070 -0.4353  0.1723
39990SOL    HW225807   6.667   6.291   0.675 -0.8072 -0.0848 -0.0276
39991SOL     OW25808   8.854   4.996   8.787 -0.0300 -0.0352  0.7252
39991SOL    HW125809   8.833   5.065   8.849 -1.0952  0.1958  0.1441
39991SOL    HW225810   8.925   5.032   8.734  1.6513 -0.6518  2.4581
39992SOL     OW25811   9.436   0.104   9.464 -0.1512  0.1223 -0.7622
39992SOL    HW125812   9.459   0.021   9.422  1.1518  0.0543  0.0388
39992SOL    HW225813   9.347   0.090   9.496 -0.7569 -0.2099 -2.4749
39993SOL     OW25814   4.786   7.030   1.703  0.4035  0.3392  0.0112
39993SOL    HW125815   4.719   7.093   1.675  0.2065  0.3251  0.4418
39993SOL    HW225816   4.867   7.080   1.705  0.6500  0.0867 -1.6541
39994SOL     OW25817  10.612   6.823   9.936  0.3909 -0.4300  0.3792
39994SOL    HW125818  10.553   6.771   9.881 -1.6545  0.5288  1.5171
39994SOL    HW225819  10.639   6.896   9.880 -0.4124 -0.2976  0.1525
39995SOL     OW25820   3.028   7.265   6.905 -0.5212  0.2691  0.5448
39995SOL    HW125821   3.117   7.241   6.879 -0.2278  0.2317  1.5497
39995SOL    HW225822   3.029   7.259   7.001 -1.6167  0.2303  0.5578
39996SOL     OW25823   2.942   9.008   4.260 -0.1961  0.1655  0.8012
39996SOL    HW125824   2.996   8.988   4.337  0.1702 -0.4251  0.3985
39996SOL    HW225825   2.857   8.968   4.278  0.3842 -1.4314  0.2069
39997SOL     OW25826   7.443   4.631   7.525  0.3083 -1.2163  0.3699
39997SOL    HW125827   7.370   4.570   7.520 -0.1094 -0.6205 -2.9787
39997SOL    HW225828   7.518   4.582   7.492  0.2755 -0.4033 -0.9860
39998SOL     OW25829   4.895   9.013  10.707 -0.9730  0.2760  0.6143
39998SOL    HW125830   4.951   8.953  10.757 -0.5607  0.5787  0.5202
39998SOL    HW225831   4.908   9.098  10.749 -0.3607  0.6020 -0.2157
39999SOL     OW25832   8.039   4.366   8.945  0.4261 -0.8280  0.2474
39999SOL    HW125833   8.096   4.378   8.869 -0.0675 -0.6975 -0.1125
39999SOL    HW225834   8.018   4.272   8.945 -0.4953 -0.6347 -0.4666
40000SOL     OW25835   2.769   7.017   2.843 -0.0147  0.2456 -0.0354
40000SOL    HW125836   2.756   6.928   2.811  0.2225  0.4680 -0.7820
40000SOL    HW225837   2.838   7.053   2.786  0.2608  0.7315  0.5958
40001SOL     OW25838   4.776   6.905   4.201 -0.0069  0.2447 -0.1703
40001SOL    HW125839   4.704   6.968   4.206 -0.6164 -0.4359 -0.2315
40001SOL    HW225840   4.738   6.828   4.159  0.8677  0.0269 -0.5970
40002SOL     OW25841   3.121   4.638   3.304  0.3294 -0.3224 -0.7608
40002SOL    HW125842   3.118   4.625   3.209  1.1311 -0.8798 -0.7202
40002SOL    HW225843   3.212   4.623   3.327  0.5981  1.9222 -0.1854
40003SOL     OW25844   2.080  10.184  10.266 -0.3589 -0.1158  0.1352
40003SOL    HW125845   2.026  10.223  10.196 -1.5023  0.3858  1.2571
40003SOL    HW225846   2.042  10.218  10.347  1.7408  0.3514  0.9917
40004SOL     OW25847  10.176   1.075   8.006 -0.0130 -0.5405  0.3148
40004SOL    HW125848  10.135   1.133   8.070  0.2158  1.7749 -1.5284
40004SOL    HW225849  10.257   1.046   8.048  1.0914  2.4271  0.4837
40005SOL     OW25850   6.664   5.387   4.658  0.4135  0.1034  0.0131
40005SOL    HW125851   6.669   5.345   4.744  0.2335  2.8489  1.4836
40005SOL    HW225852   6.575   5.368   4.627 -0.2809  0.8041  1.4567
40006SOL     OW25853   1.962   0.297   1.139  0.5979 -0.1578  0.3972
40006SOL    HW125854   1.869   0.318   1.134  0.8278  1.1294  0.8889
40006SOL    HW225855   1.988   0.277   1.050 -0.2564 -1.0606  0.3384
40007SOL     OW25856   2.591   8.211   5.671  0.1953  0.1365  0.3144
40007SOL    HW125857   2.554   8.240   5.588  0.1488  0.6910  0.5240
40007SOL    HW225858   2.537   8.137   5.697  0.2154 -0.0460 -0.1537
40008SOL     OW25859   2.675   9.805   7.642 -0.4079  0.2672  0.2961
40008SOL    HW125860   2.630   9.805   7.558  0.1672 -0.3319 -0.0157
40008SOL    HW225861   2.608   9.832   7.705 -0.7791  0.9569 -0.3810
40009SOL     OW25862   8.384   8.729   8.081 -0.1551  0.2774 -0.0291
40009SOL    HW125863   8.301   8.763   8.046  0.0981  2.2235  1.0992
40009SOL    HW225864   8.375   8.737   8.176  0.4183 -1.8282  0.2495
40010SOL     OW25865   1.010   3.163   6.642 -0.1570 -0.2320 -0.0736
40010SOL    HW125866   0.968   3.130   6.721 -0.2475 -1.1218 -0.4767
40010SOL    HW225867   1.095   3.196   6.672  0.0299 -1.0483  0.3252
40011SOL     OW25868   4.695   7.359   5.404 -0.1485 -0.3903 -0.3845
40011SOL    HW125869   4.721   7.415   5.477 -0.0021  1.7964 -2.0168
40011SOL    HW225870   4.600   7.353   5.411 -0.1618  0.0370 -0.1645
40012SOL     OW25871   0.396   5.918   2.557 -0.0066 -0.3705 -0.0243
40012SOL    HW125872   0.301   5.908   2.554 -0.1308  0.5605  0.2689
40012SOL    HW225873   0.425   5.898   2.468 -0.5523 -0.0620 -0.2795
40013SOL     OW25874   6.239   1.371   3.302  0.2269  0.1857 -0.2487
40013SOL    HW125875   6.263   1.281   3.320 -0.5660 -0.1542 -0.8392
40013SOL    HW225876   6.143   1.371   3.301  0.1698  1.3264  1.2145
40014SOL     OW25877   6.959   4.233   3.922 -0.2146 -0.1620 -0.1154
40014SOL    HW125878   6.983   4.325   3.909 -1.0326 -0.0026 -0.5306
40014SOL    HW225879   7.039   4.193   3.957 -0.5715  1.2271  2.5736
40015SOL     OW25880   0.076   8.919   5.546 -0.3765  0.5407  0.5356
40015SOL    HW125881   0.133   8.907   5.622 -2.2879  0.6495  2.0547
40015SOL    HW225882   0.103   8.852   5.485  0.6424 -0.1250  1.6754
40016SOL     OW25883  10.748   1.456   1.934 -0.0516  0.1504  0.2634
40016SOL    HW125884  10.697   1.456   1.852  1.4511 -0.1147 -0.7195
40016SOL    HW225885  10.784   1.368   1.940  1.1349  0.6282  0.3654
40017SOL     OW25886  10.575  10.041  10.363 -0.5865  0.5864 -0.3157
40017SOL    HW125887  10.530   9.957  10.375 -1.0528  0.8193 -0.4203
40017SOL    HW225888  10.637  10.045  10.436 -2.1046  1.1350  1.0005
40018SOL     OW25889   1.989   9.682   9.284  0.3860 -0.1596 -0.2396
40018SOL    HW125890   1.933   9.635   9.222 -1.1458  0.7101  0.4221
40018SOL    HW225891   2.031   9.613   9.335 -0.2875 -0.8530 -0.5967
40019SOL     OW25892   0.100   2.621   3.575  0.0433  0.3834  0.2112
40019SOL    HW125893   0.075   2.709   3.547 -0.5738  0.1521  0.0218
40019SOL    HW225894   0.195   2.627   3.591 -0.2003  1.4027  1.4428
40020SOL     OW25895   8.266   5.586  10.765  0.1113 -0.2655  0.7992
40020SOL    HW125896   8.310   5.501  10.756  2.3571  0.6904  2.0016
40020SOL    HW225897   8.312   5.644  10.705 -0.3345  0.4849  1.1604
40021SOL     OW25898   8.572   2.627   4.026  0.2073 -0.7966 -0.0171
40021SOL    HW125899   8.617   2.581   3.955 -0.0267  1.1377 -1.5169
40021SOL    HW225900   8.604   2.717   4.020 -0.4877 -0.3833  1.8095
40022SOL     OW25901   6.765   7.354   0.851 -0.2185 -0.2602 -0.3656
40022SOL    HW125902   6.827   7.395   0.790 -1.6128  2.2555 -0.1903
40022SOL    HW225903   6.725   7.427   0.898 -3.3599 -1.7545 -0.4859
40023SOL     OW25904   4.452   1.624  10.550  0.3425 -0.0835  0.1971
40023SOL    HW125905   4.369   1.664  10.522 -0.7101 -0.0002  3.0395
40023SOL    HW225906   4.432   1.531  10.559  0.5839 -0.0880  0.7327
40024SOL     OW25907   8.768   6.947   0.840 -0.4772  0.0777  0.1457
40024SOL    HW125908   8.763   6.889   0.916 -2.5576 -1.0465 -0.7598
40024SOL    HW225909   8.685   6.995   0.841 -0.1725  0.6578 -0.9571
40025SOL     OW25910   3.689   6.580   9.472  0.3815 -0.3686  0.0125
40025SOL    HW125911   3.616   6.638   9.450 -0.5076 -1.3892  0.1949
40025SOL    HW225912   3.749   6.587   9.397 -0.4618 -0.4011 -0.6757
40026SOL     OW25913   2.199   0.907   9.268 -0.0616 -0.0164  0.4784
40026SOL    HW125914   2.192   0.814   9.290 -2.0944  0.6507  3.2413
40026SOL    HW225915   2.112   0.930   9.235  0.3547  0.9720  0.0310
40027SOL     OW25916   9.427   6.343   2.246  0.2539 -0.2254 -0.4606
40027SOL    HW125917   9.511   6.365   2.206  0.7268 -1.3419 -0.1288
40027SOL    HW225918   9.451   6.289   2.322 -0.6725  0.8966  0.6738
40028SOL     OW25919   6.978   9.772  10.839  0.1909  0.1928 -0.1080
40028SOL    HW125920   6.934   9.732  10.764  0.1801  0.3348 -0.1772
40028SOL    HW225921   7.033   9.702  10.875 -0.9607 -0.3330  0.6782
40029SOL     OW25922   9.135   2.685   5.188  0.5172  0.1312  0.4956
40029SOL    HW125923   9.080   2.762   5.174  1.8083  1.2570  1.2945
40029SOL    HW225924   9.094   2.616   5.136 -0.7212  1.3362 -0.1941
40030SOL     OW25925  10.064   8.509   4.034 -0.3376 -0.1835  0.5384
40030SOL    HW125926  10.107   8.542   3.955 -0.2926 -2.3359 -0.3936
40030SOL    HW225927  10.136   8.487   4.093 -0.1895 -1.7233 -0.1690
40031SOL     OW25928   1.042   5.285   2.941  0.7390  0.1713  0.1495
40031SOL    HW125929   1.001   5.293   2.855  1.2153  2.1001  0.0689
40031SOL    HW225930   0.987   5.339   2.998  0.6108 -0.8393  1.0068
40032SOL     OW25931   0.202   1.282   9.282 -0.5116  0.2229  0.8301
40032SOL    HW125932   0.280   1.228   9.268  0.6568  1.2756  2.8464
40032SOL    HW225933   0.210   1.353   9.218 -0.5481 -0.3897  0.1271
40033SOL     OW25934   9.854   2.490   1.972  0.2434 -0.1371 -0.0809
40033SOL    HW125935   9.891   2.413   2.014  0.0578 -0.6111 -0.7587
40033SOL    HW225936   9.930   2.537   1.937  0.2792 -0.7533 -0.8752
40034SOL     OW25937   3.564   2.462   2.054  0.2844 -0.0734 -0.8250
40034SOL    HW125938   3.626   2.417   2.112  1.1023  0.2650 -1.4138
40034SOL    HW225939   3.618   2.526   2.007 -0.8328  1.5087 -0.0302
40035SOL     OW25940   6.331   5.718  10.510  0.2503  0.0144  0.2694
40035SOL    HW125941   6.415   5.676  10.527  0.4156 -1.0178 -2.6201
40035SOL    HW225942   6.265   5.656  10.542  0.5498 -0.2525  0.3689
40036SOL     OW25943   9.790   6.160   8.871 -0.4370  0.5011 -0.9278
40036SOL    HW125944   9.760   6.246   8.844 -2.4196  0.1388 -0.0299
40036SOL    HW225945   9.746   6.143   8.954  1.3678 -0.6146 -0.1346
40037SOL     OW25946   6.831   6.491   1.474 -0.4659  0.0897  0.0134
40037SOL    HW125947   6.793   6.492   1.386  0.5778  2.2037 -0.4725
40037SOL    HW225948   6.895   6.562   1.474  0.6133 -0.7813  2.0482
40038SOL     OW25949   5.946   7.594   6.842 -0.2363 -0.7785  0.2694
40038SOL    HW125950   5.983   7.520   6.892  1.3774 -0.8411 -0.9273
40038SOL    HW225951   6.022   7.637   6.804 -1.2281  0.9958  0.2074
40039SOL     OW25952   7.229   2.224   2.211  0.2736 -0.2796  0.0925
40039SOL    HW125953   7.255   2.313   2.188  1.7172 -0.1223  2.0034
40039SOL    HW225954   7.138   2.231   2.239  0.4599  0.6558  0.4916
40040SOL     OW25955   1.156   7.657   3.638  0.2051  0.3664 -0.5708
40040SOL    HW125956   1.064   7.665   3.616  0.0539 -1.4580 -0.8101
40040SOL    HW225957   1.195   7.612   3.563  0.7901 -0.9748  0.4922
40041SOL     OW25958  10.211   5.716   6.272 -0.6342  0.5402 -0.2290
40041SOL    HW125959  10.181   5.642   6.220  0.3899  1.5128 -2.3418
40041SOL    HW225960  10.202   5.792   6.214  0.9472  1.6381  0.8645
40042SOL     OW25961   2.360   1.543   2.029 -0.0433  0.1397 -0.4382
40042SOL    HW125962   2.382   1.633   2.055 -1.8093  0.3647  0.4741
40042SOL    HW225963   2.444   1.498   2.025  0.7663  1.4798  0.5189
40043SOL     OW25964   0.992   1.816   0.247  0.7219 -0.3694  0.1360
40043SOL    HW125965   1.000   1.870   0.325 -1.0760  1.2464 -0.7161
40043SOL    HW225966   1.037   1.865   0.178 -2.5859  1.1775 -1.1039
40044SOL     OW25967   7.992   7.786   2.646 -0.1918 -0.5029  0.4517
40044SOL    HW125968   8.035   7.826   2.571 -1.6260  0.0021 -0.1420
40044SOL    HW225969   7.910   7.834   2.654  0.1074 -0.2727  2.6182
40045SOL     OW25970   5.911   8.174  10.476 -0.0721  0.5223 -0.4499
40045SOL    HW125971   5.924   8.079  10.472 -0.9764  0.3819 -0.1567
40045SOL    HW225972   5.878   8.190  10.565 -1.3248  0.9293 -0.9718
40046SOL     OW25973   2.781   2.761   5.006  0.0787 -0.4763  0.2025
40046SOL    HW125974   2.829   2.836   4.972  1.4429 -1.3373  0.1543
40046SOL    HW225975   2.753   2.788   5.093  0.3165  0.1776  0.0805
40047SOL     OW25976   3.478   0.960   9.298  0.1259  0.1331  0.0881
40047SOL    HW125977   3.425   0.882   9.317  0.7769 -0.3061  0.1229
40047SOL    HW225978   3.417   1.033   9.309 -0.3133 -0.3208  0.7628
40048SOL     OW25979   2.692   1.541   6.206  0.2191  0.3309  0.3106
40048SOL    HW125980   2.684   1.585   6.121  2.1656  0.0847 -0.0386
40048SOL    HW225981   2.683   1.448   6.186  0.0126  0.3146  0.4771
40049SOL     OW25982   8.423   5.805   6.809  0.8268  0.1880 -0.0557
40049SOL    HW125983   8.366   5.836   6.880  0.4255  1.0150 -0.7111
40049SOL    HW225984   8.380   5.837   6.729  2.0907  0.6201 -0.5828
40050SOL     OW25985   4.204   7.956   3.239  0.1867 -0.2711  0.2366
40050SOL    HW125986   4.129   7.940   3.181  0.4073 -2.3472  0.4531
40050SOL    HW225987   4.252   8.027   3.197 -0.4376 -0.7487 -1.3623
40051SOL     OW25988   8.879   0.847   4.694  0.3210 -0.8139 -0.1600
40051SOL    HW125989   8.808   0.899   4.656  1.0824 -0.9004 -1.7890
40051SOL    HW225990   8.928   0.909   4.748 -0.0676 -0.3816 -0.2912
40052SOL     OW25991   3.124   4.029  10.869  0.3784 -0.5989  0.2017
40052SOL    HW125992   3.087   4.029  10.781  0.3789  0.6989  0.1863
40052SOL    HW225993   3.217   4.048  10.856  0.0805  1.2835  0.5634
40053SOL     OW25994   2.973   1.788   7.655  0.0859  0.0527 -0.4923
40053SOL    HW125995   2.917   1.725   7.610  1.0592 -0.5721 -0.8326
40053SOL    HW225996   3.046   1.804   7.595  0.0733  1.1928 -0.2387
40054SOL     OW25997   1.258  10.429  10.756  0.0126 -0.0103 -0.0686
40054SOL    HW125998   1.293  10.480  10.682  2.2389 -0.1169  0.8441
40054SOL    HW225999   1.246  10.341  10.721 -0.6513  0.3424 -0.7583
40055SOL     OW26000  10.273   5.135   3.072  0.1222  0.5185  0.4193
40055SOL    HW126001  10.258   5.220   3.033 -0.9006  0.3274  0.3819
40055SOL    HW226002  10.337   5.093   3.014 -0.0193  0.9231 -0.0315
40056SOL     OW26003   8.465   2.811   0.632 -0.2379 -0.2216  0.5047
40056SOL    HW126004   8.514   2.826   0.552 -1.1662  0.2811  0.0207
40056SOL    HW226005   8.527   2.768   0.691  0.2615 -1.1737 -0.6965
40057SOL     OW26006   0.557   1.726   6.838  0.4917  0.3498  0.7618
40057SOL    HW126007   0.468   1.732   6.802  0.3193  1.9083  1.3520
40057SOL    HW226008   0.558   1.791   6.909  2.3490  0.9542  0.2414
40058SOL     OW26009   3.789   7.586   0.976 -0.1184  0.1702 -0.2729
40058SOL    HW126010   3.838   7.515   1.018 -0.2732 -0.1114 -0.5662
40058SOL    HW226011   3.703   7.584   1.017 -0.0840  0.2656 -0.1964
40059SOL     OW26012   6.892   3.598   7.270 -0.1488 -0.0577  0.0518
40059SOL    HW126013   6.928   3.604   7.182 -1.3763 -0.3317 -0.5009
40059SOL    HW226014   6.930   3.518   7.306  1.5205  0.8258  0.3587
40060SOL     OW26015   3.420   5.109   4.812 -0.0899  0.2059  0.0473
40060SOL    HW126016   3.359   5.182   4.820 -0.0166  0.1676  1.0947
40060SOL    HW226017   3.371   5.041   4.765 -0.5882  0.4547  0.2099
40061SOL     OW26018   1.700  10.152   1.783  0.5585 -0.0474 -0.4369
40061SOL    HW126019   1.778  10.127   1.832  1.1076  0.2979 -1.1124
40061SOL    HW226020   1.719  10.127   1.693 -0.1155  0.0470 -0.6126
40062SOL     OW26021   0.002   1.750   5.635 -0.0257 -0.3916  0.1273
40062SOL    HW126022  -0.007   1.813   5.707 -0.3231 -0.3044  0.0148
40062SOL    HW226023  -0.062   1.682   5.655 -0.5136 -0.0754 -0.3568
40063SOL     OW26024   5.109   4.276   0.420 -0.2934  0.1644  0.1115
40063SOL    HW126025   5.161   4.348   0.385  0.9305 -0.6317  0.2378
40063SOL    HW226026   5.049   4.318   0.482  1.4344  0.9278  1.3264
40064SOL     OW26027   9.443   0.737   3.740 -0.3392 -0.3094 -0.0124
40064SOL    HW126028   9.369   0.759   3.682 -1.4514  1.2304  1.8568
40064SOL    HW226029   9.451   0.642   3.733 -0.9317 -0.2745 -2.0520
40065SOL     OW26030   1.697   4.051   7.635  0.1574 -0.0756 -0.2823
40065SOL    HW126031   1.749   4.058   7.555  0.1940  1.0754 -0.1819
40065SOL    HW226032   1.754   4.088   7.703  0.2019 -1.2226  0.3230
40066SOL     OW26033   1.626   0.855   1.947 -0.0002  0.0418 -0.1616
40066SOL    HW126034   1.705   0.802   1.959  0.0096  0.0778 -0.0675
40066SOL    HW226035   1.636   0.893   1.860 -0.3025 -0.6102 -0.4886
40067SOL     OW26036   4.607   2.192   0.980  0.1895  0.1097  0.8056
40067SOL    HW126037   4.583   2.206   1.072 -0.8503  2.0516  0.3143
40067SOL    HW226038   4.623   2.281   0.947 -1.4903 -0.3088 -1.3781
40068SOL     OW26039   2.888   2.766   4.217 -0.1929  0.2007  0.3799
40068SOL    HW126040   2.885   2.837   4.282  0.1624  2.5589 -1.9880
40068SOL    HW226041   2.797   2.741   4.204 -0.3866  0.6913  0.7826
40069SOL     OW26042   9.006   9.747   4.589  0.1415  0.5186  0.8839
40069SOL    HW126043   9.015   9.748   4.684  2.2646 -1.2946  0.7725
40069SOL    HW226044   9.096   9.754   4.556  0.0694 -3.8093 -0.8190
40070SOL     OW26045   4.503   1.191   2.787 -0.4587 -0.0303  0.5663
40070SOL    HW126046   4.487   1.176   2.881 -0.4094  2.7836  1.1261
40070SOL    HW226047   4.422   1.162   2.745 -1.4760  0.8523  1.7980
40071SOL     OW26048   8.125   8.242   1.337  0.4597 -0.7716  0.2292
40071SOL    HW126049   8.108   8.173   1.401  0.6272 -0.8690  0.1699
40071SOL    HW226050   8.164   8.196   1.263 -2.3428 -1.1155 -1.1565
40072SOL     OW26051   8.439   6.093   4.879  0.0093  0.0233  0.4371
40072SOL    HW126052   8.480   6.179   4.877 -2.8152  1.4825 -0.7626
40072SOL    HW226053   8.512   6.031   4.887  2.1678  2.4703  0.9432
40073SOL     OW26054   5.286   9.055   3.939 -0.0738 -0.6341  0.3456
40073SOL    HW126055   5.199   9.089   3.921  0.1210  0.0436  0.6507
40073SOL    HW226056   5.308   9.004   3.860 -1.7675 -3.0249  1.2942
40074SOL     OW26057   2.652   7.984   4.278  0.4111 -0.0517  0.0791
40074SOL    HW126058   2.657   8.017   4.368  0.5631  0.4530 -0.1107
40074SOL    HW226059   2.588   8.041   4.235 -0.1633 -0.7146  0.0435
40075SOL     OW26060   1.667   2.516   8.883 -0.2315 -0.5116 -0.5964
40075SOL    HW126061   1.577   2.539   8.860 -1.2288 -0.9181  2.4442
40075SOL    HW226062   1.717   2.595   8.864 -1.1791 -0.2835 -2.3741
40076SOL     OW26063   9.399  10.214   4.245  0.7047  0.0247 -0.2926
40076SOL    HW126064   9.310  10.243   4.263  0.9262 -0.0690  1.0823
40076SOL    HW226065   9.400  10.121   4.267  1.3084  0.1872  0.4394
40077SOL     OW26066   4.045   1.050  10.011 -0.3539 -0.0251  0.0710
40077SOL    HW126067   4.002   0.971  10.042  0.0928 -0.7413 -1.0913
40077SOL    HW226068   4.061   1.035   9.918  0.5182  1.0747  0.0120
40078SOL     OW26069  10.469   0.630  10.580 -0.7021 -0.4278 -0.4413
40078SOL    HW126070  10.448   0.646  10.488  0.1394  1.7589 -0.3293
40078SOL    HW226071  10.483   0.718  10.616  2.5519 -1.3533  0.9108
40079SOL     OW26072  10.589   5.122   9.079  0.1263  0.2453 -0.0155
40079SOL    HW126073  10.645   5.154   9.150  0.3977  0.3042 -0.2559
40079SOL    HW226074  10.650   5.085   9.015 -0.1892 -0.8037  0.2752
40080SOL     OW26075   0.996   4.656   9.276 -0.4188 -1.2927 -0.0229
40080SOL    HW126076   1.061   4.697   9.220  0.5335  1.0303  2.5556
40080SOL    HW226077   0.928   4.723   9.287 -0.8491 -1.8930  1.1197
40081SOL     OW26078   6.618   1.576   3.487  0.3775  0.7967 -0.2164
40081SOL    HW126079   6.589   1.543   3.402  0.6221 -0.3155  0.1134
40081SOL    HW226080   6.581   1.515   3.551  0.2469  1.5852  0.4713
40082SOL     OW26081   7.500   3.085   8.890 -0.1291 -0.3536 -0.9201
40082SOL    HW126082   7.437   3.025   8.931  0.1086  1.5052  2.5135
40082SOL    HW226083   7.584   3.061   8.928  0.2320  0.9879 -0.8136
40083SOL     OW26084   2.565   1.601   1.218  0.3697  0.2513 -0.6342
40083SOL    HW126085   2.495   1.661   1.190 -0.2318  0.4898  1.2588
40083SOL    HW226086   2.617   1.652   1.279  0.2393 -0.9366  0.5128
40084SOL     OW26087   1.882  10.275   4.557 -0.1582 -0.0763 -0.0835
40084SOL    HW126088   1.803  10.327   4.544 -1.3137 -1.3739  1.3085
40084SOL    HW226089   1.875  10.205   4.492  0.5748  0.5624 -0.8745
40085SOL     OW26090   1.918   0.967   9.532 -0.4166  0.4005  0.0520
40085SOL    HW126091   1.997   0.914   9.534 -0.2912  0.5211 -1.2067
40085SOL    HW226092   1.861   0.924   9.469 -0.8378  1.0214 -0.0068
40086SOL     OW26093   4.480  10.081   2.077  0.2475 -0.0777  0.0974
40086SOL    HW126094   4.474  10.030   2.158 -0.2287  1.3637  1.0086
40086SOL    HW226095   4.454  10.020   2.008 -0.8379 -0.9172  1.2100
40087SOL     OW26096  10.859   4.479   1.215 -0.3811  0.0636  0.1711
40087SOL    HW126097  10.875   4.569   1.186  0.1505  0.3469  1.2669
40087SOL    HW226098  10.919   4.426   1.163  0.6275  0.5698  0.7880
40088SOL     OW26099   2.851   8.508   0.041 -0.4886 -0.1431 -0.6350
40088SOL    HW126100   2.870   8.415   0.046  1.3490  0.1759 -0.9147
40088SOL    HW226101   2.869   8.541   0.129  0.6153  0.2176 -0.9797
40089SOL     OW26102   5.091   5.635   4.203 -0.0960 -0.1031  0.2789
40089SOL    HW126103   5.018   5.573   4.194  0.1790 -0.1077 -2.8354
40089SOL    HW226104   5.169   5.581   4.201  0.1142  0.2170 -1.5201
40090SOL     OW26105   4.375   4.778   2.196 -0.1534  0.0613  0.0831
40090SOL    HW126106   4.292   4.792   2.243 -0.5441  1.8137 -1.0381
40090SOL    HW226107   4.349   4.762   2.106  0.7125  0.0543 -0.1745
40091SOL     OW26108   7.576   7.211  10.108  0.0866  0.1842  0.2434
40091SOL    HW126109   7.573   7.248  10.019  0.1407  0.3798  0.3214
40091SOL    HW226110   7.492   7.237  10.147  0.9685  2.0721  1.0243
40092SOL     OW26111   4.731   1.927   6.561 -0.0728  0.2140  0.3011
40092SOL    HW126112   4.825   1.935   6.548  0.1157 -1.3051  0.5682
40092SOL    HW226113   4.721   1.908   6.654 -0.3803 -2.4693 -0.1902
40093SOL     OW26114   6.572   9.663   6.436 -0.3909 -0.2423  0.0027
40093SOL    HW126115   6.626   9.642   6.512 -0.2606 -2.2394 -0.5854
40093SOL    HW226116   6.572   9.759   6.433  1.0457 -0.1375  1.4641
40094SOL     OW26117   3.000   4.754   0.739  0.0652  0.1269  0.7338
40094SOL    HW126118   3.003   4.672   0.790 -1.1082 -0.2802  0.1885
40094SOL    HW226119   3.092   4.774   0.721  0.5155  0.2191  2.8873
40095SOL     OW26120   6.284   4.138   9.302  0.0925 -0.4304 -0.1814
40095SOL    HW126121   6.270   4.184   9.385 -0.2475 -0.2024 -0.3621
40095SOL    HW226122   6.377   4.116   9.302  0.1816 -0.0597  0.0739
40096SOL     OW26123   1.502   0.506   6.677 -0.5446 -0.0104 -0.1384
40096SOL    HW126124   1.505   0.534   6.585 -0.8334  2.9156  0.6379
40096SOL    HW226125   1.594   0.503   6.703 -0.4194 -1.5225 -0.6480
40097SOL     OW26126   1.715   6.020   9.933 -0.2859 -0.6819 -0.1607
40097SOL    HW126127   1.754   5.958   9.995  1.6790 -0.7639 -1.4025
40097SOL    HW226128   1.672   6.086   9.989 -0.6915 -2.0518  1.2087
40098SOL     OW26129   5.700   1.165   0.734 -0.7272 -0.1531 -0.1264
40098SOL    HW126130   5.655   1.228   0.791 -0.4188  0.7572 -0.8605
40098SOL    HW226131   5.713   1.213   0.652 -1.9944 -1.7243 -1.3215
40099SOL     OW26132  10.805  10.765   9.346 -0.2654 -0.4333 -0.8212
40099SOL    HW126133  10.714  10.734   9.338 -0.4079 -0.2899  0.1555
40099SOL    HW226134  10.854  10.687   9.371 -0.0203 -0.6264 -1.8711
40100SOL     OW26135   4.311   8.947   4.704 -0.2963 -0.2155  0.2523
40100SOL    HW126136   4.384   8.886   4.720  0.4215  0.5475 -0.0151
40100SOL    HW226137   4.233   8.897   4.726  0.2151 -1.5086 -0.7074
40101SOL     OW26138   4.276   8.888   5.293 -0.3455 -0.2605  0.0962
40101SOL    HW126139   4.262   8.960   5.354 -1.1735 -0.1215 -0.2442
40101SOL    HW226140   4.224   8.816   5.328 -0.8219 -0.1821 -0.4335
40102SOL     OW26141   8.752   5.252   7.788 -0.4948 -0.5370  0.0720
40102SOL    HW126142   8.784   5.325   7.735 -1.3170 -0.1551  0.0811
40102SOL    HW226143   8.705   5.294   7.859 -0.9120 -1.0805  0.1189
40103SOL     OW26144   2.645   0.088   3.965  0.2382 -1.0145 -0.0746
40103SOL    HW126145   2.680   0.144   4.035 -2.7466  0.4756  0.4080
40103SOL    HW226146   2.621   0.149   3.896 -1.0018 -1.9625 -0.5039
40104SOL     OW26147   0.263   8.043   3.961  0.1298 -0.9806  0.2661
40104SOL    HW126148   0.169   8.060   3.965 -0.0674 -2.2456  1.9993
40104SOL    HW226149   0.290   8.082   3.878 -1.9553 -0.8165 -0.4093
40105SOL     OW26150  10.085   8.399   5.148 -0.2367 -0.9492 -0.0700
40105SOL    HW126151   9.990   8.389   5.145 -0.7798  1.8202  2.4768
40105SOL    HW226152  10.103   8.467   5.083 -0.3553 -0.0173  0.8375
40106SOL     OW26153   7.462   8.154   4.447 -0.0424 -0.1279  0.7742
40106SOL    HW126154   7.371   8.152   4.477 -0.2437  1.5302  0.3947
40106SOL    HW226155   7.460   8.212   4.371  1.2384 -0.5921  0.3657
40107SOL     OW26156   3.890   7.557   8.243  1.0152  0.1394 -0.2019
40107SOL    HW126157   3.899   7.467   8.275  0.5625  0.7493  1.7262
40107SOL    HW226158   3.812   7.590   8.286 -1.1466  0.2830 -3.8367
40108SOL     OW26159   4.267   0.470   4.839 -0.3407 -0.5284 -0.0696
40108SOL    HW126160   4.316   0.397   4.800  0.5244  0.0992 -0.1784
40108SOL    HW226161   4.324   0.546   4.828 -1.5495  0.3290 -0.6220
40109SOL     OW26162   9.936   7.145   4.943 -0.5280 -0.0529 -0.8043
40109SOL    HW126163   9.941   7.050   4.959 -2.8284 -0.3898 -1.6634
40109SOL    HW226164   9.906   7.152   4.852 -2.7630  1.4063 -0.0442
40110SOL     OW26165   5.435   9.838   6.373 -0.1189 -0.3943  0.1122
40110SOL    HW126166   5.412   9.913   6.426  0.4960  0.0819 -0.2724
40110SOL    HW226167   5.408   9.762   6.424  0.7877  0.0419  1.2654
40111SOL     OW26168   0.326   1.917  10.400 -0.0687  0.4531 -0.7225
40111SOL    HW126169   0.353   1.853  10.334 -1.8329 -0.4726 -0.6277
40111SOL    HW226170   0.327   2.001  10.354  0.8231  0.1427 -1.2895
40112SOL     OW26171   1.885  10.877   8.868  0.2325 -0.2364 -0.2940
40112SOL    HW126172   1.928  10.873   8.783  0.8297  1.3304 -0.1141
40112SOL    HW226173   1.795  10.850   8.851 -0.1966  1.8941 -1.8643
40113SOL     OW26174  10.526   1.685  10.901 -0.3034  0.2498 -0.2425
40113SOL    HW126175  10.594   1.729  10.850 -0.4390 -1.0089 -1.5690
40113SOL    HW226176  10.444   1.712  10.859 -0.3728 -1.4651 -1.2763
40114SOL     OW26177   7.747   2.703   7.169  0.5388 -0.1093  0.1555
40114SOL    HW126178   7.714   2.656   7.246  0.4753 -0.1488  0.1033
40114SOL    HW226179   7.774   2.634   7.109 -1.6647 -0.1272 -0.8801
40115SOL     OW26180   2.967   7.565   6.624 -0.0091  0.0172  0.6428
40115SOL    HW126181   2.922   7.600   6.701 -0.5268 -0.0423  0.3756
40115SOL    HW226182   3.050   7.611   6.621  0.7172 -1.0908  2.1436
40116SOL     OW26183   8.317   4.262   0.511 -0.1664  0.7613  0.0841
40116SOL    HW126184   8.383   4.232   0.573 -1.0912 -1.4991  0.0637
40116SOL    HW226185   8.239   4.211   0.532 -1.4359  2.1746 -0.9506
40117SOL     OW26186   1.184   3.314   7.741 -0.2400  0.4004 -0.2098
40117SOL    HW126187   1.157   3.236   7.692  3.7134 -0.7398 -1.0009
40117SOL    HW226188   1.150   3.387   7.690 -3.3622 -0.6822  0.1032
40118SOL     OW26189   5.258   1.151   4.774  0.2506 -0.0062  0.0661
40118SOL    HW126190   5.299   1.100   4.844  1.6180 -0.2306 -0.8441
40118SOL    HW226191   5.293   1.113   4.693 -0.1717  1.1507 -0.6917
40119SOL     OW26192   6.739   0.617   8.748  0.5455 -0.1141 -0.4666
40119SOL    HW126193   6.788   0.602   8.666 -0.8162  0.1966 -1.3715
40119SOL    HW226194   6.779   0.695   8.786  0.6648  0.2199 -1.2550
40120SOL     OW26195   0.605   0.575   9.122 -0.4499 -0.2789  0.5822
40120SOL    HW126196   0.545   0.627   9.069 -0.7585 -0.0538  1.1439
40120SOL    HW226197   0.669   0.639   9.154  1.5029 -0.8390 -1.8681
40121SOL     OW26198   2.894   8.786   8.745  0.7168 -0.0939 -0.0289
40121SOL    HW126199   2.834   8.839   8.798  1.0292 -1.2318  1.5281
40121SOL    HW226200   2.972   8.842   8.735  0.7423  0.0517  0.9154
40122SOL     OW26201   1.621   9.269   8.263 -0.1597 -0.2134 -0.7597
40122SOL    HW126202   1.571   9.194   8.233 -0.2403 -0.4274 -0.1007
40122SOL    HW226203   1.578   9.296   8.344 -0.9458  1.3617 -1.6562
40123SOL     OW26204   4.175   3.047   8.341 -0.5285  0.2346  0.8502
40123SOL    HW126205   4.250   3.005   8.297 -1.2083 -0.0892 -0.0402
40123SOL    HW226206   4.101   2.991   8.319 -1.2329  1.1876  0.7573
40124SOL     OW26207   6.680   7.900   9.521 -0.7650  0.1203 -0.5244
40124SOL    HW126208   6.675   7.853   9.437 -1.2712  0.6637 -0.8045
40124SOL    HW226209   6.774   7.918   9.533 -0.6176 -0.5404 -0.6433
40125SOL     OW26210   6.400  10.498   9.254 -0.4647 -0.2534  0.5203
40125SOL    HW126211   6.428  10.567   9.194 -2.0044  1.9085  2.1663
40125SOL    HW226212   6.304  10.499   9.249 -0.5373 -1.8401  1.0893
40126SOL     OW26213   0.604   4.389   6.934 -0.1126  0.5421 -0.4529
40126SOL    HW126214   0.665   4.319   6.910 -0.9307  0.0402 -1.0926
40126SOL    HW226215   0.585   4.433   6.851 -0.1560  1.0885 -0.1583
40127SOL     OW26216   2.644   3.362   8.782  0.1893  0.4841 -0.5392
40127SOL    HW126217   2.626   3.269   8.796 -0.3895  0.3686 -1.8505
40127SOL    HW226218   2.738   3.366   8.763  0.5596  0.4006  1.1288
40128SOL     OW26219   8.758   9.807   0.941  0.9627  0.6568 -0.1957
40128SOL    HW126220   8.686   9.871   0.945  0.4213  0.0103  1.2313
40128SOL    HW226221   8.751   9.759   1.023  1.8411 -0.7277 -0.8983
40129SOL     OW26222   2.643   7.490   8.750  0.3937 -0.4448 -0.3747
40129SOL    HW126223   2.629   7.413   8.805 -0.9950 -0.3799 -0.6067
40129SOL    HW226224   2.663   7.455   8.664 -3.0286 -0.6615 -1.2142
40130SOL     OW26225   5.172   1.243   9.149  0.3410 -0.0644 -0.4130
40130SOL    HW126226   5.098   1.304   9.150  1.6894  1.6711 -0.8781
40130SOL    HW226227   5.179   1.216   9.058  0.5422  0.1370 -0.4599
40131SOL     OW26228   0.807   0.954   6.672 -0.3723  0.1782 -0.2069
40131SOL    HW126229   0.896   0.978   6.697 -0.6984  0.5096  0.6916
40131SOL    HW226230   0.752   1.023   6.710 -1.1599 -0.9262  0.7439
40132SOL     OW26231   6.315   1.604   1.340 -0.1533 -0.1501 -0.3358
40132SOL    HW126232   6.391   1.638   1.387  1.6983 -1.1715 -2.4463
40132SOL    HW226233   6.334   1.621   1.248 -1.9633 -1.4885 -1.0040
40133SOL     OW26234   2.184   9.818   6.242 -0.0716 -0.3521  0.1340
40133SOL    HW126235   2.142   9.863   6.169  0.0935 -0.7965 -0.2425
40133SOL    HW226236   2.230   9.744   6.202 -0.2563 -0.8010  0.7254
40134SOL     OW26237   2.421   8.801   5.707  0.4114  0.4531  0.6253
40134SOL    HW126238   2.458   8.763   5.786  0.0912 -1.4341 -0.0670
40134SOL    HW226239   2.433   8.895   5.717 -1.2155  0.4739  3.7165
40135SOL     OW26240   7.492   9.462   8.727  0.2751  0.5089 -0.1242
40135SOL    HW126241   7.459   9.468   8.817 -0.8401  0.8075 -0.5526
40135SOL    HW226242   7.584   9.489   8.734  0.5686 -0.6632  1.1326
40136SOL     OW26243  10.478   8.419  10.609  0.2233  0.2171  0.3184
40136SOL    HW126244  10.509   8.332  10.582 -1.4871 -0.1936 -0.4583
40136SOL    HW226245  10.524   8.480  10.551  0.4203 -0.2656 -0.0411
40137SOL     OW26246  10.871   6.349   0.235  0.2666  0.0648  0.4423
40137SOL    HW126247  10.909   6.413   0.294  0.9399  0.6665 -0.6155
40137SOL    HW226248  10.802   6.307   0.286  0.5131  0.9015  1.4869
40138SOL     OW26249   9.017   2.747   8.206  0.0773  0.3503 -0.2982
40138SOL    HW126250   9.095   2.711   8.249  0.0511  1.7437  1.0011
40138SOL    HW226251   9.053   2.801   8.135  0.3057  0.8694  0.2042
40139SOL     OW26252   7.694   1.902   5.809 -0.8257  0.1293  0.0798
40139SOL    HW126253   7.779   1.880   5.772 -0.9441 -1.5938  0.7423
40139SOL    HW226254   7.714   1.947   5.891 -0.5592  0.3769 -0.1204
40140SOL     OW26255   8.886   9.489   3.971 -0.9265 -1.0122  0.1626
40140SOL    HW126256   8.861   9.435   3.896 -1.0818 -0.9067  0.1367
40140SOL    HW226257   8.955   9.547   3.937 -1.7215 -0.2445 -0.1884
40141SOL     OW26258   8.737   1.782   1.436 -0.0388  0.1136  0.1005
40141SOL    HW126259   8.775   1.729   1.506  0.2281 -1.2072 -1.0109
40141SOL    HW226260   8.774   1.869   1.450 -1.9454  0.6090  3.1198
40142SOL     OW26261   3.518   1.613   1.590 -0.0100  0.0470 -0.1559
40142SOL    HW126262   3.521   1.524   1.555  2.1623  0.2618 -0.6190
40142SOL    HW226263   3.496   1.602   1.682  0.0568 -0.9437 -0.2488
40143SOL     OW26264   8.628   2.166   4.572 -0.1517  0.0294  0.5845
40143SOL    HW126265   8.620   2.073   4.550 -0.9980  0.1421  0.3706
40143SOL    HW226266   8.555   2.183   4.631  0.9713  0.1848  1.9825
40144SOL     OW26267   0.428   7.710  10.780  0.0991 -0.5661  0.1182
40144SOL    HW126268   0.359   7.669  10.832 -1.1189  0.0963 -0.8889
40144SOL    HW226269   0.488   7.747  10.844 -2.3157  1.8575  1.1978
40145SOL     OW26270  10.735   9.102   5.920 -0.2329 -0.1194 -0.0089
40145SOL    HW126271  10.811   9.044   5.912 -0.1184  0.2038 -1.5293
40145SOL    HW226272  10.757   9.161   5.993  0.4744 -0.7418  0.2946
40146SOL     OW26273   3.697   3.745  10.115  0.3358  0.1728  0.0660
40146SOL    HW126274   3.750   3.699  10.180  1.6906 -0.7565 -1.6180
40146SOL    HW226275   3.609   3.710  10.127  0.8293 -0.9644  0.5390
40147SOL     OW26276   4.225   2.827   2.216 -0.1063  0.0023  0.4764
40147SOL    HW126277   4.239   2.764   2.145  0.8687 -0.2587  0.8925
40147SOL    HW226278   4.146   2.796   2.260 -1.5829  0.9839 -1.3593
40148SOL     OW26279   3.984   2.945   0.331  0.3810  0.4722  0.2243
40148SOL    HW126280   3.988   2.945   0.427  3.7460 -1.9549  0.2518
40148SOL    HW226281   4.068   2.909   0.304  0.2593  2.6326 -3.7490
40149SOL     OW26282  10.284   6.789   4.342 -0.6977 -0.3347 -0.1019
40149SOL    HW126283  10.370   6.826   4.363 -0.8022  0.3203 -0.7853
40149SOL    HW226284  10.267   6.727   4.413  1.5364 -2.4949 -1.2970
40150SOL     OW26285  10.403   5.041   8.650  0.0655 -0.3274 -0.1522
40150SOL    HW126286  10.484   5.015   8.605  0.3733  0.7277 -0.2411
40150SOL    HW226287  10.401   4.988   8.729  0.8019 -0.4373 -0.2013
40151SOL     OW26288   3.651   8.807   2.582 -0.1673  0.4287  0.6327
40151SOL    HW126289   3.707   8.730   2.599 -1.4065 -0.6145  0.1423
40151SOL    HW226290   3.713   8.879   2.572  1.2145 -0.9103 -1.2012
40152SOL     OW26291   6.317   7.616   5.681 -0.1908  0.9791 -0.6006
40152SOL    HW126292   6.333   7.635   5.589  2.3544  0.2845 -0.3795
40152SOL    HW226293   6.333   7.699   5.726  0.6710  0.8155 -0.5972
40153SOL     OW26294  10.372  10.315   9.288 -0.4576 -0.6947 -0.4567
40153SOL    HW126295  10.407  10.377   9.352  1.8823 -0.2895 -2.0181
40153SOL    HW226296  10.374  10.362   9.205 -0.3730 -2.2437 -1.3646
40154SOL     OW26297   0.493   6.205   0.282 -0.2670 -0.0297  0.0897
40154SOL    HW126298   0.429   6.190   0.213 -1.0160  0.2644  0.7013
40154SOL    HW226299   0.480   6.132   0.343  1.4734 -1.1805 -0.8318
40155SOL     OW26300  10.385   3.126   2.453  0.3033 -0.2471 -0.0461
40155SOL    HW126301  10.412   3.177   2.377  1.8496 -1.2713 -0.2271
40155SOL    HW226302  10.290   3.117   2.444  0.4538 -0.3604 -1.8600
40156SOL     OW26303   7.374   6.442  10.116  0.2599 -0.4127  0.7022
40156SOL    HW126304   7.456   6.391  10.116 -0.5102 -1.7069  0.3374
40156SOL    HW226305   7.379   6.495  10.037  0.3458 -1.1945  0.1652
40157SOL     OW26306   8.281   5.220   3.527 -0.0559 -0.4377  0.0340
40157SOL    HW126307   8.360   5.254   3.485 -0.2299 -0.0393  0.0200
40157SOL    HW226308   8.232   5.179   3.456 -0.2212 -0.0048 -0.1045
40158SOL     OW26309   2.528   9.891   5.883  0.1058 -0.4530  0.2051
40158SOL    HW126310   2.539   9.835   5.960 -0.1905  1.3892  1.6715
40158SOL    HW226311   2.440   9.871   5.851  0.0758 -0.9613  0.5936
40159SOL     OW26312   9.794  10.177   8.116  0.6779  0.0531  0.0932
40159SOL    HW126313   9.846  10.250   8.149  1.5346 -0.6147  0.2770
40159SOL    HW226314   9.832  10.100   8.158  0.4039 -0.5920 -0.7996
40160SOL     OW26315   3.622   0.613   5.455 -0.3489  0.3573  0.8473
40160SOL    HW126316   3.614   0.517   5.450  0.6969  0.2928 -0.1761
40160SOL    HW226317   3.563   0.646   5.387  0.5142  0.3463  0.0763
40161SOL     OW26318   1.897   0.359   2.383 -0.2157 -0.0177 -0.3114
40161SOL    HW126319   1.968   0.360   2.318  0.2492 -0.2202  0.1849
40161SOL    HW226320   1.895   0.268   2.414 -0.2305  0.1465  0.1738
40162SOL     OW26321  10.372   9.122   8.229 -0.0423  0.0914 -0.3939
40162SOL    HW126322  10.456   9.164   8.213  0.0416  0.7194  1.4234
40162SOL    HW226323  10.331   9.115   8.143  1.8558 -0.2336 -1.3165
40163SOL     OW26324   0.372   8.884   2.789 -0.0777  0.4296  0.0029
40163SOL    HW126325   0.443   8.881   2.854 -0.4463 -2.1936  0.3965
40163SOL    HW226326   0.312   8.951   2.822  1.5462  1.8152  0.3143
40164SOL     OW26327   9.925   1.111   3.019  0.4215  0.7895 -0.0964
40164SOL    HW126328  10.018   1.133   3.010  0.3334  0.9236 -0.7269
40164SOL    HW226329   9.926   1.020   3.051  0.8170 -0.3779 -3.0538
40165SOL     OW26330   4.939   0.725   2.095  0.6095  0.6052  0.4047
40165SOL    HW126331   4.966   0.634   2.112  1.0388  0.9042  1.3667
40165SOL    HW226332   4.850   0.718   2.061  0.6505 -0.1818  0.4438
40166SOL     OW26333   9.647  10.878   0.441  0.0714  0.2432  0.6574
40166SOL    HW126334   9.676  10.900   0.352 -2.4353 -0.2768 -0.3613
40166SOL    HW226335   9.684  10.791   0.458  0.0733  0.0878 -0.1165
40167SOL     OW26336   1.425   6.687   4.231 -0.3574 -0.5356  0.5943
40167SOL    HW126337   1.476   6.695   4.312 -0.5526 -0.0464  0.6729
40167SOL    HW226338   1.335   6.701   4.259 -0.4631 -0.7067  0.3415
40168SOL     OW26339   7.645   1.624  10.647  0.5568  0.0900  0.1599
40168SOL    HW126340   7.731   1.581  10.640  0.0414 -0.9042 -0.3416
40168SOL    HW226341   7.654   1.684  10.721  2.5138  1.9876 -1.4652
40169SOL     OW26342   3.019   1.157  10.741  0.3319  0.3067  0.4182
40169SOL    HW126343   3.031   1.232  10.800  0.1576  1.0262 -0.4384
40169SOL    HW226344   3.024   1.194  10.653 -1.3709 -0.4009 -0.0347
40170SOL     OW26345   2.057   6.485   3.187 -0.1483  0.0963  0.6894
40170SOL    HW126346   1.974   6.443   3.207 -0.4049 -0.3059 -1.0350
40170SOL    HW226347   2.111   6.416   3.148  1.2151  0.2135  2.2716
40171SOL     OW26348   9.297   5.874   8.426  0.3241 -0.0917 -0.2698
40171SOL    HW126349   9.320   5.781   8.425  1.7842  0.1970  1.6863
40171SOL    HW226350   9.210   5.876   8.467 -0.4869 -0.6758 -1.8598
40172SOL     OW26351   3.296   4.419   3.052 -0.5586 -0.0582  0.2785
40172SOL    HW126352   3.211   4.405   3.094 -0.6698  2.6669  1.1627
40172SOL    HW226353   3.354   4.355   3.093 -1.6191 -0.2225  1.5895
40173SOL     OW26354  10.752   4.062   8.039 -0.1747 -0.3018  0.2363
40173SOL    HW126355  10.767   4.156   8.048  2.5170 -0.7008  0.7548
40173SOL    HW226356  10.734   4.049   7.946  0.2742  0.6228  0.0100
40174SOL     OW26357  10.405   1.817   2.416 -0.4327  0.1436 -0.5608
40174SOL    HW126358  10.417   1.874   2.340  1.4545  0.8449  0.1856
40174SOL    HW226359  10.431   1.730   2.386  0.9541  0.5385 -0.5891
40175SOL     OW26360   7.904   1.370   3.964 -0.0525  0.0442  0.0220
40175SOL    HW126361   7.850   1.306   3.918 -0.5601 -0.7757  1.6672
40175SOL    HW226362   7.994   1.338   3.954  0.0319  0.7458 -1.6914
40176SOL     OW26363   4.668   2.419   5.921 -0.4400  0.4202  0.8380
40176SOL    HW126364   4.656   2.335   5.876 -1.2863  0.6544  0.6141
40176SOL    HW226365   4.707   2.476   5.856 -1.5092  0.7104  0.4361
40177SOL     OW26366  10.514   2.302  10.766  0.0014  0.6052  0.2687
40177SOL    HW126367  10.486   2.281  10.855  0.1203  2.6455  0.8604
40177SOL    HW226368  10.610   2.303  10.771  0.0232  0.0175 -0.0666
40178SOL     OW26369   2.807   9.560   1.001  0.2037 -0.1601  0.0102
40178SOL    HW126370   2.836   9.545   1.091  0.1017  1.1802  0.2756
40178SOL    HW226371   2.712   9.570   1.008 -0.3443 -3.4932 -0.7236
40179SOL     OW26372   4.282   1.672   0.542  0.4941  0.1713 -0.0410
40179SOL    HW126373   4.329   1.623   0.609  2.4051 -0.2768 -1.6129
40179SOL    HW226374   4.248   1.606   0.482 -1.2171  0.5599  0.4620
40180SOL     OW26375   7.719  10.642   3.414 -0.1525  0.0628  0.1945
40180SOL    HW126376   7.702  10.683   3.498 -0.5110 -0.4490  0.3768
40180SOL    HW226377   7.688  10.705   3.349 -1.0664 -0.0760  0.4777
40181SOL     OW26378   8.792   2.208   6.550  0.0128 -0.0887  0.1079
40181SOL    HW126379   8.785   2.185   6.643  0.1756  0.1868  0.1899
40181SOL    HW226380   8.834   2.132   6.510  0.6140  0.0854  0.3905
40182SOL     OW26381   0.907   1.205   2.437 -0.0854 -0.4125 -0.3052
40182SOL    HW126382   0.948   1.272   2.493 -1.0250 -0.4371  0.4375
40182SOL    HW226383   0.871   1.254   2.364  2.9688 -0.5770 -2.1016
40183SOL     OW26384   5.332   9.330   1.294  0.6412  0.3896 -0.0872
40183SOL    HW126385   5.411   9.344   1.242  1.5478 -1.8364  0.5771
40183SOL    HW226386   5.279   9.269   1.242  0.4261  0.0768  0.4877
40184SOL     OW26387   8.745   6.961   6.159 -0.4026 -0.3860  0.6081
40184SOL    HW126388   8.698   6.878   6.148  0.3571 -0.5442 -2.2807
40184SOL    HW226389   8.837   6.936   6.168 -0.3742  0.1024  1.9547
40185SOL     OW26390   9.706   1.961   3.276 -0.3528  0.2138  0.0969
40185SOL    HW126391   9.800   1.978   3.267 -0.5577  0.5576 -1.8179
40185SOL    HW226392   9.679   2.015   3.351  0.3233  3.1274 -1.5776
40186SOL     OW26393   7.325   5.339   4.370  0.2914 -0.5420  0.2017
40186SOL    HW126394   7.376   5.288   4.432  0.1487  1.1885  1.8718
40186SOL    HW226395   7.373   5.421   4.361  0.3659 -0.8004 -2.1355
40187SOL     OW26396   3.643   1.825   9.825  0.2164 -0.5946 -0.2314
40187SOL    HW126397   3.582   1.807   9.753 -0.8262  1.8978 -0.1087
40187SOL    HW226398   3.588   1.821   9.903  0.7430 -0.6934  0.1322
40188SOL     OW26399   9.811   0.325   6.776 -0.2961  0.0812 -0.0414
40188SOL    HW126400   9.784   0.364   6.859 -2.4057 -1.3110 -0.0042
40188SOL    HW226401   9.759   0.245   6.768 -0.8708  0.6172 -3.1350
40189SOL     OW26402   9.429   6.266   9.278 -0.0792  0.9986  0.3848
40189SOL    HW126403   9.395   6.197   9.221  1.2309  0.0278  0.7266
40189SOL    HW226404   9.381   6.344   9.251 -0.1660  0.3895 -1.4194
40190SOL     OW26405   4.444   2.742  10.169  0.1029  0.6973  0.7867
40190SOL    HW126406   4.485   2.669  10.124  1.1117  1.8129 -0.1488
40190SOL    HW226407   4.479   2.739  10.258  1.7111  1.2067  0.1970
40191SOL     OW26408   1.503   4.643   8.942  0.3285 -0.1513 -0.1359
40191SOL    HW126409   1.560   4.683   9.007  1.1685 -3.3992  1.3522
40191SOL    HW226410   1.415   4.650   8.980  0.4187  0.4631 -0.0322
40192SOL     OW26411   7.048   2.903   7.127  0.1695  0.0793  0.1138
40192SOL    HW126412   6.967   2.878   7.083  0.7920 -1.4777 -0.2517
40192SOL    HW226413   7.097   2.952   7.061  0.1366 -0.2613 -0.1660
40193SOL     OW26414   0.657   5.751   7.644  0.4702 -0.3051 -0.3456
40193SOL    HW126415   0.687   5.660   7.651  2.0679  0.2457  0.4284
40193SOL    HW226416   0.569   5.750   7.682 -0.4811 -1.9231 -2.3834
40194SOL     OW26417   5.386   5.288   7.411  0.1766  0.6798  0.3957
40194SOL    HW126418   5.345   5.229   7.474 -0.5019 -0.2720 -0.8963
40194SOL    HW226419   5.448   5.233   7.363  2.2724  1.8664  1.6095
40195SOL     OW26420   8.261   0.660   4.155  0.1402  0.2765  0.5568
40195SOL    HW126421   8.168   0.678   4.140  0.1357 -0.4430 -0.4041
40195SOL    HW226422   8.267   0.639   4.248 -0.9468 -1.3019  0.3019
40196SOL     OW26423   0.673   8.223   1.207  0.2594 -0.0267  0.6308
40196SOL    HW126424   0.664   8.134   1.172 -0.7983  0.6156 -0.8530
40196SOL    HW226425   0.592   8.238   1.255 -0.4671  0.8064 -0.8009
40197SOL     OW26426   6.732   8.955   6.223  0.2325 -0.4555  0.3143
40197SOL    HW126427   6.688   8.872   6.205 -0.5368  0.1214 -0.5827
40197SOL    HW226428   6.758   8.987   6.137  1.9465 -0.5032  0.7767
40198SOL     OW26429   1.172   1.740   2.249  0.3552 -0.0247  0.3000
40198SOL    HW126430   1.088   1.772   2.282 -0.1742  0.8848 -1.7575
40198SOL    HW226431   1.235   1.769   2.314 -0.6309  1.6529  0.5771
40199SOL     OW26432   6.017   7.073   2.117 -0.4199 -0.4004  0.3604
40199SOL    HW126433   6.108   7.082   2.090 -0.6091  2.5567  0.3559
40199SOL    HW226434   5.982   7.003   2.062  1.8716 -1.7882  0.5546
40200SOL     OW26435   0.920   4.298   6.558  0.1462 -0.2255  0.2908
40200SOL    HW126436   0.856   4.330   6.495  1.9584  0.3936 -1.3596
40200SOL    HW226437   0.930   4.205   6.537 -2.0763 -1.0467  2.3492
40201SOL     OW26438   3.059   3.204   9.187 -0.0921  0.2171  0.4296
40201SOL    HW126439   3.044   3.255   9.266  0.6595  0.9458  0.1141
40201SOL    HW226440   2.992   3.135   9.190 -1.0617  1.1479  0.9076
40202SOL     OW26441   8.747   1.587   9.675  0.0602  0.2909  0.5556
40202SOL    HW126442   8.669   1.605   9.728 -0.2122  1.4756 -0.2174
40202SOL    HW226443   8.716   1.527   9.607 -0.1426  0.6567  0.3263
40203SOL     OW26444   0.160   2.032   2.755 -0.0670 -0.0743  0.0828
40203SOL    HW126445   0.109   1.953   2.737 -0.2197  0.7262 -4.0713
40203SOL    HW226446   0.250   2.009   2.735  0.0365  0.5384 -0.1956
40204SOL     OW26447   0.086   3.805   3.003  0.6463 -0.1600 -0.3993
40204SOL    HW126448   0.069   3.897   3.025  0.7637  0.2730 -2.0010
40204SOL    HW226449   0.176   3.805   2.969  1.0860 -1.0960  0.6919
40205SOL     OW26450   6.632   2.918   9.174 -0.5912  0.1896  0.4076
40205SOL    HW126451   6.558   2.870   9.211  0.5486 -1.9688  0.0451
40205SOL    HW226452   6.697   2.919   9.245 -0.2123  0.2612  0.0610
40206SOL     OW26453   3.414   6.822   3.891  0.0464 -0.3369  0.3214
40206SOL    HW126454   3.397   6.913   3.917 -0.0767  0.0427 -1.0170
40206SOL    HW226455   3.509   6.814   3.893  0.0195 -0.7902  2.3320
40207SOL     OW26456   5.271   1.771   0.590 -0.0997 -0.1293 -0.1580
40207SOL    HW126457   5.359   1.793   0.560 -0.4878  2.7037  0.4602
40207SOL    HW226458   5.213   1.808   0.524 -0.8830 -1.7792 -0.4484
40208SOL     OW26459   1.683   4.515   2.127  0.1940 -0.4797 -0.3044
40208SOL    HW126460   1.620   4.513   2.198 -0.7855  0.6369 -1.0969
40208SOL    HW226461   1.649   4.453   2.062  0.8686 -1.1946  0.0060
40209SOL     OW26462   4.305   1.610   2.382  0.1249 -0.1743 -0.4977
40209SOL    HW126463   4.217   1.610   2.344 -0.1969  1.1217  0.1999
40209SOL    HW226464   4.291   1.614   2.476  0.9448 -1.4579 -0.2877
40210SOL     OW26465   3.537   2.586   9.316 -0.1021  0.5275  0.6366
40210SOL    HW126466   3.617   2.569   9.267  0.0489 -0.6126  1.2331
40210SOL    HW226467   3.521   2.680   9.306 -0.0349  0.3706 -1.5086
40211SOL     OW26468   1.819   5.844   9.190 -0.1931 -0.4473 -0.0957
40211SOL    HW126469   1.762   5.785   9.142  0.1555 -1.1716  0.3606
40211SOL    HW226470   1.882   5.875   9.125 -0.6011 -0.2770 -0.4172
40212SOL     OW26471   0.240   9.056  10.402  0.3053 -0.4670 -0.0259
40212SOL    HW126472   0.213   9.109  10.478 -1.4844  0.3321 -1.1475
40212SOL    HW226473   0.268   8.973  10.440  2.1799  0.8524  1.7042
40213SOL     OW26474   5.722   5.450   3.916  0.0787 -0.6033 -0.0205
40213SOL    HW126475   5.751   5.509   3.986 -1.6489 -0.7466  0.8797
40213SOL    HW226476   5.793   5.385   3.909  0.7380 -0.0135  0.8940
40214SOL     OW26477   0.234   8.704   7.345  0.3186 -0.2096 -0.4723
40214SOL    HW126478   0.215   8.640   7.414 -1.5663  0.3973 -0.3802
40214SOL    HW226479   0.284   8.654   7.280  0.8410 -1.1765  0.6167
40215SOL     OW26480   8.841   7.885   5.219  0.4030  0.1315  0.0249
40215SOL    HW126481   8.875   7.935   5.293 -2.4124  0.3624  1.2869
40215SOL    HW226482   8.789   7.816   5.259 -0.6690 -0.1271 -1.7273
40216SOL     OW26483   3.350   6.808   5.704  0.2868  0.0626 -0.1183
40216SOL    HW126484   3.429   6.862   5.706 -0.4612  1.1740  0.3653
40216SOL    HW226485   3.281   6.865   5.736 -0.7903 -0.7851 -0.8522
40217SOL     OW26486   7.987   9.027   7.569 -0.2622  0.5067 -0.4363
40217SOL    HW126487   8.018   9.108   7.528 -1.8595  0.9038 -0.9064
40217SOL    HW226488   7.946   8.978   7.498 -0.1977 -0.2704  0.0527
40218SOL     OW26489   8.268   3.037   7.755  0.4949 -0.2061  0.0636
40218SOL    HW126490   8.338   2.986   7.796  1.4728  0.2452 -0.9842
40218SOL    HW226491   8.209   2.970   7.719  0.6706 -0.5924  0.4744
40219SOL     OW26492   1.569   7.318   3.471  0.4593 -0.1983  0.3036
40219SOL    HW126493   1.594   7.380   3.402  1.3965 -1.8762 -0.9381
40219SOL    HW226494   1.593   7.232   3.436  1.5694 -1.0882  2.9773
40220SOL     OW26495   4.769   4.899   2.901 -0.5240 -0.3467 -0.2358
40220SOL    HW126496   4.689   4.904   2.953 -1.6652  0.6701 -1.9945
40220SOL    HW226497   4.809   4.986   2.911 -1.1005  0.0856 -1.5547
40221SOL     OW26498   6.655   1.328   6.970  0.0411 -0.1003 -0.1588
40221SOL    HW126499   6.569   1.306   7.005  0.4302 -1.2954  0.0702
40221SOL    HW226500   6.681   1.252   6.918  0.1025  1.0440 -1.8903
40222SOL     OW26501   4.697  10.058   7.867 -0.2341 -0.0786 -0.1363
40222SOL    HW126502   4.755   9.982   7.873  0.8154  0.7013  0.0279
40222SOL    HW226503   4.642  10.041   7.791 -0.1360 -1.0798  0.0125
40223SOL     OW26504   4.951   8.187  10.354  0.0383  0.2531 -0.1247
40223SOL    HW126505   4.866   8.218  10.384 -0.5076 -2.6995  1.8229
40223SOL    HW226506   5.005   8.185  10.433  1.7193  1.3326 -1.1824
40224SOL     OW26507   2.337   7.367   6.728  0.1465 -0.3998 -0.5095
40224SOL    HW126508   2.351   7.325   6.813  0.9895  1.7608  0.5054
40224SOL    HW226509   2.416   7.347   6.678  0.9234  0.6060  0.2711
40225SOL     OW26510   9.705   8.013   8.284 -0.2969  0.3699 -0.6668
40225SOL    HW126511   9.700   8.088   8.226  2.0259  1.3656  0.2974
40225SOL    HW226512   9.712   8.051   8.372 -0.1027 -0.9953 -0.0598
40226SOL     OW26513   3.056   7.892   2.604  0.0124 -0.3700 -0.2825
40226SOL    HW126514   3.016   7.865   2.686  0.7392  0.0163  0.2114
40226SOL    HW226515   2.983   7.897   2.542 -0.5455 -0.6386  0.3367
40227SOL     OW26516   9.877   5.729   9.889 -0.0192  0.5687  0.1255
40227SOL    HW126517   9.784   5.723   9.867 -0.2256 -0.5892  1.1880
40227SOL    HW226518   9.897   5.822   9.885 -0.7996  0.6958 -1.7569
40228SOL     OW26519   0.101  10.903   4.748  0.2838 -0.0854  0.3734
40228SOL    HW126520   0.145  10.953   4.817 -0.1989  1.2540 -0.2567
40228SOL    HW226521   0.151  10.821   4.742 -0.7495 -1.0693  3.5589
40229SOL     OW26522   2.826   7.002   3.737  0.5798  0.4224  0.1171
40229SOL    HW126523   2.775   6.978   3.659 -0.6853  2.2818  0.3184
40229SOL    HW226524   2.803   6.935   3.802  0.9811 -0.6465 -0.7910
40230SOL     OW26525   2.097   4.484   9.394 -0.0735 -0.2689  0.2506
40230SOL    HW126526   2.174   4.427   9.404 -0.2089 -0.7625 -1.2726
40230SOL    HW226527   2.114   4.557   9.454  0.8262 -1.1387  1.1097
40231SOL     OW26528   0.661   3.882  10.740 -0.4857  0.5612 -0.1576
40231SOL    HW126529   0.739   3.923  10.704 -0.3209 -0.7888 -1.3979
40231SOL    HW226530   0.595   3.888  10.671 -1.2699  1.0158  0.5975
40232SOL     OW26531   6.480  10.737   3.430 -0.3778 -0.6398 -0.1472
40232SOL    HW126532   6.481  10.806   3.364  0.4633 -0.1342  0.3703
40232SOL    HW226533   6.449  10.659   3.383 -0.0754 -0.2196 -1.0663
40233SOL     OW26534   9.696   4.522   9.672  0.0815 -0.0386  0.4942
40233SOL    HW126535   9.664   4.611   9.681 -1.7189 -0.4191 -1.4357
40233SOL    HW226536   9.642   4.470   9.731  1.7634  0.1993  2.3527
40234SOL     OW26537   1.694   4.803   6.394  0.5653 -0.0655  0.3460
40234SOL    HW126538   1.654   4.734   6.341 -0.5468  1.6262 -1.1422
40234SOL    HW226539   1.629   4.824   6.460  1.5212 -1.4272  1.7921
40235SOL     OW26540   6.289   3.630   8.575  0.5482 -0.1531  0.0169
40235SOL    HW126541   6.230   3.631   8.650  1.7820 -0.3799  1.0128
40235SOL    HW226542   6.291   3.721   8.546 -0.4076 -0.1688 -0.1432
40236SOL     OW26543   8.675   5.940   9.450 -0.0063  0.5392  0.7987
40236SOL    HW126544   8.730   5.862   9.446 -0.4182  0.2276  1.0855
40236SOL    HW226545   8.589   5.910   9.421 -0.1077  0.9420  0.6786
40237SOL     OW26546   1.288   0.161  10.543  0.3403 -0.0057 -0.6350
40237SOL    HW126547   1.259   0.248  10.515 -0.5252  0.3172  1.0952
40237SOL    HW226548   1.218   0.102  10.515 -0.4645  0.2983  0.6273
40238SOL     OW26549   5.379  10.027   1.944  0.0213  0.4499 -0.2672
40238SOL    HW126550   5.291  10.012   1.910 -0.8470 -0.6332  2.2051
40238SOL    HW226551   5.367  10.097   2.009  0.9405  0.1652  0.2261
40239SOL     OW26552   7.641   9.946   3.202 -0.2690  0.4760 -0.0066
40239SOL    HW126553   7.663  10.038   3.218  1.0754  0.2229 -0.2986
40239SOL    HW226554   7.710   9.897   3.247 -0.9935 -0.4002  0.1802
40240SOL     OW26555   5.710   5.848  10.606  0.3507 -0.0219 -0.3168
40240SOL    HW126556   5.652   5.776  10.630 -0.4672  1.1785  1.4736
40240SOL    HW226557   5.790   5.833  10.657  0.4439 -0.0277 -0.4625
40241SOL     OW26558   6.207   4.363   2.341  0.0159  0.3304  0.0203
40241SOL    HW126559   6.273   4.315   2.290  0.5217  0.1216  0.8448
40241SOL    HW226560   6.252   4.386   2.423 -1.0831 -0.2477  0.8140
40242SOL     OW26561   7.074   1.062   8.605  0.3215  0.0425 -0.3692
40242SOL    HW126562   7.042   1.144   8.566 -0.1908  0.1692  0.2875
40242SOL    HW226563   7.061   1.074   8.699 -0.3847 -1.0477 -0.3044
40243SOL     OW26564   8.932   0.519   1.122  0.3203 -0.0798 -0.5740
40243SOL    HW126565   8.857   0.548   1.174  0.1565 -1.0763 -0.2371
40243SOL    HW226566   9.001   0.505   1.186  0.4339 -0.3049 -0.7462
40244SOL     OW26567   1.708   0.721   4.865 -0.1758  0.1362 -0.1022
40244SOL    HW126568   1.752   0.794   4.820  0.3148 -1.0179 -1.5863
40244SOL    HW226569   1.623   0.715   4.822 -0.2106 -0.1732  0.0095
40245SOL     OW26570   4.968  10.555   8.122 -0.4456  0.3364  0.4344
40245SOL    HW126571   5.030  10.589   8.058 -0.3405  0.7832  0.7615
40245SOL    HW226572   4.950  10.465   8.094  1.2264 -0.2005  0.9658
40246SOL     OW26573   9.479   2.131   2.206  0.1216 -0.4596  0.7593
40246SOL    HW126574   9.475   2.219   2.245 -0.7431  0.6497 -1.6317
40246SOL    HW226575   9.387   2.109   2.189  0.4666 -0.0346 -2.2323
40247SOL     OW26576   7.474   9.095   0.319  0.2930 -0.3240  0.5665
40247SOL    HW126577   7.562   9.066   0.298  0.0156 -0.7231 -0.0607
40247SOL    HW226578   7.474   9.188   0.297  0.8832 -0.0463  1.6446
40248SOL     OW26579   4.821   3.618   0.107 -0.2582 -0.6931 -0.0067
40248SOL    HW126580   4.744   3.633   0.162 -1.6176  0.4754 -2.0817
40248SOL    HW226581   4.891   3.665   0.151 -1.7835  2.0099 -0.2746
40249SOL     OW26582   9.264   6.478   0.536 -0.3291 -0.6150 -0.0477
40249SOL    HW126583   9.170   6.484   0.515 -1.2862 -4.7390  1.9222
40249SOL    HW226584   9.276   6.539   0.609 -0.8155  1.6513 -1.7522
40250SOL     OW26585   7.227   6.418   3.875 -0.5378 -0.5773  0.3483
40250SOL    HW126586   7.272   6.439   3.956  1.0501  0.3439 -0.7291
40250SOL    HW226587   7.250   6.326   3.858 -1.6684 -1.0856  1.3898
40251SOL     OW26588   7.040   9.291   5.679  0.4090 -0.0831 -0.8248
40251SOL    HW126589   6.959   9.296   5.628 -1.0399 -2.4439  1.0794
40251SOL    HW226590   7.107   9.326   5.620 -1.9155  1.8876 -2.5061
40252SOL     OW26591   2.045   4.151   7.209  0.0735 -0.5136  0.4821
40252SOL    HW126592   2.044   4.059   7.236  0.1042 -1.0343 -1.1685
40252SOL    HW226593   2.095   4.151   7.127  3.4923  1.5422  2.3323
40253SOL     OW26594   0.431   3.610   1.586  0.2633 -0.6932  0.8642
40253SOL    HW126595   0.447   3.558   1.665  1.1217 -0.8119  0.6296
40253SOL    HW226596   0.519   3.635   1.557 -0.1168  0.4129  0.6565
40254SOL     OW26597   6.682   9.636   9.720  0.5798  0.1815  0.1472
40254SOL    HW126598   6.647   9.666   9.636 -0.3021  0.0937  0.4776
40254SOL    HW226599   6.751   9.574   9.696  0.9939  0.8866 -0.5160
40255SOL     OW26600   0.823   3.425   5.247  0.3520  0.4710  0.3863
40255SOL    HW126601   0.850   3.513   5.220  1.6018 -0.2772 -0.9676
40255SOL    HW226602   0.896   3.393   5.300  0.2754 -0.0553  0.1774
40256SOL     OW26603   0.009   0.671   7.976  0.4632  0.3881  0.6281
40256SOL    HW126604   0.014   0.709   7.889 -1.5624 -0.2755  0.1662
40256SOL    HW226605   0.069   0.596   7.973  0.0673  0.1029 -0.3392
40257SOL     OW26606   6.905   7.591   2.561  0.6773 -0.3103 -0.5994
40257SOL    HW126607   6.916   7.564   2.652 -0.2185 -0.0872 -0.4170
40257SOL    HW226608   6.950   7.524   2.510 -2.3168 -2.8145 -0.2405
40258SOL     OW26609   6.195   7.887   3.181  0.1921  0.0376 -0.4222
40258SOL    HW126610   6.124   7.886   3.244  1.0574 -0.5896  0.5803
40258SOL    HW226611   6.169   7.952   3.116  0.0620  2.0025  1.5042
40259SOL     OW26612   4.620   6.227   0.487 -0.0504  0.3300 -0.0779
40259SOL    HW126613   4.585   6.146   0.524  0.2751  0.0837 -0.3090
40259SOL    HW226614   4.641   6.281   0.564  1.6562 -0.6087  0.1499
40260SOL     OW26615   9.691  10.208   9.156 -0.4866 -0.0596  0.5148
40260SOL    HW126616   9.614  10.203   9.100 -0.8787 -2.2342  1.1586
40260SOL    HW226617   9.700  10.121   9.193  1.3506  0.5776  1.7402
40261SOL     OW26618   9.905   0.619   0.797 -0.2327 -0.0529 -0.3433
40261SOL    HW126619   9.828   0.667   0.829  0.6394  0.5034  1.0241
40261SOL    HW226620   9.869   0.542   0.754 -1.5705  0.4181 -0.1064
40262SOL     OW26621   8.313   0.096   8.097  0.5330 -0.4150  0.4236
40262SOL    HW126622   8.331   0.020   8.043  0.3614 -0.7335  0.8102
40262SOL    HW226623   8.369   0.084   8.174  1.2577  0.3535  0.0342
40263SOL     OW26624   3.803   7.210   3.740 -0.6139  0.3030 -0.0470
40263SOL    HW126625   3.769   7.233   3.827 -1.7365  0.5930 -0.5400
40263SOL    HW226626   3.765   7.276   3.682 -2.3337 -1.5920 -1.2160
40264SOL     OW26627   8.717   7.770   8.950 -0.3171  0.0830  0.0018
40264SOL    HW126628   8.742   7.863   8.950 -1.3887  0.4181 -2.2351
40264SOL    HW226629   8.642   7.765   8.892 -0.7201 -2.1169  0.6336
40265SOL     OW26630   1.578   2.164   5.951 -0.2011 -0.2446 -0.5327
40265SOL    HW126631   1.483   2.171   5.957 -0.0265  0.8024  2.9926
40265SOL    HW226632   1.608   2.254   5.940  0.4115 -0.5377 -1.3227
40266SOL     OW26633   8.832   7.674   0.837 -0.0852  0.7457 -0.0452
40266SOL    HW126634   8.765   7.704   0.898  1.1131  2.2744  0.5854
40266SOL    HW226635   8.829   7.737   0.765 -0.8848 -0.5357 -1.1912
40267SOL     OW26636   2.971  10.583   6.733  0.3403  0.4099 -0.7721
40267SOL    HW126637   3.005  10.648   6.795  3.6738 -1.5361 -0.3085
40267SOL    HW226638   2.879  10.573   6.757  1.6040 -1.1483  5.0032
40268SOL     OW26639   6.158  10.766   8.786 -0.0625  0.0107 -0.4712
40268SOL    HW126640   6.165  10.834   8.719  2.9028  1.2198  0.8662
40268SOL    HW226641   6.225  10.702   8.762  1.6023  0.8486  1.6054
40269SOL     OW26642   2.991   1.961   4.922 -0.3649 -0.1957  0.2045
40269SOL    HW126643   3.019   1.917   5.002  2.6490  1.4400  0.1706
40269SOL    HW226644   2.946   2.040   4.952  1.7999  1.0310  0.3852
40270SOL     OW26645   8.781   7.390   1.468 -0.1886  0.1424 -0.2904
40270SOL    HW126646   8.716   7.449   1.429 -2.1587 -2.2549 -0.8481
40270SOL    HW226647   8.756   7.303   1.438  2.3193 -1.0893  0.8828
40271SOL     OW26648   4.775   9.929   2.615 -0.0232 -0.3727  0.1326
40271SOL    HW126649   4.715   9.894   2.681 -0.3870  0.3610  0.2135
40271SOL    HW226650   4.827   9.854   2.586  0.7446 -0.5657  1.8760
40272SOL     OW26651   9.061   8.785   2.903 -0.0242  0.1293 -0.1781
40272SOL    HW126652   9.074   8.764   2.995 -0.3891 -1.6912 -0.5099
40272SOL    HW226653   8.976   8.746   2.881  0.2345  0.2049 -1.3791
40273SOL     OW26654   6.771   9.517   7.960 -0.4672 -0.5463  0.7193
40273SOL    HW126655   6.785   9.430   7.922 -2.3010 -0.6295  0.1388
40273SOL    HW226656   6.759   9.500   8.054  1.6336 -0.6035  1.0305
40274SOL     OW26657   2.428   4.438   5.169 -0.4820  0.0719 -0.7611
40274SOL    HW126658   2.360   4.373   5.186 -0.1737  0.2941  1.5742
40274SOL    HW226659   2.466   4.457   5.255 -0.2639  3.0136 -1.3888
40275SOL     OW26660   9.285   1.721   6.547 -0.2392 -0.4095 -0.8277
40275SOL    HW126661   9.224   1.788   6.516  1.0598  1.0565 -0.3467
40275SOL    HW226662   9.249   1.692   6.631 -0.7305 -0.2102 -0.9640
40276SOL     OW26663   9.881   5.809   8.376  0.2092 -0.1960 -0.3989
40276SOL    HW126664   9.830   5.735   8.344  1.5628 -1.4232  0.1609
40276SOL    HW226665   9.861   5.813   8.469  1.2104 -0.8076 -0.1331
40277SOL     OW26666   6.627   9.898   1.760  0.4816 -0.7111  0.3800
40277SOL    HW126667   6.681   9.889   1.682  0.8500 -0.1621  0.5645
40277SOL    HW226668   6.595   9.988   1.757  0.7619 -0.5806  1.0207
40278SOL     OW26669   4.370   7.724   7.560 -0.6469  0.6026 -0.0299
40278SOL    HW126670   4.275   7.720   7.554 -0.8124  0.5881  1.9851
40278SOL    HW226671   4.393   7.804   7.513 -1.5290  0.0243 -1.5047
40279SOL     OW26672   9.102   1.264   2.686 -0.1301 -0.4039  0.3454
40279SOL    HW126673   9.024   1.283   2.738  0.2773 -0.0247  0.8272
40279SOL    HW226674   9.077   1.188   2.633 -1.0653  0.1349 -0.0291
40280SOL     OW26675   7.106   4.490   4.216  0.2274 -0.8367  0.0483
40280SOL    HW126676   7.128   4.403   4.182  1.2148 -0.7265  0.3677
40280SOL    HW226677   7.108   4.480   4.311 -0.0061 -0.5522  0.0830
40281SOL     OW26678   3.705   1.656   4.531  0.0179  0.3894 -0.0002
40281SOL    HW126679   3.699   1.712   4.453  1.1494 -0.6023 -0.8462
40281SOL    HW226680   3.614   1.641   4.556 -0.4942 -0.6336 -2.1831
40282SOL     OW26681   0.259  10.767   1.464  0.0586 -0.3756 -0.2244
40282SOL    HW126682   0.320  10.710   1.418 -1.0286 -1.3840 -0.4724
40282SOL    HW226683   0.230  10.830   1.398 -0.5950 -1.0800 -0.6220
40283SOL     OW26684   9.082   5.981   1.102  0.0628  0.0220 -0.1689
40283SOL    HW126685   9.124   5.903   1.065 -0.4400  0.1960 -1.1512
40283SOL    HW226686   9.079   5.964   1.196 -1.3492 -1.8233 -0.4857
40284SOL     OW26687   1.121   4.235   9.196  0.1541  0.0080 -0.3756
40284SOL    HW126688   1.209   4.239   9.234  0.2841  2.0892 -0.7782
40284SOL    HW226689   1.124   4.295   9.122 -1.3134 -0.7490 -1.0894
40285SOL     OW26690   2.336   7.400   4.503 -0.1110  0.4730 -0.0666
40285SOL    HW126691   2.328   7.309   4.477 -0.9670  0.3371  0.6234
40285SOL    HW226692   2.430   7.419   4.497 -0.0150 -0.2350 -0.8877
40286SOL     OW26693   5.403   8.676   2.060 -0.4832  0.6791  0.1208
40286SOL    HW126694   5.445   8.757   2.088 -1.3724  1.7430 -1.4532
40286SOL    HW226695   5.376   8.633   2.142  0.8046  1.5062  1.0152
40287SOL     OW26696   2.365   5.579   8.696  0.0306  0.5414  0.2066
40287SOL    HW126697   2.348   5.632   8.774 -1.8818 -0.1853  0.3285
40287SOL    HW226698   2.329   5.631   8.624  1.4082  1.0145 -0.1765
40288SOL     OW26699   8.822   4.809   6.989  0.3687 -0.0908 -0.1473
40288SOL    HW126700   8.797   4.720   6.962  2.2712 -0.8815  0.5174
40288SOL    HW226701   8.880   4.795   7.064 -0.0822  1.7773  0.5811
40289SOL     OW26702  10.526   0.882   5.902 -0.3512  0.0142 -0.2630
40289SOL    HW126703  10.464   0.838   5.844 -2.4346  1.1257  1.0065
40289SOL    HW226704  10.491   0.867   5.990  1.7692 -0.1699  0.6068
40290SOL     OW26705   3.337   5.446   7.370 -0.3191  0.1447 -0.0861
40290SOL    HW126706   3.372   5.509   7.307  0.2620 -0.2903 -0.2160
40290SOL    HW226707   3.250   5.479   7.393 -0.4691  0.4028 -0.9894
40291SOL     OW26708  10.140   5.577   1.220 -0.4772  0.0663 -0.6553
40291SOL    HW126709  10.180   5.652   1.176  1.3915 -1.3277 -1.4762
40291SOL    HW226710  10.165   5.587   1.312 -0.8446  0.7916 -0.6243
40292SOL     OW26711   2.132   7.358   5.079 -0.9508 -0.4628  1.1115
40292SOL    HW126712   2.160   7.316   5.160 -0.1328 -1.0566  0.5367
40292SOL    HW226713   2.190   7.434   5.071  0.7624 -1.8241 -0.2017
40293SOL     OW26714   4.617  10.237   8.286 -0.0335  0.1758 -0.0355
40293SOL    HW126715   4.569  10.314   8.255  1.0908  0.2363 -1.7068
40293SOL    HW226716   4.709  10.262   8.281  0.2984 -0.8992  0.4606
40294SOL     OW26717  10.043   5.310   1.522  0.1766 -0.5183 -0.6417
40294SOL    HW126718  10.122   5.274   1.562 -1.0082 -0.2142  2.1917
40294SOL    HW226719  10.067   5.400   1.499  0.5995 -0.3575  0.3984
40295SOL     OW26720   6.314  10.656   2.476  0.3902 -0.1398  0.1242
40295SOL    HW126721   6.357  10.678   2.558  0.8051 -0.3451 -0.0351
40295SOL    HW226722   6.354  10.713   2.411 -1.0267  1.1469  0.3067
40296SOL     OW26723  10.539   7.321  10.162  0.2466 -0.2386  0.3552
40296SOL    HW126724  10.562   7.286  10.248 -0.0934 -1.2819  0.0348
40296SOL    HW226725  10.611   7.381  10.140  1.2925 -1.3713  0.5640
40297SOL     OW26726   5.941   6.946   1.192  0.0488  0.8033 -0.5137
40297SOL    HW126727   5.944   6.902   1.107 -1.1307  1.2542 -0.8109
40297SOL    HW226728   5.849   6.970   1.204  0.4073  1.8946  0.2989
40298SOL     OW26729   1.297   9.654   4.612 -0.4788  0.1901  0.1661
40298SOL    HW126730   1.289   9.562   4.586 -1.4077  0.8093 -1.8928
40298SOL    HW226731   1.262   9.703   4.538 -0.4717  2.2039  1.4345
40299SOL     OW26732   0.370   9.280   8.753  0.2935  0.5471 -0.1785
40299SOL    HW126733   0.432   9.219   8.713 -1.4876 -1.3596 -0.2174
40299SOL    HW226734   0.425   9.341   8.802  2.1664 -2.1899  1.4220
40300SOL     OW26735   0.167   4.800   5.435  0.1491 -0.2602  0.0332
40300SOL    HW126736   0.255   4.794   5.398  0.3775 -0.6604  0.6264
40300SOL    HW226737   0.180   4.834   5.523 -0.1402 -1.6008  0.6250
40301SOL     OW26738   1.565   7.729   7.697 -0.7055 -0.4590 -0.1952
40301SOL    HW126739   1.616   7.660   7.740 -0.3329  1.2133  2.2743
40301SOL    HW226740   1.631   7.793   7.670 -1.0860 -0.8051 -2.0410
40302SOL     OW26741   1.423   1.025   4.187  0.0342 -0.3829  0.7854
40302SOL    HW126742   1.498   1.084   4.182  0.4302 -0.9100  0.5040
40302SOL    HW226743   1.419   0.983   4.101 -1.7045  0.9900  0.1346
40303SOL     OW26744   7.369   9.862   5.770  0.0781  0.2834 -0.1059
40303SOL    HW126745   7.414   9.943   5.746  0.7317  0.0347  0.2683
40303SOL    HW226746   7.433   9.793   5.753 -0.3543 -0.1277 -0.0831
40304SOL     OW26747   5.029   0.943   2.244 -0.7127  0.4884  0.2448
40304SOL    HW126748   5.004   0.897   2.324  0.8368  1.0557  1.0980
40304SOL    HW226749   4.973   0.904   2.176 -1.5967 -0.4721  1.4656
40305SOL     OW26750   5.368   6.799   3.502  0.4747  0.7155  0.1893
40305SOL    HW126751   5.395   6.819   3.412  0.3549  0.8127  0.1756
40305SOL    HW226752   5.397   6.709   3.515  1.5451  1.0785  0.4499
40306SOL     OW26753  10.282   8.898   6.742  0.4572  0.6355 -0.0297
40306SOL    HW126754  10.369   8.899   6.702  1.3379 -4.4454  1.0305
40306SOL    HW226755  10.222   8.893   6.667  1.1325  2.3161 -0.7316
40307SOL     OW26756   0.045   7.335   8.662  0.2336 -0.0598 -0.6812
40307SOL    HW126757   0.088   7.414   8.696  1.8698 -1.3601  0.4052
40307SOL    HW226758   0.074   7.331   8.570  2.7043 -0.9855  0.0570
40308SOL     OW26759   9.954   5.494   7.956 -0.4265  0.4372  0.0699
40308SOL    HW126760   9.997   5.539   7.884  2.6230 -1.8962  0.2339
40308SOL    HW226761   9.896   5.430   7.913  0.0833  0.2114 -0.2862
40309SOL     OW26762   4.268   7.175  10.564  0.0936 -0.2571  0.1521
40309SOL    HW126763   4.241   7.099  10.513 -0.3612 -0.1781  0.2730
40309SOL    HW226764   4.188   7.226  10.577  0.5409  0.7227 -0.7132
40310SOL     OW26765   3.569   4.556  10.553  0.0224  0.2691 -0.0259
40310SOL    HW126766   3.659   4.524  10.548  0.2836  0.9465  0.2430
40310SOL    HW226767   3.569   4.617  10.626 -1.0934 -1.0636  1.1420
40311SOL     OW26768   6.709   8.370   4.712  0.2434  0.3268 -0.4869
40311SOL    HW126769   6.617   8.385   4.692  0.2136 -0.5035 -1.0341
40311SOL    HW226770   6.752   8.366   4.626  0.8604  1.1254 -0.2218
40312SOL     OW26771  10.293   4.887   3.993 -0.2939  0.2642 -0.7226
40312SOL    HW126772  10.349   4.928   4.059 -0.2728  2.6755 -2.1115
40312SOL    HW226773  10.204   4.904   4.023 -0.3024 -0.6337 -0.2058
40313SOL     OW26774   0.926  10.435  10.764 -0.0604  0.3962  0.2300
40313SOL    HW126775   0.964  10.482  10.838 -2.5970  1.6984  0.8220
40313SOL    HW226776   0.889  10.503  10.708 -2.7515 -0.7299  0.4798
40314SOL     OW26777  10.464   7.819   1.105 -0.8517 -0.0699  0.5015
40314SOL    HW126778  10.458   7.748   1.168  1.1772 -1.9663 -1.2831
40314SOL    HW226779  10.516   7.783   1.032 -0.2683  3.0290 -0.7856
40315SOL     OW26780   4.416   4.438   6.628 -0.7793 -0.3563 -0.3764
40315SOL    HW126781   4.488   4.501   6.631  0.2865 -1.5724  1.1343
40315SOL    HW226782   4.404   4.411   6.719 -2.2153 -1.2264 -0.7947
40316SOL     OW26783   0.572   0.222   6.877  0.1297 -0.1447 -0.2365
40316SOL    HW126784   0.513   0.265   6.939  0.0037 -0.6342 -0.0119
40316SOL    HW226785   0.517   0.199   6.803  0.2887  0.4778 -0.5590
40317SOL     OW26786   0.065   4.560   7.997 -0.5445 -0.4408 -1.0280
40317SOL    HW126787   0.011   4.639   8.004 -1.1511 -0.6764 -2.5581
40317SOL    HW226788   0.123   4.577   7.923 -0.4068 -1.2696 -1.1208
40318SOL     OW26789   3.742   3.075   5.760 -0.0949  0.1195 -0.2439
40318SOL    HW126790   3.792   2.998   5.733  0.7203  0.8909 -0.9373
40318SOL    HW226791   3.802   3.126   5.814  0.0042  1.2271 -1.3661
40319SOL     OW26792   9.948   1.077   5.203  0.5143 -0.0361 -0.1718
40319SOL    HW126793  10.041   1.075   5.180  0.3564  0.8015 -0.9161
40319SOL    HW226794   9.933   1.165   5.238  0.3064 -0.6330  1.3342
40320SOL     OW26795   6.281   0.970   1.780 -0.0677 -0.1307  0.1495
40320SOL    HW126796   6.370   0.957   1.814 -0.1361 -0.8401  0.0751
40320SOL    HW226797   6.237   1.022   1.847 -0.4346 -2.1325  1.5568
40321SOL     OW26798  10.368   0.003   1.067  0.5793  0.0278 -0.3671
40321SOL    HW126799  10.364   0.098   1.055 -1.1616 -0.0611 -0.7605
40321SOL    HW226800  10.428  -0.009   1.140  0.2336  1.4740  0.1890
40322SOL     OW26801   0.348   7.577   0.790  0.3710  0.2513  0.6228
40322SOL    HW126802   0.413   7.599   0.724 -0.7821  1.5961 -0.1303
40322SOL    HW226803   0.398   7.563   0.870  1.4636  3.3143  0.5718
40323SOL     OW26804   2.521   4.433   6.092  0.0853 -0.5164  0.5411
40323SOL    HW126805   2.452   4.498   6.101 -1.0015 -1.4648 -0.5520
40323SOL    HW226806   2.561   4.452   6.007 -0.0615 -1.0937  0.3370
40324SOL     OW26807   4.563  10.296   6.711 -0.4015 -0.7671 -0.0613
40324SOL    HW126808   4.516  10.262   6.634 -1.2557 -1.2827  0.6603
40324SOL    HW226809   4.582  10.387   6.690  0.1410 -1.1337 -1.2267
40325SOL     OW26810   2.916   9.316   4.386 -0.4493 -0.1579  0.2115
40325SOL    HW126811   2.848   9.299   4.321 -1.2983  0.6531  0.8580
40325SOL    HW226812   2.956   9.399   4.358  0.9640 -1.1139 -0.7130
40326SOL     OW26813   7.827   8.138   9.103  0.1517  0.3412 -0.0197
40326SOL    HW126814   7.789   8.201   9.164  1.4667  0.7221  0.4287
40326SOL    HW226815   7.884   8.083   9.157  0.4933 -0.0129 -0.7258
40327SOL     OW26816  10.723   6.029   1.999 -0.1293  0.2121  0.1439
40327SOL    HW126817  10.774   5.948   1.992  0.3517  0.6374 -2.2993
40327SOL    HW226818  10.787   6.096   2.021 -0.5205  0.0114  2.1156
40328SOL     OW26819   5.435   8.989   9.419  0.7640  0.4338  0.2550
40328SOL    HW126820   5.354   9.039   9.427  0.4542 -0.0760  0.3447
40328SOL    HW226821   5.442   8.969   9.325  1.2647  1.2529  0.1061
40329SOL     OW26822   5.702   7.749   5.586 -0.0022  0.3455  0.5618
40329SOL    HW126823   5.717   7.731   5.493 -2.2031 -3.4543  0.7207
40329SOL    HW226824   5.626   7.807   5.588  0.0772  0.4721 -0.0361
40330SOL     OW26825   0.948   9.146   0.336  0.0890  0.0474  0.3263
40330SOL    HW126826   0.857   9.124   0.356  0.3744 -1.1783  0.3536
40330SOL    HW226827   0.945   9.183   0.247 -0.5659  1.0915  0.7641
40331SOL     OW26828  10.498  10.037   6.212 -0.7970  0.0400  0.3293
40331SOL    HW126829  10.510  10.118   6.162 -0.6876 -0.8183 -1.0831
40331SOL    HW226830  10.447  10.063   6.289 -2.9827  1.0280 -1.3610
40332SOL     OW26831   9.288   1.147   5.628 -0.2686 -0.1355 -0.4430
40332SOL    HW126832   9.287   1.169   5.721  0.4124 -1.6102 -0.0650
40332SOL    HW226833   9.258   1.057   5.623 -0.5942  0.0168 -1.6951
40333SOL     OW26834   3.625   9.814   3.813  0.3641  0.0780 -0.2421
40333SOL    HW126835   3.674   9.851   3.739 -1.5778  1.3650 -0.9514
40333SOL    HW226836   3.617   9.886   3.876 -1.1559  0.1346 -0.4539
40334SOL     OW26837   3.121   1.194   4.719 -0.2512  0.3902 -0.1314
40334SOL    HW126838   3.036   1.205   4.761 -0.1945  1.7590 -0.3133
40334SOL    HW226839   3.130   1.273   4.664  0.8156 -0.0893 -0.6634
40335SOL     OW26840   4.556  10.363  10.029 -0.4790 -0.5323 -0.1285
40335SOL    HW126841   4.462  10.350  10.031 -0.4690 -0.4654  0.9051
40335SOL    HW226842   4.569  10.453  10.059 -0.2530  0.5403 -3.0551
40336SOL     OW26843   1.169  10.438   7.308  0.2505 -0.3592 -0.2341
40336SOL    HW126844   1.104  10.428   7.239 -1.9488  0.7107  1.5470
40336SOL    HW226845   1.212  10.521   7.290  1.9527 -1.5371 -1.9827
40337SOL     OW26846   8.654   5.259   6.376 -0.0822 -0.1240  0.1819
40337SOL    HW126847   8.680   5.314   6.302 -0.3902  0.1788  0.2985
40337SOL    HW226848   8.638   5.321   6.447 -0.4998 -0.3643  0.2958
40338SOL     OW26849   2.611   9.867   1.301  0.1065  0.3086 -0.2970
40338SOL    HW126850   2.563   9.937   1.345  0.1057 -0.4435  0.9470
40338SOL    HW226851   2.684   9.911   1.258 -0.3299  1.1616 -0.1836
40339SOL     OW26852   6.531   2.081   5.483  0.5834 -0.4946  0.4814
40339SOL    HW126853   6.579   2.144   5.429 -0.1874 -0.4906 -0.2243
40339SOL    HW226854   6.579   2.079   5.566 -0.2881  2.2687  1.1486
40340SOL     OW26855  10.873   7.095   5.166 -0.5562  1.2067 -0.1913
40340SOL    HW126856  10.888   7.187   5.144 -1.3864  1.5950  0.7994
40340SOL    HW226857  10.782   7.091   5.195 -0.9622 -0.1837 -1.4831
40341SOL     OW26858   2.602   0.142  10.122  0.2853  0.2874  0.1607
40341SOL    HW126859   2.658   0.079  10.076  0.4977  0.9773 -0.5538
40341SOL    HW226860   2.621   0.226  10.080 -1.8730  0.4349 -0.6421
40342SOL     OW26861   3.233   2.598   9.865  0.3051  0.0132  0.1948
40342SOL    HW126862   3.307   2.619   9.807  0.0870  2.1671  0.6182
40342SOL    HW226863   3.169   2.666   9.847 -1.7312 -1.9107 -0.2920
40343SOL     OW26864   6.548   4.647   2.759  0.0812 -0.4027 -0.6142
40343SOL    HW126865   6.536   4.741   2.775 -1.1176 -0.7741  0.7411
40343SOL    HW226866   6.475   4.623   2.702 -1.0333 -0.9806  0.9998
40344SOL     OW26867   0.654   3.975   7.033  0.2895  0.6111  0.1356
40344SOL    HW126868   0.570   3.955   7.073  1.4816 -2.6731  1.3604
40344SOL    HW226869   0.633   4.032   6.960 -2.9673  0.0667  0.4875
40345SOL     OW26870   6.457   8.428   0.120 -0.2291 -0.4050 -0.1083
40345SOL    HW126871   6.401   8.452   0.046 -1.4291  1.1489  1.2114
40345SOL    HW226872   6.472   8.511   0.165  0.9537 -1.2295  1.0748
40346SOL     OW26873   0.049   2.115   7.376 -0.0212  0.4788 -0.3729
40346SOL    HW126874   0.058   2.039   7.433  0.3187  0.7979  0.0050
40346SOL    HW226875   0.130   2.164   7.387  0.6170 -0.1032 -2.1151
40347SOL     OW26876   6.298   1.008   9.233 -0.1193  0.2523  0.0396
40347SOL    HW126877   6.225   1.069   9.230 -0.8609 -0.6061  0.3121
40347SOL    HW226878   6.283   0.948   9.160  2.5572  2.5069 -2.5956
40348SOL     OW26879   7.668   4.664   0.082 -0.0322  0.6381  0.0064
40348SOL    HW126880   7.616   4.725   0.134 -1.4853 -0.1827 -0.4223
40348SOL    HW226881   7.738   4.635   0.141 -2.4861 -1.4482  2.1436
40349SOL     OW26882   1.229   0.814  10.695  0.4254 -0.5274 -0.6013
40349SOL    HW126883   1.240   0.882  10.761 -0.0744  0.1759 -1.2218
40349SOL    HW226884   1.153   0.764  10.724  0.3273 -0.3441 -0.5411
40350SOL     OW26885   0.229   6.209   5.372 -0.4163 -0.1137 -0.0385
40350SOL    HW126886   0.137   6.215   5.347 -0.5838 -1.4331  0.1993
40350SOL    HW226887   0.276   6.255   5.302 -1.1248 -0.9080 -1.0635
40351SOL     OW26888   0.708   0.633   2.505  0.4012 -0.0416  0.6118
40351SOL    HW126889   0.693   0.712   2.558 -0.6588 -0.0288  0.3252
40351SOL    HW226890   0.773   0.584   2.554 -1.2953 -0.5328  2.5400
40352SOL     OW26891  10.881   4.783   1.480 -0.3649  0.7492  0.0229
40352SOL    HW126892  10.845   4.838   1.410 -0.0787  1.5754  0.5221
40352SOL    HW226893  10.824   4.705   1.480 -0.7015  0.9796 -0.7624
40353SOL     OW26894  10.068  10.402   7.010 -0.0820  0.7527  0.5260
40353SOL    HW126895  10.097  10.493   7.014 -1.4220  1.3549 -1.7925
40353SOL    HW226896   9.977  10.405   7.037  0.1395 -0.0858  1.4027
40354SOL     OW26897   3.605  10.588   3.498  0.4759 -0.4833 -0.3457
40354SOL    HW126898   3.670  10.571   3.430  0.2875 -0.6304 -0.4906
40354SOL    HW226899   3.656  10.619   3.573  0.5908  0.7787 -0.9129
40355SOL     OW26900   3.436   0.547  10.168 -0.3864 -0.4286 -0.2308
40355SOL    HW126901   3.354   0.597  10.173  0.0331  0.3093 -0.6383
40355SOL    HW226902   3.484   0.587  10.096  0.8108 -0.1333  0.6952
40356SOL     OW26903   3.336   8.926   1.109  0.5720 -0.2381  0.0772
40356SOL    HW126904   3.361   8.847   1.157  1.3003 -0.0411  0.0338
40356SOL    HW226905   3.241   8.933   1.122  0.9612  0.7592  2.9536
40357SOL     OW26906   0.500   3.012   8.133 -0.0337 -0.1219  0.9624
40357SOL    HW126907   0.513   3.051   8.220  0.2017 -0.6557  1.1699
40357SOL    HW226908   0.418   3.051   8.102  0.6237  1.1874  0.7983
40358SOL     OW26909   7.782   6.954   7.553  0.3305 -0.2441  0.0280
40358SOL    HW126910   7.718   6.952   7.482  0.1252 -2.5508  0.2210
40358SOL    HW226911   7.866   6.933   7.510  1.3097  3.7078 -0.4105
40359SOL     OW26912   7.373   1.208   4.224  0.6037  0.3238  0.3923
40359SOL    HW126913   7.370   1.301   4.203 -0.0403 -0.1915 -2.0464
40359SOL    HW226914   7.375   1.164   4.139  0.0105 -1.9340  1.4778
40360SOL     OW26915   5.434   8.981   7.310 -0.4662 -0.4969 -0.3171
40360SOL    HW126916   5.375   8.995   7.385  1.4254  1.9184  0.8578
40360SOL    HW226917   5.401   9.040   7.243  0.2833  0.5463  0.1956
40361SOL     OW26918   9.744   4.594   3.470 -0.3046  0.8785  0.1327
40361SOL    HW126919   9.696   4.537   3.531  0.7795  0.4055  0.5842
40361SOL    HW226920   9.688   4.600   3.393 -0.4767 -0.8109  0.0791
40362SOL     OW26921   1.030   9.822   4.240 -0.1737  0.2604  0.7676
40362SOL    HW126922   1.015   9.818   4.145  0.8073  1.0663  0.5626
40362SOL    HW226923   0.942   9.830   4.278 -0.4900  1.4763 -0.1674
40363SOL     OW26924   7.491   3.095  10.891 -0.0937 -1.0527 -0.6881
40363SOL    HW126925   7.451   3.008  10.894 -0.9449 -0.6414  1.1016
40363SOL    HW226926   7.579   3.083  10.926 -0.6043 -1.0251  0.6565
40364SOL     OW26927   5.413   6.650   6.039 -0.7522 -0.1703 -0.1813
40364SOL    HW126928   5.438   6.731   5.996  0.7251  0.5813  1.9049
40364SOL    HW226929   5.424   6.582   5.973  0.6560  1.0007 -1.2036
40365SOL     OW26930   5.698   4.351  10.236  0.3246  0.2615 -0.3469
40365SOL    HW126931   5.704   4.337  10.331  0.9144 -0.8401 -0.5242
40365SOL    HW226932   5.676   4.443  10.227 -1.4075  0.0202  0.9039
40366SOL     OW26933   6.885   9.695   3.184 -0.3080  0.1097  0.1547
40366SOL    HW126934   6.930   9.626   3.136  0.0821 -0.3632  1.1713
40366SOL    HW226935   6.940   9.710   3.261 -2.0701 -0.7958  1.6740
40367SOL     OW26936   5.595   9.546  10.741  0.7408  0.5197  0.0930
40367SOL    HW126937   5.532   9.617  10.753  1.0824  0.5491  2.1670
40367SOL    HW226938   5.552   9.469  10.777  2.4590  0.9156  3.4019
40368SOL     OW26939   3.934   7.896   7.498 -0.2902 -0.0582  0.5862
40368SOL    HW126940   3.959   7.878   7.589  1.6533 -1.3599 -0.1417
40368SOL    HW226941   3.863   7.960   7.505  1.1355  1.4404  2.9540
40369SOL     OW26942   9.322   3.391   6.864 -0.3217  0.1676 -0.4116
40369SOL    HW126943   9.240   3.348   6.840 -0.1764 -0.8567  0.8237
40369SOL    HW226944   9.318   3.476   6.820 -1.4975 -0.3415 -1.3397
40370SOL     OW26945  10.254   6.407   8.756  0.5384  0.0419  0.1209
40370SOL    HW126946  10.162   6.384   8.769  0.7528 -2.0720 -1.5533
40370SOL    HW226947  10.287   6.423   8.844 -1.6515  2.0185  0.6863
40371SOL     OW26948   6.373  10.350   6.921  0.1170 -0.5252  0.1517
40371SOL    HW126949   6.324  10.280   6.877  0.0688  0.3041 -1.1590
40371SOL    HW226950   6.459  10.312   6.937  0.2959 -0.6871 -1.1274
40372SOL     OW26951   7.198   7.206   3.818  0.0518 -0.6326  0.3801
40372SOL    HW126952   7.167   7.232   3.731 -0.5986 -0.0621  0.7778
40372SOL    HW226953   7.227   7.115   3.806 -0.8250 -0.8483 -0.2501
40373SOL     OW26954   1.069   5.341   3.910 -0.0890  0.0484  0.3241
40373SOL    HW126955   1.020   5.334   3.828 -0.9160 -1.8905  0.9260
40373SOL    HW226956   1.129   5.267   3.909  2.7625  2.2100 -0.2573
40374SOL     OW26957  10.325   3.600   6.110 -0.2321  0.1533 -0.4709
40374SOL    HW126958  10.321   3.505   6.106 -0.2338  0.0987  0.6583
40374SOL    HW226959  10.375   3.619   6.190 -0.1031  1.0951 -0.7620
40375SOL     OW26960   9.864   2.996   4.997 -0.7944 -0.1010 -0.2298
40375SOL    HW126961   9.788   2.975   5.052  0.0373 -1.3154  0.5096
40375SOL    HW226962   9.829   3.000   4.908 -1.3154 -3.5068 -0.3013
40376SOL     OW26963   6.571   1.190   2.355 -0.0817  0.6108 -0.6114
40376SOL    HW126964   6.631   1.143   2.413  2.4232 -0.0118 -3.4524
40376SOL    HW226965   6.487   1.146   2.367  0.5744 -0.1691  1.6852
40377SOL     OW26966   2.053   4.200   5.013 -0.0225 -0.1735  0.3756
40377SOL    HW126967   2.114   4.146   4.962 -0.3764  0.2759 -0.5500
40377SOL    HW226968   1.974   4.146   5.021 -0.5250  0.3167 -0.8973
40378SOL     OW26969   9.290   1.425   5.115  0.2702  0.5933  0.2000
40378SOL    HW126970   9.215   1.366   5.117  0.1146  0.7975  0.3893
40378SOL    HW226971   9.318   1.431   5.206  0.9180  0.0103  0.0532
40379SOL     OW26972   1.959   1.486  10.789  0.3579  0.1847  0.1456
40379SOL    HW126973   2.050   1.456  10.789  0.0245 -0.8382  0.0115
40379SOL    HW226974   1.927   1.466  10.877  0.0874 -0.0037  0.0047
40380SOL     OW26975   6.631  10.314   6.567  0.2632  0.1039  0.1201
40380SOL    HW126976   6.568  10.383   6.588  1.5242  0.5764  2.7671
40380SOL    HW226977   6.681  10.349   6.493 -1.9444  0.0770 -1.4557
40381SOL     OW26978   2.666  10.363   1.951 -0.0784  0.3443  0.3616
40381SOL    HW126979   2.729  10.435   1.950 -0.6329  0.8367  0.4248
40381SOL    HW226980   2.586  10.401   1.986 -0.4524 -0.2431  0.1643
40382SOL     OW26981   7.841   6.080   8.230  0.1405 -0.2229  0.2798
40382SOL    HW126982   7.909   6.135   8.192  0.1309 -0.6008 -0.2919
40382SOL    HW226983   7.829   6.115   8.318  0.2245  0.6079 -0.0252
40383SOL     OW26984   7.220   4.315   9.731  0.4661 -0.8242 -0.1213
40383SOL    HW126985   7.148   4.378   9.728 -0.2951 -1.6939 -0.2060
40383SOL    HW226986   7.294   4.362   9.691 -0.1007 -0.0006 -0.2164
40384SOL     OW26987   3.884   7.154   7.243 -0.5240 -0.5873 -0.2513
40384SOL    HW126988   3.898   7.236   7.196  1.2104 -1.4150 -1.3124
40384SOL    HW226989   3.792   7.132   7.228 -0.8719  0.8969 -0.3616
40385SOL     OW26990   9.844   0.421   9.214  0.4974  0.7420 -0.0660
40385SOL    HW126991   9.875   0.344   9.166 -0.6235 -0.7267  1.4221
40385SOL    HW226992   9.919   0.481   9.214  1.8483 -0.8672 -0.2477
40386SOL     OW26993   7.750   9.000   9.047 -0.5318  0.1306 -0.2342
40386SOL    HW126994   7.755   9.093   9.069 -1.1210 -0.0841  0.8857
40386SOL    HW226995   7.731   8.999   8.953  1.6092  1.0969 -0.7262
40387SOL     OW26996   9.313   7.903   4.801 -0.0647  0.4422 -0.2332
40387SOL    HW126997   9.266   7.953   4.734  0.7788 -0.3283 -1.4300
40387SOL    HW226998   9.245   7.854   4.847 -0.6305  0.8343 -0.6464
40388SOL     OW26999   6.698   7.858   5.703 -0.2057  0.2447  0.1327
40388SOL    HW127000   6.626   7.910   5.667  0.3155  1.3490  0.6496
40388SOL    HW227001   6.655   7.786   5.748 -0.9712  0.6230  0.0330
40389SOL     OW27002  10.462   2.900   0.155  0.0790  0.4800  0.4407
40389SOL    HW127003  10.442   2.895   0.249  0.3623  2.3783  0.6545
40389SOL    HW227004  10.517   2.978   0.147 -1.1687  1.2271 -1.4997
40390SOL     OW27005   8.255   1.239   8.603 -0.3404  0.2411  0.7229
40390SOL    HW127006   8.317   1.292   8.653 -2.0907  1.8597  1.2940
40390SOL    HW227007   8.258   1.275   8.515 -0.1304  0.0009  0.6308
40391SOL     OW27008   1.608  10.462   4.840 -0.4914 -0.1421  0.0426
40391SOL    HW127009   1.551  10.385   4.841 -2.5029  1.1714 -2.8532
40391SOL    HW227010   1.695  10.427   4.861 -1.1551 -3.4015 -2.0046
40392SOL     OW27011   2.924  10.576   8.674 -0.0253 -0.0302 -0.1060
40392SOL    HW127012   2.923  10.667   8.704  1.0322 -0.0517  0.0194
40392SOL    HW227013   2.832  10.548   8.679 -0.2544  0.8064  0.5487
40393SOL     OW27014   5.227   7.617   6.023  0.1122 -0.1858 -0.8034
40393SOL    HW127015   5.146   7.615   6.075 -0.3253 -0.8590 -1.4875
40393SOL    HW227016   5.217   7.694   5.967 -0.3090 -0.5615 -1.2582
40394SOL     OW27017   8.713   9.941   0.451  0.3135 -0.2095 -0.4688
40394SOL    HW127018   8.677   9.856   0.425  1.6069 -0.2917 -2.1359
40394SOL    HW227019   8.798   9.921   0.489 -0.4260  0.1673  1.5409
40395SOL     OW27020  10.017   0.762   8.610  0.3008  0.5768  0.1915
40395SOL    HW127021  10.047   0.673   8.591  0.7392  0.5677  0.8742
40395SOL    HW227022   9.923   0.760   8.593  0.4146  0.1746 -0.4637
40396SOL     OW27023   0.351   7.628   5.490  0.3269 -0.2230 -0.7717
40396SOL    HW127024   0.265   7.595   5.462 -0.2876 -0.7985  1.5732
40396SOL    HW227025   0.391   7.556   5.537  1.5017  0.5201 -0.5771
40397SOL     OW27026  10.884   7.715   2.177  0.5051  0.1185  0.2572
40397SOL    HW127027  10.973   7.736   2.204  0.3500 -0.0298  0.9265
40397SOL    HW227028  10.846   7.799   2.152  0.8933  0.1510 -0.2213
40398SOL     OW27029   6.586   7.592   0.316 -0.1070 -0.3336  0.3323
40398SOL    HW127030   6.515   7.545   0.271 -2.2628  1.1834  1.9511
40398SOL    HW227031   6.582   7.561   0.406  0.5609  0.5895  0.6938
40399SOL     OW27032   7.619   5.516   3.723  0.1990  0.0678 -0.0535
40399SOL    HW127033   7.649   5.590   3.776 -1.0848  0.2390  0.4648
40399SOL    HW227034   7.526   5.532   3.709 -0.0250 -1.2598 -0.2589
40400SOL     OW27035   2.665   0.959   3.738  0.2349 -0.2831  0.1505
40400SOL    HW127036   2.696   1.017   3.808 -0.0405 -1.0927  0.9715
40400SOL    HW227037   2.722   0.978   3.664 -1.2785  2.6573 -0.3833
40401SOL     OW27038   5.802   8.182   1.095 -0.1090 -0.0569  0.3703
40401SOL    HW127039   5.777   8.233   1.018 -1.3862 -0.3397  0.5802
40401SOL    HW227040   5.784   8.091   1.071 -1.8370 -0.0475  1.4412
40402SOL     OW27041  10.297   9.946   9.852  0.0600  0.1514 -1.1734
40402SOL    HW127042  10.262   9.869   9.809 -0.4817  0.4431 -1.2590
40402SOL    HW227043  10.220   9.990   9.889  0.4494  0.1996 -0.3869
40403SOL     OW27044   3.581   3.498   7.525  0.3108  0.1138  0.0068
40403SOL    HW127045   3.563   3.406   7.507 -1.6246  0.5436 -0.5071
40403SOL    HW227046   3.564   3.543   7.442 -1.0260  1.1775  0.8165
40404SOL     OW27047   3.258   8.324  10.133 -0.2229  0.2686 -0.5050
40404SOL    HW127048   3.276   8.271  10.210 -0.8228  1.7532  0.6887
40404SOL    HW227049   3.336   8.312  10.078 -0.7405 -2.6222 -0.7942
40405SOL     OW27050   5.653   8.236   1.315  0.1526  0.8163 -0.1746
40405SOL    HW127051   5.695   8.227   1.229 -0.5898  2.2744 -0.7320
40405SOL    HW227052   5.619   8.149   1.334  1.5572  0.1163 -0.6873
40406SOL     OW27053   1.868   8.730   8.377  0.2554 -0.0102 -0.3909
40406SOL    HW127054   1.869   8.744   8.472 -0.0319 -1.5874 -0.1268
40406SOL    HW227055   1.919   8.803   8.342  2.4567 -0.6731  1.1913
40407SOL     OW27056   2.190   9.907   3.834  0.3104 -0.0242 -0.6237
40407SOL    HW127057   2.205   9.843   3.903 -0.6880  0.0479 -0.3284
40407SOL    HW227058   2.278   9.938   3.810  0.6703 -0.0003  0.6453
40408SOL     OW27059   2.756   7.282   1.617  0.1844  0.2540  0.8894
40408SOL    HW127060   2.667   7.262   1.647 -0.7765  3.1473  0.3911
40408SOL    HW227061   2.747   7.368   1.574  2.7838 -0.4716 -1.3712
40409SOL     OW27062   2.126   5.568   1.086 -0.0964 -0.2104  0.0039
40409SOL    HW127063   2.175   5.639   1.045  0.4862 -0.2948  0.5389
40409SOL    HW227064   2.109   5.506   1.015  0.0846  0.0847 -0.3002
40410SOL     OW27065   7.704   1.125   9.331  0.1834  0.2729 -0.3223
40410SOL    HW127066   7.644   1.152   9.400 -1.5508 -2.7026 -0.4825
40410SOL    HW227067   7.784   1.099   9.377  0.1505  1.1447  0.2364
40411SOL     OW27068   0.911   1.325   6.217 -0.4360 -0.1080 -0.1283
40411SOL    HW127069   0.876   1.324   6.306 -1.0475  1.1702 -0.3327
40411SOL    HW227070   0.852   1.383   6.169  1.2563  1.1519 -0.7861
40412SOL     OW27071   9.285   3.604   6.709  0.2189 -0.3081 -0.1617
40412SOL    HW127072   9.334   3.684   6.692 -1.2023  0.3517 -1.3605
40412SOL    HW227073   9.194   3.627   6.689 -0.2525 -2.1360 -0.2680
40413SOL     OW27074   7.133   2.598  10.871 -0.7717 -0.2842 -0.2840
40413SOL    HW127075   7.097   2.585  10.959  1.1940  0.7709  0.7405
40413SOL    HW227076   7.110   2.688  10.849  1.3266  0.5054  0.5042
40414SOL     OW27077   3.205   8.463   9.382 -0.0011 -0.5916 -0.1950
40414SOL    HW127078   3.277   8.474   9.444  0.0231 -0.1978 -0.2888
40414SOL    HW227079   3.148   8.538   9.397 -0.7755 -1.2742  0.3650
40415SOL     OW27080   8.746   4.630   0.653  0.2852 -0.7832  0.0478
40415SOL    HW127081   8.708   4.570   0.589 -0.5525 -1.6808  1.3390
40415SOL    HW227082   8.701   4.610   0.735  2.1899 -0.5245  1.2167
40416SOL     OW27083   2.811  10.690   1.574 -0.1287  0.2765 -0.0959
40416SOL    HW127084   2.827  10.649   1.659 -0.9011  0.8525  0.3404
40416SOL    HW227085   2.871  10.765   1.572 -0.1423  0.2885 -0.0457
40417SOL     OW27086   4.924   8.835   9.812 -0.2682  0.2139 -0.6254
40417SOL    HW127087   4.913   8.756   9.758 -1.2996 -0.9094  1.1224
40417SOL    HW227088   4.985   8.808   9.881  1.2874  1.7170 -1.3469
40418SOL     OW27089  10.235   4.101   2.597  0.7906  0.7116 -0.2599
40418SOL    HW127090  10.140   4.110   2.586  0.6079 -0.1870  0.5205
40418SOL    HW227091  10.255   4.014   2.564  0.8349 -0.4274  2.5425
40419SOL     OW27092   8.825   7.881   6.288  0.3537 -0.4260 -0.0070
40419SOL    HW127093   8.883   7.913   6.357 -0.1809 -0.0353  0.2654
40419SOL    HW227094   8.737   7.903   6.318 -0.0003 -1.6725 -0.0632
40420SOL     OW27095   4.105   0.732   0.451 -0.2635  0.2219 -0.1328
40420SOL    HW127096   4.129   0.824   0.455  0.9410 -0.0990  0.5746
40420SOL    HW227097   4.020   0.727   0.494 -1.2027  1.2409 -1.7554
40421SOL     OW27098   6.034   5.940   0.095 -0.1312  0.0217  0.5261
40421SOL    HW127099   5.938   5.944   0.097 -0.1459 -0.0389  0.0696
40421SOL    HW227100   6.054   5.874   0.028  0.2425  0.7478 -0.0929
40422SOL     OW27101   4.726   1.146   5.307  0.0701 -0.2499 -0.2260
40422SOL    HW127102   4.698   1.188   5.388  0.9974  2.0521 -1.0163
40422SOL    HW227103   4.773   1.215   5.259  1.9579 -2.2892 -1.4982
40423SOL     OW27104   9.089   0.959   6.242  0.0031 -0.1363 -0.1624
40423SOL    HW127105   9.165   0.911   6.211  0.7212 -0.4300  1.9087
40423SOL    HW227106   9.082   0.937   6.335 -0.7182  2.3474  0.4538
40424SOL     OW27107   0.655   2.726   4.790 -0.6037 -0.3038 -0.0170
40424SOL    HW127108   0.662   2.764   4.877  0.1546 -1.2741  0.3503
40424SOL    HW227109   0.706   2.785   4.734  0.6851 -0.8232  0.5739
40425SOL     OW27110   4.339   0.963   0.248 -0.6264 -0.6894 -0.6165
40425SOL    HW127111   4.390   1.028   0.201 -0.7540 -1.5620 -2.0011
40425SOL    HW227112   4.283   0.923   0.182 -2.3052 -0.5522  0.6366
40426SOL     OW27113   8.253   4.185   5.552 -0.7356  0.5675  0.4948
40426SOL    HW127114   8.249   4.271   5.511 -1.1527  0.6308  0.6602
40426SOL    HW227115   8.173   4.141   5.524 -1.5461  0.9855  2.0208
40427SOL     OW27116   9.144   1.864  10.773  0.2577  0.6231  0.2873
40427SOL    HW127117   9.085   1.847  10.846 -0.5416 -0.3631 -0.5514
40427SOL    HW227118   9.106   1.940  10.729  0.2924  0.7262  0.4345
40428SOL     OW27119   2.115   5.322   9.930  0.1171 -0.2649 -0.2991
40428SOL    HW127120   2.030   5.323   9.973 -0.0199 -0.8440 -0.5415
40428SOL    HW227121   2.148   5.411   9.939 -0.3888 -0.1099  0.0459
40429SOL     OW27122   9.589   2.265   7.573  0.0398 -0.1844  0.3739
40429SOL    HW127123   9.517   2.327   7.558  0.5415  0.6739  1.3162
40429SOL    HW227124   9.602   2.268   7.668  1.3419 -0.2909  0.2112
40430SOL     OW27125   3.546   7.713   2.854 -0.2589 -0.1472  0.1206
40430SOL    HW127126   3.547   7.645   2.921 -1.8902 -0.5116 -0.1794
40430SOL    HW227127   3.455   7.714   2.822 -0.2504  2.0470  0.0107
40431SOL     OW27128   0.819   0.694   1.861 -0.4769 -0.0085 -0.4269
40431SOL    HW127129   0.886   0.738   1.914  0.9986 -0.1737 -2.0566
40431SOL    HW227130   0.739   0.702   1.912  0.4847  1.4731  0.9484
40432SOL     OW27131   5.692   9.789   3.536  0.1581 -0.1021 -0.3292
40432SOL    HW127132   5.788   9.787   3.528  0.4630  1.1380  2.1348
40432SOL    HW227133   5.664   9.700   3.513  1.8652 -0.4574 -1.1947
40433SOL     OW27134   2.637   3.326   3.664  0.0243  0.0113 -0.0331
40433SOL    HW127135   2.570   3.377   3.618 -0.0244 -2.1581 -2.6039
40433SOL    HW227136   2.623   3.236   3.635  2.0288 -1.0245  1.9175
40434SOL     OW27137   5.438   9.096   7.709 -0.0452  0.4932  0.0359
40434SOL    HW127138   5.476   9.128   7.627 -0.6096  1.1803  0.0288
40434SOL    HW227139   5.372   9.162   7.732 -0.9225 -0.4327  0.2766
40435SOL     OW27140   8.535   0.695   3.561  0.5690  0.5810 -0.0732
40435SOL    HW127141   8.460   0.671   3.616  0.0811 -1.8027 -1.6181
40435SOL    HW227142   8.496   0.708   3.474  1.6217  2.0638 -0.3552
40436SOL     OW27143   1.784   6.520   6.287 -0.2432 -0.4467 -0.5577
40436SOL    HW127144   1.738   6.599   6.257 -0.3251 -0.1292  0.3477
40436SOL    HW227145   1.739   6.497   6.369  0.5642 -0.7260 -0.1875
40437SOL     OW27146   1.387   2.927   1.114  0.3756  0.2106 -0.2115
40437SOL    HW127147   1.482   2.928   1.115  0.3922  1.7079  0.2562
40437SOL    HW227148   1.362   2.987   1.043 -0.1344  2.4052  1.6796
40438SOL     OW27149   6.732   6.545   9.815  0.0426 -0.1885  0.4317
40438SOL    HW127150   6.676   6.480   9.858  0.1446 -0.6945 -0.1824
40438SOL    HW227151   6.706   6.541   9.723  3.0773 -2.6483 -0.5043
40439SOL     OW27152   9.924   9.873   9.354  0.0228 -0.6312  0.4701
40439SOL    HW127153   9.873   9.870   9.272  1.7982 -0.6218 -0.6922
40439SOL    HW227154   9.886   9.945   9.403 -1.5915 -1.1160  0.0280
40440SOL     OW27155   6.098   8.054   7.224 -0.0465 -0.6850 -0.0080
40440SOL    HW127156   6.028   8.001   7.188 -0.2066 -0.7355  0.3773
40440SOL    HW227157   6.144   8.089   7.147  1.0510 -2.6299 -0.3059
40441SOL     OW27158   3.229   8.792   0.059  0.5201  1.0475 -0.5557
40441SOL    HW127159   3.288   8.845   0.112 -0.1109  1.7421 -0.5240
40441SOL    HW227160   3.151   8.847   0.048 -0.4801 -0.1865  0.1380
40442SOL     OW27161   5.829  10.348   1.595 -0.3811 -0.3133 -0.6243
40442SOL    HW127162   5.826  10.438   1.561  1.1327 -0.1922 -0.5271
40442SOL    HW227163   5.922  10.332   1.611 -0.5393 -2.1279 -1.2411
40443SOL     OW27164   8.775  10.272   7.206 -0.4966  0.1213 -0.0328
40443SOL    HW127165   8.827  10.234   7.135  1.6308  0.3229  1.3184
40443SOL    HW227166   8.839  10.292   7.274 -2.2951  1.0689  1.4705
40444SOL     OW27167   5.396   7.568   2.899  0.2270 -0.0067  0.2524
40444SOL    HW127168   5.321   7.519   2.865  0.2959 -0.5655  0.8952
40444SOL    HW227169   5.450   7.585   2.821 -1.1869  1.5684 -0.4531
40445SOL     OW27170   1.327   5.037   9.818  0.4398  1.0436 -0.3798
40445SOL    HW127171   1.413   5.067   9.846  0.8996  1.3036 -1.9776
40445SOL    HW227172   1.343   4.992   9.735 -1.0942  2.0831 -1.2815
40446SOL     OW27173   0.618   3.484   7.551  0.0877 -0.3360 -0.4027
40446SOL    HW127174   0.680   3.557   7.553  0.5399 -0.7145 -0.1722
40446SOL    HW227175   0.550   3.508   7.613  1.6595 -1.3121  1.8694
40447SOL     OW27176   1.677  10.798   6.861 -0.4377  0.4218 -0.1960
40447SOL    HW127177   1.610  10.866   6.868 -0.0080  0.7595  0.7919
40447SOL    HW227178   1.631  10.724   6.821 -1.3760  0.6983  0.3403
40448SOL     OW27179   9.378   3.199   2.390 -0.3073  0.3047  0.0293
40448SOL    HW127180   9.432   3.253   2.333 -1.1387  0.0970 -0.9812
40448SOL    HW227181   9.330   3.261   2.445 -0.8560  0.5860 -0.7559
40449SOL     OW27182   7.704  10.341   7.115 -0.1364  0.0712 -0.1247
40449SOL    HW127183   7.638  10.365   7.180  0.5063  0.0827  0.5270
40449SOL    HW227184   7.741  10.425   7.087 -0.4518  0.0711 -0.5570
40450SOL     OW27185   0.194   1.554  10.378  0.6802 -0.6612  0.8536
40450SOL    HW127186   0.244   1.509  10.446  2.4569  0.6252  0.4803
40450SOL    HW227187   0.246   1.543  10.298  1.5923  2.5397  0.8872
40451SOL     OW27188   0.862   7.747   9.762  0.8070  0.1214  0.3655
40451SOL    HW127189   0.836   7.658   9.741  1.1970  0.1736 -0.3723
40451SOL    HW227190   0.891   7.784   9.679  1.8691  0.5170  0.8952
40452SOL     OW27191   6.332   7.360   4.590  0.0529 -0.3905  0.6239
40452SOL    HW127192   6.414   7.410   4.586 -0.1447 -0.1144 -2.3201
40452SOL    HW227193   6.273   7.417   4.639  0.3390  1.6068 -1.1801
40453SOL     OW27194   2.378   4.164   9.995 -0.2905  0.0649  0.4412
40453SOL    HW127195   2.428   4.237  10.031 -0.6269 -0.0240  1.0989
40453SOL    HW227196   2.289   4.176  10.030 -0.3982 -0.5362  0.3851
40454SOL     OW27197   4.075   5.744   0.185 -0.2913 -0.4396  0.0188
40454SOL    HW127198   4.144   5.759   0.250  0.2316 -1.1704 -0.3515
40454SOL    HW227199   4.045   5.655   0.203 -0.8308 -0.2822 -0.1058
40455SOL     OW27200  10.572   0.619   1.151  0.0119  0.1297 -0.0215
40455SOL    HW127201  10.532   0.580   1.228  0.4608  0.2094  0.2544
40455SOL    HW227202  10.583   0.712   1.173 -0.9652  0.4121 -0.6399
40456SOL     OW27203   9.684   6.441   2.130  0.0260 -0.3339  0.5035
40456SOL    HW127204   9.661   6.512   2.071 -0.4745 -0.1176  0.9511
40456SOL    HW227205   9.747   6.479   2.191  2.7875 -1.2741 -1.5541
40457SOL     OW27206   6.094  10.126   7.474  0.8101  0.7018 -0.1327
40457SOL    HW127207   6.118  10.051   7.421 -1.6980 -0.0006 -0.3777
40457SOL    HW227208   6.084  10.198   7.412 -2.2461 -0.1477 -0.7886
40458SOL     OW27209   0.128   9.606   8.668 -0.2455 -0.4491 -0.1477
40458SOL    HW127210   0.130   9.512   8.650  1.6357 -0.0051 -2.8701
40458SOL    HW227211   0.218   9.635   8.654 -0.7880  1.7871  0.5979
40459SOL     OW27212   9.947   7.314   7.640 -0.1404  0.4850 -0.1433
40459SOL    HW127213   9.883   7.379   7.667 -0.3680 -0.5350  1.9628
40459SOL    HW227214   9.895   7.235   7.623  0.4665 -0.1787  0.9833
40460SOL     OW27215   7.104   8.114   8.116  0.2690  0.3899  0.0240
40460SOL    HW127216   7.048   8.037   8.099  3.0672 -1.9248  0.4673
40460SOL    HW227217   7.132   8.142   8.028 -0.7799  0.9815 -0.1415
40461SOL     OW27218   3.794   4.504   3.342  0.3789 -0.5682  0.6658
40461SOL    HW127219   3.776   4.573   3.278  2.3244 -0.9342 -0.3449
40461SOL    HW227220   3.826   4.430   3.290 -2.1583 -2.4930  1.6670
40462SOL     OW27221   0.928  10.775   0.129  0.0583  0.6070 -0.1534
40462SOL    HW127222   0.966  10.859   0.159  0.1881  0.3817  0.3267
40462SOL    HW227223   0.838  10.797   0.105 -0.3635  0.6162  1.3448
40463SOL     OW27224   1.886   8.252   5.873 -0.2084 -0.4826 -0.2012
40463SOL    HW127225   1.839   8.190   5.928  0.6037 -0.3722  0.6507
40463SOL    HW227226   1.847   8.242   5.786 -1.1950 -1.0016  0.2841
40464SOL     OW27227   6.060   1.165   8.938 -0.4289  0.0576  0.6983
40464SOL    HW127228   6.053   1.254   8.905 -2.6425 -1.0737 -2.3102
40464SOL    HW227229   5.985   1.154   8.995 -1.1896 -0.3488 -0.3459
40465SOL     OW27230   7.502   6.799   5.424 -0.8341 -0.2955 -0.3097
40465SOL    HW127231   7.506   6.738   5.497 -2.5422  0.8031  0.7927
40465SOL    HW227232   7.428   6.768   5.371 -1.0695  0.2181 -0.2907
40466SOL     OW27233   2.687   2.469   8.615 -0.7653  0.3393  0.2078
40466SOL    HW127234   2.694   2.530   8.688  4.1252 -0.1816  0.5490
40466SOL    HW227235   2.669   2.525   8.539  0.7504  1.9396  0.9420
40467SOL     OW27236   9.831   0.224  10.681  0.5129  0.2582  0.0189
40467SOL    HW127237   9.922   0.200  10.662 -0.0956 -0.8741 -1.6790
40467SOL    HW227238   9.789   0.231  10.596 -0.9011  1.2523  0.7517
40468SOL     OW27239  10.877   3.799   9.044  0.0780 -0.0858 -0.4271
40468SOL    HW127240  10.972   3.795   9.035  0.1216 -0.6798  0.2236
40468SOL    HW227241  10.856   3.893   9.042  0.9530  0.2328  2.1121
40469SOL     OW27242   1.448   3.514   3.932 -0.2820  0.2249  0.0456
40469SOL    HW127243   1.384   3.516   3.861  0.5193  1.0311 -0.6832
40469SOL    HW227244   1.403   3.468   4.003 -1.0675 -0.6877 -1.0038
40470SOL     OW27245   2.721   5.891   4.735  0.2220  0.1642 -0.0363
40470SOL    HW127246   2.800   5.837   4.741  0.7213  0.9919  1.4336
40470SOL    HW227247   2.649   5.829   4.732  0.8755 -0.5946 -0.4718
40471SOL     OW27248   2.383   8.596  10.426  0.2453 -0.2214  0.5605
40471SOL    HW127249   2.312   8.659  10.412  0.1795 -0.7566 -2.0289
40471SOL    HW227250   2.343   8.511  10.408  0.9488 -0.7792  1.5507
40472SOL     OW27251   7.814   9.073   8.688  0.4913 -0.5695  0.2611
40472SOL    HW127252   7.890   9.015   8.677  1.8333  1.2164 -0.4391
40472SOL    HW227253   7.754   9.047   8.619  1.1344 -1.0281 -0.1407
40473SOL     OW27254   8.474  10.867   8.854  0.7335  0.0176 -0.6541
40473SOL    HW127255   8.501  10.939   8.797  0.2363 -1.0293 -2.3063
40473SOL    HW227256   8.541  10.800   8.841 -0.0114 -0.6916 -0.9563
40474SOL     OW27257   0.484   4.550   5.729 -0.5500  0.0451 -0.1872
40474SOL    HW127258   0.397   4.515   5.708 -0.0097 -0.9090 -0.8755
40474SOL    HW227259   0.543   4.505   5.669  0.2934  1.4752 -0.4650
40475SOL     OW27260   1.966   0.439   2.736 -0.2227  0.5146 -0.4551
40475SOL    HW127261   1.988   0.435   2.643  0.2875  0.1527 -0.3233
40475SOL    HW227262   2.050   0.430   2.781 -0.5808 -0.3233  0.0536
40476SOL     OW27263   6.979   7.023   6.737 -0.4264  0.0563  0.0178
40476SOL    HW127264   6.889   7.028   6.705 -0.9096 -0.7198  1.1960
40476SOL    HW227265   7.026   6.976   6.669 -0.6395  1.4086 -1.1179
40477SOL     OW27266   6.135   6.010   2.547 -0.5935  0.1479 -0.4950
40477SOL    HW127267   6.199   5.946   2.579  0.0978  0.7165 -0.7208
40477SOL    HW227268   6.051   5.978   2.580 -0.1147 -0.2327  0.3925
40478SOL     OW27269   9.653  10.666   9.121 -0.2195 -0.1481  0.0002
40478SOL    HW127270   9.625  10.682   9.211 -0.0293  2.7549 -0.3579
40478SOL    HW227271   9.736  10.713   9.114 -0.0501 -0.6550 -1.5717
40479SOL     OW27272   1.703   0.965   6.869 -0.4636 -0.1110 -0.6241
40479SOL    HW127273   1.786   0.935   6.905 -1.2967 -0.2981  1.2668
40479SOL    HW227274   1.682   0.900   6.801 -0.0357 -1.2333  0.2726
40480SOL     OW27275   5.046  10.105   4.147 -0.8139  0.5849  0.2558
40480SOL    HW127276   4.985  10.144   4.085 -0.7718 -0.8262 -0.7238
40480SOL    HW227277   5.115  10.171   4.157 -0.2049  0.3982 -2.1615
40481SOL     OW27278   0.211  10.462  10.156  0.1486  0.5930  0.6196
40481SOL    HW127279   0.185  10.374  10.127 -0.0539  0.9342 -0.2589
40481SOL    HW227280   0.176  10.469  10.245 -0.1214 -0.0925  0.5735
40482SOL     OW27281   2.317   4.927  10.141 -0.3251  0.3775 -0.0511
40482SOL    HW127282   2.253   4.864  10.174  0.9728 -0.5418  0.8119
40482SOL    HW227283   2.348   4.973  10.218 -0.2306  1.1114 -0.5133
40483SOL     OW27284  10.515   3.176   7.510  0.3661  0.7279  0.4999
40483SOL    HW127285  10.500   3.091   7.551 -0.7929  1.5395  1.8306
40483SOL    HW227286  10.570   3.156   7.434  1.6272 -0.9641  1.7739
40484SOL     OW27287  10.111   6.350   6.573  0.1048 -0.1779  0.8045
40484SOL    HW127288  10.015   6.346   6.573  0.1255 -2.1126  1.2660
40484SOL    HW227289  10.137   6.281   6.635  1.7909 -0.0348  0.2993
40485SOL     OW27290   8.656   0.100  10.133 -0.0520 -0.4673  0.4169
40485SOL    HW127291   8.740   0.062  10.106 -0.2199  0.6168 -1.8606
40485SOL    HW227292   8.677   0.152  10.210  1.7494  1.0282 -0.9856
40486SOL     OW27293   6.655   3.549   7.716 -0.1302  0.0856 -0.3920
40486SOL    HW127294   6.571   3.595   7.714 -0.8516 -1.0624  1.1126
40486SOL    HW227295   6.721   3.619   7.709 -1.1906  1.2496  0.7181
40487SOL     OW27296   8.767   7.650   1.814  0.4195  0.0621  0.6472
40487SOL    HW127297   8.722   7.687   1.890  1.6937 -1.1106  2.0160
40487SOL    HW227298   8.857   7.682   1.822  0.7915 -0.8548  0.1661
40488SOL     OW27299   3.375  10.192   9.952 -0.3664 -0.1779 -0.0145
40488SOL    HW127300   3.467  10.176   9.974 -0.5231 -1.2181 -0.0578
40488SOL    HW227301   3.326  10.152  10.023 -0.7902  0.8241  0.2752
40489SOL     OW27302   0.724   2.098   6.376 -0.0444  0.0852 -0.5935
40489SOL    HW127303   0.791   2.117   6.442 -0.2045 -1.0836 -0.0830
40489SOL    HW227304   0.765   2.124   6.293  1.1738 -0.8939 -0.3324
40490SOL     OW27305   4.710   9.657   7.718  0.6705 -0.0624  0.4711
40490SOL    HW127306   4.749   9.610   7.644  1.3769  0.2562  0.6348
40490SOL    HW227307   4.624   9.616   7.729 -0.2485  1.0697 -1.6939
40491SOL     OW27308   3.606   8.510   3.405 -0.4874 -0.1154 -0.1979
40491SOL    HW127309   3.657   8.486   3.327  0.7417  0.3434  0.4341
40491SOL    HW227310   3.600   8.429   3.455 -0.6362 -0.2356 -0.4057
40492SOL     OW27311   2.303   1.789   9.863 -0.3499 -0.2265  0.6482
40492SOL    HW127312   2.376   1.847   9.883 -0.2873 -0.3275  0.7113
40492SOL    HW227313   2.231   1.848   9.840 -0.7575 -0.0584  2.2353
40493SOL     OW27314   1.637   0.330   0.834 -0.1912  0.1325  0.6753
40493SOL    HW127315   1.658   0.236   0.834  0.1124  0.1965  0.1155
40493SOL    HW227316   1.722   0.373   0.835 -0.3310  0.4182  2.0361
40494SOL     OW27317   3.758   1.070   2.546  0.0332  0.2252  0.6309
40494SOL    HW127318   3.782   1.012   2.474 -0.1722  0.0982  0.6641
40494SOL    HW227319   3.833   1.129   2.555  1.2672 -1.4516  2.0851
40495SOL     OW27320   1.906   7.574   2.141  0.7696 -0.6963 -0.6417
40495SOL    HW127321   1.873   7.495   2.182  0.4016  0.1402  0.7261
40495SOL    HW227322   1.849   7.644   2.172  0.5168  0.0156 -2.5280
40496SOL     OW27323   8.980   8.577   6.547  0.6020  0.3267 -0.4028
40496SOL    HW127324   9.004   8.625   6.626  1.4088 -0.0968 -0.3844
40496SOL    HW227325   9.022   8.626   6.476 -1.0850  1.4020 -0.7334
40497SOL     OW27326   4.675   5.294  10.850 -0.1985  0.1640 -0.3559
40497SOL    HW127327   4.633   5.336  10.925 -0.3374 -0.7704  0.1122
40497SOL    HW227328   4.602   5.271  10.792 -0.1837  0.0489 -0.3300
40498SOL     OW27329   3.441   1.173   4.748  0.6482 -0.2406  0.3859
40498SOL    HW127330   3.441   1.267   4.730 -0.4287  0.2756  2.7027
40498SOL    HW227331   3.354   1.143   4.722  0.5417 -0.3265  0.8278
40499SOL     OW27332   8.832   1.240   6.668  0.5485 -0.3916  0.4249
40499SOL    HW127333   8.910   1.249   6.723 -0.5407 -1.2506  2.1948
40499SOL    HW227334   8.810   1.147   6.672 -0.4859 -0.1906 -0.1586
40500SOL     OW27335   3.322   5.284   1.661 -0.4832  0.0891 -0.4071
40500SOL    HW127336   3.288   5.355   1.607  0.9489 -0.1907 -1.7629
40500SOL    HW227337   3.385   5.239   1.604  1.3547 -0.0462  1.5857
40501SOL     OW27338   7.776   5.141   4.132  0.0177 -0.0080  0.4447
40501SOL    HW127339   7.764   5.228   4.094  0.0938  0.5138  1.5723
40501SOL    HW227340   7.868   5.120   4.116 -0.0250  0.0693  0.0856
40502SOL     OW27341  10.591   9.824   5.321  0.0195 -0.1502 -0.6266
40502SOL    HW127342  10.537   9.754   5.357  0.0228  0.1454 -0.0404
40502SOL    HW227343  10.586   9.811   5.226 -0.3342 -0.6760 -0.5436
40503SOL     OW27344   2.788   1.892   8.397  0.1134 -0.1801  0.0634
40503SOL    HW127345   2.737   1.822   8.439 -0.6942  0.2764 -0.1256
40503SOL    HW227346   2.792   1.866   8.305  0.8957 -0.6009  0.2079
40504SOL     OW27347   5.931   6.595   9.750 -0.2712  0.1009  0.2385
40504SOL    HW127348   5.958   6.504   9.764  0.4629  0.3722  0.6579
40504SOL    HW227349   6.013   6.641   9.729 -0.9231  0.2588 -2.2648
40505SOL     OW27350   4.367   0.801  10.571 -0.3848 -0.0537 -0.0632
40505SOL    HW127351   4.339   0.831  10.484  1.6087  2.3684  0.0405
40505SOL    HW227352   4.455   0.766  10.557  1.1303  2.8737  1.2722
40506SOL     OW27353   5.122   4.172   2.508 -0.1248 -0.1523 -0.7640
40506SOL    HW127354   5.150   4.127   2.429  0.4867  0.2867 -0.8037
40506SOL    HW227355   5.140   4.111   2.579  1.3298  0.2590 -0.7421
40507SOL     OW27356   8.005   7.323   6.599  0.3858  0.3042 -0.1694
40507SOL    HW127357   7.920   7.324   6.554  1.4062 -0.3003 -2.2571
40507SOL    HW227358   8.031   7.231   6.598  1.3076  0.5581 -0.0396
40508SOL     OW27359   0.278   7.508   9.145 -0.2744  0.2506  0.2850
40508SOL    HW127360   0.327   7.475   9.221  0.4407  1.6014  0.4420
40508SOL    HW227361   0.199   7.454   9.143 -0.0180 -0.2272  1.6208
40509SOL     OW27362   8.338   1.850  10.078 -0.6690 -0.3391 -0.1653
40509SOL    HW127363   8.331   1.927  10.135 -1.0803 -1.1528  0.9056
40509SOL    HW227364   8.248   1.816  10.073 -0.8141  0.1885 -2.0022
40510SOL     OW27365   0.251   8.844   4.971  0.7244  0.0782  0.1400
40510SOL    HW127366   0.164   8.873   4.998  0.4402 -0.9886  0.4206
40510SOL    HW227367   0.238   8.802   4.886  1.1881  1.0459 -0.4306
40511SOL     OW27368   4.008   7.471   2.183  0.1985  1.0539 -0.3816
40511SOL    HW127369   4.011   7.395   2.240 -0.0020 -0.6950 -2.5577
40511SOL    HW227370   4.096   7.509   2.187  0.7214 -0.1398 -0.3203
40512SOL     OW27371   5.248   1.912   1.176  0.3553 -0.2669 -0.0174
40512SOL    HW127372   5.255   1.977   1.106 -2.0049  0.2259  0.1416
40512SOL    HW227373   5.220   1.962   1.253  0.9056 -1.1185  0.7557
40513SOL     OW27374   2.513  10.761   9.122 -0.0581  0.0997 -0.5025
40513SOL    HW127375   2.581  10.742   9.186 -0.8673 -0.2794  0.2807
40513SOL    HW227376   2.476  10.845   9.151  0.6677  0.7616 -1.4549
40514SOL     OW27377   7.622   3.431   5.434  0.0465  0.3341  0.1288
40514SOL    HW127378   7.665   3.482   5.503 -0.8158 -0.9990  1.7185
40514SOL    HW227379   7.579   3.496   5.379 -1.3081  1.3583  2.2783
40515SOL     OW27380   3.001   1.036   7.911  0.6906 -0.1777 -0.2888
40515SOL    HW127381   2.991   0.943   7.934  0.5726 -0.1134 -0.0769
40515SOL    HW227382   3.027   1.078   7.993  2.1683 -0.2497 -0.6931
40516SOL     OW27383   7.750   4.750   9.366  0.0507  0.1910 -0.3083
40516SOL    HW127384   7.793   4.726   9.448  0.3260 -1.5531 -0.9274
40516SOL    HW227385   7.798   4.828   9.336 -0.5840  1.3508  1.5537
40517SOL     OW27386   0.299   9.969   9.129 -0.5012  0.1625  0.3983
40517SOL    HW127387   0.287  10.007   9.042 -0.3007  0.6585  0.5846
40517SOL    HW227388   0.349  10.035   9.177 -0.7832 -0.0191  0.9514
40518SOL     OW27389  10.544   6.897   6.278 -0.0748 -0.3688 -0.1876
40518SOL    HW127390  10.485   6.959   6.321  0.5045  0.4372 -0.5194
40518SOL    HW227391  10.516   6.897   6.186 -1.0003 -1.7193  0.0693
40519SOL     OW27392   2.916   4.875   1.000 -0.2421 -0.4248 -0.5414
40519SOL    HW127393   2.972   4.937   1.047 -1.5650  1.4574 -1.3105
40519SOL    HW227394   2.952   4.871   0.912  0.9570 -2.2912 -0.0263
40520SOL     OW27395   2.340  10.150   5.131  0.5966 -0.5693 -0.6060
40520SOL    HW127396   2.395  10.212   5.083 -1.6008  1.6229 -0.4612
40520SOL    HW227397   2.282  10.113   5.064 -1.8599  1.8241  0.0103
40521SOL     OW27398   2.230   8.593   7.224 -0.1147 -0.5159  0.3535
40521SOL    HW127399   2.311   8.597   7.276  0.1698  1.7093 -0.1621
40521SOL    HW227400   2.259   8.561   7.138 -0.0123 -0.9490  0.5458
40522SOL     OW27401   6.481   4.391   7.404  0.0600 -0.1805  0.0622
40522SOL    HW127402   6.421   4.370   7.332  1.1241 -0.6283 -0.7204
40522SOL    HW227403   6.432   4.453   7.458 -0.4601  0.8620 -1.5217
40523SOL     OW27404   1.087   8.697  10.592  0.3479  0.2742  0.4369
40523SOL    HW127405   1.090   8.686  10.497 -0.7195 -0.0540  0.4287
40523SOL    HW227406   1.067   8.609  10.625  1.4435  0.2252  1.0292
40524SOL     OW27407   5.940   3.770   1.288  0.2075  0.0843 -0.3472
40524SOL    HW127408   5.936   3.788   1.194  0.1828  2.5754  0.0519
40524SOL    HW227409   5.849   3.777   1.317  0.3763  0.8110  0.0502
40525SOL     OW27410   6.955   5.947   6.138  0.0662  0.7808 -0.3535
40525SOL    HW127411   6.872   5.944   6.091 -1.8726  0.5532  2.7618
40525SOL    HW227412   6.996   6.028   6.110 -1.9575  1.6894 -0.8903
40526SOL     OW27413   0.893   3.673   1.137  0.5487 -0.4551 -0.1393
40526SOL    HW127414   0.836   3.599   1.161  1.4056 -1.7085 -1.7637
40526SOL    HW227415   0.963   3.672   1.203 -0.2203 -0.1406  0.7066
40527SOL     OW27416   2.108  10.653   4.584  0.1647  0.2043 -0.0586
40527SOL    HW127417   2.103  10.576   4.641 -1.5063 -0.0945 -0.5594
40527SOL    HW227418   2.147  10.621   4.503  2.0537  0.5148  0.6944
40528SOL     OW27419   8.341   4.376   3.604  0.1949 -0.6334  0.0012
40528SOL    HW127420   8.250   4.396   3.582  0.4161  0.1206 -0.2724
40528SOL    HW227421   8.335   4.303   3.665 -0.6828  0.2882  1.0770
40529SOL     OW27422   0.708   8.353   5.308 -0.4253 -0.1130  0.1548
40529SOL    HW127423   0.648   8.285   5.277 -2.2448  1.7309 -0.6065
40529SOL    HW227424   0.737   8.398   5.228  0.3207  0.3455  0.6723
40530SOL     OW27425   5.072   4.445   0.073  0.1361 -0.1347 -0.2937
40530SOL    HW127426   5.004   4.410   0.130 -0.4145  0.2563 -0.7074
40530SOL    HW227427   5.134   4.487   0.132 -0.6349  0.6193 -0.0031
40531SOL     OW27428   8.691   5.619   8.706 -0.8776 -0.1983 -0.3521
40531SOL    HW127429   8.681   5.689   8.641  2.5281  2.1276  1.3168
40531SOL    HW227430   8.769   5.572   8.677 -1.4940 -1.5196  0.0992
40532SOL     OW27431   5.328   7.713   1.924  0.3063  0.1588 -0.0457
40532SOL    HW127432   5.310   7.641   1.984  0.9802 -1.8832 -2.1889
40532SOL    HW227433   5.241   7.744   1.897 -0.0361 -1.6687 -1.1593
40533SOL     OW27434   5.346   0.138   1.935  0.5501 -0.1103  0.2120
40533SOL    HW127435   5.422   0.102   1.891 -0.1182 -0.7012 -0.4728
40533SOL    HW227436   5.343   0.230   1.907  2.7569  0.8392  2.6393
40534SOL     OW27437   0.270   5.679   9.691 -0.1988  0.3092 -0.2460
40534SOL    HW127438   0.270   5.751   9.628 -1.1694  0.1872 -0.3955
40534SOL    HW227439   0.285   5.722   9.776  0.7448  0.5100 -0.5022
40535SOL     OW27440   9.180   4.148   2.841  0.1981 -0.1044  0.4045
40535SOL    HW127441   9.160   4.187   2.756 -0.6849  0.9193  1.0638
40535SOL    HW227442   9.098   4.108   2.869  0.1912  0.4535  1.2248
40536SOL     OW27443   5.645   7.769   8.273 -0.0954 -0.1163  0.0927
40536SOL    HW127444   5.578   7.813   8.221  1.1553  2.7003  0.6937
40536SOL    HW227445   5.718   7.755   8.212  0.3215  0.6543  0.4038
40537SOL     OW27446   6.250   3.413  10.474 -0.3780 -0.0041 -0.5469
40537SOL    HW127447   6.223   3.396  10.565 -1.5913 -1.4683 -1.1397
40537SOL    HW227448   6.285   3.502  10.476 -2.3070  0.7934  0.9739
40538SOL     OW27449   9.736   3.246   5.741 -0.5084 -0.1372 -0.4605
40538SOL    HW127450   9.671   3.218   5.806  0.1061  0.0765  0.2712
40538SOL    HW227451   9.809   3.184   5.753 -0.4475 -0.1775 -1.0442
40539SOL     OW27452  10.061   9.961   4.578 -0.0546 -0.1626  0.1149
40539SOL    HW127453   9.996  10.031   4.569 -0.8254 -0.8292  0.3333
40539SOL    HW227454  10.009   9.881   4.580  0.8824 -0.8952 -1.7741
40540SOL     OW27455   0.721   7.408   5.743 -0.0236  0.8871  0.3740
40540SOL    HW127456   0.647   7.362   5.783  0.4573  1.0705  1.4929
40540SOL    HW227457   0.704   7.403   5.649 -0.9338  0.0446  0.5730
40541SOL     OW27458   1.238   6.186   7.429  0.1558  0.4572  0.1294
40541SOL    HW127459   1.145   6.199   7.445  0.3130  1.1455  0.5243
40541SOL    HW227460   1.246   6.092   7.410 -0.4993  0.2171  0.9610
40542SOL     OW27461   1.374   5.561   4.616 -0.0706 -0.0866  0.0846
40542SOL    HW127462   1.416   5.641   4.647  0.0157 -0.3658  0.6991
40542SOL    HW227463   1.332   5.523   4.694 -2.5296  0.8034 -0.6923
40543SOL     OW27464   9.404   5.909   6.751  0.6211 -0.5366  0.4584
40543SOL    HW127465   9.317   5.890   6.784  0.2049  1.3039  0.5197
40543SOL    HW227466   9.391   5.932   6.659  1.1569 -1.0054  0.2541
40544SOL     OW27467   5.231   4.558   9.782  0.1710 -0.1490  0.3597
40544SOL    HW127468   5.184   4.483   9.820 -0.7051  0.8928  1.4462
40544SOL    HW227469   5.321   4.527   9.771 -0.1820 -1.3706  0.7296
40545SOL     OW27470   3.887   2.587   6.009  0.1282  0.2528  0.3330
40545SOL    HW127471   3.966   2.560   6.057 -0.4621 -0.0306  1.1585
40545SOL    HW227472   3.908   2.571   5.917  0.4410 -1.3658  0.6629
40546SOL     OW27473   8.153   3.389   9.793 -0.1004 -0.5693  0.9085
40546SOL    HW127474   8.084   3.445   9.757  0.9579  0.1310 -0.1075
40546SOL    HW227475   8.133   3.302   9.760  0.2948 -0.1097 -0.5938
40547SOL     OW27476   5.145   7.584   5.099 -0.3352  0.0692  0.0627
40547SOL    HW127477   5.059   7.548   5.123 -0.3479  0.0315 -0.0367
40547SOL    HW227478   5.208   7.518   5.128 -0.3314  0.1562  0.2508
40548SOL     OW27479   4.548   3.269   9.518 -0.1625  0.0266 -0.5828
40548SOL    HW127480   4.604   3.192   9.527  0.3690  0.4861  0.1889
40548SOL    HW227481   4.597   3.340   9.561 -0.6335  0.7991 -1.2827
40549SOL     OW27482   4.619   2.342   2.612 -0.0487  0.6249 -0.3523
40549SOL    HW127483   4.619   2.394   2.532 -0.7184  0.0947 -0.6946
40549SOL    HW227484   4.542   2.286   2.606  0.0440  0.3802  0.5340
40550SOL     OW27485   7.214   0.073   1.778 -0.4854  0.0099  0.0644
40550SOL    HW127486   7.261   0.100   1.699  2.5007  0.0028  1.6993
40550SOL    HW227487   7.168   0.151   1.807 -1.3146  0.1100 -1.4388
40551SOL     OW27488   4.357  10.374   2.592 -0.2535  0.1544  0.6582
40551SOL    HW127489   4.406  10.294   2.612 -1.5676 -0.8235  0.1236
40551SOL    HW227490   4.421  10.444   2.599  0.7664 -0.8532  1.9134
40552SOL     OW27491   2.025   4.461   6.995 -0.0076 -0.1816  0.0449
40552SOL    HW127492   2.002   4.494   7.082  0.6556  0.9415 -0.1872
40552SOL    HW227493   1.941   4.437   6.956 -0.4946  0.9209  0.3639
40553SOL     OW27494   1.942   4.326   2.047  0.1808  0.1960 -0.4995
40553SOL    HW127495   1.872   4.262   2.041  0.7621 -0.5695  0.6245
40553SOL    HW227496   1.929   4.383   1.971 -1.0623 -0.5137 -0.8418
40554SOL     OW27497   1.339   4.028   8.987 -0.1391  0.6956 -0.0498
40554SOL    HW127498   1.302   3.961   8.930 -1.4457  2.6645 -1.6501
40554SOL    HW227499   1.312   4.002   9.076  1.5840 -2.2008 -0.2595
40555SOL     OW27500   4.361   2.844   6.495 -0.7102 -0.6413 -0.3404
40555SOL    HW127501   4.445   2.830   6.451  0.0002 -0.8340  1.0291
40555SOL    HW227502   4.325   2.922   6.453  0.3293 -0.3342 -0.6916
40556SOL     OW27503   5.429   4.604   9.088  0.3350 -0.5733  0.7516
40556SOL    HW127504   5.381   4.525   9.064  0.2629 -0.5297  0.7535
40556SOL    HW227505   5.451   4.591   9.180 -1.4654  0.3211  1.3493
40557SOL     OW27506   5.654   9.991   4.653  0.2085  0.4795 -0.9558
40557SOL    HW127507   5.731  10.031   4.612  0.0057  1.0465 -0.7830
40557SOL    HW227508   5.660   9.899   4.627  1.2098  0.4132 -0.5423
40558SOL     OW27509   8.237   3.724  10.770 -0.0825  0.0525  0.0339
40558SOL    HW127510   8.264   3.798  10.825  1.6999 -0.7364  0.2968
40558SOL    HW227511   8.239   3.759  10.681 -0.4421  0.6352  0.2455
40559SOL     OW27512   3.474   2.306   6.148 -0.1111 -0.3770  0.1308
40559SOL    HW127513   3.563   2.340   6.156  0.8144 -2.5134 -0.3408
40559SOL    HW227514   3.424   2.378   6.112  1.3323  1.0133  0.8019
40560SOL     OW27515   8.915   1.655   8.582 -0.0337 -0.1589 -0.2920
40560SOL    HW127516   8.993   1.619   8.539 -0.1926 -0.6395 -0.1895
40560SOL    HW227517   8.889   1.728   8.527  1.5997  1.2405  0.6770
40561SOL     OW27518   9.885   9.078   1.741 -0.4464  1.2143 -0.7101
40561SOL    HW127519   9.794   9.083   1.714 -0.7349 -0.7575 -0.2803
40561SOL    HW227520   9.883   9.027   1.822  1.0256  1.2534 -0.6222
40562SOL     OW27521  10.884   7.963   4.640  0.3009  0.1767  0.0436
40562SOL    HW127522  10.928   7.983   4.723 -0.2268  0.5652  0.2339
40562SOL    HW227523  10.955   7.932   4.583  0.9824  1.5470  0.0901
40563SOL     OW27524   9.584   9.571   5.361 -0.3325 -0.2438 -0.2886
40563SOL    HW127525   9.523   9.555   5.432 -0.7197  1.2942 -0.2362
40563SOL    HW227526   9.528   9.585   5.284  0.0738 -1.7372 -0.8966
40564SOL     OW27527   8.755   9.528   8.678 -0.1591 -0.3497 -0.2260
40564SOL    HW127528   8.822   9.473   8.718 -0.0612 -0.2913 -0.3087
40564SOL    HW227529   8.676   9.511   8.730 -0.0516 -0.3285 -0.0532
40565SOL     OW27530   5.670   9.422   9.158 -0.3631  0.5651 -0.5949
40565SOL    HW127531   5.737   9.365   9.197 -2.1058 -1.0661  0.1852
40565SOL    HW227532   5.682   9.411   9.064  1.5460  1.6895 -0.5396
40566SOL     OW27533   6.878  10.554   6.945  0.3548 -0.1950  0.3216
40566SOL    HW127534   6.957  10.601   6.920 -0.4501  1.2588  0.4406
40566SOL    HW227535   6.909  10.487   7.006  1.4718  0.5001  0.5474
40567SOL     OW27536   2.052   6.005   2.960 -0.2592  0.3121 -0.2903
40567SOL    HW127537   2.062   5.913   2.935  1.7269 -0.2008  2.0582
40567SOL    HW227538   2.136   6.045   2.939  0.2832  0.6178  2.1304
40568SOL     OW27539   4.220   8.712   5.837 -0.4227  0.2021 -0.6774
40568SOL    HW127540   4.297   8.655   5.835 -0.6794 -0.1796 -3.4495
40568SOL    HW227541   4.150   8.656   5.873  0.3324  0.2617  0.9602
40569SOL     OW27542   3.346   4.052   5.400  0.1688 -0.1391 -0.0763
40569SOL    HW127543   3.371   3.960   5.395  0.7149  0.0597 -1.6394
40569SOL    HW227544   3.320   4.065   5.491  2.3666 -1.2431  0.7879
40570SOL     OW27545  10.290   8.890   6.379 -0.1260 -0.1462 -0.1194
40570SOL    HW127546  10.371   8.865   6.424  0.3905 -0.0001 -0.9419
40570SOL    HW227547  10.275   8.821   6.315 -2.1206 -1.5751  1.7546
40571SOL     OW27548   8.289   4.472  10.135 -0.0824 -0.5280  0.0574
40571SOL    HW127549   8.272   4.384  10.100  2.7709 -1.4236  0.6592
40571SOL    HW227550   8.354   4.458  10.204  0.6485  2.0887 -0.0089
40572SOL     OW27551   7.099   0.321   6.004 -0.0297  0.3213  0.3891
40572SOL    HW127552   7.126   0.263   5.933  0.0279  0.6740  0.1224
40572SOL    HW227553   7.117   0.271   6.084 -0.9423 -0.4368  0.1346
40573SOL     OW27554   0.214   2.463   7.941  0.3277  0.0586 -0.5300
40573SOL    HW127555   0.121   2.447   7.924  0.0066  2.2177 -1.0925
40573SOL    HW227556   0.253   2.469   7.853  0.3867  2.2515 -0.3842
40574SOL     OW27557   2.431   5.876   7.164  0.0018  0.7309  0.6152
40574SOL    HW127558   2.437   5.906   7.073  0.5600  1.2538  0.8198
40574SOL    HW227559   2.394   5.951   7.211  1.1869  1.0378  1.0889
40575SOL     OW27560   6.881  10.282   0.483  0.1259 -0.0354  0.0931
40575SOL    HW127561   6.817  10.344   0.518 -0.3370 -0.6211  0.3072
40575SOL    HW227562   6.829  10.205   0.459  0.8358 -0.8444  1.0499
40576SOL     OW27563   9.375   7.847   1.174  0.2572  0.0074  0.1876
40576SOL    HW127564   9.381   7.752   1.182  1.3849  0.1589  1.7287
40576SOL    HW227565   9.282   7.866   1.174  0.0273 -1.0642  0.5056
40577SOL     OW27566   5.904   9.013   0.412  0.6028 -0.0582 -0.0329
40577SOL    HW127567   5.916   8.919   0.426  0.6372 -0.2413 -1.2060
40577SOL    HW227568   5.973   9.054   0.465 -0.7573 -0.5428  2.2851
40578SOL     OW27569   9.237   1.353   8.725  0.0821 -0.2527  1.0004
40578SOL    HW127570   9.209   1.275   8.678 -1.1677  0.3053  0.7849
40578SOL    HW227571   9.173   1.363   8.795 -0.7265  1.4818  0.0485
40579SOL     OW27572   8.862   9.605   5.182  0.5394  0.1010 -0.1350
40579SOL    HW127573   8.825   9.690   5.162 -1.2500 -0.4923  0.4594
40579SOL    HW227574   8.807   9.571   5.253  0.2084 -2.2059 -1.4101
40580SOL     OW27575   1.643   7.214   8.042 -0.3114  0.4715 -0.4796
40580SOL    HW127576   1.587   7.265   7.983 -0.4711  0.6093 -0.2094
40580SOL    HW227577   1.699   7.162   7.983 -0.4235  0.6581 -0.7521
40581SOL     OW27578   5.977  10.361   5.385  0.1785 -0.6106 -0.6378
40581SOL    HW127579   5.937  10.347   5.471 -0.6258 -0.3207 -0.9576
40581SOL    HW227580   5.904  10.357   5.324  0.3840  1.3883 -1.1001
40582SOL     OW27581   9.249   9.526  10.685 -0.5473  0.0812 -0.1932
40582SOL    HW127582   9.165   9.512  10.728 -0.9038  2.7721  0.1287
40582SOL    HW227583   9.252   9.459  10.616 -1.8172 -1.6241  1.3046
40583SOL     OW27584   3.739   1.258   4.766  0.0661  0.5292 -0.8543
40583SOL    HW127585   3.649   1.232   4.748  0.1308 -0.1464 -0.2706
40583SOL    HW227586   3.792   1.205   4.707  0.1024  0.6175 -0.9007
40584SOL     OW27587   8.354   5.785   7.979 -0.0180  0.5070 -0.3191
40584SOL    HW127588   8.369   5.694   8.005 -1.3400  0.3325 -0.0560
40584SOL    HW227589   8.363   5.835   8.059  0.8051  0.6255 -0.4823
40585SOL     OW27590   1.260   9.243   3.425  0.0460 -0.5799  0.7178
40585SOL    HW127591   1.331   9.215   3.483  1.1711 -1.0494 -0.8273
40585SOL    HW227592   1.302   9.254   3.340 -1.5489  0.1532 -0.0067
40586SOL     OW27593   1.500   6.642   8.084  0.5072  0.8114 -0.4194
40586SOL    HW127594   1.520   6.723   8.036  1.0833 -0.4026 -2.3588
40586SOL    HW227595   1.473   6.580   8.016  0.2047 -0.6712  0.9945
40587SOL     OW27596   9.609  10.583   6.281 -0.2219  0.9037 -0.2102
40587SOL    HW127597   9.667  10.603   6.207 -1.4498 -1.5095 -1.9600
40587SOL    HW227598   9.536  10.645   6.271  0.1059  1.2736 -0.3848
40588SOL     OW27599   8.106   7.164   0.007  0.0062 -0.0732 -0.3070
40588SOL    HW127600   8.025   7.198  -0.032  0.0797  1.9840  1.1775
40588SOL    HW227601   8.084   7.073   0.030 -2.1066  0.5754  0.5306
40589SOL     OW27602   5.108   0.928   9.414  0.4542  0.5205 -0.7822
40589SOL    HW127603   5.167   0.992   9.453 -0.0096  0.6185 -0.2199
40589SOL    HW227604   5.023   0.973   9.412  0.6307  0.8487 -2.7416
40590SOL     OW27605   0.749  10.423   8.156 -0.0327  0.1125  0.4319
40590SOL    HW127606   0.769  10.389   8.244  0.4342  0.2881  0.3954
40590SOL    HW227607   0.827  10.473   8.131 -0.0756 -0.1088 -0.1710
40591SOL     OW27608  10.388   6.893   2.177 -0.1346  0.6288  0.5087
40591SOL    HW127609  10.457   6.956   2.198 -0.5772  1.1085  0.5332
40591SOL    HW227610  10.307   6.935   2.207 -1.1519  2.2378 -3.7664
40592SOL     OW27611   3.201   0.720   5.909 -0.4921  1.0788 -0.1541
40592SOL    HW127612   3.264   0.786   5.881  0.5254  0.1784 -0.0492
40592SOL    HW227613   3.180   0.671   5.829  1.9964 -1.1383  0.3897
40593SOL     OW27614   7.103   6.163   6.076 -0.5520 -0.3521  0.5036
40593SOL    HW127615   7.036   6.229   6.055 -0.4364 -0.3386  0.1802
40593SOL    HW227616   7.125   6.180   6.167  1.3944  1.7830 -0.2726
40594SOL     OW27617   2.979   8.012   7.505 -0.2614 -0.1521 -0.1836
40594SOL    HW127618   3.067   7.992   7.475 -0.2629  1.2252 -1.2601
40594SOL    HW227619   2.935   8.046   7.427 -1.1010  1.0954  0.7897
40595SOL     OW27620   0.508   2.491   4.747  0.8092  0.1101  0.8428
40595SOL    HW127621   0.462   2.523   4.669  0.1264  0.7500  1.4877
40595SOL    HW227622   0.554   2.568   4.781 -1.1710  0.5965  2.6464
40596SOL     OW27623   1.656   6.151   9.356 -0.6143  0.0845 -0.0380
40596SOL    HW127624   1.650   6.097   9.277 -2.4805 -0.4620  0.4292
40596SOL    HW227625   1.578   6.207   9.352  0.9817  2.4548 -0.2410
40597SOL     OW27626   5.765   2.694   7.279 -0.1334  0.2897  0.2147
40597SOL    HW127627   5.733   2.742   7.356 -0.2039  0.1991  0.2431
40597SOL    HW227628   5.750   2.602   7.301 -0.6097  0.2826 -0.1038
40598SOL     OW27629   0.837   8.155   4.286  0.4815  0.1796  0.6222
40598SOL    HW127630   0.759   8.129   4.336 -1.4038  0.8801 -1.7785
40598SOL    HW227631   0.881   8.072   4.266 -1.1752 -0.5139 -0.3201
40599SOL     OW27632   3.909   9.625   2.953 -0.1975 -0.0168 -0.2280
40599SOL    HW127633   3.969   9.619   3.028  0.2933  1.4526 -0.4814
40599SOL    HW227634   3.965   9.651   2.880 -1.0097  0.5600 -0.6576
40600SOL     OW27635   1.608   9.551   8.800  0.3741  0.5219  1.0539
40600SOL    HW127636   1.529   9.571   8.750 -0.1083  0.4447  1.7671
40600SOL    HW227637   1.578   9.545   8.891  1.2214  0.6156  1.3497
40601SOL     OW27638   5.479   1.747   6.118 -0.1770  0.8406 -0.1819
40601SOL    HW127639   5.546   1.742   6.049  0.0318  1.7937 -0.0631
40601SOL    HW227640   5.497   1.830   6.162 -0.5593  0.4302  0.7714
40602SOL     OW27641   2.789   5.751   9.191  0.4426  0.2107  0.2388
40602SOL    HW127642   2.699   5.742   9.162 -0.0734  0.8420  1.5539
40602SOL    HW227643   2.811   5.665   9.226 -0.0539  0.3689  0.9622
40603SOL     OW27644   4.832  10.507   8.677 -0.3820 -0.0635 -0.3181
40603SOL    HW127645   4.866  10.455   8.604 -1.3006 -0.0707 -0.7562
40603SOL    HW227646   4.813  10.443   8.745  0.2420 -0.0826 -0.1538
40604SOL     OW27647   9.126   0.029   0.407 -0.0749 -0.1665  0.2504
40604SOL    HW127648   9.122  -0.022   0.488 -0.3492  0.5431  0.6895
40604SOL    HW227649   9.210   0.074   0.411  0.1986 -0.6321 -0.1710
40605SOL     OW27650   2.863   5.851   7.211 -0.3517  0.7229 -0.4819
40605SOL    HW127651   2.905   5.877   7.130  0.1057 -0.4708 -0.6515
40605SOL    HW227652   2.917   5.889   7.280  0.0554  0.5917 -0.7266
40606SOL     OW27653   0.296   4.985   1.338 -0.0074 -0.3061 -0.2170
40606SOL    HW127654   0.243   4.912   1.305  0.3490 -0.1631 -1.1449
40606SOL    HW227655   0.296   5.048   1.266 -2.2072  1.6830  1.3594
40607SOL     OW27656   6.914   6.212   9.601  0.1272  0.1747  0.0800
40607SOL    HW127657   6.931   6.302   9.632 -1.4338  0.3375  0.5776
40607SOL    HW227658   6.875   6.224   9.515 -0.0210 -0.0348  0.1189
40608SOL     OW27659   0.902   6.257   5.368 -0.1124 -0.3820 -0.0750
40608SOL    HW127660   0.841   6.192   5.332 -0.2834 -0.8761  1.0556
40608SOL    HW227661   0.948   6.210   5.437  1.2103  0.1327 -0.5762
40609SOL     OW27662   6.449   2.986   3.703 -0.1774  0.2295 -0.4484
40609SOL    HW127663   6.424   2.908   3.653  1.8098  0.7858 -2.4523
40609SOL    HW227664   6.433   2.962   3.794 -1.8478 -1.6407 -1.1562
40610SOL     OW27665   9.208   3.540   8.016  0.2752 -0.2447 -0.1302
40610SOL    HW127666   9.181   3.613   7.960  0.4067  0.9698  1.3143
40610SOL    HW227667   9.136   3.477   8.009 -2.1092  1.9616  1.9062
40611SOL     OW27668   8.020   3.789  10.211 -0.2133 -0.0145  0.0258
40611SOL    HW127669   8.098   3.738  10.190  0.2087 -0.3778  2.2139
40611SOL    HW227670   7.951   3.751  10.157  0.9900 -0.0232 -1.5640
40612SOL     OW27671   6.371   6.943   0.135  0.3329 -0.0144 -0.4141
40612SOL    HW127672   6.444   6.907   0.185  0.6753 -0.1222 -0.9735
40612SOL    HW227673   6.306   6.968   0.200  0.5912 -0.5488  0.0513
40613SOL     OW27674   1.546   5.116   1.807  0.1524 -0.4898  0.5310
40613SOL    HW127675   1.631   5.080   1.782  0.3675  0.8822 -0.8853
40613SOL    HW227676   1.566   5.203   1.842 -0.6941  0.2594 -0.7524
40614SOL     OW27677   7.504   5.201   5.315  0.6513  0.5576 -0.1520
40614SOL    HW127678   7.466   5.132   5.371  3.3993  0.0133  1.1854
40614SOL    HW227679   7.502   5.280   5.369 -0.9138  1.2062 -1.0700
40615SOL     OW27680  10.332   5.786   4.031  0.2961  0.1195  0.2196
40615SOL    HW127681  10.311   5.874   4.062  0.6792  0.3072 -0.0499
40615SOL    HW227682  10.425   5.775   4.050  0.4972  0.1699 -0.6965
40616SOL     OW27683   3.006   9.915   4.243  0.4458  1.0707  0.5597
40616SOL    HW127684   2.966   9.841   4.289  0.6851  2.1256  2.5745
40616SOL    HW227685   3.078   9.877   4.193  0.0140 -0.1540  0.8337
40617SOL     OW27686   2.977   3.006   7.049  0.4577 -0.4458 -0.1099
40617SOL    HW127687   2.957   2.921   7.087 -0.2553 -0.0866  0.3418
40617SOL    HW227688   2.984   3.065   7.124  0.0816  0.0669 -0.4710
40618SOL     OW27689   6.332   4.084   7.755  0.2252 -0.1278  0.0190
40618SOL    HW127690   6.420   4.101   7.788 -0.1230 -1.5348  1.7794
40618SOL    HW227691   6.286   4.167   7.766  1.0395  0.3476 -0.0412
40619SOL     OW27692   8.605   4.550   8.138  0.2963  0.2727  0.2042
40619SOL    HW127693   8.653   4.538   8.056 -0.3419  1.4988 -0.3848
40619SOL    HW227694   8.631   4.476   8.193 -0.3874 -1.4225 -1.6383
40620SOL     OW27695   7.359  10.879   5.540  0.4038 -0.5694 -0.2439
40620SOL    HW127696   7.447  10.898   5.505  0.1507  0.8703 -0.1690
40620SOL    HW227697   7.303  10.943   5.496 -0.4463 -0.8324  0.4536
40621SOL     OW27698   6.702   5.897   2.101  0.9683 -0.4764 -0.3846
40621SOL    HW127699   6.715   5.849   2.019 -1.3983  3.4030 -3.3598
40621SOL    HW227700   6.621   5.861   2.137  2.1491 -2.3712  0.5440
40622SOL     OW27701   5.597   6.554   0.372 -0.3911  0.4784 -0.1481
40622SOL    HW127702   5.688   6.570   0.397  0.0547  1.0372 -2.0139
40622SOL    HW227703   5.583   6.608   0.294 -1.1771 -2.3413 -2.1082
40623SOL     OW27704   4.732   0.777   7.314  0.0204 -0.3949 -0.7056
40623SOL    HW127705   4.742   0.836   7.389 -1.6005  0.5739 -1.1859
40623SOL    HW227706   4.817   0.779   7.270  0.3563  0.7014 -0.0516
40624SOL     OW27707  10.134   8.825   4.795  0.2538  0.6056  0.1574
40624SOL    HW127708  10.179   8.817   4.710 -0.6639 -0.3451 -0.2538
40624SOL    HW227709  10.050   8.865   4.773 -1.1514 -2.1369  0.1800
40625SOL     OW27710   2.046   3.254   3.115 -0.2438  0.4312 -0.1692
40625SOL    HW127711   2.088   3.293   3.038 -0.4956  2.8234  0.8349
40625SOL    HW227712   1.953   3.253   3.094 -0.1051 -1.6662 -0.9964
40626SOL     OW27713  10.164   1.189   5.396 -0.0164  0.1831 -0.3026
40626SOL    HW127714  10.235   1.245   5.365 -0.1800  2.1396  2.4668
40626SOL    HW227715  10.086   1.246   5.393 -0.6358 -0.6033  0.5559
40627SOL     OW27716   5.457   3.600   2.993  0.2991 -0.1351 -0.0442
40627SOL    HW127717   5.497   3.592   3.079  0.4297  1.1692  0.0453
40627SOL    HW227718   5.494   3.682   2.957  2.1003 -1.7920 -2.3302
40628SOL     OW27719   3.826   4.874   6.320  0.1488  0.3022 -0.4121
40628SOL    HW127720   3.862   4.786   6.315 -4.8319 -2.1687  0.7491
40628SOL    HW227721   3.847   4.904   6.409 -0.0247 -0.7089 -0.0229
40629SOL     OW27722   0.056   5.332   8.496 -0.5140  0.3588 -0.7257
40629SOL    HW127723   0.030   5.287   8.415  0.6014  0.0028 -0.9001
40629SOL    HW227724   0.050   5.265   8.564 -0.7582  0.4691 -0.6390
40630SOL     OW27725   2.985   1.481   2.279 -0.5584  0.1633  0.1217
40630SOL    HW127726   2.933   1.500   2.357 -2.9870 -1.8566 -0.8714
40630SOL    HW227727   2.962   1.552   2.218  0.0968  0.8517  0.6606
40631SOL     OW27728   8.972   9.063   8.484 -0.7169 -0.1180 -0.0649
40631SOL    HW127729   8.930   9.147   8.504 -2.5978 -1.3951  1.8427
40631SOL    HW227730   9.047   9.060   8.543 -0.8984  0.0733  0.1829
40632SOL     OW27731   3.595   7.248   2.989  0.0999  0.5442  0.8564
40632SOL    HW127732   3.637   7.257   3.075 -0.0734 -0.7747  1.1061
40632SOL    HW227733   3.667   7.236   2.927  0.2331  1.6468  0.7847
40633SOL     OW27734   9.132   7.117   2.701 -0.0158 -0.1519  0.1393
40633SOL    HW127735   9.109   7.027   2.680  0.6464 -0.4866  0.7860
40633SOL    HW227736   9.070   7.171   2.651  0.3378 -0.9302 -1.1754
40634SOL     OW27737   0.377  10.451   1.919  0.3163  0.3502  0.1006
40634SOL    HW127738   0.440  10.385   1.947  1.0063  0.2214 -1.6542
40634SOL    HW227739   0.401  10.529   1.970 -0.5523 -0.6896  2.2332
40635SOL     OW27740   7.908  10.540  10.075 -0.1662  0.2864  0.0679
40635SOL    HW127741   7.883  10.555   9.983 -0.2307 -0.4440 -0.0402
40635SOL    HW227742   7.874  10.617  10.121 -2.2464 -0.4436 -0.1425
40636SOL     OW27743   5.255   7.536   0.718  0.2786 -0.3589  0.0379
40636SOL    HW127744   5.177   7.514   0.769 -1.2865  0.8089 -1.7178
40636SOL    HW227745   5.275   7.457   0.669 -1.3687  0.0462 -1.3662
40637SOL     OW27746   4.608   3.624   9.828  0.0843 -0.0974  0.2524
40637SOL    HW127747   4.581   3.710   9.795 -1.5866 -1.2316 -1.5295
40637SOL    HW227748   4.546   3.606   9.899 -1.2565 -0.8847 -1.0672
40638SOL     OW27749   8.393   4.572   3.337  0.1654  0.2440 -0.5077
40638SOL    HW127750   8.480   4.559   3.299  0.3621 -0.6815  0.1925
40638SOL    HW227751   8.368   4.485   3.368 -1.0090  0.5082 -0.6862
40639SOL     OW27752   9.734   1.474   1.901 -0.3371  0.5668 -0.1822
40639SOL    HW127753   9.654   1.422   1.889 -0.9789  1.0849  1.5572
40639SOL    HW227754   9.719   1.554   1.851 -1.0980  0.8326  0.4565
40640SOL     OW27755   1.237  10.250   0.350 -0.1080 -0.1529 -0.0744
40640SOL    HW127756   1.169  10.316   0.337 -0.7761 -1.1305 -1.8223
40640SOL    HW227757   1.218  10.212   0.436 -1.6154 -0.2005 -0.4035
40641SOL     OW27758   0.301   2.604   6.727  0.0253 -0.3113  0.1603
40641SOL    HW127759   0.222   2.550   6.718  0.3101 -0.8190  0.7187
40641SOL    HW227760   0.279   2.684   6.679 -0.7250 -0.5587  0.0654
40642SOL     OW27761   7.020   6.167   3.935  0.8970 -0.0068 -0.1777
40642SOL    HW127762   7.089   6.112   3.897  1.2850 -0.1768  0.7594
40642SOL    HW227763   7.066   6.235   3.983  0.4289 -0.3145  0.7414
40643SOL     OW27764   5.569   8.950   2.851 -0.1700  0.5053 -0.0096
40643SOL    HW127765   5.574   9.045   2.842  1.1662  0.4288 -0.2012
40643SOL    HW227766   5.655   8.918   2.825 -0.6513 -0.7812 -0.1201
40644SOL     OW27767   3.608   5.329   9.645  0.4760  0.0213 -0.0484
40644SOL    HW127768   3.609   5.236   9.625  1.9833  0.6147 -3.6493
40644SOL    HW227769   3.687   5.345   9.695  0.7910 -0.5165 -0.3662
40645SOL     OW27770  10.362   4.859   8.847 -0.1651  0.0693  0.0661
40645SOL    HW127771  10.328   4.883   8.934  1.1375 -0.6925  0.8301
40645SOL    HW227772  10.333   4.768   8.835  0.0616  0.0123 -0.0600
40646SOL     OW27773   7.454   3.886   3.012 -1.0396  0.0252  0.0086
40646SOL    HW127774   7.402   3.923   2.941 -0.6249  0.6944  0.0458
40646SOL    HW227775   7.389   3.858   3.077 -1.5218 -2.0067 -1.2483
40647SOL     OW27776   2.473   2.507   0.181  0.3017  0.8335  0.3862
40647SOL    HW127777   2.400   2.566   0.163 -0.1792  0.3765  0.8380
40647SOL    HW227778   2.457   2.430   0.126 -0.1906  0.2267  1.3608
40648SOL     OW27779   0.862   5.667   0.181 -0.3685  0.2841  0.6684
40648SOL    HW127780   0.815   5.642   0.261 -2.0440 -0.6113 -0.5412
40648SOL    HW227781   0.794   5.681   0.116  0.9456  1.2252 -0.5695
40649SOL     OW27782   9.905   7.008   1.826 -0.2594  0.1036  0.7768
40649SOL    HW127783   9.964   6.936   1.847 -0.7734 -0.7607 -0.6149
40649SOL    HW227784   9.947   7.085   1.865  2.3155 -0.2888 -0.8930
40650SOL     OW27785   2.994   8.199   1.449  0.0978  0.7305  0.0239
40650SOL    HW127786   2.904   8.225   1.432 -0.9712 -2.1558  0.7539
40650SOL    HW227787   3.019   8.245   1.529 -1.1169  0.7253  0.4105
40651SOL     OW27788   6.087   7.987   2.944  0.0600  0.3594  0.4537
40651SOL    HW127789   6.133   8.071   2.938  0.8992  0.1316  2.7328
40651SOL    HW227790   6.153   7.923   2.917 -0.0836  0.3022  0.2375
40652SOL     OW27791   6.609   0.288   4.080  0.1681 -0.0203 -0.4822
40652SOL    HW127792   6.543   0.349   4.048 -0.7181 -1.0397 -0.6392
40652SOL    HW227793   6.566   0.203   4.080  0.6538 -0.3505  1.7855
40653SOL     OW27794   0.649  10.127   5.434  0.0772  0.1743 -0.6211
40653SOL    HW127795   0.691  10.199   5.480 -0.6491  1.0274 -1.2529
40653SOL    HW227796   0.714  10.058   5.433  2.0884  1.9220 -2.7961
40654SOL     OW27797  10.013   3.274   6.327 -0.3541 -0.5424 -0.0116
40654SOL    HW127798   9.943   3.214   6.301 -0.5778 -0.4506  0.3653
40654SOL    HW227799  10.016   3.339   6.256  0.0275 -1.1086 -0.5159
40655SOL     OW27800   3.823   6.925   4.772  0.4566 -0.0725  0.3433
40655SOL    HW127801   3.824   6.905   4.866 -0.1806  0.8059  0.5463
40655SOL    HW227802   3.838   6.840   4.729  2.6980 -0.2160  1.2611
40656SOL     OW27803   9.784   4.466   3.861  0.0435  0.1728  0.3457
40656SOL    HW127804   9.801   4.378   3.892 -0.8369  0.2264  1.0294
40656SOL    HW227805   9.708   4.496   3.912 -0.4453  0.8666 -0.7338
40657SOL     OW27806   0.983   8.507   5.896  0.0254  0.5283 -0.1076
40657SOL    HW127807   0.996   8.598   5.873  1.4101  0.5184  0.5663
40657SOL    HW227808   1.041   8.492   5.971  0.6659 -1.1954 -0.9038
40658SOL     OW27809   2.763   3.953  10.679  0.2454  0.0707 -0.3573
40658SOL    HW127810   2.768   3.892  10.752 -0.2168 -1.2906 -1.4232
40658SOL    HW227811   2.705   3.910  10.616  0.2727  1.4144 -1.3427
40659SOL     OW27812   2.281   2.730   7.469 -0.1651 -0.4857  0.4792
40659SOL    HW127813   2.318   2.758   7.552  1.3310 -0.7154 -0.0732
40659SOL    HW227814   2.302   2.637   7.463 -3.2399 -1.3626  1.3330
40660SOL     OW27815   7.120   5.499   6.281  0.0039  0.2038  0.1053
40660SOL    HW127816   7.049   5.448   6.321  0.1347  0.5197  0.7488
40660SOL    HW227817   7.171   5.434   6.232 -1.8868  0.2760 -2.1203
40661SOL     OW27818   7.392   3.718  10.616 -0.0575 -0.3070 -0.6589
40661SOL    HW127819   7.487   3.732  10.608 -0.0651 -0.3112 -0.7687
40661SOL    HW227820   7.353   3.797  10.578 -0.0982  0.3119  0.6180
40662SOL     OW27821   4.502  10.876   7.249 -0.6892 -0.3247 -0.4730
40662SOL    HW127822   4.494  10.784   7.222  0.9799 -0.4518 -0.6247
40662SOL    HW227823   4.482  10.875   7.343  0.6298 -1.1031 -0.1649
40663SOL     OW27824   0.972   2.568   6.563 -0.0624  0.0890 -0.0655
40663SOL    HW127825   0.987   2.621   6.641  1.3267 -1.0213  0.4609
40663SOL    HW227826   0.956   2.632   6.494  1.0403  1.1943  0.6518
40664SOL     OW27827   1.250   6.752   0.471 -0.4030 -0.5257 -1.1555
40664SOL    HW127828   1.240   6.657   0.459  0.1048 -0.4949 -1.8736
40664SOL    HW227829   1.309   6.760   0.546 -0.8468 -0.7696 -0.7761
40665SOL     OW27830   1.085   2.282   3.570 -0.5588  0.3655  0.6435
40665SOL    HW127831   1.115   2.244   3.488 -1.2775  1.2353 -0.0422
40665SOL    HW227832   1.054   2.369   3.546  0.0358  0.9745  1.9901
40666SOL     OW27833   5.450   4.286   5.429 -0.5923  0.4922  0.2041
40666SOL    HW127834   5.528   4.235   5.451 -1.6567 -1.1505  0.3327
40666SOL    HW227835   5.476   4.377   5.443  1.0885 -0.0565  0.8701
40667SOL     OW27836  10.030   0.922   7.208 -0.0752 -0.8301  0.8608
40667SOL    HW127837  10.073   0.982   7.269 -0.3779 -0.0102  0.2808
40667SOL    HW227838   9.942   0.957   7.197 -0.4301 -1.6781  0.9047
40668SOL     OW27839  10.870   8.043   9.317  0.3212 -0.6523 -0.0121
40668SOL    HW127840  10.857   8.126   9.271 -0.0316  0.3081  1.7419
40668SOL    HW227841  10.960   8.048   9.349  0.0628 -0.5954  0.7314
40669SOL     OW27842   4.713  10.560   7.167 -0.0763 -0.3683  0.1237
40669SOL    HW127843   4.677  10.479   7.132 -1.4019  0.4781 -0.5663
40669SOL    HW227844   4.636  10.616   7.181  0.8223  0.8525  0.3542
40670SOL     OW27845   2.040   4.380   1.139  0.4366 -0.1618  0.1324
40670SOL    HW127846   2.077   4.391   1.051  0.4436 -1.3143 -0.0150
40670SOL    HW227847   2.045   4.286   1.156 -1.1158 -0.1735  0.6765
40671SOL     OW27848   5.150   7.883   2.454  0.3420  0.6640 -0.3535
40671SOL    HW127849   5.087   7.814   2.475  0.7422  1.1246  2.8083
40671SOL    HW227850   5.100   7.946   2.402 -1.6498  0.6305  1.4043
40672SOL     OW27851   0.935   8.570   9.744 -0.4733  0.1753  0.0657
40672SOL    HW127852   0.963   8.659   9.723 -0.1545  0.0990  0.1635
40672SOL    HW227853   0.972   8.552   9.830 -0.9128  0.1081  0.2467
40673SOL     OW27854   1.696   4.534   3.359 -0.9085  0.1786  0.2517
40673SOL    HW127855   1.731   4.459   3.311  0.9922  0.3530  1.2263
40673SOL    HW227856   1.602   4.518   3.365 -1.1808 -0.0925 -2.9746
40674SOL     OW27857   6.257   1.433  10.621 -0.2785  0.2641 -0.0930
40674SOL    HW127858   6.287   1.420  10.711 -0.9928 -2.9364 -0.1914
40674SOL    HW227859   6.271   1.348  10.579 -1.1264  1.3033 -2.6652
40675SOL     OW27860   1.490   4.895   9.650 -0.6578 -0.2572 -0.3668
40675SOL    HW127861   1.418   4.850   9.607 -1.3704  1.4165 -1.0192
40675SOL    HW227862   1.566   4.877   9.594 -0.3201 -2.6701  0.7398
40676SOL     OW27863  10.492   5.205   3.695 -0.7334  0.0998  0.2863
40676SOL    HW127864  10.543   5.211   3.614 -3.5153  1.0676 -1.5372
40676SOL    HW227865  10.469   5.113   3.702 -0.2758 -0.0295  0.1267
40677SOL     OW27866   5.331   1.785   6.734 -0.0734 -0.1778  0.1264
40677SOL    HW127867   5.241   1.757   6.746 -0.0591  0.2580  1.3207
40677SOL    HW227868   5.362   1.735   6.658 -0.9593 -1.1451  0.3922
40678SOL     OW27869   7.947   5.968   3.974  0.0450 -0.0307  0.2011
40678SOL    HW127870   7.941   5.874   3.953 -2.7555 -0.1207  1.0317
40678SOL    HW227871   7.999   6.004   3.902  1.7253 -2.2667  0.1685
40679SOL     OW27872  10.475   2.330  10.016 -0.0996 -0.7721 -0.1763
40679SOL    HW127873  10.536   2.258  10.034 -0.2997 -1.1360 -0.9412
40679SOL    HW227874  10.472   2.379  10.098 -4.2093 -4.6555  2.4546
40680SOL     OW27875   6.908   6.505   2.877  0.2098  0.1470  0.2696
40680SOL    HW127876   6.931   6.422   2.834 -0.7740 -0.9396  1.7693
40680SOL    HW227877   6.976   6.517   2.943 -0.2546 -0.0351  0.7835
40681SOL     OW27878   6.054   0.811   5.882 -0.1782  0.7043  0.2587
40681SOL    HW127879   6.129   0.836   5.828 -1.3973  2.0838 -0.8670
40681SOL    HW227880   6.000   0.758   5.824 -0.5117  0.4694  0.7794
40682SOL     OW27881   9.670   1.628   3.925 -0.1443 -0.0564  0.2555
40682SOL    HW127882   9.647   1.671   3.843  2.7048  1.5684  0.1732
40682SOL    HW227883   9.656   1.696   3.992  2.2201  0.3687  0.4107
40683SOL     OW27884   8.493   9.814  10.140  0.2110  0.0881 -0.0438
40683SOL    HW127885   8.562   9.808  10.073 -0.0663 -3.0927 -0.1860
40683SOL    HW227886   8.523   9.883  10.199  2.2268  0.5457 -1.4834
40684SOL     OW27887   1.247   2.691   6.352 -0.5214  0.4776 -0.0287
40684SOL    HW127888   1.266   2.600   6.373  0.2819  1.0426  1.9410
40684SOL    HW227889   1.158   2.705   6.386 -0.7803  0.3506 -0.6423
40685SOL     OW27890   1.944   2.053  10.245 -0.2844 -0.1515  0.1031
40685SOL    HW127891   1.926   2.036  10.153  1.2083  0.1531 -0.2602
40685SOL    HW227892   1.913   1.974  10.290 -0.4276 -0.5776 -0.7147
40686SOL     OW27893   1.331   6.533   0.786 -0.6866  0.1169 -0.2333
40686SOL    HW127894   1.248   6.572   0.814 -2.0908 -1.1406 -2.3591
40686SOL    HW227895   1.384   6.607   0.756 -1.8835  0.7734 -0.7928
40687SOL     OW27896   2.688   0.574   0.597  0.9744 -0.2139 -1.0976
40687SOL    HW127897   2.776   0.610   0.583  0.8780  0.2262 -0.6225
40687SOL    HW227898   2.703   0.484   0.626  1.2718 -0.1198 -0.9527
40688SOL     OW27899   7.124   3.556   2.129  0.0753  0.0890  0.2791
40688SOL    HW127900   7.123   3.641   2.174  1.3328 -0.0318  0.5574
40688SOL    HW227901   7.140   3.577   2.037 -1.6202  0.2733 -0.0058
40689SOL     OW27902   8.322   4.265   8.996  0.0556 -0.1344 -0.3335
40689SOL    HW127903   8.274   4.259   8.913  0.3922 -1.3443 -0.4612
40689SOL    HW227904   8.319   4.358   9.019 -1.6242 -0.0633 -0.7490
40690SOL     OW27905   6.354   2.153   9.445  0.3174  0.6609  0.2389
40690SOL    HW127906   6.366   2.156   9.350  0.9045 -0.7732  0.2283
40690SOL    HW227907   6.377   2.063   9.468 -3.3110 -0.1599  1.2664
40691SOL     OW27908   4.316   0.482   1.992 -0.1131 -0.6879 -0.0906
40691SOL    HW127909   4.280   0.437   1.916  1.7103 -0.5664 -1.0836
40691SOL    HW227910   4.379   0.544   1.956 -1.6506  1.8746  1.3188
40692SOL     OW27911   6.142   8.530   9.133 -0.0275  0.3949  0.3562
40692SOL    HW127912   6.105   8.579   9.206 -1.2110 -2.1698  1.6015
40692SOL    HW227913   6.112   8.577   9.055 -1.1418  1.5990  1.4625
40693SOL     OW27914   0.059   9.633   3.761  0.1898 -0.0378 -0.2326
40693SOL    HW127915  -0.012   9.610   3.821 -1.3161  2.3439 -0.9400
40693SOL    HW227916   0.038   9.584   3.681  1.0230 -1.5794  0.4525
40694SOL     OW27917   5.726   6.693  10.377  0.1513 -0.1853 -0.3559
40694SOL    HW127918   5.802   6.750  10.378 -0.3068  0.4688 -1.2478
40694SOL    HW227919   5.717   6.667  10.285 -0.0207 -1.1863 -0.0704
40695SOL     OW27920   9.176   8.712   5.965  0.1903 -0.1087 -0.3939
40695SOL    HW127921   9.271   8.704   5.964  0.2341  0.2827  0.4965
40695SOL    HW227922   9.149   8.677   5.880  1.0415 -1.2826 -0.2152
40696SOL     OW27923   5.891   8.819   5.820  0.1538  0.3557  0.2357
40696SOL    HW127924   5.940   8.889   5.777  1.1413 -0.4350  0.0432
40696SOL    HW227925   5.955   8.750   5.835 -0.6543 -0.2499  1.0325
40697SOL     OW27926   3.076   7.721   3.455 -1.0695 -0.2571  0.7853
40697SOL    HW127927   3.127   7.649   3.418  0.4728  0.6256  1.0848
40697SOL    HW227928   2.985   7.698   3.437 -0.5085 -0.7304 -2.0004
40698SOL     OW27929   5.207   3.456   0.505 -0.2815  0.2337 -0.0672
40698SOL    HW127930   5.229   3.525   0.568 -0.5383 -0.0031  0.2887
40698SOL    HW227931   5.263   3.383   0.531  1.9114  1.0897 -2.0243
40699SOL     OW27932   9.372   5.941   2.409 -0.1548  0.2494  0.3200
40699SOL    HW127933   9.447   5.995   2.435 -1.0535  1.2150  1.0104
40699SOL    HW227934   9.340   5.904   2.491 -0.1343 -0.5752 -0.0350
40700SOL     OW27935   5.486   7.799   1.069  0.0961  0.3419  0.2586
40700SOL    HW127936   5.516   7.799   1.160 -1.0928  0.7311  0.6689
40700SOL    HW227937   5.430   7.876   1.062 -1.4851 -0.7993 -0.2317
40701SOL     OW27938   2.643   0.172   6.725 -0.0875 -0.4920 -0.2228
40701SOL    HW127939   2.585   0.100   6.749 -1.7245  0.4055 -1.2553
40701SOL    HW227940   2.615   0.197   6.637  0.6107  1.2057 -0.0081
40702SOL     OW27941   0.049   3.771   6.866 -0.1988  1.0684  0.5079
40702SOL    HW127942  -0.042   3.754   6.890 -0.0226 -1.3573 -0.3444
40702SOL    HW227943   0.044   3.810   6.779 -0.4047 -2.2892 -1.1264
40703SOL     OW27944   2.926   6.930   3.245 -0.0024 -0.2741  0.5504
40703SOL    HW127945   2.999   6.984   3.215 -1.5928  0.6137 -2.0757
40703SOL    HW227946   2.889   6.979   3.318  0.1818  0.8901 -0.1054
40704SOL     OW27947   6.873  10.067   7.972 -0.2971 -0.4053  0.2868
40704SOL    HW127948   6.789  10.076   7.927 -0.3360 -2.3118 -0.0977
40704SOL    HW227949   6.850  10.054   8.064 -0.3806 -0.1588  0.3012
40705SOL     OW27950   2.721   7.702   6.160  0.0868  0.4620 -0.0571
40705SOL    HW127951   2.739   7.725   6.251 -2.0367 -0.5957  0.7027
40705SOL    HW227952   2.645   7.643   6.164 -0.3940  0.7772 -2.5443
40706SOL     OW27953   9.898  10.081   1.397  0.1217 -0.4081  0.6265
40706SOL    HW127954   9.960  10.116   1.334 -0.9244  0.4553  0.0453
40706SOL    HW227955   9.897  10.144   1.469 -0.2125 -0.3234  0.5501
40707SOL     OW27956   1.437   5.891   1.199  0.2160 -0.1480 -0.1037
40707SOL    HW127957   1.403   5.898   1.288  2.1260  0.9616  0.5941
40707SOL    HW227958   1.411   5.973   1.156 -1.3523 -0.9925 -0.8659
40708SOL     OW27959   2.658  10.808   8.381  0.0552 -0.0469 -0.5316
40708SOL    HW127960   2.698  10.892   8.402  0.0988  0.2241 -1.6537
40708SOL    HW227961   2.582  10.802   8.440 -0.2046  0.9752 -0.7395
40709SOL     OW27962   4.883   8.502   5.647  0.1356 -0.2749  0.8925
40709SOL    HW127963   4.965   8.537   5.614 -1.9316  2.2795 -2.1666
40709SOL    HW227964   4.877   8.414   5.609  0.5735  0.3216 -0.6146
40710SOL     OW27965   4.166   8.457   8.191 -0.6939 -0.1168 -0.2489
40710SOL    HW127966   4.218   8.538   8.194  0.6939 -0.9592 -0.5786
40710SOL    HW227967   4.186   8.419   8.105 -1.8118 -0.5246 -0.3465
40711SOL     OW27968   0.544   3.108   8.431 -0.3513  0.1217  0.0750
40711SOL    HW127969   0.573   3.018   8.444 -0.0933 -0.1104 -1.8426
40711SOL    HW227970   0.619   3.162   8.454  0.1844 -0.2678 -0.7296
40712SOL     OW27971   3.460   7.305   8.092 -0.1203 -0.1934 -0.1835
40712SOL    HW127972   3.482   7.229   8.146 -1.8363 -0.0892  0.7318
40712SOL    HW227973   3.430   7.267   8.009 -0.9397 -0.5415  0.2597
40713SOL     OW27974   0.434   4.507   9.848  0.2822  0.2308  0.0649
40713SOL    HW127975   0.487   4.509   9.928  1.9331  0.6848 -0.9718
40713SOL    HW227976   0.469   4.433   9.798 -0.2603  0.3727 -0.5374
40714SOL     OW27977   5.534   2.326   4.843  0.4016  0.9578 -1.0934
40714SOL    HW127978   5.613   2.380   4.849  1.3524 -0.5737  1.6420
40714SOL    HW227979   5.469   2.373   4.895  0.4780  0.6951 -0.7574
40715SOL     OW27980   7.278   1.851   6.077  0.2400  0.0993 -0.8136
40715SOL    HW127981   7.366   1.839   6.039 -0.4309 -0.7371 -2.1685
40715SOL    HW227982   7.287   1.822   6.167  1.4204  0.2484 -0.8611
40716SOL     OW27983   7.465   4.457   6.149  0.1538 -0.3197 -0.1700
40716SOL    HW127984   7.495   4.415   6.068 -0.5354 -4.6455  1.5166
40716SOL    HW227985   7.371   4.440   6.151  0.2257 -0.7230  1.6635
40717SOL     OW27986   6.218   1.643   8.384 -0.4945  0.4239  0.1436
40717SOL    HW127987   6.135   1.623   8.427 -1.2160 -2.3772 -2.1933
40717SOL    HW227988   6.283   1.638   8.454 -1.9469 -0.6641  1.4892
40718SOL     OW27989   9.596   7.195   5.871  0.2515 -0.5346 -0.3747
40718SOL    HW127990   9.553   7.111   5.888 -0.5547 -0.4506 -1.8451
40718SOL    HW227991   9.660   7.175   5.802 -1.6927  0.4679 -2.6036
40719SOL     OW27992   1.191   4.716   2.263  0.3917 -0.0079  0.4331
40719SOL    HW127993   1.174   4.779   2.332  0.5495  1.2457 -0.6448
40719SOL    HW227994   1.110   4.665   2.256  0.0562  0.4534  0.9214
40720SOL     OW27995  10.802   0.428   8.184  0.0349 -0.4448 -0.5734
40720SOL    HW127996  10.752   0.440   8.265 -0.4568 -3.1599 -0.3740
40720SOL    HW227997  10.795   0.512   8.140 -0.6300  0.7827  1.6717
40721SOL     OW27998   2.742   8.881   8.217  0.2534 -0.0613  0.3939
40721SOL    HW127999   2.656   8.853   8.248  0.3968 -1.0849 -0.1035
40721SOL    HW228000   2.801   8.810   8.242  1.4307  1.6146  2.7937
40722SOL     OW28001   5.615   6.352   3.852  0.0577  0.2211 -0.8163
40722SOL    HW128002   5.645   6.268   3.885 -0.4438  0.8420  1.3499
40722SOL    HW228003   5.696   6.396   3.823  0.4903 -0.4526 -0.6518
40723SOL     OW28004   0.475   0.019   2.631 -0.2967  0.4783 -0.0417
40723SOL    HW128005   0.483  -0.049   2.564 -0.8636  0.4859 -0.1272
40723SOL    HW228006   0.482  -0.028   2.714  1.4714  0.6077 -0.0926
40724SOL     OW28007   7.464   8.227   4.822 -0.0019 -0.5399  0.0623
40724SOL    HW128008   7.554   8.256   4.839  0.2294  1.7711 -3.8288
40724SOL    HW228009   7.475   8.143   4.778 -0.0265 -1.6307  2.0221
40725SOL     OW28010   6.182   4.661   1.417  0.0793 -0.3551 -0.3090
40725SOL    HW128011   6.125   4.716   1.362 -1.2682 -0.7961  0.5829
40725SOL    HW228012   6.136   4.656   1.501  0.8446 -1.7430  0.0520
40726SOL     OW28013   5.920   2.797   5.375  0.4253  0.0847 -0.0221
40726SOL    HW128014   5.853   2.745   5.418 -0.1553  1.0673  0.2724
40726SOL    HW228015   6.001   2.773   5.420  0.4113 -1.5721 -0.7913
40727SOL     OW28016   3.828   4.463   6.211  0.0291  0.4382  0.3543
40727SOL    HW128017   3.844   4.521   6.285 -0.0871 -0.0934  0.8005
40727SOL    HW228018   3.740   4.487   6.181 -0.2466  0.1153  0.8896
40728SOL     OW28019   2.262   1.401   2.400  0.2696 -0.5676  0.0741
40728SOL    HW128020   2.335   1.443   2.354  1.3157 -2.5543 -0.1878
40728SOL    HW228021   2.296   1.384   2.488 -0.4941  0.0166  0.4934
40729SOL     OW28022   1.845  10.098   9.678  0.0068  0.3398  0.1002
40729SOL    HW128023   1.868  10.071   9.589  0.8240 -0.3145  0.4926
40729SOL    HW228024   1.925  10.136   9.713 -0.1133 -0.0047  0.7714
40730SOL     OW28025   2.586   5.158   8.579 -0.0992  0.5059 -0.1104
40730SOL    HW128026   2.518   5.169   8.513  0.0097 -0.1955 -0.3495
40730SOL    HW228027   2.625   5.073   8.559 -0.1103  0.2535  0.8907
40731SOL     OW28028   3.521   0.970   8.496  0.6241 -0.3403  0.6687
40731SOL    HW128029   3.476   1.032   8.439  0.2454 -1.6450 -0.5017
40731SOL    HW228030   3.601   0.948   8.448  1.5312  0.3845  1.7851
40732SOL     OW28031   6.682   2.359   7.626  0.5575  0.0342  0.4787
40732SOL    HW128032   6.620   2.430   7.610  1.1547  0.7381  1.1783
40732SOL    HW228033   6.768   2.402   7.630  0.6732 -0.2001  3.8755
40733SOL     OW28034   1.766   6.656   8.284 -0.6034 -0.4136  0.0006
40733SOL    HW128035   1.748   6.670   8.191 -2.0068 -0.7811  0.1936
40733SOL    HW228036   1.724   6.573   8.304  1.2974 -1.2939  0.5590
40734SOL     OW28037   7.278   5.889   8.105  0.1273 -0.0564  0.2710
40734SOL    HW128038   7.285   5.942   8.025 -0.1348  0.5110  0.6154
40734SOL    HW228039   7.188   5.859   8.106 -0.0906  0.5879  0.7486
40735SOL     OW28040   9.057   4.964   0.512 -0.0223 -0.7973  0.2407
40735SOL    HW128041   8.999   4.923   0.577 -0.9489 -1.1739 -0.7748
40735SOL    HW228042   9.000   4.978   0.436  0.6720  0.9615  0.0000
40736SOL     OW28043   8.957   3.461   3.431 -0.1216 -0.7732 -0.5290
40736SOL    HW128044   8.966   3.527   3.500 -0.4136 -0.4433 -0.8049
40736SOL    HW228045   9.045   3.451   3.395 -0.4464  1.1070 -1.9923
40737SOL     OW28046   7.455   0.120   9.417  0.1977  0.2664 -0.1558
40737SOL    HW128047   7.499   0.083   9.340 -0.9143  1.1280 -1.2511
40737SOL    HW228048   7.446   0.047   9.477 -2.1880 -1.4213 -2.3631
40738SOL     OW28049   9.449   6.890   9.646 -0.8318  0.0557 -0.4152
40738SOL    HW128050   9.393   6.854   9.714 -1.3770 -1.0399 -1.4182
40738SOL    HW228051   9.419   6.981   9.635 -0.3473  0.4393  1.1822
40739SOL     OW28052   0.913   2.534   1.719 -0.4852  0.3498  0.2773
40739SOL    HW128053   0.869   2.578   1.791 -2.2573  0.3225 -0.7110
40739SOL    HW228054   0.942   2.451   1.756 -1.0313  0.4908  1.0522
40740SOL     OW28055   2.103   7.736   5.690 -0.2059  0.0823  0.1195
40740SOL    HW128056   2.016   7.697   5.697 -0.0110 -0.0549  2.2750
40740SOL    HW228057   2.099   7.815   5.744  1.2531 -0.4352  1.0526
40741SOL     OW28058  10.545   3.361   4.017  0.3352 -0.1017  0.2471
40741SOL    HW128059  10.631   3.376   4.057 -0.1780 -1.2866  1.9067
40741SOL    HW228060  10.565   3.320   3.933  1.3969 -1.6125  1.1841
40742SOL     OW28061   8.316   3.435  10.820 -0.0038  0.0512 -0.1690
40742SOL    HW128062   8.406   3.440  10.789 -0.5173 -0.5175 -1.9029
40742SOL    HW228063   8.282   3.523  10.809 -0.1328 -0.1094 -1.1401
40743SOL     OW28064   9.502   5.700   4.099 -0.0498  0.1574 -0.4435
40743SOL    HW128065   9.550   5.751   4.165 -0.5185  0.3364 -0.2391
40743SOL    HW228066   9.533   5.610   4.111  1.1098  0.4504 -1.0954
40744SOL     OW28067   7.974   5.007   4.464  0.8510  0.4521  0.8381
40744SOL    HW128068   7.903   5.068   4.481 -0.5762 -0.9396  0.1171
40744SOL    HW228069   7.932   4.930   4.426  2.6574 -0.7194  1.0477
40745SOL     OW28070   9.192   6.959   8.492 -0.2715  0.0055 -0.5467
40745SOL    HW128071   9.249   6.893   8.452  0.0786 -0.8970  1.3071
40745SOL    HW228072   9.195   7.033   8.432  0.6856 -1.0383 -1.8538
40746SOL     OW28073   1.661   7.714   6.870  0.1634  0.0577  0.5881
40746SOL    HW128074   1.605   7.779   6.913 -0.5240  0.9873 -1.5780
40746SOL    HW228075   1.749   7.751   6.875  0.1737 -0.0742  1.5638
40747SOL     OW28076   4.215   7.473   9.019  0.4271  0.0744  0.6960
40747SOL    HW128077   4.197   7.421   9.098 -1.5194 -1.4997 -0.6808
40747SOL    HW228078   4.204   7.411   8.947  4.0327  0.9882 -0.8151
40748SOL     OW28079   5.215   5.538   9.229  0.0451 -0.4420 -0.1861
40748SOL    HW128080   5.229   5.616   9.176  2.1433 -0.0773  0.7878
40748SOL    HW228081   5.141   5.559   9.286  0.1420  0.5577 -0.4239
40749SOL     OW28082   0.380   1.930   9.366  0.4792 -0.6138 -0.3893
40749SOL    HW128083   0.409   1.844   9.396  1.4564 -0.6885 -1.4510
40749SOL    HW228084   0.331   1.966   9.439 -1.1994 -2.6469 -0.4148
40750SOL     OW28085   1.843   3.445   4.736  0.2516 -0.8190  0.2215
40750SOL    HW128086   1.844   3.519   4.797  0.6637 -1.1596  0.6380
40750SOL    HW228087   1.878   3.481   4.654 -1.9315  0.0959 -0.3840
40751SOL     OW28088   6.309   9.417  10.484 -0.3995  0.0504 -0.1628
40751SOL    HW128089   6.364   9.493  10.502 -0.2055  0.5472 -2.5411
40751SOL    HW228090   6.366   9.356  10.437 -1.4480  0.0026 -1.4661
40752SOL     OW28091   9.247   7.568   8.449  0.0800 -0.3402 -0.1886
40752SOL    HW128092   9.209   7.627   8.383 -0.1298 -1.2357 -0.8908
40752SOL    HW228093   9.173   7.513   8.475  0.3605 -0.5284  0.1986
40753SOL     OW28094   8.398   4.287   4.314 -1.0089 -0.2345  0.0234
40753SOL    HW128095   8.351   4.258   4.236 -0.8693 -0.4352  0.0133
40753SOL    HW228096   8.455   4.358   4.282  2.4309 -3.1752 -1.0607
40754SOL     OW28097   4.567   9.099   2.907 -0.1749 -0.7993  0.4587
40754SOL    HW128098   4.528   9.012   2.893  0.5590 -1.0947  0.2028
40754SOL    HW228099   4.659   9.081   2.924  0.2385 -0.0098 -0.7964
40755SOL     OW28100   3.446   5.518   0.685  0.5481 -0.1707  0.0286
40755SOL    HW128101   3.392   5.498   0.609  1.2758 -0.2681 -0.4696
40755SOL    HW228102   3.462   5.612   0.680  1.1568 -0.2882 -0.3207
40756SOL     OW28103   4.511  10.010   7.654 -0.5864  0.0711  0.3199
40756SOL    HW128104   4.451  10.067   7.702 -0.0649  0.5059  0.4688
40756SOL    HW228105   4.484  10.017   7.563 -0.6634  0.3912  0.3659
40757SOL     OW28106   3.984   5.852   7.588 -0.4755  0.2196 -0.1956
40757SOL    HW128107   3.986   5.858   7.684  0.8209 -0.6658 -0.1492
40757SOL    HW228108   4.057   5.906   7.559 -1.8899  1.9089 -0.8211
40758SOL     OW28109   1.888   9.899   1.426 -0.4900  0.2248  0.2469
40758SOL    HW128110   1.904   9.812   1.462  0.4256  0.3057  0.0493
40758SOL    HW228111   1.893   9.886   1.331 -0.2422  0.5155  0.2220
40759SOL     OW28112   9.850   0.979   4.496 -0.0970 -0.7818 -0.0109
40759SOL    HW128113   9.890   0.977   4.409 -1.0413 -0.3801 -0.4704
40759SOL    HW228114   9.924   0.980   4.557  0.5693 -1.3790 -0.7993
40760SOL     OW28115   8.201   3.949   0.842 -0.0084  0.3630 -0.1244
40760SOL    HW128116   8.288   3.927   0.809 -0.0230  0.8169 -0.4781
40760SOL    HW228117   8.166   3.866   0.874 -0.0388 -0.1217 -1.3613
40761SOL     OW28118   3.846   9.038   2.530 -1.4252 -0.3521 -0.4284
40761SOL    HW128119   3.862   9.042   2.436  1.2372  1.2528 -0.0007
40761SOL    HW228120   3.897   8.963   2.560 -1.1480 -0.0224 -0.0741
40762SOL     OW28121   7.220   4.289   3.508  0.0761 -0.2239  0.0245
40762SOL    HW128122   7.154   4.249   3.565 -1.2752 -1.2427 -2.1057
40762SOL    HW228123   7.197   4.382   3.506  1.4099  0.2581  2.6529
40763SOL     OW28124   8.412   0.575   5.870 -0.0302  0.2313 -0.3194
40763SOL    HW128125   8.461   0.493   5.872  0.1602  0.3434 -0.2828
40763SOL    HW228126   8.320   0.549   5.863  0.0763  0.0276 -1.1074
40764SOL     OW28127   5.357   6.886   0.737  0.0602  1.0320 -0.2118
40764SOL    HW128128   5.399   6.802   0.719 -1.4957  0.2460 -0.3278
40764SOL    HW228129   5.362   6.895   0.832 -0.6014  0.3410 -0.1045
40765SOL     OW28130   5.830   1.647   5.275 -0.5045 -0.3194 -0.2847
40765SOL    HW128131   5.849   1.657   5.182 -0.6721  0.7192 -0.2139
40765SOL    HW228132   5.868   1.725   5.316 -0.3806 -0.7940  0.5256
40766SOL     OW28133   2.142   8.190   1.916  0.3502 -0.2776 -0.2084
40766SOL    HW128134   2.172   8.227   1.999  0.5049 -0.8687  0.0005
40766SOL    HW228135   2.181   8.103   1.912 -0.5597 -0.6894 -0.3744
40767SOL     OW28136   7.040   6.356  10.395 -0.0043 -0.6190  0.0686
40767SOL    HW128137   7.103   6.427  10.379 -1.0318 -0.0633 -1.7619
40767SOL    HW228138   7.088   6.276  10.373 -0.2702 -0.1108 -2.6961
40768SOL     OW28139   8.684   3.584   9.324 -0.0078 -0.1261  0.2148
40768SOL    HW128140   8.690   3.664   9.376 -0.4848  0.1835 -0.2052
40768SOL    HW228141   8.596   3.551   9.340 -0.3138  0.1997 -0.7096
40769SOL     OW28142  10.334   5.873   4.404  0.7901 -0.3651  0.5970
40769SOL    HW128143  10.307   5.877   4.495 -4.0949 -0.8498 -0.5657
40769SOL    HW228144  10.333   5.780   4.383  1.6377 -0.2388 -0.0658
40770SOL     OW28145   6.007   8.401   9.419 -0.3942 -0.0495  0.0855
40770SOL    HW128146   6.023   8.477   9.363 -1.1189 -1.0206 -1.5148
40770SOL    HW228147   6.070   8.411   9.491  0.9347  1.0005 -1.1496
40771SOL     OW28148   7.239   5.075   6.156 -0.6999 -0.0109  0.5442
40771SOL    HW128149   7.217   5.167   6.144  3.1454  0.9477 -0.4927
40771SOL    HW228150   7.236   5.037   6.068 -0.1852 -0.3196  0.6521
40772SOL     OW28151   6.599   9.109   4.099  0.5597  0.1291 -0.1406
40772SOL    HW128152   6.538   9.152   4.040 -1.0260  0.9308  1.9895
40772SOL    HW228153   6.640   9.180   4.148  1.7692 -0.5176 -0.1676
40773SOL     OW28154   5.965   1.853   6.503 -0.0661 -0.3592  0.2772
40773SOL    HW128155   5.878   1.829   6.535 -0.0486  0.2692  0.8107
40773SOL    HW228156   6.004   1.769   6.477 -0.5876 -0.7273  0.6373
40774SOL     OW28157   0.465   3.327   0.643 -0.1479 -0.1168  0.5052
40774SOL    HW128158   0.502   3.373   0.718 -1.0466  0.6543  0.5000
40774SOL    HW228159   0.402   3.389   0.606  0.6956 -0.2407 -1.2579
40775SOL     OW28160   2.590   9.706   8.408 -0.3726  0.6140  0.0352
40775SOL    HW128161   2.497   9.699   8.387 -0.4319  0.8269  0.2161
40775SOL    HW228162   2.591   9.739   8.498 -0.1432 -1.3716  0.8066
40776SOL     OW28163   2.608   2.593   4.588  0.2634  0.1724  0.0053
40776SOL    HW128164   2.682   2.650   4.567  0.8178 -0.3177  0.5993
40776SOL    HW228165   2.599   2.600   4.683  1.7776 -2.3983  0.4544
40777SOL     OW28166   6.933   2.711   3.197 -0.4222 -0.4458 -0.0090
40777SOL    HW128167   6.986   2.767   3.254 -0.5204 -1.2103  0.8606
40777SOL    HW228168   6.991   2.638   3.175  0.1987  0.6403 -2.3033
40778SOL     OW28169   3.121   4.145   7.424  0.2393  0.3723 -0.3305
40778SOL    HW128170   3.154   4.173   7.510  0.3120 -1.4352  0.2758
40778SOL    HW228171   3.192   4.093   7.387 -0.8854 -1.3767 -0.1493
40779SOL     OW28172   5.689   0.644   2.514  0.0667  1.0531  0.4428
40779SOL    HW128173   5.659   0.658   2.424 -1.0970  0.0781  0.6597
40779SOL    HW228174   5.755   0.575   2.507 -0.9183  0.0929  0.4685
40780SOL     OW28175   4.722   6.604   4.029 -0.3884 -0.0105  0.1157
40780SOL    HW128176   4.766   6.662   3.967  1.2000 -1.5205 -0.2555
40780SOL    HW228177   4.629   6.610   4.007 -0.0437  0.9242 -1.1458
40781SOL     OW28178   0.352   2.250   2.913 -0.0024  0.0258  0.6961
40781SOL    HW128179   0.317   2.191   2.846 -1.5949 -0.0783  1.5810
40781SOL    HW228180   0.302   2.331   2.903  2.0932  1.2651 -0.4414
40782SOL     OW28181   8.253   0.343  10.267 -0.1820 -0.3874 -0.4967
40782SOL    HW128182   8.345   0.371  10.261  0.1912 -0.8599  2.0193
40782SOL    HW228183   8.250   0.288  10.345 -2.6602 -0.2374 -0.4217
40783SOL     OW28184   0.097   1.966  10.553 -0.1796  0.3767  0.0765
40783SOL    HW128185   0.108   2.059  10.571 -0.5950  0.2807  0.9125
40783SOL    HW228186   0.178   1.940  10.509 -0.7147  1.4660 -1.6560
40784SOL     OW28187   6.311   6.592   4.237  0.1135 -0.0500 -0.1185
40784SOL    HW128188   6.302   6.571   4.330 -1.4016  0.5954 -0.1045
40784SOL    HW228189   6.238   6.650   4.218  2.4481  2.8782 -0.8613
40785SOL     OW28190  10.134  10.557   9.034  0.0883 -0.4241 -0.0218
40785SOL    HW128191  10.128  10.469   8.997  0.6402 -0.8370  0.8414
40785SOL    HW228192  10.156  10.542   9.126 -0.0227  0.6137  0.1767
40786SOL     OW28193  10.564   0.083   2.046  0.2948 -0.5528 -0.1307
40786SOL    HW128194  10.557  -0.011   2.063  0.0962 -0.4985  0.0903
40786SOL    HW228195  10.631   0.090   1.977  1.2180 -0.7618  0.7269
40787SOL     OW28196   4.873   6.677   4.739  0.0543 -0.0086  0.4215
40787SOL    HW128197   4.803   6.612   4.735  0.5969 -0.5322 -1.2952
40787SOL    HW228198   4.880   6.711   4.650  1.4011  0.6633  0.7506
40788SOL     OW28199   8.399   6.908   6.065  0.6886 -0.2118 -0.5643
40788SOL    HW128200   8.401   7.001   6.042  0.4396 -0.2083 -0.5747
40788SOL    HW228201   8.400   6.907   6.161  1.9797 -0.2324 -0.5623
40789SOL     OW28202   2.172   9.484   4.091 -0.0070 -0.2079 -0.5672
40789SOL    HW128203   2.103   9.492   4.157  0.6111  0.7703 -0.0043
40789SOL    HW228204   2.208   9.397   4.104  0.3611  0.1044  0.6787
40790SOL     OW28205   1.234   7.703   7.139  0.0118 -0.7326  0.6323
40790SOL    HW128206   1.193   7.742   7.061  0.6294  0.8398  1.0588
40790SOL    HW228207   1.170   7.640   7.171 -0.4602 -1.0489 -0.8627
40791SOL     OW28208   7.386   8.448   7.259  1.1060  0.1207  0.3450
40791SOL    HW128209   7.356   8.358   7.245  0.6518  0.1213  1.2499
40791SOL    HW228210   7.367   8.492   7.176  0.6862 -0.4487  0.1279
40792SOL     OW28211   1.550   6.123   3.350 -0.4373 -0.0506 -0.0587
40792SOL    HW128212   1.592   6.042   3.378 -0.3435 -0.5152 -1.4659
40792SOL    HW228213   1.606   6.156   3.280 -1.2601  0.4605 -0.4866
40793SOL     OW28214   1.601   2.849  10.445  0.5181  0.0079 -0.2905
40793SOL    HW128215   1.618   2.889  10.530  0.8735 -0.8486  0.0545
40793SOL    HW228216   1.614   2.920  10.382 -1.1482  1.0321  0.4432
40794SOL     OW28217   3.957   9.670   7.712  0.2664 -0.2962  0.1891
40794SOL    HW128218   3.914   9.706   7.634  2.8887  1.7391 -0.4643
40794SOL    HW228219   3.902   9.596   7.738 -1.4271 -0.2485 -2.8108
40795SOL     OW28220   9.224   8.283   7.592 -0.2540  0.4032 -0.5888
40795SOL    HW128221   9.138   8.269   7.553 -0.8167  1.4471  0.2270
40795SOL    HW228222   9.276   8.323   7.523  0.3258 -2.2648 -1.8344
40796SOL     OW28223   7.978   6.329   7.087  0.3692  0.5186 -0.0825
40796SOL    HW128224   8.032   6.298   7.014  0.8952 -0.1085  0.5624
40796SOL    HW228225   7.935   6.250   7.120 -1.8775  1.1567 -1.3097
40797SOL     OW28226   0.410   4.020   9.038  0.3126  0.0467 -0.7253
40797SOL    HW128227   0.321   4.053   9.045  0.3042  0.1238 -1.1710
40797SOL    HW228228   0.449   4.071   8.968  0.8093  0.2355 -0.3167
40798SOL     OW28229   7.748  10.450   3.932 -0.3480  0.3482 -0.6100
40798SOL    HW128230   7.842  10.442   3.951 -0.8471  0.3583  2.4474
40798SOL    HW228231   7.729  10.376   3.875  1.1443 -1.0508  0.5795
40799SOL     OW28232   4.854   9.912   8.477 -0.4439  0.2418  0.4962
40799SOL    HW128233   4.841   9.817   8.467 -1.0352  0.0420  2.7946
40799SOL    HW228234   4.927   9.931   8.418 -0.7557 -1.4970 -0.5531
40800SOL     OW28235   6.726   3.672   4.479 -0.4593 -0.2534 -0.2009
40800SOL    HW128236   6.716   3.589   4.526 -0.8081 -0.1683 -0.1209
40800SOL    HW228237   6.705   3.650   4.388  0.8619 -0.5630 -0.4530
40801SOL     OW28238   8.144  10.537   6.076  0.2168 -0.3759 -0.2510
40801SOL    HW128239   8.133  10.528   5.981  0.8239 -0.9631 -0.2734
40801SOL    HW228240   8.059  10.568   6.107  0.1639  0.3170 -1.0444
40802SOL     OW28241  10.866   7.616  10.365  0.0002 -0.5646 -0.6522
40802SOL    HW128242  10.870   7.621  10.460  1.5678 -0.8841 -0.6750
40802SOL    HW228243  10.773   7.606  10.345 -0.3655 -0.3019  0.8255
40803SOL     OW28244   9.563   6.929   7.820  0.5787 -0.1113 -0.1360
40803SOL    HW128245   9.611   6.856   7.784  0.0437 -0.4806 -0.1201
40803SOL    HW228246   9.517   6.892   7.896 -1.0333 -0.1968 -1.0922
40804SOL     OW28247   5.009   7.690   2.996 -0.3165  0.1353 -0.3385
40804SOL    HW128248   5.007   7.598   2.970  1.1583  0.1876 -0.7538
40804SOL    HW228249   5.033   7.737   2.915 -1.0552  0.9000 -0.1380
40805SOL     OW28250   8.661   9.552   4.569  0.5289  0.2650 -0.0683
40805SOL    HW128251   8.580   9.523   4.527  0.9685  0.2326 -0.9201
40805SOL    HW228252   8.632   9.597   4.648 -0.2617 -0.8639  0.3237
40806SOL     OW28253   3.539   3.952   9.116 -0.0336  0.0162 -0.0569
40806SOL    HW128254   3.622   3.917   9.085 -0.2366  0.2983 -0.9525
40806SOL    HW228255   3.564   4.015   9.184  0.5955  1.0876 -1.2360
40807SOL     OW28256   8.569   0.692   4.229  0.6753  0.1109 -0.1681
40807SOL    HW128257   8.493   0.654   4.185  1.3050  1.6267 -2.8346
40807SOL    HW228258   8.618   0.616   4.261  0.2376 -1.1977 -2.3478
40808SOL     OW28259   4.752   2.955   2.041  0.1110 -0.2772 -0.5496
40808SOL    HW128260   4.777   2.880   1.987  2.0926  0.3018 -0.4974
40808SOL    HW228261   4.803   2.944   2.122 -1.4499 -0.1700  0.4995
40809SOL     OW28262   5.593   6.871   1.654  0.2012 -0.1762  0.4268
40809SOL    HW128263   5.617   6.917   1.735  1.0975 -0.2998  0.2477
40809SOL    HW228264   5.497   6.868   1.655  0.1672  0.6467  1.0223
40810SOL     OW28265   2.051   0.271   7.625  0.3310 -0.1729  0.2510
40810SOL    HW128266   2.121   0.210   7.599 -1.9439 -2.6540 -0.4687
40810SOL    HW228267   2.006   0.292   7.544 -0.9057 -0.1603  0.9179
40811SOL     OW28268  10.060   5.887   1.322 -0.2121 -0.1009 -0.4561
40811SOL    HW128269  10.026   5.967   1.282 -0.3243 -1.1195 -2.5267
40811SOL    HW228270  10.136   5.864   1.269 -0.6362 -1.7657 -0.4077
40812SOL     OW28271   7.161   8.928   5.154  0.4324 -0.1694 -0.1325
40812SOL    HW128272   7.163   8.991   5.226 -1.1239 -0.8091  0.5113
40812SOL    HW228273   7.117   8.851   5.190  1.5094 -1.3071 -1.1674
40813SOL     OW28274   2.722   3.130   5.442  0.0895 -0.2048 -0.2896
40813SOL    HW128275   2.733   3.141   5.348  2.4997 -0.9417 -0.1409
40813SOL    HW228276   2.756   3.211   5.480  0.1829 -0.3858  0.0137
40814SOL     OW28277  10.555   1.273   7.940 -0.3030  0.0112 -0.6140
40814SOL    HW128278  10.631   1.220   7.914  0.3554  1.6189 -2.1963
40814SOL    HW228279  10.482   1.235   7.890  0.1550  0.5082 -1.7070
40815SOL     OW28280   9.557   4.532   1.375 -0.0432 -0.5169 -0.6357
40815SOL    HW128281   9.494   4.518   1.445 -0.0244 -0.1593 -0.5508
40815SOL    HW228282   9.531   4.615   1.335  1.7443  0.8218  0.8562
40816SOL     OW28283   7.437   4.560   0.792 -0.7205 -0.3602  0.2947
40816SOL    HW128284   7.386   4.547   0.712 -1.1890  0.6771  0.4101
40816SOL    HW228285   7.489   4.638   0.773 -0.6789 -0.2340  0.9306
40817SOL     OW28286   0.633   2.781   7.581 -0.0517  0.4964  0.7613
40817SOL    HW128287   0.585   2.778   7.498 -0.7360  1.3924  1.1130
40817SOL    HW228288   0.595   2.856   7.628  0.2100 -0.1046  1.9536
40818SOL     OW28289  10.781   2.861   1.596  0.4413  0.0872 -0.6292
40818SOL    HW128290  10.734   2.926   1.545 -0.4052  0.7429  0.9138
40818SOL    HW228291  10.714   2.802   1.630  0.4639  1.5364  2.3161
40819SOL     OW28292   4.583   4.781   1.244 -0.2235  0.3245  0.0899
40819SOL    HW128293   4.616   4.711   1.300 -1.0422 -0.0593  0.1068
40819SOL    HW228294   4.643   4.854   1.260  1.3702 -0.7224 -0.8526
40820SOL     OW28295   7.107   2.702   6.549  0.5487  0.3473 -0.6081
40820SOL    HW128296   7.081   2.793   6.565  2.4211  0.4643  2.5036
40820SOL    HW228297   7.025   2.653   6.553 -0.4372  1.8054 -1.8825
40821SOL     OW28298   6.328   8.907   9.062 -0.6861  0.0807 -0.3317
40821SOL    HW128299   6.379   8.827   9.070  0.7718  1.1250  1.7398
40821SOL    HW228300   6.375   8.960   8.997 -0.1017  0.3555  0.3164
40822SOL     OW28301   9.400   8.875   1.383  0.1581  0.8361 -0.3052
40822SOL    HW128302   9.492   8.892   1.363  0.5573  0.9316  1.4715
40822SOL    HW228303   9.369   8.955   1.425 -0.0064 -0.0682  1.3938
40823SOL     OW28304   8.867   6.741   5.760  0.0949  0.0117 -0.4656
40823SOL    HW128305   8.900   6.665   5.809  1.4132  0.4273 -0.6506
40823SOL    HW228306   8.790   6.769   5.809  0.6186 -0.3881  0.6423
40824SOL     OW28307   4.869   9.198   8.525 -0.4481 -0.8061 -0.0630
40824SOL    HW128308   4.938   9.154   8.574  0.9825 -0.7604 -1.9035
40824SOL    HW228309   4.796   9.136   8.524 -0.9566 -0.3865  2.9195
40825SOL     OW28310   5.529   2.855   2.028 -0.3878 -0.5483  0.3085
40825SOL    HW128311   5.434   2.872   2.024 -0.6197 -1.8360 -0.0050
40825SOL    HW228312   5.542   2.809   2.111 -0.0205 -0.2883  0.3967
40826SOL     OW28313   7.575   4.058   4.136  1.0722  0.4104  0.1380
40826SOL    HW128314   7.665   4.051   4.165  0.4488 -2.7564  1.6981
40826SOL    HW228315   7.548   4.147   4.161  3.2674  0.8998  0.9709
40827SOL     OW28316   3.251   3.794   3.323 -0.3242 -0.3403  0.3097
40827SOL    HW128317   3.244   3.715   3.270  1.8653 -0.2201 -0.2874
40827SOL    HW228318   3.186   3.854   3.288 -0.4355 -1.0722 -0.7721
40828SOL     OW28319   8.523   6.249   2.101  0.8761 -0.5269  0.0949
40828SOL    HW128320   8.548   6.330   2.146 -0.1776 -0.6474  0.9217
40828SOL    HW228321   8.579   6.247   2.023 -1.4643  2.8937 -1.9639
40829SOL     OW28322   8.404   0.254   4.025 -0.6958 -0.5306  0.0060
40829SOL    HW128323   8.446   0.267   4.110  0.7356 -0.2993 -0.7100
40829SOL    HW228324   8.312   0.238   4.046 -0.2108 -1.3547  1.6440
40830SOL     OW28325   1.094  10.415  10.473 -0.1779  0.3657 -0.1722
40830SOL    HW128326   1.088  10.483  10.541  0.9877 -0.3793  0.7131
40830SOL    HW228327   1.180  10.375  10.487 -0.0366 -0.0039 -1.9211
40831SOL     OW28328   4.697   2.311   6.382 -0.3730 -0.4784  0.3058
40831SOL    HW128329   4.635   2.348   6.319 -1.4808 -0.8364  1.1466
40831SOL    HW228330   4.729   2.232   6.340  0.9462  0.6471 -0.9098
40832SOL     OW28331   9.866   6.182   5.417  0.0500 -0.4359  0.0776
40832SOL    HW128332   9.774   6.155   5.416 -0.1740 -0.0064 -3.3540
40832SOL    HW228333   9.867   6.269   5.377  1.9593 -0.5689 -0.2917
40833SOL     OW28334   5.717   5.498   9.685 -0.6465 -0.0178 -0.4916
40833SOL    HW128335   5.756   5.495   9.772 -1.0230  2.9345 -0.1168
40833SOL    HW228336   5.790   5.520   9.627 -0.8253  0.4005 -0.5586
40834SOL     OW28337   0.475   2.915   7.805 -0.0304 -0.1285  0.1179
40834SOL    HW128338   0.381   2.929   7.794  0.2021  0.4240 -1.4002
40834SOL    HW228339   0.510   3.002   7.824  0.0370 -0.5307  1.9369
40835SOL     OW28340   0.461   2.513   3.479  0.3011  0.5213 -0.0824
40835SOL    HW128341   0.469   2.608   3.472  1.3384  0.4263 -0.3814
40835SOL    HW228342   0.399   2.489   3.411 -0.7759  1.0721  0.6680
40836SOL     OW28343   1.002   7.938   6.505  0.1643 -0.2055 -0.5016
40836SOL    HW128344   1.020   7.944   6.599  0.7572 -0.2638 -0.6031
40836SOL    HW228345   0.933   7.871   6.498  1.8713 -2.1099 -0.2739
40837SOL     OW28346   0.299   9.493   4.437 -0.1857  0.3309 -0.1592
40837SOL    HW128347   0.334   9.405   4.444 -0.2524  0.2336 -0.9327
40837SOL    HW228348   0.213   9.488   4.479 -1.3643 -0.6764 -2.4841
40838SOL     OW28349   2.753   6.265   5.942 -0.0097  0.6945  0.2137
40838SOL    HW128350   2.669   6.304   5.915 -1.2192 -2.0415 -0.2902
40838SOL    HW228351   2.730   6.211   6.018  0.7381 -1.9515 -1.3229
40839SOL     OW28352   6.835   5.924   7.642  0.2235 -0.6912 -0.0623
40839SOL    HW128353   6.873   5.852   7.590 -0.0684 -2.2190  1.7472
40839SOL    HW228354   6.741   5.917   7.626  0.1770 -0.8453  0.2799
40840SOL     OW28355  10.417   0.600   4.419  0.3326  0.3594 -0.2064
40840SOL    HW128356  10.482   0.596   4.349 -0.0026  1.5551 -0.6102
40840SOL    HW228357  10.461   0.649   4.489  0.1310  0.5143 -0.1872
40841SOL     OW28358   8.663   4.679  10.896 -0.0519  0.1043  0.2566
40841SOL    HW128359   8.569   4.662  10.899 -0.1550  0.7252  2.2672
40841SOL    HW228360   8.670   4.775  10.901  0.6796  0.0563  0.3021
40842SOL     OW28361   2.244   6.967   6.419  0.6468 -0.1290  0.3404
40842SOL    HW128362   2.324   6.976   6.366  0.4574 -3.1116 -0.6537
40842SOL    HW228363   2.273   6.920   6.498  0.1819  0.5070  0.9027
40843SOL     OW28364   4.732   0.085  10.352  0.3445 -0.2100  0.5240
40843SOL    HW128365   4.714   0.161  10.297 -2.0888 -0.3759  0.9811
40843SOL    HW228366   4.791   0.118  10.420  0.7259  0.8000 -0.2771
40844SOL     OW28367   5.306   2.834   1.715 -0.2610 -0.8718 -0.2841
40844SOL    HW128368   5.286   2.900   1.781  0.7659  1.2177 -1.9374
40844SOL    HW228369   5.221   2.793   1.696 -1.3437  1.3202 -0.5325
40845SOL     OW28370   6.075   8.268   3.705 -0.6043 -0.0581  0.1036
40845SOL    HW128371   5.997   8.261   3.650 -1.5393 -0.6298  1.4234
40845SOL    HW228372   6.042   8.304   3.788  0.7311  0.7050  0.3377
40846SOL     OW28373   6.208   5.452   1.569  0.3166 -0.3757  0.2099
40846SOL    HW128374   6.243   5.518   1.508  0.5919 -1.7315 -1.1781
40846SOL    HW228375   6.138   5.409   1.520  0.2275 -1.1987  1.0362
40847SOL     OW28376   9.257   5.271   5.092  0.0907  0.3215  0.2840
40847SOL    HW128377   9.335   5.311   5.054 -0.7502  2.2164  0.4028
40847SOL    HW228378   9.289   5.193   5.137  1.1958 -1.9195 -3.8780
40848SOL     OW28379   7.170   1.101   4.380  0.3663  0.3203 -0.0861
40848SOL    HW128380   7.238   1.153   4.335 -1.5948  2.2967 -0.9511
40848SOL    HW228381   7.152   1.150   4.460  0.0571 -0.2841  0.2193
40849SOL     OW28382   9.792   4.198   4.765  0.5895  0.1635 -0.3396
40849SOL    HW128383   9.815   4.185   4.673  0.1591  1.4032 -0.6401
40849SOL    HW228384   9.877   4.204   4.810  0.8592  1.6583 -0.9825
40850SOL     OW28385   0.873   7.369   6.008  0.4508 -0.5658 -0.2855
40850SOL    HW128386   0.835   7.383   5.922 -1.7137  2.8238  1.0296
40850SOL    HW228387   0.962   7.404   6.001 -0.3500  1.4838 -0.7058
40851SOL     OW28388   2.669  10.507   8.041  0.0990 -0.0820  0.1989
40851SOL    HW128389   2.619  10.492   8.121 -0.8179  2.6184  0.2425
40851SOL    HW228390   2.741  10.445   8.045 -0.1770 -0.3333  2.8855
40852SOL     OW28391   0.748   1.991   8.410 -0.0933 -0.0800 -0.1066
40852SOL    HW128392   0.727   2.030   8.326 -0.4996  1.3247  0.6120
40852SOL    HW228393   0.794   1.910   8.388 -1.0737 -0.2543 -1.6692
40853SOL     OW28394   1.402   8.930   6.302 -0.5000  0.0922 -0.4416
40853SOL    HW128395   1.384   8.851   6.353  0.7423  0.1133  0.0563
40853SOL    HW228396   1.423   8.997   6.367  1.2033  0.0956 -0.9571
40854SOL     OW28397   6.742   3.446   8.225  0.1763 -0.1425 -0.5202
40854SOL    HW128398   6.764   3.359   8.260 -0.0040  0.3202  0.7973
40854SOL    HW228399   6.646   3.449   8.227  0.1898  0.1664 -0.3807
40855SOL     OW28400   7.234   4.337   2.526  0.2533  0.4755  0.3607
40855SOL    HW128401   7.269   4.332   2.437  1.7072 -0.0721  0.9360
40855SOL    HW228402   7.306   4.372   2.579 -0.2389 -0.1880  1.5074
40856SOL     OW28403   4.740   3.274   5.574  0.3660  0.5428 -0.0729
40856SOL    HW128404   4.834   3.289   5.582  0.3465  0.9533 -0.5966
40856SOL    HW228405   4.718   3.305   5.486 -0.3997  1.1665  0.3303
40857SOL     OW28406   4.379   6.848  10.665 -0.2931  0.0284  0.1260
40857SOL    HW128407   4.295   6.852  10.711  0.0314  0.9294  0.6523
40857SOL    HW228408   4.355   6.853  10.572 -0.8924 -0.9778  0.2004
40858SOL     OW28409   0.033   3.191   3.757 -0.6890 -0.4606 -0.6018
40858SOL    HW128410   0.028   3.182   3.852  0.4794 -0.8388 -0.5658
40858SOL    HW228411  -0.041   3.139   3.724  0.4941 -2.6317  0.0012
40859SOL     OW28412   7.335   2.943   4.141  0.4959  0.7561 -0.2722
40859SOL    HW128413   7.404   3.010   4.138  1.3321 -0.0242  0.5320
40859SOL    HW228414   7.274   2.967   4.072  1.5806  1.4830 -1.0012
40860SOL     OW28415   0.132   8.929   4.133 -0.3700 -0.1274 -0.3514
40860SOL    HW128416   0.182   9.003   4.098  0.1075 -0.2754  0.0129
40860SOL    HW228417   0.082   8.967   4.205 -0.5528 -0.0452 -0.5191
40861SOL     OW28418   3.061  10.200   9.527 -0.0975 -0.0329  0.5205
40861SOL    HW128419   3.147  10.230   9.558  0.1940  0.1219 -0.4164
40861SOL    HW228420   3.078  10.115   9.486 -0.7001 -0.8666  1.9316
40862SOL     OW28421   2.696   8.445   0.868 -0.0050  0.1512  0.5001
40862SOL    HW128422   2.707   8.518   0.807  1.5812 -0.0236  0.5396
40862SOL    HW228423   2.764   8.458   0.934 -0.3253 -0.8394  1.0580
40863SOL     OW28424   8.217   7.199   9.349 -0.1329 -0.2958 -0.1901
40863SOL    HW128425   8.180   7.139   9.415 -1.5807 -0.7995 -1.3840
40863SOL    HW228426   8.283   7.146   9.303 -0.3266 -0.5019 -0.2374
40864SOL     OW28427   2.963   7.143   6.027  0.3517  0.1650  0.0427
40864SOL    HW128428   2.975   7.231   6.063 -1.3377  0.1617  0.6924
40864SOL    HW228429   2.985   7.085   6.100  1.5497  0.0277 -0.4124
40865SOL     OW28430   6.715   5.998   2.355  0.1219  0.0600  0.1689
40865SOL    HW128431   6.683   5.949   2.280  0.4150  0.9414 -0.5446
40865SOL    HW228432   6.796   5.955   2.380 -0.4519 -0.8078  0.5817
40866SOL     OW28433   4.386   0.458   0.084  0.2495  0.1747  0.1872
40866SOL    HW128434   4.465   0.417   0.120  0.9004  1.5244  0.3634
40866SOL    HW228435   4.366   0.529   0.145 -0.0707  0.9429 -0.7736
40867SOL     OW28436   1.792   0.014   5.246 -0.1151  0.6712 -0.3653
40867SOL    HW128437   1.835  -0.027   5.322 -1.3525  2.0031  1.1227
40867SOL    HW228438   1.855   0.077   5.214  0.1891  0.5244 -0.0683
40868SOL     OW28439   1.134   7.052   7.409 -0.4702  0.2643 -0.0529
40868SOL    HW128440   1.068   7.018   7.469  0.3789 -0.6919  0.3728
40868SOL    HW228441   1.171   7.128   7.453 -0.1595 -0.1731  0.4631
40869SOL     OW28442   1.519   8.233  10.905  0.2150  0.1669 -0.0869
40869SOL    HW128443   1.452   8.215  10.972 -0.0344  0.2647 -0.3075
40869SOL    HW228444   1.469   8.243  10.824  0.6120 -1.0119 -0.4854
40870SOL     OW28445   9.416   7.891   1.700  0.2736 -0.2125  0.5175
40870SOL    HW128446   9.435   7.955   1.631 -0.1978 -0.4496  0.1595
40870SOL    HW228447   9.393   7.944   1.776  1.3882  0.0634  0.6805
40871SOL     OW28448   1.706   5.693   4.167 -0.5775 -0.2829 -0.1317
40871SOL    HW128449   1.758   5.743   4.104 -0.6494  0.9190  0.7314
40871SOL    HW228450   1.629   5.747   4.183  0.0905  0.1294  2.0021
40872SOL     OW28451   2.579   1.938   6.319  0.5642  0.2010  0.5501
40872SOL    HW128452   2.636   2.014   6.335  1.6162 -0.5605  0.5250
40872SOL    HW228453   2.551   1.911   6.406 -2.1400  2.2921  0.4401
40873SOL     OW28454   2.993   5.173   9.291  0.2481  0.2905 -0.4930
40873SOL    HW128455   2.921   5.118   9.261 -1.4003  1.8206  0.4694
40873SOL    HW228456   2.959   5.216   9.369  2.5134  0.4818  0.4609
40874SOL     OW28457   1.340   3.812   2.676  0.2006  0.7728 -0.5649
40874SOL    HW128458   1.329   3.813   2.581 -3.8534  1.3769 -0.2642
40874SOL    HW228459   1.256   3.781   2.710  0.4443  3.2902  2.8887
40875SOL     OW28460   5.716   4.124   5.229  0.0894  0.1788  0.3730
40875SOL    HW128461   5.731   4.171   5.147  3.1444  0.5969  1.0480
40875SOL    HW228462   5.753   4.037   5.214  1.6759  0.6010  1.6002
40876SOL     OW28463   1.395   3.010   6.841  0.0198  0.1606 -0.0170
40876SOL    HW128464   1.337   3.085   6.850  1.2281  0.9769  1.6507
40876SOL    HW228465   1.475   3.046   6.802 -0.3848 -0.8583 -1.9031
40877SOL     OW28466   1.803   6.986   4.765 -0.1154  0.1994  0.3189
40877SOL    HW128467   1.732   6.944   4.715  0.2651 -1.2640  0.9638
40877SOL    HW228468   1.837   7.052   4.706 -1.8110  0.7327 -0.1346
40878SOL     OW28469   4.338   4.802   4.553 -1.2934  0.1520 -0.5015
40878SOL    HW128470   4.275   4.869   4.580 -1.5851  1.0108 -3.0627
40878SOL    HW228471   4.324   4.792   4.459  0.4916 -1.6964 -0.6404
40879SOL     OW28472   9.000   1.593   7.905  0.5524 -0.1318 -0.3477
40879SOL    HW128473   8.913   1.619   7.874 -0.0965  0.1436  1.5352
40879SOL    HW228474   9.016   1.508   7.862  0.0559  0.5245 -1.8977
40880SOL     OW28475   3.274   9.265   9.764 -0.1941 -0.2832 -0.1081
40880SOL    HW128476   3.213   9.196   9.791  0.0143 -0.2022  0.5855
40880SOL    HW228477   3.330   9.279   9.840 -0.7766  1.2596  0.0672
40881SOL     OW28478   8.711   5.735   3.225  0.2464 -0.4186 -0.1641
40881SOL    HW128479   8.776   5.796   3.260 -0.0403 -0.4784  0.4817
40881SOL    HW228480   8.627   5.778   3.239  0.0683 -0.8006 -0.0302
40882SOL     OW28481   8.331   6.807   7.529  0.4285 -0.2099  0.7299
40882SOL    HW128482   8.404   6.828   7.586  0.2393 -0.6255  1.1309
40882SOL    HW228483   8.333   6.712   7.521 -0.7017 -0.3303  1.6090
40883SOL     OW28484   2.073   4.685   5.969 -0.6234  0.7350 -0.1194
40883SOL    HW128485   1.990   4.692   6.016 -0.8065  0.5853 -0.4238
40883SOL    HW228486   2.086   4.772   5.930 -0.6532  0.7461 -0.1051
40884SOL     OW28487   2.824   8.680  10.494  0.2485 -0.0441 -0.3988
40884SOL    HW128488   2.754   8.736  10.525  0.2604 -0.0252 -0.4058
40884SOL    HW228489   2.780   8.602  10.459  0.3046 -1.6319  2.7144
40885SOL     OW28490   4.368  10.028   9.521  0.1427  0.0597  0.4151
40885SOL    HW128491   4.401  10.025   9.611 -2.3473 -0.9791  1.3992
40885SOL    HW228492   4.275  10.046   9.530  0.1477  1.9490 -2.1254
40886SOL     OW28493   9.992   9.067   6.788 -0.0830 -0.3079  0.0132
40886SOL    HW128494  10.028   9.066   6.877  1.1862 -0.0155 -0.4705
40886SOL    HW228495   9.939   8.988   6.783  1.5207 -1.4515  0.3801
40887SOL     OW28496   2.606   0.730  10.292 -0.0161 -0.3812 -0.2887
40887SOL    HW128497   2.535   0.667  10.306  0.5698 -1.2671 -1.1555
40887SOL    HW228498   2.617   0.773  10.376 -0.7221 -1.1340  0.2055
40888SOL     OW28499  10.197   8.427   6.938 -0.0268  0.3496  0.6217
40888SOL    HW128500  10.135   8.500   6.928 -1.2454 -0.7017  0.2650
40888SOL    HW228501  10.160   8.374   7.009  0.8453  0.0680  0.8747
40889SOL     OW28502   3.680   8.825   5.997 -0.5960  0.6645 -0.4178
40889SOL    HW128503   3.722   8.826   5.911  1.6196  0.7016  0.5885
40889SOL    HW228504   3.750   8.798   6.057 -1.7081  1.9238  1.5479
40890SOL     OW28505   4.483   9.929   9.117  0.1642  0.0089  0.4605
40890SOL    HW128506   4.409   9.987   9.098 -0.4367 -1.3174 -1.6656
40890SOL    HW228507   4.445   9.857   9.168  0.1504 -0.2442  0.0987
40891SOL     OW28508   0.269   2.711   8.800  0.4368  0.2623  0.3110
40891SOL    HW128509   0.195   2.701   8.860  0.3409  0.8059  0.2825
40891SOL    HW228510   0.256   2.641   8.735 -0.2855  0.6157  0.0638
40892SOL     OW28511   9.358   8.578   3.005 -0.0932  0.3889 -0.1625
40892SOL    HW128512   9.444   8.610   3.030  0.9138 -1.1332 -1.4949
40892SOL    HW228513   9.316   8.554   3.088  0.6216  1.4536  0.5197
40893SOL     OW28514   7.613   7.254   8.450  0.1422 -0.1509  0.1240
40893SOL    HW128515   7.643   7.197   8.521 -1.0664  1.8741  2.4003
40893SOL    HW228516   7.646   7.212   8.370  3.6798 -1.3027  1.9706
40894SOL     OW28517   2.485   0.508  10.922 -0.0109 -0.1440 -0.3844
40894SOL    HW128518   2.560   0.551  10.879  0.2354  0.4903  0.6520
40894SOL    HW228519   2.521   0.470  11.002 -0.3210 -1.9469 -1.0464
40895SOL     OW28520   7.744   2.279   0.130 -0.1801  0.3598 -0.1378
40895SOL    HW128521   7.770   2.371   0.131 -0.5013  0.4942  2.5684
40895SOL    HW228522   7.648   2.281   0.130 -0.1896  0.0162 -0.1508
40896SOL     OW28523   7.883   5.748  10.121 -0.3488  0.4727 -0.2115
40896SOL    HW128524   7.916   5.830  10.158  0.8399 -0.6476  1.3674
40896SOL    HW228525   7.789   5.759  10.115 -0.2267  1.8525  0.1922
40897SOL     OW28526   2.494   2.489   7.710 -0.3575  0.7586  0.1860
40897SOL    HW128527   2.547   2.555   7.754 -0.0667  1.2178 -0.8151
40897SOL    HW228528   2.416   2.480   7.764  0.3229  0.7399  1.1953
40898SOL     OW28529   2.768   5.758   2.234 -0.0059  0.2660  0.6565
40898SOL    HW128530   2.695   5.734   2.290  0.3988  1.1264  1.5845
40898SOL    HW228531   2.837   5.786   2.294  0.4558  1.1783 -0.2550
40899SOL     OW28532   5.701   8.274   1.857  0.4709  0.1168 -0.1951
40899SOL    HW128533   5.710   8.180   1.870 -1.5966 -0.2398 -0.9046
40899SOL    HW228534   5.657   8.305   1.937  1.3681  0.5508  0.1470
40900SOL     OW28535   5.740  10.124   6.050 -0.5568  0.1979 -0.1076
40900SOL    HW128536   5.764  10.048   5.998 -0.5714 -0.7016  1.1675
40900SOL    HW228537   5.718  10.089   6.136 -3.2033  1.3367 -0.2260
40901SOL     OW28538  10.880   1.355   4.650 -0.1781 -0.7704  0.0424
40901SOL    HW128539  10.974   1.357   4.671 -0.2671  1.7538  0.4196
40901SOL    HW228540  10.875   1.390   4.561 -0.9150  1.3066  0.8593
40902SOL     OW28541   7.964   1.653   7.420 -0.2819 -0.4243  0.9803
40902SOL    HW128542   7.925   1.740   7.425  1.7480  0.4803  2.3531
40902SOL    HW228543   7.893   1.597   7.388 -1.6843  1.6788  0.1973
40903SOL     OW28544  10.682   4.149   8.487 -0.5014 -0.5704  0.2492
40903SOL    HW128545  10.773   4.119   8.477  0.1950  1.3547  0.4107
40903SOL    HW228546  10.689   4.243   8.503 -2.4437 -0.6258  1.8622
40904SOL     OW28547   8.514   3.290   2.441  0.3538  0.2876 -0.1256
40904SOL    HW128548   8.436   3.298   2.496  0.1219 -2.0198 -0.0084
40904SOL    HW228549   8.586   3.318   2.498 -0.3546  2.7620 -0.3416
40905SOL     OW28550   5.305   5.864   4.801  0.4661  0.4445 -0.2147
40905SOL    HW128551   5.341   5.804   4.867  0.9423  0.8900 -0.0608
40905SOL    HW228552   5.283   5.943   4.850 -0.9383  0.1049 -0.2755
40906SOL     OW28553   2.998   3.644   3.637 -0.0670 -0.4109 -0.5123
40906SOL    HW128554   2.929   3.594   3.679 -0.4342  0.8304  0.4366
40906SOL    HW228555   2.977   3.641   3.543 -0.7627 -0.9756 -0.3453
40907SOL     OW28556   1.498   7.352   7.385  0.1328  0.1286  0.7445
40907SOL    HW128557   1.416   7.303   7.394 -0.0632  0.2117 -0.4041
40907SOL    HW228558   1.473   7.435   7.345  0.7971  0.0759  0.1926
40908SOL     OW28559   5.742   6.646   8.178  0.6337  0.4108  0.3196
40908SOL    HW128560   5.820   6.690   8.143  0.4944  1.5120  1.3241
40908SOL    HW228561   5.753   6.649   8.273  0.1886 -0.9920  0.4269
40909SOL     OW28562   1.224   8.256   2.999  0.2134  0.2099  0.1602
40909SOL    HW128563   1.129   8.251   3.001  0.1543  1.1792  0.3443
40909SOL    HW228564   1.243   8.345   2.969  1.0609  0.0120  0.0715
40910SOL     OW28565   2.007   2.395   5.682  0.0826  0.3915 -0.2579
40910SOL    HW128566   2.003   2.385   5.777 -0.1673  0.0786 -0.2983
40910SOL    HW228567   1.959   2.476   5.664 -1.6391 -0.5673 -0.2755
40911SOL     OW28568   0.614  10.880   3.694  0.2965 -0.0757 -0.5408
40911SOL    HW128569   0.587  10.789   3.704 -0.0144 -0.0731 -1.2797
40911SOL    HW228570   0.539  10.931   3.723  0.9954 -0.0161  1.3111
40912SOL     OW28571  10.520  10.068   5.421  0.6190  0.1706 -0.7422
40912SOL    HW128572  10.561   9.989   5.387 -0.6717 -0.0545 -1.8764
40912SOL    HW228573  10.561  10.081   5.506 -0.4811 -2.8656  0.4079
40913SOL     OW28574   3.366   3.194   9.817  0.0895 -0.6185 -0.4975
40913SOL    HW128575   3.305   3.213   9.746  1.0430  0.0196 -1.1865
40913SOL    HW228576   3.438   3.147   9.774  0.4713 -0.6229  0.1374
40914SOL     OW28577   1.668   7.066   9.015  0.3483 -0.4987  0.0458
40914SOL    HW128578   1.661   7.118   8.935  0.5657  0.2288  0.4820
40914SOL    HW228579   1.757   7.082   9.045 -0.0927  0.1666  1.0445
40915SOL     OW28580   7.259   3.639   6.765 -0.4163 -0.0103  0.6108
40915SOL    HW128581   7.272   3.605   6.853 -0.9508 -0.2332  0.6095
40915SOL    HW228582   7.342   3.682   6.743  0.9326 -2.7262 -0.0275
40916SOL     OW28583  10.419   4.730   1.544 -0.1603 -0.2834 -0.2149
40916SOL    HW128584  10.360   4.679   1.599  0.0274 -0.2640  0.0098
40916SOL    HW228585  10.373   4.812   1.529 -0.2952 -0.3638 -0.2464
40917SOL     OW28586   2.136   3.985   6.359 -0.1448  0.5357  0.1481
40917SOL    HW128587   2.225   4.014   6.336  0.2835  1.2388  2.3764
40917SOL    HW228588   2.117   3.914   6.298  1.0387  1.8222 -1.8332
40918SOL     OW28589   2.259  10.170   3.964  0.3828  0.2835  0.0804
40918SOL    HW128590   2.306  10.125   3.894 -1.1962 -0.0166 -0.8288
40918SOL    HW228591   2.187  10.111   3.988 -0.4191  1.3529  0.4025
40919SOL     OW28592   2.716  10.804   4.422 -0.2855  0.7068 -0.5448
40919SOL    HW128593   2.766  10.793   4.341  0.5412 -1.2995  0.1590
40919SOL    HW228594   2.757  10.879   4.465  1.6673 -0.3998 -0.3650
40920SOL     OW28595   4.846   2.024   2.521 -0.0445 -0.4252  0.4627
40920SOL    HW128596   4.818   1.942   2.479  2.5855 -0.1118 -2.2606
40920SOL    HW228597   4.918   1.998   2.579 -0.8128 -0.2993  1.4994
40921SOL     OW28598   5.822   9.099  10.153  0.2536  0.5663  0.3587
40921SOL    HW128599   5.835   9.191  10.130 -0.3016  0.8763  1.2546
40921SOL    HW228600   5.775   9.062  10.078 -0.9610  1.3999  0.6915
40922SOL     OW28601   7.371   8.489   5.756 -0.0019 -0.1352 -0.7315
40922SOL    HW128602   7.287   8.515   5.795 -0.1025 -0.7583 -0.5266
40922SOL    HW228603   7.418   8.446   5.827  0.1782 -0.4807 -1.0581
40923SOL     OW28604   0.230   6.296   3.242 -0.4168  0.0059 -0.3543
40923SOL    HW128605   0.144   6.258   3.223 -0.3585 -0.6618  0.6718
40923SOL    HW228606   0.285   6.221   3.262 -0.3716  0.5961  2.0191
40924SOL     OW28607   6.905   8.374   0.694  0.3935  0.4282  0.5677
40924SOL    HW128608   6.992   8.333   0.703 -0.2947 -1.1382  0.4041
40924SOL    HW228609   6.884   8.404   0.783 -0.1020 -1.8068  1.2715
40925SOL     OW28610   4.477   2.421   3.604 -0.0273 -0.0001  0.0225
40925SOL    HW128611   4.428   2.499   3.630  1.6567  0.7460  1.1822
40925SOL    HW228612   4.541   2.454   3.540  0.0044 -0.6347 -0.2769
40926SOL     OW28613   9.621   0.835   7.992 -0.4671  0.0024 -0.0929
40926SOL    HW128614   9.704   0.849   7.946 -0.2310 -0.9580  0.0129
40926SOL    HW228615   9.625   0.744   8.021 -1.7998 -0.2355 -0.5674
40927SOL     OW28616  10.155   3.150   3.992 -0.0702  0.1484 -0.3588
40927SOL    HW128617  10.188   3.225   3.941  0.3373 -0.7578 -1.4727
40927SOL    HW228618  10.138   3.082   3.926 -0.8589 -0.5972  0.5839
40928SOL     OW28619   6.955   4.418   6.721  0.1594 -0.1379  0.7449
40928SOL    HW128620   6.865   4.451   6.717 -0.9240 -2.7243  1.2397
40928SOL    HW228621   6.996   4.468   6.790 -0.8724  1.1527  0.4641
40929SOL     OW28622   7.699   3.520   2.347  0.0711  0.0017 -0.3287
40929SOL    HW128623   7.604   3.519   2.363  0.1532  0.1268  0.1686
40929SOL    HW228624   7.736   3.471   2.420  0.3795 -0.1815 -0.6060
40930SOL     OW28625   0.395   9.503   0.285 -0.7937 -0.3836  0.2666
40930SOL    HW128626   0.446   9.480   0.207 -1.6405 -2.1057  0.1865
40930SOL    HW228627   0.375   9.596   0.274  2.5211  0.4822  0.4362
40931SOL     OW28628   7.726   1.434   1.614  0.0992  0.4487 -0.2274
40931SOL    HW128629   7.721   1.489   1.692 -1.1492  0.0804 -0.0272
40931SOL    HW228630   7.819   1.414   1.605  0.2648  0.4661  1.1917
40932SOL     OW28631   5.384   8.504   1.838  0.3372 -0.4804 -0.0130
40932SOL    HW128632   5.300   8.515   1.792  0.5486  1.7187  0.0210
40932SOL    HW228633   5.379   8.565   1.911  1.7243 -0.8125  0.3842
40933SOL     OW28634   0.779   1.334   2.252  0.0353 -0.0837 -0.3509
40933SOL    HW128635   0.836   1.411   2.255  0.0587 -0.1047 -0.2680
40933SOL    HW228636   0.720   1.351   2.178  0.8600 -0.5664 -1.1394
40934SOL     OW28637   2.137   3.671   9.285 -0.3660  0.6264 -0.0204
40934SOL    HW128638   2.217   3.648   9.332 -0.0325  2.7464  0.5216
40934SOL    HW228639   2.167   3.723   9.211 -1.2405  1.4554  0.1929
40935SOL     OW28640  10.392   2.202   8.292 -0.4308  0.5821  0.1018
40935SOL    HW128641  10.456   2.253   8.340  2.0348 -0.9452 -1.3480
40935SOL    HW228642  10.431   2.115   8.284 -1.4186  0.2757 -3.0735
40936SOL     OW28643   6.933   2.471   5.432 -0.2821  0.1831 -0.3684
40936SOL    HW128644   6.990   2.399   5.457 -0.4847 -0.4821 -1.7078
40936SOL    HW228645   6.934   2.531   5.506 -0.8892 -1.6781  1.2122
40937SOL     OW28646   8.619   1.532   4.237 -0.3318 -0.5318  0.5102
40937SOL    HW128647   8.544   1.525   4.178 -0.3319  1.2725  0.2289
40937SOL    HW228648   8.695   1.523   4.179 -0.3365 -0.0993  0.4329
40938SOL     OW28649   3.865   3.067   3.339  0.7589 -0.4842 -0.4918
40938SOL    HW128650   3.949   3.056   3.384  1.3235  0.7840 -1.1873
40938SOL    HW228651   3.817   2.986   3.358  1.8223 -0.8955  0.5714
40939SOL     OW28652   6.588   4.014   9.520  0.4742  0.2877  0.3074
40939SOL    HW128653   6.532   4.051   9.587 -1.4487 -0.0305 -1.0408
40939SOL    HW228654   6.677   4.023   9.554 -0.2703  2.1750  1.8646
40940SOL     OW28655   4.108   1.477   6.401  0.0492 -0.4142 -0.0669
40940SOL    HW128656   4.139   1.536   6.469 -0.1528 -0.2783 -0.0938
40940SOL    HW228657   4.014   1.492   6.396 -0.1413 -1.3500  0.5186
40941SOL     OW28658   6.728   7.544   1.053 -0.2472  0.0915  0.4529
40941SOL    HW128659   6.672   7.484   1.102 -0.4670 -0.3216 -0.2884
40941SOL    HW228660   6.686   7.630   1.062  0.0085  0.1296  1.4225
40942SOL     OW28661   9.590   7.748   6.969 -0.4106 -0.1299  0.0605
40942SOL    HW128662   9.671   7.715   6.930  1.4785  0.7463  2.9107
40942SOL    HW228663   9.584   7.839   6.940  0.2354  0.1132  0.6576
40943SOL     OW28664   1.225   8.597   9.065  0.1672  0.4521 -0.3177
40943SOL    HW128665   1.194   8.664   9.003 -2.0585  2.0929  2.3234
40943SOL    HW228666   1.145   8.567   9.108  1.0820 -4.0193 -1.2967
40944SOL     OW28667   9.575   6.474  10.287 -0.1443 -0.4050 -0.0223
40944SOL    HW128668   9.480   6.467  10.277 -0.2336 -0.3800  0.7142
40944SOL    HW228669   9.611   6.409  10.227 -0.6066 -0.1008 -0.6340
40945SOL     OW28670   6.897   1.824   3.878  0.7383 -0.3916 -0.2017
40945SOL    HW128671   6.820   1.871   3.910 -0.2815 -1.3674 -1.1792
40945SOL    HW228672   6.868   1.778   3.799  2.3937 -0.5436 -0.7852
40946SOL     OW28673   1.641   7.571   9.329 -0.4855  0.1668 -0.4101
40946SOL    HW128674   1.677   7.497   9.280  0.7183  0.2881  0.2512
40946SOL    HW228675   1.683   7.648   9.291 -0.9038  0.4197 -0.3687
40947SOL     OW28676   5.015   1.967   4.004  0.2682 -0.3099 -0.5904
40947SOL    HW128677   5.071   2.041   3.979  2.9005 -1.7399  0.7281
40947SOL    HW228678   5.041   1.896   3.946 -0.5528 -0.8916 -0.2649
40948SOL     OW28679   0.312   0.392   8.610 -0.8096 -0.2648 -0.3075
40948SOL    HW128680   0.244   0.371   8.545  0.2522 -0.5010 -1.3610
40948SOL    HW228681   0.282   0.348   8.689 -1.2159 -1.5105 -1.1217
40949SOL     OW28682   8.290   2.745   5.220 -0.1680  0.1512 -0.0872
40949SOL    HW128683   8.205   2.789   5.214 -0.8186 -0.7271  1.8635
40949SOL    HW228684   8.346   2.807   5.268 -1.1035 -0.9958  2.7197
40950SOL     OW28685   3.018   9.153   4.581 -0.0183 -0.1375 -0.7646
40950SOL    HW128686   3.055   9.071   4.547  0.1103 -0.2494 -0.3607
40950SOL    HW228687   2.998   9.204   4.503  3.3736  1.0159 -1.0646
40951SOL     OW28688   2.021   6.022   5.793 -0.4030  0.6131 -0.6242
40951SOL    HW128689   2.066   6.002   5.711 -0.0542  1.7596 -0.7256
40951SOL    HW228690   2.043   5.949   5.851 -1.0288 -0.4515 -1.6801
40952SOL     OW28691   5.458   6.004   4.622  0.0879  0.0642  0.4651
40952SOL    HW128692   5.426   5.956   4.699  0.4629  2.4565  2.2401
40952SOL    HW228693   5.387   6.063   4.599 -0.0092 -0.6098 -1.0722
40953SOL     OW28694   0.994   5.352   5.802  0.2928  0.1127 -0.4303
40953SOL    HW128695   0.926   5.303   5.756 -0.4201  1.1424 -0.5027
40953SOL    HW228696   1.068   5.292   5.805 -1.4768 -2.2068  2.1919
40954SOL     OW28697   4.345   1.634   0.975 -0.2592  0.1723 -0.2783
40954SOL    HW128698   4.398   1.661   0.900 -1.2552  0.7246 -0.8099
40954SOL    HW228699   4.296   1.712   0.999 -1.4009 -0.5167 -0.2929
40955SOL     OW28700   7.854   1.250   8.275  0.1169 -0.0223 -0.0843
40955SOL    HW128701   7.785   1.190   8.303  0.1415  0.9403  2.2572
40955SOL    HW228702   7.935   1.206   8.299  0.1918  0.2361  0.1397
40956SOL     OW28703   0.169   7.532   8.420 -0.3931  0.0081 -0.0148
40956SOL    HW128704   0.091   7.571   8.459  0.9473  0.7673  2.0640
40956SOL    HW228705   0.242   7.583   8.456  1.0616  0.2215 -2.9096
40957SOL     OW28706   8.830   0.130   3.003 -0.6698 -0.1698 -0.4063
40957SOL    HW128707   8.918   0.149   2.971 -0.7041 -0.3396 -0.6077
40957SOL    HW228708   8.813   0.041   2.972 -0.8869 -0.1589 -0.3146
40958SOL     OW28709   9.116   4.140   3.965  0.2596  0.2287  0.0434
40958SOL    HW128710   9.065   4.188   4.031  1.8565  0.6974  0.9965
40958SOL    HW228711   9.131   4.204   3.895 -0.4005  0.0979 -0.2285
40959SOL     OW28712   6.277   3.010   2.061  0.7133 -0.4995  0.3283
40959SOL    HW128713   6.199   2.995   2.007  2.4399 -0.7291 -2.2484
40959SOL    HW228714   6.259   3.094   2.104 -0.5831 -0.0649 -0.9586
40960SOL     OW28715   6.809   7.976  10.487 -0.2070 -0.1916  0.7388
40960SOL    HW128716   6.835   8.040  10.554  0.8677 -1.7163  1.8701
40960SOL    HW228717   6.764   7.907  10.536  1.7795 -2.0127  0.2005
40961SOL     OW28718   0.033   5.178   9.849 -0.6595  0.3100 -0.1401
40961SOL    HW128719   0.057   5.133   9.930  0.8408 -0.2330 -0.8402
40961SOL    HW228720   0.098   5.248   9.840 -0.9053  0.4642 -0.7856
40962SOL     OW28721  10.206   6.357  10.611 -0.1774  0.2813 -0.3214
40962SOL    HW128722  10.298   6.329  10.609 -0.3319 -0.2101 -0.7015
40962SOL    HW228723  10.206   6.442  10.566  0.2146  0.6701  0.3935
40963SOL     OW28724   6.683   5.352   1.732 -0.8193 -0.5802 -0.1942
40963SOL    HW128725   6.603   5.399   1.756 -0.6448 -0.1498 -0.4379
40963SOL    HW228726   6.689   5.281   1.796 -0.5880  0.2965  0.7826
40964SOL     OW28727   3.513   5.418   7.137 -0.2551  0.1198 -0.0765
40964SOL    HW128728   3.550   5.394   7.222 -0.4731 -0.7250 -0.2051
40964SOL    HW228729   3.448   5.349   7.120  0.2773 -0.1172 -1.2366
40965SOL     OW28730   9.713   2.596   9.306 -0.0274 -0.2803  0.0966
40965SOL    HW128731   9.687   2.621   9.217 -0.1398  0.9793  0.4622
40965SOL    HW228732   9.793   2.647   9.322 -2.4368  3.2015  2.3579
40966SOL     OW28733   6.213   5.574   3.558 -0.1180 -0.0599  0.1903
40966SOL    HW128734   6.286   5.627   3.590 -0.2203 -0.0096  0.3455
40966SOL    HW228735   6.164   5.551   3.637  0.1541 -0.7322  0.1714
40967SOL     OW28736   0.981   1.858   6.131  0.1209 -0.1567 -0.3832
40967SOL    HW128737   1.067   1.860   6.088  0.2901  0.0862 -0.0487
40967SOL    HW228738   0.930   1.926   6.088  0.1067 -0.2838 -0.5653
40968SOL     OW28739   2.792   7.256   9.094 -0.0517  0.4655 -0.2592
40968SOL    HW128740   2.839   7.174   9.081 -1.3706 -0.3057 -0.3198
40968SOL    HW228741   2.784   7.293   9.006 -0.3193  0.1753 -0.3552
40969SOL     OW28742   0.799   0.174   0.843  0.7477 -0.3344 -0.6254
40969SOL    HW128743   0.762   0.261   0.836  1.1698 -0.1769 -0.9873
40969SOL    HW228744   0.864   0.170   0.773  0.8930 -0.8563 -0.4682
40970SOL     OW28745   2.015  10.321   2.316 -0.5754 -0.0229  0.5466
40970SOL    HW128746   2.017  10.417   2.314  0.4182  0.1270 -4.3219
40970SOL    HW228747   1.930  10.298   2.277  0.0333 -1.0335 -0.2375
40971SOL     OW28748   6.982   2.773  10.451 -0.3062 -0.0953 -0.2995
40971SOL    HW128749   6.966   2.701  10.511 -0.6570  1.2220  1.2736
40971SOL    HW228750   6.920   2.841  10.478 -1.1954  0.1852 -2.8400
40972SOL     OW28751   6.983   2.490   2.609 -0.1182  0.5612  0.0343
40972SOL    HW128752   6.911   2.465   2.551 -0.0247  0.1188  0.1103
40972SOL    HW228753   7.062   2.473   2.559  0.0241 -1.1995  0.8014
40973SOL     OW28754   2.427   1.034   7.769  0.5903 -0.1008  0.2146
40973SOL    HW128755   2.476   0.952   7.773  1.8068  0.5893 -0.0481
40973SOL    HW228756   2.439   1.073   7.856 -0.7232 -0.6020  0.6348
40974SOL     OW28757   1.804   0.465   3.313 -0.3851 -0.1449 -0.0173
40974SOL    HW128758   1.782   0.490   3.223 -0.2557  1.0555  0.2676
40974SOL    HW228759   1.821   0.548   3.358  1.7041 -0.8109  0.5604
40975SOL     OW28760   8.710   5.878  10.797 -0.0187 -0.1685  0.3545
40975SOL    HW128761   8.672   5.794  10.823 -0.3355  0.2438  1.2569
40975SOL    HW228762   8.636   5.939  10.798  0.0643 -0.0285 -1.0419
40976SOL     OW28763   2.263   0.441   8.395  0.3571  0.0551 -0.4304
40976SOL    HW128764   2.296   0.443   8.305 -0.5874  4.7268 -0.9323
40976SOL    HW228765   2.168   0.437   8.385  0.2532  0.3639  0.3463
40977SOL     OW28766  10.125  10.918   6.285 -0.2630 -0.0322  0.5510
40977SOL    HW128767  10.160  10.964   6.361 -0.7283  1.6756 -0.2102
40977SOL    HW228768  10.164  10.830   6.289 -1.5662 -0.5882  3.6389
40978SOL     OW28769   2.795   2.069   5.089 -0.3047  0.0325  0.4013
40978SOL    HW128770   2.861   2.117   5.139 -1.0797 -0.0883  1.5607
40978SOL    HW228771   2.733   2.037   5.154  0.6517 -3.4044 -0.1239
40979SOL     OW28772   1.731   6.057   0.241 -0.0937 -0.6211 -1.3048
40979SOL    HW128773   1.818   6.054   0.280 -0.8497  0.7557  0.6159
40979SOL    HW228774   1.675   6.010   0.302 -1.5999  2.9478  0.3435
40980SOL     OW28775   9.673   2.149  10.604 -0.1554 -0.3376 -0.2161
40980SOL    HW128776   9.645   2.094  10.531  0.3591  0.1195 -0.7667
40980SOL    HW228777   9.611   2.222  10.605  1.0309  0.7362 -1.5080
40981SOL     OW28778   5.459   1.587   4.305 -0.1319 -0.4908  0.5914
40981SOL    HW128779   5.426   1.653   4.244  1.8712  1.6208  1.6535
40981SOL    HW228780   5.397   1.587   4.377 -0.6811 -0.5122  0.1255
40982SOL     OW28781   0.868   7.335   8.355 -0.2305 -0.3459  0.9078
40982SOL    HW128782   0.792   7.347   8.412 -1.1717 -0.3843 -0.3056
40982SOL    HW228783   0.900   7.247   8.376  0.3617  0.2019  2.4219
40983SOL     OW28784  10.387   3.151   5.666 -0.2446 -0.0853  0.0205
40983SOL    HW128785  10.442   3.120   5.594 -1.2341 -1.6982 -0.0785
40983SOL    HW228786  10.435   3.226   5.702  0.7393  0.1505 -1.6908
40984SOL     OW28787   6.136   3.649  10.169  0.2403  0.0764 -0.0747
40984SOL    HW128788   6.141   3.558  10.141  0.3096 -0.2134  0.8537
40984SOL    HW228789   6.226   3.675  10.185  0.0921 -0.3061  1.5305
40985SOL     OW28790   9.119   2.826   2.126 -0.0301 -0.3134 -0.4332
40985SOL    HW128791   9.054   2.767   2.087 -1.6372 -0.0632  1.6661
40985SOL    HW228792   9.144   2.784   2.208 -0.3357  1.3287  0.5518
40986SOL     OW28793   2.346   7.955   2.756  0.3388  0.7324  0.6404
40986SOL    HW128794   2.440   7.968   2.743  0.2878  1.4278  0.8991
40986SOL    HW228795   2.306   8.004   2.684  0.1531  1.3921  1.1784
40987SOL     OW28796   9.325   7.061   2.136  0.2410 -0.5058  0.4394
40987SOL    HW128797   9.250   7.003   2.123  1.5792 -2.4434  0.8849
40987SOL    HW228798   9.295   7.127   2.199 -1.5976 -0.1382 -0.7452
40988SOL     OW28799   1.648   4.628   9.403 -0.7044 -0.6490 -0.5746
40988SOL    HW128800   1.562   4.593   9.380 -0.9486 -0.0236 -0.6256
40988SOL    HW228801   1.635   4.722   9.412 -0.3158 -0.6866  0.7140
40989SOL     OW28802  10.263   5.951   9.408 -0.8162  0.0300 -0.6194
40989SOL    HW128803  10.210   6.022   9.371 -0.5439  0.7912  0.4080
40989SOL    HW228804  10.353   5.984   9.403 -0.9104  1.0838  2.5573
40990SOL     OW28805   7.302   0.766   6.627  0.3077 -0.6516 -1.0122
40990SOL    HW128806   7.341   0.784   6.713  1.1865 -0.9307 -1.3354
40990SOL    HW228807   7.330   0.676   6.607  0.8289 -0.2850 -1.9682
40991SOL     OW28808   1.719   4.554   9.804  0.6645  0.3696 -0.1240
40991SOL    HW128809   1.626   4.529   9.801  1.3029 -2.5446  0.6158
40991SOL    HW228810   1.753   4.527   9.718  1.4802 -1.9977  0.8662
40992SOL     OW28811   1.244   5.217   5.830 -0.4086  0.5349  0.2532
40992SOL    HW128812   1.294   5.136   5.819  0.0533  0.2052  3.7757
40992SOL    HW228813   1.309   5.286   5.817 -0.4080  0.3236 -0.9862
40993SOL     OW28814   0.651   4.859  10.505 -0.0556  0.3648  0.4989
40993SOL    HW128815   0.709   4.791  10.539  0.3114  0.3433 -0.1457
40993SOL    HW228816   0.706   4.909  10.445 -1.2350 -1.0396 -1.9083
40994SOL     OW28817   6.867   0.376   4.525  0.2034  0.5622  0.0368
40994SOL    HW128818   6.916   0.457   4.538  0.5977  0.4019 -0.4040
40994SOL    HW228819   6.788   0.403   4.478  0.2403  0.7183  0.0637
40995SOL     OW28820   6.492  10.366   0.498  0.3460  0.5699 -0.0031
40995SOL    HW128821   6.477  10.349   0.405  0.4828  0.3285  0.0190
40995SOL    HW228822   6.565  10.428   0.499  2.0294 -1.3085  0.0067
40996SOL     OW28823   8.604   3.340   3.674  0.0350  0.2256  0.2295
40996SOL    HW128824   8.562   3.286   3.607  0.5403 -0.8571  0.7388
40996SOL    HW228825   8.698   3.333   3.655  0.1245  0.6463  0.5043
40997SOL     OW28826   0.283   5.023   9.577 -0.0039 -0.3235 -0.1461
40997SOL    HW128827   0.203   5.067   9.547 -0.3381 -0.9801 -0.2458
40997SOL    HW228828   0.284   4.940   9.529  1.6020  0.3649 -1.4013
40998SOL     OW28829   2.739   5.878   3.985  0.2589  0.0828 -0.4512
40998SOL    HW128830   2.733   5.963   3.942  2.5250  0.8910  0.6495
40998SOL    HW228831   2.761   5.817   3.915  2.4491  1.1195 -0.7609
40999SOL     OW28832   8.568   8.909   9.201 -0.2823 -0.3465  0.2603
40999SOL    HW128833   8.497   8.972   9.191  0.5231  0.7415  1.0576
40999SOL    HW228834   8.559   8.850   9.126 -1.4277  0.3463 -0.1776
41000SOL     OW28835   1.589   4.965   2.521  0.2520  0.3149  0.1378
41000SOL    HW128836   1.579   4.906   2.447 -1.8949  0.7624  0.0133
41000SOL    HW228837   1.553   4.916   2.596  2.6068 -0.2312  1.0091
41001SOL     OW28838   2.653   3.197   4.992  0.1489  0.2248 -0.1725
41001SOL    HW128839   2.599   3.209   4.914  1.0163 -2.3214 -1.2772
41001SOL    HW228840   2.595   3.217   5.065 -1.2515  0.8713 -1.4225
41002SOL     OW28841   5.984   0.302   7.787 -0.1688  0.0860  0.4959
41002SOL    HW128842   6.023   0.308   7.699  2.5419 -2.2070  1.4067
41002SOL    HW228843   6.014   0.218   7.821 -1.4438  0.7314  3.5238
41003SOL     OW28844   9.848   0.145   9.287  0.4893  0.2288 -0.0384
41003SOL    HW128845   9.800   0.219   9.325  0.7573  1.1625 -1.4236
41003SOL    HW228846   9.794   0.118   9.212  1.2085  0.1169 -0.5290
41004SOL     OW28847  10.288  10.558   5.047 -0.1596  0.0220  0.2298
41004SOL    HW128848  10.230  10.490   5.014  0.9632 -1.0552  0.3733
41004SOL    HW228849  10.313  10.609   4.970  0.7068 -1.1112 -0.2697
41005SOL     OW28850   8.213   7.113   2.873  0.0915 -0.4753  0.3220
41005SOL    HW128851   8.143   7.047   2.868  0.0862 -0.4193 -0.7636
41005SOL    HW228852   8.224   7.142   2.782 -1.5672  2.7574  0.9752
41006SOL     OW28853   8.139   1.193   0.632  0.1067  0.2758 -0.4334
41006SOL    HW128854   8.045   1.175   0.626 -0.0508  0.9437 -0.1360
41006SOL    HW228855   8.177   1.149   0.557 -0.5963  0.9356 -1.2042
41007SOL     OW28856   9.966   8.793   1.956  0.3360 -0.1009  0.2378
41007SOL    HW128857   9.897   8.856   1.978 -0.1095 -0.1075 -1.0450
41007SOL    HW228858   9.973   8.738   2.033  0.1462  0.9979  1.0684
41008SOL     OW28859   9.865   2.639   3.158  0.1595  0.1742  0.0864
41008SOL    HW128860   9.899   2.549   3.164  0.2852 -0.0018 -2.1374
41008SOL    HW228861   9.796   2.633   3.091 -1.2769  1.3755  1.3896
41009SOL     OW28862   2.084   6.618   2.860 -0.1204  0.3506  0.7597
41009SOL    HW128863   2.011   6.556   2.860  0.8316 -0.8086  1.6261
41009SOL    HW228864   2.097   6.640   2.952 -0.2709  1.6559  0.4851
41010SOL     OW28865   7.809   4.916   2.664 -0.2053 -0.0310 -0.2558
41010SOL    HW128866   7.804   4.973   2.587  0.6784 -0.8046 -0.9186
41010SOL    HW228867   7.868   4.963   2.724 -1.9669  1.2257  0.5688
41011SOL     OW28868   1.689   6.276   4.943  0.4933  0.0285 -0.0235
41011SOL    HW128869   1.631   6.213   4.900  0.9579 -1.3744  1.2938
41011SOL    HW228870   1.631   6.343   4.978 -0.2105 -0.6715  0.1748
41012SOL     OW28871   9.000   4.158   2.372 -0.2852 -0.1086  0.1141
41012SOL    HW128872   8.961   4.184   2.455 -0.3437 -0.8988  0.3407
41012SOL    HW228873   8.993   4.236   2.317  0.6096  0.7120  1.1383
41013SOL     OW28874   5.016   8.430   7.147  0.0918  0.8423 -0.3185
41013SOL    HW128875   4.969   8.510   7.170  1.1085  1.0844  1.0253
41013SOL    HW228876   4.954   8.360   7.166 -1.0942  1.2858 -2.2387
41014SOL     OW28877   0.838   5.797   3.457 -0.0845  0.4818  0.2063
41014SOL    HW128878   0.891   5.875   3.444  0.7974 -0.1313  0.0510
41014SOL    HW228879   0.850   5.776   3.550  2.9007 -1.7009 -0.5405
41015SOL     OW28880   8.180   0.112  10.106 -0.5674  0.3298 -0.9420
41015SOL    HW128881   8.229   0.179  10.155  1.4565 -1.5456 -0.2380
41015SOL    HW228882   8.096   0.106  10.152  0.5213  0.0440  1.1786
41016SOL     OW28883   1.788   1.720   2.739 -0.3911 -0.0726  0.4183
41016SOL    HW128884   1.716   1.686   2.791 -0.0681 -0.8673  0.3555
41016SOL    HW228885   1.750   1.795   2.692 -1.5898 -1.3148 -0.7038
41017SOL     OW28886   9.687   1.029  10.294  0.0873 -0.3775 -0.2010
41017SOL    HW128887   9.710   1.047  10.203  0.2143  1.7047  0.1970
41017SOL    HW228888   9.748   1.082  10.345 -1.6055  0.4848  1.0245
41018SOL     OW28889   6.912   3.374   4.354  0.0689 -0.0922  0.1083
41018SOL    HW128890   6.864   3.407   4.431 -0.1784 -0.3175  0.0541
41018SOL    HW228891   6.844   3.360   4.288  0.2050 -0.4561  0.0445
41019SOL     OW28892   6.624   6.397   9.345 -0.3539  0.4899  0.0863
41019SOL    HW128893   6.636   6.417   9.252 -0.4699 -1.8234 -0.4846
41019SOL    HW228894   6.707   6.356   9.371  0.2503  2.4258  1.4524
41020SOL     OW28895   8.179   2.097   9.892 -0.4226  0.6599  0.1491
41020SOL    HW128896   8.256   2.139   9.931 -0.0729 -0.7017  0.9706
41020SOL    HW228897   8.130   2.062   9.966 -1.4181  0.7746 -0.4298
41021SOL     OW28898  10.229   7.940   1.141 -0.5940 -0.3743 -0.1001
41021SOL    HW128899  10.198   7.894   1.219  0.3536  0.0630  0.5533
41021SOL    HW228900  10.317   7.906   1.127 -1.1616 -1.2707 -1.6634
41022SOL     OW28901   8.688   7.088   7.320 -0.6233 -0.1004  0.3110
41022SOL    HW128902   8.777   7.056   7.333 -0.5643 -0.2385 -0.3903
41022SOL    HW228903   8.656   7.039   7.244  0.5020  3.5128 -2.7954
41023SOL     OW28904   7.881   3.925   6.165 -0.2950 -0.1680  0.0829
41023SOL    HW128905   7.901   3.836   6.136 -0.0117  0.1706 -0.8128
41023SOL    HW228906   7.818   3.958   6.101  0.6451  0.7424 -0.3983
41024SOL     OW28907   0.800   6.548   2.309  0.0048  0.4212 -0.0720
41024SOL    HW128908   0.800   6.525   2.216  1.6923  1.5764 -0.3971
41024SOL    HW228909   0.829   6.469   2.354  0.4062  0.2372 -0.6458
41025SOL     OW28910   2.969   4.891   3.286  0.1086  0.1814  0.0469
41025SOL    HW128911   2.882   4.896   3.245  0.7356  1.9816 -1.1657
41025SOL    HW228912   2.988   4.798   3.290 -1.8386 -0.2628  0.2936
41026SOL     OW28913   4.949   2.369  10.192  0.2024 -0.0848  0.2464
41026SOL    HW128914   5.013   2.306  10.225  1.3018  0.6409 -0.4418
41026SOL    HW228915   4.996   2.453  10.189 -0.3761  0.2232 -1.4811
41027SOL     OW28916   7.845   0.380   5.397 -0.2525 -0.0883  0.4229
41027SOL    HW128917   7.900   0.447   5.438  0.0508 -0.2654  0.3156
41027SOL    HW228918   7.757   0.396   5.432  0.2331 -1.0735  2.2277
41028SOL     OW28919   7.678   7.708   5.093  0.1979  0.2284 -0.3652
41028SOL    HW128920   7.687   7.791   5.045 -1.3044 -0.3270 -1.6850
41028SOL    HW228921   7.736   7.647   5.047  0.0219  0.1203 -0.4445
41029SOL     OW28922   0.504   5.924   3.480  0.2982 -0.1539  0.5912
41029SOL    HW128923   0.519   5.836   3.445  0.7361  0.2924 -0.3804
41029SOL    HW228924   0.438   5.912   3.549  0.4858 -1.2621  0.5888
41030SOL     OW28925   3.552   0.519   8.581  0.7641 -0.0808 -0.2787
41030SOL    HW128926   3.495   0.593   8.562 -0.5011 -1.1804 -0.8831
41030SOL    HW228927   3.568   0.525   8.676  1.6687  1.6147 -0.4995
41031SOL     OW28928   8.102   7.067   6.625 -0.0015  0.0799 -0.3947
41031SOL    HW128929   8.176   7.034   6.676 -0.6769  0.5702  0.9545
41031SOL    HW228930   8.038   6.996   6.625 -0.6457  0.6445  0.8145
41032SOL     OW28931  10.102   6.701   8.006  0.0700  0.1846 -0.5136
41032SOL    HW128932  10.093   6.717   7.912  2.0821  2.3089 -0.4487
41032SOL    HW228933  10.139   6.612   8.012  1.2346  0.5401 -1.8487
41033SOL     OW28934   3.464   0.991   1.389  0.9353  0.6244  0.3675
41033SOL    HW128935   3.521   1.009   1.464 -0.8279 -1.2120  2.2932
41033SOL    HW228936   3.401   0.927   1.422 -0.6267  0.5796 -2.4039
41034SOL     OW28937  10.180   4.605   0.422  0.1390 -0.1944  0.1155
41034SOL    HW128938  10.131   4.579   0.344  0.2738  0.4063 -0.1775
41034SOL    HW228939  10.143   4.553   0.493 -0.1870 -0.5313 -0.2988
41035SOL     OW28940   8.993   8.932   9.366  0.8439  0.1878  0.3271
41035SOL    HW128941   9.020   8.866   9.302 -3.3634 -0.0646 -1.4649
41035SOL    HW228942   8.978   8.882   9.446 -3.3583 -1.5536 -1.2788
41036SOL     OW28943   1.958   5.303  10.187 -0.5502  0.0272  0.6331
41036SOL    HW128944   1.952   5.208  10.180  0.8374  0.0556 -1.9777
41036SOL    HW228945   2.051   5.321  10.195 -0.5755  1.2416 -1.2938
41037SOL     OW28946   8.738   2.333   5.766  0.6745  0.3853  0.3380
41037SOL    HW128947   8.802   2.403   5.756  1.8366 -0.3723  1.9642
41037SOL    HW228948   8.782   2.267   5.820 -0.6321 -1.2779 -0.5117
41038SOL     OW28949  10.009   7.066   7.099 -0.1121 -0.4008  0.0705
41038SOL    HW128950  10.068   7.031   7.166 -0.6223  1.6641  1.7073
41038SOL    HW228951  10.067   7.108   7.036  0.2772  1.1639  1.3985
41039SOL     OW28952   8.309   5.313   0.882  0.0570 -0.3656  0.0716
41039SOL    HW128953   8.335   5.237   0.830  0.6644 -0.0949 -0.0348
41039SOL    HW228954   8.336   5.388   0.830 -1.5586 -0.0376 -0.3495
41040SOL     OW28955   7.503  10.141   5.312 -0.0413 -0.7529 -0.1703
41040SOL    HW128956   7.487  10.072   5.375  0.4238 -0.3406  0.4052
41040SOL    HW228957   7.475  10.104   5.228 -2.5057 -0.6360  0.5236
41041SOL     OW28958   4.676   7.240   9.939 -0.0433 -0.0487 -0.2932
41041SOL    HW128959   4.737   7.313   9.948 -0.2958  0.2137 -0.6756
41041SOL    HW228960   4.722   7.165   9.977 -0.8322  0.8567  2.7043
41042SOL     OW28961   8.298   5.078   7.261 -0.1234 -0.0849 -0.2681
41042SOL    HW128962   8.256   5.000   7.226 -0.4283  0.0187 -0.1382
41042SOL    HW228963   8.239   5.108   7.330  1.2398 -1.1692  1.4282
41043SOL     OW28964   1.090   6.868   0.708  0.3715  0.8680  0.4354
41043SOL    HW128965   1.099   6.804   0.638  3.5387 -0.4517  1.8230
41043SOL    HW228966   1.077   6.815   0.787  2.1852  1.8945  1.4950
41044SOL     OW28967   8.416   9.646   5.389 -0.6018  0.2213 -0.4895
41044SOL    HW128968   8.414   9.733   5.431  0.6848  0.3850 -0.7367
41044SOL    HW228969   8.394   9.585   5.460 -1.4996  0.7420 -0.3095
41045SOL     OW28970   5.692   4.184   1.920 -0.0193 -0.2005  0.0233
41045SOL    HW128971   5.662   4.143   1.838  0.0087 -0.3766  0.0995
41045SOL    HW228972   5.736   4.264   1.892  1.5573 -1.1240 -0.2818
41046SOL     OW28973   9.324   3.853   5.064  0.7204  0.4620 -0.3059
41046SOL    HW128974   9.233   3.878   5.049  0.1450 -1.0429  0.5209
41046SOL    HW228975   9.370   3.882   4.985 -0.4655  1.2212 -0.7463
41047SOL     OW28976   2.610   3.058   3.604  0.2416 -0.0624 -0.0219
41047SOL    HW128977   2.604   2.979   3.658  0.6613  1.0439  1.6842
41047SOL    HW228978   2.571   3.031   3.520 -2.0906 -1.3507  1.3464
41048SOL     OW28979   7.140   8.022   8.968 -0.8201 -0.1153  0.3133
41048SOL    HW128980   7.115   7.930   8.961  0.5902 -0.4272 -1.6241
41048SOL    HW228981   7.147   8.052   8.877  3.6514  0.4413  0.6222
41049SOL     OW28982   1.998   2.714   1.258 -0.3950  0.4752  0.2214
41049SOL    HW128983   1.924   2.770   1.282 -0.2240  0.2569  1.2801
41049SOL    HW228984   2.072   2.774   1.252 -0.2204  0.3845  1.3164
41050SOL     OW28985   0.945   7.348   6.314 -0.3349 -0.0880  0.3485
41050SOL    HW128986   0.904   7.302   6.240  1.4346 -0.5558 -0.3825
41050SOL    HW228987   0.997   7.417   6.273  0.0097  0.1838  1.2249
41051SOL     OW28988   7.742   4.483   2.034  0.0215  0.3927 -0.2741
41051SOL    HW128989   7.760   4.420   1.964 -0.1380 -1.4092  1.2189
41051SOL    HW228990   7.819   4.479   2.091 -0.2954  1.0170  0.2102
41052SOL     OW28991   0.387   1.522   6.304 -0.1854  0.1922  0.0174
41052SOL    HW128992   0.403   1.609   6.269 -1.3824 -0.1102 -1.3811
41052SOL    HW228993   0.346   1.474   6.232  0.3777 -1.5084  0.7748
41053SOL     OW28994   1.943   8.188   9.185  0.5363  0.0342  0.1206
41053SOL    HW128995   1.985   8.224   9.264 -0.7834  0.1532  0.7868
41053SOL    HW228996   1.984   8.237   9.113 -0.3478  2.0865  0.9290
41054SOL     OW28997   1.492   0.156   4.605 -0.0246 -0.4222 -0.3054
41054SOL    HW128998   1.586   0.163   4.621  0.3157 -1.3751 -1.6905
41054SOL    HW228999   1.462   0.089   4.667  0.2614 -0.2924 -0.0289
41055SOL     OW29000  10.323   5.937   7.800 -0.2588  0.2103  0.4341
41055SOL    HW129001  10.291   5.928   7.710  1.9321  0.5221 -0.4349
41055SOL    HW229002  10.310   5.850   7.839  1.4515 -0.8161 -1.1492
41056SOL     OW29003   8.838   3.729   4.451  0.4215  0.0460 -0.2843
41056SOL    HW129004   8.904   3.793   4.478 -1.6803  1.2128  2.6517
41056SOL    HW229005   8.860   3.651   4.501 -0.8441  0.7365  1.4420
41057SOL     OW29006   6.528   3.916   4.478 -0.1230 -0.2103  0.1998
41057SOL    HW129007   6.577   3.976   4.534  1.0398 -1.4786  0.6036
41057SOL    HW229008   6.593   3.883   4.416 -1.0725  0.0660 -0.9766
41058SOL     OW29009   4.798   7.000   7.422 -0.1206 -0.1565  0.4887
41058SOL    HW129010   4.834   7.062   7.359 -0.2153 -0.0662  0.5236
41058SOL    HW229011   4.703   7.015   7.419 -0.5033 -2.4336 -1.7928
41059SOL     OW29012   5.827   8.252   9.687  0.5126  0.0099  0.2532
41059SOL    HW129013   5.781   8.329   9.654  1.1149  1.2683  2.1996
41059SOL    HW229014   5.905   8.286   9.730  0.2910 -1.5453  2.0620
41060SOL     OW29015   0.447   4.494   1.676 -0.0443 -0.4973 -0.0310
41060SOL    HW129016   0.476   4.580   1.706  2.6579 -1.2833 -0.0991
41060SOL    HW229017   0.474   4.434   1.745 -1.7220 -1.3531 -0.0668
41061SOL     OW29018   8.356   3.865   0.337 -0.8342  0.6287 -0.1614
41061SOL    HW129019   8.365   3.959   0.322  0.5756  0.4285 -0.7142
41061SOL    HW229020   8.268   3.844   0.306 -1.1622  1.7502 -0.0418
41062SOL     OW29021   1.728   0.277   9.584  0.0054 -0.4870 -0.3178
41062SOL    HW129022   1.796   0.218   9.552 -1.0052 -0.6222 -2.3465
41062SOL    HW229023   1.749   0.362   9.543  0.2111  0.0464  0.8498
41063SOL     OW29024   6.312   1.375   4.400  0.1605 -0.1663  0.2198
41063SOL    HW129025   6.289   1.452   4.452  0.7519  0.2406 -0.1007
41063SOL    HW229026   6.256   1.305   4.433  0.5881  0.0594  1.4491
41064SOL     OW29027   5.787   0.038   5.035 -0.3424  0.2801 -0.0842
41064SOL    HW129028   5.803   0.132   5.028 -1.1963  0.5401  1.2301
41064SOL    HW229029   5.759   0.024   5.125 -1.0707 -1.1156 -0.4952
41065SOL     OW29030   0.088   6.281   9.885  0.0150 -0.2350 -0.1757
41065SOL    HW129031   0.064   6.282   9.793  2.5008 -2.0947 -0.9224
41065SOL    HW229032   0.022   6.225   9.927 -0.2716 -0.5923 -1.0936
41066SOL     OW29033   7.689   3.927   6.340 -0.0269  0.3346 -0.9767
41066SOL    HW129034   7.771   3.928   6.291  0.3416 -0.9715 -0.4443
41066SOL    HW229035   7.639   3.854   6.302 -1.0647  1.2695 -1.4620
41067SOL     OW29036   4.390  10.713   5.500  0.1596 -0.1322  0.3631
41067SOL    HW129037   4.395  10.639   5.439  0.5225  0.5458 -0.4409
41067SOL    HW229038   4.466  10.703   5.557  0.4051 -0.1779  0.0271
41068SOL     OW29039   7.234   3.572   8.634  0.0129 -0.7317  0.1734
41068SOL    HW129040   7.210   3.630   8.562 -1.0855 -0.8448  0.4348
41068SOL    HW229041   7.197   3.487   8.610 -2.2958 -0.2978  1.8367
41069SOL     OW29042   5.375   8.548   5.405 -0.2343 -0.8039 -0.6983
41069SOL    HW129043   5.297   8.501   5.375 -0.5625 -0.0186 -1.0993
41069SOL    HW229044   5.445   8.518   5.348 -0.7198  0.1897 -1.8458
41070SOL     OW29045   8.257   7.779   7.847  0.3709 -0.1772  0.3255
41070SOL    HW129046   8.214   7.730   7.777 -2.1387  0.0862  1.5588
41070SOL    HW229047   8.293   7.856   7.804  0.6603 -1.0243 -0.9784
41071SOL     OW29048  10.790   7.692   8.904 -0.1358  0.0198 -0.2860
41071SOL    HW129049  10.882   7.696   8.932  0.0965 -2.3404 -0.5616
41071SOL    HW229050  10.740   7.690   8.986  0.1832 -0.8004 -0.1108
41072SOL     OW29051   2.092   2.728   3.685  0.1849  0.1391 -0.1261
41072SOL    HW129052   2.094   2.633   3.673 -2.4051 -0.2222  1.5491
41072SOL    HW229053   2.010   2.756   3.645  1.4548  1.9505 -1.6874
41073SOL     OW29054   9.943  10.510  10.567  0.1261  0.5976  0.4900
41073SOL    HW129055   9.848  10.502  10.554 -0.0080  0.2467  1.5433
41073SOL    HW229056   9.957  10.478  10.656  1.1387  1.3838  0.6299
41074SOL     OW29057   3.839   3.605   8.288  0.1914 -0.4919 -0.1957
41074SOL    HW129058   3.777   3.544   8.248  0.8921  0.0306 -2.1718
41074SOL    HW229059   3.893   3.550   8.345 -1.3579 -1.1137  0.7600
41075SOL     OW29060   6.074   4.705   3.046 -0.0908 -0.6464 -0.0037
41075SOL    HW129061   6.150   4.650   3.062 -0.0682 -0.4458  0.6002
41075SOL    HW229062   6.027   4.706   3.129 -0.2497 -0.0038 -0.0952
41076SOL     OW29063   3.094   3.360   7.387 -0.2596 -0.1066 -0.2023
41076SOL    HW129064   3.007   3.399   7.384 -1.1060 -1.9460 -1.2798
41076SOL    HW229065   3.149   3.421   7.339 -0.5301  1.9125  1.8690
41077SOL     OW29066   0.764   5.335   2.355 -0.0676 -0.0050  0.3005
41077SOL    HW129067   0.784   5.428   2.363  2.0459 -0.4450  0.8340
41077SOL    HW229068   0.820   5.293   2.420  0.6961 -1.8209 -1.4128
41078SOL     OW29069   7.027  10.795   8.542 -0.2465 -0.0374  0.1386
41078SOL    HW129070   6.988  10.848   8.472 -0.4954 -1.8305 -1.1632
41078SOL    HW229071   6.958  10.733   8.567  0.0225  0.2282  1.6330
41079SOL     OW29072  10.462   4.107   1.554  0.0942  0.1381 -0.2290
41079SOL    HW129073  10.554   4.107   1.528  0.0776 -0.1664 -0.2944
41079SOL    HW229074  10.456   4.172   1.624  0.4894 -0.3239  0.2420
41080SOL     OW29075   1.404   5.146   4.549 -0.2776  0.0909 -0.1321
41080SOL    HW129076   1.309   5.147   4.541 -0.2641  1.6600 -0.4701
41080SOL    HW229077   1.434   5.099   4.471 -0.7611 -0.2276 -0.1327
41081SOL     OW29078   5.498   0.572   2.695  0.1435  0.1952  0.0232
41081SOL    HW129079   5.560   0.610   2.632 -1.0639  1.3113 -0.5233
41081SOL    HW229080   5.486   0.640   2.761 -0.8232  0.1696 -0.1101
41082SOL     OW29081   1.365   1.905   0.853  0.4046  0.2826 -0.2360
41082SOL    HW129082   1.346   1.875   0.942  0.5867  1.0928  0.0878
41082SOL    HW229083   1.460   1.908   0.848  0.4075  1.6716  0.0680
41083SOL     OW29084   3.582   9.644   9.143  0.3077 -0.0529 -0.1130
41083SOL    HW129085   3.512   9.579   9.150  0.2441  0.0389  0.1134
41083SOL    HW229086   3.540   9.721   9.104 -0.3702  0.9330  2.3535
41084SOL     OW29087   1.069   2.225   4.221 -0.3601 -0.2149  0.0303
41084SOL    HW129088   1.022   2.186   4.147 -1.8905  1.2535  0.1776
41084SOL    HW229089   1.148   2.171   4.229 -1.2251 -1.7886 -1.2434
41085SOL     OW29090   2.255   6.128   5.428  0.5235 -0.0576  0.4597
41085SOL    HW129091   2.238   6.079   5.509  0.2971  0.5000  0.7547
41085SOL    HW229092   2.169   6.160   5.401  0.5481 -0.5208 -0.1918
41086SOL     OW29093   7.507   8.404   6.326  0.0348  0.2673 -0.3836
41086SOL    HW129094   7.545   8.321   6.296  0.4336  0.0007  0.8065
41086SOL    HW229095   7.538   8.469   6.263 -1.7806 -0.7221 -2.4492
41087SOL     OW29096   9.546   0.266   5.968 -0.4692 -0.4967  0.2185
41087SOL    HW129097   9.598   0.315   5.904 -2.4396 -1.0187 -1.9001
41087SOL    HW229098   9.581   0.293   6.053  1.6303  0.9483 -1.0242
41088SOL     OW29099   7.597   0.720   5.158  0.3857  1.3721  0.0216
41088SOL    HW129100   7.553   0.743   5.240 -0.8352 -0.3401 -0.1034
41088SOL    HW229101   7.526   0.697   5.098  1.3776 -1.1412 -0.3044
41089SOL     OW29102   7.715   5.254   3.701 -0.9719  0.3630  0.2458
41089SOL    HW129103   7.681   5.340   3.723 -0.5814  1.9232 -4.2625
41089SOL    HW229104   7.810   5.265   3.696 -0.9505 -0.1029 -0.8849
41090SOL     OW29105   3.829  10.243   2.790 -0.2392  0.1535 -0.2628
41090SOL    HW129106   3.924  10.241   2.804 -0.1517  0.0514 -0.8475
41090SOL    HW229107   3.793  10.191   2.862  0.2569 -1.0938 -0.8827
41091SOL     OW29108   7.247  10.054   5.468 -0.0277  0.1823  0.1093
41091SOL    HW129109   7.184  10.008   5.524  0.8120 -0.6693  0.3735
41091SOL    HW229110   7.330  10.046   5.514  0.3787  0.8594 -0.4872
41092SOL     OW29111   1.599   6.756   6.747  0.3635 -0.0624  0.1647
41092SOL    HW129112   1.562   6.797   6.669  1.1424  2.4636  1.0323
41092SOL    HW229113   1.556   6.671   6.752  1.0526 -0.8083 -3.5800
41093SOL     OW29114   9.357   7.573   9.310  0.4617  0.3307 -0.2961
41093SOL    HW129115   9.273   7.619   9.309 -0.2811 -0.8434  2.0908
41093SOL    HW229116   9.334   7.482   9.292  1.0649 -0.1751  1.3786
41094SOL     OW29117   3.484   8.213   2.761  0.7587  0.5200 -0.4152
41094SOL    HW129118   3.448   8.168   2.685 -1.3293  1.3356  0.0303
41094SOL    HW229119   3.502   8.143   2.824  0.3153  0.0446 -0.8034
41095SOL     OW29120  10.857   6.286   7.446  0.4512  0.2749  0.5859
41095SOL    HW129121  10.911   6.338   7.387  0.7376 -1.5801 -0.8536
41095SOL    HW229122  10.918   6.227   7.490 -0.1197 -0.2076  0.7401
41096SOL     OW29123   2.105   1.655   8.920  0.2436 -0.1093  0.4233
41096SOL    HW129124   2.076   1.621   8.835  0.2977  0.9926 -0.0461
41096SOL    HW229125   2.178   1.598   8.945 -0.2263 -0.8861  0.0799
41097SOL     OW29126   0.414   0.892  10.463  0.0599  0.4671  0.3632
41097SOL    HW129127   0.338   0.837  10.478  0.4890  0.0732  1.1497
41097SOL    HW229128   0.389   0.948  10.389 -1.2028  0.7628  0.9915
41098SOL     OW29129   0.894   2.988   7.834 -0.5547  0.1644 -0.1679
41098SOL    HW129130   0.968   3.009   7.778  1.0801  0.9087  2.1162
41098SOL    HW229131   0.855   3.072   7.857 -0.3821 -0.0071  0.8186
41099SOL     OW29132   6.517   3.700   0.944  0.2931  0.2644  0.5777
41099SOL    HW129133   6.463   3.777   0.926 -0.4679 -0.4832 -0.4932
41099SOL    HW229134   6.561   3.682   0.860 -0.3683 -1.0805  0.5006
41100SOL     OW29135   5.815   2.887   1.093  0.1621  0.1402  0.2975
41100SOL    HW129136   5.779   2.961   1.142 -1.9581  0.6245 -1.7945
41100SOL    HW229137   5.754   2.815   1.110 -0.4367  0.2326 -1.2669
41101SOL     OW29138   3.922   8.040   8.183  0.2043 -0.4442  0.0150
41101SOL    HW129139   3.837   8.000   8.164 -0.5313  0.7836  0.6251
41101SOL    HW229140   3.921   8.122   8.134  1.1256 -0.5111 -0.1243
41102SOL     OW29141   9.736   1.394   6.746 -0.7269 -0.2062  0.1868
41102SOL    HW129142   9.823   1.394   6.706 -0.8621  1.0623 -0.1558
41102SOL    HW229143   9.725   1.483   6.779 -1.6734 -0.5141  0.7402
41103SOL     OW29144   8.803   2.319   7.557 -0.1885 -0.6447  0.0348
41103SOL    HW129145   8.801   2.414   7.552  1.6776 -0.4579  1.6776
41103SOL    HW229146   8.717   2.295   7.590  0.0629  0.7009  1.8225
41104SOL     OW29147  10.778   9.522   3.917 -0.2013  0.3134  0.6028
41104SOL    HW129148  10.710   9.533   3.851  0.0223 -0.3522  0.2459
41104SOL    HW229149  10.740   9.556   3.998 -1.1992 -0.6565  0.5574
41105SOL     OW29150  10.843   2.421   3.609 -0.4793  0.0820  0.1244
41105SOL    HW129151  10.806   2.394   3.524 -0.7594  0.4320  0.1343
41105SOL    HW229152  10.923   2.469   3.586  0.0537 -0.7896  0.1083
41106SOL     OW29153   8.910   7.138   6.720 -0.2794 -0.2851  0.8725
41106SOL    HW129154   8.900   7.230   6.696  2.3895 -0.4869 -1.7412
41106SOL    HW229155   8.930   7.139   6.813  2.0095  2.1180  0.4821
41107SOL     OW29156   4.477   0.408   3.755  0.1532 -0.0759 -0.5074
41107SOL    HW129157   4.424   0.465   3.699  0.6838 -1.2839 -2.3559
41107SOL    HW229158   4.430   0.324   3.755 -0.0624  0.0177  1.2795
41108SOL     OW29159   5.228  10.289   4.185 -0.0758 -0.5540 -0.1975
41108SOL    HW129160   5.245  10.344   4.108  0.9446 -0.0662  0.3597
41108SOL    HW229161   5.215  10.351   4.256  0.0429 -1.0250  0.2399
41109SOL     OW29162   0.283   1.038   1.316  0.1472 -0.1700  0.4429
41109SOL    HW129163   0.300   0.944   1.324  1.4356 -0.0191 -0.2112
41109SOL    HW229164   0.194   1.049   1.350 -0.3645 -1.7480 -0.2518
41110SOL     OW29165   1.941   7.813   6.829 -0.2405  0.3852 -0.3754
41110SOL    HW129166   1.940   7.805   6.733  1.4391  2.1655 -0.6009
41110SOL    HW229167   2.023   7.859   6.848 -0.4004 -0.1758  1.9647
41111SOL     OW29168   4.116   8.830   2.475 -0.0546 -0.0808 -0.3293
41111SOL    HW129169   4.113   8.814   2.569  0.2512  1.4277 -0.0314
41111SOL    HW229170   4.144   8.922   2.468  1.2999 -0.5645 -1.9054
41112SOL     OW29171  10.178   4.205   0.923 -0.2083 -0.2069  0.2154
41112SOL    HW129172  10.239   4.175   0.856  0.7263 -1.3913  1.5329
41112SOL    HW229173  10.228   4.201   1.004 -2.0086 -1.2022  1.3485
41113SOL     OW29174   6.727   8.052   8.969  0.0222 -0.3559 -0.1233
41113SOL    HW129175   6.778   8.082   9.043  0.7453 -3.0456  0.5900
41113SOL    HW229176   6.669   7.985   9.005 -1.4503  0.0504 -1.5713
41114SOL     OW29177   2.915   0.116   7.774 -0.3059  0.2773  0.7416
41114SOL    HW129178   2.836   0.114   7.719 -0.0822 -2.7655  0.3559
41114SOL    HW229179   2.983   0.152   7.716 -1.2269  2.5469  0.9530
41115SOL     OW29180   1.070   9.129   5.308  0.2370  0.0888 -0.0841
41115SOL    HW129181   1.110   9.181   5.238  3.7490 -1.5913  0.4549
41115SOL    HW229182   0.996   9.086   5.266  0.0065  1.9272 -1.7255
41116SOL     OW29183   4.841   3.740   6.761 -0.8798 -0.2000  0.1267
41116SOL    HW129184   4.889   3.683   6.820 -0.7754  0.5097  0.7374
41116SOL    HW229185   4.797   3.680   6.700  1.2884 -0.8531 -0.8840
41117SOL     OW29186   1.589   6.893   8.367 -0.4170  0.0298 -0.0531
41117SOL    HW129187   1.660   6.870   8.306  0.3107 -0.8592  1.0612
41117SOL    HW229188   1.532   6.816   8.367 -1.3360  0.7055 -0.8692
41118SOL     OW29189   9.717   0.767   9.478 -0.2329 -0.7395  0.2047
41118SOL    HW129190   9.741   0.682   9.441  1.9088  0.2031 -0.7314
41118SOL    HW229191   9.642   0.796   9.425  0.7599 -0.8603 -1.3428
41119SOL     OW29192   7.373   5.529   3.310  0.2738  0.4073  0.1766
41119SOL    HW129193   7.308   5.589   3.272  1.8675  2.2505  0.1980
41119SOL    HW229194   7.417   5.581   3.377  2.0174 -0.6657 -0.0786
41120SOL     OW29195   1.540   4.137   0.564 -0.6910 -0.2920 -0.0306
41120SOL    HW129196   1.535   4.082   0.642 -1.6997 -3.9502 -2.4425
41120SOL    HW229197   1.615   4.104   0.515 -0.1247  1.8602 -0.7434
41121SOL     OW29198   7.331   5.640   1.047  0.3047  0.4172  0.1668
41121SOL    HW129199   7.236   5.649   1.033  0.6151  0.8287 -1.9628
41121SOL    HW229200   7.339   5.557   1.095 -1.1371  0.3526  0.3626
41122SOL     OW29201   7.836   9.187   7.704 -0.2162 -0.0320 -0.3408
41122SOL    HW129202   7.920   9.152   7.676  0.1125  0.7759 -0.3801
41122SOL    HW229203   7.783   9.188   7.624  0.0461  0.3426 -0.5118
41123SOL     OW29204   2.830   3.050   1.117 -0.4459 -0.3183 -0.1698
41123SOL    HW129205   2.838   3.080   1.026 -0.1088 -0.5967 -0.2326
41123SOL    HW229206   2.737   3.029   1.126  0.1278 -4.6277 -1.8646
41124SOL     OW29207   5.163   2.087   6.498 -0.2806 -0.1120  0.4676
41124SOL    HW129208   5.214   2.028   6.443 -1.5984 -1.4156  0.5634
41124SOL    HW229209   5.208   2.086   6.583 -0.0360 -0.6407  0.3371
41125SOL     OW29210   0.927   9.651   8.578  0.0973 -0.3329 -0.3856
41125SOL    HW129211   1.010   9.697   8.564  0.6463 -0.5516  1.8120
41125SOL    HW229212   0.868   9.718   8.612 -0.0694 -0.5765 -0.1958
41126SOL     OW29213   9.365   4.648   9.327  0.4889  0.5809 -0.1617
41126SOL    HW129214   9.276   4.652   9.292 -0.2765 -0.9225  1.5089
41126SOL    HW229215   9.356   4.673   9.419  1.1788 -2.8959  0.9669
41127SOL     OW29216   6.833   6.118   5.602 -0.0791  0.4518 -0.2043
41127SOL    HW129217   6.884   6.106   5.522 -1.0872 -0.3325 -0.7576
41127SOL    HW229218   6.807   6.211   5.601  0.1944  0.5238 -0.6166
41128SOL     OW29219   7.252   2.560   3.822  0.5661  0.1992 -0.0575
41128SOL    HW129220   7.274   2.644   3.781 -0.3608  0.2600 -0.4678
41128SOL    HW229221   7.286   2.494   3.763 -2.7552  0.2339 -2.2775
41129SOL     OW29222   7.027   9.299   4.456 -0.0355  0.2530  0.2429
41129SOL    HW129223   7.068   9.251   4.527 -0.9185 -1.4268 -0.3451
41129SOL    HW229224   6.945   9.332   4.492  0.9727  2.1647  0.9134
41130SOL     OW29225   8.653   3.735   5.393 -0.2369  0.0772 -0.1072
41130SOL    HW129226   8.572   3.785   5.379  0.2738  0.4551 -2.0797
41130SOL    HW229227   8.652   3.669   5.323 -0.7867 -2.6454  2.2822
41131SOL     OW29228   0.522   7.904   2.339  0.0949  0.4001 -0.2836
41131SOL    HW129229   0.542   7.818   2.304 -0.3985  0.4499 -0.6960
41131SOL    HW229230   0.456   7.888   2.407  0.8044  0.3391  0.4003
41132SOL     OW29231   7.768   4.682   7.177 -0.4703  0.7475 -0.5199
41132SOL    HW129232   7.704   4.624   7.136  0.7770 -1.3996  0.3740
41132SOL    HW229233   7.809   4.728   7.104 -0.3387 -0.8004 -1.4793
41133SOL     OW29234   5.243   7.227   4.425 -0.9440  0.1240  0.1107
41133SOL    HW129235   5.256   7.175   4.504 -1.1283 -0.9036 -0.5236
41133SOL    HW229236   5.148   7.234   4.417 -0.9557 -0.8392 -0.6948
41134SOL     OW29237   4.506   1.299   6.437  0.1192 -0.5766  0.3045
41134SOL    HW129238   4.590   1.343   6.447 -0.5688  1.3263 -1.5321
41134SOL    HW229239   4.506   1.231   6.504  2.2308  0.7271  1.7367
41135SOL     OW29240   8.842   6.048   2.364 -0.5386 -0.1010  0.2042
41135SOL    HW129241   8.845   6.126   2.419  1.0884 -0.0615  0.0997
41135SOL    HW229242   8.836   6.081   2.274  0.7948 -0.0642  0.1175
41136SOL     OW29243   2.324   9.238   5.951 -0.0593  0.1968 -0.3052
41136SOL    HW129244   2.258   9.266   6.015  0.7521  3.0642 -0.6143
41136SOL    HW229245   2.379   9.177   5.999 -2.5505 -1.9238  0.1106
41137SOL     OW29246   6.293   9.518   0.012  0.2014 -0.6479 -0.1357
41137SOL    HW129247   6.218   9.548   0.063  1.1768  2.3898 -0.2810
41137SOL    HW229248   6.369   9.533   0.068  1.1138  1.1109 -1.6863
41138SOL     OW29249   0.917   5.408   9.127  0.1501 -0.1849 -0.0004
41138SOL    HW129250   0.970   5.481   9.097 -1.2901  0.5024 -1.0091
41138SOL    HW229251   0.979   5.349   9.170  1.3839  1.4810  0.6113
41139SOL     OW29252   9.165   3.452   3.226 -0.0358  0.7690  0.0478
41139SOL    HW129253   9.113   3.453   3.146  0.3901  1.8621 -0.2331
41139SOL    HW229254   9.254   3.430   3.198  0.1543  1.3365  0.1826
41140SOL     OW29255   1.644   8.737   6.515  0.3504  0.5192  0.3512
41140SOL    HW129256   1.549   8.739   6.527  0.3338 -0.2705  0.4260
41140SOL    HW229257   1.679   8.735   6.604  0.5031  2.3602  0.3589
41141SOL     OW29258   1.512   4.165   9.470 -0.2368 -0.0232  0.3195
41141SOL    HW129259   1.600   4.196   9.447  0.3960 -2.0742 -0.1778
41141SOL    HW229260   1.454   4.214   9.412  0.7262  0.1633 -0.5168
41142SOL     OW29261   6.290   1.445   2.423 -0.4116 -0.0932 -0.3181
41142SOL    HW129262   6.359   1.429   2.359  1.0148  1.7249  0.6667
41142SOL    HW229263   6.278   1.540   2.422  0.2322  0.1147  2.5899
41143SOL     OW29264   5.867   4.756   4.032 -0.0504  0.3408 -0.5557
41143SOL    HW129265   5.891   4.667   4.007 -1.2420 -0.0872 -0.2276
41143SOL    HW229266   5.823   4.791   3.954  1.1318  0.9484 -0.9775
41144SOL     OW29267  10.660   7.845   7.554 -0.5195 -0.2177  0.4053
41144SOL    HW129268  10.592   7.907   7.581 -0.3744 -0.2766  0.9040
41144SOL    HW229269  10.695   7.810   7.636 -0.1298 -0.4522  0.1407
41145SOL     OW29270   1.358   3.321   5.633 -0.2398  0.1682  0.0744
41145SOL    HW129271   1.282   3.263   5.637  0.9309 -1.3855  1.4956
41145SOL    HW229272   1.423   3.272   5.582  0.6407  0.3457  0.9898
41146SOL     OW29273   9.563   5.744   2.787  0.5776 -0.5992 -0.4199
41146SOL    HW129274   9.555   5.777   2.877  0.7628 -1.4360 -0.0825
41146SOL    HW229275   9.484   5.693   2.773  0.5885 -0.5395 -0.7023
41147SOL     OW29276   7.606   8.875   5.766 -0.2064 -0.0094 -0.0962
41147SOL    HW129277   7.532   8.816   5.756  0.3864 -0.7470 -0.2047
41147SOL    HW229278   7.670   8.846   5.700  0.2010  0.5893  0.0172
41148SOL     OW29279   7.000   0.237   8.533  0.8817  0.3453  0.3859
41148SOL    HW129280   7.019   0.323   8.495 -1.3366  1.1436  0.8952
41148SOL    HW229281   6.990   0.179   8.457  1.1109  0.8351 -0.0254
41149SOL     OW29282   4.022   8.925   7.692 -0.3420 -0.0168 -0.3466
41149SOL    HW129283   3.987   8.965   7.612 -0.0491 -0.6370 -0.7882
41149SOL    HW229284   3.954   8.940   7.757  0.0857  1.9470 -0.2653
41150SOL     OW29285   5.952   6.897   5.444  0.3943  0.3117 -0.1041
41150SOL    HW129286   5.896   6.957   5.394 -0.4264  0.0334  0.4588
41150SOL    HW229287   5.994   6.953   5.510  0.0121  0.3546  0.1059
41151SOL     OW29288   0.041   3.337   2.058 -0.5480 -0.5139 -0.3241
41151SOL    HW129289   0.093   3.265   2.022 -0.1291 -0.1712 -0.4082
41151SOL    HW229290  -0.047   3.323   2.021 -0.6101 -1.2807  0.0825
41152SOL     OW29291   3.300   5.784   1.684  0.3317 -0.1280 -0.2906
41152SOL    HW129292   3.239   5.764   1.612  2.0959 -2.0048 -1.3681
41152SOL    HW229293   3.379   5.815   1.641  1.7013 -2.0110  0.7286
41153SOL     OW29294   1.608   6.123   6.191  0.0678  0.2890 -0.2383
41153SOL    HW129295   1.524   6.136   6.235  0.7361 -0.0875  1.2028
41153SOL    HW229296   1.585   6.087   6.105 -1.4020  3.2472 -1.2242
41154SOL     OW29297   3.047   8.432   4.027  0.0489 -0.0069  0.4551
41154SOL    HW129298   3.139   8.448   4.007 -0.6653  0.3191 -3.2776
41154SOL    HW229299   3.005   8.518   4.015 -0.9970 -0.5427  0.1633
41155SOL     OW29300   3.568   2.499   0.559  0.4495  0.4350  0.3001
41155SOL    HW129301   3.548   2.591   0.542  0.2032  0.6727  1.7486
41155SOL    HW229302   3.502   2.472   0.623  1.1601 -0.4429  0.6785
41156SOL     OW29303   6.332   3.318   3.099 -1.1442  0.3059 -0.0306
41156SOL    HW129304   6.335   3.307   3.194  2.3512  2.9306  0.3460
41156SOL    HW229305   6.368   3.237   3.064 -0.7056  0.0533  0.9800
41157SOL     OW29306   3.292   1.798   6.974 -0.1025  0.2466  0.1665
41157SOL    HW129307   3.346   1.719   6.979 -1.3297 -0.8596 -2.2167
41157SOL    HW229308   3.349   1.864   6.934 -0.4429 -0.9860 -2.5897
41158SOL     OW29309   7.063  10.453   7.996 -0.2515 -0.4137 -0.0761
41158SOL    HW129310   6.989  10.507   8.023 -0.7714 -0.3817 -1.4750
41158SOL    HW229311   7.071  10.387   8.065 -0.3576  0.7178  1.0499
41159SOL     OW29312   5.386   1.168  10.140 -0.0566  0.0496  1.0542
41159SOL    HW129313   5.481   1.174  10.150  0.2104 -1.7714  0.1750
41159SOL    HW229314   5.366   1.229  10.069  0.6643 -0.4835  0.3697
41160SOL     OW29315   4.737   9.091   5.830  0.0249  0.9736 -0.4405
41160SOL    HW129316   4.755   9.037   5.908 -1.5825  0.4929 -0.3701
41160SOL    HW229317   4.823   9.103   5.790  0.5551 -1.0418 -0.0559
41161SOL     OW29318   1.696   8.935   9.876  0.1194  0.1696 -0.2544
41161SOL    HW129319   1.682   9.011   9.931 -0.9009  0.0449 -0.3306
41161SOL    HW229320   1.609   8.896   9.865  0.7097 -1.4692  0.4597
41162SOL     OW29321   0.542   9.321   9.641 -0.5377 -0.0920  0.6087
41162SOL    HW129322   0.624   9.329   9.691  0.2898 -1.2784 -0.4699
41162SOL    HW229323   0.547   9.389   9.574  0.2810 -1.0552 -0.3510
41163SOL     OW29324  10.086  10.000  10.024 -0.0101 -0.0972  0.0486
41163SOL    HW129325  10.105   9.907  10.037  0.2663  0.1767  1.9768
41163SOL    HW229326  10.046  10.028  10.107 -0.6120  1.3791 -0.6970
41164SOL     OW29327  10.865   8.563  10.865 -0.2577 -1.1318  0.5548
41164SOL    HW129328  10.939   8.621  10.880 -0.7298 -0.7384  1.4604
41164SOL    HW229329  10.893   8.506  10.794  1.5134 -1.9973  1.8751
41165SOL     OW29330   7.054   0.917   6.924 -0.5515  0.5301 -0.0010
41165SOL    HW129331   6.970   0.914   6.968 -1.5426 -0.6818 -1.8627
41165SOL    HW229332   7.043   0.982   6.854  0.0438  0.3406 -0.2842
41166SOL     OW29333   6.946   8.131   8.586  0.4596 -0.0029  0.3593
41166SOL    HW129334   6.920   8.043   8.615  0.7364  0.0407  0.7537
41166SOL    HW229335   7.035   8.142   8.619  0.1300  0.7477  1.0444
41167SOL     OW29336   5.525  10.716   8.840 -0.1699  0.9222  0.1363
41167SOL    HW129337   5.568  10.793   8.802 -0.7148  1.2023  0.0731
41167SOL    HW229338   5.446  10.751   8.881 -0.7102  0.3292 -0.3650
41168SOL     OW29339   4.986   9.551   9.931 -0.0209 -0.5151  0.2328
41168SOL    HW129340   5.031   9.634   9.917 -0.2128 -0.1790  1.4549
41168SOL    HW229341   5.056   9.487   9.941  0.1338 -0.4431 -0.3987
41169SOL     OW29342  10.555   0.882   8.878  0.0765  0.2481 -0.1549
41169SOL    HW129343  10.544   0.798   8.833 -0.0887 -0.1401  0.5932
41169SOL    HW229344  10.477   0.891   8.932  0.8412  0.1118  1.0016
41170SOL     OW29345   2.212   9.463   5.365  0.2375 -0.0395  0.2093
41170SOL    HW129346   2.161   9.381   5.363 -0.1128  0.1087  1.9444
41170SOL    HW229347   2.302   9.435   5.349 -0.2792 -0.3167 -2.8196
41171SOL     OW29348   8.178   6.220   9.660  0.1259  0.2930 -0.2732
41171SOL    HW129349   8.100   6.170   9.686  0.3145 -0.8926 -1.8442
41171SOL    HW229350   8.177   6.217   9.564  1.6583  0.9786 -0.3294
41172SOL     OW29351   2.867   4.501   3.271  0.7198  0.1743  0.7406
41172SOL    HW129352   2.904   4.536   3.352 -1.5807  1.1904  1.4079
41172SOL    HW229353   2.781   4.468   3.296  0.2003 -0.0276 -1.1799
41173SOL     OW29354   9.577   3.590   3.328 -0.2329 -0.1623  0.1084
41173SOL    HW129355   9.620   3.532   3.390 -1.5351 -1.4012 -0.1170
41173SOL    HW229356   9.627   3.672   3.334  0.1227 -0.4819  2.2147
41174SOL     OW29357   5.623   2.397   7.996  0.0830 -0.3916  0.5567
41174SOL    HW129358   5.671   2.314   7.988 -0.9329 -0.9082 -0.6648
41174SOL    HW229359   5.617   2.413   8.090 -0.1630 -2.0174  0.8532
41175SOL     OW29360   4.970  10.218   7.145  0.7357 -0.2682  0.2578
41175SOL    HW129361   4.929  10.145   7.191 -1.1586  0.9715  0.6555
41175SOL    HW229362   5.042  10.246   7.203  1.1438 -1.4523  0.3411
41176SOL     OW29363   1.240   4.112   2.578  0.0062  0.1019 -0.5631
41176SOL    HW129364   1.151   4.105   2.614 -0.0273 -2.2624 -0.9145
41176SOL    HW229365   1.254   4.028   2.534  1.8946  0.9951 -1.7761
41177SOL     OW29366   1.980   1.281   9.761 -0.0606 -0.0706  0.5152
41177SOL    HW129367   1.975   1.279   9.665  2.2580 -2.7066  0.3212
41177SOL    HW229368   2.073   1.291   9.780 -0.6276  2.1853  2.6021
41178SOL     OW29369   2.255   2.598   0.048  0.2085  0.0766 -1.0313
41178SOL    HW129370   2.182   2.561   0.097  0.9878 -0.4732 -0.2427
41178SOL    HW229371   2.217   2.627  -0.035 -0.6931 -1.1786 -1.0816
41179SOL     OW29372   3.884   8.681   6.135 -0.1244  0.8254 -0.5467
41179SOL    HW129373   3.946   8.609   6.132  0.9318  1.7158 -1.0188
41179SOL    HW229374   3.919   8.740   6.202 -0.4394  1.3630 -0.8502
41180SOL     OW29375   7.383   3.534   5.023 -0.3386  0.4198 -0.1479
41180SOL    HW129376   7.380   3.478   5.101  0.1727 -0.6490 -0.8808
41180SOL    HW229377   7.382   3.474   4.949 -0.1024  1.3891 -0.9722
41181SOL     OW29378   0.915   2.007   1.310  0.1132  0.2323 -0.2492
41181SOL    HW129379   0.883   1.917   1.315  1.4656 -0.2101  2.6107
41181SOL    HW229380   0.995   2.001   1.258  0.0458 -0.1842 -0.3093
41182SOL     OW29381   8.116   9.034   9.946  0.0857  0.5632  0.3285
41182SOL    HW129382   8.041   9.022  10.005 -1.1542 -0.3147 -1.3452
41182SOL    HW229383   8.174   8.961   9.967 -0.5605 -0.0081  0.1667
41183SOL     OW29384  10.752   0.180   4.915  0.0578  0.2198  0.8319
41183SOL    HW129385  10.767   0.088   4.940 -1.0602 -0.6195 -1.2887
41183SOL    HW229386  10.657   0.191   4.918  0.0383  0.7294 -0.6527
41184SOL     OW29387  10.834   1.394  10.002  0.6117 -0.1801  0.1232
41184SOL    HW129388  10.857   1.475  10.047  2.6628  0.4818 -1.8744
41184SOL    HW229389  10.898   1.388   9.930 -0.3853 -2.8297 -0.6716
41185SOL     OW29390   9.668  10.668   0.160  0.4875  0.0846  0.2098
41185SOL    HW129391   9.698  10.643   0.072  1.4156  0.0978  0.5105
41185SOL    HW229392   9.659  10.585   0.207  1.0819  0.1422  0.4343
41186SOL     OW29393   6.140   3.484   5.185  0.5348 -0.4286 -0.1909
41186SOL    HW129394   6.225   3.441   5.170  0.3547 -0.6840 -0.5029
41186SOL    HW229395   6.161   3.560   5.238  1.2837  0.7757 -2.1023
41187SOL     OW29396   3.719   5.701   9.201 -0.3572 -0.4393  0.3599
41187SOL    HW129397   3.754   5.789   9.216  1.0680 -1.0721  0.9296
41187SOL    HW229398   3.777   5.662   9.136 -0.3180 -1.3139  0.8934
41188SOL     OW29399   7.542   7.425   2.460 -0.0164 -0.5093  0.1982
41188SOL    HW129400   7.512   7.335   2.461 -0.1589 -0.4562  1.4497
41188SOL    HW229401   7.462   7.478   2.463 -0.0577 -0.2617 -2.3323
41189SOL     OW29402   8.454   6.093   0.786 -0.0721 -0.3576 -0.0450
41189SOL    HW129403   8.484   6.008   0.753 -0.0308  0.1946 -1.5119
41189SOL    HW229404   8.512   6.156   0.744 -1.1607  0.4985 -0.3058
41190SOL     OW29405   0.566   5.955   4.210 -0.5707  0.4097 -0.2425
41190SOL    HW129406   0.561   6.018   4.283  0.5906 -0.2785  0.4564
41190SOL    HW229407   0.522   6.000   4.138 -0.0546  1.9083  0.3281
41191SOL     OW29408   1.810   3.477   9.006 -0.2264  0.2277 -0.7085
41191SOL    HW129409   1.744   3.509   8.945 -0.6683 -1.3508 -1.0915
41191SOL    HW229410   1.775   3.395   9.040  1.7508 -0.9951 -1.3989
41192SOL     OW29411   7.433   3.855  10.046 -0.3905 -0.1804  0.4581
41192SOL    HW129412   7.416   3.793   9.975  1.9028 -0.5545  0.1472
41192SOL    HW229413   7.482   3.804  10.110 -3.3978 -0.1786  2.9937
41193SOL     OW29414   5.310   2.035   1.815  0.3431 -0.0286 -1.0896
41193SOL    HW129415   5.285   1.977   1.743  0.8419  1.4529 -2.5118
41193SOL    HW229416   5.331   2.118   1.772  1.0236  0.7827  0.7458
41194SOL     OW29417   9.857   8.683   8.142  0.7652 -0.2711 -0.0453
41194SOL    HW129418   9.871   8.764   8.093  0.1814  0.9156  1.6793
41194SOL    HW229419   9.940   8.666   8.185  0.9844 -0.7822 -0.6559
41195SOL     OW29420   8.866   8.986   1.644 -0.0489  0.3212  0.1440
41195SOL    HW129421   8.879   9.081   1.645 -0.1402  0.3313  0.4207
41195SOL    HW229422   8.779   8.974   1.607 -0.2187  0.3694  0.5205
41196SOL     OW29423   6.521   8.151   8.515  0.5978  0.5228  0.5678
41196SOL    HW129424   6.476   8.067   8.508  2.0622 -0.2125 -0.3374
41196SOL    HW229425   6.519   8.170   8.609  2.2145 -1.6725  1.1245
41197SOL     OW29426   0.215   3.234   5.589 -0.4033 -0.5542 -0.2395
41197SOL    HW129427   0.194   3.326   5.571 -1.2632 -0.3680  1.4690
41197SOL    HW229428   0.146   3.184   5.546 -1.2763 -0.2389  0.7396
41198SOL     OW29429   0.664   8.998   0.913  0.3768  0.5630  0.3569
41198SOL    HW129430   0.627   8.942   0.981  0.5754 -1.8937 -1.4239
41198SOL    HW229431   0.759   8.982   0.918  0.4006  0.4313 -0.3906
41199SOL     OW29432   4.195   7.515   5.799  0.5859 -0.3039 -0.3637
41199SOL    HW129433   4.219   7.485   5.887  0.2730 -0.9480 -0.4865
41199SOL    HW229434   4.232   7.449   5.741  0.7807  0.1131 -0.7168
41200SOL     OW29435   6.107   5.365   0.680  0.2195  0.2521 -0.1803
41200SOL    HW129436   6.184   5.364   0.623  0.2916  1.8886 -0.1690
41200SOL    HW229437   6.100   5.456   0.709 -1.7693  0.1846 -0.2613
41201SOL     OW29438   0.056  10.763   8.540 -0.1801  0.1710 -0.0257
41201SOL    HW129439  -0.002  10.741   8.467  1.7668 -0.0508 -1.5825
41201SOL    HW229440   0.134  10.799   8.499 -0.0175  2.5088  2.1037
41202SOL     OW29441   5.450   3.667   6.807 -0.3017  0.3503  0.6264
41202SOL    HW129442   5.410   3.667   6.720  1.6748 -1.4400 -0.3707
41202SOL    HW229443   5.467   3.760   6.826  1.1914  0.6853 -1.9177
41203SOL     OW29444   4.646   6.067   2.582  0.5302 -0.2754 -0.4051
41203SOL    HW129445   4.614   6.003   2.645 -1.0127  0.7753 -0.0597
41203SOL    HW229446   4.655   6.148   2.632 -0.9776  0.6451 -1.5236
41204SOL     OW29447   5.444  10.578   2.924 -1.1876 -0.2472 -0.3013
41204SOL    HW129448   5.463  10.498   2.874 -1.1681 -0.3412 -0.1450
41204SOL    HW229449   5.374  10.552   2.984 -1.7985  0.0925 -0.8605
41205SOL     OW29450   2.405   2.880   8.746 -0.1611 -0.3236 -0.0149
41205SOL    HW129451   2.369   2.837   8.669  0.3590  1.2504 -1.1747
41205SOL    HW229452   2.483   2.924   8.715  0.2076  0.1363  1.4798
41206SOL     OW29453  10.594   6.504   4.127 -0.1459 -0.4170  0.8668
41206SOL    HW129454  10.559   6.533   4.212  1.8965  1.1475  1.2512
41206SOL    HW229455  10.645   6.426   4.148 -0.7874 -0.8678  0.8055
41207SOL     OW29456   9.692   4.964   5.010 -0.0542  0.6619  0.6536
41207SOL    HW129457   9.604   5.000   4.995 -0.2846  0.2987  1.0912
41207SOL    HW229458   9.716   4.925   4.926 -0.3995  0.5837  0.5881
41208SOL     OW29459   2.796   8.634   4.688 -0.0075  0.1135  0.5579
41208SOL    HW129460   2.840   8.632   4.603 -3.1413  1.5873 -1.3224
41208SOL    HW229461   2.765   8.544   4.701 -1.9589  0.3834 -1.4597
41209SOL     OW29462   3.746   2.328   0.156 -0.4170  0.0837  0.5166
41209SOL    HW129463   3.674   2.324   0.219 -0.4581 -0.2988  0.4522
41209SOL    HW229464   3.825   2.317   0.209 -0.4775 -0.7494  0.4562
41210SOL     OW29465   1.440   9.459  10.144 -0.1974  0.3032  1.0047
41210SOL    HW129466   1.432   9.439  10.050  1.5245  0.2905  0.8312
41210SOL    HW229467   1.445   9.555  10.147 -1.9285  0.4084  1.2559
41211SOL     OW29468   5.978   4.009  10.231 -0.5991 -0.6038 -0.2336
41211SOL    HW129469   6.068   4.038  10.222 -0.0869 -1.7726  0.8354
41211SOL    HW229470   5.969   3.984  10.323 -1.5910 -1.8103 -0.6099
41212SOL     OW29471   8.734   2.438   8.232 -0.3927 -0.9255 -0.4779
41212SOL    HW129472   8.643   2.409   8.242 -0.7740 -0.0326 -1.2174
41212SOL    HW229473   8.733   2.496   8.156  0.6171 -0.1245  0.0884
41213SOL     OW29474   0.280   6.638   7.023 -0.4566 -0.3661  0.4197
41213SOL    HW129475   0.237   6.656   7.106 -1.5521  0.0759 -0.2251
41213SOL    HW229476   0.208   6.632   6.960  0.4133  0.2391 -0.6580
41214SOL     OW29477   7.264   2.708   3.022  0.2631  0.4444 -0.1400
41214SOL    HW129478   7.256   2.661   2.939  0.9518 -0.3858  0.2505
41214SOL    HW229479   7.343   2.761   3.012  0.1010  0.6850 -0.1673
41215SOL     OW29480   2.910   2.142   5.811 -0.6388  0.1270  0.1233
41215SOL    HW129481   2.938   2.126   5.901  0.3147  1.7882  0.1441
41215SOL    HW229482   2.990   2.162   5.764 -1.4296  2.1236 -0.4477
41216SOL     OW29483   6.026   0.025   8.333 -0.1821  0.3287  0.6776
41216SOL    HW129484   6.084  -0.050   8.349 -0.2525  0.3434  1.0163
41216SOL    HW229485   6.082   0.101   8.349  0.3024  0.3775 -1.1054
41217SOL     OW29486   7.252  10.772   6.582 -0.2068  0.3114  0.4968
41217SOL    HW129487   7.161  10.764   6.553 -0.3911  1.8199  0.5639
41217SOL    HW229488   7.265  10.698   6.640 -1.3581  0.0002  0.3893
41218SOL     OW29489   8.416   3.833   9.844 -0.2583 -0.3909 -0.6577
41218SOL    HW129490   8.324   3.850   9.864 -0.4099  0.2210 -1.8257
41218SOL    HW229491   8.427   3.858   9.753  0.8068 -1.5455 -0.8814
41219SOL     OW29492   6.940   3.047   9.550 -0.2010 -0.8211 -0.7630
41219SOL    HW129493   6.928   3.141   9.537 -1.7394 -0.9959 -0.7594
41219SOL    HW229494   6.929   3.035   9.644 -1.1810 -1.1483 -0.9129
41220SOL     OW29495   4.835   0.876   3.404  0.1667  0.7848 -0.4481
41220SOL    HW129496   4.831   0.832   3.489  0.7289  0.1280 -0.7567
41220SOL    HW229497   4.796   0.962   3.420 -0.4205  0.3952  0.3000
41221SOL     OW29498   4.417   9.170   9.554  0.0505 -0.0094 -0.1422
41221SOL    HW129499   4.450   9.144   9.468  0.3850  0.9190 -0.3147
41221SOL    HW229500   4.480   9.237   9.584 -0.5001  0.2459  0.4709
41222SOL     OW29501   2.461   3.691   0.694 -0.2071 -0.2612 -0.0345
41222SOL    HW129502   2.368   3.668   0.700 -0.4682  0.8296  0.3164
41222SOL    HW229503   2.467   3.743   0.614  0.1139 -0.3773 -0.0847
41223SOL     OW29504   3.660   5.409   8.740  0.1205  0.1041 -0.0255
41223SOL    HW129505   3.693   5.360   8.665 -1.3733  0.1087 -0.7182
41223SOL    HW229506   3.635   5.494   8.704 -0.9274 -0.0055  0.3853
41224SOL     OW29507   6.001   5.701   4.338 -0.2360 -0.1514  0.0523
41224SOL    HW129508   6.029   5.647   4.411 -2.0147 -0.2511  0.7326
41224SOL    HW229509   6.076   5.704   4.279  0.3240 -2.3117  0.5815
41225SOL     OW29510   1.515   8.070   2.023  0.7798 -0.8658 -0.1175
41225SOL    HW129511   1.513   8.051   2.117 -1.3611 -0.2859  0.0282
41225SOL    HW229512   1.546   8.161   2.017 -2.1802  0.3028  0.3993
41226SOL     OW29513   4.974   3.250   4.661  0.3701 -0.1554  0.7015
41226SOL    HW129514   4.923   3.323   4.695  0.0101  0.2015 -0.5684
41226SOL    HW229515   5.051   3.291   4.621  1.4573 -0.6537  2.1700
41227SOL     OW29516   7.837   2.859   2.383 -0.4476 -0.4682  0.3378
41227SOL    HW129517   7.848   2.828   2.473  0.3033 -2.7568 -0.4607
41227SOL    HW229518   7.903   2.811   2.333  0.7348  2.4240 -1.1335
41228SOL     OW29519   8.618   3.830   1.598  0.3773  0.3601 -0.5496
41228SOL    HW129520   8.534   3.869   1.622  0.2079  0.5462 -1.4105
41228SOL    HW229521   8.681   3.868   1.660 -0.2363 -0.1043  0.3686
41229SOL     OW29522   9.970   7.220   2.016 -0.1576 -0.0325  0.3970
41229SOL    HW129523  10.000   7.309   1.998  3.0350 -1.2400 -0.9944
41229SOL    HW229524   9.941   7.222   2.107  1.2885  2.0814  0.8778
41230SOL     OW29525   4.304  10.267   6.168  0.3278  0.0850  0.1135
41230SOL    HW129526   4.231  10.316   6.130  1.0897  0.3072 -1.1474
41230SOL    HW229527   4.284  10.175   6.148  0.6154  0.1837 -0.7038
41231SOL     OW29528   1.068   5.942   4.033  0.1830  0.3481 -0.2995
41231SOL    HW129529   1.127   5.869   4.015  0.4031  0.1818  0.9889
41231SOL    HW229530   1.126   6.018   4.037  0.1902  0.3263  0.0454
41232SOL     OW29531   1.664  10.863   0.951  0.0375  0.1397 -0.1059
41232SOL    HW129532   1.685  10.898   0.865 -0.5382 -2.0761 -1.2391
41232SOL    HW229533   1.593  10.918   0.983  0.6357  1.3397 -0.7856
41233SOL     OW29534   0.270  10.160   4.649 -0.2195  0.1507  0.2050
41233SOL    HW129535   0.186  10.155   4.697  0.2983  0.4661  1.1845
41233SOL    HW229536   0.322  10.088   4.685 -0.6783 -1.1913 -1.6943
41234SOL     OW29537   4.568   1.293   7.160  0.2045  0.6430  0.4197
41234SOL    HW129538   4.521   1.245   7.229 -1.2281  2.3097  0.6622
41234SOL    HW229539   4.592   1.225   7.097 -2.6131 -0.3388  0.2522
41235SOL     OW29540   7.019   6.700   5.758  0.0174 -0.1933  0.2248
41235SOL    HW129541   7.069   6.757   5.701 -3.9189 -0.5833 -4.2170
41235SOL    HW229542   7.053   6.612   5.741 -0.4082 -0.1801 -0.7287
41236SOL     OW29543   1.614  10.203   3.068  0.3959  0.2064  0.4467
41236SOL    HW129544   1.646  10.114   3.082  0.9655  0.5823  1.7067
41236SOL    HW229545   1.678  10.258   3.113 -0.5940  1.1766  0.6919
41237SOL     OW29546   9.853   5.195   9.463  0.3091 -0.1936  0.2463
41237SOL    HW129547   9.812   5.110   9.454 -1.0638  0.6603 -2.9854
41237SOL    HW229548   9.923   5.195   9.397  1.2060  0.7060  1.1604
41238SOL     OW29549   5.799   7.688   4.356  0.1235  0.4270  0.1498
41238SOL    HW129550   5.716   7.731   4.376 -0.4570 -0.0907 -1.0418
41238SOL    HW229551   5.779   7.594   4.359  0.8883  0.2684  0.7137
41239SOL     OW29552   1.668   6.438   6.752  0.3049  0.4180 -0.5012
41239SOL    HW129553   1.650   6.447   6.659 -2.0644  0.5406 -0.0772
41239SOL    HW229554   1.673   6.343   6.766 -0.6733  0.3505 -0.5476
41240SOL     OW29555   7.445   0.180   3.451 -0.3048  0.3887 -0.0397
41240SOL    HW129556   7.521   0.123   3.466  0.9082  1.5807 -1.3745
41240SOL    HW229557   7.473   0.240   3.382 -2.8246  0.2358 -1.3176
41241SOL     OW29558  10.213   9.786   4.318  0.2491  0.1476  0.0592
41241SOL    HW129559  10.144   9.794   4.383  0.7224 -1.4367  0.8165
41241SOL    HW229560  10.293   9.774   4.370  0.6795 -0.8228 -0.7961
41242SOL     OW29561   9.978  10.766   1.474 -0.0110 -0.3840  0.4887
41242SOL    HW129562   9.952  10.809   1.392 -1.3136 -0.2401  0.9566
41242SOL    HW229563   9.956  10.829   1.542  0.0516 -0.9382  1.0310
41243SOL     OW29564   6.364   9.849  10.106  0.3156  0.3658 -0.1791
41243SOL    HW129565   6.290   9.887  10.154 -0.7978 -0.6476 -1.0486
41243SOL    HW229566   6.431   9.918  10.108 -0.6332  1.3103  0.6287
41244SOL     OW29567   8.843   6.109   0.977 -0.0467 -0.2799 -0.0881
41244SOL    HW129568   8.830   6.027   0.929 -1.3295 -1.0565  1.4773
41244SOL    HW229569   8.932   6.101   1.013 -0.4899 -1.4384  0.8190
41245SOL     OW29570   0.487   8.853   5.580  0.2647  0.1190  0.1280
41245SOL    HW129571   0.504   8.768   5.539  1.1210  0.0623  0.5903
41245SOL    HW229572   0.565   8.871   5.632 -0.5870  0.4403  1.3293
41246SOL     OW29573   2.320  10.747   2.293  0.1638 -0.4453  0.4611
41246SOL    HW129574   2.262  10.756   2.369  0.6279  1.9770  0.5894
41246SOL    HW229575   2.391  10.809   2.309  0.9223 -0.7625 -1.3966
41247SOL     OW29576  10.567   2.058   5.614 -0.0787 -0.1106 -0.0463
41247SOL    HW129577  10.569   2.151   5.638  1.2251 -0.3755  1.0179
41247SOL    HW229578  10.650   2.024   5.647 -0.6092 -1.6944 -0.2894
41248SOL     OW29579   8.680   4.121   9.764  0.0619  0.3976 -0.3171
41248SOL    HW129580   8.589   4.138   9.790  0.1054  1.5298 -0.8758
41248SOL    HW229581   8.712   4.205   9.732  0.3542 -0.6463 -2.9913
41249SOL     OW29582   6.787   5.178   6.559 -0.2385 -0.2852 -0.1167
41249SOL    HW129583   6.725   5.128   6.507 -0.5816  0.1450 -0.1360
41249SOL    HW229584   6.746   5.183   6.646 -0.0060 -0.4024 -0.0006
41250SOL     OW29585   6.568   6.862   0.309 -0.0821 -0.0795 -0.4057
41250SOL    HW129586   6.611   6.785   0.272  0.6714  0.8341 -1.4891
41250SOL    HW229587   6.640   6.914   0.345 -0.4169  0.8316 -1.0413
41251SOL     OW29588   0.798   3.237   2.070  0.3811 -0.7388  0.0847
41251SOL    HW129589   0.775   3.160   2.121  2.4317 -0.2145  1.9292
41251SOL    HW229590   0.741   3.306   2.104  0.1650 -0.9062  0.0615
41252SOL     OW29591   5.736  10.513   4.972  0.3995  0.1760  0.5699
41252SOL    HW129592   5.707  10.569   5.044 -1.7840 -0.8223  0.5264
41252SOL    HW229593   5.831  10.510   4.981  0.4272  2.3881  1.6671
41253SOL     OW29594   5.245   8.876   5.960 -0.7228 -0.5332 -0.6633
41253SOL    HW129595   5.209   8.805   6.012  0.9111  0.6756  2.3681
41253SOL    HW229596   5.224   8.955   6.010  1.2358  0.6948 -1.6449
41254SOL     OW29597   3.709   9.929   2.389 -0.0752 -0.1416  0.0309
41254SOL    HW129598   3.752   9.922   2.304  1.1066 -0.2334  0.6100
41254SOL    HW229599   3.758   9.997   2.435 -0.9821  0.2214  0.4827
41255SOL     OW29600   9.040   9.104   4.314  0.2175 -0.5225 -0.3612
41255SOL    HW129601   8.978   9.176   4.306  0.7343  0.0328  0.5099
41255SOL    HW229602   9.008   9.052   4.387 -1.5348 -2.6206 -2.4529
41256SOL     OW29603   6.930   1.466   7.530 -0.4991 -0.4574 -0.2398
41256SOL    HW129604   6.901   1.399   7.467  0.3799  0.7989 -2.0839
41256SOL    HW229605   6.857   1.528   7.535 -0.5403 -0.5194 -0.0579
41257SOL     OW29606  10.251  10.221  10.616  0.0827  0.1641  0.1984
41257SOL    HW129607  10.346  10.225  10.613  0.0941 -0.0227  0.2670
41257SOL    HW229608  10.232  10.153  10.681 -0.0977  1.3345  1.4256
41258SOL     OW29609  10.796  10.480   7.003 -0.0885 -1.2599  0.1136
41258SOL    HW129610  10.765  10.569   6.985  2.1453 -0.4127  0.1558
41258SOL    HW229611  10.748  10.425   6.941 -0.2637  0.2045 -1.1136
41259SOL     OW29612   4.585  10.731   2.937 -0.5196 -0.1143  0.2743
41259SOL    HW129613   4.640  10.653   2.926  0.7722  0.5729  1.7305
41259SOL    HW229614   4.529  10.710   3.012 -0.7966  0.0344  0.1124
41260SOL     OW29615  10.080   5.431   9.580 -0.4916  0.2980 -0.3463
41260SOL    HW129616   9.992   5.469   9.587 -1.3120 -1.6753  0.8068
41260SOL    HW229617  10.138   5.498   9.617 -1.8319  0.6130  1.2818
41261SOL     OW29618   3.097  10.125   7.789  0.3276  0.0180  0.5189
41261SOL    HW129619   3.069  10.108   7.879  0.0736 -0.3062  0.3783
41261SOL    HW229620   3.167  10.062   7.773 -0.3984 -0.7057  0.1076
41262SOL     OW29621   8.270   5.322   8.927  0.1387  0.1609  0.0599
41262SOL    HW129622   8.346   5.350   8.876  1.2245 -1.3978  0.7520
41262SOL    HW229623   8.219   5.402   8.939  2.6670  1.7451  1.2582
41263SOL     OW29624   3.262  10.315   1.525  0.0222 -0.2065 -0.4292
41263SOL    HW129625   3.189  10.372   1.504 -0.1970 -0.0959  0.5945
41263SOL    HW229626   3.225  10.249   1.584  0.8357  0.1090  0.4595
41264SOL     OW29627   3.137   8.286   9.018  0.4056  0.4994  0.1312
41264SOL    HW129628   3.194   8.291   9.094  0.6480 -1.0569  0.0806
41264SOL    HW229629   3.056   8.330   9.046  0.2243 -0.6594  1.5474
41265SOL     OW29630   2.803   2.998   0.847 -0.1112 -0.2601  0.0489
41265SOL    HW129631   2.847   2.986   0.763  1.1004  0.7994  0.5001
41265SOL    HW229632   2.796   2.909   0.883  2.3573 -0.4393  0.2777
41266SOL     OW29633   1.885   7.418   1.838 -0.2922  0.1520 -0.2023
41266SOL    HW129634   1.933   7.390   1.760  0.5311  0.6557  0.1137
41266SOL    HW229635   1.945   7.400   1.910 -0.6408  0.6494  0.2138
41267SOL     OW29636   0.043   5.221  10.136  0.2663 -0.1633  0.4402
41267SOL    HW129637   0.104   5.294  10.146 -1.2684  1.0485  1.4327
41267SOL    HW229638   0.078   5.153  10.193  1.3225  0.0619  0.0835
41268SOL     OW29639   5.633   0.027   7.653  0.0993 -0.3240  0.1256
41268SOL    HW129640   5.690  -0.012   7.719  0.9376  0.4823 -0.0969
41268SOL    HW229641   5.572  -0.042   7.629 -0.2835 -0.5963  1.8202
41269SOL     OW29642   7.844   9.501   3.122 -0.0760 -0.4899  0.0132
41269SOL    HW129643   7.802   9.430   3.171 -0.5607  0.9453  1.8184
41269SOL    HW229644   7.772   9.552   3.087  0.2592 -1.8203 -2.8870
41270SOL     OW29645   3.364   5.655   0.952  0.5008 -0.4124 -0.1457
41270SOL    HW129646   3.380   5.737   1.000 -2.4762  0.6247 -0.6875
41270SOL    HW229647   3.326   5.684   0.870  0.3136 -2.3575 -0.7730
41271SOL     OW29648   5.866   1.224   2.656  0.7554  0.0292 -0.5351
41271SOL    HW129649   5.929   1.265   2.597  0.2332  0.4053 -0.8440
41271SOL    HW229650   5.781   1.239   2.614  0.2573  1.2072  0.7990
41272SOL     OW29651   2.994   3.970   5.670 -0.1371 -0.3963 -0.4907
41272SOL    HW129652   2.967   3.991   5.580 -1.5346 -0.8747 -0.2126
41272SOL    HW229653   2.928   4.014   5.724 -1.5223 -3.1102  0.1773
41273SOL     OW29654   3.766   5.916   8.164  0.0610 -0.0655 -0.1189
41273SOL    HW129655   3.761   5.973   8.241 -1.7427 -1.5293  0.9278
41273SOL    HW229656   3.846   5.864   8.178  0.4558  0.5938  0.0884
41274SOL     OW29657  10.167   3.825   8.448  0.0434  0.5490 -0.7821
41274SOL    HW129658  10.092   3.876   8.421 -0.0830  1.1196  0.5697
41274SOL    HW229659  10.224   3.887   8.493  0.3546 -0.2898  0.0210
41275SOL     OW29660   5.568   7.388  10.190  0.0068 -0.2770 -0.5081
41275SOL    HW129661   5.502   7.357  10.128 -2.1482  0.7533  1.1243
41275SOL    HW229662   5.582   7.480  10.165 -0.9833  0.1861  0.5385
41276SOL     OW29663   8.961   8.351   4.737  1.0908 -0.3356 -0.2449
41276SOL    HW129664   8.887   8.372   4.679 -0.3474  1.2057  2.0020
41276SOL    HW229665   8.945   8.261   4.764  1.5793 -0.9545 -1.8644
41277SOL     OW29666   3.711   0.700   7.196  0.2945  0.1255  0.3480
41277SOL    HW129667   3.757   0.674   7.116  0.1142 -1.2014  0.6571
41277SOL    HW229668   3.618   0.695   7.174  0.2549  0.9195  0.3002
41278SOL     OW29669   4.415   8.693  10.630 -0.1458 -0.4622 -0.1940
41278SOL    HW129670   4.332   8.661  10.593 -0.0546 -0.1234 -0.7059
41278SOL    HW229671   4.446   8.621  10.685 -1.3375 -0.1637  0.9048
41279SOL     OW29672  10.148   4.503   4.885  0.1709 -0.0013 -1.2644
41279SOL    HW129673  10.188   4.555   4.954 -1.3194 -0.5206  0.0702
41279SOL    HW229674  10.171   4.547   4.803  3.7988 -0.5434 -0.6850
41280SOL     OW29675   6.287   3.958  10.742 -0.0377 -0.5559 -1.2273
41280SOL    HW129676   6.240   4.026  10.791 -1.0485 -0.7013 -1.9656
41280SOL    HW229677   6.339   4.006  10.677  0.4047 -0.4261 -0.7868
41281SOL     OW29678   4.431   9.501   7.784  0.3708 -0.0026 -0.2162
41281SOL    HW129679   4.336   9.512   7.785 -0.0861 -3.1348  1.1611
41281SOL    HW229680   4.454   9.480   7.875  1.9567 -2.0036 -0.9947
41282SOL     OW29681   2.725   4.677   8.310  0.5393 -0.1417 -0.2196
41282SOL    HW129682   2.782   4.665   8.234  0.9538  0.1992  0.0335
41282SOL    HW229683   2.785   4.691   8.383  0.1852 -1.5226  0.3749
41283SOL     OW29684   9.174   3.516   9.009 -0.1635  0.2780  0.5403
41283SOL    HW129685   9.185   3.600   9.054 -1.0242  0.4958  0.3794
41283SOL    HW229686   9.079   3.508   8.998  0.0296  0.8222 -2.3196
41284SOL     OW29687   6.614   9.786   7.914  0.1618  0.2641 -0.4349
41284SOL    HW129688   6.697   9.741   7.930 -0.8899 -2.2331 -1.5222
41284SOL    HW229689   6.639   9.878   7.904  2.9732 -0.5033 -1.7624
41285SOL     OW29690   6.391   4.949   6.196 -0.4107 -0.5660 -0.0737
41285SOL    HW129691   6.395   4.853   6.195  0.1970 -0.5598  0.8545
41285SOL    HW229692   6.459   4.975   6.258  0.7664  0.5578 -1.7626
41286SOL     OW29693   6.786   3.761   6.440  0.1508  0.0621 -0.7851
41286SOL    HW129694   6.692   3.753   6.453  0.3902 -0.2792  0.9804
41286SOL    HW229695   6.814   3.823   6.507  1.4167 -1.2312 -0.0503
41287SOL     OW29696   3.891   1.299   0.501 -0.5863  0.2307 -0.6893
41287SOL    HW129697   3.907   1.303   0.595 -0.0476  0.3480 -0.7866
41287SOL    HW229698   3.832   1.225   0.491  1.0402 -1.1451 -0.4833
41288SOL     OW29699   8.295   2.080   2.836 -0.7574 -0.1634 -0.0606
41288SOL    HW129700   8.286   1.995   2.794 -0.8911  0.2356 -0.8462
41288SOL    HW229701   8.369   2.069   2.896  0.7553 -0.1879 -1.8377
41289SOL     OW29702  10.748   9.553   5.436 -0.2723 -0.4536 -0.2011
41289SOL    HW129703  10.809   9.553   5.509 -1.0739  1.1240  0.5251
41289SOL    HW229704  10.798   9.520   5.362  0.7478 -1.4579  0.9084
41290SOL     OW29705   2.232   9.944   1.442 -0.2530  0.8971  0.1766
41290SOL    HW129706   2.194   9.932   1.355 -1.0171  1.1680  0.4628
41290SOL    HW229707   2.309   9.999   1.427  1.1583 -1.1561 -0.6590
41291SOL     OW29708   5.606  10.630   9.683 -0.1042 -0.0296 -0.2477
41291SOL    HW129709   5.642  10.607   9.598  0.2135 -0.1726 -0.0752
41291SOL    HW229710   5.550  10.556   9.706  2.3154 -1.5491  1.1302
41292SOL     OW29711   3.640  10.103   6.760 -0.5950 -0.1980  0.7820
41292SOL    HW129712   3.638  10.017   6.800  0.1086 -0.8613 -0.5334
41292SOL    HW229713   3.641  10.164   6.834  1.9597 -1.3832  1.8572
41293SOL     OW29714   0.654   5.135   0.806  0.4482 -0.0938  0.3071
41293SOL    HW129715   0.737   5.180   0.790  0.4484 -0.1620  0.1114
41293SOL    HW229716   0.673   5.075   0.878  0.8343 -0.8162 -0.3780
41294SOL     OW29717   0.541   5.989   9.393 -0.2341  0.5130  0.1286
41294SOL    HW129718   0.631   5.959   9.385 -0.3576 -0.8496  2.9010
41294SOL    HW229719   0.488   5.918   9.357 -0.2559  0.3289  0.5130
41295SOL     OW29720   5.983   8.068   6.261 -0.1601 -0.0154  0.6838
41295SOL    HW129721   6.013   8.126   6.191 -0.3951  1.7586  1.9765
41295SOL    HW229722   6.050   8.076   6.329 -0.8072 -0.3070  1.3711
41296SOL     OW29723   2.530   8.991   7.406  0.0331 -0.5916  0.0360
41296SOL    HW129724   2.521   9.058   7.474  0.1908 -0.3650 -0.1639
41296SOL    HW229725   2.526   8.908   7.453  2.5077 -0.4475  0.6783
41297SOL     OW29726   4.466   3.657   2.167  0.2470 -0.2423  0.1153
41297SOL    HW129727   4.508   3.622   2.246 -0.1180  1.1872  0.9723
41297SOL    HW229728   4.536   3.698   2.118  0.1409  0.7030  0.7381
41298SOL     OW29729   3.479  10.711   0.467 -0.3553 -0.2473 -0.6512
41298SOL    HW129730   3.425  10.692   0.544  0.2703  1.0193  0.1447
41298SOL    HW229731   3.528  10.789   0.492  1.0627 -0.7544 -1.7409
41299SOL     OW29732   5.968   4.934   7.577 -0.3118 -0.0239 -0.1248
41299SOL    HW129733   6.031   4.994   7.616 -2.9479  1.8795  1.4992
41299SOL    HW229734   5.961   4.962   7.486  0.7455  0.0991 -0.1741
41300SOL     OW29735   1.759   0.179   6.490 -0.1890  0.1346 -0.2799
41300SOL    HW129736   1.848   0.150   6.468  0.0353  0.9218 -0.4596
41300SOL    HW229737   1.726   0.112   6.550  0.1646 -0.6746 -0.9690
41301SOL     OW29738   7.784   6.653   2.513  0.0744 -0.1523  0.8852
41301SOL    HW129739   7.806   6.714   2.442 -0.5212  0.5685  1.3113
41301SOL    HW229740   7.850   6.671   2.581  0.4202 -0.5863  0.6697
41302SOL     OW29741   7.946   8.954   5.413 -0.2581 -0.3249 -0.0230
41302SOL    HW129742   7.858   8.968   5.449 -0.8248 -1.8817 -0.6919
41302SOL    HW229743   7.967   8.864   5.437  1.0221 -0.0901 -0.1904
41303SOL     OW29744   2.542   7.966   9.491 -0.1315 -0.2441 -0.6839
41303SOL    HW129745   2.631   7.992   9.467 -0.9714  1.6724 -1.9708
41303SOL    HW229746   2.537   7.985   9.585  1.4251 -2.4286 -0.0694
41304SOL     OW29747   7.285  10.827   5.798 -0.5188 -0.2672  0.5746
41304SOL    HW129748   7.352  10.875   5.846 -0.1736  0.2364 -0.3864
41304SOL    HW229749   7.301  10.847   5.706 -2.7735  0.9353  0.3626
41305SOL     OW29750   5.419   3.159   3.242 -0.1763  0.1503 -0.2619
41305SOL    HW129751   5.422   3.195   3.154 -3.1811  2.7285  0.4988
41305SOL    HW229752   5.369   3.224   3.293 -2.5493 -3.2943  2.2675
41306SOL     OW29753   6.843  10.172   6.095 -0.0130  0.2090 -0.4427
41306SOL    HW129754   6.747  10.181   6.100  0.1524  1.2941  1.9562
41306SOL    HW229755   6.871  10.247   6.042 -0.5192 -0.9474 -2.4885
41307SOL     OW29756   1.076   0.988   6.795  0.1937 -0.1507  0.0758
41307SOL    HW129757   1.152   0.998   6.852  0.1067 -0.3564  0.2301
41307SOL    HW229758   1.088   1.054   6.726 -0.3326  0.9571  1.0160
41308SOL     OW29759   1.791   1.987   8.127 -0.5564  0.0303  0.3425
41308SOL    HW129760   1.790   1.895   8.102 -1.9808 -0.3546  1.6352
41308SOL    HW229761   1.858   2.027   8.071  0.4444 -1.8715  0.1127
41309SOL     OW29762   9.900   0.386   2.013 -0.5235 -0.6011  0.1092
41309SOL    HW129763   9.889   0.351   2.102 -0.0895 -0.3880  0.2496
41309SOL    HW229764   9.991   0.367   1.992 -0.3412  0.2448  0.1001
41310SOL     OW29765   5.867   4.141   0.538  0.2230 -0.0532  0.1729
41310SOL    HW129766   5.882   4.159   0.445 -0.8620  3.8089  0.5370
41310SOL    HW229767   5.931   4.197   0.584 -1.1892  0.4205  1.6849
41311SOL     OW29768   1.766   7.750   3.505 -0.0671 -0.2921  0.6684
41311SOL    HW129769   1.777   7.759   3.410 -0.1271 -1.0392  0.5842
41311SOL    HW229770   1.849   7.716   3.536  0.3028  0.9067  1.0358
41312SOL     OW29771   4.045   7.012   1.453 -0.1865  0.4765  0.2782
41312SOL    HW129772   3.960   6.970   1.459 -0.1371  0.4051  0.4771
41312SOL    HW229773   4.107   6.940   1.436 -0.1941  0.5539 -0.0856
41313SOL     OW29774   8.497   5.376   6.751  0.2077 -0.2788 -0.1146
41313SOL    HW129775   8.532   5.300   6.798  0.7744  0.3797  0.5695
41313SOL    HW229776   8.415   5.396   6.797  0.8925  0.5272  0.8190
41314SOL     OW29777   6.421   3.978   7.271  0.0427 -0.4568  0.5698
41314SOL    HW129778   6.357   3.939   7.211 -1.0755  0.4875  1.0971
41314SOL    HW229779   6.505   3.969   7.226 -0.6144 -0.7088 -0.6556
41315SOL     OW29780   4.750   1.328  10.512 -0.0040  0.3159 -0.3276
41315SOL    HW129781   4.749   1.276  10.432 -0.2269  0.0011 -0.1213
41315SOL    HW229782   4.824   1.294  10.561 -0.5866 -0.3144  0.1345
41316SOL     OW29783  10.274   8.925  10.130  0.5759 -0.0272  0.5593
41316SOL    HW129784  10.337   8.938  10.059 -0.6106 -1.2578 -0.7621
41316SOL    HW229785  10.264   8.830  10.136 -0.9267  0.1379  0.9548
41317SOL     OW29786   1.491   4.073   0.014 -0.1501  0.0190 -0.5295
41317SOL    HW129787   1.506   4.166   0.026  1.1186 -0.0721 -1.2397
41317SOL    HW229788   1.519   4.033   0.097  2.5899 -0.0160 -1.3701
41318SOL     OW29789   0.512   3.782   9.802 -0.0854  0.8192  0.1358
41318SOL    HW129790   0.490   3.772   9.894 -1.5446  0.3754 -0.2438
41318SOL    HW229791   0.450   3.726   9.755  2.1451 -0.8685 -0.9903
41319SOL     OW29792   9.702   4.448   8.820 -0.0424 -0.1835 -0.0222
41319SOL    HW129793   9.681   4.410   8.735  0.1564 -0.7014  0.1554
41319SOL    HW229794   9.668   4.538   8.816  0.4469 -0.0254 -0.8416
41320SOL     OW29795   7.815  10.881   5.620 -0.3464 -0.2326  0.0348
41320SOL    HW129796   7.832  10.974   5.609 -0.1998 -0.1510  0.8518
41320SOL    HW229797   7.901  10.841   5.633 -0.5484  0.0005  2.8742
41321SOL     OW29798   7.292   0.391   1.846 -0.2106  0.0207  0.1980
41321SOL    HW129799   7.200   0.409   1.866 -0.3824  1.3677 -1.5978
41321SOL    HW229800   7.296   0.387   1.751  1.3211 -1.7166  0.2831
41322SOL     OW29801   4.591   1.794   1.655  0.5116 -0.1989  0.3531
41322SOL    HW129802   4.599   1.704   1.685  1.3357 -0.8978 -1.8034
41322SOL    HW229803   4.508   1.825   1.692  0.5834 -1.5766  1.7237
41323SOL     OW29804   4.761   5.234   3.895 -0.5794  0.5618  0.0586
41323SOL    HW129805   4.687   5.213   3.839 -2.9583  0.3375  3.0356
41323SOL    HW229806   4.804   5.308   3.852 -0.9428 -0.8801 -3.0406
41324SOL     OW29807   2.807   9.539   3.797  0.2897  0.2355  0.1647
41324SOL    HW129808   2.842   9.616   3.842  1.0392 -0.5156  0.8871
41324SOL    HW229809   2.767   9.574   3.717  3.9634  1.0241 -1.5372
41325SOL     OW29810  10.839   9.508   8.248 -0.3886 -0.2758  0.5276
41325SOL    HW129811  10.842   9.484   8.341 -0.9131 -1.4182  0.2728
41325SOL    HW229812  10.876   9.433   8.202 -0.7865 -0.0217 -0.2372
41326SOL     OW29813   9.121   6.480   3.742  0.2909 -0.8066 -0.4025
41326SOL    HW129814   9.123   6.562   3.692  0.9470 -0.6043 -0.0524
41326SOL    HW229815   9.033   6.476   3.778  0.2001 -0.3437 -0.5697
41327SOL     OW29816   0.808   9.523   4.639  0.3358  0.3304  0.3015
41327SOL    HW129817   0.891   9.481   4.661  0.5898  1.1789  1.0651
41327SOL    HW229818   0.754   9.513   4.718 -0.7433 -1.2449 -0.5993
41328SOL     OW29819   3.660  10.529   5.987 -0.0657 -0.6673 -1.0298
41328SOL    HW129820   3.599  10.465   5.948  1.5367 -3.2686  0.4729
41328SOL    HW229821   3.745  10.506   5.950  0.6841  0.0617  0.2091
41329SOL     OW29822   4.673   7.465   4.926  0.1468  0.2693 -0.0500
41329SOL    HW129823   4.594   7.424   4.892 -1.1803  3.1119 -0.6828
41329SOL    HW229824   4.653   7.484   5.018  0.7158 -0.3345  0.2137
41330SOL     OW29825   4.715   4.592   5.575 -0.2848  0.0215  0.4560
41330SOL    HW129826   4.665   4.610   5.654  2.4735 -0.5353  2.4912
41330SOL    HW229827   4.794   4.647   5.583 -0.9134  1.7704 -3.1455
41331SOL     OW29828   1.639   4.054   8.957 -0.3067 -0.0771  0.3582
41331SOL    HW129829   1.681   4.075   9.040  1.2868  2.1312 -0.8983
41331SOL    HW229830   1.548   4.080   8.969 -0.4202 -1.0913  1.8351
41332SOL     OW29831   7.511  10.018   6.628  0.0918 -0.1989 -0.8648
41332SOL    HW129832   7.559  10.090   6.587 -0.2105  0.1186 -0.6763
41332SOL    HW229833   7.565   9.941   6.613  0.9028  0.2284 -0.2335
41333SOL     OW29834   4.725   8.956   7.640 -0.7432 -0.0263 -0.4942
41333SOL    HW129835   4.634   8.974   7.665 -0.7811  1.8398 -1.7775
41333SOL    HW229836   4.777   9.013   7.697 -0.3217 -1.3234  0.4592
41334SOL     OW29837   3.954   3.664   9.979  0.7718  0.3022 -0.2956
41334SOL    HW129838   3.862   3.642   9.992  0.3503  2.5764  1.3478
41334SOL    HW229839   3.955   3.720   9.901  0.7388  0.3701 -0.2474
41335SOL     OW29840  10.245   2.316   4.118  0.7470 -0.2746 -0.0545
41335SOL    HW129841  10.194   2.390   4.151  1.1941  0.2599 -0.5325
41335SOL    HW229842  10.246   2.253   4.190 -0.6769 -0.3530 -0.0845
41336SOL     OW29843   9.709   4.370   5.820  0.0151 -0.3825  0.2355
41336SOL    HW129844   9.731   4.282   5.789 -0.0747  0.0765 -1.2072
41336SOL    HW229845   9.699   4.422   5.740  0.6151  1.0830  1.0699
41337SOL     OW29846   4.501  10.162   4.306 -0.2889  0.1999  0.0519
41337SOL    HW129847   4.512  10.225   4.378  1.2468  1.1339 -0.9268
41337SOL    HW229848   4.501  10.076   4.349  1.3500  0.6937  1.1336
41338SOL     OW29849  10.152   4.890   8.213 -0.1659  0.2664 -0.2403
41338SOL    HW129850  10.158   4.954   8.283 -2.3928  0.7954 -0.4670
41338SOL    HW229851  10.179   4.807   8.254  2.8475  1.2376  0.0258
41339SOL     OW29852   0.400   5.240   0.086 -0.3616 -0.3097  0.3972
41339SOL    HW129853   0.465   5.171   0.077  0.7161  0.5892  0.9853
41339SOL    HW229854   0.316   5.197   0.070  0.3859 -1.4527 -0.6194
41340SOL     OW29855   1.739  10.670   1.881 -0.0760 -0.5947  0.5268
41340SOL    HW129856   1.660  10.674   1.828  0.5822  0.5374 -0.3992
41340SOL    HW229857   1.810  10.663   1.818  0.7689  1.4146  1.1772
41341SOL     OW29858   8.020   2.091   9.368  0.2365  0.4993 -0.8971
41341SOL    HW129859   8.040   2.039   9.446  2.0710  1.3903 -0.7290
41341SOL    HW229860   7.959   2.158   9.400 -0.0544  0.0749 -0.5341
41342SOL     OW29861  10.608   9.397   0.765 -0.0030  0.6445 -0.3081
41342SOL    HW129862  10.543   9.327   0.774 -0.3782  1.0258 -0.0260
41342SOL    HW229863  10.627   9.399   0.671  1.5896 -1.2379 -0.1017
41343SOL     OW29864   4.930   4.355   5.250 -0.3227  0.4654  0.0400
41343SOL    HW129865   4.995   4.285   5.245 -1.1965 -0.3428 -0.4606
41343SOL    HW229866   4.907   4.361   5.342  1.2043  1.4924  0.3912
41344SOL     OW29867   0.381   7.838   4.900  0.4238  0.0888 -0.2789
41344SOL    HW129868   0.461   7.888   4.912  0.3239 -0.2021  2.2602
41344SOL    HW229869   0.347   7.865   4.815  1.7839  2.2745 -0.1882
41345SOL     OW29870   4.764   3.030  10.701  0.2450  0.0813  0.2285
41345SOL    HW129871   4.708   2.984  10.639  0.0840 -1.4421  1.4585
41345SOL    HW229872   4.829   3.075  10.646 -0.4875 -0.4029 -1.0698
41346SOL     OW29873   7.162   7.030  10.035 -0.1202  0.2440  0.2812
41346SOL    HW129874   7.187   6.994   9.950 -0.9317  0.7079 -0.1677
41346SOL    HW229875   7.242   7.027  10.087  0.0669 -1.2741 -0.0562
41347SOL     OW29876   4.285   9.723  10.140 -0.1639  0.5114 -0.6829
41347SOL    HW129877   4.206   9.731  10.193  0.6040  1.0579  0.3973
41347SOL    HW229878   4.338   9.799  10.163 -0.4401  1.6310 -3.3511
41348SOL     OW29879  10.886   8.844   2.936 -0.4415 -0.0555  0.2957
41348SOL    HW129880  10.820   8.870   2.872 -0.8165  0.5420  0.9050
41348SOL    HW229881  10.859   8.889   3.017  0.6580  0.1172  0.5752
41349SOL     OW29882   5.798   5.293   7.368 -0.8801 -0.1574 -0.0941
41349SOL    HW129883   5.824   5.368   7.316  1.7604 -0.0477  1.2283
41349SOL    HW229884   5.793   5.326   7.458 -0.5523 -1.3662  0.3862
41350SOL     OW29885  10.469   0.129   0.782 -0.5614  0.2781  0.1177
41350SOL    HW129886  10.436   0.166   0.864  0.2073 -0.5546  0.8218
41350SOL    HW229887  10.540   0.187   0.756  0.1391 -0.2401  0.8181
41351SOL     OW29888   1.871   3.962   6.906 -0.1403 -0.7448 -0.6637
41351SOL    HW129889   1.904   4.051   6.897  1.1424 -1.0883  0.2256
41351SOL    HW229890   1.949   3.907   6.902 -1.1051 -2.0899 -3.7071
41352SOL     OW29891   4.743   9.518   5.367 -0.1526 -0.4071 -0.0046
41352SOL    HW129892   4.674   9.517   5.301 -1.9086 -3.0985  1.6694
41352SOL    HW229893   4.793   9.439   5.352  0.8389  0.0942  0.5292
41353SOL     OW29894   4.927   1.588   6.389 -0.0948 -0.0133  0.2536
41353SOL    HW129895   4.922   1.523   6.460  2.1658  1.7777  2.2370
41353SOL    HW229896   4.924   1.672   6.434  0.9705  1.2071 -1.8378
41354SOL     OW29897  10.517   4.801   9.703 -0.0624 -0.8017  0.1352
41354SOL    HW129898  10.457   4.737   9.665 -0.2676 -0.6752  0.2451
41354SOL    HW229899  10.464   4.848   9.768 -0.1662  0.1274 -0.6134
41355SOL     OW29900   0.273   1.507   9.161 -0.0005  0.1291 -0.5227
41355SOL    HW129901   0.274   1.595   9.123  0.9830  0.3114 -0.1157
41355SOL    HW229902   0.329   1.455   9.103 -1.0568 -0.4048 -1.1076
41356SOL     OW29903   0.982   4.456   7.622 -0.4515  0.2688  0.0887
41356SOL    HW129904   1.072   4.445   7.653 -0.6127 -1.5468 -0.0014
41356SOL    HW229905   0.928   4.427   7.696 -0.9185 -0.0125 -0.3599
41357SOL     OW29906   7.972   7.100   9.811 -0.2595 -0.1907 -0.2254
41357SOL    HW129907   7.957   7.192   9.791  1.0077  0.1007  0.0786
41357SOL    HW229908   7.940   7.053   9.734 -0.8853  0.4980 -0.3948
41358SOL     OW29909   1.709   9.617   7.225 -0.0129 -0.2393  1.0126
41358SOL    HW129910   1.741   9.698   7.265  0.8929 -0.8629  1.6011
41358SOL    HW229911   1.739   9.620   7.135  0.3283 -0.0817  1.1315
41359SOL     OW29912   0.651   1.241  10.402  0.1782 -0.5058  0.3655
41359SOL    HW129913   0.684   1.186  10.473  1.4995 -0.4926 -0.2158
41359SOL    HW229914   0.623   1.180  10.334  2.2308 -0.4951 -0.5382
41360SOL     OW29915   9.829   2.138  10.817 -0.0246 -0.3825 -0.0927
41360SOL    HW129916   9.754   2.148  10.759  1.1248 -0.9722 -1.7534
41360SOL    HW229917   9.823   2.048  10.849  0.2202 -0.5803 -0.5967
41361SOL     OW29918   0.700   1.864   9.477  0.3733  0.4122 -0.0066
41361SOL    HW129919   0.756   1.828   9.546  0.0634 -1.4453 -0.6612
41361SOL    HW229920   0.651   1.934   9.520  0.8353 -0.1010  1.4107
41362SOL     OW29921   7.172   1.373   3.873  0.1107 -0.5772  0.3478
41362SOL    HW129922   7.238   1.410   3.814  1.6231  1.0639  2.8881
41362SOL    HW229923   7.113   1.446   3.891  0.8079 -0.4523  2.3273
41363SOL     OW29924   5.588   9.588   9.359  0.1371 -0.0159 -0.1777
41363SOL    HW129925   5.603   9.538   9.279  1.0223  0.2141 -0.1679
41363SOL    HW229926   5.536   9.530   9.414 -1.4662  0.2587 -1.3531
41364SOL     OW29927   2.125   1.017   0.219  0.6531  0.1891  0.2080
41364SOL    HW129928   2.132   0.922   0.227  2.7940  0.2480 -0.4921
41364SOL    HW229929   2.088   1.031   0.132  1.1349  0.0081 -0.0262
41365SOL     OW29930   3.195   8.028   7.736 -0.0353  0.0465 -0.6410
41365SOL    HW129931   3.263   7.997   7.796 -1.4149  0.0075  0.9858
41365SOL    HW229932   3.132   7.956   7.733 -1.3471  1.1243  0.0801
41366SOL     OW29933   7.727   2.054  10.440 -0.9492 -0.3947 -0.0496
41366SOL    HW129934   7.793   2.119  10.418 -2.4273  0.4124 -2.4859
41366SOL    HW229935   7.728   2.050  10.536  1.0709  1.1765  0.0452
41367SOL     OW29936   0.871   6.306   2.450  0.3352  0.1957 -0.0049
41367SOL    HW129937   0.900   6.334   2.537  0.1386 -0.9304  0.4486
41367SOL    HW229938   0.949   6.313   2.395  1.1022 -1.2277  0.8155
41368SOL     OW29939   4.255   6.218   0.250  0.0691 -0.0437 -0.0197
41368SOL    HW129940   4.278   6.168   0.172  3.5245  1.1246  0.0424
41368SOL    HW229941   4.257   6.154   0.321  2.8333 -0.2489 -0.1653
41369SOL     OW29942   6.041   2.545   4.245 -0.0092  0.3329  0.0193
41369SOL    HW129943   6.132   2.562   4.269 -0.1422 -0.4044  1.1744
41369SOL    HW229944   5.995   2.537   4.329 -0.8796 -0.5785 -0.5112
41370SOL     OW29945   7.774   2.065   7.075  0.6341 -0.1258 -0.1972
41370SOL    HW129946   7.721   1.995   7.112  0.1272  0.4664  0.2089
41370SOL    HW229947   7.728   2.092   6.996  0.2682  0.4606  0.2123
41371SOL     OW29948   4.762   8.625   8.826  0.5031 -0.3231 -0.3082
41371SOL    HW129949   4.667   8.627   8.826  0.5067  0.2722  0.4050
41371SOL    HW229950   4.784   8.533   8.838  0.0237 -0.4741 -0.5537
41372SOL     OW29951   8.365   8.556   4.696  0.0736  0.1769  0.0856
41372SOL    HW129952   8.297   8.503   4.655  1.3433 -0.4378 -1.3344
41372SOL    HW229953   8.420   8.585   4.623  0.6313  1.7023  1.0530
41373SOL     OW29954   3.300  10.132   0.742  0.2835 -0.3256  0.1980
41373SOL    HW129955   3.367  10.119   0.675 -1.0951 -0.5687 -1.1885
41373SOL    HW229956   3.302  10.052   0.794  0.3953 -0.7543 -0.4519
41374SOL     OW29957   4.901   7.005   6.986  0.3381  0.1280  0.4745
41374SOL    HW129958   4.826   6.954   7.016 -0.1018  1.6447  2.1005
41374SOL    HW229959   4.863   7.084   6.948  1.0857  0.3894  0.2442
41375SOL     OW29960   0.102   6.287   6.815 -0.2529  0.0258 -0.1222
41375SOL    HW129961   0.035   6.330   6.762  0.1277 -1.4465 -1.8943
41375SOL    HW229962   0.086   6.319   6.904 -1.5915  1.7561 -0.9267
41376SOL     OW29963   8.951   3.618   9.834  0.3249  0.0254  0.2629
41376SOL    HW129964   8.989   3.703   9.808 -2.1264  0.6477 -1.6897
41376SOL    HW229965   8.893   3.640   9.907 -0.1461  0.0046 -0.1031
41377SOL     OW29966  10.167   8.173   4.407  0.2877  0.3603  0.8913
41377SOL    HW129967  10.116   8.147   4.483 -1.9438  0.9959 -0.3065
41377SOL    HW229968  10.152   8.268   4.399  0.7709  0.3684 -0.1324
41378SOL     OW29969   5.707   6.006   2.447 -0.1025 -0.6648 -0.2205
41378SOL    HW129970   5.636   6.069   2.455  0.4786 -0.0631  0.1903
41378SOL    HW229971   5.776   6.052   2.399  0.5321 -0.7976  0.5367
41379SOL     OW29972   4.121   2.070   7.024  0.3245  0.2235  0.0957
41379SOL    HW129973   4.114   1.978   7.049 -1.7095  0.8753  2.2572
41379SOL    HW229974   4.170   2.111   7.096  0.2888  1.0119 -0.3138
41380SOL     OW29975   2.940   9.635   4.585 -0.4531 -0.2081  0.2241
41380SOL    HW129976   2.975   9.642   4.496 -0.8203  0.9671  0.1490
41380SOL    HW229977   2.914   9.725   4.607 -3.5589 -0.9712  0.2013
41381SOL     OW29978   3.685   2.819   2.238 -0.2415 -0.1093 -0.8013
41381SOL    HW129979   3.590   2.814   2.240 -0.2116 -0.6614 -0.5484
41381SOL    HW229980   3.707   2.901   2.282 -0.5162 -0.9964  1.0749
41382SOL     OW29981   6.792   2.944   1.274 -0.5214 -0.2099 -0.0906
41382SOL    HW129982   6.805   2.986   1.359  1.0436 -0.0039 -0.3987
41382SOL    HW229983   6.872   2.895   1.259 -2.2133 -3.3193  0.1826
41383SOL     OW29984   5.476   1.329   7.169 -0.4340  0.5124  0.2017
41383SOL    HW129985   5.490   1.416   7.132  1.8214  0.4366  0.7397
41383SOL    HW229986   5.409   1.343   7.237 -1.3962  1.4555 -0.8853
41384SOL     OW29987   3.479   6.462   6.556  0.3239  0.2033  0.0957
41384SOL    HW129988   3.476   6.484   6.463 -2.8324  1.5685  0.3925
41384SOL    HW229989   3.481   6.366   6.559  0.4358  0.1504 -1.3370
41385SOL     OW29990   0.975   6.003   5.854  0.4532  0.4115  0.5150
41385SOL    HW129991   0.949   6.085   5.895 -0.3985 -0.9336  2.8675
41385SOL    HW229992   1.070   6.009   5.846  0.3961  1.6143  0.6210
41386SOL     OW29993   3.090   0.704   8.482 -0.4441  0.2521 -0.0206
41386SOL    HW129994   3.180   0.702   8.515  0.0995 -2.6146 -1.3724
41386SOL    HW229995   3.038   0.669   8.554 -0.3408  0.9668  0.4065
41387SOL     OW29996   4.714   5.130  10.285 -0.2522  0.1486 -0.2820
41387SOL    HW129997   4.718   5.055  10.343 -0.5212  0.6897  0.4565
41387SOL    HW229998   4.643   5.110  10.224 -0.3791 -0.1542 -0.0332
41388SOL     OW29999   2.983   5.565   8.185 -0.4664 -0.0349 -0.0977
41388SOL    HW130000   2.897   5.606   8.169 -1.4256 -1.4325  1.2022
41388SOL    HW230001   3.009   5.597   8.271 -0.2607 -0.5486  0.0345
41389SOL     OW30002   3.086   5.367   4.768  0.1626 -0.2751 -0.1764
41389SOL    HW130003   3.120   5.357   4.680  0.3521 -2.1483  0.0634
41389SOL    HW230004   3.163   5.373   4.824  0.0762 -0.5170 -0.0229
41390SOL     OW30005   9.338   4.695   4.848  0.4896 -0.5248  0.4019
41390SOL    HW130006   9.312   4.726   4.761  1.8909  0.0133  0.1522
41390SOL    HW230007   9.255   4.682   4.894 -0.3179 -1.4226 -1.2050
41391SOL     OW30008   1.337   9.596   1.707 -0.3939 -0.5653 -0.2379
41391SOL    HW130009   1.377   9.557   1.784 -1.0897  0.2656  0.5627
41391SOL    HW230010   1.273   9.531   1.677  0.8276 -1.4792 -0.9520
41392SOL     OW30011   4.472   8.974   7.721 -0.2418 -0.6637  0.6718
41392SOL    HW130012   4.417   8.897   7.709 -0.6833 -0.3230  0.4872
41392SOL    HW230013   4.420   9.047   7.687  0.4217 -0.3671  0.2729
41393SOL     OW30014   6.122   8.679  10.240  0.4557  0.4145  0.2613
41393SOL    HW130015   6.163   8.644  10.320  1.1841  0.6198 -0.0072
41393SOL    HW230016   6.193   8.727  10.197 -0.0094  0.5458 -0.3666
41394SOL     OW30017   6.916   0.503   3.890  0.0905  0.5053  0.2747
41394SOL    HW130018   6.886   0.485   3.801  0.1530 -0.6116  0.4544
41394SOL    HW230019   6.902   0.420   3.936  1.2851  0.6703  0.9596
41395SOL     OW30020   1.105   4.657   0.153 -0.7346 -0.0434 -0.0495
41395SOL    HW130021   1.156   4.711   0.093 -0.7437 -0.3131 -0.3037
41395SOL    HW230022   1.068   4.589   0.097  0.2362 -1.0098  0.4442
41396SOL     OW30023   2.106   7.600   1.087 -0.1584  0.0488 -0.0206
41396SOL    HW130024   2.094   7.554   1.004 -0.1329  0.3944 -0.2205
41396SOL    HW230025   2.018   7.631   1.110 -0.7318 -2.4345  1.5344
41397SOL     OW30026   0.242   0.953   3.770 -0.1605  0.0269 -0.1315
41397SOL    HW130027   0.174   0.972   3.834 -0.3350 -0.2863 -0.2233
41397SOL    HW230028   0.224   1.012   3.697 -0.0723  0.2524  0.0264
41398SOL     OW30029   4.709   3.166   6.523  0.1260 -0.1027 -0.1327
41398SOL    HW130030   4.765   3.198   6.593 -0.7138 -1.0076  0.9895
41398SOL    HW230031   4.623   3.206   6.541  0.3071  1.0706 -1.6793
41399SOL     OW30032   1.366   7.247   4.404 -0.0111 -0.8162  0.7453
41399SOL    HW130033   1.294   7.301   4.372  1.3159  0.5868  0.0005
41399SOL    HW230034   1.359   7.252   4.500  0.1754  0.8274  0.6947
41400SOL     OW30035   1.686   2.996   6.466 -0.3233  0.0766 -0.3945
41400SOL    HW130036   1.605   2.945   6.460  0.1174 -0.5728 -0.9327
41400SOL    HW230037   1.705   3.021   6.376 -0.2007  0.6689 -0.2068
41401SOL     OW30038   0.897   2.517  10.493 -0.1747 -0.7732  0.0559
41401SOL    HW130039   0.950   2.443  10.524  0.6228 -0.5038 -0.6209
41401SOL    HW230040   0.930   2.592  10.543  0.0659 -0.6105 -0.3440
41402SOL     OW30041  10.493   8.100   7.514  0.1826  0.1333 -0.1966
41402SOL    HW130042  10.450   8.031   7.462  0.1357  1.0711 -1.4488
41402SOL    HW230043  10.444   8.179   7.492 -0.7639  0.3659  2.4004
41403SOL     OW30044   0.505   2.655   9.118 -0.2150  0.2891 -0.3847
41403SOL    HW130045   0.598   2.648   9.095 -0.1682  0.0131 -0.1143
41403SOL    HW230046   0.473   2.726   9.063  0.4291  1.2074  0.3840
41404SOL     OW30047   4.727   5.943   6.039 -0.5257 -0.4883 -0.3247
41404SOL    HW130048   4.718   5.899   6.124 -0.2482  1.7144  0.9227
41404SOL    HW230049   4.819   5.933   6.016 -0.2786  0.1487  0.3695
41405SOL     OW30050  10.772   4.504   9.394 -0.0488  0.2518 -0.6504
41405SOL    HW130051  10.696   4.484   9.340 -0.4455  1.7869 -0.7010
41405SOL    HW230052  10.816   4.577   9.350 -0.3966  1.5663  1.0517
41406SOL     OW30053   6.287   3.274   5.754 -0.0048  0.1654  0.2458
41406SOL    HW130054   6.359   3.319   5.711  0.1827  0.0107  0.3969
41406SOL    HW230055   6.325   3.192   5.786  0.0937  0.7175  1.5789
41407SOL     OW30056   6.467   2.188   5.017  0.0545  0.4922 -0.2179
41407SOL    HW130057   6.458   2.103   5.061  0.8174  0.3342 -0.3521
41407SOL    HW230058   6.555   2.187   4.981 -0.0706  1.1886 -0.5638
41408SOL     OW30059   8.284   4.072   9.215 -0.8784  0.0197  0.4012
41408SOL    HW130060   8.378   4.066   9.227 -0.9947 -0.6793  1.0641
41408SOL    HW230061   8.272   4.139   9.149  0.0305  0.9192  1.1246
41409SOL     OW30062   5.336   8.759   1.090  0.0600  0.2976 -0.4522
41409SOL    HW130063   5.391   8.806   1.152 -0.0451 -0.1853  0.0134
41409SOL    HW230064   5.338   8.668   1.120 -1.5981  0.3836  0.0315
41410SOL     OW30065   7.420   7.241   6.716 -0.2763 -0.3289  0.3415
41410SOL    HW130066   7.501   7.278   6.750 -0.3284  0.5761 -0.4988
41410SOL    HW230067   7.437   7.146   6.714 -0.3267 -0.4646  2.9680
41411NA      NA30068   7.840   8.020   1.526  0.2898  0.0199 -0.4896
41412NA      NA30069   8.898   1.068   2.448 -0.0102 -0.3444  0.2419
41413NA      NA30070   0.533  10.434   8.114  0.0613 -0.3462  0.1914
41414NA      NA30071   8.829   7.321   3.428  0.1045 -0.6286 -0.0971
41415NA      NA30072   7.657  10.398   0.327 -0.1691 -0.0824  0.0572
41416NA      NA30073   2.472   4.387   1.474 -0.7065  0.0688  0.2869
41417NA      NA30074   9.629   5.143   1.510  0.1661 -0.0234  0.2845
41418NA      NA30075   1.407   0.199   6.062  0.2505 -0.2241  0.3937
41419NA      NA30076   6.377   7.842   3.716  0.0615  0.2235  0.7385
41420NA      NA30077   8.941   8.494   9.989 -0.4886  0.3551  0.0902
41421NA      NA30078  10.613   9.993   1.083  0.4015 -0.1471  0.5588
41422NA      NA30079   6.500   8.019   2.384 -0.5768  0.3144  0.0270
41423NA      NA30080   0.484  10.500   0.556  0.3020  0.2200  0.0766
41424NA      NA30081  10.329   4.406   5.498 -0.4349 -0.4285  0.0398
41425NA      NA30082   2.638   8.406  10.003 -0.2960 -0.0740 -0.4166
41426NA      NA30083   5.702   0.099   2.002 -0.4265  0.1728 -0.0442
41427NA      NA30084   9.507   2.616   8.127 -0.0082 -0.2096  0.0359
41428NA      NA30085   8.453   8.796   3.796 -0.0955  0.2615 -0.4483
41429NA      NA30086   3.479   3.136  10.290  0.0599 -0.2990  0.4177
41430NA      NA30087   1.907  10.915   4.330  0.3354 -0.0899 -0.0830
41431NA      NA30088   4.360   4.987   2.725 -0.1201  0.1955 -0.1426
41432NA      NA30089  10.803  10.465   1.846  0.3707  0.1581  0.3783
41433NA      NA30090   6.979   0.074   8.137  0.0992 -0.4224 -0.0175
41434NA      NA30091   2.315  10.500  10.128  0.3136  0.2795  0.5444
41435NA      NA30092   9.415   5.472   6.142 -0.4390  0.1771  0.3829
41436NA      NA30093   9.518   7.600   5.099  0.1296 -0.7841  0.6723
41437NA      NA30094   6.800   6.111   3.903 -0.5215 -0.8851  0.0206
41438NA      NA30095   0.381   1.887   0.400  0.0146  0.0770  0.1342
41439NA      NA30096  10.205   8.213   3.198  0.5488 -0.3680  0.3815
41440NA      NA30097   4.889   9.631   0.679  0.5020 -0.5382  0.1184
41441NA      NA30098   9.186  10.284   1.129  0.4060 -0.4912 -0.0276
41442NA      NA30099   8.307   9.405   0.165  0.0916  0.0318 -0.5399
41443NA      NA30100   1.292   1.928   9.798  0.2296  0.5773 -0.3637
41444NA      NA30101   9.107   9.325  10.210 -0.2733  0.0224 -0.0145
41445NA      NA30102   8.792   0.900   0.932 -0.0517 -0.2109  0.2770
41446NA      NA30103   7.588   9.090  10.330  0.1896 -0.1520  0.1066
41447NA      NA30104   9.529  10.358   0.490 -0.1415  0.2134  0.0750
41448NA      NA30105   9.066   7.576  10.294 -0.4201 -0.3455 -0.4384
41449NA      NA30106  10.602   5.230   7.412  0.0192  0.7974 -0.1992
41450NA      NA30107   5.871   8.985   4.515  0.0692  0.0020  0.0815
41451NA      NA30108   5.332   6.789   9.737 -0.4906 -0.0959  0.3508
41452NA      NA30109   7.357  10.573   0.378  0.0889  0.4507 -0.0519
41453NA      NA30110   5.499   0.001   1.504 -0.1471  0.2070 -0.2919
41454NA      NA30111   5.509   7.830   2.954  0.3167  0.1835  0.0661
41455NA      NA30112   6.497   7.598   1.533  0.2233 -0.1352  0.2823
41456NA      NA30113  10.522  10.239   1.001 -0.0873  0.4121  0.1783
41457NA      NA30114   5.375   0.038   1.226  0.0943 -0.1832  0.1254
41458NA      NA30115   7.119   8.725  10.192  0.0864 -0.2577 -0.2129
41459NA      NA30116  10.531   8.171   3.951 -0.2292 -0.5540 -0.3588
41460NA      NA30117   8.284   9.132   0.244 -0.1061  0.2743 -0.1628
41461NA      NA30118   8.286   9.379   0.738 -0.2229  0.1683  0.1469
41462NA      NA30119   8.277   8.987   4.049  0.7206  0.5450 -0.0061
41463NA      NA30120   8.207   9.323   0.424 -0.1474 -0.4613 -0.3769
41464NA      NA30121   9.783   7.367   3.987  0.4409  0.0247  0.1021
41465NA      NA30122   9.080   8.517   3.225  0.0624 -0.2950  0.1345
41466NA      NA30123   9.301   9.624   3.354  0.2417  0.0688 -0.4309
41467NA      NA30124  10.743  10.922   6.532 -0.4323 -0.2117  0.1458
41468NA      NA30125   8.464   1.341   1.055  0.1392 -0.5209 -0.2086
41469NA      NA30126   4.297   9.405   9.873 -0.3065 -0.0231  0.0812
41470NA      NA30127   8.926   7.922   7.918  0.2646 -0.0067  0.4480
41471NA      NA30128   7.170   1.883   2.012 -0.1071  0.7847  0.3238
41472NA      NA30129   5.675  10.413  10.675  0.1872  0.1288 -0.2840
41473NA      NA30130   8.005   1.534   2.649  0.5007 -0.1687  0.3861
41474NA      NA30131   7.268   8.542  10.354 -0.0224  0.0372  0.3261
41475NA      NA30132   7.181   7.003   2.086  0.4796 -0.5088 -0.2998
41476NA      NA30133   9.895   8.108   0.743 -0.1869 -0.3230 -0.0421
41477NA      NA30134   3.572   2.626   4.100 -0.1888 -0.3283  0.0532
41478NA      NA30135   6.320   9.572   3.559 -0.2261 -0.1052  0.0058
41479NA      NA30136   8.017  10.167   8.405 -0.0637  0.2433 -0.0180
41480NA      NA30137   6.451   9.152   0.312  0.2788  0.2662  0.1691
41481NA      NA30138   6.019   9.622   3.483 -0.2026 -0.1790  0.3396
41482NA      NA30139   8.959   1.163   0.000  0.5022 -0.0482 -0.1475
41483NA      NA30140   6.019   9.451   0.341 -0.0283 -0.2441 -0.1195
41484NA      NA30141   6.161   8.986   4.456  0.3370 -0.0258  0.2212
41485NA      NA30142   9.219   8.240   6.212 -0.1483 -0.0452 -0.7677
41486NA      NA30143   8.569   1.305   2.850 -0.4680 -0.0899 -0.2343
41487NA      NA30144   7.315  10.615   0.816 -0.3459  0.6671 -0.0495
41488NA      NA30145   0.279   9.354   1.495  0.3729 -0.5230  0.1438
41489NA      NA30146   6.565   3.961   2.777 -0.0807  0.1361 -0.1701
41490NA      NA30147   1.701  10.090   4.285  0.3463  0.4302  0.0813
41491NA      NA30148   0.730   4.729   0.294  0.1887 -0.5770 -0.0076
41492NA      NA30149  10.042   8.059   2.189 -0.2599 -0.3069 -0.2807
41493NA      NA30150   9.873   9.652   8.340  0.1335 -0.1896 -0.0753
41494NA      NA30151   7.925   2.889   1.318  0.3424 -0.4010 -0.0674
41495NA      NA30152   4.691   2.449   6.568  0.3025 -0.2796  0.1282
41496NA      NA30153  10.147  10.557   1.039 -0.5623  0.3269 -0.1605
41497NA      NA30154   2.134   9.010   6.622 -0.5064  0.0842 -0.2362
41498NA      NA30155   6.760   0.873   1.557  0.2652 -0.3345  0.8694
41499NA      NA30156   9.878   7.956   0.503 -0.3142  0.0659  0.2363
41500NA      NA30157   7.304   1.449   1.392  0.1486 -0.3616 -0.6885
41501NA      NA30158   1.738   2.220   2.310 -0.1377 -0.3448 -0.2031
41502NA      NA30159  10.730   0.636   2.670 -0.4669 -0.2331 -0.0167
41503NA      NA30160   8.746  10.830   3.436  0.7296  0.1092 -0.3728
41504NA      NA30161   6.359   0.259   2.311 -0.1462 -0.1463  0.5362
41505NA      NA30162   5.330   8.879   0.894  0.0899 -0.6710  0.1584
41506NA      NA30163  10.149   2.916   8.402  0.0177 -0.0445  0.2674
41507NA      NA30164   6.513   8.223   2.664  0.3686 -0.3140  0.2995
41508NA      NA30165   7.833  10.495   0.574  0.3862  0.4150  0.2992
41509NA      NA30166   7.826   9.539   0.136  0.0162 -0.1234 -0.0490
41510NA      NA30167   1.605   2.122   8.213  0.0912 -0.3211  0.5401
41511NA      NA30168   7.474  10.618  10.728 -0.2010  0.0266 -0.2091
41512NA      NA30169   9.373  10.572   0.963 -0.2239  0.0091  0.3186
41513NA      NA30170   6.454  10.801   0.197 -0.5293 -0.1646  0.0413
41514NA      NA30171   9.655   8.222   0.669 -0.0087 -0.7118  0.3598
41515NA      NA30172   8.702   1.184   0.831  0.0645 -0.0897 -0.2844
41516NA      NA30173   8.275   7.285  10.862 -0.2937 -0.0488 -0.3698
41517NA      NA30174   5.651   9.260   1.287  0.6551 -0.6257  0.0562
41518NA      NA30175   2.782   4.655   7.952 -0.5154 -0.2498 -0.6546
41519NA      NA30176   6.506   7.721   2.406  0.5500 -0.4885  0.3676
41520NA      NA30177   6.301   9.355   2.353 -0.2400  0.2601 -0.4071
41521NA      NA30178   8.944   8.263  10.200  0.5294 -0.1259 -0.4819
41522NA      NA30179   3.106  10.416   6.723  0.3358 -0.2537 -0.2116
41523NA      NA30180   5.207   0.879   1.150  0.0304 -0.4662  0.3663
41524NA      NA30181   2.723   7.195   2.968  0.1054  0.3641 -0.3907
41525NA      NA30182   7.536  10.466   0.597 -0.4026 -0.6708  0.3642
41526NA      NA30183   8.055   9.605   0.301  0.4302 -0.4197 -0.3158
41527NA      NA30184   6.450   7.845   9.574  0.0941  0.4370 -0.0691
41528NA      NA30185   4.256   2.850   9.837 -0.2530 -0.7159 -0.1201
41529NA      NA30186   7.070   3.354   2.203 -0.1661  0.2463 -0.3441
41530NA      NA30187   7.099   5.105   4.138  0.0042  0.5096 -0.2980
41531NA      NA30188   3.706   3.579   5.200 -0.5199 -0.1100 -0.0092
41532NA      NA30189   6.748   7.659   1.367  0.0462  0.3590  0.3438
41533NA      NA30190   5.762   7.589   1.308  0.4150  0.1089  0.2318
41534NA      NA30191   0.231   9.665   1.392 -0.3178 -0.2863 -0.1830
41535NA      NA30192   0.005   9.436   1.534 -0.1222 -0.4550 -0.0003
41536NA      NA30193   0.395   9.199   2.123 -0.7548  0.4052  0.0800
41537NA      NA30194   9.756   8.414   0.927 -0.0233 -0.1175  0.0219
41538NA      NA30195   5.703  10.035   4.872  0.1632  0.1846 -0.1913
41539NA      NA30196   8.739   8.951  10.181 -0.1518  0.7657 -0.3058
41540NA      NA30197   5.445   0.934   0.899  0.2284  0.7966 -0.5491
41541NA      NA30198   6.796   7.869   1.104  0.0682 -0.2956  0.1835
41542NA      NA30199  10.332  10.313   1.196  0.0970  0.2796  0.3527
41543NA      NA30200   9.328   7.286   5.121  0.4821 -1.0741 -0.1306
41544NA      NA30201   5.346   8.971   1.352  0.1833 -0.3595 -0.2743
41545NA      NA30202   9.181   7.222   0.887  0.2376 -0.3557 -0.3401
41546NA      NA30203   9.237   1.085   0.046  0.2432 -0.7479 -0.7686
41547NA      NA30204   7.018   7.933   0.699 -0.1839 -0.1913  0.0119
41548NA      NA30205   7.415   8.795  10.309 -0.0433  0.1092 -0.1332
41549NA      NA30206   1.161   5.046   1.491 -0.4148 -0.0352  0.3016
41550NA      NA30207   7.036   7.649   6.109  0.1163  0.1139 -0.0253
41551NA      NA30208   5.734   9.579   0.274 -0.4082  0.3161 -0.0166
41552NA      NA30209   5.350   9.194   0.823 -0.3802  0.4843 -0.0100
41553NA      NA30210   8.489   6.752  10.559 -0.0733 -0.3796 -0.4739
41554NA      NA30211   0.854   7.403  10.651 -0.0945  0.0309 -0.0319
41555NA      NA30212   4.993  10.054   1.395  0.4741  0.0208  0.4855
41556NA      NA30213   6.272   9.403   3.311  0.4501 -0.2606  0.1398
41557NA      NA30214   1.806   0.382   5.368 -0.2427 -0.4911  0.6531
41558NA      NA30215   9.633   8.426   2.348  0.4360  0.3295 -0.0603
41559NA      NA30216   2.161   1.272   6.920  0.0358  0.0899 -0.2225
41560NA      NA30217   8.541   7.267  10.806  0.0652  0.1149  0.0479
41561NA      NA30218   5.660   5.217   2.387  0.5004 -0.0526 -0.6276
41562NA      NA30219   8.505   1.390   0.748 -0.0094 -0.7358  0.6089
41563NA      NA30220   9.220   0.396   1.632 -0.1744 -0.1113 -0.3701
41564NA      NA30221   7.877   0.573   1.526  0.1429  0.6664 -0.6241
41565NA      NA30222   9.077   9.541   3.543 -0.1483  0.4185 -0.4825
41566NA      NA30223   4.226   3.891   6.027 -0.3950 -0.4049  0.2517
41567NA      NA30224   8.213   9.622   0.569 -0.5558 -0.0295  0.1163
41568NA      NA30225   7.460   1.420   1.133 -0.0833 -0.1924  0.4480
41569NA      NA30226   6.325   9.557   2.128 -0.2935  0.0547  0.3626
41570NA      NA30227   9.663   9.597   2.548 -0.3383 -0.3168 -0.2434
41571NA      NA30228   8.681   0.484   0.536  0.0546  0.0923  0.3258
41572NA      NA30229   9.450   0.711   1.772 -0.2653  0.0857  0.0753
41573NA      NA30230  10.040   0.119   2.190  0.0464 -0.2336  0.2409
41574NA      NA30231   5.805  10.146   2.183  0.2803  0.2760  0.2065
41575NA      NA30232   6.192   9.437   1.854  0.2142  0.6165  0.3041
41576NA      NA30233   9.105   7.395  10.025  0.0371 -0.0038  0.6281
41577NA      NA30234   6.583   2.487   9.988 -0.2168 -0.0381 -0.3584
41578NA      NA30235   8.148   3.797   6.473 -0.2134  0.1300 -0.1779
41579NA      NA30236   6.619   7.846   3.522 -0.2004 -0.2250 -0.0540
41580NA      NA30237   9.809  10.590   3.144 -0.6264 -0.2910 -0.1156
41581NA      NA30238   9.148   0.345  10.183 -0.2979  0.0082 -0.0254
41582NA      NA30239   8.526   0.406   2.874  0.1440  0.2918 -0.5756
41583NA      NA30240   7.597   8.207   3.163  0.0625 -0.5205 -0.2097
41584NA      NA30241   4.961   8.143   2.129 -0.4523 -0.0847 -0.4709
41585NA      NA30242   1.332   2.698   1.625 -0.5720 -0.0997 -0.2216
41586NA      NA30243   0.186  10.718   2.862 -0.1261 -0.4524  0.2495
41587NA      NA30244  10.464   8.779   1.024 -0.3554  0.1236 -0.0493
41588NA      NA30245   7.429  10.435   0.119 -0.1829  0.2772  0.2309
41589NA      NA30246   8.042   9.481   3.058 -0.1815 -0.1242  0.0744
41590NA      NA30247   6.637   7.852   1.658 -0.5087  0.3533  0.1931
41591NA      NA30248  10.498   8.232   1.410  0.3947  0.0884  0.2647
41592NA      NA30249   0.492   7.960   7.124 -0.3143 -0.5894  0.1409
41593NA      NA30250   5.173   0.172   0.246  0.0507 -0.1044 -0.0968
41594NA      NA30251   5.692  10.899   9.282  0.1103 -0.2560  0.2774
41595NA      NA30252   5.645   0.188   1.710  0.2924 -0.1554 -0.5702
41596NA      NA30253   0.773  10.050   2.182 -0.1785  0.0724 -0.2079
41597NA      NA30254   8.127   8.178   0.555  0.2923 -0.1833  0.0803
41598NA      NA30255   7.826   7.996   3.285 -0.0098 -0.7338  0.1989
41599NA      NA30256   9.246   4.307   5.466  0.1882  0.3362  0.4301
41600NA      NA30257   6.084   9.476  10.445  0.3863  0.1766  0.9180
41601NA      NA30258   6.511   0.517  10.402  0.2437 -0.1288 -0.0413
41602NA      NA30259   5.752   2.869   6.655  0.0549  0.0890  0.1178
41603NA      NA30260   1.131   0.220   7.275  0.0583 -0.1215 -0.0562
41604NA      NA30261   9.112   1.375  10.801  0.9523 -0.4480 -0.1729
41605NA      NA30262   4.677   0.764   5.925  0.5618 -0.2699  0.1389
41606NA      NA30263   9.035   8.869   1.564  0.2492  0.1436 -0.1484
41607NA      NA30264   8.119   0.763   7.436 -0.0370  0.1127  0.0400
41608NA      NA30265   0.175  10.511   1.807 -0.3430 -0.3525 -0.2400
41609NA      NA30266   5.402  10.682   0.536 -0.1300 -0.3452 -0.1714
41610NA      NA30267   6.505   0.531   2.266  0.3378 -0.1857  0.3819
41611NA      NA30268   9.818   4.403   0.973 -0.0914  0.0499 -0.5791
41612NA      NA30269   7.883   0.800   1.700 -0.1693  0.2774  0.3037
41613NA      NA30270   7.358   2.044   2.180  0.0062 -0.3468 -0.5418
41614NA      NA30271   9.179   0.657   1.734 -0.1486  0.2714  0.3794
41615NA      NA30272   8.427   7.010  10.743 -0.0989 -0.3503 -0.3891
41616NA      NA30273   5.681   9.768   9.278  0.2056  0.2571  0.0949
41617NA      NA30274   9.828  10.799   2.244 -0.0693  0.2856 -0.6381
41618NA      NA30275   9.003   1.217   0.996 -0.2174 -0.2257  0.2055
41619NA      NA30276   1.108   5.882   6.305 -0.3580  0.4777  0.6465
41620NA      NA30277   7.260   9.392   0.259 -0.2703  0.6353 -0.0300
41621NA      NA30278   6.625   0.210   2.173 -0.1889 -0.1984  0.1912
41622NA      NA30279   8.654   0.619   0.834 -0.4787  0.3225  0.1465
41623NA      NA30280  10.506   3.689   2.722  0.1864 -0.3373 -0.2351
41624NA      NA30281  10.899   0.018   1.786  0.2233  0.5568 -0.0724
41625NA      NA30282   9.485   8.692   2.366  0.0160 -0.2260 -0.5589
41626NA      NA30283   6.554   9.763   2.192 -0.2588 -0.0713  0.1404
41627NA      NA30284   6.064  10.317   2.241  0.2067 -0.0879 -0.0947
41628NA      NA30285   0.176   9.598   1.689  0.0533 -0.4663  0.1960
41629NA      NA30286   5.977   8.021   3.975 -0.1619  0.2959 -0.2775
41630NA      NA30287   7.827   7.904   3.605 -0.3273 -0.1288 -0.6607
41631NA      NA30288   6.459   7.688   1.840 -0.5796 -0.0546  0.2213
41632NA      NA30289  10.610   7.411   3.196  0.2630  0.2475  0.0707
41633NA      NA30290   9.778  10.569   1.892  0.3129 -0.1497  0.2768
41634NA      NA30291   5.690   7.736   1.014  0.1614  0.1206 -0.3187
41635NA      NA30292   3.499   8.425   2.821 -0.5234 -0.1745  0.4963
41636NA      NA30293  10.318   5.231  10.520  0.0317 -0.4680  0.1560
41637NA      NA30294  10.620   8.932   2.309 -0.2661  0.7019  0.1855
41638NA      NA30295  10.653   8.702   1.225  0.5931 -0.1833  0.2881
41639NA      NA30296  10.921  10.679   1.953  0.6742  0.6056  0.1236
41640NA      NA30297   9.263   8.722   1.302  0.5045 -0.0062 -0.3654
41641NA      NA30298   5.761   0.042   1.514  0.4657  0.0437  0.1010
41642NA      NA30299   7.225   8.340  10.581  0.1623 -0.1973  0.8232
41643NA      NA30300   7.747   8.412   7.502 -0.4194  0.2159  0.0293
41644NA      NA30301   3.123   3.841   0.111  0.1085 -0.3292 -0.2036
41645NA      NA30302   9.059   7.320   6.067 -0.0673  0.4988  0.3266
41646NA      NA30303   8.016   1.819   2.510  0.3072  0.1738 -0.1628
41647NA      NA30304   9.411   3.789   0.730 -0.0584 -0.4432 -0.0816
41648NA      NA30305   3.460   9.856   4.194  0.4103  0.3343 -0.0945
41649NA      NA30306   6.530   0.003   2.360  0.1660  0.2319 -1.0204
41650NA      NA30307   8.492   8.239   0.648  0.1737 -0.2015 -0.0320
41651NA      NA30308   8.694   7.361   3.713  0.3528  0.3124  0.9279
41652NA      NA30309   9.859   7.643   4.138  0.2959  0.3864 -0.4570
41653NA      NA30310  10.057   7.668   0.126  0.0400 -0.0932 -0.2976
41654NA      NA30311   0.309   9.501   2.017 -0.3203  0.2110 -0.3223
41655NA      NA30312   7.596   1.384   1.417  0.1122 -0.8114 -0.0368
41656NA      NA30313   4.499   8.301   8.257 -0.4831 -0.3226  0.5554
41657NA      NA30314   0.869   2.637   5.908 -0.1638 -0.4125  0.0202
41658NA      NA30315   8.331   0.225   2.485  0.1711 -0.1831  0.1622
41659NA      NA30316   7.734  10.783   2.520 -0.0328 -0.2697  0.3961
41660NA      NA30317   9.761   8.254   2.121  0.0548  0.0065 -0.0048
41661NA      NA30318   3.658  10.392   9.270  0.7837  0.6136 -0.2390
41662NA      NA30319   5.579   7.545   3.016  0.1668 -0.2157 -0.1195
41663NA      NA30320   9.489   1.552   0.945  0.5356  0.3960 -0.1416
41664NA      NA30321   8.230   1.934   0.593 -0.0712  0.3423 -0.2295
41665NA      NA30322   7.321   1.689   1.226 -0.1494 -0.2012  0.4244
41666NA      NA30323   8.815   0.201   3.207  0.6113 -0.5194  0.1838
41667NA      NA30324  10.682   4.682   9.808 -0.1249 -0.6164 -0.1541
41668NA      NA30325   8.299   6.274   2.045  0.1455 -0.0448  0.0080
41669NA      NA30326   0.106   0.545   3.890 -0.1611 -0.6364  0.2656
41670NA      NA30327   6.160   8.802   1.850  0.5837 -0.3078  0.2648
41671NA      NA30328   6.358  10.044   1.065  0.2802  0.2737  0.0424
41672NA      NA30329   6.387   9.566   3.994  0.1357  0.2006 -0.4106
41673NA      NA30330   8.068   0.185   2.545 -0.3773  0.1466 -0.2021
41674NA      NA30331   8.029  10.847   2.477 -0.3800 -0.7363 -0.2057
41675NA      NA30332  10.255   0.552   2.293  0.0566  0.2413 -0.2985
41676NA      NA30333   7.586   8.890  10.057 -0.0664 -0.0238  0.4319
41677NA      NA30334   9.863   5.813   4.199 -0.1700  0.2248  0.2606
41678NA      NA30335  10.630   0.871   2.464 -0.3800 -0.0276  0.1036
41679NA      NA30336   6.215   9.769   3.761 -0.1274  0.1470 -0.1576
41680NA      NA30337   8.056   8.798   4.152  0.5523 -0.0835  0.0405
41681NA      NA30338   7.661   9.656  10.911  0.2141 -0.4644  0.1004
41682NA      NA30339   7.222   9.881   2.529 -0.7765  0.7725 -0.1204
41683NA      NA30340   7.573  10.878   2.700 -0.4782 -0.4985 -0.0658
41684NA      NA30341   9.958  10.345   3.199 -0.1142 -0.2455 -0.1159
41685NA      NA30342   8.039   8.610   4.394  0.3179 -0.0245 -0.0267
41686NA      NA30343   8.556   8.157   2.123 -0.5194  0.2939  0.3558
41687NA      NA30344   3.991   5.641   7.571 -0.0478 -0.3622  0.2992
41688NA      NA30345  10.650  10.817   1.849  0.1586  0.4173 -0.0984
41689NA      NA30346   8.684   7.627   8.552  0.0626 -0.3506  0.2050
41690NA      NA30347   6.367   9.241   2.092 -0.1760  0.1532 -0.2081
41691NA      NA30348  10.444   9.141   2.215 -0.2844 -0.1802 -0.0890
41692NA      NA30349  10.360   9.079   2.463  0.1039  0.0735  0.0882
41693NA      NA30350   8.051   9.108   3.058 -0.0902  0.1760  0.1935
41694NA      NA30351   6.315   8.775   6.468 -0.1315  1.2263 -0.3317
41695NA      NA30352   6.497   7.833   2.115 -0.0699  0.4424 -0.2088
41696NA      NA30353   1.877   7.892   4.362  0.2604 -0.3824  0.4989
41697NA      NA30354   9.014   8.600   1.443 -0.0889 -0.0463 -0.2344
41698NA      NA30355   7.667   3.323   2.146 -0.4236 -0.8333  0.2665
41699NA      NA30356   2.556   7.665   8.809  0.1041  0.3433  0.0487
41700NA      NA30357   8.882   7.466   0.845  0.1709 -0.1657  0.1669
41701NA      NA30358   7.087   7.861   0.977  0.2223  0.6773  0.0715
41702NA      NA30359   5.752  10.389   2.333 -0.2204 -0.5306 -0.2277
41703NA      NA30360   7.314   9.770   3.641 -0.4011 -0.2829  0.4786
41704NA      NA30361   4.521   7.681   3.465  0.3735 -0.1599 -0.4885
41705NA      NA30362   9.027   8.173   9.046 -0.5018  0.3044 -0.1521
41706NA      NA30363   0.356   7.514   3.467 -0.2723 -0.3389 -0.1460
41707NA      NA30364   7.459   9.473   0.069 -0.2027 -0.1040  0.0567
41708NA      NA30365   8.766   0.467   3.372  0.3918 -0.0042  0.3136
41709NA      NA30366   6.229   8.316   2.767  0.6674  0.0779 -0.5169
41710NA      NA30367   1.199   7.068   6.385  0.3066 -0.0604  0.2544
41711NA      NA30368   6.578   0.858  10.483  0.2248 -0.0630  0.0968
41712NA      NA30369   4.865  10.395   3.386 -0.7043 -0.2021  0.3499
41713NA      NA30370   7.816   9.770   2.575  0.1828  0.3429 -0.2994
41714NA      NA30371   6.533   9.607   3.334 -0.5091  0.8914 -0.2878
41715NA      NA30372   0.912   5.692   8.904 -0.2613  0.2899  0.3412
41716NA      NA30373   7.595   8.073   3.581  0.0628  0.2978  0.0434
41717NA      NA30374   8.112   3.360   4.839  0.1564  0.3192  0.1089
41718NA      NA30375  10.395  10.542   3.924  0.1463 -0.1237  0.6396
41719NA      NA30376   7.109   9.618   2.300 -0.1426 -0.2947  0.3514
41720NA      NA30377   8.707   1.216   4.000 -0.1404  0.0949 -0.0464
41721NA      NA30378  10.300  10.660   4.189 -0.2738  0.5493  0.2665
41722NA      NA30379  10.334   9.206   2.711 -0.0684 -0.4118  0.2904
41723NA      NA30380   8.035   7.877   0.641  0.5808 -0.2034  0.5614
41724NA      NA30381   5.980  10.471  10.633  0.1986  0.0183 -0.0879
41725NA      NA30382   6.293   7.701  10.418 -0.3179 -0.3665 -0.1511
41726NA      NA30383   5.814   0.984   0.813  0.1023 -0.0154  0.1799
41727NA      NA30384   8.884   9.522   4.181  0.1815 -0.0751 -0.3529
41728NA      NA30385   9.183   1.453   1.039  0.2432 -0.3595  0.0991
41729NA      NA30386   5.869   8.810   6.444 -0.0124  0.6944 -0.4292
41730NA      NA30387   8.193   2.467   9.562 -0.2090 -0.2215 -0.4025
41731NA      NA30388   8.394   5.587   1.124 -0.0827 -0.2151  0.6255
41732NA      NA30389  10.434   0.804   2.248 -0.0928 -0.0102 -0.2917
41733NA      NA30390   7.011   3.792   0.441 -0.2862  0.4240 -0.5076
41734NA      NA30391   2.063   1.426   2.328 -0.4554  0.0610  0.4610
41735NA      NA30392   7.210   9.891   3.353 -0.0237  0.0730 -0.0394
41736NA      NA30393   3.197   2.096   0.136 -0.8296 -0.0142 -0.3076
41737NA      NA30394   8.655   8.361   0.940  0.0268 -0.2176  0.2246
41738NA      NA30395   0.472  10.017   9.799 -0.3065  0.4172  0.2595
41739NA      NA30396   4.809   9.863   1.200 -0.0913  0.0035 -0.7938
41740NA      NA30397   7.717   8.307   1.458 -0.1981  0.9502 -0.0710
41741NA      NA30398   5.555  10.137   2.337  0.1273 -0.7793  0.2469
41742NA      NA30399  10.925   8.880   1.347  0.1864 -0.4421 -0.5506
41743NA      NA30400   8.757   1.104   2.738  0.4940  0.5959 -0.1640
41744NA      NA30401   5.856   8.696   1.844  0.3855 -0.4950 -0.1762
41745NA      NA30402   0.359   9.918   7.347 -0.2527  0.0687  0.1130
41746NA      NA30403  10.218  10.760   3.912 -0.1556 -0.3071  0.0190
41747NA      NA30404   9.612   9.861   0.169 -0.6730 -0.0024  0.0241
41748NA      NA30405   8.401   1.145  10.623  0.0929 -0.0284 -0.3759
41749NA      NA30406   5.857   7.477   3.084 -0.9186  0.5600 -0.0476
41750NA      NA30407   6.252   7.649   2.266 -0.5622  0.0924 -0.2057
41751NA      NA30408   8.541   2.526   4.209 -0.6976  0.0290  0.8577
41752NA      NA30409   9.822  10.644   3.474 -0.1116  0.6351  0.2573
41753NA      NA30410   7.757   9.065   3.033  0.2610  0.1584 -0.0500
41754NA      NA30411   9.059   0.989   0.239  0.3413  0.1619 -0.1378
41755NA      NA30412   5.015  10.680   0.558  0.1628  0.1496  0.1031
41756NA      NA30413   5.457   9.077   1.083  0.5316  0.2518  0.3712
41757NA      NA30414   9.812   9.789   0.433 -0.4602 -0.2427 -0.1644
41758NA      NA30415   8.533   0.318   3.155 -0.0609  0.0574 -0.3191
41759NA      NA30416   8.723   8.412   1.395 -0.3537 -0.0896 -0.0603
41760NA      NA30417   5.388   0.058   0.505  0.3764 -0.4269 -0.1726
41761NA      NA30418   2.172   1.276   4.111 -0.1260 -0.0515 -0.3374
41762NA      NA30419   2.088   0.601   4.892  0.3301  0.0864 -0.7707
41763NA      NA30420   6.054   7.115   4.443 -0.3642  0.2457 -0.1125
41764NA      NA30421   7.990  10.062   2.626 -0.2579 -0.5226 -0.1946
41765NA      NA30422   7.568   8.314   3.453  0.2958 -0.1671 -0.3942
41766NA      NA30423   9.610  10.503   3.614  0.3103  0.5674 -0.3870
41767NA      NA30424   9.001   9.258   3.692 -0.6088  0.0052  0.1599
41768NA      NA30425   6.076   1.298   1.516 -0.0268 -0.4048 -0.1153
41769NA      NA30426   9.843   7.296   3.700  0.3920  0.0276  0.3496
41770NA      NA30427   3.841   1.488   5.483 -0.7635 -0.4090 -0.2690
41771NA      NA30428   6.911   0.677   1.408  0.2047 -0.3733 -0.1475
41772NA      NA30429   3.834   5.855   6.891  0.0557 -0.4985  0.2726
41773NA      NA30430   6.578  10.751  10.840 -0.0783  0.3531  0.3358
41774NA      NA30431   8.602   8.381   2.316 -0.2678 -0.4737 -0.6478
41775NA      NA30432  10.568   2.083   2.818 -0.1274  0.1692 -0.2305
41776NA      NA30433   9.337   7.558  10.147  0.0393  0.7757  0.2472
41777NA      NA30434   8.317   8.650   3.981  0.5070 -0.1375  0.5824
41778NA      NA30435   4.858   9.816   0.886  0.0413 -0.4024 -0.0658
41779NA      NA30436   8.912   0.626   0.937 -0.2333 -0.0869  0.0960
41780NA      NA30437   9.639  10.400   3.320 -0.6890  0.1323 -0.0247
41781NA      NA30438   6.218   8.129   3.811 -0.2547  0.1622  0.2721
41782NA      NA30439   6.687  10.712   2.502  0.3414 -0.2879 -0.7059
41783NA      NA30440   8.144   2.240   0.756  0.1998 -0.2816  0.2348
41784NA      NA30441   6.701   7.759   1.959 -0.0740  0.2325 -0.0491
41785NA      NA30442   9.662   7.797   4.318  0.0961  0.5325 -0.0512
41786NA      NA30443   7.081   9.881   2.801 -0.3085  0.0149 -0.1324
41787NA      NA30444   1.447   9.718   1.268 -0.2689  0.3148  0.2144
41788NA      NA30445   7.705   7.760   3.934  0.0212 -0.3363 -0.0277
41789NA      NA30446   6.219   7.595   3.746  0.4220  0.3868  0.4158
41790CL      CL30447   5.199   5.919   1.068  0.0633  0.2890  0.1350
41791CL      CL30448   7.587   5.766   3.933 -0.2435  0.0487 -0.0924
41792CL      CL30449   0.059   5.305   1.186 -0.1659 -0.2640 -0.0852
41793CL      CL30450   9.678   2.894   8.373 -0.0941 -0.1170  0.0078
41794CL      CL30451   9.788   3.905   3.360  0.1117  0.0648 -0.2695
41795CL      CL30452   8.864   8.233   0.868  0.4112 -0.1979 -0.1432
41796CL      CL30453   1.480   6.704   6.292  0.1712 -0.0613  0.2761
41797CL      CL30454   1.218   4.706   9.063 -0.0038  0.0909 -0.2125
41798CL      CL30455   0.508   7.204   6.308 -0.2040  0.0201 -0.4863
41799CL      CL30456   8.828   2.068   1.444  0.2518 -0.4824 -0.3898
41800CL      CL30457   1.148   6.307   6.517  0.1205 -0.3397 -0.0671
41801CL      CL30458   2.222  10.607   4.283  0.0994  0.5214 -0.0939
41802CL      CL30459   5.669   5.310   2.609 -0.0014  0.2901  0.2249
41803CL      CL30460   0.785   2.407   5.978 -0.2099  0.0209  0.3460
41804CL      CL30461   0.831  10.356   5.555 -0.0686 -0.0587 -0.0973
41805CL      CL30462   4.050   9.683  10.339  0.3839  0.3571 -0.3484
41806CL      CL30463   5.377   1.966   5.771  0.0524  0.3157  0.2377
41807CL      CL30464   6.510   4.441  10.874  0.3924 -0.3017  0.4568
41808CL      CL30465   9.025   3.446   2.946 -0.5317 -0.1357 -0.4186
41809CL      CL30466   0.991   2.688   2.870 -0.1538 -0.2667 -0.0883
41810CL      CL30467   7.514   3.212   2.313 -0.3375  0.0072 -0.0085
41811CL      CL30468   6.460   0.584   3.334  0.1883  0.1932  0.0476
41812CL      CL30469   4.418   0.456  10.031 -0.1572 -0.1632 -0.3673
41813CL      CL30470   6.862   7.864   0.863 -0.0557 -0.1914  0.2855
41814CL      CL30471   1.690   3.498   0.532 -0.1991  0.1103  0.2898
41815CL      CL30472   8.663   2.920   4.058 -0.4595 -0.1191  0.6551
41816CL      CL30473   2.460   8.109   8.228  0.0449  0.3519 -0.2989
41817CL      CL30474   8.776   4.465   1.796 -0.2754  0.2407  0.5022
41818CL      CL30475   3.334   1.476  10.532 -0.3435  0.4349  0.0596
41819CL      CL30476   4.722   7.183   9.104  0.0366 -0.6451 -0.0105
41820CL      CL30477   0.727   3.968   4.092 -0.1165 -0.4292  0.2649
41821CL      CL30478   9.937   7.237   2.566  0.0278 -0.2908 -0.0999
41822CL      CL30479   5.543   8.950   5.522  0.2058  0.1080 -0.1528
41823CL      CL30480   6.699   6.545   1.185 -0.2002  0.1848  0.3301
41824CL      CL30481   2.010   5.195   7.281  0.2390 -0.0142  0.2320
41825CL      CL30482   5.770   7.303   3.504 -0.4203 -0.6648 -0.1833
41826CL      CL30483   7.420   9.003   4.685 -0.5652 -0.2580 -0.1298
41827CL      CL30484   1.924  10.339  10.453  0.0727 -0.1945  0.0843
41828CL      CL30485   0.528   0.255   0.044  0.1787 -0.2425  0.2271
41829CL      CL30486   2.663   1.299   7.511 -0.3253 -0.1135  0.0055
41830CL      CL30487   1.117   6.669  10.458 -0.1401 -0.3904  0.2757
41831CL      CL30488  10.024   5.468   4.649 -0.4706 -0.1941  0.2065
41832CL      CL30489   1.833   0.516   4.226  0.3281  0.3474 -0.2609
41833CL      CL30490   4.738   4.354   0.711 -0.1534  0.1989  0.2043
41834CL      CL30491   3.162   4.194   0.906 -0.2222 -0.4114 -0.0963
41835CL      CL30492   8.191   7.616   5.046  0.1580  0.1108 -0.0081
41836CL      CL30493   9.644   9.871   9.190  0.3969 -0.2638  0.4011
41837CL      CL30494   0.629   6.445   4.310  0.1375  0.0322 -0.5898
41838CL      CL30495   6.370   7.434   0.167 -0.1750 -0.1024 -0.7066
41839CL      CL30496   2.037   7.332   1.574  0.5866  0.1186 -0.2297
41840CL      CL30497   9.552  10.086   8.688 -0.2143  0.1982 -0.1032
41841CL      CL30498   5.482   2.645   6.311 -0.3294 -0.3803  0.2779
41842CL      CL30499   5.620   9.792   9.050 -0.2456 -0.0223 -0.0316
41843CL      CL30500   5.220   7.385   2.675  0.3782 -0.2581 -0.3041
41844CL      CL30501   2.844   8.149   7.242 -0.0077 -0.0036  0.0294
41845CL      CL30502   9.695   6.293   1.098  0.2474 -0.0922  0.0874
41846CL      CL30503   0.371   7.254   9.820 -0.2141  0.2606 -0.0046
41847CL      CL30504   9.067   3.727   7.814 -0.0666 -0.2369  0.0502
41848CL      CL30505   1.549   1.881   3.199 -0.1941 -0.1804 -0.4068
41849CL      CL30506   0.950   3.032   6.917  0.1298  0.0072 -0.0025
41850CL      CL30507   8.924   3.354   0.454 -0.0753 -0.2150 -0.2220
41851CL      CL30508   6.170   0.353  10.087  0.3195  0.1224  0.1724
41852CL      CL30509   5.547   8.948   2.144 -0.3482 -0.3768 -0.2065
41853CL      CL30510   1.842   2.741   2.798 -0.3470 -0.1526  0.2684
41854CL      CL30511   5.931   1.001   6.954 -0.0902  0.0603  0.0913
41855CL      CL30512   6.543   6.065   3.871  0.0675  0.1802 -0.3056
41856CL      CL30513   7.264   8.004   9.473  0.1583 -0.3591  0.0648
41857CL      CL30514   1.122  10.214   8.690 -0.1880 -0.2276  0.3102
41858CL      CL30515   1.454   4.837   6.598  0.1016 -0.2817  0.3491
41859CL      CL30516   4.185   4.969   7.434  0.2710  0.2053  0.3678
41860CL      CL30517   9.264   6.275   5.344 -0.0919  0.0723 -0.0240
41861CL      CL30518   5.837   3.294   4.207  0.4674 -0.1266 -0.0108
41862CL      CL30519   5.840  10.384   5.668 -0.1866  0.0617 -0.6007
41863CL      CL30520   1.817   9.645   6.933  0.0770  0.2745 -0.2193
41864CL      CL30521   0.030   1.252   1.989  0.3565 -0.1478 -0.0973
41865CL      CL30522   4.830   2.730   1.851 -0.1212  0.2979 -0.0113
41866CL      CL30523   4.300   4.473   3.928  0.2033  0.0515 -0.3135
41867CL      CL30524  10.842   3.058   5.524 -0.4044  0.1137 -0.3995
41868CL      CL30525   4.863   6.555   0.587  0.4098 -0.2864  0.3218
41869CL      CL30526   3.869   4.654   2.518 -0.4127 -0.1337  0.2080
41870CL      CL30527   0.424   2.209   9.851 -0.4076 -0.4381 -0.0036
41871CL      CL30528   2.272   4.395   0.235  0.1331  0.3151 -0.1650
41872CL      CL30529   6.858  10.893   8.300  0.2475 -0.2191 -0.2321
41873CL      CL30530   0.334   6.359   7.735  0.3376  0.0053 -0.4747
41874CL      CL30531   5.981   2.023  10.788 -0.3869 -0.1484 -0.0760
41875CL      CL30532   5.888  10.294  10.254 -0.1649 -0.1287 -0.2515
41876CL      CL30533  10.201   4.563   5.382 -0.0631  0.1971  0.3149
41877CL      CL30534   6.259   7.274   3.324 -0.4486  0.3872  0.1531
41878CL      CL30535   1.858   3.634   4.971  0.1983  0.1934  0.1203
41879CL      CL30536   9.526   3.605  10.849  0.1696 -0.0082  0.0828
41880CL      CL30537   3.970   1.360   3.174  0.5830  0.1476 -0.2232
41881CL      CL30538   1.881   1.450   4.865 -0.3625  0.2364 -0.2657
41882CL      CL30539   8.519   8.098   7.974  0.3797  0.0285 -0.0921
41883CL      CL30540   7.619   6.232  10.208 -0.4349  0.1197 -0.5677
41884CL      CL30541   1.677   0.248   7.226  0.4477 -0.0552  0.4088
41885CL      CL30542   9.692   4.895   2.226  0.0911  0.0183 -0.0292
41886CL      CL30543   6.098   8.874   6.411 -0.1422 -0.1223 -0.0608
41887CL      CL30544   5.954   8.182   5.204  0.0211  0.1217 -0.0201
41888CL      CL30545   4.745   7.762   2.460  0.1634  0.4434  0.2952
41889CL      CL30546   2.230   1.300   3.124  0.4248 -0.5875 -0.0303
41890CL      CL30547   3.678   0.786  10.124 -0.3121  0.1864  0.1393
41891CL      CL30548   2.645   8.001   2.722 -0.2078  0.2157  0.1048
41892CL      CL30549   8.753   1.837   7.551 -0.0478  0.4094  0.1913
41893CL      CL30550  10.180   7.718   7.048  0.0475  0.6826  0.1784
41894CL      CL30551  10.571   3.797   6.605 -0.1178  0.0540 -0.0391
41895CL      CL30552  10.785   4.142   1.568 -0.0609  0.3330  0.2443
41896CL      CL30553   6.674   6.404   5.672 -0.0730 -0.0983  0.0311
41897CL      CL30554   9.428   5.586   8.435 -0.3776  0.1438  0.6362
41898CL      CL30555   7.332   6.250   5.536 -0.1879  0.1559  0.2399
41899CL      CL30556   1.548   6.809   2.100 -0.0013 -0.0270 -0.1687
41900CL      CL30557   6.264   5.243   2.157  0.4011 -0.7295  0.2467
41901CL      CL30558   0.724  10.337   7.331 -0.1401 -0.1888 -0.1995
41902CL      CL30559   4.029   8.837   2.779 -0.1201 -0.1342 -0.0745
41903CL      CL30560   9.659   3.624   2.040  0.0873  0.1459  0.1210
41904CL      CL30561   3.552   6.072   3.175  0.4078  0.0571  0.3836
41905CL      CL30562   5.716   6.227   8.292  0.2090 -0.0330  0.0907
41906CL      CL30563   3.740   7.985   4.852  0.1442  0.0646 -0.1392
41907CL      CL30564   9.000   8.054   5.426  0.3361 -0.0059  0.3004
41908CL      CL30565  10.352   4.097  10.686 -0.3995 -0.1217  0.0232
41909CL      CL30566   9.018   5.914   8.551  0.1378  0.0691 -0.3515
41910CL      CL30567   5.564   7.420   8.579  0.3907 -0.1861  0.2738
41911CL      CL30568   2.673   6.677   8.007  0.1744 -0.0410  0.1550
41912CL      CL30569   4.428   9.736   0.767 -0.0967 -0.1164  0.0828
  10.92587  10.92587  10.92587
